Title
42779
    1SAPS     N    1   5.230   5.201   6.737  0.4423 -0.0417  0.1174
    1SAPS   HN1    2   5.257   5.257   6.820  0.6790  0.9743 -0.6226
    1SAPS   HN2    3   5.270   5.105   6.741  0.8220  0.0134 -1.4430
    1SAPS   HN3    4   5.282   5.256   6.665  0.7594 -1.5953 -0.8904
    1SAPS   C12    5   5.081   5.210   6.718  0.1684  0.5034  0.8054
    1SAPS  H12A    6   5.042   5.197   6.818 -0.5981 -1.1250  0.3127
    1SAPS   C13    7   5.019   5.347   6.664 -1.0057  0.5123 -0.2052
    1SAPS  O13A    8   5.078   5.453   6.693 -0.3559 -0.0324  0.1415
    1SAPS  O13B    9   4.890   5.337   6.658 -0.1756  0.4531 -0.2252
    1SAPS   C11   10   5.034   5.094   6.628 -0.1371  0.7024  0.4653
    1SAPS  H11A   11   5.067   5.117   6.524 -2.5764  1.8264 -0.1154
    1SAPS  H11B   12   4.925   5.075   6.638  0.2627 -1.1992  1.7189
    1SAPS     P   13   5.031   4.839   6.659 -0.1967  0.2270 -0.2618
    1SAPS   O13   14   5.123   4.736   6.717  0.0947  0.1630 -0.0540
    1SAPS   O14   15   4.896   4.838   6.710  0.8685  0.1560 -0.7867
    1SAPS   O12   16   5.096   4.974   6.671 -0.6087  0.7170 -0.3322
    1SAPS   O11   17   5.032   4.822   6.501 -0.2776  0.4653 -0.5811
    1SAPS    C1   18   5.136   4.764   6.420  0.7643 -0.1956  0.2006
    1SAPS    HA   19   5.175   4.674   6.472  1.4705  0.7577  1.3719
    1SAPS    HB   20   5.104   4.739   6.317 -2.1409  0.2348  0.9130
    1SAPS    C2   21   5.239   4.875   6.392  0.5364  0.3865  0.0250
    1SAPS    HS   22   5.283   4.903   6.491 -0.5691  2.0469  0.0939
    1SAPS   O21   23   5.180   4.987   6.323  0.3856  0.1947  0.2163
    1SAPS   C21   24   5.258   5.086   6.291  0.2273  0.3271  0.0349
    1SAPS   O22   25   5.369   5.108   6.338  0.5541 -0.6669  0.0276
    1SAPS   C22   26   5.177   5.183   6.199 -0.5671 -0.2458 -0.5341
    1SAPS   H2R   27   5.074   5.183   6.240 -0.8410  0.2883 -1.2156
    1SAPS   H2S   28   5.234   5.278   6.200 -1.8578  0.5343  0.1547
    1SAPS    C3   29   5.356   4.807   6.318  0.1746  0.0059 -0.6621
    1SAPS    HX   30   5.408   4.740   6.390 -0.0616 -1.9025 -2.1616
    1SAPS    HY   31   5.433   4.882   6.292  0.8624  0.3118  1.9648
    1SAPS   O31   32   5.314   4.728   6.208 -0.1527  0.1949 -0.6007
    1SAPS   C31   33   5.318   4.785   6.084 -0.1996  0.1037  1.1325
    1SAPS   O32   34   5.373   4.888   6.059 -0.0831  0.1299 -0.2720
    1SAPS   C32   35   5.240   4.706   5.978  0.4023  0.0828  0.2308
    1SAPS   H2X   36   5.154   4.653   6.024  1.9444 -0.6665  2.3787
    1SAPS   H2Y   37   5.308   4.623   5.947  0.4616  0.2826 -0.1919
    1SAPS   C23   38   5.172   5.138   6.058  0.3092  0.8381  0.6571
    1SAPS   H3R   39   5.143   5.031   6.050 -0.9955  1.2397 -0.3102
    1SAPS   H3S   40   5.269   5.137   6.003  0.2965  3.1881  0.5222
    1SAPS   C24   41   5.069   5.212   5.979  0.5392  0.4734 -0.0495
    1SAPS   H4R   42   5.104   5.317   5.968 -3.4979  1.8469 -1.9824
    1SAPS   H4S   43   4.971   5.213   6.031  0.2511 -2.7895 -0.3494
    1SAPS   C25   44   5.056   5.157   5.839  0.0931 -0.0816  0.1091
    1SAPS   H5R   45   4.995   5.065   5.838 -0.2845  0.1685 -0.4215
    1SAPS   C26   46   5.127   5.191   5.728  0.1258 -0.0868 -0.9578
    1SAPS   H6R   47   5.112   5.147   5.628  0.3311 -1.3803 -0.4403
    1SAPS   C27   48   5.226   5.302   5.716 -0.2550  0.8097  0.1387
    1SAPS   H7R   49   5.333   5.270   5.722 -0.8379 -1.0863  1.6217
    1SAPS   H7S   50   5.225   5.371   5.803  1.2564  0.4935  0.4463
    1SAPS   C28   51   5.209   5.380   5.588  0.4921 -0.1193 -0.7912
    1SAPS   H8R   52   5.143   5.468   5.602  0.7572 -0.1888  1.0728
    1SAPS   C29   53   5.275   5.353   5.474 -0.4868  0.6462  0.6086
    1SAPS   H9R   54   5.252   5.420   5.390  2.3586  0.2985 -0.5906
    1SAPS  C210   55   5.364   5.233   5.444 -0.3492  0.1429  0.2303
    1SAPS  H10R   56   5.413   5.183   5.530  2.0148  2.3748  0.2939
    1SAPS  H10S   57   5.448   5.276   5.385 -0.4214 -0.0091  0.0132
    1SAPS  C211   58   5.279   5.131   5.363 -0.3006  0.8094 -0.0810
    1SAPS  H11R   59   5.195   5.089   5.420 -0.3549  3.1404  1.6888
    1SAPS  C212   60   5.291   5.101   5.233 -0.2119  0.4067  0.4119
    1SAPS  H12R   61   5.234   5.027   5.176  0.6348 -0.3057  0.4692
    1SAPS  C213   62   5.405   5.152   5.151  0.0993 -0.4692  0.1549
    1SAPS  H13R   63   5.504   5.113   5.184  0.5499  0.0012 -0.6191
    1SAPS  H13S   64   5.409   5.262   5.166  2.3468 -0.3942 -0.5853
    1SAPS  C214   65   5.381   5.131   5.003  0.6819 -0.0264  0.4381
    1SAPS  H14R   66   5.288   5.086   4.965  0.1481  0.9267  0.5748
    1SAPS  C215   67   5.454   5.182   4.902 -1.3866 -0.3496  0.2725
    1SAPS  H15R   68   5.426   5.165   4.798  1.0691 -3.1138 -0.0758
    1SAPS  C216   69   5.588   5.249   4.924 -0.1202 -0.0710 -0.3912
    1SAPS  H16R   70   5.664   5.233   4.845  0.6010  0.6976  0.1233
    1SAPS  H16S   71   5.633   5.212   5.019 -0.2057 -1.3933 -0.8552
    1SAPS  C217   72   5.570   5.408   4.939 -0.6214  0.1473 -0.0005
    1SAPS  H17R   73   5.498   5.423   5.022 -0.4086 -0.4783  0.3046
    1SAPS  H17S   74   5.522   5.455   4.850 -1.9163  2.9254  2.0116
    1SAPS  C218   75   5.702   5.470   4.992 -0.0110 -0.5050 -0.3566
    1SAPS  H18R   76   5.768   5.472   4.903 -1.4877  1.3921 -1.4888
    1SAPS  H18S   77   5.750   5.400   5.064 -1.2462  0.6348  1.6675
    1SAPS  C219   78   5.700   5.603   5.055  0.3568 -0.1567 -0.1730
    1SAPS  H19R   79   5.799   5.612   5.104 -0.7630  1.6320  1.9339
    1SAPS  H19S   80   5.636   5.595   5.146 -0.1075  2.6053 -0.1699
    1SAPS  C220   81   5.658   5.721   4.963 -0.0651  0.3484 -0.7572
    1SAPS  H20R   82   5.549   5.720   4.941 -0.6674 -0.9116  1.8218
    1SAPS  H20S   83   5.718   5.730   4.870  1.3426 -0.1490  0.0729
    1SAPS  H20T   84   5.674   5.818   5.014  1.8837  0.5216 -1.6207
    1SAPS   C33   85   5.214   4.779   5.838 -0.3102  0.3364 -0.4813
    1SAPS   H3X   86   5.314   4.818   5.810 -1.3687  2.8477 -1.0803
    1SAPS   H3Y   87   5.146   4.865   5.858 -1.1235 -0.6414  1.1562
    1SAPS   C34   88   5.157   4.696   5.719 -0.3568 -0.4233 -0.0475
    1SAPS   H4X   89   5.046   4.698   5.706 -0.1604 -0.0775 -2.0516
    1SAPS   H4Y   90   5.189   4.590   5.727 -2.0711 -0.9452  0.4074
    1SAPS   C35   91   5.207   4.743   5.581  0.2568  0.2081 -0.4413
    1SAPS   H5X   92   5.317   4.728   5.573  0.1888 -0.4042 -0.2706
    1SAPS   H5Y   93   5.197   4.854   5.579  0.4172  0.2647  0.9743
    1SAPS   C36   94   5.124   4.674   5.465 -0.8175 -0.0183 -1.1705
    1SAPS   H6X   95   5.014   4.685   5.480 -0.8101  1.6226 -2.1659
    1SAPS   H6Y   96   5.145   4.565   5.481  3.3910  0.9316  1.4151
    1SAPS   C37   97   5.180   4.717   5.327 -0.2804  0.5430 -0.2484
    1SAPS   H7X   98   5.258   4.638   5.318 -1.8774 -0.9283 -1.8326
    1SAPS   H7Y   99   5.229   4.815   5.346 -0.4177  1.2864 -3.3533
    1SAPS   C38  100   5.081   4.702   5.217  0.6314 -0.5303 -0.1115
    1SAPS   H8X  101   5.008   4.785   5.224 -0.0893 -1.1358 -0.2880
    1SAPS   H8Y  102   5.023   4.607   5.211 -0.6697  0.2293  0.2677
    1SAPS   C39  103   5.152   4.725   5.085  0.0990 -0.5187 -0.2159
    1SAPS   H9X  104   5.246   4.666   5.080  0.0724 -0.5596 -0.2532
    1SAPS   H9Y  105   5.184   4.831   5.083 -0.8982 -0.1552  1.1978
    1SAPS  C310  106   5.077   4.682   4.960  0.4853  0.2542  0.0272
    1SAPS  H10X  107   4.972   4.683   4.996  0.0162  0.5539 -1.2872
    1SAPS  H10Y  108   5.106   4.582   4.922  1.2083  0.0589  1.0559
    1SAPS  C311  109   5.078   4.766   4.833 -0.4373  0.2285 -0.4488
    1SAPS  H11X  110   4.997   4.728   4.767 -3.1101 -2.3709  3.8270
    1SAPS  H11Y  111   5.177   4.757   4.784  1.3532 -0.1234  2.9285
    1SAPS  C312  112   5.049   4.921   4.853 -0.1621  0.3136  0.0932
    1SAPS  H12X  113   5.103   4.958   4.942  1.3595 -1.9023  0.1585
    1SAPS  H12Y  114   4.938   4.927   4.864 -0.0236  1.7645  0.8564
    1SAPS  C313  115   5.101   5.004   4.734 -0.3423  0.4082 -0.1999
    1SAPS  H13X  116   5.052   4.973   4.640  1.8108  0.6953 -1.4765
    1SAPS  H13Y  117   5.211   4.989   4.730 -0.5964 -2.0905  0.5771
    1SAPS  C314  118   5.085   5.151   4.748 -0.1815 -0.4473 -0.5489
    1SAPS  H14X  119   5.129   5.199   4.837 -0.4394 -0.1938 -0.5575
    1SAPS  H14Y  120   4.974   5.155   4.748 -0.2624 -1.7730 -1.6617
    1SAPS  C315  121   5.126   5.229   4.631 -0.1370  0.8848  0.3033
    1SAPS  H15X  122   5.099   5.164   4.545  2.3805 -1.1099  0.8720
    1SAPS  H15Y  123   5.235   5.242   4.612 -0.0997 -0.9299 -1.0016
    1SAPS  C316  124   5.053   5.364   4.619  0.0357  0.0487 -0.0235
    1SAPS  H16X  125   4.942   5.364   4.628 -0.0740  4.7445  1.4096
    1SAPS  H16Y  126   5.062   5.395   4.513  1.1579  0.6786  0.2432
    1SAPS  C317  127   5.107   5.481   4.695  0.1501  0.6797 -0.1715
    1SAPS  H17X  128   5.096   5.455   4.803 -1.4333  1.7743 -0.0255
    1SAPS  H17Y  129   5.046   5.574   4.688  0.5846  1.0268  0.5939
    1SAPS  C318  130   5.257   5.521   4.668 -0.4987 -0.6849  0.1877
    1SAPS  H18X  131   5.315   5.427   4.661 -0.3339 -0.5022 -1.1184
    1SAPS  H18Y  132   5.294   5.576   4.757 -0.3794  0.1663 -0.3811
    1SAPS  H18Z  133   5.254   5.577   4.572 -2.2885  1.8464  1.5748
    2SAPS     N  134   6.324   0.782   6.988 -0.1248  0.0570  0.5684
    2SAPS   HN1  135   6.409   0.742   6.942 -1.3946 -1.7096 -0.3746
    2SAPS   HN2  136   6.256   0.769   6.910 -0.5227 -1.4789  1.1431
    2SAPS   HN3  137   6.336   0.883   7.012  1.3345  0.4826 -1.5763
    2SAPS   C12  138   6.280   0.714   7.108 -0.0306  0.3215 -0.2236
    2SAPS  H12A  139   6.270   0.609   7.087  1.0984  0.3300 -0.8992
    2SAPS   C13  140   6.378   0.732   7.230 -0.3077  0.1553  0.9159
    2SAPS  O13A  141   6.463   0.824   7.233 -0.0852  0.7370  0.5404
    2SAPS  O13B  142   6.372   0.652   7.321  0.5314 -0.4594 -1.0051
    2SAPS   C11  143   6.142   0.773   7.155  0.2615 -0.4751  0.1206
    2SAPS  H11A  144   6.154   0.883   7.157 -1.2289 -0.2258 -2.0423
    2SAPS  H11B  145   6.120   0.737   7.258 -1.1568  1.4655  0.5526
    2SAPS     P  146   5.893   0.823   7.074 -0.3761  0.1873  0.0887
    2SAPS   O13  147   5.790   0.719   7.083  0.0411  0.2846 -0.0077
    2SAPS   O14  148   5.907   0.924   7.182  0.4231 -0.2639 -0.2285
    2SAPS   O12  149   6.034   0.739   7.068  0.4817 -0.3148 -0.2467
    2SAPS   O11  150   5.899   0.898   6.936 -0.0298  0.0332  0.2490
    2SAPS    C1  151   5.974   1.019   6.941 -0.4080  0.1184  0.1192
    2SAPS    HA  152   5.930   1.105   6.996 -1.0177  0.2687 -0.5872
    2SAPS    HB  153   6.074   0.999   6.985 -2.2393  0.8948  5.3781
    2SAPS    C2  154   5.992   1.076   6.796 -1.0557 -0.1044 -0.0889
    2SAPS    HS  155   5.914   1.149   6.767 -0.3743  0.4368 -0.5909
    2SAPS   O21  156   6.002   0.981   6.696  0.2735  0.1052  0.3249
    2SAPS   C21  157   5.880   0.956   6.639 -0.2306  0.2611 -0.4261
    2SAPS   O22  158   5.776   1.007   6.678  0.4399 -0.0607 -0.0340
    2SAPS   C22  159   5.902   0.856   6.521 -0.0453  0.2423  0.8048
    2SAPS   H2R  160   6.011   0.853   6.498 -0.2870 -0.5202 -0.3058
    2SAPS   H2S  161   5.873   0.753   6.548 -1.3356  0.5098  0.4894
    2SAPS    C3  162   6.113   1.177   6.784 -0.1915  0.4172 -0.7495
    2SAPS    HX  163   6.196   1.109   6.815 -0.2870  0.1213 -1.1315
    2SAPS    HY  164   6.106   1.260   6.857 -0.2469 -0.2104 -0.0244
    2SAPS   O31  165   6.134   1.228   6.648  0.5324  0.4762 -0.0394
    2SAPS   C31  166   6.252   1.238   6.601  0.4303 -0.6712  0.1702
    2SAPS   O32  167   6.353   1.220   6.663 -0.5915 -0.8029  0.0434
    2SAPS   C32  168   6.236   1.270   6.454 -0.1295 -0.5429  0.7541
    2SAPS   H2X  169   6.156   1.347   6.449  0.3841 -0.0510 -0.1811
    2SAPS   H2Y  170   6.197   1.179   6.402  1.0697 -0.2102 -0.8042
    2SAPS   C23  171   5.826   0.893   6.392 -0.3678 -0.7652  0.0933
    2SAPS   H3R  172   5.717   0.905   6.411 -0.4495 -0.7447 -0.3721
    2SAPS   H3S  173   5.825   0.805   6.323  0.2128 -1.5576  1.0696
    2SAPS   C24  174   5.887   1.021   6.332 -0.6271  0.0638  0.0005
    2SAPS   H4R  175   5.995   1.004   6.316 -1.0953 -2.0852 -1.2535
    2SAPS   H4S  176   5.874   1.102   6.407  3.3398  0.0074  0.9342
    2SAPS   C25  177   5.823   1.061   6.205 -0.3455  0.5957  0.6400
    2SAPS   H5R  178   5.713   1.050   6.199 -0.4426  2.3377 -3.0738
    2SAPS   C26  179   5.886   1.112   6.098  0.1289  0.0205 -0.1745
    2SAPS   H6R  180   5.831   1.137   6.007  1.2263  1.0929 -0.5756
    2SAPS   C27  181   6.028   1.157   6.083 -0.5886  0.1824  0.4404
    2SAPS   H7R  182   6.099   1.126   6.162 -0.8693  0.7928  0.9460
    2SAPS   H7S  183   6.024   1.267   6.066  0.6232  0.0195 -1.1444
    2SAPS   C28  184   6.086   1.080   5.965 -0.3931 -0.1628  0.1044
    2SAPS   H8R  185   6.082   0.972   5.984 -1.1844 -0.0788  0.4224
    2SAPS   C29  186   6.134   1.129   5.846 -0.9319  0.4278 -0.5534
    2SAPS   H9R  187   6.166   1.053   5.774 -0.1903  0.9715 -0.8052
    2SAPS  C210  188   6.137   1.274   5.803 -0.8069 -0.1983  0.4769
    2SAPS  H10R  189   6.224   1.331   5.843 -0.4076 -2.3986  3.0260
    2SAPS  H10S  190   6.050   1.320   5.855 -0.4285  1.0537  0.0407
    2SAPS  C211  191   6.126   1.296   5.656 -0.1042  0.1018  0.6226
    2SAPS  H11R  192   6.221   1.300   5.599  0.0817 -0.8515  0.8483
    2SAPS  C212  193   6.020   1.311   5.583 -0.1596  0.0238 -0.4057
    2SAPS  H12R  194   6.039   1.313   5.475 -1.7734  0.1619 -0.7041
    2SAPS  C213  195   5.877   1.282   5.628 -0.2089 -0.1855  0.0122
    2SAPS  H13R  196   5.824   1.376   5.656 -0.0401 -0.0730 -0.0441
    2SAPS  H13S  197   5.875   1.225   5.723 -0.4454 -0.4948 -0.1726
    2SAPS  C214  198   5.789   1.209   5.524  0.1328  0.1179  0.1253
    2SAPS  H14R  199   5.826   1.106   5.508  0.8236  0.3741  0.0632
    2SAPS  C215  200   5.670   1.242   5.474  0.7178  0.0056 -0.2279
    2SAPS  H15R  201   5.614   1.178   5.405  1.7012 -2.8450  1.4569
    2SAPS  C216  202   5.595   1.373   5.500  0.8567 -0.2166  0.3818
    2SAPS  H16R  203   5.627   1.415   5.597  0.2311 -0.4489  0.6935
    2SAPS  H16S  204   5.493   1.333   5.518 -0.4297  2.0821 -1.2190
    2SAPS  C217  205   5.596   1.481   5.392 -0.0355  0.6917 -0.3046
    2SAPS  H17R  206   5.703   1.506   5.378  0.1915 -0.1432 -0.1253
    2SAPS  H17S  207   5.535   1.565   5.431 -0.9139  0.7009 -1.6068
    2SAPS  C218  208   5.533   1.438   5.258 -0.6165 -0.0901 -0.3504
    2SAPS  H18R  209   5.432   1.394   5.275 -0.9004  0.8600  0.5415
    2SAPS  H18S  210   5.599   1.363   5.210 -0.1125  0.6695 -0.8614
    2SAPS  C219  211   5.532   1.546   5.155 -0.4933 -0.1876 -0.1909
    2SAPS  H19R  212   5.634   1.588   5.146 -0.1362 -1.0808 -0.3925
    2SAPS  H19S  213   5.468   1.633   5.184  0.4659  1.1961 -1.9633
    2SAPS  C220  214   5.490   1.498   5.017  0.1401 -0.0509 -1.0995
    2SAPS  H20R  215   5.549   1.410   4.984 -0.8243 -1.0292 -0.2697
    2SAPS  H20S  216   5.487   1.587   4.950 -1.6311  1.8307  1.2680
    2SAPS  H20T  217   5.385   1.469   5.037  0.2344  0.4486  0.2756
    2SAPS   C33  218   6.361   1.306   6.373 -0.1671 -0.3814 -0.1222
    2SAPS   H3X  219   6.446   1.239   6.397  0.5333 -0.1421 -1.8188
    2SAPS   H3Y  220   6.394   1.407   6.404  0.3469 -0.6831  0.3208
    2SAPS   C34  221   6.330   1.299   6.217  0.2972  0.5026 -0.7435
    2SAPS   H4X  222   6.253   1.375   6.190  2.6722  2.9612 -0.9663
    2SAPS   H4Y  223   6.280   1.202   6.197 -2.4936  1.9796 -1.5588
    2SAPS   C35  224   6.457   1.323   6.125  0.0916 -0.0742 -0.4558
    2SAPS   H5X  225   6.450   1.264   6.030  4.2983 -0.2366 -0.8592
    2SAPS   H5Y  226   6.550   1.290   6.176  0.2026  0.9392  0.0064
    2SAPS   C36  227   6.469   1.472   6.095  1.0144  0.1782  0.5503
    2SAPS   H6X  228   6.501   1.535   6.181  2.1979  1.5295 -0.8013
    2SAPS   H6Y  229   6.367   1.501   6.064  0.4754 -2.6369 -0.5927
    2SAPS   C37  230   6.560   1.507   5.976  0.3993 -0.0713  0.1208
    2SAPS   H7X  231   6.666   1.489   6.003  0.6072  1.2358  0.2224
    2SAPS   H7Y  232   6.547   1.617   5.971  1.5050  0.1635  1.6398
    2SAPS   C38  233   6.528   1.440   5.841  0.0575 -0.9580 -0.0999
    2SAPS   H8X  234   6.417   1.435   5.842 -0.1499  1.8821  0.6164
    2SAPS   H8Y  235   6.565   1.337   5.828  0.1671 -1.0393  0.7911
    2SAPS   C39  236   6.558   1.534   5.719  0.2388 -0.6397 -0.3918
    2SAPS   H9X  237   6.662   1.572   5.731 -0.0933  0.0088  0.5473
    2SAPS   H9Y  238   6.489   1.621   5.730 -0.0867 -1.0875  1.4307
    2SAPS  C310  239   6.555   1.456   5.589 -0.1811  0.1253 -0.4586
    2SAPS  H10X  240   6.461   1.400   5.572  0.3380 -1.4760  1.4853
    2SAPS  H10Y  241   6.629   1.377   5.611  0.3389  0.9385  0.8874
    2SAPS  C311  242   6.600   1.542   5.470  0.4670  0.5129  0.8465
    2SAPS  H11X  243   6.703   1.575   5.494 -0.1792  1.3142  2.7260
    2SAPS  H11Y  244   6.533   1.630   5.466 -0.4867 -0.2312 -1.2159
    2SAPS  C312  245   6.594   1.466   5.333  0.6498  0.7974  0.2924
    2SAPS  H12X  246   6.491   1.430   5.310  1.4559 -1.1800 -0.3348
    2SAPS  H12Y  247   6.669   1.385   5.342  1.9703  1.7355 -1.6058
    2SAPS  C313  248   6.643   1.555   5.216 -0.2151 -0.0046 -0.5388
    2SAPS  H13X  249   6.611   1.662   5.219  1.1752  0.5193 -2.3555
    2SAPS  H13Y  250   6.605   1.528   5.115  0.2417  2.0061 -1.3104
    2SAPS  C314  251   6.793   1.564   5.201  0.3060 -0.1437  0.5000
    2SAPS  H14X  252   6.837   1.463   5.185  0.5553  0.0647 -0.1510
    2SAPS  H14Y  253   6.829   1.605   5.298 -2.7626  3.1429  0.4696
    2SAPS  C315  254   6.845   1.654   5.090  0.0890  0.2407 -0.4720
    2SAPS  H15X  255   6.799   1.753   5.112  1.3911  0.9510 -0.8327
    2SAPS  H15Y  256   6.807   1.617   4.992 -1.5318  3.9380 -1.4143
    2SAPS  C316  257   6.993   1.674   5.084  1.0324  0.1738  0.2071
    2SAPS  H16X  258   7.040   1.575   5.067 -1.6220 -1.3732  1.2334
    2SAPS  H16Y  259   7.029   1.718   5.180  1.7254  0.3458 -0.1279
    2SAPS  C317  260   7.027   1.770   4.973 -0.1610 -0.0198  0.3511
    2SAPS  H17X  261   6.964   1.750   4.883 -0.1367  1.0243  0.0917
    2SAPS  H17Y  262   7.127   1.744   4.932 -1.1381 -3.1079 -0.3873
    2SAPS  C318  263   7.010   1.919   5.015 -0.5082 -1.2007  0.0347
    2SAPS  H18X  264   6.920   1.920   5.081 -1.4721 -0.1161 -1.2292
    2SAPS  H18Y  265   7.005   1.983   4.924  3.0197 -0.9037 -0.0827
    2SAPS  H18Z  266   7.101   1.947   5.071 -0.4506  0.3730 -0.7810
    3SAPS     N  267   5.813   5.690   6.856  0.1369  0.5929 -0.4172
    3SAPS   HN1  268   5.730   5.663   6.799 -0.3690 -2.0240  1.4117
    3SAPS   HN2  269   5.902   5.711   6.806  0.0436  0.4382 -0.6498
    3SAPS   HN3  270   5.839   5.609   6.915  1.3536  0.2125 -1.4323
    3SAPS   C12  271   5.788   5.802   6.953  0.7536  0.8019 -0.4318
    3SAPS  H12A  272   5.708   5.855   6.903 -0.1619 -2.7385 -3.1407
    3SAPS   C13  273   5.744   5.757   7.100  0.3429  0.3285  0.5746
    3SAPS  O13A  274   5.707   5.636   7.114  0.1824 -0.2703 -0.1040
    3SAPS  O13B  275   5.713   5.850   7.180 -0.3705  0.3837  0.4707
    3SAPS   C11  276   5.913   5.895   6.955  0.1409 -0.4757  0.2437
    3SAPS  H11A  277   5.995   5.830   6.993 -1.3408 -2.6211 -0.0346
    3SAPS  H11B  278   5.901   5.976   7.031  1.8996 -0.8816  0.9989
    3SAPS     P  279   5.861   6.065   6.766 -0.0192  0.0176  0.4042
    3SAPS   O13  280   5.760   6.115   6.865  0.0294 -0.5247  0.0489
    3SAPS   O14  281   5.955   6.167   6.708 -0.2176  0.1177 -0.2715
    3SAPS   O12  282   5.945   5.949   6.829  0.4073  0.0857 -0.5034
    3SAPS   O11  283   5.775   5.990   6.665  0.3760 -0.7849  0.0606
    3SAPS    C1  284   5.819   5.960   6.532 -0.2608 -0.6971 -0.3121
    3SAPS    HA  285   5.922   5.983   6.499  0.2592  0.0814  1.7566
    3SAPS    HB  286   5.826   5.850   6.520 -1.4548 -0.7507 -0.6605
    3SAPS    C2  287   5.716   6.003   6.430  0.3567 -0.8392  0.7529
    3SAPS    HS  288   5.716   6.114   6.422 -2.3509 -0.8243 -0.0167
    3SAPS   O21  289   5.585   5.953   6.474 -0.0705  0.1987 -0.1366
    3SAPS   C21  290   5.484   6.032   6.450 -0.3898  0.3901  0.5798
    3SAPS   O22  291   5.490   6.137   6.390 -0.0349  0.0600 -0.0052
    3SAPS   C22  292   5.364   5.979   6.513  0.3609 -0.4498  0.5621
    3SAPS   H2R  293   5.360   5.869   6.499  4.9052 -0.7759  0.4614
    3SAPS   H2S  294   5.367   5.997   6.623  1.2076 -0.2970  0.5197
    3SAPS    C3  295   5.741   5.953   6.285 -0.2455  0.5697 -0.5614
    3SAPS    HX  296   5.754   5.843   6.295  0.8124  0.5203 -2.1068
    3SAPS    HY  297   5.833   5.994   6.238 -0.3175 -0.5656 -1.7343
    3SAPS   O31  298   5.641   5.967   6.192  0.4747  0.4785 -0.4818
    3SAPS   C31  299   5.625   6.080   6.135 -0.0776 -0.2985  0.1670
    3SAPS   O32  300   5.699   6.176   6.157  0.9623 -0.3949  0.3318
    3SAPS   C32  301   5.529   6.076   6.019  0.0755 -0.4548 -0.3902
    3SAPS   H2X  302   5.442   6.011   6.042 -0.4557  0.8275  1.4292
    3SAPS   H2Y  303   5.579   6.031   5.930  0.9955 -0.5851  0.1727
    3SAPS   C23  304   5.232   6.045   6.450  0.2331  0.2721 -0.5650
    3SAPS   H3R  305   5.234   6.154   6.469 -2.1591 -0.1062  2.5586
    3SAPS   H3S  306   5.141   6.005   6.500  1.0466 -4.2681 -2.2427
    3SAPS   C24  307   5.215   6.025   6.298  0.1469  1.2414 -0.4388
    3SAPS   H4R  308   5.316   6.007   6.255  0.4945 -2.2914  1.4729
    3SAPS   H4S  309   5.172   6.116   6.251 -0.6123  1.8352  1.3464
    3SAPS   C25  310   5.127   5.908   6.256  0.3064 -0.0740 -0.1338
    3SAPS   H5R  311   5.121   5.818   6.320 -0.0709  0.3643  0.4566
    3SAPS   C26  312   5.035   5.912   6.156  0.2635 -0.3184 -0.3780
    3SAPS   H6R  313   4.988   5.819   6.121 -0.3349  0.1301 -0.7885
    3SAPS   C27  314   4.996   6.004   6.052 -0.3047 -0.0386  0.0562
    3SAPS   H7R  315   4.984   5.952   5.955  1.6430  1.0150 -0.7935
    3SAPS   H7S  316   5.080   6.076   6.040 -1.5678  1.1398 -2.8687
    3SAPS   C28  317   4.872   6.084   6.092  0.0107  0.6032 -0.5827
    3SAPS   H8R  318   4.859   6.090   6.201  1.5980  0.3065 -0.3563
    3SAPS   C29  319   4.800   6.162   6.020  0.8169 -0.4698 -0.1134
    3SAPS   H9R  320   4.708   6.207   6.061  0.4382  0.3087 -1.7447
    3SAPS  C210  321   4.819   6.180   5.869 -0.8959 -0.0049  0.1468
    3SAPS  H10R  322   4.927   6.165   5.850 -1.0127 -0.6295 -0.0363
    3SAPS  H10S  323   4.794   6.286   5.844  2.0770  0.8737  0.5884
    3SAPS  C211  324   4.744   6.085   5.789  0.2001 -0.4149 -0.1014
    3SAPS  H11R  325   4.664   6.034   5.845 -0.5767 -2.3539 -2.7668
    3SAPS  C212  326   4.782   6.035   5.670 -0.5673  1.2318  0.3156
    3SAPS  H12R  327   4.717   5.970   5.609  3.4719 -2.1046 -0.8465
    3SAPS  C213  328   4.914   6.071   5.592  0.1473  0.5767  0.5253
    3SAPS  H13R  329   4.961   6.162   5.635 -0.4489  1.7348 -1.1448
    3SAPS  H13S  330   4.874   6.102   5.493 -2.4041 -1.6170  0.7540
    3SAPS  C214  331   5.015   5.956   5.586  0.1703 -0.0655  0.7533
    3SAPS  H14R  332   5.026   5.910   5.685 -3.3563 -2.0893  0.3787
    3SAPS  C215  333   5.080   5.894   5.483 -0.4708  0.3714 -0.3491
    3SAPS  H15R  334   5.150   5.810   5.499 -0.2547  0.1970 -2.0530
    3SAPS  C216  335   5.051   5.926   5.340  0.0157  0.6630 -0.2258
    3SAPS  H16R  336   4.978   6.009   5.330  0.4723  1.1500  0.4536
    3SAPS  H16S  337   5.019   5.832   5.289  0.4759  0.9094 -0.9814
    3SAPS  C217  338   5.170   5.979   5.258 -0.0023 -0.5392 -0.1413
    3SAPS  H17R  339   5.206   6.078   5.292 -0.2528  0.2155 -1.9442
    3SAPS  H17S  340   5.138   5.994   5.153 -0.0235 -0.9628 -0.1977
    3SAPS  C218  341   5.295   5.888   5.260 -0.0768 -0.4235 -0.0210
    3SAPS  H18R  342   5.346   5.891   5.359  1.0572 -2.6815 -0.4767
    3SAPS  H18S  343   5.363   5.915   5.177 -1.7640  1.2769 -0.9419
    3SAPS  C219  344   5.266   5.741   5.232 -0.4853  0.2070 -0.3744
    3SAPS  H19R  345   5.363   5.690   5.253 -0.7379 -0.6284 -1.1426
    3SAPS  H19S  346   5.192   5.695   5.300  0.1723 -0.3353 -0.0072
    3SAPS  C220  347   5.228   5.716   5.083  0.2186 -0.3056 -0.1232
    3SAPS  H20R  348   5.300   5.749   5.004  1.0583 -1.1389  0.2694
    3SAPS  H20S  349   5.134   5.769   5.058 -0.3545 -0.2272  2.0087
    3SAPS  H20T  350   5.217   5.608   5.064  3.0237 -0.8190  0.5983
    3SAPS   C33  351   5.476   6.211   5.982 -0.1883  0.2745 -0.0798
    3SAPS   H3X  352   5.553   6.284   5.949 -0.2627 -0.6619 -2.4894
    3SAPS   H3Y  353   5.422   6.258   6.067 -1.9044  0.6181 -1.3076
    3SAPS   C34  354   5.366   6.208   5.875 -0.3543  0.2215 -0.1199
    3SAPS   H4X  355   5.275   6.261   5.910  0.6785  1.3444  0.9772
    3SAPS   H4Y  356   5.335   6.104   5.851  2.3432 -0.3825 -1.3686
    3SAPS   C35  357   5.408   6.268   5.736  0.3851  0.6241 -0.1748
    3SAPS   H5X  358   5.435   6.371   5.765 -0.2612 -0.1611  3.7462
    3SAPS   H5Y  359   5.491   6.203   5.699 -0.1505 -1.2512  1.7180
    3SAPS   C36  360   5.297   6.246   5.631  0.5783  0.1333  0.7934
    3SAPS   H6X  361   5.198   6.286   5.658 -0.3708  0.1040 -2.2144
    3SAPS   H6Y  362   5.276   6.137   5.631  0.1702  0.2099  0.4576
    3SAPS   C37  363   5.338   6.308   5.494 -0.3954 -0.5246 -0.1923
    3SAPS   H7X  364   5.389   6.231   5.430  1.2373 -0.7736  1.3238
    3SAPS   H7Y  365   5.412   6.386   5.521 -0.4028 -1.1425  1.7857
    3SAPS   C38  366   5.230   6.367   5.413  0.5365 -0.8225  0.0893
    3SAPS   H8X  367   5.170   6.442   5.469  1.0099 -1.3664  1.3653
    3SAPS   H8Y  368   5.157   6.287   5.387  1.1072 -2.1834  2.3737
    3SAPS   C39  369   5.268   6.434   5.278  0.7811 -0.4803 -0.0107
    3SAPS   H9X  370   5.359   6.384   5.239  2.0970 -0.0770  2.3222
    3SAPS   H9Y  371   5.309   6.535   5.301 -0.3894 -0.1955  0.9925
    3SAPS  C310  372   5.153   6.429   5.178  0.4479  0.2049  0.1421
    3SAPS  H10X  373   5.063   6.467   5.231  0.3377 -0.6247  0.5582
    3SAPS  H10Y  374   5.137   6.322   5.153  0.5874  0.2847 -0.3037
    3SAPS  C311  375   5.176   6.510   5.045  0.4948 -0.0309  0.0664
    3SAPS  H11X  376   5.254   6.585   5.073  0.3167 -0.0636  0.6755
    3SAPS  H11Y  377   5.084   6.567   5.021 -1.0863 -2.6513 -0.4662
    3SAPS  C312  378   5.191   6.408   4.934  0.5619 -0.3932  0.8985
    3SAPS  H12X  379   5.189   6.459   4.835  1.1403 -3.1890 -0.6638
    3SAPS  H12Y  380   5.101   6.343   4.934  0.1554 -0.1444 -3.7877
    3SAPS  C313  381   5.330   6.339   4.931 -0.0039 -0.9062 -0.0728
    3SAPS  H13X  382   5.341   6.284   5.027 -1.4976 -0.6008  0.2985
    3SAPS  H13Y  383   5.415   6.409   4.919 -0.1332 -0.7925 -0.3376
    3SAPS  C314  384   5.349   6.231   4.818 -0.1724 -0.2265 -0.2216
    3SAPS  H14X  385   5.328   6.265   4.715 -2.2178  1.8168  0.7723
    3SAPS  H14Y  386   5.284   6.144   4.841 -1.2528  0.4675 -0.5494
    3SAPS  C315  387   5.493   6.178   4.812 -0.1465  0.4498  0.2106
    3SAPS  H15X  388   5.513   6.129   4.910  0.3331 -2.0738 -1.0602
    3SAPS  H15Y  389   5.561   6.265   4.796 -0.2023  0.5498  0.5109
    3SAPS  C316  390   5.509   6.061   4.710 -0.4095 -0.6312  0.2226
    3SAPS  H16X  391   5.495   6.102   4.608  0.6568  0.3162  0.4325
    3SAPS  H16Y  392   5.429   5.989   4.736  0.7354 -1.7875  0.6562
    3SAPS  C317  393   5.649   6.002   4.710 -0.0965  0.4734 -0.5029
    3SAPS  H17X  394   5.664   5.912   4.774  1.4429  0.9255 -0.1966
    3SAPS  H17Y  395   5.728   6.075   4.738  1.2424 -1.3167  0.6437
    3SAPS  C318  396   5.687   5.951   4.569  0.3520  0.3025  0.4492
    3SAPS  H18X  397   5.632   5.859   4.539  0.0947  0.8740 -0.8843
    3SAPS  H18Y  398   5.795   5.928   4.573 -0.0660 -2.0751 -0.3271
    3SAPS  H18Z  399   5.667   6.029   4.493  0.2275 -0.3722 -0.2267
    4SAPS     N  400   3.672   3.715   7.308 -0.3642  0.0594 -0.3213
    4SAPS   HN1  401   3.600   3.787   7.328  0.2508  0.6676 -0.2661
    4SAPS   HN2  402   3.720   3.742   7.219 -0.0933  1.3234  0.1868
    4SAPS   HN3  403   3.616   3.628   7.299  0.1625 -0.2212 -0.9737
    4SAPS   C12  404   3.769   3.707   7.429 -0.2392  0.3321  0.4191
    4SAPS  H12A  405   3.804   3.802   7.466  0.5579  0.2391 -0.0590
    4SAPS   C13  406   3.709   3.629   7.554 -0.1947  0.1274  0.2292
    4SAPS  O13A  407   3.596   3.572   7.534  0.3664 -0.1916 -0.5465
    4SAPS  O13B  408   3.762   3.625   7.666 -0.1219 -0.2296  0.2318
    4SAPS   C11  409   3.896   3.625   7.381 -0.9202  0.2127  0.3323
    4SAPS  H11A  410   3.957   3.611   7.473 -0.0317  0.1624 -0.2511
    4SAPS  H11B  411   3.956   3.687   7.311 -0.1187 -1.6450 -0.7101
    4SAPS     P  412   3.966   3.391   7.278  0.4480 -0.2833 -0.8334
    4SAPS   O13  413   4.101   3.448   7.315  0.5089  0.0905 -0.3243
    4SAPS   O14  414   3.919   3.259   7.337 -0.6240 -0.0544 -0.2746
    4SAPS   O12  415   3.863   3.496   7.330 -0.3260 -0.1111  0.8259
    4SAPS   O11  416   3.947   3.397   7.126 -0.2022 -0.7053  0.1812
    4SAPS    C1  417   4.005   3.506   7.048  1.0472  0.0811 -0.4016
    4SAPS    HA  418   3.983   3.605   7.094  1.7723  0.2222 -0.3478
    4SAPS    HB  419   4.115   3.491   7.044  0.7911 -1.9344 -0.5648
    4SAPS    C2  420   3.954   3.502   6.904 -0.5456 -0.4226 -0.2958
    4SAPS    HS  421   4.039   3.547   6.849 -0.6635 -1.0504 -1.0187
    4SAPS   O21  422   3.830   3.576   6.889  0.0916 -0.4597 -0.1047
    4SAPS   C21  423   3.780   3.586   6.766  0.0120 -1.2291 -0.3501
    4SAPS   O22  424   3.842   3.561   6.669  0.7511 -0.0378  0.1485
    4SAPS   C22  425   3.645   3.662   6.780  0.1478 -0.6688 -0.2712
    4SAPS   H2R  426   3.598   3.626   6.874 -0.6792  0.7314 -0.1133
    4SAPS   H2S  427   3.660   3.771   6.796 -0.7890 -0.4314 -0.8844
    4SAPS    C3  428   3.951   3.351   6.869 -0.2464 -0.1175  0.1505
    4SAPS    HX  429   3.879   3.298   6.935 -0.1494  1.0650  1.2513
    4SAPS    HY  430   4.046   3.307   6.907 -0.8651 -1.6086  0.0220
    4SAPS   O31  431   3.939   3.317   6.728 -0.3179 -0.1948 -0.5614
    4SAPS   C31  432   4.052   3.327   6.662  0.4813  0.6584  0.0060
    4SAPS   O32  433   4.162   3.343   6.710  0.0651  0.2969  0.5881
    4SAPS   C32  434   4.026   3.299   6.521 -0.3245 -0.3464 -0.0459
    4SAPS   H2X  435   3.979   3.397   6.495 -1.2071 -0.3751  1.3048
    4SAPS   H2Y  436   3.954   3.215   6.510  3.7908 -4.4456  1.5291
    4SAPS   C23  437   3.545   3.640   6.664  0.0197 -0.7185  0.4921
    4SAPS   H3R  438   3.440   3.654   6.698 -0.6130 -2.9594 -0.3144
    4SAPS   H3S  439   3.555   3.532   6.637  1.1889 -0.1868 -1.4392
    4SAPS   C24  440   3.574   3.727   6.541  0.7451 -0.5452  0.1984
    4SAPS   H4R  441   3.677   3.705   6.505  0.5149 -0.0952 -0.7699
    4SAPS   H4S  442   3.578   3.835   6.566 -0.5512 -0.3174 -0.5265
    4SAPS   C25  443   3.470   3.693   6.432 -0.2705 -0.9011  0.0427
    4SAPS   H5R  444   3.372   3.743   6.435 -0.3791 -1.1134  0.0052
    4SAPS   C26  445   3.484   3.595   6.344 -0.1175 -0.1806 -0.3662
    4SAPS   H6R  446   3.402   3.567   6.276 -2.8351  2.1508  1.7129
    4SAPS   C27  447   3.602   3.507   6.329  0.5019 -0.6245 -0.7779
    4SAPS   H7R  448   3.563   3.408   6.297  0.5417 -1.0217  0.3464
    4SAPS   H7S  449   3.648   3.489   6.429 -0.6976  0.1445 -0.0596
    4SAPS   C28  450   3.709   3.561   6.247 -0.3565  0.2951 -0.6463
    4SAPS   H8R  451   3.746   3.663   6.268  1.8236 -0.7256  0.9554
    4SAPS   C29  452   3.790   3.486   6.171  0.5977  0.4771  0.2219
    4SAPS   H9R  453   3.882   3.525   6.124  2.3303 -0.4343  2.6886
    4SAPS  C210  454   3.752   3.346   6.119  0.4498 -0.5070 -0.9699
    4SAPS  H10R  455   3.651   3.358   6.075 -0.3841 -1.0841  0.6812
    4SAPS  H10S  456   3.750   3.269   6.200  0.0461 -1.6371 -2.0131
    4SAPS  C211  457   3.843   3.287   6.016 -0.2627  0.1449  0.2110
    4SAPS  H11R  458   3.942   3.250   6.046 -1.0892 -1.6177  0.8850
    4SAPS  C212  459   3.803   3.260   5.891 -0.8401 -0.3315 -0.4714
    4SAPS  H12R  460   3.865   3.186   5.838 -2.1890 -2.5300  0.8361
    4SAPS  C213  461   3.675   3.313   5.822 -0.4626  0.0219  0.3828
    4SAPS  H13R  462   3.676   3.421   5.796  0.9174  0.4226  1.9568
    4SAPS  H13S  463   3.585   3.306   5.888 -0.3091 -0.7011  0.5181
    4SAPS  C214  464   3.650   3.252   5.692 -0.2135  0.4104  0.3374
    4SAPS  H14R  465   3.576   3.171   5.694 -0.5341  0.6867 -0.3323
    4SAPS  C215  466   3.700   3.278   5.568  0.4386  0.2764 -0.5696
    4SAPS  H15R  467   3.668   3.220   5.480  0.4052 -1.2803  0.4325
    4SAPS  C216  468   3.808   3.383   5.548  0.9555 -0.7083  0.3031
    4SAPS  H16R  469   3.875   3.349   5.466  1.1325  0.5558 -0.0968
    4SAPS  H16S  470   3.873   3.396   5.637  0.6945 -0.2261  0.4264
    4SAPS  C217  471   3.737   3.508   5.492  0.2535  0.1515 -0.2136
    4SAPS  H17R  472   3.806   3.590   5.521 -1.2664  0.7399  2.0306
    4SAPS  H17S  473   3.639   3.543   5.531 -0.4457 -0.2155 -1.5682
    4SAPS  C218  474   3.733   3.508   5.339 -0.4243  0.2107  0.3702
    4SAPS  H18R  475   3.681   3.417   5.302  0.3392 -1.2685  2.6917
    4SAPS  H18S  476   3.835   3.482   5.304  1.0222  3.5786  1.7256
    4SAPS  C219  477   3.681   3.629   5.263  0.2141 -0.1491 -0.2863
    4SAPS  H19R  478   3.744   3.720   5.271  0.8328 -0.6195  0.3709
    4SAPS  H19S  479   3.583   3.654   5.309  1.4352  0.2105  2.3111
    4SAPS  C220  480   3.662   3.616   5.108 -0.0849 -0.4885 -0.1886
    4SAPS  H20R  481   3.614   3.711   5.076  0.9194 -0.2635 -1.0564
    4SAPS  H20S  482   3.593   3.532   5.084 -2.3613  0.6201  1.9891
    4SAPS  H20T  483   3.760   3.599   5.059  1.2128  1.5888  1.5421
    4SAPS   C33  484   4.138   3.245   6.438  0.6228  0.2563  0.4328
    4SAPS   H3X  485   4.156   3.138   6.459  3.9999  0.5297 -0.4271
    4SAPS   H3Y  486   4.229   3.304   6.461  0.5959 -0.4656  2.5471
    4SAPS   C34  487   4.103   3.254   6.285 -0.4078 -0.5897  0.5092
    4SAPS   H4X  488   4.086   3.363   6.272  1.1373 -0.5692 -2.0044
    4SAPS   H4Y  489   4.014   3.193   6.258  0.1115 -0.4410 -1.7119
    4SAPS   C35  490   4.214   3.216   6.185 -0.5188  0.3484 -0.4946
    4SAPS   H5X  491   4.295   3.292   6.189 -0.7694  0.5676  2.5656
    4SAPS   H5Y  492   4.160   3.216   6.088 -0.2835  0.4277 -0.6261
    4SAPS   C36  493   4.277   3.081   6.213 -0.5246  0.4953 -0.2990
    4SAPS   H6X  494   4.200   3.000   6.212  1.9493 -2.0347 -2.3737
    4SAPS   H6Y  495   4.317   3.088   6.316 -1.0232  0.9862 -0.1346
    4SAPS   C37  496   4.379   3.049   6.107  0.1810 -0.4455  0.1383
    4SAPS   H7X  497   4.424   2.949   6.127  0.0485 -0.5723 -0.1895
    4SAPS   H7Y  498   4.461   3.123   6.117  2.6763 -2.7653 -1.5645
    4SAPS   C38  499   4.333   3.056   5.958 -0.5486 -0.2190  0.4379
    4SAPS   H8X  500   4.427   3.035   5.902 -1.2281 -0.2191 -0.7263
    4SAPS   H8Y  501   4.299   3.156   5.926  1.8759  0.6943  0.4823
    4SAPS   C39  502   4.217   2.974   5.924 -0.1283 -0.3649  0.0177
    4SAPS   H9X  503   4.136   3.023   5.981  2.7760  4.5047  0.5244
    4SAPS   H9Y  504   4.220   2.867   5.953  1.9772  0.4873  3.4249
    4SAPS  C310  505   4.188   2.992   5.777  0.7551 -0.5275  0.3224
    4SAPS  H10X  506   4.257   2.947   5.702 -0.9650  0.6583 -2.1072
    4SAPS  H10Y  507   4.179   3.099   5.748  2.4042 -0.6073 -0.6105
    4SAPS  C311  508   4.047   2.933   5.735  0.5695  0.7518  0.4099
    4SAPS  H11X  509   3.979   2.969   5.815 -0.4229  1.9981 -0.9258
    4SAPS  H11Y  510   4.043   2.822   5.734  0.2603  0.6963  2.7654
    4SAPS  C312  511   4.003   2.991   5.598 -0.1653  0.0094 -0.3356
    4SAPS  H12X  512   3.988   3.100   5.614 -0.7907 -0.1906  0.5474
    4SAPS  H12Y  513   3.901   2.951   5.575 -1.1390  0.9543  2.0121
    4SAPS  C313  514   4.086   2.959   5.470 -0.2226  0.7115 -0.7073
    4SAPS  H13X  515   4.079   2.851   5.447 -1.2611  0.7661 -0.6912
    4SAPS  H13Y  516   4.194   2.980   5.491  0.0674 -2.0998  1.1255
    4SAPS  C314  517   4.037   3.034   5.344  0.4110  0.2951  0.0080
    4SAPS  H14X  518   4.043   3.144   5.359 -2.4522  0.4113  0.9842
    4SAPS  H14Y  519   3.928   3.013   5.337  0.2343  1.3613 -0.6792
    4SAPS  C315  520   4.111   2.991   5.214 -0.4743  0.2442 -0.3911
    4SAPS  H15X  521   4.096   2.882   5.199  1.2601  0.0131 -0.6770
    4SAPS  H15Y  522   4.219   3.016   5.211 -0.7176  1.3481 -0.7974
    4SAPS  C316  523   4.050   3.063   5.094  0.4627  0.2833 -0.1277
    4SAPS  H16X  524   4.069   3.166   5.133  1.1281 -0.5856  1.9652
    4SAPS  H16Y  525   3.939   3.054   5.086  0.5646 -1.1141 -0.0467
    4SAPS  C317  526   4.125   3.058   4.964 -0.0494 -0.2428 -0.1574
    4SAPS  H17X  527   4.236   3.056   4.968  0.1840  1.7797 -2.9630
    4SAPS  H17Y  528   4.109   3.146   4.898  1.7946 -0.3619 -0.8406
    4SAPS  C318  529   4.091   2.926   4.890  0.3073 -0.1283  0.6242
    4SAPS  H18X  530   4.163   2.895   4.812  1.9116  0.1482  1.9324
    4SAPS  H18Y  531   3.997   2.953   4.836  0.8117 -0.1475 -0.2745
    4SAPS  H18Z  532   4.066   2.847   4.965  3.7885 -2.2236 -0.2161
    5SAPS     N  533   5.724   1.584   7.414 -0.7150 -0.3737 -0.0733
    5SAPS   HN1  534   5.718   1.484   7.442 -0.4091 -0.5404 -0.5933
    5SAPS   HN2  535   5.671   1.638   7.486 -0.1118  0.6000 -0.3295
    5SAPS   HN3  536   5.673   1.584   7.324 -1.7051  1.6678  0.4337
    5SAPS   C12  537   5.869   1.624   7.410 -0.0893 -0.1663  1.0777
    5SAPS  H12A  538   5.869   1.726   7.373  0.2217 -0.3209  0.6387
    5SAPS   C13  539   5.939   1.636   7.543 -0.4249 -0.0033 -0.7399
    5SAPS  O13A  540   5.876   1.634   7.651  0.4260 -0.2468  0.2491
    5SAPS  O13B  541   6.058   1.682   7.538 -0.0611  0.7319  0.2808
    5SAPS   C11  542   5.941   1.526   7.331 -0.6856 -0.1519  0.2640
    5SAPS  H11A  543   5.912   1.427   7.371 -3.1801 -0.1038 -1.1802
    5SAPS  H11B  544   6.050   1.543   7.342 -1.1749  1.5844  3.6097
    5SAPS     P  545   5.988   1.484   7.080  0.0925  0.2164 -0.2912
    5SAPS   O13  546   6.034   1.346   7.112 -0.5127  0.2953 -0.4839
    5SAPS   O14  547   5.898   1.509   6.966 -0.6248  0.2599 -0.1277
    5SAPS   O12  548   5.898   1.541   7.197 -0.5629  0.2744 -0.2068
    5SAPS   O11  549   6.103   1.580   7.059  0.4719 -0.2730 -0.6478
    5SAPS    C1  550   6.097   1.712   7.000  0.3408  0.1917 -0.5534
    5SAPS    HA  551   5.989   1.738   6.988  0.6808  2.2668  0.5171
    5SAPS    HB  552   6.142   1.778   7.076 -2.4794 -1.0658  2.4613
    5SAPS    C2  553   6.170   1.712   6.868 -0.4646 -0.4125 -0.4036
    5SAPS    HS  554   6.136   1.624   6.809  2.2113 -1.4202 -0.5876
    5SAPS   O21  555   6.315   1.696   6.884 -0.0833  0.7331 -0.2691
    5SAPS   C21  556   6.369   1.625   6.783 -0.1977  0.2179 -0.3809
    5SAPS   O22  557   6.303   1.582   6.692  0.4848  0.0241  0.0319
    5SAPS   C22  558   6.523   1.599   6.809 -0.4205 -0.7200 -0.0406
    5SAPS   H2R  559   6.576   1.696   6.800 -0.9364 -0.4696 -0.4422
    5SAPS   H2S  560   6.527   1.558   6.912  2.0000 -0.4256  0.0507
    5SAPS    C3  561   6.133   1.846   6.792  0.0784 -0.3156  0.0625
    5SAPS    HX  562   6.168   1.931   6.854 -1.8160  1.1437 -0.7672
    5SAPS    HY  563   6.023   1.860   6.792 -0.1123 -0.6372  4.0289
    5SAPS   O31  564   6.195   1.854   6.671 -0.0717 -0.3267  0.2571
    5SAPS   C31  565   6.124   1.784   6.576  1.0414 -0.5539 -0.2893
    5SAPS   O32  566   6.018   1.731   6.593 -0.6263  0.0498  0.3764
    5SAPS   C32  567   6.197   1.792   6.453 -0.0038 -0.2980  1.2436
    5SAPS   H2X  568   6.296   1.744   6.448  0.0469 -0.1669 -3.0673
    5SAPS   H2Y  569   6.233   1.896   6.438  0.6020 -0.3769  2.0795
    5SAPS   C23  570   6.574   1.504   6.698  1.0660  0.1535  1.3972
    5SAPS   H3R  571   6.543   1.548   6.601  0.5141 -0.4504  1.2937
    5SAPS   H3S  572   6.515   1.410   6.698  0.2354  0.6620  0.8087
    5SAPS   C24  573   6.720   1.466   6.704 -0.1934  0.2015  0.2762
    5SAPS   H4R  574   6.734   1.371   6.649  0.2122 -0.6370  1.7635
    5SAPS   H4S  575   6.741   1.444   6.811  0.3704  2.1826  0.6118
    5SAPS   C25  576   6.816   1.576   6.665  0.1772 -0.2151 -0.0851
    5SAPS   H5R  577   6.829   1.662   6.732 -0.6272  1.0201 -1.4802
    5SAPS   C26  578   6.886   1.568   6.548  0.1431 -0.3415  0.4627
    5SAPS   H6R  579   6.960   1.646   6.523 -2.1818  2.5610  1.9148
    5SAPS   C27  580   6.886   1.452   6.452 -0.8981  0.0596 -0.0140
    5SAPS   H7R  581   6.880   1.356   6.507 -1.6750 -1.2261 -2.2236
    5SAPS   H7S  582   6.983   1.436   6.401 -2.4939 -1.0971 -2.9280
    5SAPS   C28  583   6.781   1.438   6.348  0.3033  0.5788 -0.2957
    5SAPS   H8R  584   6.685   1.489   6.364 -0.3541 -0.5017 -0.7354
    5SAPS   C29  585   6.806   1.376   6.234 -0.5016  0.1170  0.7603
    5SAPS   H9R  586   6.726   1.378   6.158  1.0361  2.1012 -0.9018
    5SAPS  C210  587   6.930   1.301   6.194  0.5947  0.6137  0.4445
    5SAPS  H10R  588   6.895   1.220   6.127 -0.1625  0.2046  1.3271
    5SAPS  H10S  589   6.984   1.251   6.277  1.3074  0.8703  0.1461
    5SAPS  C211  590   7.032   1.393   6.133  0.1261  0.7372 -0.0567
    5SAPS  H11R  591   7.087   1.460   6.201  0.6108 -1.6432  2.0740
    5SAPS  C212  592   7.038   1.420   6.002  0.0155  0.4556 -0.5188
    5SAPS  H12R  593   7.122   1.481   5.965  0.2671 -0.9550 -2.4019
    5SAPS  C213  594   6.954   1.362   5.897 -0.4048 -0.1776 -0.2818
    5SAPS  H13R  595   6.856   1.327   5.936 -0.3354 -1.4941 -1.2194
    5SAPS  H13S  596   6.998   1.276   5.844 -0.5005 -0.6735  0.4329
    5SAPS  C214  597   6.919   1.486   5.807  0.5015 -0.0605 -0.4964
    5SAPS  H14R  598   6.864   1.568   5.856  0.0303 -1.4372  1.4022
    5SAPS  C215  599   6.958   1.503   5.676  0.0110 -0.1477  0.2015
    5SAPS  H15R  600   6.938   1.601   5.631  1.3181  0.2171  0.3966
    5SAPS  C216  601   7.043   1.413   5.594  0.0553  0.2737  0.3524
    5SAPS  H16R  602   6.974   1.357   5.527  1.7516 -0.2257 -1.0547
    5SAPS  H16S  603   7.079   1.328   5.655 -0.7580 -0.9002 -0.7515
    5SAPS  C217  604   7.155   1.477   5.510 -0.2673  0.0874  0.8379
    5SAPS  H17R  605   7.227   1.531   5.576 -0.6361  3.0877 -0.9951
    5SAPS  H17S  606   7.116   1.554   5.440 -3.0387 -0.9152  1.1743
    5SAPS  C218  607   7.243   1.373   5.429  0.5864 -0.0157 -0.4168
    5SAPS  H18R  608   7.249   1.288   5.501  0.9611  0.1765 -0.2241
    5SAPS  H18S  609   7.343   1.420   5.420  1.4904 -1.5527  0.9236
    5SAPS  C219  610   7.197   1.323   5.290 -0.8915 -0.1460 -0.3676
    5SAPS  H19R  611   7.091   1.351   5.273 -0.8012  0.2340 -0.3102
    5SAPS  H19S  612   7.198   1.212   5.299  0.5696 -0.1081  0.2317
    5SAPS  C220  613   7.285   1.385   5.177  0.4914 -0.3727 -0.6752
    5SAPS  H20R  614   7.299   1.495   5.182  0.5880 -0.4507  2.4573
    5SAPS  H20S  615   7.253   1.354   5.075  1.4340 -1.5542 -0.6322
    5SAPS  H20T  616   7.388   1.346   5.187  0.7568  0.3795 -0.3908
    5SAPS   C33  617   6.109   1.750   6.334 -0.0709  0.2383  0.0414
    5SAPS   H3X  618   6.018   1.813   6.323 -0.4732 -0.5871 -1.8040
    5SAPS   H3Y  619   6.079   1.647   6.362 -1.6127  0.3903 -0.9220
    5SAPS   C34  620   6.174   1.741   6.199 -0.0621  0.2128  0.4076
    5SAPS   H4X  621   6.243   1.655   6.213 -0.7206 -0.1369  1.6416
    5SAPS   H4Y  622   6.236   1.829   6.173  0.4258 -0.3698 -0.4608
    5SAPS   C35  623   6.087   1.723   6.079  0.0060 -0.0990 -0.1802
    5SAPS   H5X  624   6.027   1.816   6.070  0.8080  0.4160 -0.2682
    5SAPS   H5Y  625   6.017   1.639   6.099  1.0433 -0.5470  1.8043
    5SAPS   C36  626   6.159   1.697   5.941  0.2507 -0.1528 -0.2756
    5SAPS   H6X  627   6.213   1.600   5.932 -0.4973 -0.6916  0.8380
    5SAPS   H6Y  628   6.243   1.767   5.920  2.5057 -2.9015 -1.0584
    5SAPS   C37  629   6.074   1.715   5.820  0.1340  0.7662  0.7292
    5SAPS   H7X  630   6.007   1.804   5.826 -1.7894 -0.5135 -0.4473
    5SAPS   H7Y  631   6.007   1.628   5.803 -1.3600  2.1161 -0.6697
    5SAPS   C38  632   6.142   1.728   5.680  0.0360 -0.0801 -0.5490
    5SAPS   H8X  633   6.194   1.639   5.640  0.4969  0.9924 -2.4767
    5SAPS   H8Y  634   6.222   1.805   5.675  0.0928  0.1102  2.0935
    5SAPS   C39  635   6.044   1.763   5.568  0.1840 -0.0854  0.0964
    5SAPS   H9X  636   5.991   1.856   5.600  0.7471  0.5813 -0.8543
    5SAPS   H9Y  637   5.975   1.676   5.571  0.0625 -0.0999 -1.6339
    5SAPS  C310  638   6.109   1.783   5.432  0.1737  0.4727  0.4586
    5SAPS  H10X  639   6.169   1.876   5.440  0.4679  0.1778  2.1057
    5SAPS  H10Y  640   6.025   1.801   5.361  0.2216  0.1776  0.3248
    5SAPS  C311  641   6.187   1.657   5.389  0.2859 -0.1345 -0.1227
    5SAPS  H11X  642   6.123   1.567   5.382  1.1133 -0.9172  1.8402
    5SAPS  H11Y  643   6.268   1.623   5.456 -0.1009  1.0408  0.9899
    5SAPS  C312  644   6.262   1.679   5.257  0.9126 -0.9386 -0.1603
    5SAPS  H12X  645   6.332   1.593   5.248  0.8199 -1.1389  0.8929
    5SAPS  H12Y  646   6.322   1.772   5.260  1.5806 -1.3185 -1.2302
    5SAPS  C313  647   6.163   1.661   5.140  0.0853 -0.3105  0.0701
    5SAPS  H13X  648   6.071   1.721   5.156 -2.6294 -4.1585  0.3498
    5SAPS  H13Y  649   6.132   1.554   5.137  0.7252 -0.5078  0.4035
    5SAPS  C314  650   6.228   1.696   5.003  0.2087  0.2861  0.2651
    5SAPS  H14X  651   6.319   1.633   4.989  0.2138  0.7344 -2.0334
    5SAPS  H14Y  652   6.245   1.805   5.014 -0.3485  0.4384 -0.3130
    5SAPS  C315  653   6.137   1.682   4.885 -0.7304  0.2623  0.5854
    5SAPS  H15X  654   6.125   1.575   4.857 -1.5167  0.4487  0.1840
    5SAPS  H15Y  655   6.189   1.727   4.798  0.3560 -2.2652 -0.1414
    5SAPS  C316  656   5.999   1.738   4.887  0.0533 -0.1712  0.7276
    5SAPS  H16X  657   5.992   1.849   4.879  1.3444  0.1449  3.0312
    5SAPS  H16Y  658   5.946   1.712   4.981  0.0760  1.1975  1.1388
    5SAPS  C317  659   5.919   1.684   4.766 -0.6077  1.1683  0.3522
    5SAPS  H17X  660   5.825   1.742   4.775 -1.7542 -0.3990 -1.0652
    5SAPS  H17Y  661   5.896   1.576   4.776  2.0990  0.2370 -2.0549
    5SAPS  C318  662   5.971   1.700   4.617 -0.6002 -0.3661 -0.3136
    5SAPS  H18X  663   6.064   1.642   4.597 -0.4042  0.8287 -3.2904
    5SAPS  H18Y  664   5.995   1.808   4.607 -0.5945 -0.4951 -1.8694
    5SAPS  H18Z  665   5.895   1.679   4.540 -3.0484 -0.5016  1.9916
    6SAPS     N  666   2.596   2.052   7.490  0.5461  0.7283 -0.1773
    6SAPS   HN1  667   2.599   2.070   7.592 -3.9128 -0.3506  0.3597
    6SAPS   HN2  668   2.528   1.977   7.466  0.0001  1.2262 -0.2392
    6SAPS   HN3  669   2.682   2.032   7.436  1.1209  1.3676  0.4874
    6SAPS   C12  670   2.531   2.172   7.436 -0.4836  0.3541  1.0130
    6SAPS  H12A  671   2.430   2.178   7.475 -0.7075 -0.9324  0.6558
    6SAPS   C13  672   2.605   2.307   7.455  0.1027 -0.6933  0.0063
    6SAPS  O13A  673   2.715   2.311   7.503 -0.2134  0.7666 -0.2867
    6SAPS  O13B  674   2.547   2.414   7.407  0.3079  0.1380  0.2492
    6SAPS   C11  675   2.510   2.152   7.286  0.3397  0.2164  0.1944
    6SAPS  H11A  676   2.606   2.160   7.230  1.5966 -1.1215  2.0435
    6SAPS  H11B  677   2.446   2.237   7.253  0.4584  0.3697  0.3575
    6SAPS     P  678   2.299   2.011   7.215 -0.0511  0.4500 -0.2374
    6SAPS   O13  679   2.272   1.860   7.208 -0.3781  0.2476 -0.2659
    6SAPS   O14  680   2.221   2.089   7.316 -0.4071  0.0714  0.1315
    6SAPS   O12  681   2.452   2.025   7.253 -0.0068  0.1575 -0.5629
    6SAPS   O11  682   2.263   2.086   7.084  0.0145 -0.5008 -0.6163
    6SAPS    C1  683   2.331   2.056   6.969 -0.5212  0.2396 -0.2029
    6SAPS    HA  684   2.438   2.035   6.987 -0.5640 -1.0246 -1.2500
    6SAPS    HB  685   2.293   1.960   6.929  0.6488 -0.7260  0.9399
    6SAPS    C2  686   2.310   2.157   6.856 -0.5065 -0.1798 -0.0867
    6SAPS    HS  687   2.341   2.107   6.762  1.3970 -2.5616  1.6735
    6SAPS   O21  688   2.380   2.277   6.884  0.1438  0.0259  0.3409
    6SAPS   C21  689   2.513   2.274   6.900  0.3550  0.9000  0.2660
    6SAPS   O22  690   2.579   2.172   6.873 -0.1260 -0.3373 -0.6753
    6SAPS   C22  691   2.584   2.391   6.968  0.4130 -0.2474 -0.0292
    6SAPS   H2R  692   2.590   2.369   7.076  0.3028  0.7094  0.1852
    6SAPS   H2S  693   2.687   2.402   6.928  0.0356  0.6575 -0.7986
    6SAPS    C3  694   2.161   2.184   6.840  0.2303 -0.5668 -0.2419
    6SAPS    HX  695   2.123   2.223   6.937  0.0566 -1.4121  0.0365
    6SAPS    HY  696   2.107   2.088   6.828 -0.6423 -0.4887  2.4237
    6SAPS   O31  697   2.140   2.274   6.733 -0.2008  0.8305  0.1732
    6SAPS   C31  698   2.137   2.405   6.765 -0.3152  0.1378 -0.5819
    6SAPS   O32  699   2.155   2.456   6.874 -0.3652  0.6491  0.1435
    6SAPS   C32  700   2.118   2.482   6.635  0.4285  0.0356  0.1229
    6SAPS   H2X  701   2.084   2.585   6.661  0.2737 -0.3664  1.6329
    6SAPS   H2Y  702   2.025   2.435   6.597  0.0416  0.7409  0.1735
    6SAPS   C23  703   2.509   2.528   6.943 -0.7715  0.0804  0.0050
    6SAPS   H3R  704   2.549   2.602   7.015  0.7268 -0.1314 -0.5655
    6SAPS   H3S  705   2.399   2.520   6.959 -0.7163  1.2208  1.0566
    6SAPS   C24  706   2.537   2.587   6.803  0.4379 -0.2430 -0.5314
    6SAPS   H4R  707   2.496   2.516   6.728  0.4418  0.0232 -0.7820
    6SAPS   H4S  708   2.648   2.580   6.797  0.4724 -2.2796  1.1954
    6SAPS   C25  709   2.465   2.719   6.784  0.3327 -0.0416  0.6103
    6SAPS   H5R  710   2.360   2.723   6.815  0.0263  1.6025 -0.4759
    6SAPS   C26  711   2.524   2.832   6.739 -0.1647  0.3204 -0.5270
    6SAPS   H6R  712   2.467   2.926   6.735  4.0725  3.1767 -0.5167
    6SAPS   C27  713   2.666   2.845   6.681  0.8028 -0.5529 -0.3610
    6SAPS   H7R  714   2.741   2.792   6.744  0.2018 -0.4306  0.4801
    6SAPS   H7S  715   2.690   2.953   6.680 -1.9725  0.1395 -1.4104
    6SAPS   C28  716   2.669   2.787   6.547 -0.8521 -0.4502  0.6211
    6SAPS   H8R  717   2.627   2.686   6.542 -2.8519  0.2620  1.9314
    6SAPS   C29  718   2.725   2.838   6.435  0.3862  0.0042  0.1284
    6SAPS   H9R  719   2.709   2.778   6.344  0.2905  0.3861 -0.1072
    6SAPS  C210  720   2.779   2.978   6.417 -0.0148  0.4167  0.3314
    6SAPS  H10R  721   2.880   2.965   6.373  0.6583 -1.3765  2.2235
    6SAPS  H10S  722   2.806   3.023   6.515  2.9207  1.1791 -0.7387
    6SAPS  C211  723   2.691   3.068   6.335 -0.1712  0.5387  0.1056
    6SAPS  H11R  724   2.644   3.149   6.392 -2.3950 -1.1313  0.7989
    6SAPS  C212  725   2.661   3.062   6.208 -0.1500 -0.2817  0.1988
    6SAPS  H12R  726   2.585   3.130   6.167 -0.8692 -1.3712 -0.3117
    6SAPS  C213  727   2.724   2.965   6.105  0.2480  0.1059 -0.7765
    6SAPS  H13R  728   2.653   2.879   6.100  1.6256 -1.1399  0.3393
    6SAPS  H13S  729   2.824   2.926   6.132  0.5533  1.4445  0.1287
    6SAPS  C214  730   2.748   3.018   5.966 -0.8286  0.2094 -0.4365
    6SAPS  H14R  731   2.822   3.099   5.961  0.9660 -1.2777  0.8861
    6SAPS  C215  732   2.686   2.992   5.848  0.1632 -0.6491  0.3689
    6SAPS  H15R  733   2.718   3.042   5.755 -2.3663  1.2084  0.3996
    6SAPS  C216  734   2.584   2.888   5.823 -0.2806  0.3015 -0.4824
    6SAPS  H16R  735   2.494   2.950   5.804 -1.7927 -1.2099  1.3524
    6SAPS  H16S  736   2.565   2.832   5.917 -2.4584  2.4487  0.4652
    6SAPS  C217  737   2.626   2.790   5.706  0.3727 -0.1127 -0.1647
    6SAPS  H17R  738   2.541   2.719   5.701  1.3766 -1.3515 -0.3291
    6SAPS  H17S  739   2.723   2.742   5.731  0.8587  1.8718  2.0685
    6SAPS  C218  740   2.652   2.854   5.570 -0.5068  0.2956  0.1625
    6SAPS  H18R  741   2.748   2.910   5.572 -0.9887  1.1341  1.3755
    6SAPS  H18S  742   2.571   2.928   5.555 -1.5251 -0.6664  0.7721
    6SAPS  C219  743   2.665   2.756   5.451 -0.3139 -0.6059 -0.2112
    6SAPS  H19R  744   2.568   2.704   5.435 -1.2955  1.1745 -0.3706
    6SAPS  H19S  745   2.731   2.669   5.468 -0.0139 -0.4976 -0.7775
    6SAPS  C220  746   2.698   2.834   5.323  0.0315  0.5787 -0.8192
    6SAPS  H20R  747   2.723   2.767   5.238  1.4972  1.1684 -0.8811
    6SAPS  H20S  748   2.790   2.895   5.335  1.6088 -1.6163 -1.1059
    6SAPS  H20T  749   2.614   2.902   5.299  0.2959  1.1306 -0.1910
    6SAPS   C33  750   2.232   2.476   6.538 -0.6406 -0.3219  0.5284
    6SAPS   H3X  751   2.269   2.373   6.524  3.1025  1.1902 -2.4782
    6SAPS   H3Y  752   2.314   2.543   6.573  0.2752 -0.7030 -0.8174
    6SAPS   C34  753   2.176   2.515   6.399 -0.5749 -0.4489  0.2183
    6SAPS   H4X  754   2.136   2.617   6.412  1.1114  0.3382 -0.5163
    6SAPS   H4Y  755   2.093   2.446   6.371  1.0426 -2.2857 -0.3277
    6SAPS   C35  756   2.283   2.512   6.288  0.6215 -0.2197  0.2154
    6SAPS   H5X  757   2.325   2.411   6.275 -0.0806 -0.4150 -0.6037
    6SAPS   H5Y  758   2.367   2.578   6.321  0.7941 -0.7853  0.9364
    6SAPS   C36  759   2.234   2.562   6.148  0.3970 -0.3533  0.1094
    6SAPS   H6X  760   2.123   2.552   6.147  0.1264  1.8164  1.3002
    6SAPS   H6Y  761   2.267   2.493   6.068  0.1237  0.8657 -1.0972
    6SAPS   C37  762   2.283   2.710   6.117 -0.2887  0.4881  0.2566
    6SAPS   H7X  763   2.393   2.713   6.127  0.1604  1.3336 -3.5454
    6SAPS   H7Y  764   2.249   2.779   6.198  0.4852 -0.1881  1.1897
    6SAPS   C38  765   2.233   2.758   5.982 -0.3261 -0.2525  0.2149
    6SAPS   H8X  766   2.260   2.864   5.966 -0.2605 -0.4497 -1.0323
    6SAPS   H8Y  767   2.122   2.762   5.979 -0.3300 -0.8471 -2.6037
    6SAPS   C39  768   2.274   2.661   5.865 -0.0982 -0.4232 -0.2404
    6SAPS   H9X  769   2.240   2.556   5.881  3.9569 -1.6361  1.7728
    6SAPS   H9Y  770   2.385   2.655   5.864 -0.1069 -0.8945 -1.9275
    6SAPS  C310  771   2.238   2.715   5.724  0.6727 -0.3161 -0.3342
    6SAPS  H10X  772   2.290   2.810   5.698  0.6575 -0.0217  0.6679
    6SAPS  H10Y  773   2.131   2.745   5.725  0.4620 -1.0569 -0.5667
    6SAPS  C311  774   2.255   2.607   5.618  0.1516  0.2233 -0.2000
    6SAPS  H11X  775   2.192   2.518   5.636  0.4954 -0.3252 -1.5451
    6SAPS  H11Y  776   2.359   2.571   5.633  0.0413 -0.1510 -0.3233
    6SAPS  C312  777   2.233   2.644   5.468 -0.6380 -0.3819  0.6201
    6SAPS  H12X  778   2.277   2.566   5.403  3.5591  2.5544 -0.4258
    6SAPS  H12Y  779   2.294   2.734   5.446  1.6041 -1.0844  3.3965
    6SAPS  C313  780   2.087   2.663   5.434 -0.2430 -0.4849  0.3850
    6SAPS  H13X  781   2.060   2.753   5.494  2.0749 -0.0078  0.8101
    6SAPS  H13Y  782   2.022   2.580   5.472  0.5341 -1.1677  0.2516
    6SAPS  C314  783   2.056   2.676   5.284 -0.2230  0.4801  0.5214
    6SAPS  H14X  784   2.077   2.780   5.254 -0.4236  0.8504  1.6300
    6SAPS  H14Y  785   1.946   2.668   5.272  0.1711 -3.2223 -2.7713
    6SAPS  C315  786   2.121   2.575   5.192  0.1699  0.3681  0.5229
    6SAPS  H15X  787   2.232   2.586   5.197  0.1823  0.5273 -0.0480
    6SAPS  H15Y  788   2.086   2.596   5.089  1.1353 -0.2739  0.0462
    6SAPS  C316  789   2.100   2.428   5.234  0.4608 -0.4285  0.5692
    6SAPS  H16X  790   1.989   2.418   5.236  0.4102  0.2043  1.1639
    6SAPS  H16Y  791   2.121   2.419   5.343  0.5014  1.8097  0.7935
    6SAPS  C317  792   2.170   2.322   5.157 -0.1541 -0.3347  0.3125
    6SAPS  H17X  793   2.276   2.330   5.190  0.4021 -2.4097 -0.8135
    6SAPS  H17Y  794   2.172   2.340   5.047  0.2034 -1.5924  0.1002
    6SAPS  C318  795   2.135   2.176   5.190 -0.0956 -0.7887 -0.5752
    6SAPS  H18X  796   2.227   2.124   5.154  1.1438 -0.2738  1.6616
    6SAPS  H18Y  797   2.051   2.151   5.123  0.9817  0.5089 -2.5248
    6SAPS  H18Z  798   2.105   2.166   5.296 -1.1903 -1.9789 -0.9782
    7SAPS     N  799   5.227   0.848   7.197 -0.0014 -0.7525 -0.2106
    7SAPS   HN1  800   5.191   0.750   7.202  0.1440 -0.8926 -1.4885
    7SAPS   HN2  801   5.204   0.900   7.111  0.4876  1.4949  0.9415
    7SAPS   HN3  802   5.331   0.852   7.205 -0.0798  0.5220  0.4679
    7SAPS   C12  803   5.164   0.920   7.316 -0.1214  0.0953 -0.4691
    7SAPS  H12A  804   5.069   0.872   7.333 -0.2430  0.0100 -1.3536
    7SAPS   C13  805   5.253   0.912   7.447  0.4602 -0.4746  0.3785
    7SAPS  O13A  806   5.361   0.849   7.444  0.7759  0.1159 -1.0647
    7SAPS  O13B  807   5.197   0.935   7.547 -0.0437  0.2460 -0.2790
    7SAPS   C11  808   5.140   1.065   7.268  0.6821 -0.0506 -0.2143
    7SAPS  H11A  809   5.070   1.106   7.344 -1.3688 -3.2056 -0.2079
    7SAPS  H11B  810   5.079   1.068   7.175 -0.6764  0.0709  0.6499
    7SAPS     P  811   5.272   1.288   7.270 -0.2104 -0.1256  0.0419
    7SAPS   O13  812   5.186   1.337   7.383 -0.3194  0.7616  0.2658
    7SAPS   O14  813   5.413   1.312   7.290 -0.0761 -0.7924 -0.5559
    7SAPS   O12  814   5.262   1.135   7.244 -0.3549 -0.2640 -0.2390
    7SAPS   O11  815   5.216   1.358   7.142  0.5838  0.5292 -0.3311
    7SAPS    C1  816   5.291   1.339   7.024  0.0375  0.1216 -0.2770
    7SAPS    HA  817   5.394   1.377   7.032 -0.2539  2.2527 -4.2467
    7SAPS    HB  818   5.300   1.232   6.994 -1.7699  0.1271 -0.9750
    7SAPS    C2  819   5.226   1.421   6.909  0.7122 -0.3424  0.0829
    7SAPS    HS  820   5.242   1.525   6.942  0.3176  0.2081 -1.3802
    7SAPS   O21  821   5.083   1.403   6.902  0.5170  0.4172  0.2469
    7SAPS   C21  822   5.039   1.287   6.858 -0.4658  0.4142  0.2483
    7SAPS   O22  823   5.108   1.188   6.831 -0.0165  0.0993  0.1791
    7SAPS   C22  824   4.893   1.305   6.845  0.4903  0.4108  0.0163
    7SAPS   H2R  825   4.848   1.204   6.862  0.8572  0.4366  1.2029
    7SAPS   H2S  826   4.858   1.356   6.937  0.5821  0.4217  0.0454
    7SAPS    C3  827   5.305   1.406   6.775  0.2270  0.4820  0.2182
    7SAPS    HX  828   5.322   1.297   6.757  1.0893  0.4271  1.3106
    7SAPS    HY  829   5.400   1.459   6.796  1.0105  1.0059 -3.7726
    7SAPS   O31  830   5.249   1.468   6.655  0.2584 -0.2887  0.6851
    7SAPS   C31  831   5.338   1.475   6.548  0.1104  0.4321 -0.2178
    7SAPS   O32  832   5.449   1.428   6.534 -0.4068  0.2898 -0.1726
    7SAPS   C32  833   5.262   1.552   6.434  0.1060 -0.2934 -0.2611
    7SAPS   H2X  834   5.156   1.552   6.467  0.2028  0.7632  0.0823
    7SAPS   H2Y  835   5.270   1.507   6.333 -1.7346 -3.1793  0.7423
    7SAPS   C23  836   4.841   1.370   6.721  0.4877 -0.4844  0.2212
    7SAPS   H3R  837   4.908   1.458   6.704 -0.3551 -0.0653 -1.0086
    7SAPS   H3S  838   4.742   1.416   6.741  0.7113 -0.7288  2.0331
    7SAPS   C24  839   4.807   1.280   6.599 -0.1419 -0.5110  0.2921
    7SAPS   H4R  840   4.752   1.338   6.522 -1.0198 -0.3089  1.0514
    7SAPS   H4S  841   4.740   1.204   6.647 -0.4685 -0.7821 -0.5811
    7SAPS   C25  842   4.926   1.209   6.556 -0.5088 -0.2076 -1.1616
    7SAPS   H5R  843   4.979   1.137   6.621  1.5512  1.9710 -0.2550
    7SAPS   C26  844   4.986   1.237   6.439 -0.1715 -0.2581 -0.1529
    7SAPS   H6R  845   5.073   1.179   6.405 -0.7140 -1.4698  0.5078
    7SAPS   C27  846   4.940   1.336   6.329 -0.3643 -0.2610 -0.0345
    7SAPS   H7R  847   5.025   1.405   6.310  0.9017 -2.3213 -2.6043
    7SAPS   H7S  848   4.859   1.404   6.361 -0.4943  1.0907 -2.9176
    7SAPS   C28  849   4.911   1.257   6.204  0.1449 -0.4619 -0.4563
    7SAPS   H8R  850   4.892   1.152   6.227 -3.0751 -0.0789 -0.8978
    7SAPS   C29  851   4.885   1.307   6.077 -0.0812 -0.3193 -0.9047
    7SAPS   H9R  852   4.865   1.235   5.997  1.4211  1.2748 -2.8157
    7SAPS  C210  853   4.912   1.449   6.035  0.1033  0.4234  0.5089
    7SAPS  H10R  854   5.019   1.475   6.050 -0.3147  3.5326 -1.1408
    7SAPS  H10S  855   4.850   1.511   6.102 -1.6799 -0.9024  0.1429
    7SAPS  C211  856   4.873   1.492   5.891  0.4480  0.0723 -0.3642
    7SAPS  H11R  857   4.791   1.565   5.887  0.0468 -0.4198 -2.0051
    7SAPS  C212  858   4.947   1.465   5.784 -0.8341 -0.8055 -0.3350
    7SAPS  H12R  859   4.925   1.521   5.691 -0.7844  0.7438  0.5550
    7SAPS  C213  860   5.079   1.387   5.784  0.4215 -0.1702  0.1223
    7SAPS  H13R  861   5.052   1.279   5.781  0.1440 -0.0998  0.0359
    7SAPS  H13S  862   5.143   1.412   5.871 -0.2011  1.6621  0.0795
    7SAPS  C214  863   5.162   1.427   5.661  0.4673  0.6136 -0.2868
    7SAPS  H14R  864   5.181   1.535   5.656 -2.2522  1.1604 -0.3379
    7SAPS  C215  865   5.220   1.337   5.576 -0.2133 -0.7250 -0.1322
    7SAPS  H15R  866   5.270   1.366   5.482  1.8432 -0.9503  0.8377
    7SAPS  C216  867   5.205   1.187   5.585 -0.3432 -0.1444 -0.0998
    7SAPS  H16R  868   5.104   1.145   5.606 -0.4370 -0.7310 -1.5809
    7SAPS  H16S  869   5.270   1.147   5.666 -1.9788 -0.4700  1.0936
    7SAPS  C217  870   5.249   1.124   5.447  0.0130 -0.1762 -0.0698
    7SAPS  H17R  871   5.247   1.013   5.450  0.7637 -0.3454 -2.9584
    7SAPS  H17S  872   5.353   1.153   5.419 -1.6310  4.0048 -2.6308
    7SAPS  C218  873   5.159   1.165   5.324 -0.1111 -0.1746  0.1450
    7SAPS  H18R  874   5.130   1.272   5.324 -1.0826 -0.4344 -0.1350
    7SAPS  H18S  875   5.067   1.104   5.332 -0.2866  0.0455 -0.2113
    7SAPS  C219  876   5.221   1.108   5.191  0.2791 -0.0869 -0.4530
    7SAPS  H19R  877   5.245   1.000   5.208  2.2286  0.3125 -0.4236
    7SAPS  H19S  878   5.322   1.152   5.174 -0.7211  2.1610 -0.8855
    7SAPS  C220  879   5.124   1.114   5.070  0.6312 -0.3640  0.0600
    7SAPS  H20R  880   5.023   1.077   5.097 -0.8039  2.9032 -0.3243
    7SAPS  H20S  881   5.160   1.051   4.987  0.4301 -0.1822 -0.1673
    7SAPS  H20T  882   5.116   1.219   5.033 -1.2420 -0.2308  0.7134
    7SAPS   C33  883   5.312   1.703   6.419  0.0648 -0.1399 -0.0555
    7SAPS   H3X  884   5.422   1.712   6.433 -0.0889 -0.6361  1.6910
    7SAPS   H3Y  885   5.268   1.752   6.508  0.9351  0.1347  0.2264
    7SAPS   C34  886   5.258   1.768   6.297  0.0264  0.4843  0.8082
    7SAPS   H4X  887   5.295   1.712   6.208  1.6204  2.8626 -0.1144
    7SAPS   H4Y  888   5.294   1.873   6.296  0.3453  0.4017  2.1919
    7SAPS   C35  889   5.109   1.785   6.277  0.4182 -0.5202  0.1418
    7SAPS   H5X  890   5.083   1.887   6.314 -0.7765  0.3198 -2.7524
    7SAPS   H5Y  891   5.058   1.716   6.348 -1.0682  0.5426  0.1541
    7SAPS   C36  892   5.063   1.758   6.134  0.2841 -0.0864  0.1764
    7SAPS   H6X  893   4.952   1.748   6.136  0.1805 -0.3624 -2.7425
    7SAPS   H6Y  894   5.115   1.670   6.090  0.7481  0.2996 -0.0587
    7SAPS   C37  895   5.083   1.884   6.048 -0.5316 -0.0078 -0.3284
    7SAPS   H7X  896   5.188   1.918   6.035 -0.7000  0.4929 -0.4090
    7SAPS   H7Y  897   5.029   1.966   6.099  1.9462  1.7427 -0.3160
    7SAPS   C38  898   5.021   1.870   5.909 -0.1591  0.6394 -0.1604
    7SAPS   H8X  899   4.998   1.968   5.863  1.8598  0.4688 -1.7046
    7SAPS   H8Y  900   4.933   1.802   5.906  0.1216  0.2791 -0.5441
    7SAPS   C39  901   5.120   1.803   5.812 -0.7949 -1.0626  0.6224
    7SAPS   H9X  902   5.081   1.776   5.712  0.2815 -2.6696  0.5983
    7SAPS   H9Y  903   5.154   1.708   5.859  0.3166  0.3555  2.8755
    7SAPS  C310  904   5.249   1.886   5.779 -0.0935  0.4898 -0.4772
    7SAPS  H10X  905   5.311   1.898   5.870 -0.6917  0.9168 -0.1276
    7SAPS  H10Y  906   5.210   1.985   5.746 -2.0500  0.4399  1.4573
    7SAPS  C311  907   5.347   1.815   5.677 -0.3660 -0.2759  0.5325
    7SAPS  H11X  908   5.298   1.786   5.582  0.4278  1.4228 -0.4500
    7SAPS  H11Y  909   5.386   1.719   5.715  4.6690  1.0170 -0.5541
    7SAPS  C312  910   5.472   1.901   5.633  0.1758  0.7544 -0.3854
    7SAPS  H12X  911   5.543   1.925   5.715  0.6692 -0.0167 -0.5773
    7SAPS  H12Y  912   5.449   2.002   5.592 -1.6083  0.9163  0.9238
    7SAPS  C313  913   5.558   1.836   5.527  0.1935 -0.0328  0.1987
    7SAPS  H13X  914   5.480   1.819   5.450 -2.1226 -3.0817  2.9190
    7SAPS  H13Y  915   5.611   1.741   5.549 -0.7450 -0.3082  1.3905
    7SAPS  C314  916   5.682   1.920   5.489  0.5972  0.7824 -0.1292
    7SAPS  H14X  917   5.756   1.922   5.572 -0.7175  1.0061  1.0691
    7SAPS  H14Y  918   5.643   2.023   5.474  2.9933  1.6089 -1.1048
    7SAPS  C315  919   5.747   1.867   5.357  0.4151 -0.1274 -0.4137
    7SAPS  H15X  920   5.785   1.764   5.377 -0.7890 -0.4143  0.4672
    7SAPS  H15Y  921   5.834   1.934   5.340  0.4109 -0.0677 -0.2013
    7SAPS  C316  922   5.676   1.866   5.227  0.2704 -0.0465  0.4314
    7SAPS  H16X  923   5.600   1.787   5.247 -0.2393  0.3408  0.0501
    7SAPS  H16Y  924   5.760   1.834   5.161  0.5276 -0.4466  0.9436
    7SAPS  C317  925   5.615   2.001   5.202  0.1935  1.0270 -0.0942
    7SAPS  H17X  926   5.697   2.076   5.209  1.0980 -0.0926  1.9077
    7SAPS  H17Y  927   5.532   2.029   5.271  0.5177 -0.1640  0.7986
    7SAPS  C318  928   5.559   2.014   5.059 -0.2827  0.3276  0.6432
    7SAPS  H18X  929   5.504   2.109   5.047  1.9207  1.4861 -1.1523
    7SAPS  H18Y  930   5.496   1.927   5.034  0.3473  0.2098 -0.6103
    7SAPS  H18Z  931   5.650   2.021   4.995 -1.0806  0.3023 -0.5055
    8SAPS     N  932   5.175   1.563   7.530  0.2871 -0.2855 -0.1847
    8SAPS   HN1  933   5.093   1.610   7.488  0.2442  0.0966  0.3220
    8SAPS   HN2  934   5.184   1.466   7.492 -0.7940 -1.2641  1.8894
    8SAPS   HN3  935   5.154   1.555   7.631  0.6566  0.2386 -0.0643
    8SAPS   C12  936   5.290   1.660   7.507  0.0920  0.2887  0.3738
    8SAPS  H12A  937   5.266   1.754   7.554  1.4478  0.1417  1.4229
    8SAPS   C13  938   5.421   1.607   7.572 -0.0791  0.1475  0.7979
    8SAPS  O13A  939   5.428   1.495   7.622 -0.0987  0.3808  0.2511
    8SAPS  O13B  940   5.512   1.695   7.571  0.1752  0.2712 -0.0318
    8SAPS   C11  941   5.306   1.666   7.351 -0.3019 -1.1106  0.3396
    8SAPS  H11A  942   5.321   1.564   7.308  1.5341 -1.3933  1.5397
    8SAPS  H11B  943   5.402   1.722   7.340 -0.1820 -1.3666  0.0651
    8SAPS     P  944   5.192   1.891   7.284  0.3907  0.2384 -0.1612
    8SAPS   O13  945   5.054   1.932   7.317  0.0217  0.2634  0.0825
    8SAPS   O14  946   5.295   1.950   7.372 -0.4802 -0.4573  0.0254
    8SAPS   O12  947   5.189   1.729   7.306  0.0272 -0.3666  0.1089
    8SAPS   O11  948   5.230   1.918   7.137  0.4436  0.1191 -0.2544
    8SAPS    C1  949   5.286   1.823   7.050 -0.1745  0.2090 -0.7032
    8SAPS    HA  950   5.364   1.766   7.105 -3.2095 -0.9530  2.8213
    8SAPS    HB  951   5.203   1.759   7.014 -0.9754  0.4895  0.5987
    8SAPS    C2  952   5.355   1.887   6.929  0.1427  0.7049  0.3603
    8SAPS    HS  953   5.434   1.954   6.971  0.0804  0.9461  0.0982
    8SAPS   O21  954   5.266   1.970   6.857  0.5392 -0.2181  0.1903
    8SAPS   C21  955   5.318   2.069   6.791  0.3050 -0.0705 -0.2004
    8SAPS   O22  956   5.435   2.100   6.789  0.1890  0.1900 -0.2031
    8SAPS   C22  957   5.202   2.147   6.722 -0.0771  0.0102 -0.0487
    8SAPS   H2R  958   5.109   2.140   6.783 -1.0241  1.1157 -1.3289
    8SAPS   H2S  959   5.230   2.253   6.703  0.2569 -0.1428 -0.4007
    8SAPS    C3  960   5.397   1.767   6.828  0.1261 -0.5158  0.1889
    8SAPS    HX  961   5.300   1.731   6.787 -0.9809  2.0500  0.3441
    8SAPS    HY  962   5.454   1.692   6.886 -0.3536  0.1040  1.4890
    8SAPS   O31  963   5.471   1.824   6.719  0.5473  0.0831  0.2541
    8SAPS   C31  964   5.600   1.852   6.742 -0.4803  0.2979  0.0796
    8SAPS   O32  965   5.657   1.833   6.849 -0.7247 -0.0711 -0.2968
    8SAPS   C32  966   5.675   1.932   6.631  0.9307  0.6127 -0.6008
    8SAPS   H2X  967   5.779   1.940   6.668  0.0600  0.8545  2.0272
    8SAPS   H2Y  968   5.631   2.034   6.635  2.2965  1.3035 -2.2891
    8SAPS   C23  969   5.155   2.089   6.578 -0.2557 -0.1710  0.1461
    8SAPS   H3R  970   5.053   2.128   6.559  0.5534  1.8295 -0.4044
    8SAPS   H3S  971   5.154   1.979   6.585 -0.5715 -0.3230 -1.7950
    8SAPS   C24  972   5.251   2.126   6.467 -0.3537  0.1309 -0.0169
    8SAPS   H4R  973   5.218   2.061   6.383  0.1597 -0.5807  0.3099
    8SAPS   H4S  974   5.355   2.096   6.492  0.5228  3.0391  0.1846
    8SAPS   C25  975   5.252   2.272   6.434  0.5729  0.3847  0.0088
    8SAPS   H5R  976   5.299   2.341   6.505  0.1395 -0.6295  1.3294
    8SAPS   C26  977   5.200   2.323   6.320  0.9872 -0.4235  0.4132
    8SAPS   H6R  978   5.197   2.432   6.307 -0.2113 -0.4306  0.4477
    8SAPS   C27  979   5.132   2.248   6.207  0.8489 -0.6137 -0.0683
    8SAPS   H7R  980   5.045   2.300   6.163  1.0637  0.8600  1.1779
    8SAPS   H7S  981   5.083   2.153   6.238 -0.5581 -0.6044 -2.0782
    8SAPS   C28  982   5.231   2.205   6.099 -0.3121 -0.2438 -0.8011
    8SAPS   H8R  983   5.286   2.117   6.137  0.6711  0.9829  0.7574
    8SAPS   C29  984   5.229   2.231   5.966  0.7095 -0.3109  0.1383
    8SAPS   H9R  985   5.307   2.187   5.903  0.2343  0.2246 -0.8349
    8SAPS  C210  986   5.149   2.333   5.899  0.2541 -0.7353 -0.5764
    8SAPS  H10R  987   5.115   2.411   5.971 -3.2630 -0.5984 -2.1819
    8SAPS  H10S  988   5.053   2.289   5.868  0.1179  0.2810 -1.6519
    8SAPS  C211  989   5.218   2.408   5.792  0.3256  0.0669 -0.1838
    8SAPS  H11R  990   5.292   2.483   5.822 -0.4308  0.5343  0.5754
    8SAPS  C212  991   5.196   2.385   5.666 -0.2600 -0.1964 -0.2676
    8SAPS  H12R  992   5.228   2.462   5.594 -0.1133  0.8817  0.9133
    8SAPS  C213  993   5.085   2.291   5.621 -0.7514 -0.7268 -0.2000
    8SAPS  H13R  994   4.993   2.330   5.668 -0.6048  1.6131 -1.6957
    8SAPS  H13S  995   5.103   2.189   5.662 -1.3187 -0.5823  0.4246
    8SAPS  C214  996   5.081   2.288   5.468 -0.4657 -0.2226 -0.4960
    8SAPS  H14R  997   5.095   2.384   5.416 -0.6847 -0.9252 -1.9189
    8SAPS  C215  998   5.074   2.176   5.394  0.0792 -0.1097 -0.0053
    8SAPS  H15R  999   5.070   2.185   5.284 -1.2060  1.0804  0.1052
    8SAPS  C216 1000   5.068   2.037   5.450 -1.0620 -0.2836  0.0676
    8SAPS  H16R 1001   4.972   2.029   5.505 -1.3703 -0.5782 -0.4981
    8SAPS  H16S 1002   5.152   2.007   5.516 -0.1219  2.7057  0.3461
    8SAPS  C217 1003   5.068   1.937   5.330 -0.5549  0.1498 -0.9216
    8SAPS  H17R 1004   5.174   1.940   5.298 -0.1065  1.8224  0.5608
    8SAPS  H17S 1005   5.005   1.963   5.242  0.2058 -0.6618 -1.7275
    8SAPS  C218 1006   5.037   1.792   5.385  0.1663 -0.7335  1.1866
    8SAPS  H18R 1007   4.931   1.766   5.406 -0.3374  0.2797  0.0746
    8SAPS  H18S 1008   5.102   1.777   5.473  0.3088 -1.0819  1.0258
    8SAPS  C219 1009   5.087   1.694   5.275 -0.1232  0.2555 -0.8298
    8SAPS  H19R 1010   5.086   1.589   5.313 -2.8650 -1.3549 -4.6738
    8SAPS  H19S 1011   5.189   1.720   5.242  1.0860 -0.5556  1.9372
    8SAPS  C220 1012   4.996   1.683   5.149 -0.5793  0.1159  0.1751
    8SAPS  H20R 1013   4.975   1.779   5.098  1.1663 -0.0422 -0.9315
    8SAPS  H20S 1014   4.910   1.616   5.172 -0.7961 -1.4989 -4.2684
    8SAPS  H20T 1015   5.046   1.638   5.061 -0.9525  0.4849 -0.2302
    8SAPS   C33 1016   5.682   1.854   6.492  0.0353  0.0328 -0.2262
    8SAPS   H3X 1017   5.630   1.756   6.496  2.3665 -1.2968 -0.5889
    8SAPS   H3Y 1018   5.792   1.840   6.480  0.2771 -0.2541  1.8720
    8SAPS   C34 1019   5.633   1.941   6.373 -0.1663  0.0513  0.5239
    8SAPS   H4X 1020   5.699   2.030   6.370 -0.5791  0.3633  0.6106
    8SAPS   H4Y 1021   5.523   1.958   6.376 -0.5300 -2.0685  1.6805
    8SAPS   C35 1022   5.645   1.868   6.234 -0.0214  0.6136  0.4263
    8SAPS   H5X 1023   5.598   1.768   6.233  0.8613  0.0677 -3.4019
    8SAPS   H5Y 1024   5.752   1.841   6.222 -0.8815 -2.6934 -0.8451
    8SAPS   C36 1025   5.601   1.955   6.119 -0.6979 -0.0437 -0.1596
    8SAPS   H6X 1026   5.676   2.036   6.105 -1.5949  0.8274  0.0187
    8SAPS   H6Y 1027   5.505   2.004   6.143  0.3465  2.9223 -1.5367
    8SAPS   C37 1028   5.583   1.883   5.985 -0.1726  0.0793 -0.1404
    8SAPS   H7X 1029   5.582   1.964   5.908 -0.8593  0.5293  0.3269
    8SAPS   H7Y 1030   5.489   1.828   5.965 -0.0809  0.0748 -0.5701
    8SAPS   C38 1031   5.702   1.789   5.944 -0.0182  0.3048 -0.2513
    8SAPS   H8X 1032   5.795   1.845   5.969 -0.0040  0.6326 -0.9841
    8SAPS   H8Y 1033   5.711   1.778   5.834  2.5093  2.1091 -0.3275
    8SAPS   C39 1034   5.681   1.642   6.003  0.1399 -0.1051  0.1974
    8SAPS   H9X 1035   5.587   1.644   6.061  0.1272 -0.1701  0.1790
    8SAPS   H9Y 1036   5.761   1.612   6.074 -0.1197 -0.7378  0.2371
    8SAPS  C310 1037   5.664   1.547   5.883 -0.6417 -0.4435 -0.6523
    8SAPS  H10X 1038   5.769   1.532   5.848 -0.8298 -1.9406 -0.6298
    8SAPS  H10Y 1039   5.611   1.597   5.800 -1.0570 -1.8773 -1.2735
    8SAPS  C311 1040   5.595   1.417   5.930  0.6786  0.5341  0.5351
    8SAPS  H11X 1041   5.647   1.370   6.016  0.7589  1.4761  1.0138
    8SAPS  H11Y 1042   5.618   1.348   5.846  1.7782  0.7093  0.6734
    8SAPS  C312 1043   5.443   1.420   5.962 -0.0090  0.3415  0.3839
    8SAPS  H12X 1044   5.378   1.465   5.884  1.0135  1.1440 -0.0257
    8SAPS  H12Y 1045   5.440   1.494   6.045 -0.7452  1.5774 -0.6998
    8SAPS  C313 1046   5.386   1.290   6.020  0.5454  0.2145  0.0979
    8SAPS  H13X 1047   5.456   1.204   6.008 -0.5267 -1.2359  3.1515
    8SAPS  H13Y 1048   5.293   1.253   5.973  0.3242 -0.8951  1.3405
    8SAPS  C314 1049   5.352   1.292   6.174  0.4763  0.2123 -0.3673
    8SAPS  H14X 1050   5.273   1.367   6.192 -0.5646 -0.9564  0.0989
    8SAPS  H14Y 1051   5.438   1.322   6.237 -0.9437  0.6055  1.4414
    8SAPS  C315 1052   5.317   1.145   6.219 -0.8168 -0.4082 -0.7928
    8SAPS  H15X 1053   5.384   1.078   6.161  1.8966  0.1923  1.3947
    8SAPS  H15Y 1054   5.208   1.127   6.208 -1.2316  2.0367 -1.3535
    8SAPS  C316 1055   5.344   1.132   6.374 -0.0763  0.6972  0.0886
    8SAPS  H16X 1056   5.288   1.216   6.419  1.6773  3.2186 -2.1668
    8SAPS  H16Y 1057   5.453   1.153   6.382  0.2923 -0.8215 -0.6116
    8SAPS  C317 1058   5.322   1.000   6.445  0.1859 -0.4578 -0.1551
    8SAPS  H17X 1059   5.383   0.926   6.390 -1.9023 -2.0538 -0.4350
    8SAPS  H17Y 1060   5.218   0.972   6.417 -0.0875  1.2764 -0.9778
    8SAPS  C318 1061   5.352   1.004   6.599  0.5114  0.5059 -0.1877
    8SAPS  H18X 1062   5.263   1.040   6.654 -0.9381 -3.0607  0.0739
    8SAPS  H18Y 1063   5.449   1.048   6.632  0.8806 -0.7146  0.4666
    8SAPS  H18Z 1064   5.358   0.896   6.625 -0.9226  0.9798  2.4239
    9SAPS     N 1065   1.170   0.730   7.596 -0.4516  0.0590  0.7623
    9SAPS   HN1 1066   1.182   0.740   7.699  0.8994  1.4584  0.5032
    9SAPS   HN2 1067   1.088   0.673   7.566  0.8847 -0.1939 -2.8080
    9SAPS   HN3 1068   1.254   0.692   7.548 -0.5438 -2.2558  2.2923
    9SAPS   C12 1069   1.134   0.863   7.541 -0.6334  0.7820 -0.0256
    9SAPS  H12A 1070   1.114   0.925   7.628 -1.0995  0.8558 -0.1823
    9SAPS   C13 1071   1.254   0.920   7.456 -0.0774 -0.0365  0.2250
    9SAPS  O13A 1072   1.362   0.855   7.451 -0.4809 -0.3447 -0.0727
    9SAPS  O13B 1073   1.258   1.047   7.434  0.0400  0.2560 -0.0134
    9SAPS   C11 1074   1.011   0.854   7.448  0.4051 -0.5213  0.2398
    9SAPS  H11A 1075   1.031   0.794   7.356 -0.9646 -0.2605 -0.2520
    9SAPS  H11B 1076   0.989   0.959   7.417  0.2682 -0.4089  0.7045
    9SAPS     P 1077   0.753   0.791   7.502  0.1558 -0.3769 -0.2664
    9SAPS   O13 1078   0.698   0.700   7.605 -0.1988 -0.6024 -0.9333
    9SAPS   O14 1079   0.702   0.929   7.517 -0.7516  0.3412 -0.8806
    9SAPS   O12 1080   0.906   0.785   7.516 -1.1165 -0.6535 -0.2782
    9SAPS   O11 1081   0.725   0.750   7.344  0.2446  0.0333 -0.7528
    9SAPS    C1 1082   0.773   0.626   7.295 -0.0395 -0.4446 -0.5662
    9SAPS    HA 1083   0.875   0.608   7.336 -0.7559  1.1837  2.1806
    9SAPS    HB 1084   0.705   0.546   7.332 -0.4094  1.0555  2.2401
    9SAPS    C2 1085   0.770   0.618   7.139 -0.1701  0.3150 -0.5353
    9SAPS    HS 1086   0.796   0.517   7.101  0.4114 -0.3300  1.4652
    9SAPS   O21 1087   0.848   0.725   7.080 -0.5145 -1.0755  0.2298
    9SAPS   C21 1088   0.978   0.702   7.089 -0.6631 -0.0818  0.2457
    9SAPS   O22 1089   1.028   0.591   7.099  0.0797 -0.2953 -0.2037
    9SAPS   C22 1090   1.064   0.831   7.067  0.0662 -0.3789  0.1162
    9SAPS   H2R 1091   1.025   0.913   7.131  0.9841 -0.2303  0.5027
    9SAPS   H2S 1092   1.171   0.804   7.081  0.6795 -0.3866 -3.5811
    9SAPS    C3 1093   0.629   0.649   7.084 -0.4436 -0.4631  0.5691
    9SAPS    HX 1094   0.577   0.723   7.147  1.8341  1.9424 -0.2063
    9SAPS    HY 1095   0.576   0.556   7.114 -1.5019 -0.2302 -0.4943
    9SAPS   O31 1096   0.624   0.662   6.939  0.4423 -0.3647  0.1322
    9SAPS   C31 1097   0.580   0.781   6.898  0.1786 -0.2870  0.4428
    9SAPS   O32 1098   0.571   0.878   6.971 -0.0949  0.1412  0.2767
    9SAPS   C32 1099   0.558   0.770   6.753 -0.1097 -0.2066 -0.3030
    9SAPS   H2X 1100   0.481   0.694   6.730  0.6547 -0.4700 -2.1914
    9SAPS   H2Y 1101   0.656   0.742   6.708  1.2138  1.2416  1.5614
    9SAPS   C23 1102   1.047   0.893   6.925 -0.2767  0.1193 -0.3012
    9SAPS   H3R 1103   1.079   0.997   6.949 -0.0770 -0.5782  2.8557
    9SAPS   H3S 1104   0.945   0.894   6.880 -0.0734  0.8133 -0.7854
    9SAPS   C24 1105   1.142   0.824   6.824  0.6732  0.1863 -0.5912
    9SAPS   H4R 1106   1.129   0.716   6.842 -1.6287  0.6282  0.8645
    9SAPS   H4S 1107   1.247   0.845   6.853  0.7001 -0.9106  0.1362
    9SAPS   C25 1108   1.126   0.857   6.682 -0.3919 -0.3243  0.1820
    9SAPS   H5R 1109   1.104   0.964   6.671  0.4263 -0.3937 -3.1997
    9SAPS   C26 1110   1.150   0.782   6.575 -0.5545 -0.6060  0.6680
    9SAPS   H6R 1111   1.130   0.838   6.482  0.9297  0.3598  0.9086
    9SAPS   C27 1112   1.181   0.633   6.562 -0.4360  0.3120 -0.9296
    9SAPS   H7R 1113   1.210   0.587   6.659  1.2937  0.4473 -1.3495
    9SAPS   H7S 1114   1.259   0.605   6.488 -1.0305 -2.4713 -0.5944
    9SAPS   C28 1115   1.049   0.575   6.513 -0.2784  0.0612  0.0944
    9SAPS   H8R 1116   0.962   0.574   6.581  0.4230 -0.9110  1.0235
    9SAPS   C29 1117   1.029   0.544   6.383  0.0068  0.2302 -0.8903
    9SAPS   H9R 1118   0.930   0.506   6.354  0.8804 -1.7736 -1.4294
    9SAPS  C210 1119   1.116   0.543   6.261  0.6701 -0.1747 -0.1464
    9SAPS  H10R 1120   1.207   0.603   6.281 -0.1569  0.6633  1.2319
    9SAPS  H10S 1121   1.063   0.602   6.183  2.3870  2.2491  0.4021
    9SAPS  C211 1122   1.160   0.406   6.212  0.5225  0.4479 -0.0641
    9SAPS  H11R 1123   1.178   0.331   6.290 -4.0555 -0.0565  0.8363
    9SAPS  C212 1124   1.192   0.371   6.086 -0.2016 -0.3838  0.5807
    9SAPS  H12R 1125   1.221   0.268   6.062  1.7773 -0.0257  1.2533
    9SAPS  C213 1126   1.191   0.461   5.970  0.1719 -0.4313 -0.1585
    9SAPS  H13R 1127   1.291   0.445   5.925  0.1550 -1.2810  0.0918
    9SAPS  H13S 1128   1.195   0.569   5.996  0.9230 -0.5482  0.2129
    9SAPS  C214 1129   1.081   0.432   5.877 -0.6711  0.9463 -0.1161
    9SAPS  H14R 1130   0.986   0.415   5.930  0.6078 -1.2761  1.6369
    9SAPS  C215 1131   1.087   0.426   5.741 -0.0171 -0.4381  0.3392
    9SAPS  H15R 1132   0.998   0.390   5.686  0.0976 -0.1209 -0.0604
    9SAPS  C216 1133   1.200   0.432   5.645  0.1034  0.1004 -0.0654
    9SAPS  H16R 1134   1.250   0.334   5.625  2.5302  0.7585  2.2065
    9SAPS  H16S 1135   1.284   0.494   5.682  1.1420  0.1570 -2.3573
    9SAPS  C217 1136   1.155   0.486   5.511  0.2467  0.6773  0.5673
    9SAPS  H17R 1137   1.097   0.578   5.533  0.8114  0.9875  0.7845
    9SAPS  H17S 1138   1.087   0.411   5.465 -2.0004  0.9035  3.2641
    9SAPS  C218 1139   1.272   0.520   5.410 -0.3942 -0.2640  0.0456
    9SAPS  H18R 1140   1.350   0.441   5.409  0.7272  0.8149  0.3599
    9SAPS  H18S 1141   1.312   0.617   5.446 -2.1079  0.9869 -1.2530
    9SAPS  C219 1142   1.230   0.525   5.263 -0.3714 -0.2986  0.5802
    9SAPS  H19R 1143   1.173   0.616   5.234  1.2436  0.0113 -2.0050
    9SAPS  H19S 1144   1.170   0.442   5.219  2.4861 -3.6079  2.4740
    9SAPS  C220 1145   1.363   0.544   5.173  0.1635  0.8354  0.1135
    9SAPS  H20R 1146   1.420   0.619   5.232  1.2533 -0.5396  0.8619
    9SAPS  H20S 1147   1.332   0.573   5.070 -0.7429 -0.7210 -0.0806
    9SAPS  H20T 1148   1.425   0.452   5.170  2.1226  2.0732  0.7819
    9SAPS   C33 1149   0.510   0.904   6.705  0.2520 -0.0737  0.2481
    9SAPS   H3X 1150   0.417   0.935   6.758  1.2427  0.2865  1.8224
    9SAPS   H3Y 1151   0.468   0.885   6.603 -2.4546  3.4702  0.5122
    9SAPS   C34 1152   0.602   1.023   6.696  0.7959  0.3244  0.0656
    9SAPS   H4X 1153   0.625   1.052   6.801 -0.2746  0.7636  0.1902
    9SAPS   H4Y 1154   0.550   1.106   6.644  0.6726  0.1923 -0.0231
    9SAPS   C35 1155   0.730   0.986   6.609 -0.4382 -0.2938 -0.2977
    9SAPS   H5X 1156   0.782   0.913   6.674 -2.3774 -0.3533  1.2693
    9SAPS   H5Y 1157   0.796   1.075   6.601 -1.8481  0.7041 -1.4933
    9SAPS   C36 1158   0.719   0.943   6.457  0.4429 -0.7663 -0.5224
    9SAPS   H6X 1159   0.683   1.036   6.409  2.7363  0.7927  0.5979
    9SAPS   H6Y 1160   0.635   0.871   6.441 -0.8093  0.1841  1.3343
    9SAPS   C37 1161   0.863   0.908   6.400  1.0120  0.4778 -0.1404
    9SAPS   H7X 1162   0.907   0.812   6.436 -0.6443 -0.4549 -0.5082
    9SAPS   H7Y 1163   0.928   0.988   6.441  1.9830 -0.9585  1.2297
    9SAPS   C38 1164   0.870   0.911   6.249 -0.2680  0.2126 -0.6637
    9SAPS   H8X 1165   0.835   1.013   6.222  0.0563  0.8875  1.3366
    9SAPS   H8Y 1166   0.817   0.827   6.200 -0.4680 -0.8072  1.2370
    9SAPS   C39 1167   1.021   0.902   6.213 -0.5787 -0.6748 -1.1032
    9SAPS   H9X 1168   1.070   0.816   6.265  0.0493 -0.5736 -1.5200
    9SAPS   H9Y 1169   1.083   0.991   6.238 -1.6678  0.2581 -1.6462
    9SAPS  C310 1170   1.059   0.861   6.064 -0.1371 -0.3740  0.0173
    9SAPS  H10X 1171   1.018   0.932   5.990 -2.1142 -2.2643 -0.7908
    9SAPS  H10Y 1172   1.005   0.768   6.035  0.9909 -0.9463 -0.3266
    9SAPS  C311 1173   1.214   0.845   6.049 -1.4805  0.4227  0.2088
    9SAPS  H11X 1174   1.252   0.759   6.107  1.5393  0.1032 -2.0204
    9SAPS  H11Y 1175   1.259   0.934   6.099 -1.2045 -0.5361  1.7284
    9SAPS  C312 1176   1.260   0.842   5.902 -0.2809  0.3702  0.3755
    9SAPS  H12X 1177   1.214   0.923   5.842 -0.2805  0.3520  0.3505
    9SAPS  H12Y 1178   1.232   0.747   5.853  4.0354 -1.3746  0.8634
    9SAPS  C313 1179   1.411   0.847   5.870  0.7911 -0.7533  0.2010
    9SAPS  H13X 1180   1.443   0.774   5.948  0.1800 -0.2183  0.9763
    9SAPS  H13Y 1181   1.456   0.945   5.895  1.6267 -0.7474 -1.2270
    9SAPS  C314 1182   1.452   0.797   5.737 -0.4087  0.0576  0.0488
    9SAPS  H14X 1183   1.408   0.701   5.703  0.4615  0.3471 -1.9985
    9SAPS  H14Y 1184   1.559   0.768   5.741 -0.4256 -0.3187 -1.6153
    9SAPS  C315 1185   1.421   0.896   5.627 -0.7160 -1.1904  0.1415
    9SAPS  H15X 1186   1.438   1.000   5.661 -3.3070 -0.4136 -0.6738
    9SAPS  H15Y 1187   1.315   0.895   5.591 -0.2888 -0.2469 -1.2162
    9SAPS  C316 1188   1.526   0.893   5.512 -0.2308  0.4334  0.1706
    9SAPS  H16X 1189   1.557   0.790   5.486 -0.2403 -0.1167  2.1376
    9SAPS  H16Y 1190   1.625   0.936   5.540 -0.1065  1.4664 -1.7196
    9SAPS  C317 1191   1.462   0.961   5.385  0.1352  0.7705 -0.5189
    9SAPS  H17X 1192   1.386   1.037   5.412  2.1055  1.8498  2.4172
    9SAPS  H17Y 1193   1.404   0.882   5.332  0.1452 -0.3547  1.0810
    9SAPS  C318 1194   1.561   1.032   5.295  0.1218 -0.7295  0.2524
    9SAPS  H18X 1195   1.654   0.974   5.313 -0.4675 -1.4858  0.9176
    9SAPS  H18Y 1196   1.578   1.137   5.327  0.6402 -0.7886  0.1753
    9SAPS  H18Z 1197   1.543   1.020   5.186  2.9159 -0.4940 -0.3186
   10SAPS     N 1198   0.614   1.148   7.646 -0.0046  0.0860 -0.1529
   10SAPS   HN1 1199   0.681   1.138   7.724 -0.5701 -0.8800  0.2203
   10SAPS   HN2 1200   0.519   1.125   7.681 -0.3006  1.6570  0.1562
   10SAPS   HN3 1201   0.645   1.078   7.575  1.9226  0.7032  0.0246
   10SAPS   C12 1202   0.609   1.284   7.587  0.2397  0.3103 -0.3816
   10SAPS  H12A 1203   0.610   1.358   7.666  3.1297 -0.2758  0.2291
   10SAPS   C13 1204   0.732   1.312   7.506  0.1940  0.4401 -0.4070
   10SAPS  O13A 1205   0.827   1.230   7.490 -0.1727 -0.0411  0.2543
   10SAPS  O13B 1206   0.744   1.435   7.466  0.0969  0.1893  0.1731
   10SAPS   C11 1207   0.490   1.289   7.491  0.3186 -0.3923 -0.4995
   10SAPS  H11A 1208   0.484   1.205   7.418 -1.1977 -0.9501  0.2176
   10SAPS  H11B 1209   0.499   1.385   7.435  1.2029 -0.2401 -0.1016
   10SAPS     P 1210   0.230   1.215   7.522  0.0820  0.5331 -0.4079
   10SAPS   O13 1211   0.245   1.064   7.526  0.2152 -0.0686 -0.4049
   10SAPS   O14 1212   0.119   1.273   7.598 -0.0670  0.2446  0.0050
   10SAPS   O12 1213   0.364   1.290   7.563  0.3015  0.1802 -0.2386
   10SAPS   O11 1214   0.222   1.256   7.371 -0.4004 -0.0112  0.0201
   10SAPS    C1 1215   0.156   1.376   7.324  0.3575  0.2618 -0.1856
   10SAPS    HA 1216   0.045   1.371   7.321  0.3470 -0.2101  0.7420
   10SAPS    HB 1217   0.181   1.454   7.399  0.3787  0.4743 -0.4130
   10SAPS    C2 1218   0.208   1.420   7.184  0.0951  0.4223  0.2148
   10SAPS    HS 1219   0.166   1.521   7.161  0.6617  0.3776 -1.1252
   10SAPS   O21 1220   0.178   1.318   7.080 -0.2641 -0.5572 -0.2151
   10SAPS   C21 1221   0.129   1.369   6.970 -0.1715  0.3007 -0.2669
   10SAPS   O22 1222   0.089   1.485   6.957  0.7323 -0.1360 -0.3869
   10SAPS   C22 1223   0.139   1.276   6.850  0.1096  0.0625 -0.2228
   10SAPS   H2R 1224   0.123   1.345   6.765 -1.4263  0.6230  0.4692
   10SAPS   H2S 1225   0.242   1.235   6.854  0.3760  0.7363 -0.2066
   10SAPS    C3 1226   0.355   1.444   7.187 -1.0965 -0.3252 -0.4692
   10SAPS    HX 1227   0.411   1.348   7.196  0.6843  0.8428  1.7061
   10SAPS    HY 1228   0.373   1.509   7.275  0.9685  0.2260 -1.2414
   10SAPS   O31 1229   0.394   1.513   7.064  0.0428  0.2663 -0.2038
   10SAPS   C31 1230   0.523   1.524   7.044  0.2739  0.3338 -0.9937
   10SAPS   O32 1231   0.603   1.500   7.130  0.0897  0.5692  0.4324
   10SAPS   C32 1232   0.554   1.588   6.913  0.4544 -0.6082 -0.4996
   10SAPS   H2X 1233   0.662   1.570   6.891  0.5655  0.2251 -0.6549
   10SAPS   H2Y 1234   0.534   1.696   6.926 -0.3447 -0.4708 -2.4491
   10SAPS   C23 1235   0.042   1.155   6.867 -0.0138  0.4472  0.4418
   10SAPS   H3R 1236  -0.060   1.195   6.852 -0.0561  0.1421 -0.1067
   10SAPS   H3S 1237   0.052   1.120   6.972  2.4825  2.5716  1.0132
   10SAPS   C24 1238   0.080   1.038   6.770  0.7469  0.3583 -0.5010
   10SAPS   H4R 1239   0.020   0.952   6.808  1.5970  0.1750  0.4476
   10SAPS   H4S 1240   0.182   0.997   6.784 -0.2707 -1.4427  2.4682
   10SAPS   C25 1241   0.037   1.060   6.628 -0.1538 -0.0533  0.0850
   10SAPS   H5R 1242  -0.058   1.116   6.626  0.3026  0.7104 -1.3707
   10SAPS   C26 1243   0.106   1.038   6.515 -0.5645 -0.1918  0.4705
   10SAPS   H6R 1244   0.070   1.073   6.417 -1.2831 -0.3335  0.6816
   10SAPS   C27 1245   0.234   0.965   6.503  0.2456 -0.3446 -0.2891
   10SAPS   H7R 1246   0.218   0.864   6.459 -0.5971 -0.9498  1.3375
   10SAPS   H7S 1247   0.267   0.940   6.606  0.8998 -0.8009 -0.6089
   10SAPS   C28 1248   0.332   1.054   6.434 -0.4239 -0.5160 -0.1234
   10SAPS   H8R 1249   0.355   1.136   6.505 -1.6499 -0.4775  0.2579
   10SAPS   C29 1250   0.385   1.042   6.311  0.3750  0.3062 -0.3718
   10SAPS   H9R 1251   0.469   1.110   6.291  2.9513 -2.9481 -1.5827
   10SAPS  C210 1252   0.364   0.942   6.204  1.0964  0.2004  0.0688
   10SAPS  H10R 1253   0.307   0.855   6.242 -1.2933  1.6812  0.0957
   10SAPS  H10S 1254   0.458   0.899   6.164  0.9755  0.8218 -0.9199
   10SAPS  C211 1255   0.285   0.996   6.091  0.4623  0.4256 -0.0433
   10SAPS  H11R 1256   0.177   1.009   6.105  0.5376  0.5512  0.4586
   10SAPS  C212 1257   0.331   1.054   5.975  0.2426 -0.5330 -0.4132
   10SAPS  H12R 1258   0.256   1.087   5.902  0.2843 -0.5771 -0.4761
   10SAPS  C213 1259   0.477   1.069   5.941  0.4429  0.2515 -0.6081
   10SAPS  H13R 1260   0.525   0.975   5.906 -1.2032 -0.6665 -0.5125
   10SAPS  H13S 1261   0.541   1.088   6.029  1.6835 -0.6552 -1.2781
   10SAPS  C214 1262   0.499   1.196   5.858 -0.2212 -0.0700  0.1493
   10SAPS  H14R 1263   0.429   1.279   5.867 -1.5094 -0.6801 -2.8665
   10SAPS  C215 1264   0.578   1.211   5.753  0.3474  0.1069 -0.1278
   10SAPS  H15R 1265   0.584   1.312   5.710  2.6172 -0.0954 -0.3831
   10SAPS  C216 1266   0.680   1.112   5.700 -0.1794 -0.1714  0.3455
   10SAPS  H16R 1267   0.677   1.027   5.772  0.7447  0.5807  1.3216
   10SAPS  H16S 1268   0.781   1.158   5.708 -0.1075 -0.4588  1.2741
   10SAPS  C217 1269   0.645   1.056   5.557  0.6153 -0.0123 -0.1564
   10SAPS  H17R 1270   0.607   1.137   5.491  1.2684  2.0715  1.8956
   10SAPS  H17S 1271   0.568   0.977   5.562  1.9392 -1.4259 -1.1863
   10SAPS  C218 1272   0.770   1.000   5.489  0.2939 -0.7016 -0.7474
   10SAPS  H18R 1273   0.848   1.076   5.511 -0.3710  0.4702 -2.2619
   10SAPS  H18S 1274   0.755   0.990   5.380 -2.6652 -1.5005 -0.3669
   10SAPS  C219 1275   0.822   0.865   5.543  0.3474 -0.1538  0.1303
   10SAPS  H19R 1276   0.834   0.795   5.458  0.1030 -0.2354  0.1629
   10SAPS  H19S 1277   0.749   0.835   5.622  0.6413 -1.0205  0.0818
   10SAPS  C220 1278   0.958   0.864   5.616  0.4639 -0.1153  0.4338
   10SAPS  H20R 1279   0.977   0.767   5.667 -1.6953  0.3933  2.3909
   10SAPS  H20S 1280   0.959   0.938   5.699 -1.2806 -3.0924  3.3717
   10SAPS  H20T 1281   1.042   0.883   5.547 -0.2472 -0.4194 -0.5509
   10SAPS   C33 1282   0.466   1.549   6.792 -0.0578 -0.2676  0.0869
   10SAPS   H3X 1283   0.475   1.633   6.720 -0.3612 -0.7285 -0.4977
   10SAPS   H3Y 1284   0.360   1.539   6.821 -1.4429  0.7467 -3.9313
   10SAPS   C34 1285   0.516   1.418   6.720 -0.0436  0.0039  0.4515
   10SAPS   H4X 1286   0.501   1.326   6.779  2.4135 -0.6121  0.2147
   10SAPS   H4Y 1287   0.623   1.426   6.691  0.0618 -2.7619 -0.1466
   10SAPS   C35 1288   0.446   1.408   6.581 -0.2353 -0.3428 -0.2936
   10SAPS   H5X 1289   0.335   1.408   6.589 -0.4029  1.4369 -2.0642
   10SAPS   H5Y 1290   0.476   1.309   6.539 -2.5644 -0.9536 -0.6535
   10SAPS   C36 1291   0.490   1.513   6.488  0.3491 -0.5926 -0.0532
   10SAPS   H6X 1292   0.589   1.559   6.507  0.0397  0.3622 -0.6715
   10SAPS   H6Y 1293   0.414   1.594   6.493 -1.5108 -1.9971 -3.0027
   10SAPS   C37 1294   0.497   1.464   6.342 -0.9423 -0.1091 -1.0569
   10SAPS   H7X 1295   0.408   1.403   6.313 -0.7438 -0.3187 -1.2251
   10SAPS   H7Y 1296   0.582   1.392   6.344 -0.2821  0.6695 -0.5365
   10SAPS   C38 1297   0.517   1.583   6.249 -0.8020 -0.1757  0.3903
   10SAPS   H8X 1298   0.600   1.649   6.281 -1.4207  2.7457 -3.2709
   10SAPS   H8Y 1299   0.423   1.643   6.250  1.2310  3.3363  2.6828
   10SAPS   C39 1300   0.554   1.535   6.106 -0.1114 -0.0136  0.3672
   10SAPS   H9X 1301   0.503   1.438   6.086  2.7888 -1.6573  0.2756
   10SAPS   H9Y 1302   0.661   1.506   6.096 -0.3477 -0.9801  0.4792
   10SAPS  C310 1303   0.525   1.635   5.996  0.6355  0.3012 -0.2887
   10SAPS  H10X 1304   0.592   1.721   6.020  3.5481 -1.8441 -0.2589
   10SAPS  H10Y 1305   0.420   1.668   6.009 -0.0296 -1.8931  0.2991
   10SAPS  C311 1306   0.573   1.586   5.854  0.7204  0.7126  0.0077
   10SAPS  H11X 1307   0.516   1.500   5.812  1.7522 -0.3805  0.7943
   10SAPS  H11Y 1308   0.670   1.533   5.866 -0.0995 -1.3657 -1.8093
   10SAPS  C312 1309   0.579   1.693   5.751 -0.0519 -0.4141 -0.0163
   10SAPS  H12X 1310   0.649   1.772   5.786 -0.0351 -0.1619 -0.6224
   10SAPS  H12Y 1311   0.482   1.745   5.742  1.2082  2.1843  0.4106
   10SAPS  C313 1312   0.640   1.654   5.615 -0.3901 -0.3134 -0.4645
   10SAPS  H13X 1313   0.624   1.730   5.536 -1.3511 -2.6225 -2.5947
   10SAPS  H13Y 1314   0.581   1.567   5.579 -1.4825 -0.5145  1.6566
   10SAPS  C314 1315   0.787   1.610   5.625  0.6318 -0.1707  0.5762
   10SAPS  H14X 1316   0.796   1.505   5.661 -1.5657  0.0551  1.9611
   10SAPS  H14Y 1317   0.837   1.672   5.702  1.9508  1.0224 -1.1557
   10SAPS  C315 1318   0.873   1.630   5.503  0.5286 -0.6560  0.2785
   10SAPS  H15X 1319   0.978   1.599   5.524  1.3459  2.2311  0.8922
   10SAPS  H15Y 1320   0.877   1.740   5.486  0.3702 -0.7504 -0.3720
   10SAPS  C316 1321   0.822   1.571   5.374  0.5886  0.2329  0.6562
   10SAPS  H16X 1322   0.723   1.613   5.346 -1.3038 -2.6365  2.5295
   10SAPS  H16Y 1323   0.819   1.461   5.389  1.5163  0.1233  0.1231
   10SAPS  C317 1324   0.912   1.597   5.256 -0.1786 -0.8322 -0.5620
   10SAPS  H17X 1325   1.011   1.548   5.270  1.2864  2.3203  1.3147
   10SAPS  H17Y 1326   0.928   1.706   5.240 -1.5251 -1.0805 -4.7978
   10SAPS  C318 1327   0.852   1.552   5.128 -0.0429  0.4212 -0.3562
   10SAPS  H18X 1328   0.786   1.628   5.082 -1.5920 -1.3934 -1.3146
   10SAPS  H18Y 1329   0.795   1.457   5.136 -0.2992  0.6284  0.3663
   10SAPS  H18Z 1330   0.938   1.537   5.059  1.0613  1.1446  0.8302
   11SAPS     N 1331   1.588   6.381   2.502  0.5963 -0.3467 -0.1002
   11SAPS   HN1 1332   1.526   6.332   2.570  0.8368  0.2246  0.5482
   11SAPS   HN2 1333   1.674   6.403   2.556  0.4975 -4.5942  2.2110
   11SAPS   HN3 1334   1.540   6.473   2.487 -0.4330 -0.9156 -0.4323
   11SAPS   C12 1335   1.622   6.303   2.373 -0.2124 -0.2758  0.0237
   11SAPS  H12A 1336   1.524   6.278   2.335 -0.0329 -0.8179 -0.0899
   11SAPS   C13 1337   1.695   6.386   2.264 -0.2352  0.1381 -0.6385
   11SAPS  O13A 1338   1.740   6.502   2.288 -0.0716 -0.6588  0.2524
   11SAPS  O13B 1339   1.706   6.335   2.151  0.3389  0.2711 -0.1157
   11SAPS   C11 1340   1.712   6.183   2.426  0.5910 -0.7116 -0.0416
   11SAPS  H11A 1341   1.810   6.214   2.468  0.5458 -1.0903  0.3453
   11SAPS  H11B 1342   1.735   6.122   2.336 -1.8238 -2.2390  0.2887
   11SAPS     P 1343   1.594   5.966   2.498  0.5173 -0.3003 -0.6151
   11SAPS   O13 1344   1.501   5.918   2.606  0.3520 -0.2217  0.9764
   11SAPS   O14 1345   1.549   5.948   2.360  0.3782  0.3736  0.2137
   11SAPS   O12 1346   1.646   6.114   2.525  0.3078 -0.0147 -0.1584
   11SAPS   O11 1347   1.724   5.879   2.509 -0.2831  0.4511 -0.2222
   11SAPS    C1 1348   1.838   5.921   2.582  0.1917  0.1640  0.7276
   11SAPS    HA 1349   1.919   5.928   2.506  1.1938  1.7493  1.8723
   11SAPS    HB 1350   1.835   6.026   2.618  0.1107  0.4651 -0.1300
   11SAPS    C2 1351   1.873   5.819   2.696 -0.0158 -0.1617 -0.1776
   11SAPS    HS 1352   1.878   5.721   2.643  1.1062 -0.0363 -0.3137
   11SAPS   O21 1353   1.775   5.832   2.798  0.5760 -0.5786 -0.5916
   11SAPS   C21 1354   1.670   5.746   2.783 -0.3281 -0.4847 -0.3339
   11SAPS   O22 1355   1.666   5.650   2.711  0.3649  0.4415  0.2386
   11SAPS   C22 1356   1.556   5.780   2.874  0.5367 -0.2102  0.4364
   11SAPS   H2R 1357   1.538   5.890   2.867 -0.7248 -0.5099 -2.8891
   11SAPS   H2S 1358   1.469   5.725   2.833  2.0400 -1.1113 -1.7357
   11SAPS    C3 1359   2.019   5.843   2.761  0.6985 -0.0836  0.2945
   11SAPS    HX 1360   2.022   5.939   2.817 -0.9890 -0.3793  0.9736
   11SAPS    HY 1361   2.099   5.845   2.685  0.6090  0.8370  0.2143
   11SAPS   O31 1362   2.038   5.740   2.864 -0.1066  0.1207  0.6539
   11SAPS   C31 1363   2.102   5.625   2.826 -0.1740 -0.4386  0.8594
   11SAPS   O32 1364   2.162   5.607   2.723  0.2412  0.1343  0.3520
   11SAPS   C32 1365   2.084   5.516   2.935  0.4991 -0.2455 -0.1232
   11SAPS   H2X 1366   2.186   5.485   2.967  1.6503  0.6995 -2.6482
   11SAPS   H2Y 1367   2.053   5.428   2.876  1.9830  0.5396 -2.1668
   11SAPS   C23 1368   1.587   5.729   3.018 -0.4131 -0.1732 -0.6288
   11SAPS   H3R 1369   1.651   5.639   3.027  0.2890  0.4129  0.5166
   11SAPS   H3S 1370   1.489   5.699   3.059 -0.8119 -0.0613 -1.4768
   11SAPS   C24 1371   1.649   5.845   3.106  0.1491 -0.0977 -0.2114
   11SAPS   H4R 1372   1.600   5.941   3.081  1.4172 -0.1481 -3.3297
   11SAPS   H4S 1373   1.757   5.859   3.083  0.7352  1.1123  2.7766
   11SAPS   C25 1374   1.644   5.815   3.257  0.5544  0.0050  0.2012
   11SAPS   H5R 1375   1.643   5.707   3.279  0.6333 -0.1500 -0.5328
   11SAPS   C26 1376   1.608   5.902   3.362 -0.0028  0.4670 -0.4716
   11SAPS   H6R 1377   1.616   5.857   3.462 -1.1339 -0.8063 -0.9306
   11SAPS   C27 1378   1.581   6.052   3.348  0.1686 -0.5812 -0.4573
   11SAPS   H7R 1379   1.471   6.067   3.345  0.4718  2.3010  0.2051
   11SAPS   H7S 1380   1.614   6.096   3.252  1.5314  1.2793  0.7959
   11SAPS   C28 1381   1.637   6.130   3.465  0.3875  0.4476  0.0092
   11SAPS   H8R 1382   1.746   6.141   3.473  0.3187  1.0418  0.1653
   11SAPS   C29 1383   1.567   6.195   3.561  0.8312  0.6978 -0.0585
   11SAPS   H9R 1384   1.619   6.240   3.647  0.5282 -1.9577  1.6430
   11SAPS  C210 1385   1.419   6.206   3.578 -0.0567  0.1744  0.2959
   11SAPS  H10R 1386   1.394   6.157   3.674  1.0447  1.8734  1.4918
   11SAPS  H10S 1387   1.360   6.150   3.503  0.8505 -0.3485 -0.0510
   11SAPS  C211 1388   1.371   6.349   3.583 -0.2274 -0.1625 -0.2199
   11SAPS  H11R 1389   1.345   6.397   3.488 -0.4042  1.4637  0.6238
   11SAPS  C212 1390   1.366   6.422   3.691  1.0774 -0.0012 -0.2172
   11SAPS  H12R 1391   1.316   6.520   3.689  1.0589  0.2197  3.8272
   11SAPS  C213 1392   1.419   6.392   3.827  0.4218 -0.6298  0.0711
   11SAPS  H13R 1393   1.499   6.317   3.810  1.1753  0.3547 -0.8597
   11SAPS  H13S 1394   1.343   6.339   3.889  0.9175 -1.3440  0.0757
   11SAPS  C214 1395   1.487   6.498   3.902  0.0844  0.5652 -0.3151
   11SAPS  H14R 1396   1.592   6.516   3.875  1.5465 -1.2005  3.4688
   11SAPS  C215 1397   1.431   6.567   4.005  0.2654  0.3847  0.0215
   11SAPS  H15R 1398   1.491   6.654   4.038 -0.7147  0.2451  2.3593
   11SAPS  C216 1399   1.286   6.565   4.054  0.4329 -0.4421 -1.0359
   11SAPS  H16R 1400   1.224   6.506   3.983 -1.3407  0.3094 -0.1748
   11SAPS  H16S 1401   1.242   6.667   4.051  0.2648 -0.4980 -0.5584
   11SAPS  C217 1402   1.272   6.504   4.191  0.1289  0.1809 -0.2005
   11SAPS  H17R 1403   1.164   6.521   4.211 -0.3569  0.9326 -3.0165
   11SAPS  H17S 1404   1.326   6.567   4.265 -0.9334  0.0649  0.7126
   11SAPS  C218 1405   1.311   6.357   4.202 -0.2692  0.3241 -1.3379
   11SAPS  H18R 1406   1.409   6.352   4.150  0.0361  1.0560 -0.8407
   11SAPS  H18S 1407   1.232   6.299   4.149  0.0924 -1.1894 -0.2878
   11SAPS  C219 1408   1.311   6.308   4.347 -0.3761  0.0729 -0.0008
   11SAPS  H19R 1409   1.219   6.328   4.405 -1.0330 -1.5998 -0.4168
   11SAPS  H19S 1410   1.388   6.370   4.398 -0.0024 -0.0722 -0.3801
   11SAPS  C220 1411   1.334   6.158   4.371 -0.0652 -0.4455 -0.1548
   11SAPS  H20R 1412   1.332   6.127   4.477  0.0862 -0.7079 -0.2269
   11SAPS  H20S 1413   1.425   6.122   4.318 -0.9217 -2.4139 -0.3723
   11SAPS  H20T 1414   1.239   6.111   4.335 -1.3664  2.1176 -0.2932
   11SAPS   C33 1415   1.982   5.563   3.045  0.7776  0.6484  0.8746
   11SAPS   H3X 1416   1.881   5.572   3.000  0.2509 -1.4161  1.5392
   11SAPS   H3Y 1417   2.011   5.663   3.083  0.5156  1.6146 -1.2928
   11SAPS   C34 1418   1.982   5.473   3.165  0.2690  0.4999 -0.2501
   11SAPS   H4X 1419   2.084   5.478   3.207  0.5647  2.2832 -1.0525
   11SAPS   H4Y 1420   1.959   5.367   3.142 -0.9458  0.4938  0.8792
   11SAPS   C35 1421   1.875   5.529   3.265 -0.2007 -0.3759  0.4080
   11SAPS   H5X 1422   1.777   5.518   3.215 -0.1424 -0.0115  0.2135
   11SAPS   H5Y 1423   1.884   5.639   3.276  0.6483 -0.5019  1.1871
   11SAPS   C36 1424   1.873   5.451   3.398  0.4988 -0.3385 -0.2079
   11SAPS   H6X 1425   1.970   5.454   3.452  0.7871 -1.1476 -0.6588
   11SAPS   H6Y 1426   1.864   5.344   3.367  0.2478 -0.0508 -1.1710
   11SAPS   C37 1427   1.762   5.480   3.488  0.2803 -0.1573  0.1080
   11SAPS   H7X 1428   1.665   5.469   3.435  0.7805 -3.0012 -0.3565
   11SAPS   H7Y 1429   1.766   5.582   3.532 -2.1157  0.0909 -0.1209
   11SAPS   C38 1430   1.774   5.380   3.608 -0.4802  0.0366 -0.4109
   11SAPS   H8X 1431   1.866   5.412   3.661 -0.7935  1.5353 -0.7007
   11SAPS   H8Y 1432   1.788   5.274   3.579 -1.7751 -0.5044  0.8248
   11SAPS   C39 1433   1.661   5.388   3.709 -0.8123 -0.0349  0.5190
   11SAPS   H9X 1434   1.573   5.343   3.658  0.0044 -0.9580 -0.1082
   11SAPS   H9Y 1435   1.650   5.493   3.743  2.3601  0.8632 -0.8126
   11SAPS  C310 1436   1.688   5.313   3.841 -0.8379  0.7302  0.0663
   11SAPS  H10X 1437   1.764   5.354   3.910 -0.8986  1.6963 -0.4254
   11SAPS  H10Y 1438   1.729   5.214   3.810 -0.7391 -0.0008  2.3384
   11SAPS  C311 1439   1.546   5.302   3.906 -0.0522  0.0892  0.0410
   11SAPS  H11X 1440   1.511   5.200   3.879  1.3110  0.6188 -4.5034
   11SAPS  H11Y 1441   1.491   5.387   3.860  1.4488  1.2584  0.3184
   11SAPS  C312 1442   1.556   5.318   4.056  0.6290  0.2868 -0.7209
   11SAPS  H12X 1443   1.621   5.406   4.075 -1.8325  1.9598  0.4822
   11SAPS  H12Y 1444   1.602   5.231   4.109 -0.9538 -0.0229  0.2149
   11SAPS  C313 1445   1.421   5.343   4.121 -0.1654  0.3116  0.9619
   11SAPS  H13X 1446   1.437   5.344   4.231 -4.0448 -1.4403  1.7111
   11SAPS  H13Y 1447   1.357   5.252   4.117  1.3095 -0.7945  1.8119
   11SAPS  C314 1448   1.340   5.473   4.088  0.0490  0.6439 -0.4754
   11SAPS  H14X 1449   1.328   5.477   3.978  0.1778 -0.2161 -0.5236
   11SAPS  H14Y 1450   1.393   5.566   4.116 -0.0664  1.0935 -1.7022
   11SAPS  C315 1451   1.197   5.484   4.143  0.1586 -0.1303  0.3584
   11SAPS  H15X 1452   1.145   5.390   4.114 -0.1572  0.1700 -0.0608
   11SAPS  H15Y 1453   1.153   5.573   4.093  0.7203  0.7598  1.4156
   11SAPS  C316 1454   1.185   5.524   4.294 -0.0927  0.8750  0.6391
   11SAPS  H16X 1455   1.252   5.612   4.305  1.4174 -0.2946  1.3002
   11SAPS  H16Y 1456   1.237   5.450   4.358  0.6572  1.2987  0.5372
   11SAPS  C317 1457   1.048   5.569   4.342  0.5347  0.4263  0.0214
   11SAPS  H17X 1458   0.999   5.634   4.266  0.0848  1.8616  1.4731
   11SAPS  H17Y 1459   1.068   5.643   4.423 -0.2832  1.3908 -0.6301
   11SAPS  C318 1460   0.967   5.450   4.386 -0.4701  0.2032 -0.0878
   11SAPS  H18X 1461   1.007   5.396   4.473  0.4578 -2.0074 -1.8034
   11SAPS  H18Y 1462   0.946   5.376   4.306 -1.3185  1.5539 -1.1586
   11SAPS  H18Z 1463   0.862   5.480   4.408 -0.6484 -1.2198  1.1202
   12SAPS     N 1464   3.513   3.697   2.354 -0.1102  0.4747  0.0661
   12SAPS   HN1 1465   3.499   3.777   2.288  0.2192  0.6632  0.2235
   12SAPS   HN2 1466   3.556   3.619   2.302 -1.8227 -0.8352  0.5261
   12SAPS   HN3 1467   3.418   3.677   2.391  0.5989  0.8940  2.2805
   12SAPS   C12 1468   3.599   3.731   2.467  0.2952 -0.0233 -0.5875
   12SAPS  H12A 1469   3.692   3.769   2.426  0.2139 -0.2150 -0.9543
   12SAPS   C13 1470   3.539   3.838   2.566 -0.5480  0.5132 -0.7882
   12SAPS  O13A 1471   3.425   3.889   2.541 -0.0124 -0.9100  0.0656
   12SAPS  O13B 1472   3.620   3.891   2.642  0.5372  0.0171 -0.1365
   12SAPS   C11 1473   3.630   3.591   2.541 -0.1933 -0.0146 -0.4122
   12SAPS  H11A 1474   3.541   3.575   2.607 -0.7760  0.5268 -1.0488
   12SAPS  H11B 1475   3.728   3.602   2.591 -0.9001  1.2739  0.7570
   12SAPS     P 1476   3.758   3.425   2.368 -0.0398  0.3031 -0.3402
   12SAPS   O13 1477   3.710   3.302   2.296 -0.2088 -0.2939 -0.3709
   12SAPS   O14 1478   3.822   3.530   2.294 -0.0093 -0.2020  0.5454
   12SAPS   O12 1479   3.637   3.481   2.451  0.1607 -0.3929  0.4084
   12SAPS   O11 1480   3.855   3.381   2.482 -0.3825  0.3551 -0.5417
   12SAPS    C1 1481   3.803   3.280   2.581  0.1218  0.1701  0.5463
   12SAPS    HA 1482   3.708   3.308   2.632  0.0381  0.7383  0.0877
   12SAPS    HB 1483   3.790   3.184   2.527 -1.4029  0.8671 -0.3634
   12SAPS    C2 1484   3.909   3.253   2.690 -0.3676 -0.1384 -0.3592
   12SAPS    HS 1485   3.857   3.187   2.763 -1.0664 -0.0537 -0.7720
   12SAPS   O21 1486   3.963   3.366   2.757  0.4991  0.3991  0.6173
   12SAPS   C21 1487   3.881   3.427   2.846  0.3843  0.1011 -0.3655
   12SAPS   O22 1488   3.791   3.384   2.915  0.4157  0.2894 -0.1108
   12SAPS   C22 1489   3.939   3.560   2.871 -0.2645  1.2810 -0.5960
   12SAPS   H2R 1490   4.049   3.564   2.857 -0.3934  2.1002 -1.4878
   12SAPS   H2S 1491   3.889   3.632   2.803 -1.2888  0.5130 -0.6911
   12SAPS    C3 1492   4.031   3.173   2.631 -0.2652 -0.5076  0.2444
   12SAPS    HX 1493   4.102   3.248   2.590 -1.1858 -1.2305 -2.9382
   12SAPS    HY 1494   4.005   3.111   2.543  1.2014 -1.2891  0.3255
   12SAPS   O31 1495   4.085   3.093   2.738 -0.1188 -0.0678 -0.1980
   12SAPS   C31 1496   4.184   3.013   2.702  0.7967  0.3607 -0.2936
   12SAPS   O32 1497   4.235   3.005   2.590 -0.3733 -0.2200 -0.2208
   12SAPS   C32 1498   4.227   2.937   2.831 -0.2186  0.2171  0.6229
   12SAPS   H2X 1499   4.195   2.999   2.918 -0.3512  2.1112 -0.7112
   12SAPS   H2Y 1500   4.336   2.916   2.826  0.2516  2.6324 -1.5194
   12SAPS   C23 1501   3.897   3.615   3.014  0.3422  0.1725  0.7862
   12SAPS   H3R 1502   3.786   3.608   3.023 -0.0090  1.6801 -1.5456
   12SAPS   H3S 1503   3.905   3.726   3.022 -2.2640  0.4112  1.1215
   12SAPS   C24 1504   3.956   3.547   3.136  0.4559 -0.1390  0.0632
   12SAPS   H4R 1505   3.934   3.438   3.137 -0.6771  0.0730 -0.1675
   12SAPS   H4S 1506   3.904   3.581   3.229  1.2043 -1.6160  1.0552
   12SAPS   C25 1507   4.104   3.551   3.152  0.3224  0.1370 -0.2971
   12SAPS   H5R 1508   4.154   3.577   3.058  0.5442  2.5268  0.4217
   12SAPS   C26 1509   4.174   3.536   3.269  0.3378 -0.2803  0.0716
   12SAPS   H6R 1510   4.282   3.550   3.255  0.1706  0.5363 -0.5239
   12SAPS   C27 1511   4.136   3.513   3.405 -0.7581 -0.1659 -0.6715
   12SAPS   H7R 1512   4.067   3.425   3.409 -2.3282  0.9024 -2.4543
   12SAPS   H7S 1513   4.075   3.601   3.436 -1.1106  0.0457 -1.9074
   12SAPS   C28 1514   4.252   3.479   3.491  0.5992 -1.2890 -0.1494
   12SAPS   H8R 1515   4.329   3.558   3.488  0.1769 -0.8073  0.9598
   12SAPS   C29 1516   4.272   3.390   3.581 -0.0696 -0.0504 -0.2489
   12SAPS   H9R 1517   4.371   3.379   3.627  0.9254  1.3540 -1.9320
   12SAPS  C210 1518   4.181   3.275   3.616  0.3462 -0.3539  0.2343
   12SAPS  H10R 1519   4.235   3.201   3.678  1.1317 -0.4194 -0.5074
   12SAPS  H10S 1520   4.148   3.223   3.524 -0.8604  0.3415  0.2554
   12SAPS  C211 1521   4.057   3.318   3.685 -0.3701 -0.7075  0.5467
   12SAPS  H11R 1522   3.972   3.335   3.617  0.5471 -1.2996 -0.7737
   12SAPS  C212 1523   4.031   3.323   3.815  0.1562 -0.0936 -0.1945
   12SAPS  H12R 1524   3.935   3.366   3.849  0.8165  0.4883  0.9893
   12SAPS  C213 1525   4.137   3.307   3.929 -0.2111 -0.4408 -0.6741
   12SAPS  H13R 1526   4.205   3.223   3.901 -0.1934 -0.2365 -1.2577
   12SAPS  H13S 1527   4.081   3.287   4.022  0.6671 -0.1360 -0.0654
   12SAPS  C214 1528   4.221   3.433   3.950 -0.1590 -0.2861  0.2146
   12SAPS  H14R 1529   4.234   3.474   3.849 -0.9455 -0.9146 -0.1500
   12SAPS  C215 1530   4.259   3.498   4.062 -0.1449 -0.5342 -0.0122
   12SAPS  H15R 1531   4.323   3.587   4.065  2.1337 -2.0409 -0.8736
   12SAPS  C216 1532   4.224   3.452   4.205 -0.1606  0.3084 -0.3312
   12SAPS  H16R 1533   4.247   3.343   4.214  0.7712  0.4778 -0.5167
   12SAPS  H16S 1534   4.115   3.457   4.224  0.2015 -0.3712  2.2719
   12SAPS  C217 1535   4.301   3.533   4.311  0.1813  0.3887 -0.8622
   12SAPS  H17R 1536   4.274   3.641   4.315  1.9497  0.8305  1.2005
   12SAPS  H17S 1537   4.407   3.530   4.279  0.8206 -0.2284  1.1478
   12SAPS  C218 1538   4.278   3.482   4.455  0.0333 -0.2067  0.0038
   12SAPS  H18R 1539   4.335   3.554   4.517  0.1908  0.2657 -0.6793
   12SAPS  H18S 1540   4.314   3.378   4.469 -0.8622 -0.4142  0.9318
   12SAPS  C219 1541   4.135   3.475   4.501  0.2551  0.6460 -0.0459
   12SAPS  H19R 1542   4.084   3.384   4.463  1.5975 -1.3610  2.6001
   12SAPS  H19S 1543   4.077   3.566   4.476 -0.3079  0.3449  0.1646
   12SAPS  C220 1544   4.125   3.454   4.653 -0.3113 -0.2516 -0.0741
   12SAPS  H20R 1545   4.171   3.534   4.715  4.1573 -2.5517  0.0048
   12SAPS  H20S 1546   4.181   3.360   4.674 -0.8815 -0.1651  2.0769
   12SAPS  H20T 1547   4.022   3.417   4.671 -0.6994  0.3781 -0.9116
   12SAPS   C33 1548   4.146   2.802   2.847  0.4657  0.4300  0.4659
   12SAPS   H3X 1549   4.207   2.743   2.918 -1.5670 -0.3556  1.6476
   12SAPS   H3Y 1550   4.162   2.754   2.748  0.0695  2.9989 -0.9275
   12SAPS   C34 1551   4.003   2.819   2.899  0.1881  0.5992 -0.2637
   12SAPS   H4X 1552   3.943   2.896   2.846 -2.2676 -0.7312  0.4766
   12SAPS   H4Y 1553   4.001   2.858   3.003 -2.8344  0.1295 -0.0567
   12SAPS   C35 1554   3.909   2.698   2.907 -0.3675 -0.1723 -0.3020
   12SAPS   H5X 1555   3.974   2.610   2.886  1.1331  0.3886  1.6907
   12SAPS   H5Y 1556   3.834   2.700   2.824  0.3570 -1.5269 -1.0219
   12SAPS   C36 1557   3.838   2.659   3.044 -0.2095 -0.4181 -0.6890
   12SAPS   H6X 1558   3.764   2.579   3.024  0.6840 -0.8848 -2.2318
   12SAPS   H6Y 1559   3.788   2.756   3.066 -0.0367 -0.6212  0.7248
   12SAPS   C37 1560   3.933   2.616   3.153  0.3165  0.1581  0.2096
   12SAPS   H7X 1561   4.014   2.692   3.163 -0.3363  0.8226  0.5696
   12SAPS   H7Y 1562   3.981   2.523   3.116  3.6740  0.5678  2.9661
   12SAPS   C38 1563   3.876   2.604   3.290  0.1488  0.0295  0.2463
   12SAPS   H8X 1564   3.783   2.545   3.303 -1.3435  2.4625  1.5528
   12SAPS   H8Y 1565   3.840   2.702   3.329 -0.1670 -0.6174  1.6613
   12SAPS   C39 1566   3.979   2.545   3.385 -0.1594  0.2849 -0.9193
   12SAPS   H9X 1567   4.065   2.613   3.403 -1.4591  2.0979 -1.2630
   12SAPS   H9Y 1568   4.001   2.447   3.337  1.2579  0.2069 -0.1525
   12SAPS  C310 1569   3.923   2.495   3.521 -0.0142 -0.2861 -0.1283
   12SAPS  H10X 1570   3.835   2.434   3.495  0.2027 -0.2825 -0.8889
   12SAPS  H10Y 1571   3.882   2.572   3.591 -1.0295 -0.9257 -0.0052
   12SAPS  C311 1572   4.023   2.408   3.597  0.6554 -1.3327  0.1865
   12SAPS  H11X 1573   4.117   2.462   3.618  0.4080 -1.2150  1.0704
   12SAPS  H11Y 1574   4.047   2.318   3.536 -1.0577 -0.9097 -1.2100
   12SAPS  C312 1575   3.967   2.354   3.725 -0.0084 -0.3598 -1.0177
   12SAPS  H12X 1576   3.879   2.290   3.705 -0.5295  0.3008 -0.8855
   12SAPS  H12Y 1577   3.933   2.439   3.788  0.8234  0.0514 -1.1090
   12SAPS  C313 1578   4.074   2.272   3.802  0.2447  0.1250 -0.8471
   12SAPS  H13X 1579   4.160   2.334   3.833  0.1493 -0.1543 -0.0005
   12SAPS  H13Y 1580   4.112   2.181   3.750  1.1881  1.5610 -2.8045
   12SAPS  C314 1581   4.014   2.225   3.943 -0.4967  0.3183  0.5004
   12SAPS  H14X 1582   3.928   2.156   3.929 -0.8880  0.4214  2.2042
   12SAPS  H14Y 1583   3.974   2.314   3.995 -0.3517 -0.1394  1.4067
   12SAPS  C315 1584   4.113   2.142   4.026  0.0922  0.2299 -0.3353
   12SAPS  H15X 1585   4.204   2.204   4.034  0.8923 -1.0047  0.5332
   12SAPS  H15Y 1586   4.134   2.050   3.967 -0.7483 -0.3159  0.1906
   12SAPS  C316 1587   4.064   2.090   4.162 -0.3841  0.0194 -0.7902
   12SAPS  H16X 1588   4.034   1.984   4.150 -2.3468  0.6120 -1.3673
   12SAPS  H16Y 1589   3.987   2.156   4.208  0.5578  1.3500 -1.0510
   12SAPS  C317 1590   4.176   2.105   4.268  0.5749  0.2775 -0.0771
   12SAPS  H17X 1591   4.181   2.216   4.272 -1.8920  0.4462 -0.1564
   12SAPS  H17Y 1592   4.276   2.075   4.230  0.7291 -0.7677  1.0777
   12SAPS  C318 1593   4.153   2.057   4.412 -0.2617 -0.3250  0.1636
   12SAPS  H18X 1594   4.068   2.106   4.464  0.6609 -1.0146  2.4143
   12SAPS  H18Y 1595   4.248   2.084   4.462  0.1856 -1.0252 -0.2968
   12SAPS  H18Z 1596   4.145   1.946   4.409  1.4723 -0.4569 -1.8998
   13SAPS     N 1597   3.424   4.479   2.282  0.3786 -0.3977  0.6265
   13SAPS   HN1 1598   3.421   4.375   2.277  1.0329 -0.3797 -0.2736
   13SAPS   HN2 1599   3.410   4.513   2.184  1.0644 -1.5964  0.0979
   13SAPS   HN3 1600   3.523   4.498   2.308  0.9020 -0.5748 -1.0900
   13SAPS   C12 1601   3.331   4.533   2.383  0.4623  0.0066 -0.0368
   13SAPS  H12A 1602   3.388   4.608   2.435 -0.9383  0.8580  0.3364
   13SAPS   C13 1603   3.195   4.598   2.330  0.3946  0.2982 -0.0414
   13SAPS  O13A 1604   3.151   4.574   2.212  0.7564 -0.3283 -0.5761
   13SAPS  O13B 1605   3.138   4.684   2.405  0.6089  0.3168  0.4762
   13SAPS   C11 1606   3.291   4.427   2.489  0.4572  0.0489 -0.3238
   13SAPS  H11A 1607   3.241   4.342   2.439  2.4517 -1.7383  0.5933
   13SAPS  H11B 1608   3.230   4.476   2.568  1.9199  0.7976  0.3652
   13SAPS     P 1609   3.445   4.409   2.704  0.5002  0.1678  0.2419
   13SAPS   O13 1610   3.534   4.303   2.755  0.5417 -0.4318  0.0791
   13SAPS   O14 1611   3.497   4.547   2.699 -0.0419  0.3444 -0.7396
   13SAPS   O12 1612   3.389   4.357   2.559  0.3594 -0.0205 -0.1792
   13SAPS   O11 1613   3.311   4.421   2.789  0.0032  0.6864 -0.4645
   13SAPS    C1 1614   3.215   4.317   2.794 -0.4799  0.3341 -0.5868
   13SAPS    HA 1615   3.110   4.355   2.792 -0.7549 -0.1384  1.8293
   13SAPS    HB 1616   3.232   4.237   2.719  2.5175  0.0951  0.2416
   13SAPS    C2 1617   3.206   4.250   2.931 -0.0271 -0.3783 -0.4142
   13SAPS    HS 1618   3.137   4.162   2.928 -0.2554 -0.2234  0.1068
   13SAPS   O21 1619   3.155   4.341   3.038 -0.2966  0.1027  0.4110
   13SAPS   C21 1620   3.024   4.354   3.047  0.4589  0.2233  0.2291
   13SAPS   O22 1621   2.946   4.284   2.986 -0.0837  0.6054  0.3821
   13SAPS   C22 1622   2.997   4.480   3.135 -0.5141  0.5051 -0.0431
   13SAPS   H2R 1623   3.082   4.478   3.207 -2.8372 -1.1896  2.9019
   13SAPS   H2S 1624   3.006   4.565   3.065 -1.5740  1.3113  0.7662
   13SAPS    C3 1625   3.343   4.197   2.976 -0.7213  0.5979 -0.7403
   13SAPS    HX 1626   3.404   4.288   2.996 -0.3291  0.3151 -0.6192
   13SAPS    HY 1627   3.388   4.132   2.897 -2.0656 -1.8104  0.3742
   13SAPS   O31 1628   3.341   4.105   3.096  0.2159  0.8319  0.5722
   13SAPS   C31 1629   3.445   4.105   3.167 -0.3143 -0.1204  0.5140
   13SAPS   O32 1630   3.547   4.169   3.137  0.8810  0.4007 -0.3302
   13SAPS   C32 1631   3.441   3.987   3.263 -0.2063 -0.0728 -0.6968
   13SAPS   H2X 1632   3.524   3.934   3.212 -1.0470  1.0773 -3.4393
   13SAPS   H2Y 1633   3.348   3.927   3.252  0.4608 -1.6072  1.3311
   13SAPS   C23 1634   2.864   4.479   3.214  0.2132  0.8170 -0.5047
   13SAPS   H3R 1635   2.788   4.470   3.132  0.6360  0.1566 -0.8371
   13SAPS   H3S 1636   2.840   4.574   3.265 -1.2445 -0.0751  0.5659
   13SAPS   C24 1637   2.845   4.363   3.313 -0.6552 -0.5841  0.2974
   13SAPS   H4R 1638   2.866   4.274   3.250 -0.7600  0.3024 -1.0332
   13SAPS   H4S 1639   2.744   4.344   3.355 -1.6563  1.0244 -1.2323
   13SAPS   C25 1640   2.949   4.394   3.419 -0.5535 -0.8116  0.4881
   13SAPS   H5R 1641   2.953   4.501   3.445  1.5928 -0.6956 -0.1222
   13SAPS   C26 1642   3.037   4.313   3.483  0.3493  0.7447  0.0856
   13SAPS   H6R 1643   3.109   4.368   3.546 -0.0314 -2.8887  4.1186
   13SAPS   C27 1644   3.051   4.160   3.468 -0.1915  0.4654  0.9216
   13SAPS   H7R 1645   3.120   4.132   3.551 -1.0356 -0.8565  1.1977
   13SAPS   H7S 1646   3.109   4.136   3.376 -0.1927  0.2444  0.9780
   13SAPS   C28 1647   2.925   4.080   3.488 -0.0240  0.3365  0.0549
   13SAPS   H8R 1648   2.855   4.084   3.403 -0.7669  0.8125  0.6633
   13SAPS   C29 1649   2.897   3.994   3.584 -0.1236 -0.5627 -0.1877
   13SAPS   H9R 1650   2.798   3.946   3.582 -2.3231  3.4905 -0.5405
   13SAPS  C210 1651   2.981   3.969   3.711 -0.3244 -0.4823 -0.0717
   13SAPS  H10R 1652   2.963   4.051   3.784 -0.1630  0.5592 -1.1901
   13SAPS  H10S 1653   3.090   3.973   3.690 -0.3335  1.1454  0.1029
   13SAPS  C211 1654   2.947   3.831   3.758  0.6405 -0.3408 -0.6579
   13SAPS  H11R 1655   2.998   3.744   3.715  0.0490 -0.3331 -1.4041
   13SAPS  C212 1656   2.849   3.805   3.851  0.7876 -0.9104  0.2049
   13SAPS  H12R 1657   2.851   3.705   3.897  5.1685 -1.2242 -0.2550
   13SAPS  C213 1658   2.755   3.902   3.915  0.8476  0.1036 -1.0640
   13SAPS  H13R 1659   2.653   3.861   3.934  0.9868 -0.8775 -2.3412
   13SAPS  H13S 1660   2.737   3.989   3.848 -1.6591 -1.0868 -2.0794
   13SAPS  C214 1661   2.812   3.936   4.050  0.3620  0.7097  0.2148
   13SAPS  H14R 1662   2.883   4.020   4.052 -0.9947  2.0089 -2.0774
   13SAPS  C215 1663   2.778   3.878   4.170  0.5753 -0.7364 -0.1879
   13SAPS  H15R 1664   2.828   3.910   4.263  1.2484 -0.3818 -0.6609
   13SAPS  C216 1665   2.683   3.760   4.196 -0.2325 -1.2179  1.1483
   13SAPS  H16R 1666   2.741   3.674   4.236  0.2480 -0.0349  3.0863
   13SAPS  H16S 1667   2.623   3.736   4.105  1.7310  1.8635 -1.1744
   13SAPS  C217 1668   2.583   3.791   4.304  0.6909 -0.4324 -0.9251
   13SAPS  H17R 1669   2.634   3.827   4.396 -1.2777 -1.3561  0.6036
   13SAPS  H17S 1670   2.536   3.697   4.341  1.0660  0.3219  1.7265
   13SAPS  C218 1671   2.483   3.902   4.261 -0.2146 -0.5357 -0.5987
   13SAPS  H18R 1672   2.421   3.861   4.178 -2.2854  0.3214  0.4529
   13SAPS  H18S 1673   2.544   3.989   4.225  3.1623 -2.9265 -1.1425
   13SAPS  C219 1674   2.389   3.935   4.379 -0.4384 -0.0913  0.9722
   13SAPS  H19R 1675   2.369   3.844   4.440 -2.7572  0.1039  0.5973
   13SAPS  H19S 1676   2.290   3.956   4.334 -0.6028  0.4636  1.5754
   13SAPS  C220 1677   2.435   4.050   4.465 -0.2560  0.7529  0.4647
   13SAPS  H20R 1678   2.428   4.150   4.417  3.3490  0.3525 -1.2449
   13SAPS  H20S 1679   2.544   4.053   4.489 -0.5377 -1.5087  2.4660
   13SAPS  H20T 1680   2.389   4.043   4.566  0.0382 -4.3791  0.4628
   13SAPS   C33 1681   3.464   4.013   3.410  0.2607 -0.0204 -0.9428
   13SAPS   H3X 1682   3.410   4.106   3.437 -3.9388 -3.0072  2.2949
   13SAPS   H3Y 1683   3.572   4.027   3.432 -0.2553  1.0734  1.1826
   13SAPS   C34 1684   3.416   3.898   3.493 -0.8447  0.3271 -0.3377
   13SAPS   H4X 1685   3.473   3.804   3.477 -2.5157 -0.4412 -2.2588
   13SAPS   H4Y 1686   3.314   3.877   3.454 -1.8256  1.5657  1.4131
   13SAPS   C35 1687   3.414   3.929   3.645  0.2924  0.2298 -0.0248
   13SAPS   H5X 1688   3.354   4.023   3.649  1.1073  0.9041 -2.3963
   13SAPS   H5Y 1689   3.520   3.937   3.676 -0.1551  0.6108  1.5073
   13SAPS   C36 1690   3.342   3.813   3.722  0.8429  0.1140 -0.2153
   13SAPS   H6X 1691   3.407   3.723   3.716 -1.4315 -1.7508  0.9798
   13SAPS   H6Y 1692   3.240   3.802   3.680 -0.3069  1.3885  2.0467
   13SAPS   C37 1693   3.331   3.843   3.877  0.6823 -0.1414  0.1169
   13SAPS   H7X 1694   3.273   3.937   3.892 -0.0242 -0.7094  1.1088
   13SAPS   H7Y 1695   3.434   3.865   3.913  0.4784  2.2955 -0.6432
   13SAPS   C38 1696   3.268   3.727   3.957  0.9178  0.3315  0.7915
   13SAPS   H8X 1697   3.313   3.636   3.912 -0.1286 -0.3522  1.1036
   13SAPS   H8Y 1698   3.160   3.724   3.935  0.7672  1.5963  1.2584
   13SAPS   C39 1699   3.293   3.740   4.108 -0.2254 -0.5442  0.6845
   13SAPS   H9X 1700   3.232   3.821   4.152  0.2154  0.0756  0.1666
   13SAPS   H9Y 1701   3.397   3.774   4.128 -0.0829 -1.8138  2.3097
   13SAPS  C310 1702   3.255   3.619   4.189  0.3039  0.1270 -0.4670
   13SAPS  H10X 1703   3.327   3.537   4.170  1.4087  1.2711 -1.3604
   13SAPS  H10Y 1704   3.157   3.587   4.148  0.2061  0.8896 -0.8343
   13SAPS  C311 1705   3.238   3.648   4.337 -0.1488  0.4233 -0.1023
   13SAPS  H11X 1706   3.322   3.710   4.375  0.0027  1.3395 -1.8469
   13SAPS  H11Y 1707   3.237   3.558   4.402 -1.2017  0.4229 -0.1074
   13SAPS  C312 1708   3.102   3.724   4.368 -0.0261  0.1437 -0.4645
   13SAPS  H12X 1709   3.031   3.651   4.325  0.9051 -1.5332  0.7375
   13SAPS  H12Y 1710   3.095   3.824   4.319 -0.2303 -0.9845 -2.8672
   13SAPS  C313 1711   3.086   3.737   4.519 -0.8092  0.3218 -0.6075
   13SAPS  H13X 1712   3.176   3.778   4.570 -0.4968 -3.3335  2.1752
   13SAPS  H13Y 1713   3.066   3.635   4.558  0.3543 -0.7723 -2.7275
   13SAPS  C314 1714   2.978   3.828   4.565  0.1014 -0.1353 -0.2993
   13SAPS  H14X 1715   2.877   3.798   4.529  0.4458 -2.7197  0.7507
   13SAPS  H14Y 1716   2.996   3.936   4.545  2.1084 -0.2964  0.4383
   13SAPS  C315 1717   2.957   3.825   4.722 -0.1442  0.8937 -0.0870
   13SAPS  H15X 1718   2.948   3.927   4.765 -0.0574  1.1162 -0.5823
   13SAPS  H15Y 1719   3.054   3.787   4.760 -0.8766 -1.3305 -0.2906
   13SAPS  C316 1720   2.850   3.723   4.761  0.5223 -0.2633  0.3131
   13SAPS  H16X 1721   2.857   3.632   4.698 -0.6525 -1.4661  1.8642
   13SAPS  H16Y 1722   2.757   3.777   4.732  1.5801  1.2580 -0.3982
   13SAPS  C317 1723   2.856   3.679   4.909 -0.0490  0.4175  0.6268
   13SAPS  H17X 1724   2.941   3.609   4.922  1.9469  2.7473  0.7518
   13SAPS  H17Y 1725   2.769   3.614   4.934  1.1810 -2.2242 -1.3961
   13SAPS  C318 1726   2.872   3.791   5.017 -0.2549  0.1971 -0.3311
   13SAPS  H18X 1727   2.780   3.851   5.007 -0.1973  0.8244  2.2318
   13SAPS  H18Y 1728   2.965   3.850   5.005  0.0848  0.2176  1.9610
   13SAPS  H18Z 1729   2.881   3.739   5.116  1.6304  0.7137 -0.1790
   14SAPS     N 1730   3.638   4.767   2.616 -0.1578 -1.0116 -0.1637
   14SAPS   HN1 1731   3.570   4.701   2.657 -0.7888  0.0089  0.4771
   14SAPS   HN2 1732   3.717   4.720   2.567 -0.8667  0.1994 -2.6346
   14SAPS   HN3 1733   3.677   4.825   2.693  0.8580  0.6620 -1.8280
   14SAPS   C12 1734   3.580   4.853   2.513  0.7826  0.1104  0.6130
   14SAPS  H12A 1735   3.569   4.798   2.421 -1.2281  0.9301  0.3206
   14SAPS   C13 1736   3.436   4.911   2.545 -0.5139 -0.4647  0.8487
   14SAPS  O13A 1737   3.379   4.866   2.650  0.1408  0.3919  0.2997
   14SAPS  O13B 1738   3.368   4.963   2.448 -1.0543  0.2884 -0.2432
   14SAPS   C11 1739   3.666   4.979   2.488 -0.2851 -0.9331 -0.6534
   14SAPS  H11A 1740   3.610   5.049   2.422 -1.5085 -0.8923  0.3890
   14SAPS  H11B 1741   3.747   4.945   2.421 -1.0580 -1.6635 -1.2420
   14SAPS     P 1742   3.685   5.189   2.655 -0.0527 -0.0775 -0.1345
   14SAPS   O13 1743   3.605   5.263   2.559 -0.3491  0.1937 -0.3807
   14SAPS   O14 1744   3.621   5.163   2.782 -0.0869  0.4063 -0.9417
   14SAPS   O12 1745   3.732   5.049   2.593  0.5321  0.6462 -0.8018
   14SAPS   O11 1746   3.814   5.266   2.682 -0.3372 -0.1243 -0.1675
   14SAPS    C1 1747   3.934   5.213   2.741 -0.0266  0.6753  0.5591
   14SAPS    HA 1748   3.919   5.105   2.761 -0.7539  0.7676  0.5309
   14SAPS    HB 1749   4.023   5.219   2.674 -0.0795 -1.9356  0.1670
   14SAPS    C2 1750   3.974   5.295   2.874 -0.1567  0.2648 -0.2414
   14SAPS    HS 1751   4.068   5.253   2.916 -1.1466 -1.5701  0.2708
   14SAPS   O21 1752   3.866   5.284   2.974 -0.1168  0.0398  0.7115
   14SAPS   C21 1753   3.837   5.162   3.017  0.5105  0.3281 -0.3828
   14SAPS   O22 1754   3.889   5.057   2.983 -0.0304 -0.4049 -0.2206
   14SAPS   C22 1755   3.713   5.173   3.104 -0.0069 -0.1795  0.9013
   14SAPS   H2R 1756   3.721   5.274   3.151 -0.8821 -0.5366  1.8692
   14SAPS   H2S 1757   3.630   5.167   3.030 -0.9393 -0.6708  1.9474
   14SAPS    C3 1758   3.997   5.443   2.843 -0.2163  1.3078 -0.1764
   14SAPS    HX 1759   3.903   5.492   2.811  0.8511  2.1808 -2.2045
   14SAPS    HY 1760   4.072   5.445   2.760  1.2513 -1.3320  0.9782
   14SAPS   O31 1761   4.045   5.506   2.962  0.2540  0.1430  0.3940
   14SAPS   C31 1762   4.052   5.640   2.948  1.1357  0.6411  0.4729
   14SAPS   O32 1763   4.008   5.703   2.855 -0.1599 -0.1507 -0.2768
   14SAPS   C32 1764   4.104   5.695   3.079 -0.6870  0.5260  0.5413
   14SAPS   H2X 1765   4.215   5.695   3.067 -0.8850 -0.3846 -1.5855
   14SAPS   H2Y 1766   4.080   5.634   3.168 -1.9018  2.1438  1.3764
   14SAPS   C23 1767   3.698   5.057   3.207 -0.0580  0.1058 -0.1473
   14SAPS   H3R 1768   3.770   5.069   3.291 -0.6699  0.7793  0.2954
   14SAPS   H3S 1769   3.715   4.954   3.169  2.2203  0.5694 -0.5441
   14SAPS   C24 1770   3.555   5.054   3.272 -0.2270  0.1104  0.0324
   14SAPS   H4R 1771   3.488   5.077   3.186  1.5939 -2.3075 -2.1946
   14SAPS   H4S 1772   3.553   5.142   3.340  1.0301 -0.3370  0.6848
   14SAPS   C25 1773   3.507   4.927   3.335  0.1874  0.6910 -0.6382
   14SAPS   H5R 1774   3.443   4.865   3.270 -2.1200  3.0887 -0.8588
   14SAPS   C26 1775   3.532   4.885   3.457  0.4081  0.8989 -0.6942
   14SAPS   H6R 1776   3.486   4.792   3.494 -0.9089  1.3801 -1.0701
   14SAPS   C27 1777   3.591   4.965   3.569  0.4089  0.2721 -0.1008
   14SAPS   H7R 1778   3.597   5.068   3.530 -1.8351  0.7507  0.6655
   14SAPS   H7S 1779   3.689   4.931   3.610  1.2075  2.1451 -0.3732
   14SAPS   C28 1780   3.490   4.976   3.682  0.1397 -0.1624  0.2659
   14SAPS   H8R 1781   3.393   5.019   3.656  0.1341  0.2368  0.9273
   14SAPS   C29 1782   3.520   4.937   3.810  0.6653 -0.0376  0.4514
   14SAPS   H9R 1783   3.444   4.950   3.888  0.5247 -0.0603  0.3208
   14SAPS  C210 1784   3.641   4.856   3.856 -1.3218  0.1381  0.1147
   14SAPS  H10R 1785   3.671   4.886   3.959 -1.0178  0.1880  0.0124
   14SAPS  H10S 1786   3.732   4.869   3.795 -0.6044 -0.1527  1.0932
   14SAPS  C211 1787   3.600   4.710   3.857  0.2363  0.2521  0.3807
   14SAPS  H11R 1788   3.597   4.669   3.755 -1.3501 -0.3063  0.6179
   14SAPS  C212 1789   3.552   4.637   3.956 -0.5965 -0.2659  0.0474
   14SAPS  H12R 1790   3.550   4.527   3.949 -0.2017 -0.2048 -1.5690
   14SAPS  C213 1791   3.532   4.667   4.109  0.2018 -0.5108  0.6263
   14SAPS  H13R 1792   3.626   4.655   4.166  0.2984 -0.9300  0.3814
   14SAPS  H13S 1793   3.473   4.589   4.162 -1.1045  0.9623  1.4201
   14SAPS  C214 1794   3.469   4.798   4.151 -0.0430 -0.4757 -1.1763
   14SAPS  H14R 1795   3.453   4.872   4.072 -2.8172 -0.2395 -0.5272
   14SAPS  C215 1796   3.429   4.828   4.275  0.3029 -0.3367  0.7850
   14SAPS  H15R 1797   3.384   4.928   4.284  0.7265 -0.0061 -0.4908
   14SAPS  C216 1798   3.440   4.736   4.391  0.2251  0.1153  0.7968
   14SAPS  H16R 1799   3.546   4.740   4.425  0.1251 -0.1320  1.1441
   14SAPS  H16S 1800   3.416   4.633   4.356 -0.7879  1.6727 -3.8342
   14SAPS  C217 1801   3.352   4.780   4.507  0.0024  0.6242 -0.2933
   14SAPS  H17R 1802   3.255   4.825   4.474 -0.2449  0.3458  0.0450
   14SAPS  H17S 1803   3.409   4.857   4.563  1.0897 -1.1461  1.1512
   14SAPS  C218 1804   3.331   4.669   4.618  0.2399 -0.1172 -0.1652
   14SAPS  H18R 1805   3.259   4.705   4.695  1.1559  1.9259 -0.2210
   14SAPS  H18S 1806   3.426   4.631   4.661  0.3247 -0.4203 -0.6166
   14SAPS  C219 1807   3.281   4.534   4.560 -0.1654  0.0643  0.4090
   14SAPS  H19R 1808   3.353   4.473   4.501 -1.0048 -0.9996  0.4624
   14SAPS  H19S 1809   3.196   4.559   4.494  0.4375  1.9003  0.2707
   14SAPS  C220 1810   3.228   4.451   4.679 -0.6340 -0.0335  0.5105
   14SAPS  H20R 1811   3.142   4.509   4.720 -0.7907 -0.1486  0.3448
   14SAPS  H20S 1812   3.312   4.440   4.751 -0.1865  1.0346  0.1704
   14SAPS  H20T 1813   3.183   4.356   4.643 -0.2271  0.0550 -0.2645
   14SAPS   C33 1814   4.051   5.833   3.111  0.4105 -0.4892 -0.5023
   14SAPS   H3X 1815   3.950   5.850   3.068 -0.1283 -0.3522  0.7589
   14SAPS   H3Y 1816   4.110   5.902   3.047 -1.1532  2.9953  1.5144
   14SAPS   C34 1817   4.072   5.885   3.255 -0.0037  0.6183 -0.5330
   14SAPS   H4X 1818   4.031   5.988   3.263 -1.0379  0.2073 -0.4245
   14SAPS   H4Y 1819   4.178   5.883   3.287  0.9199  0.4731 -3.3443
   14SAPS   C35 1820   3.983   5.795   3.354 -0.3527 -0.4703 -0.8261
   14SAPS   H5X 1821   4.017   5.692   3.376 -1.0263 -0.4421  0.4775
   14SAPS   H5Y 1822   3.883   5.794   3.305 -0.1727  0.8898 -1.2667
   14SAPS   C36 1823   3.965   5.871   3.485 -0.3902  0.0094  0.4893
   14SAPS   H6X 1824   3.913   5.968   3.466  0.8355  0.0664 -3.2413
   14SAPS   H6Y 1825   4.061   5.885   3.539  0.3578 -0.4499 -0.6760
   14SAPS   C37 1826   3.872   5.791   3.582  0.1276  0.2015 -0.5264
   14SAPS   H7X 1827   3.916   5.690   3.595  1.3476  0.5218 -1.9517
   14SAPS   H7Y 1828   3.767   5.779   3.546 -0.6000 -1.5382  1.9003
   14SAPS   C38 1829   3.869   5.866   3.711 -0.2044 -0.0126 -0.1114
   14SAPS   H8X 1830   3.812   5.955   3.678  0.4710  0.2156 -0.6895
   14SAPS   H8Y 1831   3.970   5.898   3.745 -0.6302  0.4658  0.7405
   14SAPS   C39 1832   3.808   5.791   3.828  0.2907  0.0350  0.3871
   14SAPS   H9X 1833   3.875   5.707   3.853  1.7151  1.5398  1.8456
   14SAPS   H9Y 1834   3.706   5.750   3.811 -0.9516  2.4627  1.4639
   14SAPS  C310 1835   3.795   5.877   3.961  0.9180  0.6579  0.2434
   14SAPS  H10X 1836   3.720   5.956   3.937 -0.9823 -0.7403  1.3276
   14SAPS  H10Y 1837   3.893   5.925   3.986  1.5485  0.1435 -1.1576
   14SAPS  C311 1838   3.723   5.800   4.078 -0.1169 -0.4818  0.5386
   14SAPS  H11X 1839   3.788   5.715   4.108 -0.2570 -0.4029  1.0757
   14SAPS  H11Y 1840   3.620   5.772   4.048 -0.2248  0.6180 -0.1809
   14SAPS  C312 1841   3.723   5.890   4.207 -0.0953  0.6195  0.7704
   14SAPS  H12X 1842   3.802   5.967   4.200  0.1556  0.3303  0.3699
   14SAPS  H12Y 1843   3.760   5.828   4.292 -1.4790 -2.8588 -0.9470
   14SAPS  C313 1844   3.579   5.931   4.238  0.2983 -0.4808 -0.2778
   14SAPS  H13X 1845   3.501   5.852   4.245 -0.8429  0.6431 -0.0897
   14SAPS  H13Y 1846   3.544   5.993   4.153 -0.9209  0.1541  0.6500
   14SAPS  C314 1847   3.580   6.014   4.359  0.3692  0.9344  0.0046
   14SAPS  H14X 1848   3.604   6.122   4.342  4.4491  0.4509  1.4354
   14SAPS  H14Y 1849   3.655   5.975   4.431 -0.4453  0.9392  0.8732
   14SAPS  C315 1850   3.445   6.012   4.434 -0.9173  0.4859 -0.0156
   14SAPS  H15X 1851   3.357   5.995   4.368 -0.0305  0.3927 -1.1932
   14SAPS  H15Y 1852   3.425   6.106   4.491 -2.0316  0.9754 -1.1744
   14SAPS  C316 1853   3.439   5.885   4.524  0.0650 -0.1314 -0.1541
   14SAPS  H16X 1854   3.515   5.900   4.604 -0.2490 -0.6551  0.2532
   14SAPS  H16Y 1855   3.479   5.803   4.461  2.3278 -0.4610  1.5797
   14SAPS  C317 1856   3.298   5.852   4.582  0.0249 -0.8103  0.1056
   14SAPS  H17X 1857   3.236   5.798   4.507 -1.4035  0.5879  0.2165
   14SAPS  H17Y 1858   3.247   5.944   4.620 -0.5878 -0.5367 -1.3043
   14SAPS  C318 1859   3.315   5.746   4.696 -0.1175  0.2199 -0.4989
   14SAPS  H18X 1860   3.211   5.721   4.726 -0.3012 -0.9208 -1.9639
   14SAPS  H18Y 1861   3.382   5.789   4.774  1.3114 -1.8633 -0.5062
   14SAPS  H18Z 1862   3.373   5.663   4.650 -1.1773 -0.6351 -0.3392
   15SAPS     N 1863   3.608   4.146   2.534 -0.2506 -0.6293 -0.5136
   15SAPS   HN1 1864   3.596   4.046   2.562  3.4317 -1.6344 -1.8321
   15SAPS   HN2 1865   3.639   4.205   2.614  1.4001 -4.9419  2.4197
   15SAPS   HN3 1866   3.514   4.184   2.514 -0.5273 -0.2653  1.2747
   15SAPS   C12 1867   3.691   4.148   2.400 -0.1015 -0.2498 -0.1314
   15SAPS  H12A 1868   3.726   4.045   2.396  0.3743 -0.0701 -3.6382
   15SAPS   C13 1869   3.609   4.180   2.271  0.0529 -0.1340  0.6605
   15SAPS  O13A 1870   3.487   4.198   2.286  0.3080 -0.0950 -0.1041
   15SAPS  O13B 1871   3.658   4.175   2.151  0.1139  0.6460  0.3065
   15SAPS   C11 1872   3.810   4.246   2.411  0.2429 -0.8824  0.1962
   15SAPS  H11A 1873   3.849   4.259   2.308 -1.4126  0.3655 -0.3098
   15SAPS  H11B 1874   3.893   4.203   2.472  0.6579  1.7323  1.5956
   15SAPS     P 1875   3.797   4.509   2.406 -0.1107  0.2176 -0.2128
   15SAPS   O13 1876   3.912   4.501   2.317 -0.3956  0.7254 -0.1556
   15SAPS   O14 1877   3.667   4.557   2.349 -0.3764  0.0811  0.1391
   15SAPS   O12 1878   3.770   4.366   2.480 -0.7991  0.1594 -0.4989
   15SAPS   O11 1879   3.833   4.602   2.524 -0.0127  0.1919 -0.5330
   15SAPS    C1 1880   3.904   4.542   2.635 -0.4308  0.1232 -0.1294
   15SAPS    HA 1881   3.836   4.464   2.677  0.1600 -1.8388 -2.5619
   15SAPS    HB 1882   3.999   4.498   2.596 -0.2795  1.0659 -0.8544
   15SAPS    C2 1883   3.943   4.646   2.750 -0.2495 -0.7450 -0.2011
   15SAPS    HS 1884   4.023   4.608   2.817 -1.5855  0.3641  2.1447
   15SAPS   O21 1885   3.829   4.678   2.835 -0.0949  0.1445 -0.2770
   15SAPS   C21 1886   3.782   4.576   2.915  0.3318 -0.1407  0.1951
   15SAPS   O22 1887   3.838   4.472   2.937  0.1919  0.4434 -0.3339
   15SAPS   C22 1888   3.652   4.618   2.989  0.5257  0.6847  0.2718
   15SAPS   H2R 1889   3.678   4.711   3.044  1.1817 -0.1025  1.3151
   15SAPS   H2S 1890   3.575   4.644   2.912 -1.4522  1.1845  2.3171
   15SAPS    C3 1891   3.994   4.773   2.686  0.2365  0.8573  0.7041
   15SAPS    HX 1892   3.916   4.822   2.624 -1.2739 -0.2748  1.6465
   15SAPS    HY 1893   4.083   4.752   2.623 -0.8871  0.0619 -0.6593
   15SAPS   O31 1894   4.042   4.863   2.791 -0.3234 -0.3175  0.0890
   15SAPS   C31 1895   4.159   4.822   2.842 -0.2004  0.0177 -0.2807
   15SAPS   O32 1896   4.219   4.720   2.805  0.4748  0.2709  0.2735
   15SAPS   C32 1897   4.196   4.905   2.964 -0.9145 -0.8913 -0.3738
   15SAPS   H2X 1898   4.100   4.953   2.993 -1.4591 -0.1567 -3.0963
   15SAPS   H2Y 1899   4.280   4.970   2.932 -1.7692 -0.1806 -1.2211
   15SAPS   C23 1900   3.581   4.514   3.087  0.3904 -0.5469  0.0392
   15SAPS   H3R 1901   3.659   4.472   3.155  3.1492  1.7360 -1.4957
   15SAPS   H3S 1902   3.529   4.443   3.020 -0.0303 -0.1345 -0.0708
   15SAPS   C24 1903   3.473   4.590   3.167 -0.2490  0.6910  0.2510
   15SAPS   H4R 1904   3.410   4.654   3.102  1.0860 -0.4134 -2.2490
   15SAPS   H4S 1905   3.538   4.648   3.235  3.5373  0.0475 -2.5052
   15SAPS   C25 1906   3.378   4.499   3.228  0.5345  0.4060  0.1675
   15SAPS   H5R 1907   3.287   4.474   3.172  1.7719  2.6859 -3.1427
   15SAPS   C26 1908   3.390   4.455   3.356  0.4685  0.0496  0.7316
   15SAPS   H6R 1909   3.315   4.381   3.387 -0.4228  0.2501 -0.8370
   15SAPS   C27 1910   3.502   4.479   3.453 -0.2076 -0.3722  0.5280
   15SAPS   H7R 1911   3.454   4.557   3.515 -0.3882  0.2856 -0.4134
   15SAPS   H7S 1912   3.585   4.538   3.408  0.5069 -0.8093  1.2256
   15SAPS   C28 1913   3.555   4.356   3.530  0.1720  0.3201  0.2442
   15SAPS   H8R 1914   3.632   4.302   3.474  1.5443  0.1928  2.1523
   15SAPS   C29 1915   3.507   4.305   3.643  0.1840 -0.1657  0.0743
   15SAPS   H9R 1916   3.552   4.216   3.689  0.7606 -0.1763 -0.5085
   15SAPS  C210 1917   3.399   4.367   3.727 -0.1768  0.0422  0.3656
   15SAPS  H10R 1918   3.352   4.456   3.682  1.3999  1.0632  0.6880
   15SAPS  H10S 1919   3.450   4.409   3.816  1.4898 -0.9022 -0.1061
   15SAPS  C211 1920   3.304   4.254   3.764 -0.3769 -0.6576  0.1669
   15SAPS  H11R 1921   3.216   4.243   3.699 -1.3179  2.1446  0.8158
   15SAPS  C212 1922   3.291   4.207   3.892 -0.8249 -0.2629 -0.0690
   15SAPS  H12R 1923   3.204   4.141   3.907 -0.5026 -0.4075  1.2362
   15SAPS  C213 1924   3.370   4.225   4.020  0.7862 -0.6312  0.0341
   15SAPS  H13R 1925   3.308   4.181   4.102 -0.8561 -0.7187 -1.2105
   15SAPS  H13S 1926   3.385   4.333   4.044 -0.1635 -0.8623  1.8581
   15SAPS  C214 1927   3.502   4.162   4.016 -0.1327  0.8720  0.1671
   15SAPS  H14R 1928   3.523   4.117   3.917 -0.1270  0.4125  0.3715
   15SAPS  C215 1929   3.589   4.152   4.121  0.1000  0.1035 -0.1934
   15SAPS  H15R 1930   3.690   4.109   4.111  1.3978  2.9357 -0.2726
   15SAPS  C216 1931   3.556   4.203   4.261 -0.1257 -0.2470 -0.0005
   15SAPS  H16R 1932   3.454   4.245   4.265 -0.0508 -0.0479 -0.1590
   15SAPS  H16S 1933   3.630   4.277   4.300 -1.2116  1.3062 -0.7863
   15SAPS  C217 1934   3.564   4.092   4.371  0.5888  0.3182  0.8199
   15SAPS  H17R 1935   3.592   4.127   4.473  0.9074 -0.9170  1.1664
   15SAPS  H17S 1936   3.654   4.037   4.339 -0.4905 -0.9611 -0.1308
   15SAPS  C218 1937   3.445   3.987   4.373  0.0963 -0.0105  0.0344
   15SAPS  H18R 1938   3.480   3.904   4.439  1.4386 -1.4640 -2.3866
   15SAPS  H18S 1939   3.425   3.956   4.268  2.7512  1.7250 -1.0809
   15SAPS  C219 1940   3.312   4.047   4.432  0.5424 -0.3453  0.1982
   15SAPS  H19R 1941   3.235   3.968   4.422 -0.8384  0.7073  1.9347
   15SAPS  H19S 1942   3.288   4.136   4.370 -1.8222 -0.0463  1.4375
   15SAPS  C220 1943   3.318   4.092   4.582  0.0146  0.9214 -0.4126
   15SAPS  H20R 1944   3.404   4.162   4.589  1.4945 -0.3110 -3.8245
   15SAPS  H20S 1945   3.338   4.003   4.646  0.0184  1.6816  0.6586
   15SAPS  H20T 1946   3.227   4.143   4.619 -1.6773 -0.5607 -2.2909
   15SAPS   C33 1947   4.243   4.811   3.084  0.2879  0.0748 -0.1421
   15SAPS   H3X 1948   4.289   4.872   3.164  0.3550 -2.3463  1.8017
   15SAPS   H3Y 1949   4.323   4.744   3.046 -0.5778 -1.2124  0.2454
   15SAPS   C34 1950   4.136   4.712   3.133  0.4047  0.3884  0.4208
   15SAPS   H4X 1951   4.184   4.675   3.226 -1.8876 -1.0488  1.1010
   15SAPS   H4Y 1952   4.109   4.623   3.071 -1.2219 -0.7731  2.6808
   15SAPS   C35 1953   4.000   4.781   3.168 -0.0009  0.3463  0.1082
   15SAPS   H5X 1954   3.932   4.798   3.081 -0.4612  1.6211  0.6855
   15SAPS   H5Y 1955   4.023   4.885   3.199  1.0330  0.1511  0.0219
   15SAPS   C36 1956   3.910   4.704   3.269 -0.5658  0.1680  0.3567
   15SAPS   H6X 1957   3.880   4.606   3.224  0.8544  0.0395 -0.3521
   15SAPS   H6Y 1958   3.810   4.752   3.276 -1.4008 -1.1015 -1.7587
   15SAPS   C37 1959   3.968   4.675   3.406  0.3412  0.2474 -0.4524
   15SAPS   H7X 1960   3.963   4.767   3.468 -2.2776 -0.3383  0.3059
   15SAPS   H7Y 1961   4.069   4.631   3.394 -0.4666 -1.6382 -0.7316
   15SAPS   C38 1962   3.895   4.555   3.480  0.3716 -0.0673 -0.2562
   15SAPS   H8X 1963   3.912   4.467   3.415  1.8489 -0.7617  0.9999
   15SAPS   H8Y 1964   3.787   4.580   3.480  0.5328  0.6892 -0.9990
   15SAPS   C39 1965   3.937   4.528   3.619  0.3137 -0.4517 -0.4669
   15SAPS   H9X 1966   3.876   4.579   3.697  0.8965  0.8184 -0.8141
   15SAPS   H9Y 1967   4.043   4.564   3.618 -0.1368  0.9572 -1.6312
   15SAPS  C310 1968   3.933   4.385   3.663  0.3074  0.1916  0.2836
   15SAPS  H10X 1969   4.007   4.333   3.599 -1.5587 -0.9311 -1.0930
   15SAPS  H10Y 1970   3.834   4.342   3.634  0.5964 -0.0577 -0.3447
   15SAPS  C311 1971   3.970   4.363   3.808 -0.7419 -0.0596 -0.5165
   15SAPS  H11X 1972   4.065   4.415   3.833  0.4236 -1.9159 -0.9611
   15SAPS  H11Y 1973   3.993   4.255   3.815  1.7127  0.4282 -0.1260
   15SAPS  C312 1974   3.868   4.396   3.918 -0.1476  0.5246 -0.0366
   15SAPS  H12X 1975   3.774   4.337   3.916  0.2907 -0.3968  2.4897
   15SAPS  H12Y 1976   3.833   4.501   3.906  0.7560  0.6983 -1.3011
   15SAPS  C313 1977   3.936   4.381   4.053 -0.3506 -0.4587 -0.3274
   15SAPS  H13X 1978   3.886   4.455   4.119  1.4829  1.1117 -0.5942
   15SAPS  H13Y 1979   4.045   4.404   4.047  0.8761 -5.0834  0.5149
   15SAPS  C314 1980   3.957   4.239   4.103 -0.2087  0.1151 -0.1016
   15SAPS  H14X 1981   3.955   4.166   4.018 -0.5915 -1.8294  1.4996
   15SAPS  H14Y 1982   3.869   4.208   4.163 -0.8166  0.5663 -0.7410
   15SAPS  C315 1983   4.085   4.211   4.186 -0.4771  0.0028  0.6149
   15SAPS  H15X 1984   4.179   4.220   4.126 -0.4596  1.4018  0.8224
   15SAPS  H15Y 1985   4.087   4.101   4.203 -1.0474 -0.3424 -1.3226
   15SAPS  C316 1986   4.083   4.290   4.324  0.4018  0.2110 -1.1835
   15SAPS  H16X 1987   4.117   4.394   4.306 -0.6617  1.0418  1.2556
   15SAPS  H16Y 1988   4.165   4.240   4.380  0.7183  0.7198 -1.1788
   15SAPS  C317 1989   3.954   4.285   4.406  0.2650 -0.4729  0.7256
   15SAPS  H17X 1990   3.929   4.182   4.440  2.1172 -0.8910  0.9329
   15SAPS  H17Y 1991   3.873   4.331   4.345 -0.5269 -1.2663  1.1558
   15SAPS  C318 1992   3.962   4.380   4.532  0.0342  0.3847  0.5963
   15SAPS  H18X 1993   3.986   4.481   4.492 -2.1978 -0.1342 -2.4147
   15SAPS  H18Y 1994   4.036   4.347   4.608 -1.3791 -1.7384  1.1106
   15SAPS  H18Z 1995   3.859   4.383   4.573 -0.6875  0.7510 -1.1375
   16SAPS     N 1996   3.059   6.633   2.260  0.1434  0.4298 -0.4959
   16SAPS   HN1 1997   3.160   6.626   2.285 -0.0347  0.5408  0.2601
   16SAPS   HN2 1998   3.010   6.615   2.350 -0.0046  0.1140 -0.6379
   16SAPS   HN3 1999   3.046   6.552   2.196  0.9471  0.1295 -0.2912
   16SAPS   C12 2000   3.012   6.744   2.177  0.1513 -0.2913  0.2832
   16SAPS  H12A 2001   3.060   6.721   2.083 -0.1525 -0.7077  0.2271
   16SAPS   C13 2002   2.851   6.742   2.167  0.2110 -0.7464  0.0865
   16SAPS  O13A 2003   2.779   6.657   2.225 -0.6129  0.3399  0.0122
   16SAPS  O13B 2004   2.803   6.838   2.102 -0.1429 -0.7905 -0.1474
   16SAPS   C11 2005   3.058   6.881   2.241  0.0783  0.0506  0.1069
   16SAPS  H11A 2006   2.997   6.903   2.331 -0.5941  2.5591 -0.8689
   16SAPS  H11B 2007   3.038   6.962   2.168 -1.9103 -0.1596  0.3641
   16SAPS     P 2008   3.252   6.885   2.417 -0.1144 -0.8175  0.3188
   16SAPS   O13 2009   3.385   6.819   2.395  0.0395  0.0768 -0.2291
   16SAPS   O14 2010   3.243   7.020   2.480  0.5444 -0.6965 -0.8890
   16SAPS   O12 2011   3.195   6.884   2.270 -0.0655  0.7121  0.2766
   16SAPS   O11 2012   3.153   6.787   2.484 -0.8992  0.2537  0.2802
   16SAPS    C1 2013   3.200   6.678   2.568  0.6429  0.2917  0.4489
   16SAPS    HA 2014   3.132   6.590   2.563 -1.4402  1.7108  1.9067
   16SAPS    HB 2015   3.301   6.645   2.535  1.4455  0.8970  2.1588
   16SAPS    C2 2016   3.189   6.720   2.715 -0.1202 -0.4377 -0.3587
   16SAPS    HS 2017   3.079   6.737   2.723  0.1149  1.0774 -0.0817
   16SAPS   O21 2018   3.274   6.835   2.749  0.0769  0.2056  0.1617
   16SAPS   C21 2019   3.209   6.934   2.815 -0.0469  0.1505  0.7341
   16SAPS   O22 2020   3.096   6.933   2.855  0.2337 -0.1109 -0.4492
   16SAPS   C22 2021   3.305   7.056   2.834  0.0672 -0.0849 -0.5946
   16SAPS   H2R 2022   3.395   7.035   2.895 -0.2309  1.8890  0.5820
   16SAPS   H2S 2023   3.342   7.093   2.736  1.0215 -0.8191 -0.5328
   16SAPS    C3 2024   3.231   6.605   2.814  0.3034  0.0896  0.6500
   16SAPS    HX 2025   3.340   6.587   2.799 -0.0754 -3.3421  1.0887
   16SAPS    HY 2026   3.180   6.513   2.778  0.8667 -0.1148  0.3576
   16SAPS   O31 2027   3.203   6.631   2.950 -0.1916 -0.2569 -0.1272
   16SAPS   C31 2028   3.078   6.635   2.995  0.1255 -0.2336  0.4541
   16SAPS   O32 2029   2.978   6.602   2.936  0.2501 -0.2916 -0.1838
   16SAPS   C32 2030   3.071   6.696   3.134  0.1326  0.6323 -0.0912
   16SAPS   H2X 2031   3.148   6.776   3.140 -1.1219  2.0238 -1.8901
   16SAPS   H2Y 2032   3.102   6.618   3.207 -0.1819 -0.4020 -1.0333
   16SAPS   C23 2033   3.239   7.182   2.894  0.0314 -0.3757 -0.0497
   16SAPS   H3R 2034   3.205   7.157   2.997 -0.7135  2.2560  0.4296
   16SAPS   H3S 2035   3.156   7.237   2.845  0.8691  0.9700 -0.0039
   16SAPS   C24 2036   3.344   7.290   2.927  0.1343  0.2927  0.4189
   16SAPS   H4R 2037   3.411   7.253   3.008  0.3351  1.1695  0.6685
   16SAPS   H4S 2038   3.287   7.373   2.975 -1.3015  0.0808 -0.8427
   16SAPS   C25 2039   3.431   7.350   2.815  0.5034 -0.2314 -0.1495
   16SAPS   H5R 2040   3.379   7.384   2.725 -0.9381  1.1755  1.1592
   16SAPS   C26 2041   3.563   7.372   2.827 -0.0125  0.6951  0.6766
   16SAPS   H6R 2042   3.623   7.409   2.743  1.1401 -1.1346  0.6545
   16SAPS   C27 2043   3.651   7.334   2.938  0.0369 -0.8296  0.1092
   16SAPS   H7R 2044   3.756   7.364   2.917 -1.0393  1.0847 -3.3589
   16SAPS   H7S 2045   3.642   7.224   2.955  0.4989 -1.0890 -1.1652
   16SAPS   C28 2046   3.637   7.394   3.075 -0.4337 -0.3431 -0.0077
   16SAPS   H8R 2047   3.566   7.478   3.081  1.1798  1.0637  0.4380
   16SAPS   C29 2048   3.673   7.347   3.196  0.6780  0.4475  0.1365
   16SAPS   H9R 2049   3.663   7.415   3.282  0.8940  1.5377 -0.6715
   16SAPS  C210 2050   3.739   7.211   3.213  0.3946  0.2794  0.1459
   16SAPS  H10R 2051   3.823   7.208   3.141  0.1640 -1.0338 -0.1070
   16SAPS  H10S 2052   3.665   7.134   3.184 -0.7821  0.3489  2.6876
   16SAPS  C211 2053   3.799   7.168   3.345 -0.6228 -0.1307 -1.4065
   16SAPS  H11R 2054   3.904   7.137   3.335 -0.3399 -0.3453  1.4269
   16SAPS  C212 2055   3.744   7.163   3.462  1.0196 -0.3737  0.0425
   16SAPS  H12R 2056   3.796   7.115   3.547 -0.8364  0.7862  1.9391
   16SAPS  C213 2057   3.593   7.200   3.480 -0.3716 -0.3689 -0.3061
   16SAPS  H13R 2058   3.537   7.186   3.385  1.1536  0.3095 -1.3464
   16SAPS  H13S 2059   3.592   7.307   3.511  0.8950 -0.5409  0.3912
   16SAPS  C214 2060   3.517   7.133   3.590 -0.3563  0.1585 -0.1075
   16SAPS  H14R 2061   3.454   7.052   3.550 -0.7098  0.6580 -0.5635
   16SAPS  C215 2062   3.533   7.146   3.725  0.9213  0.3381  0.5964
   16SAPS  H15R 2063   3.471   7.087   3.794  1.3232 -0.4815  0.2668
   16SAPS  C216 2064   3.629   7.245   3.798  0.1567 -0.1038  0.9244
   16SAPS  H16R 2065   3.716   7.263   3.732 -0.1560  1.6316  0.9337
   16SAPS  H16S 2066   3.678   7.196   3.885 -0.3665 -1.7682  0.3132
   16SAPS  C217 2067   3.572   7.375   3.851  0.0992 -0.0432  0.3734
   16SAPS  H17R 2068   3.492   7.344   3.922  1.2059 -2.5029  0.6637
   16SAPS  H17S 2069   3.535   7.437   3.766 -0.0292  0.4924  0.8202
   16SAPS  C218 2070   3.678   7.448   3.942  0.7851 -0.4918 -0.0608
   16SAPS  H18R 2071   3.689   7.555   3.913  3.7583 -0.0244  2.2282
   16SAPS  H18S 2072   3.776   7.397   3.929  1.0066 -0.0049 -0.3353
   16SAPS  C219 2073   3.635   7.442   4.091 -0.8662  0.0447 -0.1012
   16SAPS  H19R 2074   3.624   7.335   4.118 -0.2479 -0.5176 -1.9029
   16SAPS  H19S 2075   3.532   7.484   4.096 -1.4621 -1.3395 -0.1352
   16SAPS  C220 2076   3.732   7.517   4.185 -0.5655 -0.1116  0.1489
   16SAPS  H20R 2077   3.823   7.452   4.181 -1.5183 -1.5219  0.5806
   16SAPS  H20S 2078   3.696   7.526   4.289  1.9930 -0.9539  1.1814
   16SAPS  H20T 2079   3.744   7.617   4.138  0.1451 -0.4039 -0.3170
   16SAPS   C33 2080   2.934   6.761   3.166 -0.1236  0.4253  0.0613
   16SAPS   H3X 2081   2.857   6.681   3.168  0.0475  0.1812 -1.4973
   16SAPS   H3Y 2082   2.903   6.839   3.093  0.3361  0.5653  0.0121
   16SAPS   C34 2083   2.935   6.820   3.315 -0.1571 -0.0541  0.5703
   16SAPS   H4X 2084   2.854   6.893   3.334 -0.4755 -0.0075 -0.8732
   16SAPS   H4Y 2085   3.022   6.887   3.332 -0.2929  0.6891 -1.4417
   16SAPS   C35 2086   2.916   6.714   3.431 -0.0915 -0.7207 -0.2115
   16SAPS   H5X 2087   3.011   6.670   3.467 -1.2841 -2.3656  1.1156
   16SAPS   H5Y 2088   2.850   6.631   3.397  0.3145 -1.7793  1.4729
   16SAPS   C36 2089   2.850   6.779   3.551 -0.3192  0.0923 -0.6264
   16SAPS   H6X 2090   2.755   6.829   3.524 -1.4332 -0.8096  1.3709
   16SAPS   H6Y 2091   2.911   6.869   3.576  0.5059 -0.7818  0.6442
   16SAPS   C37 2092   2.827   6.685   3.669 -0.1538 -0.6271  0.2853
   16SAPS   H7X 2093   2.923   6.654   3.715  0.7795  2.6635  0.8428
   16SAPS   H7Y 2094   2.769   6.597   3.634 -0.8689 -0.2975  0.6347
   16SAPS   C38 2095   2.751   6.753   3.782  0.1911 -0.3689  0.9556
   16SAPS   H8X 2096   2.655   6.787   3.739  1.1082  0.9968 -0.0842
   16SAPS   H8Y 2097   2.799   6.852   3.798 -0.7492 -0.1409  2.5502
   16SAPS   C39 2098   2.735   6.666   3.910 -0.0694 -0.1916  0.2976
   16SAPS   H9X 2099   2.834   6.646   3.956 -0.8256 -1.1240  1.5537
   16SAPS   H9Y 2100   2.688   6.568   3.887  1.7013 -1.5327  2.1153
   16SAPS  C310 2101   2.645   6.743   4.008  0.1152 -0.1213 -0.3652
   16SAPS  H10X 2102   2.539   6.747   3.975 -0.0311 -1.7740 -0.1899
   16SAPS  H10Y 2103   2.685   6.846   4.024  0.1760 -0.4632  1.9862
   16SAPS  C311 2104   2.640   6.689   4.156  0.1831 -0.1144 -0.2223
   16SAPS  H11X 2105   2.581   6.754   4.224  1.8905  0.8225  0.4099
   16SAPS  H11Y 2106   2.741   6.693   4.201 -0.5853  1.7922  1.5127
   16SAPS  C312 2107   2.592   6.543   4.158 -0.2748 -0.1961  0.1371
   16SAPS  H12X 2108   2.650   6.483   4.084  0.4837  1.2078 -0.4541
   16SAPS  H12Y 2109   2.491   6.548   4.113 -0.6520  1.2395  1.0821
   16SAPS  C313 2110   2.577   6.480   4.297 -0.3636 -0.1531 -0.1722
   16SAPS  H13X 2111   2.515   6.388   4.287 -2.6348  1.2861 -0.0929
   16SAPS  H13Y 2112   2.511   6.547   4.356 -1.0541 -0.2618 -0.8180
   16SAPS  C314 2113   2.709   6.438   4.373 -0.2427  0.1711 -0.2879
   16SAPS  H14X 2114   2.673   6.444   4.478 -0.4137  1.2647 -0.4040
   16SAPS  H14Y 2115   2.782   6.519   4.353 -1.8768  1.6286 -0.5826
   16SAPS  C315 2116   2.755   6.295   4.359  0.4645 -0.2530  0.0181
   16SAPS  H15X 2117   2.791   6.276   4.256  3.1217  0.9017  0.6478
   16SAPS  H15Y 2118   2.671   6.227   4.384  0.7367 -0.4704  0.3454
   16SAPS  C316 2119   2.860   6.256   4.460  0.0288  0.2469  0.1483
   16SAPS  H16X 2120   2.834   6.272   4.567  0.3332 -2.2344  0.6727
   16SAPS  H16Y 2121   2.946   6.324   4.441  0.9377 -1.3660 -2.0588
   16SAPS  C317 2122   2.915   6.113   4.436 -0.1485 -0.2099 -1.1944
   16SAPS  H17X 2123   2.829   6.047   4.411 -1.5579  0.9523  0.3790
   16SAPS  H17Y 2124   2.945   6.065   4.532  0.3403  0.2970 -1.0879
   16SAPS  C318 2125   3.031   6.095   4.345 -0.3866  0.0967  0.9705
   16SAPS  H18X 2126   2.999   6.116   4.241  2.1013  1.7141  0.4348
   16SAPS  H18Y 2127   3.079   5.998   4.368 -0.5784 -1.0736 -2.9133
   16SAPS  H18Z 2128   3.114   6.169   4.354  0.5152 -0.4179 -2.0151
   17SAPS     N 2129   0.117   4.537   2.825  0.3019 -0.1883 -0.0891
   17SAPS   HN1 2130   0.114   4.586   2.917  0.2329  0.0355 -0.2082
   17SAPS   HN2 2131   0.125   4.437   2.850  0.3567 -0.0872  0.3174
   17SAPS   HN3 2132   0.195   4.573   2.767 -0.3496 -1.3216 -1.7420
   17SAPS   C12 2133  -0.001   4.549   2.739 -0.1187 -0.4782 -0.8277
   17SAPS  H12A 2134  -0.006   4.651   2.705  0.3468 -0.8812 -2.1654
   17SAPS   C13 2135   0.002   4.452   2.624  0.3526  0.0342  0.0317
   17SAPS  O13A 2136   0.105   4.386   2.606 -0.0190  0.2575 -0.2051
   17SAPS  O13B 2137  -0.091   4.455   2.538  0.4760  0.1425  0.4617
   17SAPS   C11 2138  -0.127   4.527   2.834  0.2544 -0.6934  0.3976
   17SAPS  H11A 2139  -0.117   4.424   2.877  2.0544  0.2037  2.3025
   17SAPS  H11B 2140  -0.218   4.523   2.770  0.6173 -0.7907 -0.1188
   17SAPS     P 2141  -0.235   4.747   2.945 -0.2114 -0.2578  0.0806
   17SAPS   O13 2142  -0.165   4.876   2.977  0.4425  0.0506 -0.4067
   17SAPS   O14 2143  -0.311   4.754   2.819 -0.4207  0.0374  0.2525
   17SAPS   O12 2144  -0.140   4.625   2.939 -0.4621 -0.0794 -0.0179
   17SAPS   O11 2145  -0.333   4.700   3.065  0.4131 -0.6814 -0.3460
   17SAPS    C1 2146  -0.426   4.793   3.114  0.3611 -0.0993  0.1148
   17SAPS    HA 2147  -0.403   4.901   3.096  0.9419 -0.2971 -0.3932
   17SAPS    HB 2148  -0.518   4.764   3.059  1.6459 -2.8769 -0.7233
   17SAPS    C2 2149  -0.460   4.774   3.267  0.0564  0.0660 -0.2312
   17SAPS    HS 2150  -0.490   4.871   3.312 -1.7222 -0.9887  1.0200
   17SAPS   O21 2151  -0.356   4.718   3.341 -0.2868  0.1715 -0.0035
   17SAPS   C21 2152  -0.242   4.790   3.330 -0.3792  0.5337  0.3187
   17SAPS   O22 2153  -0.236   4.902   3.290 -1.3323  0.6884  0.6370
   17SAPS   C22 2154  -0.123   4.695   3.366 -0.5055 -0.2103 -0.2524
   17SAPS   H2R 2155  -0.036   4.747   3.322 -1.5119  2.6502  0.8683
   17SAPS   H2S 2156  -0.112   4.688   3.477 -0.3747  1.8836 -0.1047
   17SAPS    C3 2157  -0.570   4.675   3.295  0.1966 -0.5083 -0.2962
   17SAPS    HX 2158  -0.567   4.652   3.404 -2.2035  1.1623  0.1942
   17SAPS    HY 2159  -0.548   4.578   3.244 -1.0805 -0.9922  0.0238
   17SAPS   O31 2160  -0.697   4.727   3.244 -0.2514  0.4642  0.0206
   17SAPS   C31 2161  -0.780   4.776   3.336  0.1760  0.3143 -0.1889
   17SAPS   O32 2162  -0.775   4.748   3.455 -0.2341  0.0525 -0.0952
   17SAPS   C32 2163  -0.871   4.878   3.265 -0.1263  0.1332  0.8412
   17SAPS   H2X 2164  -0.844   4.870   3.158 -3.4505  2.7136 -0.3679
   17SAPS   H2Y 2165  -0.851   4.983   3.297 -0.1570  0.6824 -0.8391
   17SAPS   C23 2166  -0.125   4.548   3.311 -0.0319 -0.6369  0.4928
   17SAPS   H3R 2167  -0.143   4.547   3.201 -0.1416 -0.2671  0.5083
   17SAPS   H3S 2168  -0.213   4.497   3.355 -0.9823  0.5501  0.0055
   17SAPS   C24 2169   0.001   4.467   3.346  0.6703  0.2264  0.5330
   17SAPS   H4R 2170   0.006   4.479   3.456  1.0902  1.0348  0.4395
   17SAPS   H4S 2171   0.087   4.522   3.302 -0.4692  2.2863  0.7359
   17SAPS   C25 2172   0.010   4.316   3.306 -0.0682 -0.6022 -0.5812
   17SAPS   H5R 2173   0.086   4.290   3.230 -0.2922  0.6240 -1.2406
   17SAPS   C26 2174  -0.053   4.214   3.356  0.4391  0.5217  0.1455
   17SAPS   H6R 2175  -0.024   4.113   3.325  0.0811  0.8187 -1.2256
   17SAPS   C27 2176  -0.166   4.216   3.453 -0.3220 -0.3833 -0.8515
   17SAPS   H7R 2177  -0.213   4.117   3.471  1.2962 -1.4165 -2.0958
   17SAPS   H7S 2178  -0.242   4.274   3.396 -1.1861 -1.0078 -0.3631
   17SAPS   C28 2179  -0.147   4.274   3.594 -0.3061  0.1851 -0.0491
   17SAPS   H8R 2180  -0.041   4.274   3.624 -0.0075 -0.9240 -1.0161
   17SAPS   C29 2181  -0.243   4.329   3.673  0.3900  0.0938  0.0048
   17SAPS   H9R 2182  -0.219   4.364   3.774  1.7531  0.1172 -0.3118
   17SAPS  C210 2183  -0.381   4.362   3.630  0.1602  0.2965 -0.7331
   17SAPS  H10R 2184  -0.453   4.285   3.666  0.1528  0.5141 -0.2759
   17SAPS  H10S 2185  -0.395   4.358   3.520  1.7461 -0.7424 -0.9305
   17SAPS  C211 2186  -0.434   4.491   3.685 -1.2034  0.0889 -0.1149
   17SAPS  H11R 2187  -0.427   4.578   3.618  0.1439  3.2709  3.7522
   17SAPS  C212 2188  -0.481   4.514   3.811  0.3939  0.5141 -0.4846
   17SAPS  H12R 2189  -0.527   4.611   3.836  0.2222  0.4841 -0.6798
   17SAPS  C213 2190  -0.492   4.412   3.926 -0.3720  0.6862  0.0412
   17SAPS  H13R 2191  -0.484   4.469   4.021 -0.5164  2.5811 -1.0281
   17SAPS  H13S 2192  -0.403   4.346   3.918 -0.3724  0.8612 -2.2113
   17SAPS  C214 2193  -0.623   4.333   3.933 -0.3478 -0.5417  0.0767
   17SAPS  H14R 2194  -0.606   4.244   3.871  1.8407 -0.5111  0.5421
   17SAPS  C215 2195  -0.738   4.343   4.006 -0.8359 -0.4415  0.7836
   17SAPS  H15R 2196  -0.812   4.269   3.972  1.1347 -1.6813 -1.0808
   17SAPS  C216 2197  -0.770   4.437   4.116 -0.0395  0.6140 -0.4164
   17SAPS  H16R 2198  -0.865   4.494   4.112 -0.9853 -0.6489  1.8520
   17SAPS  H16S 2199  -0.688   4.511   4.125 -1.0772  1.6162  1.3584
   17SAPS  C217 2200  -0.779   4.354   4.242  0.4526 -0.5221  0.2319
   17SAPS  H17R 2201  -0.680   4.306   4.259 -0.2350 -2.1459 -0.2272
   17SAPS  H17S 2202  -0.868   4.289   4.240 -1.1020  1.5231 -0.0663
   17SAPS  C218 2203  -0.815   4.443   4.372 -0.6569 -0.7155 -0.1209
   17SAPS  H18R 2204  -0.911   4.499   4.366  0.4117  1.5147  1.8180
   17SAPS  H18S 2205  -0.731   4.516   4.382  0.8984 -2.4533 -0.0248
   17SAPS  C219 2206  -0.834   4.345   4.492  0.1692  0.3605  0.3475
   17SAPS  H19R 2207  -0.739   4.289   4.505  0.9004  1.4112 -0.2903
   17SAPS  H19S 2208  -0.916   4.273   4.475 -1.1140  1.9017 -0.1984
   17SAPS  C220 2209  -0.878   4.432   4.611 -0.2797 -0.0157  0.4785
   17SAPS  H20R 2210  -0.809   4.519   4.617  0.5623 -0.7129  1.0888
   17SAPS  H20S 2211  -0.852   4.390   4.711  1.9680 -0.3193 -0.1838
   17SAPS  H20T 2212  -0.983   4.467   4.607  0.0374  1.0341  0.9522
   17SAPS   C33 2213  -1.020   4.847   3.303 -0.4771 -0.5352 -0.0577
   17SAPS   H3X 2214  -1.030   4.875   3.410  1.5792  0.8442 -0.1798
   17SAPS   H3Y 2215  -1.042   4.739   3.288 -0.2493 -0.2858 -2.6043
   17SAPS   C34 2216  -1.120   4.926   3.217  0.0312  0.7847 -0.3473
   17SAPS   H4X 2217  -1.095   4.886   3.116  1.7499  0.3573  0.2247
   17SAPS   H4Y 2218  -1.097   5.035   3.210 -0.4626  0.9332  0.2191
   17SAPS   C35 2219  -1.270   4.900   3.246  0.5353  0.1043  0.4803
   17SAPS   H5X 2220  -1.289   4.790   3.246 -0.7803  0.3201  0.4390
   17SAPS   H5Y 2221  -1.337   4.946   3.171 -0.0811 -1.7512 -0.1794
   17SAPS   C36 2222  -1.311   4.956   3.385  0.0740  0.1888 -0.0439
   17SAPS   H6X 2223  -1.279   5.061   3.399  0.5107  0.2569 -1.3711
   17SAPS   H6Y 2224  -1.272   4.890   3.466 -0.0002  0.0850 -0.0924
   17SAPS   C37 2225  -1.467   4.946   3.395  0.5277  0.2686 -0.2451
   17SAPS   H7X 2226  -1.516   4.849   3.370 -2.4395  2.2246 -2.6551
   17SAPS   H7Y 2227  -1.502   5.025   3.326 -3.1533 -1.0672 -0.1581
   17SAPS   C38 2228  -1.531   4.990   3.529  0.7763  0.0208  0.4724
   17SAPS   H8X 2229  -1.636   5.014   3.502 -0.3108 -2.4636  2.0730
   17SAPS   H8Y 2230  -1.478   5.083   3.557 -0.8460  1.2163 -0.2765
   17SAPS   C39 2231  -1.542   4.885   3.641  0.0503 -1.1250  0.2452
   17SAPS   H9X 2232  -1.441   4.839   3.638  0.3065 -0.5386 -1.9356
   17SAPS   H9Y 2233  -1.614   4.805   3.613 -0.9212  0.7026 -2.9946
   17SAPS  C310 2234  -1.557   4.949   3.784  0.1319  0.0721  0.0399
   17SAPS  H10X 2235  -1.660   4.988   3.796  0.1480 -0.1396  0.9567
   17SAPS  H10Y 2236  -1.477   5.023   3.805 -0.5743  0.9824 -0.4045
   17SAPS  C311 2237  -1.553   4.841   3.891  0.5677 -0.0926 -0.2032
   17SAPS  H11X 2238  -1.447   4.811   3.904  1.1299  2.1774  0.8009
   17SAPS  H11Y 2239  -1.624   4.758   3.868  1.0266 -0.3994 -0.5212
   17SAPS  C312 2240  -1.600   4.893   4.035 -1.0127 -0.1958 -0.1438
   17SAPS  H12X 2241  -1.685   4.963   4.036 -0.0825  0.9788 -0.6762
   17SAPS  H12Y 2242  -1.513   4.945   4.081 -1.5023  0.6228 -0.1386
   17SAPS  C313 2243  -1.631   4.776   4.125 -0.2296 -0.0501  0.1869
   17SAPS  H13X 2244  -1.548   4.708   4.156 -1.5201 -1.5668  0.4178
   17SAPS  H13Y 2245  -1.690   4.699   4.072  0.6842 -0.5836 -0.0884
   17SAPS  C314 2246  -1.713   4.817   4.244 -0.6056 -0.7519 -1.0877
   17SAPS  H14X 2247  -1.744   4.726   4.298  0.0662  0.3370  1.2830
   17SAPS  H14Y 2248  -1.813   4.856   4.217 -0.7127  0.1957  0.5224
   17SAPS  C315 2249  -1.642   4.917   4.346  0.7187 -0.2230  0.3600
   17SAPS  H15X 2250  -1.691   4.906   4.445  0.3485 -1.3792  0.0704
   17SAPS  H15Y 2251  -1.646   5.021   4.309  0.4813 -0.6252 -0.7842
   17SAPS  C316 2252  -1.501   4.872   4.375 -0.8752  0.0593 -0.9482
   17SAPS  H16X 2253  -1.436   4.878   4.285 -0.1541  0.2557 -0.4268
   17SAPS  H16Y 2254  -1.502   4.765   4.405 -1.1203  0.6242  1.2214
   17SAPS  C317 2255  -1.432   4.956   4.485 -0.2084 -0.4070  0.2466
   17SAPS  H17X 2256  -1.496   4.953   4.576 -1.2123  0.3940 -0.4202
   17SAPS  H17Y 2257  -1.445   5.059   4.445 -1.4939  0.8096  3.3923
   17SAPS  C318 2258  -1.289   4.934   4.507  0.1470  0.0560  0.2719
   17SAPS  H18X 2259  -1.267   4.828   4.530  2.6518  0.6927  1.2258
   17SAPS  H18Y 2260  -1.263   5.000   4.593 -2.3631  2.1428 -0.4243
   17SAPS  H18Z 2261  -1.221   4.964   4.424  1.5812  0.0590  1.3995
   18SAPS     N 2262   5.352   1.048   2.540  0.0680 -0.3510  0.0606
   18SAPS   HN1 2263   5.302   0.958   2.523 -0.8770 -0.4206  2.7208
   18SAPS   HN2 2264   5.319   1.097   2.626  0.2381  2.2342 -1.2356
   18SAPS   HN3 2265   5.334   1.117   2.465  1.9388 -0.8350 -0.8821
   18SAPS   C12 2266   5.500   1.027   2.539  0.2079  0.2083  0.0674
   18SAPS  H12A 2267   5.515   0.928   2.581 -2.4518 -0.4162 -0.2469
   18SAPS   C13 2268   5.571   1.024   2.398 -1.0327  0.0608  0.5550
   18SAPS  O13A 2269   5.505   1.025   2.292  0.6648  0.1493 -0.1720
   18SAPS  O13B 2270   5.691   0.987   2.398 -0.2942 -0.9549  0.1456
   18SAPS   C11 2271   5.565   1.130   2.634  0.0944  0.8113 -0.4892
   18SAPS  H11A 2272   5.675   1.114   2.634 -0.0103 -0.0007  0.0834
   18SAPS  H11B 2273   5.536   1.103   2.738  0.2492 -1.0688 -0.8913
   18SAPS     P 2274   5.628   1.371   2.567 -0.0972  0.4062  0.2102
   18SAPS   O13 2275   5.721   1.314   2.469  0.5108  0.6447  0.6674
   18SAPS   O14 2276   5.568   1.497   2.524  0.1475  0.0618  0.7548
   18SAPS   O12 2277   5.528   1.265   2.612  0.1717  0.0813  0.1013
   18SAPS   O11 2278   5.706   1.394   2.696  0.1559  0.3502 -0.4540
   18SAPS    C1 2279   5.664   1.482   2.801  0.2906  0.6307  0.2839
   18SAPS    HA 2280   5.757   1.540   2.819  1.3361 -0.0655 -2.4281
   18SAPS    HB 2281   5.576   1.542   2.769 -0.6031 -0.4900  0.5744
   18SAPS    C2 2282   5.640   1.408   2.932  0.2200 -0.2577 -0.7289
   18SAPS    HS 2283   5.540   1.360   2.925  0.4726 -0.7431 -1.1110
   18SAPS   O21 2284   5.640   1.503   3.039  0.6442  0.2160 -0.2848
   18SAPS   C21 2285   5.553   1.608   3.030 -0.4181  0.4632 -0.1660
   18SAPS   O22 2286   5.462   1.619   2.951  0.2909 -0.3689  0.0567
   18SAPS   C22 2287   5.591   1.707   3.142  0.4013 -0.1797  0.6213
   18SAPS   H2R 2288   5.540   1.669   3.233 -2.6552  0.5555 -0.6740
   18SAPS   H2S 2289   5.702   1.710   3.154  0.3209 -0.0389  1.4249
   18SAPS    C3 2290   5.739   1.289   2.960 -0.5280  0.2086 -0.0004
   18SAPS    HX 2291   5.840   1.329   2.937 -0.3181 -0.2730  0.0722
   18SAPS    HY 2292   5.719   1.207   2.888  1.2163  0.9513 -1.4085
   18SAPS   O31 2293   5.742   1.249   3.099 -0.6766  0.6925  0.1364
   18SAPS   C31 2294   5.638   1.168   3.130  0.0933 -0.1200  0.2201
   18SAPS   O32 2295   5.542   1.146   3.061 -0.5103 -0.2511 -0.2806
   18SAPS   C32 2296   5.668   1.099   3.266 -0.0710  0.0409  0.3930
   18SAPS   H2X 2297   5.767   1.049   3.261  0.7792  1.5550  1.2582
   18SAPS   H2Y 2298   5.587   1.025   3.284 -1.4892  1.7003  1.2493
   18SAPS   C23 2299   5.542   1.846   3.114 -0.8136 -0.0220 -0.0359
   18SAPS   H3R 2300   5.433   1.845   3.093 -0.5296 -1.9668 -1.6632
   18SAPS   H3S 2301   5.586   1.884   3.019  0.8441 -1.4093  0.1301
   18SAPS   C24 2302   5.558   1.944   3.235 -0.2831 -0.2988 -0.2687
   18SAPS   H4R 2303   5.479   1.925   3.310  0.4839  0.9261  0.9015
   18SAPS   H4S 2304   5.539   2.047   3.197 -0.5675 -0.4772 -0.6025
   18SAPS   C25 2305   5.685   1.961   3.307 -0.4018  0.5642  0.2014
   18SAPS   H5R 2306   5.768   2.009   3.252  0.7410 -0.5894  0.8589
   18SAPS   C26 2307   5.718   1.915   3.427 -0.3563  0.2641  0.1995
   18SAPS   H6R 2308   5.818   1.947   3.458 -0.4872 -0.3418  1.3103
   18SAPS   C27 2309   5.634   1.857   3.541  0.7141 -0.1405  0.1163
   18SAPS   H7R 2310   5.524   1.856   3.527  0.6237  2.2544  0.1449
   18SAPS   H7S 2311   5.659   1.933   3.618  0.3651  1.1126 -0.9756
   18SAPS   C28 2312   5.668   1.717   3.583  0.4054 -0.3087  0.1503
   18SAPS   H8R 2313   5.670   1.644   3.501  0.0362 -1.8494  1.4673
   18SAPS   C29 2314   5.697   1.676   3.707 -0.5442  0.0669  0.1320
   18SAPS   H9R 2315   5.734   1.574   3.721 -2.1021 -0.6341 -0.6127
   18SAPS  C210 2316   5.707   1.767   3.834  0.4168  0.3373 -1.3279
   18SAPS  H10R 2317   5.689   1.874   3.811  0.6200  0.5132 -0.6905
   18SAPS  H10S 2318   5.811   1.758   3.872 -0.6942  0.8156  2.1754
   18SAPS  C211 2319   5.614   1.715   3.948  0.2145  0.4247  0.9057
   18SAPS  H11R 2320   5.515   1.760   3.935  0.0598 -0.4937 -1.6531
   18SAPS  C212 2321   5.652   1.623   4.047 -0.1071  0.0388  0.1258
   18SAPS  H12R 2322   5.573   1.608   4.122 -0.5350  2.4345  0.2462
   18SAPS  C213 2323   5.790   1.558   4.057  0.1907 -0.0428  0.1012
   18SAPS  H13R 2324   5.852   1.623   4.123  0.9905  0.5625 -1.2039
   18SAPS  H13S 2325   5.844   1.559   3.960 -0.0757 -2.0990 -0.1169
   18SAPS  C214 2326   5.774   1.417   4.111  0.8496 -0.1388  0.0192
   18SAPS  H14R 2327   5.750   1.343   4.034  2.8769  0.5681 -1.3628
   18SAPS  C215 2328   5.793   1.377   4.234  0.5893 -0.5221 -0.3640
   18SAPS  H15R 2329   5.801   1.269   4.256 -1.3599 -0.2722  2.0149
   18SAPS  C216 2330   5.834   1.466   4.350 -0.0503 -0.1089 -0.1817
   18SAPS  H16R 2331   5.865   1.569   4.322 -0.7094  0.3242  0.6668
   18SAPS  H16S 2332   5.912   1.421   4.416 -2.5282 -1.6392  1.8697
   18SAPS  C217 2333   5.714   1.495   4.443 -0.2503 -0.3099 -0.1099
   18SAPS  H17R 2334   5.636   1.533   4.375 -0.8777 -1.1275  0.1349
   18SAPS  H17S 2335   5.747   1.564   4.523 -0.8011 -1.3281  1.0307
   18SAPS  C218 2336   5.647   1.366   4.498 -0.0239  0.3988  0.2643
   18SAPS  H18R 2337   5.730   1.320   4.556  1.5292  1.4936 -1.0070
   18SAPS  H18S 2338   5.615   1.295   4.419  1.2586  0.0922 -0.0131
   18SAPS  C219 2339   5.529   1.400   4.601 -0.4595  0.0078  0.0908
   18SAPS  H19R 2340   5.435   1.420   4.546 -1.0240 -0.9727  0.6582
   18SAPS  H19S 2341   5.555   1.496   4.651 -0.2769 -0.1910  0.3846
   18SAPS  C220 2342   5.505   1.303   4.708  0.0778  0.1082 -0.4922
   18SAPS  H20R 2343   5.599   1.279   4.762  0.0590  1.3885  0.1630
   18SAPS  H20S 2344   5.472   1.202   4.677  2.0600 -0.9687  0.7169
   18SAPS  H20T 2345   5.415   1.337   4.765 -1.3923 -2.4190 -1.1713
   18SAPS   C33 2346   5.679   1.201   3.377 -0.2744  0.0238  0.7633
   18SAPS   H3X 2347   5.588   1.264   3.388 -1.1210 -0.5323 -2.1758
   18SAPS   H3Y 2348   5.769   1.264   3.359 -0.7077  0.3608 -0.3340
   18SAPS   C34 2349   5.710   1.129   3.509 -0.3425  0.5651  0.1926
   18SAPS   H4X 2350   5.790   1.054   3.490 -1.1643  0.4337 -3.7242
   18SAPS   H4Y 2351   5.616   1.077   3.540 -0.7358  1.1551  0.0167
   18SAPS   C35 2352   5.769   1.209   3.627  0.1123 -0.2466 -0.0998
   18SAPS   H5X 2353   5.710   1.300   3.649  0.9298  0.6665 -1.4814
   18SAPS   H5Y 2354   5.861   1.257   3.588  0.4783 -1.3461 -0.6510
   18SAPS   C36 2355   5.798   1.120   3.751  0.7249  0.1480  0.3518
   18SAPS   H6X 2356   5.886   1.163   3.804  1.1144 -0.6226  0.3392
   18SAPS   H6Y 2357   5.842   1.024   3.716  0.3855 -0.1256  0.6631
   18SAPS   C37 2358   5.688   1.099   3.849 -0.0736  0.0819  1.2717
   18SAPS   H7X 2359   5.599   1.053   3.801  1.6538 -0.6966 -1.3943
   18SAPS   H7Y 2360   5.654   1.199   3.885  1.2549  1.1410 -0.2687
   18SAPS   C38 2361   5.730   1.004   3.957 -0.4599 -0.1729  0.7490
   18SAPS   H8X 2362   5.835   1.028   3.983 -0.1686  1.3582 -1.5254
   18SAPS   H8Y 2363   5.726   0.896   3.932 -1.3457 -0.8026  3.3098
   18SAPS   C39 2364   5.646   1.009   4.080 -0.0572 -0.7333 -0.2217
   18SAPS   H9X 2365   5.540   0.978   4.063 -0.7595  0.8627  0.9080
   18SAPS   H9Y 2366   5.648   1.118   4.103 -0.5743 -0.5881 -0.8385
   18SAPS  C310 2367   5.710   0.925   4.194  0.5448  0.0231  0.0332
   18SAPS  H10X 2368   5.812   0.962   4.217  1.1275 -2.8992  2.7934
   18SAPS  H10Y 2369   5.725   0.818   4.169  2.5037  0.5802 -1.3811
   18SAPS  C311 2370   5.622   0.951   4.326 -0.4266 -0.1731  0.5450
   18SAPS  H11X 2371   5.522   0.904   4.309 -1.1621  1.0530  1.3468
   18SAPS  H11Y 2372   5.608   1.061   4.330  1.9038  0.1892  0.1189
   18SAPS  C312 2373   5.677   0.885   4.446  0.0520  0.5423 -0.2200
   18SAPS  H12X 2374   5.697   0.778   4.425  1.3530  0.6433  0.3822
   18SAPS  H12Y 2375   5.597   0.889   4.524  0.0762  2.7923 -0.2333
   18SAPS  C313 2376   5.813   0.940   4.488  0.7793 -0.5734 -0.6937
   18SAPS  H13X 2377   5.835   1.035   4.435 -0.0352  0.0570  0.0566
   18SAPS  H13Y 2378   5.885   0.860   4.460  0.4041 -0.7359 -1.1937
   18SAPS  C314 2379   5.821   0.987   4.638  0.2166 -0.4307  0.4780
   18SAPS  H14X 2380   5.757   1.078   4.641  0.1018 -0.5142  0.5617
   18SAPS  H14Y 2381   5.925   1.021   4.660  0.1087 -0.1356  0.5375
   18SAPS  C315 2382   5.792   0.873   4.745 -0.2502 -0.5304 -0.2248
   18SAPS  H15X 2383   5.863   0.795   4.712  0.6799 -0.3164  1.1669
   18SAPS  H15Y 2384   5.694   0.821   4.738  0.6735 -2.1584 -1.8625
   18SAPS  C316 2385   5.817   0.923   4.887  0.1563 -0.7835  0.4326
   18SAPS  H16X 2386   5.926   0.933   4.906 -0.1788 -0.7436  2.6308
   18SAPS  H16Y 2387   5.774   0.854   4.964  0.0083  0.6700  1.7042
   18SAPS  C317 2388   5.756   1.057   4.919 -0.0061  0.1381  0.4819
   18SAPS  H17X 2389   5.649   1.028   4.922  0.6840 -2.5300  2.0779
   18SAPS  H17Y 2390   5.755   1.123   4.830 -0.7045 -2.7459 -1.7981
   18SAPS  C318 2391   5.812   1.108   5.048  0.1977 -0.1866 -0.1506
   18SAPS  H18X 2392   5.759   1.192   5.097  2.3548  1.2849 -0.1770
   18SAPS  H18Y 2393   5.918   1.140   5.040 -0.1776  1.1596  0.0476
   18SAPS  H18Z 2394   5.828   1.016   5.108 -0.6361 -1.5487 -1.8981
   19SAPS     N 2395   5.073   0.661   2.757  0.3584  0.4226  0.3463
   19SAPS   HN1 2396   4.992   0.639   2.817 -1.4097 -0.4675 -2.1679
   19SAPS   HN2 2397   5.120   0.572   2.730  2.7611  1.7732 -0.2554
   19SAPS   HN3 2398   5.145   0.714   2.810  0.5188  1.1606 -0.5729
   19SAPS   C12 2399   5.048   0.738   2.628  0.3830  0.7393  0.1365
   19SAPS  H12A 2400   5.000   0.831   2.655  1.6835  1.7529 -0.9375
   19SAPS   C13 2401   5.174   0.765   2.546 -0.3417 -0.2696  0.0216
   19SAPS  O13A 2402   5.286   0.756   2.607 -0.6667  0.1942  0.1608
   19SAPS  O13B 2403   5.165   0.857   2.457  0.2368  0.5735 -0.4327
   19SAPS   C11 2404   4.937   0.655   2.538 -0.3778 -0.0798 -0.1316
   19SAPS  H11A 2405   4.951   0.691   2.433  3.1590 -1.8250 -0.4183
   19SAPS  H11B 2406   4.834   0.676   2.573 -0.6545 -1.8348  0.2179
   19SAPS     P 2407   4.879   0.399   2.466 -0.5246  0.1919  0.2133
   19SAPS   O13 2408   4.762   0.458   2.396 -0.0678  0.3513  0.5614
   19SAPS   O14 2409   4.962   0.303   2.394  0.1169 -0.0143 -0.6550
   19SAPS   O12 2410   4.966   0.511   2.538  0.2394  0.0226 -0.1977
   19SAPS   O11 2411   4.815   0.320   2.583 -0.3072 -0.4499  0.2923
   19SAPS    C1 2412   4.767   0.392   2.700  0.0110 -0.3664 -0.5626
   19SAPS    HA 2413   4.857   0.431   2.752  1.1903 -2.8914 -0.5693
   19SAPS    HB 2414   4.716   0.485   2.668  2.3206  1.3171  0.3487
   19SAPS    C2 2415   4.690   0.304   2.804 -0.1241  0.5005  0.7752
   19SAPS    HS 2416   4.652   0.378   2.878 -0.4755  2.7707 -1.5075
   19SAPS   O21 2417   4.773   0.194   2.855 -1.1772 -0.8307 -0.6176
   19SAPS   C21 2418   4.858   0.241   2.943  0.6464 -0.4862  0.0544
   19SAPS   O22 2419   4.871   0.356   2.983 -0.1479 -0.1427 -0.1448
   19SAPS   C22 2420   4.924   0.122   3.006  0.1353  0.0855 -0.9945
   19SAPS   H2R 2421   4.854   0.035   3.007 -1.5985  1.3426  2.0469
   19SAPS   H2S 2422   5.015   0.094   2.950  2.4154  1.9073  1.5501
   19SAPS    C3 2423   4.557   0.250   2.732 -0.3607 -0.2480  1.1289
   19SAPS    HX 2424   4.592   0.177   2.656 -0.0671  0.2230  0.8006
   19SAPS    HY 2425   4.510   0.335   2.677  0.0859 -0.4879  0.3595
   19SAPS   O31 2426   4.467   0.194   2.826 -0.2316  0.4061  0.2891
   19SAPS   C31 2427   4.445   0.061   2.830 -0.0355  0.0805  0.2174
   19SAPS   O32 2428   4.481  -0.013   2.742 -0.2159 -0.0221  0.0437
   19SAPS   C32 2429   4.363   0.019   2.942  0.4162 -0.0905 -0.0320
   19SAPS   H2X 2430   4.276  -0.043   2.911 -0.8728  1.2631  0.7575
   19SAPS   H2Y 2431   4.313   0.109   2.984 -2.2251 -1.6570  0.4144
   19SAPS   C23 2432   4.979   0.161   3.145  0.0780 -0.6695 -0.3240
   19SAPS   H3R 2433   4.899   0.164   3.222 -1.3430 -0.5266 -1.7398
   19SAPS   H3S 2434   5.044   0.251   3.153 -0.6738 -0.2762  1.9611
   19SAPS   C24 2435   5.087   0.053   3.186 -0.3417  0.6926 -0.0535
   19SAPS   H4R 2436   5.129   0.089   3.282  0.0181  1.3001 -0.4254
   19SAPS   H4S 2437   5.174   0.061   3.116 -0.3013 -0.9034 -0.2106
   19SAPS   C25 2438   5.053  -0.093   3.181  0.4019  0.4016 -0.6082
   19SAPS   H5R 2439   5.060  -0.154   3.089  0.4587  0.8228 -0.8870
   19SAPS   C26 2440   4.996  -0.147   3.287  0.4657  0.4342  0.8540
   19SAPS   H6R 2441   4.969  -0.253   3.276  1.2426  0.3247 -0.1326
   19SAPS   C27 2442   4.968  -0.095   3.426 -0.1343 -0.1991 -0.3467
   19SAPS   H7R 2443   4.899  -0.169   3.474  2.6609 -2.6772  0.1904
   19SAPS   H7S 2444   4.917   0.002   3.409 -0.0054  0.0430  0.5579
   19SAPS   C28 2445   5.090  -0.088   3.509 -0.2369  0.2821 -0.7176
   19SAPS   H8R 2446   5.188  -0.110   3.463 -0.6313  1.8081 -2.4025
   19SAPS   C29 2447   5.087  -0.072   3.644 -0.2168 -0.0710  0.0042
   19SAPS   H9R 2448   5.187  -0.075   3.690  0.5319 -0.1028 -1.5670
   19SAPS  C210 2449   4.966  -0.046   3.732 -0.1370 -0.2489 -0.0543
   19SAPS  H10R 2450   4.927  -0.143   3.768  1.3268 -0.2428  1.7326
   19SAPS  H10S 2451   4.895   0.000   3.660  0.1489 -3.4119 -2.5740
   19SAPS  C211 2452   4.994   0.057   3.833  0.6799 -0.1132 -0.3559
   19SAPS  H11R 2453   5.021   0.156   3.794  1.7710 -0.1054  0.3732
   19SAPS  C212 2454   4.993   0.049   3.968 -0.1422 -0.8046 -0.7012
   19SAPS  H12R 2455   4.991   0.143   4.024  0.7350 -0.3301 -1.4355
   19SAPS  C213 2456   4.981  -0.088   4.037 -0.8576 -0.3308  0.2032
   19SAPS  H13R 2457   4.994  -0.170   3.963  0.7974  2.3025 -2.6331
   19SAPS  H13S 2458   4.881  -0.106   4.083 -0.5412 -1.5105  0.4548
   19SAPS  C214 2459   5.095  -0.101   4.139  0.6568 -0.4507  0.3346
   19SAPS  H14R 2460   5.198  -0.083   4.105 -0.6459  0.8213 -3.4551
   19SAPS  C215 2461   5.088  -0.126   4.270 -0.1497 -1.0055 -0.2725
   19SAPS  H15R 2462   5.177  -0.126   4.335 -2.2536  0.9429  2.8760
   19SAPS  C216 2463   4.960  -0.154   4.343 -0.2554  0.5633  0.0320
   19SAPS  H16R 2464   4.874  -0.145   4.274  0.3309 -2.3443 -1.2058
   19SAPS  H16S 2465   4.945  -0.091   4.434 -1.0215 -1.5828  1.4625
   19SAPS  C217 2466   4.961  -0.303   4.395  0.7362 -0.0365  0.6330
   19SAPS  H17R 2467   4.976  -0.381   4.318 -0.3365 -0.1801  0.5593
   19SAPS  H17S 2468   4.858  -0.316   4.435  0.2932 -0.1297 -0.5018
   19SAPS  C218 2469   5.068  -0.325   4.500  0.4334  0.0459  0.5535
   19SAPS  H18R 2470   5.065  -0.250   4.581  2.4805 -0.7921  1.4947
   19SAPS  H18S 2471   5.166  -0.321   4.446  0.9723 -0.6600  1.4426
   19SAPS  C219 2472   5.054  -0.460   4.582 -0.6573  0.3130  0.9540
   19SAPS  H19R 2473   5.144  -0.456   4.647  0.8147  0.9090 -1.0368
   19SAPS  H19S 2474   5.057  -0.551   4.519 -0.2760  0.6922  0.4245
   19SAPS  C220 2475   4.924  -0.467   4.667  0.0547 -0.0873  0.0063
   19SAPS  H20R 2476   4.839  -0.456   4.596 -2.4003 -0.9801  2.6343
   19SAPS  H20S 2477   4.922  -0.376   4.730  3.7004  1.1444 -1.3768
   19SAPS  H20T 2478   4.916  -0.562   4.724  0.1203  0.4601  0.9511
   19SAPS   C33 2479   4.437  -0.056   3.052  0.0456  0.5261  0.8955
   19SAPS   H3X 2480   4.481  -0.154   3.022  0.4555  0.9883 -0.0499
   19SAPS   H3Y 2481   4.364  -0.086   3.130 -1.4459 -1.8353 -1.2522
   19SAPS   C34 2482   4.543   0.043   3.110 -0.8782 -0.0206 -0.0373
   19SAPS   H4X 2483   4.508   0.146   3.132  3.4602  1.9531 -1.2702
   19SAPS   H4Y 2484   4.627   0.065   3.041  0.5530 -0.3554  1.5510
   19SAPS   C35 2485   4.605  -0.005   3.240  0.2402  0.6355  0.6439
   19SAPS   H5X 2486   4.701   0.049   3.252  0.5859  1.2395 -3.3311
   19SAPS   H5Y 2487   4.633  -0.111   3.217 -1.8400  0.6782 -2.8129
   19SAPS   C36 2488   4.519  -0.024   3.372  0.4158  0.2546 -0.0191
   19SAPS   H6X 2489   4.421  -0.055   3.333  0.3421 -0.3176  0.6054
   19SAPS   H6Y 2490   4.513   0.082   3.405 -0.8411 -0.4054  2.0868
   19SAPS   C37 2491   4.572  -0.118   3.475 -0.0516  0.2887 -0.2250
   19SAPS   H7X 2492   4.657  -0.072   3.531 -1.4647  2.0684  0.5577
   19SAPS   H7Y 2493   4.598  -0.209   3.416 -1.7461  0.1947 -0.8907
   19SAPS   C38 2494   4.464  -0.165   3.580  0.3036  0.0639  0.0701
   19SAPS   H8X 2495   4.490  -0.254   3.640  0.0410  1.1148  1.8124
   19SAPS   H8Y 2496   4.384  -0.189   3.507  1.1225 -1.9556 -0.2101
   19SAPS   C39 2497   4.418  -0.055   3.679 -0.1696  0.6408 -0.9904
   19SAPS   H9X 2498   4.324  -0.097   3.722  0.0337  1.1538 -0.0303
   19SAPS   H9Y 2499   4.382   0.040   3.634 -1.9305 -0.2241 -1.5335
   19SAPS  C310 2500   4.524  -0.032   3.785 -0.2307 -1.1995  0.0839
   19SAPS  H10X 2501   4.609   0.025   3.740  0.3648  1.0279  3.6436
   19SAPS  H10Y 2502   4.558  -0.132   3.817  1.4457 -0.3849  0.9805
   19SAPS  C311 2503   4.472   0.030   3.920 -1.1183 -0.1965  0.2143
   19SAPS  H11X 2504   4.403  -0.048   3.958  0.4691 -0.8716  1.8572
   19SAPS  H11Y 2505   4.404   0.118   3.918 -0.3324  0.4782  1.8479
   19SAPS  C312 2506   4.579   0.044   4.025 -0.4454  0.3430 -0.8016
   19SAPS  H12X 2507   4.648   0.131   4.019  0.8131 -0.5354  0.3443
   19SAPS  H12Y 2508   4.645  -0.046   4.021 -2.0349 -1.3111  3.5098
   19SAPS  C313 2509   4.521   0.039   4.169  0.2173  0.0397  0.0683
   19SAPS  H13X 2510   4.447  -0.042   4.186 -3.0150  2.9039  0.6394
   19SAPS  H13Y 2511   4.457   0.128   4.189 -0.0440 -0.1991  0.2989
   19SAPS  C314 2512   4.639   0.028   4.265  0.0119  0.4189  0.0078
   19SAPS  H14X 2513   4.717   0.098   4.227 -1.1903  1.7217 -0.1721
   19SAPS  H14Y 2514   4.689  -0.071   4.260  1.6438  1.1762  0.6437
   19SAPS  C315 2515   4.597   0.059   4.412 -0.1423 -0.2007  0.7272
   19SAPS  H15X 2516   4.547   0.158   4.407  0.0614 -0.1404 -0.3869
   19SAPS  H15Y 2517   4.686   0.070   4.477 -0.7429  1.6488  1.2966
   19SAPS  C316 2518   4.514  -0.053   4.451  0.7392  0.0887  0.4188
   19SAPS  H16X 2519   4.550  -0.152   4.416 -0.8272  0.0947 -1.3946
   19SAPS  H16Y 2520   4.418  -0.036   4.397  0.2060 -0.6582  1.1120
   19SAPS  C317 2521   4.468  -0.065   4.600 -0.3262 -0.2254  0.0154
   19SAPS  H17X 2522   4.547  -0.115   4.660  0.9303  0.4157 -1.0473
   19SAPS  H17Y 2523   4.380  -0.132   4.611 -1.2725  1.2926  2.5605
   19SAPS  C318 2524   4.440   0.067   4.673 -0.2719  0.1248 -0.6477
   19SAPS  H18X 2525   4.345   0.116   4.640  1.5727  2.5712 -2.7180
   19SAPS  H18Y 2526   4.515   0.145   4.649 -0.5665  0.3323 -0.9135
   19SAPS  H18Z 2527   4.417   0.049   4.780 -0.1558  0.2606 -0.6003
   20SAPS     N 2528   0.560   1.468   2.509 -0.0818  0.0173 -0.4789
   20SAPS   HN1 2529   0.459   1.446   2.516 -0.6083  1.0166 -3.4497
   20SAPS   HN2 2530   0.598   1.424   2.423 -2.3983  0.1732 -1.6458
   20SAPS   HN3 2531   0.609   1.419   2.586 -0.0438  0.8680  0.0545
   20SAPS   C12 2532   0.570   1.613   2.527  0.1479 -0.4084  0.3645
   20SAPS  H12A 2533   0.677   1.630   2.527 -0.0261  0.7414  0.0299
   20SAPS   C13 2534   0.513   1.704   2.415 -0.2974  0.4030  0.0795
   20SAPS  O13A 2535   0.465   1.643   2.314 -0.5294 -0.0140  0.3005
   20SAPS  O13B 2536   0.530   1.825   2.417 -0.9291  0.3484  0.2825
   20SAPS   C11 2537   0.513   1.665   2.659  0.3926 -0.5040  0.0014
   20SAPS  H11A 2538   0.549   1.769   2.673 -0.3707 -0.2710  0.3260
   20SAPS  H11B 2539   0.537   1.612   2.754 -0.3425  0.3314  0.6825
   20SAPS     P 2540   0.282   1.718   2.767 -0.3982  0.0828  0.0598
   20SAPS   O13 2541   0.325   1.856   2.788  0.0403  0.5175 -0.1228
   20SAPS   O14 2542   0.143   1.700   2.713 -0.4269  0.2022 -0.0828
   20SAPS   O12 2543   0.370   1.659   2.650  0.2250  0.6659 -0.2967
   20SAPS   O11 2544   0.312   1.622   2.886  0.0797  0.4714 -0.1329
   20SAPS    C1 2545   0.250   1.491   2.895  0.2733 -0.3537  0.1754
   20SAPS    HA 2546   0.140   1.487   2.878  0.2229 -0.2775  0.4798
   20SAPS    HB 2547   0.294   1.432   2.812  0.3096 -0.9317  0.6001
   20SAPS    C2 2548   0.262   1.439   3.039 -0.2271 -0.3842 -0.1224
   20SAPS    HS 2549   0.179   1.367   3.050 -1.0035  0.6416  0.8860
   20SAPS   O21 2550   0.255   1.544   3.137 -0.3971 -0.4355 -0.5491
   20SAPS   C21 2551   0.135   1.592   3.162  1.2146  0.4564 -0.3000
   20SAPS   O22 2552   0.031   1.552   3.113 -0.4986  0.6649 -0.3943
   20SAPS   C22 2553   0.141   1.701   3.265 -0.2001  0.9357 -0.2866
   20SAPS   H2R 2554   0.245   1.739   3.266 -0.3100  1.2530 -0.8836
   20SAPS   H2S 2555   0.076   1.785   3.232  1.2342  0.6891 -4.2617
   20SAPS    C3 2556   0.390   1.353   3.054  0.5798  0.3406 -0.3607
   20SAPS    HX 2557   0.473   1.425   3.035  1.3941 -0.4690  0.0749
   20SAPS    HY 2558   0.406   1.279   2.973  0.1639  2.0997 -2.1268
   20SAPS   O31 2559   0.387   1.292   3.183  0.4889 -0.7434  0.7634
   20SAPS   C31 2560   0.467   1.341   3.273  0.3507 -0.7053 -0.2271
   20SAPS   O32 2561   0.575   1.395   3.246  0.9246  0.3561 -0.0749
   20SAPS   C32 2562   0.412   1.339   3.410  0.3269 -0.4895 -0.2409
   20SAPS   H2X 2563   0.379   1.237   3.440  0.0146 -0.3131  0.0284
   20SAPS   H2Y 2564   0.316   1.396   3.411  0.7899  0.3065 -0.3945
   20SAPS   C23 2565   0.096   1.638   3.403 -0.1002 -0.6986  0.3928
   20SAPS   H3R 2566   0.151   1.542   3.420  0.6110  0.0718  2.7854
   20SAPS   H3S 2567  -0.012   1.615   3.392 -0.7245  2.5506 -1.7218
   20SAPS   C24 2568   0.126   1.732   3.522 -0.8103 -0.3633  0.5514
   20SAPS   H4R 2569   0.096   1.684   3.618 -1.1022  0.9265  1.1308
   20SAPS   H4S 2570   0.068   1.825   3.512  0.6216  0.4617 -0.4887
   20SAPS   C25 2571   0.271   1.771   3.532  0.2483  0.0644 -0.5180
   20SAPS   H5R 2572   0.320   1.812   3.443  0.7360 -2.8217 -1.6757
   20SAPS   C26 2573   0.345   1.724   3.635 -0.8494  0.3877  0.2336
   20SAPS   H6R 2574   0.450   1.756   3.627 -0.5022 -0.8461 -0.5388
   20SAPS   C27 2575   0.301   1.638   3.758 -0.0773 -0.0230  0.0258
   20SAPS   H7R 2576   0.386   1.570   3.782 -1.3122 -1.1130  1.4602
   20SAPS   H7S 2577   0.228   1.561   3.727  0.1674 -1.3541  2.5429
   20SAPS   C28 2578   0.261   1.728   3.868 -0.5642  0.0870 -0.2862
   20SAPS   H8R 2579   0.329   1.813   3.882 -0.1183 -0.2880 -0.1564
   20SAPS   C29 2580   0.188   1.685   3.974  0.5922 -0.3197  0.1274
   20SAPS   H9R 2581   0.165   1.750   4.060 -1.3231 -0.6594 -0.0700
   20SAPS  C210 2582   0.119   1.548   3.982  0.1105 -0.5301 -0.0649
   20SAPS  H10R 2583   0.199   1.472   3.976  0.0678 -0.6854  1.0258
   20SAPS  H10S 2584   0.051   1.524   3.898  0.8821  0.5904 -1.0420
   20SAPS  C211 2585   0.052   1.542   4.120  0.0592  0.2729 -0.0449
   20SAPS  H11R 2586  -0.053   1.572   4.130 -0.1450 -0.6933  0.8251
   20SAPS  C212 2587   0.111   1.507   4.233  0.5939 -0.2071  0.2718
   20SAPS  H12R 2588   0.044   1.500   4.320  1.1367  1.3411  0.8491
   20SAPS  C213 2589   0.256   1.487   4.254  0.3022 -0.2643 -0.9394
   20SAPS  H13R 2590   0.293   1.425   4.169 -0.7840 -0.5501 -1.2106
   20SAPS  H13S 2591   0.258   1.417   4.340 -3.5830 -0.0843 -0.5565
   20SAPS  C214 2592   0.354   1.605   4.277 -0.3632  0.1041 -0.0860
   20SAPS  H14R 2593   0.319   1.702   4.240 -1.3891 -0.3393 -0.3158
   20SAPS  C215 2594   0.470   1.602   4.347  0.2222 -0.0666  0.1792
   20SAPS  H15R 2595   0.535   1.690   4.336 -0.2015  0.2050 -0.2442
   20SAPS  C216 2596   0.520   1.484   4.420 -0.3781  0.0124 -0.8173
   20SAPS  H16R 2597   0.597   1.429   4.360  1.4620 -0.2669  1.6444
   20SAPS  H16S 2598   0.439   1.411   4.435 -0.1529 -0.1728 -0.4985
   20SAPS  C217 2599   0.575   1.520   4.561 -0.0337  0.1244  0.4439
   20SAPS  H17R 2600   0.510   1.591   4.617  0.6315  1.2891 -0.2189
   20SAPS  H17S 2601   0.674   1.568   4.545  0.4221 -1.3695 -1.6173
   20SAPS  C218 2602   0.577   1.406   4.652  0.3184  0.4135 -0.3116
   20SAPS  H18R 2603   0.660   1.338   4.627 -2.4218 -2.6872 -1.6411
   20SAPS  H18S 2604   0.481   1.350   4.643  0.1644  0.4191  1.0271
   20SAPS  C219 2605   0.609   1.443   4.791 -0.3462  0.1390 -0.1521
   20SAPS  H19R 2606   0.535   1.508   4.843 -0.1858 -1.5830  2.4321
   20SAPS  H19S 2607   0.708   1.492   4.804  0.9667 -2.1924 -0.8778
   20SAPS  C220 2608   0.621   1.313   4.885  0.0868 -0.8961 -0.0439
   20SAPS  H20R 2609   0.528   1.255   4.902 -0.9073  1.1714  2.1435
   20SAPS  H20S 2610   0.667   1.328   4.985 -0.9843 -2.4930  0.7336
   20SAPS  H20T 2611   0.697   1.238   4.854  1.7342  0.4288  0.6495
   20SAPS   C33 2612   0.511   1.379   3.513  0.2149 -0.3466 -0.8877
   20SAPS   H3X 2613   0.543   1.485   3.511  1.4901 -0.7172 -1.6004
   20SAPS   H3Y 2614   0.603   1.319   3.495 -0.7434 -1.5466 -1.9851
   20SAPS   C34 2615   0.460   1.340   3.654 -0.5369 -0.4296 -0.0409
   20SAPS   H4X 2616   0.442   1.231   3.658 -0.9802 -0.3493  0.2434
   20SAPS   H4Y 2617   0.372   1.399   3.687  0.5001  1.7986 -1.0450
   20SAPS   C35 2618   0.563   1.361   3.767 -0.3517  0.0804 -0.0902
   20SAPS   H5X 2619   0.577   1.471   3.771 -2.3081  0.3521  0.3228
   20SAPS   H5Y 2620   0.657   1.306   3.747 -0.9254 -0.5268 -1.2032
   20SAPS   C36 2621   0.503   1.328   3.903  0.3683  0.1614  0.0902
   20SAPS   H6X 2622   0.423   1.404   3.922 -0.3447 -0.5117 -0.1911
   20SAPS   H6Y 2623   0.581   1.354   3.978  0.1210  0.0982  0.3726
   20SAPS   C37 2624   0.454   1.187   3.915  0.0985  0.4736 -0.0118
   20SAPS   H7X 2625   0.536   1.121   3.879  2.0135  1.5847  2.0534
   20SAPS   H7Y 2626   0.370   1.164   3.845 -0.1847 -1.3945  0.8642
   20SAPS   C38 2627   0.427   1.136   4.058  0.4130  0.0210 -0.3254
   20SAPS   H8X 2628   0.397   1.030   4.045 -0.3282 -0.1978  2.4951
   20SAPS   H8Y 2629   0.342   1.193   4.102  0.9549 -0.1085  0.9147
   20SAPS   C39 2630   0.550   1.144   4.148 -0.1554  0.0144 -0.9889
   20SAPS   H9X 2631   0.562   1.246   4.189  0.0779 -1.3367  2.6805
   20SAPS   H9Y 2632   0.639   1.107   4.093  1.6362  0.3387  1.5677
   20SAPS  C310 2633   0.533   1.056   4.274  0.4218  0.1121 -0.5406
   20SAPS  H10X 2634   0.625   1.064   4.335 -0.5704  1.9471  0.7887
   20SAPS  H10Y 2635   0.526   0.948   4.249 -1.0590  0.2671 -0.9013
   20SAPS  C311 2636   0.402   1.082   4.370 -0.2878 -0.7071 -0.6721
   20SAPS  H11X 2637   0.321   1.047   4.303  0.1005 -2.5000 -0.2475
   20SAPS  H11Y 2638   0.394   1.192   4.382  2.5558 -0.4930  0.0077
   20SAPS  C312 2639   0.401   0.996   4.498  0.1234 -0.4681 -0.1662
   20SAPS  H12X 2640   0.499   0.999   4.551 -0.3009 -1.3461  0.7081
   20SAPS  H12Y 2641   0.375   0.892   4.470  0.9252  0.1223 -3.4418
   20SAPS  C313 2642   0.312   1.048   4.609  0.5069 -0.3012 -0.4459
   20SAPS  H13X 2643   0.224   1.076   4.548  1.3668  1.8855 -0.7537
   20SAPS  H13Y 2644   0.351   1.144   4.647 -0.6143 -1.0530  2.8786
   20SAPS  C314 2645   0.278   0.953   4.727 -0.1622 -0.0933 -0.1986
   20SAPS  H14X 2646   0.253   0.856   4.678  1.4537 -0.2372 -0.8064
   20SAPS  H14Y 2647   0.188   0.996   4.775 -0.2301 -0.8495  0.3597
   20SAPS  C315 2648   0.396   0.945   4.821 -0.4162  0.3572  0.2401
   20SAPS  H15X 2649   0.423   1.051   4.842 -0.1472  0.0233  1.7611
   20SAPS  H15Y 2650   0.473   0.890   4.763 -0.2130  2.8852 -2.0570
   20SAPS  C316 2651   0.364   0.871   4.956 -0.5182 -0.2973 -0.0859
   20SAPS  H16X 2652   0.345   0.764   4.932  0.2731 -0.5178  0.2466
   20SAPS  H16Y 2653   0.271   0.898   5.010 -0.2350 -1.2124  0.8929
   20SAPS  C317 2654   0.482   0.876   5.053  0.4299  0.4000  0.5610
   20SAPS  H17X 2655   0.565   0.825   4.998  0.7162 -0.5421  1.8332
   20SAPS  H17Y 2656   0.463   0.805   5.136 -0.0111 -0.5772 -0.3533
   20SAPS  C318 2657   0.526   1.012   5.105  0.4648  0.2787  0.1922
   20SAPS  H18X 2658   0.583   1.002   5.200 -1.4868  3.2900  1.8620
   20SAPS  H18Y 2659   0.437   1.073   5.132 -0.2199 -1.6711  2.6537
   20SAPS  H18Z 2660   0.590   1.056   5.024  1.4531  0.1351  0.8766
   21CHL1    C3 2661   4.337   5.341   6.218  0.3134  0.3675  0.0614
   21CHL1    H3 2662   4.438   5.299   6.197 -0.2192 -0.0684 -1.8365
   21CHL1    O3 2663   4.333   5.407   6.344  0.4263 -0.1347  0.1807
   21CHL1   H3' 2664   4.319   5.334   6.405  1.0349 -1.5128 -1.2594
   21CHL1    C4 2665   4.302   5.449   6.113 -0.2849  0.1364 -0.0259
   21CHL1   H4A 2666   4.205   5.494   6.140 -1.8371 -2.1470 -1.4902
   21CHL1   H4B 2667   4.388   5.520   6.118 -0.2020 -0.0061  0.9322
   21CHL1    C5 2668   4.272   5.379   5.983 -0.1917  0.2600  0.8352
   21CHL1    C6 2669   4.340   5.422   5.875 -0.6699 -0.6924 -0.3282
   21CHL1    H6 2670   4.419   5.495   5.894 -0.7841 -1.4518  3.8762
   21CHL1    C7 2671   4.317   5.368   5.735 -0.6322  0.5422  0.1168
   21CHL1   H7A 2672   4.321   5.452   5.663  0.8174 -1.9552 -2.9625
   21CHL1   H7B 2673   4.401   5.301   5.706 -0.6281  0.5790  0.0441
   21CHL1    C8 2674   4.182   5.289   5.721  0.1498 -0.5052  0.2837
   21CHL1    H8 2675   4.098   5.362   5.721 -0.1963 -0.8962 -0.1334
   21CHL1   C14 2676   4.186   5.218   5.591  0.1887  0.9716  0.1350
   21CHL1   H14 2677   4.272   5.148   5.592 -1.6094 -1.4507 -1.6636
   21CHL1   C15 2678   4.226   5.291   5.462  0.1024 -0.8044  0.0501
   21CHL1  H15A 2679   4.185   5.394   5.456  2.4485  0.1104 -1.5653
   21CHL1  H15B 2680   4.336   5.303   5.465 -0.1021  1.1272  1.7533
   21CHL1   C16 2681   4.168   5.194   5.359  0.2621  0.0999  0.8158
   21CHL1  H16A 2682   4.091   5.249   5.300 -0.8747 -0.5573  1.6411
   21CHL1  H16B 2683   4.245   5.152   5.291  0.7356 -2.8478  2.9997
   21CHL1   C17 2684   4.100   5.074   5.431  0.6725  0.3559 -0.0062
   21CHL1   H17 2685   4.185   5.004   5.444 -0.0144 -0.4334  0.3130
   21CHL1   C13 2686   4.068   5.132   5.563  0.3589 -0.4710  0.2910
   21CHL1   C18 2687   3.935   5.218   5.552  0.5740 -0.5623  0.1881
   21CHL1  H18A 2688   3.849   5.154   5.524 -0.9393 -0.4505  3.9958
   21CHL1  H18B 2689   3.917   5.261   5.653  0.2582  2.5136 -1.0617
   21CHL1  H18C 2690   3.945   5.300   5.477 -1.0033 -0.2011  0.3381
   21CHL1   C12 2691   4.051   5.034   5.679  0.6512  0.0335 -0.9374
   21CHL1  H12A 2692   3.951   4.987   5.661  0.0263  0.3924  1.3043
   21CHL1  H12B 2693   4.125   4.951   5.679 -1.7778 -2.2964 -0.5680
   21CHL1   C11 2694   4.042   5.102   5.821  0.1905  0.2409  0.2456
   21CHL1  H11A 2695   3.943   5.152   5.829 -0.6117 -1.4033  1.0328
   21CHL1  H11B 2696   4.044   5.026   5.901 -0.6616 -2.8446 -2.4549
   21CHL1    C9 2697   4.171   5.192   5.837  0.0985 -0.3426 -0.9473
   21CHL1    H9 2698   4.263   5.130   5.831 -0.1272 -0.8621  0.5360
   21CHL1   C10 2699   4.173   5.266   5.979  0.6682  0.3424 -0.2961
   21CHL1   C19 2700   4.017   5.308   6.006  0.2542 -0.2142  0.2054
   21CHL1  H19A 2701   4.015   5.371   6.098  0.7161 -0.5036  0.4189
   21CHL1  H19B 2702   3.985   5.374   5.923  0.9944  2.4588  1.9185
   21CHL1  H19C 2703   3.952   5.219   6.016  0.4798 -0.3356  0.6226
   21CHL1    C1 2704   4.223   5.161   6.083 -0.0501  0.0592  0.4680
   21CHL1   H1A 2705   4.139   5.087   6.090  0.2223 -0.5407 -1.8292
   21CHL1   H1B 2706   4.317   5.108   6.057  0.1404  0.2905  0.6890
   21CHL1    C2 2707   4.240   5.221   6.224  0.6026  1.2323  0.0385
   21CHL1   H2A 2708   4.290   5.150   6.293  0.0898  1.6502  0.8460
   21CHL1   H2B 2709   4.142   5.251   6.267  0.2876 -2.2107  2.1230
   21CHL1   C20 2710   3.996   4.991   5.351  0.6414  0.7643  0.0690
   21CHL1   H20 2711   3.891   5.024   5.363  0.2392 -0.3282 -0.2628
   21CHL1   C21 2712   4.007   4.840   5.404  0.3223 -0.2262  0.1198
   21CHL1  H21A 2713   3.945   4.773   5.341 -0.9530  0.7377  0.3061
   21CHL1  H21B 2714   3.961   4.834   5.505 -1.1975 -0.8197 -0.5809
   21CHL1  H21C 2715   4.112   4.803   5.402 -0.2968 -2.1245  0.6403
   21CHL1   C22 2716   4.025   4.982   5.200  0.3663 -0.2792 -0.4120
   21CHL1  H22A 2717   4.019   5.083   5.155  0.4745  0.4523  1.1640
   21CHL1  H22B 2718   4.118   4.922   5.185 -0.5105 -1.0789 -3.2624
   21CHL1   C23 2719   3.917   4.903   5.121  0.6234  0.2886 -0.1664
   21CHL1  H23A 2720   3.939   4.795   5.125 -2.6508 -0.5757 -1.7442
   21CHL1  H23B 2721   3.820   4.923   5.172 -0.1973  0.3558 -1.6923
   21CHL1   C24 2722   3.916   4.942   4.979  0.3685  0.5501  0.2677
   21CHL1  H24A 2723   3.894   5.051   4.972  1.5586  0.7365 -0.8963
   21CHL1  H24B 2724   4.015   4.946   4.929  0.7751 -1.1722  0.8549
   21CHL1   C25 2725   3.808   4.864   4.896  0.2679  0.5287 -0.1509
   21CHL1   H25 2726   3.803   4.913   4.796  1.6948  2.0447  0.4871
   21CHL1   C26 2727   3.846   4.721   4.863 -0.2444 -0.2139  0.5126
   21CHL1  H26A 2728   3.769   4.676   4.797  1.4040 -1.1293 -0.8540
   21CHL1  H26B 2729   3.949   4.718   4.822  0.4173  0.5492  2.0183
   21CHL1  H26C 2730   3.843   4.653   4.951  1.0065  0.4568  1.1098
   21CHL1   C27 2731   3.665   4.871   4.962 -0.0739 -0.3403 -0.1688
   21CHL1  H27A 2732   3.653   4.798   5.046  0.2826  0.1032  0.2753
   21CHL1  H27B 2733   3.637   4.973   4.994  2.1460 -0.2907  1.9108
   21CHL1  H27C 2734   3.595   4.831   4.886 -1.4693  0.4794  0.6383
   22CHL1    C3 2735   6.395   5.561   6.256  0.5332  0.3362 -1.1305
   22CHL1    H3 2736   6.357   5.660   6.226 -0.6277  0.3734  0.3354
   22CHL1    O3 2737   6.390   5.557   6.397  0.0187  0.5176  0.0459
   22CHL1   H3' 2738   6.411   5.466   6.419 -0.1783 -0.0141 -1.7651
   22CHL1    C4 2739   6.315   5.442   6.201 -0.0441  0.7937 -0.4907
   22CHL1   H4A 2740   6.362   5.345   6.226 -0.7828  1.1543  2.6693
   22CHL1   H4B 2741   6.215   5.445   6.248  1.1510  1.9108  2.1833
   22CHL1    C5 2742   6.314   5.443   6.050 -0.5018  0.0304  0.0629
   22CHL1    C6 2743   6.200   5.445   5.980 -0.4876 -0.4066 -0.6992
   22CHL1    H6 2744   6.106   5.435   6.035 -0.8923  2.7150 -0.6232
   22CHL1    C7 2745   6.192   5.451   5.827  0.4500 -0.2625 -0.1003
   22CHL1   H7A 2746   6.112   5.385   5.787 -1.5871  2.7859 -1.4519
   22CHL1   H7B 2747   6.165   5.557   5.808  0.1845 -0.5049 -1.1418
   22CHL1    C8 2748   6.324   5.415   5.751 -0.2798  0.2667 -0.7924
   22CHL1    H8 2749   6.332   5.306   5.774 -0.1153  0.3461 -0.4681
   22CHL1   C14 2750   6.311   5.447   5.605 -0.3482  0.3178 -0.4697
   22CHL1   H14 2751   6.296   5.557   5.600  1.2369  0.5535 -0.8853
   22CHL1   C15 2752   6.212   5.375   5.507 -0.0403  1.0346  0.3757
   22CHL1  H15A 2753   6.219   5.266   5.529  1.0938  0.4821 -2.2700
   22CHL1  H15B 2754   6.105   5.402   5.520 -1.5660 -1.9027 -3.8983
   22CHL1   C16 2755   6.261   5.414   5.366  0.1031  0.3266 -1.0763
   22CHL1  H16A 2756   6.262   5.323   5.303  1.7003  0.3383 -1.0969
   22CHL1  H16B 2757   6.191   5.479   5.307  1.3363  0.2114 -2.7429
   22CHL1   C17 2758   6.410   5.461   5.388 -0.1521 -0.1950  0.1664
   22CHL1   H17 2759   6.411   5.572   5.393 -0.0001 -0.1946  0.1357
   22CHL1   C13 2760   6.444   5.427   5.531 -0.5539  0.1728  1.4227
   22CHL1   C18 2761   6.484   5.275   5.543 -0.6600 -0.0477  1.0952
   22CHL1  H18A 2762   6.411   5.210   5.490 -2.1540  1.1149  1.6641
   22CHL1  H18B 2763   6.581   5.250   5.496 -0.0131  0.3333  2.1904
   22CHL1  H18C 2764   6.499   5.253   5.651 -0.0499 -0.4313  0.9368
   22CHL1   C12 2765   6.557   5.514   5.593  0.2336 -0.8711  0.3068
   22CHL1  H12A 2766   6.650   5.487   5.538 -0.2654 -1.1478 -0.4209
   22CHL1  H12B 2767   6.543   5.624   5.583 -1.2260 -0.9360  1.2707
   22CHL1   C11 2768   6.569   5.494   5.741  0.1959  0.5127 -0.2549
   22CHL1  H11A 2769   6.610   5.391   5.754 -0.4529  0.4860  1.9400
   22CHL1  H11B 2770   6.641   5.570   5.777  1.1566  0.0365 -1.1254
   22CHL1    C9 2771   6.433   5.499   5.814 -0.9158  0.5197 -0.1873
   22CHL1    H9 2772   6.401   5.606   5.807  1.1158  1.0488 -3.3395
   22CHL1   C10 2773   6.449   5.465   5.976  0.7116 -0.0832  0.2679
   22CHL1   C19 2774   6.520   5.329   6.006  0.5418 -0.4185  0.3700
   22CHL1  H19A 2775   6.627   5.347   5.982  0.2356  1.5414  0.2721
   22CHL1  H19B 2776   6.512   5.300   6.113  0.6774  1.8725  1.0668
   22CHL1  H19C 2777   6.476   5.244   5.949  0.5424 -0.5915  0.6219
   22CHL1    C1 2778   6.521   5.579   6.045 -0.0603 -0.4034  0.1089
   22CHL1   H1A 2779   6.620   5.594   5.995 -0.6598  2.7165 -0.3534
   22CHL1   H1B 2780   6.463   5.671   6.024 -1.7352 -1.8898 -2.2439
   22CHL1    C2 2781   6.535   5.562   6.198  0.1087 -0.0664  1.4430
   22CHL1   H2A 2782   6.595   5.642   6.246 -1.5507  1.3491  1.2816
   22CHL1   H2B 2783   6.579   5.464   6.224  0.3846  0.2367  2.1514
   22CHL1   C20 2784   6.505   5.400   5.279  0.0566 -0.3314  0.4175
   22CHL1   H20 2785   6.505   5.289   5.289  0.3392 -0.4725 -1.0519
   22CHL1   C21 2786   6.660   5.444   5.294  0.1480  0.2203 -0.5263
   22CHL1  H21A 2787   6.708   5.388   5.377 -0.7952  0.7049  0.3649
   22CHL1  H21B 2788   6.655   5.554   5.309  1.0282  0.9156 -4.3686
   22CHL1  H21C 2789   6.707   5.424   5.196  0.5660  1.2614 -0.5419
   22CHL1   C22 2790   6.467   5.439   5.138  0.7087  0.5332  0.3318
   22CHL1  H22A 2791   6.367   5.483   5.121  1.1235  0.7616 -1.7182
   22CHL1  H22B 2792   6.525   5.531   5.116 -1.1098  0.7913 -4.4988
   22CHL1   C23 2793   6.487   5.328   5.032 -0.3512  0.3803  0.1125
   22CHL1  H23A 2794   6.578   5.267   5.050 -0.2480  0.6665  0.5960
   22CHL1  H23B 2795   6.397   5.266   5.048  0.6137 -0.9410  0.5775
   22CHL1   C24 2796   6.479   5.367   4.887  0.0146  0.1865  0.4145
   22CHL1  H24A 2797   6.489   5.272   4.831 -2.3235 -0.4772  1.0165
   22CHL1  H24B 2798   6.378   5.411   4.875 -0.3705 -0.8721 -0.2943
   22CHL1   C25 2799   6.591   5.468   4.843  0.5380 -1.3191 -0.3230
   22CHL1   H25 2800   6.580   5.552   4.915 -0.2209 -0.8171 -1.0049
   22CHL1   C26 2801   6.732   5.412   4.858 -0.4320 -0.2191  0.5633
   22CHL1  H26A 2802   6.763   5.383   4.960  1.5248  4.2985  1.5092
   22CHL1  H26B 2803   6.745   5.331   4.782  1.3289  0.3843  0.1824
   22CHL1  H26C 2804   6.805   5.486   4.817 -1.6735  0.3668 -0.6914
   22CHL1   C27 2805   6.574   5.522   4.704  0.1773 -0.3631  0.3164
   22CHL1  H27A 2806   6.580   5.450   4.619 -3.6595 -0.0196 -0.3905
   22CHL1  H27B 2807   6.479   5.578   4.694 -0.4954 -1.1652  1.9410
   22CHL1  H27C 2808   6.651   5.600   4.683  1.4304 -1.4721  0.5942
   23CHL1    C3 2809   4.008   6.872   6.490 -0.6535  0.0136 -0.3587
   23CHL1    H3 2810   4.101   6.932   6.485 -0.0688 -0.6459  1.5584
   23CHL1    O3 2811   3.983   6.878   6.632  0.1670 -0.3172  0.2854
   23CHL1   H3' 2812   3.901   6.829   6.644  0.1871 -0.4110  0.0549
   23CHL1    C4 2813   3.906   6.943   6.395 -0.6109  0.3606  0.0500
   23CHL1   H4A 2814   3.816   6.882   6.416 -0.8052  0.0145 -1.6436
   23CHL1   H4B 2815   3.909   7.053   6.410  2.5834  0.4044 -0.1545
   23CHL1    C5 2816   3.941   6.923   6.247 -0.9427 -0.4718  1.4411
   23CHL1    C6 2817   3.971   7.033   6.178  0.3229  0.0017 -0.2546
   23CHL1    H6 2818   3.969   7.132   6.225 -0.3114 -0.3436  0.4559
   23CHL1    C7 2819   3.997   7.035   6.030  0.2908  0.4384 -0.6006
   23CHL1   H7A 2820   3.930   7.112   5.986  0.3197 -0.9313 -3.2168
   23CHL1   H7B 2821   4.103   7.057   6.005  0.3392  3.1045  1.5116
   23CHL1    C8 2822   3.961   6.897   5.968  0.1566 -0.4691  0.0656
   23CHL1    H8 2823   3.853   6.872   5.960 -0.0510  0.1124  0.8472
   23CHL1   C14 2824   4.020   6.900   5.826  0.2210 -0.3996  0.2070
   23CHL1   H14 2825   4.130   6.893   5.839  0.3768  2.1894  0.7081
   23CHL1   C15 2826   3.986   7.022   5.736  0.1464 -0.4067 -0.0004
   23CHL1  H15A 2827   3.879   7.044   5.755  0.8082  1.4661  2.0197
   23CHL1  H15B 2828   4.047   7.110   5.768  1.6565 -1.7740  1.0671
   23CHL1   C16 2829   4.016   6.973   5.596  0.2764 -0.1364 -0.1428
   23CHL1  H16A 2830   3.935   6.987   5.521  2.2701  1.2864 -2.1616
   23CHL1  H16B 2831   4.107   7.030   5.567  0.5235  0.5176  1.7734
   23CHL1   C17 2832   4.053   6.822   5.605 -0.2159 -0.4702 -0.0162
   23CHL1   H17 2833   4.161   6.807   5.627  0.0040  0.3529 -0.4993
   23CHL1   C13 2834   3.984   6.776   5.741 -0.0210 -0.0727  0.8033
   23CHL1   C18 2835   3.837   6.748   5.721  0.6776 -0.0426 -0.0792
   23CHL1  H18A 2836   3.786   6.720   5.815 -0.4518 -2.2046 -1.2720
   23CHL1  H18B 2837   3.778   6.824   5.665 -0.0805  0.0397  0.8030
   23CHL1  H18C 2838   3.824   6.656   5.660 -0.0708 -1.2827  1.8676
   23CHL1   C12 2839   4.045   6.660   5.816 -0.9396  0.1713  0.0964
   23CHL1  H12A 2840   4.026   6.560   5.773  1.9692  0.0686 -1.2165
   23CHL1  H12B 2841   4.156   6.659   5.812 -0.9662 -1.7807 -1.0418
   23CHL1   C11 2842   4.003   6.649   5.967  0.7679 -0.1309 -0.0724
   23CHL1  H11A 2843   3.896   6.620   5.958  0.9381 -0.5022 -1.1227
   23CHL1  H11B 2844   4.061   6.568   6.013  0.8532  0.1633  0.3401
   23CHL1    C9 2845   4.017   6.780   6.047 -0.9688  0.7687 -0.4965
   23CHL1    H9 2846   4.126   6.797   6.060 -0.9792  0.0943  0.6987
   23CHL1   C10 2847   3.951   6.781   6.184  0.7488  0.2229 -1.0703
   23CHL1   C19 2848   3.815   6.707   6.189  0.0219 -0.7128 -0.9883
   23CHL1  H19A 2849   3.740   6.755   6.123 -0.2176  1.6942  0.8733
   23CHL1  H19B 2850   3.812   6.600   6.161 -0.6824 -1.1533  0.6025
   23CHL1  H19C 2851   3.770   6.710   6.291 -1.2435  1.7406 -1.5401
   23CHL1    C1 2852   4.051   6.709   6.292 -0.5728 -0.2976 -0.4442
   23CHL1   H1A 2853   4.048   6.603   6.260 -1.2691 -0.0944 -1.0833
   23CHL1   H1B 2854   4.151   6.750   6.268 -0.9381  0.6008 -0.4846
   23CHL1    C2 2855   4.015   6.722   6.446 -0.1353  0.3646  0.0352
   23CHL1   H2A 2856   4.076   6.660   6.515  0.4217 -1.5237 -2.0560
   23CHL1   H2B 2857   3.912   6.683   6.457  0.7874 -2.2536 -0.1020
   23CHL1   C20 2858   4.028   6.744   5.476 -0.0351 -1.3565 -0.0841
   23CHL1   H20 2859   3.920   6.769   5.470  0.0770 -1.0006 -0.6889
   23CHL1   C21 2860   4.045   6.590   5.488  0.4283 -0.0398  0.0915
   23CHL1  H21A 2861   3.983   6.544   5.568 -0.5214  1.1359  0.0525
   23CHL1  H21B 2862   4.152   6.563   5.503  0.2203  0.4340  2.9401
   23CHL1  H21C 2863   3.999   6.548   5.396 -0.9750 -2.3819  1.7605
   23CHL1   C22 2864   4.094   6.794   5.350 -0.4965  0.0905  0.4251
   23CHL1  H22A 2865   4.078   6.904   5.353 -0.7980  0.1132 -1.2889
   23CHL1  H22B 2866   4.203   6.782   5.368 -0.1543  1.6061 -0.3966
   23CHL1   C23 2867   4.051   6.743   5.216 -1.0132 -0.5545  0.4120
   23CHL1  H23A 2868   4.069   6.633   5.214  2.1970 -0.1995  2.3211
   23CHL1  H23B 2869   3.943   6.759   5.193 -0.5139  0.9309 -1.0166
   23CHL1   C24 2870   4.132   6.807   5.105 -0.4072 -0.5135  0.1521
   23CHL1  H24A 2871   4.114   6.916   5.115 -2.5409 -0.5715 -2.0706
   23CHL1  H24B 2872   4.239   6.779   5.117 -0.2110 -1.0647 -2.2425
   23CHL1   C25 2873   4.096   6.763   4.964 -0.1507 -0.2854 -0.3015
   23CHL1   H25 2874   4.146   6.825   4.887 -1.0572 -1.5289 -1.9385
   23CHL1   C26 2875   4.152   6.628   4.938  0.3058 -0.1035  0.1856
   23CHL1  H26A 2876   4.262   6.609   4.943  1.1206  3.8255  0.2940
   23CHL1  H26B 2877   4.101   6.556   5.005  0.8103 -0.3847  0.2757
   23CHL1  H26C 2878   4.127   6.596   4.835  0.8887  1.9589 -0.6385
   23CHL1   C27 2879   3.948   6.765   4.940  0.4866 -0.5164  0.0450
   23CHL1  H27A 2880   3.904   6.855   4.988  0.5613 -0.0524 -0.7415
   23CHL1  H27B 2881   3.930   6.772   4.831  2.4865 -2.5594 -0.4881
   23CHL1  H27C 2882   3.900   6.670   4.971  0.4225 -1.0036 -1.4817
   24CHL1    C3 2883   5.241   0.071   6.473  0.4569  0.5103  0.0108
   24CHL1    H3 2884   5.287   0.165   6.511  1.1807 -0.1700  0.8466
   24CHL1    O3 2885   5.214  -0.004   6.592 -0.1025  0.3092  0.6495
   24CHL1   H3' 2886   5.188  -0.091   6.560  0.9272  0.2842 -0.1491
   24CHL1    C4 2887   5.105   0.101   6.402 -0.0201  0.2283 -0.5502
   24CHL1   H4A 2888   5.048   0.009   6.381 -0.9919  0.9888 -1.3434
   24CHL1   H4B 2889   5.035   0.160   6.464  0.1968  1.5757 -1.5314
   24CHL1    C5 2890   5.128   0.175   6.263 -0.4496  0.3404  0.5106
   24CHL1    C6 2891   5.073   0.294   6.239  0.3925 -0.4515 -0.2253
   24CHL1    H6 2892   5.016   0.342   6.320 -0.7096 -0.4895 -0.9551
   24CHL1    C7 2893   5.110   0.372   6.118  0.5176 -0.5144 -0.2799
   24CHL1   H7A 2894   5.015   0.422   6.088 -0.4416 -1.2000  1.4436
   24CHL1   H7B 2895   5.181   0.453   6.143 -0.6977  0.3829  0.4282
   24CHL1    C8 2896   5.152   0.289   5.994 -0.5162  0.7474 -0.1716
   24CHL1    H8 2897   5.065   0.223   5.969  2.0714 -3.4742  0.8472
   24CHL1   C14 2898   5.202   0.369   5.879  0.6759 -0.0303  0.5397
   24CHL1   H14 2899   5.302   0.409   5.907  2.2289 -2.8178 -0.5973
   24CHL1   C15 2900   5.106   0.479   5.838 -0.6759 -0.7287  0.9164
   24CHL1  H15A 2901   4.996   0.466   5.849 -0.8202  0.1002  0.5849
   24CHL1  H15B 2902   5.131   0.573   5.893 -3.0609 -1.1172  2.8389
   24CHL1   C16 2903   5.143   0.497   5.689  0.2768 -0.2263  0.0528
   24CHL1  H16A 2904   5.045   0.480   5.639 -0.9629  0.3924  2.1728
   24CHL1  H16B 2905   5.164   0.604   5.671  0.0486 -0.2724 -0.5391
   24CHL1   C17 2906   5.256   0.395   5.654 -0.0654 -0.3614 -0.3974
   24CHL1   H17 2907   5.357   0.435   5.674 -0.0930 -0.7833  0.6386
   24CHL1   C13 2908   5.244   0.283   5.755  0.0010  0.0220  0.1525
   24CHL1   C18 2909   5.130   0.188   5.720  0.1310  0.2507  0.0945
   24CHL1  H18A 2910   5.035   0.244   5.721  0.6851  1.2722 -1.2510
   24CHL1  H18B 2911   5.145   0.149   5.617  0.1477  0.0903  0.1570
   24CHL1  H18C 2912   5.129   0.111   5.801 -0.6196 -0.7810 -0.8572
   24CHL1   C12 2913   5.369   0.203   5.800  0.7071  1.0005  0.1778
   24CHL1  H12A 2914   5.394   0.129   5.721 -0.0502 -0.3278  1.1534
   24CHL1  H12B 2915   5.459   0.269   5.799  0.9133  0.7222  0.3551
   24CHL1   C11 2916   5.346   0.123   5.928  0.5986 -0.3856 -0.2103
   24CHL1  H11A 2917   5.284   0.034   5.906 -0.2755 -0.1207  1.0757
   24CHL1  H11B 2918   5.440   0.084   5.972  0.3677  3.2857  4.3594
   24CHL1    C9 2919   5.269   0.196   6.038 -0.0276 -0.6246 -0.0910
   24CHL1    H9 2920   5.353   0.262   6.066  1.3800 -2.9508  1.5003
   24CHL1   C10 2921   5.229   0.110   6.166 -0.3545 -0.2625  0.7417
   24CHL1   C19 2922   5.171  -0.022   6.113  0.0021 -0.3852  0.1059
   24CHL1  H19A 2923   5.117  -0.078   6.192 -0.1687  0.9585  0.9675
   24CHL1  H19B 2924   5.100   0.018   6.037  0.0547  0.8775  0.6875
   24CHL1  H19C 2925   5.255  -0.081   6.071  0.5911 -1.0442  2.0954
   24CHL1    C1 2926   5.356   0.093   6.252  0.4460 -1.1542  0.0639
   24CHL1   H1A 2927   5.431   0.046   6.185  0.3570 -1.2733  0.0472
   24CHL1   H1B 2928   5.396   0.192   6.279 -0.2080 -1.0724  0.7558
   24CHL1    C2 2929   5.336   0.000   6.378 -0.4763 -0.0232 -0.5570
   24CHL1   H2A 2930   5.440  -0.010   6.416 -0.0887 -2.1381 -2.0317
   24CHL1   H2B 2931   5.291  -0.100   6.363 -1.5446 -0.0030  2.0403
   24CHL1   C20 2932   5.256   0.365   5.501  0.3513 -0.1921 -0.4719
   24CHL1   H20 2933   5.168   0.299   5.485  1.5747 -1.4765 -2.5081
   24CHL1   C21 2934   5.380   0.284   5.477 -0.9075 -0.5112  0.6925
   24CHL1  H21A 2935   5.377   0.188   5.533  1.0262 -1.0148 -0.0031
   24CHL1  H21B 2936   5.472   0.331   5.516  0.3139  0.0621 -2.5839
   24CHL1  H21C 2937   5.393   0.268   5.368 -0.9382  4.0383 -0.1838
   24CHL1   C22 2938   5.246   0.494   5.406 -0.3973 -0.7522 -0.0816
   24CHL1  H22A 2939   5.190   0.580   5.448  2.4619  1.7860 -1.1383
   24CHL1  H22B 2940   5.352   0.526   5.401 -0.9174  1.3507  1.2496
   24CHL1   C23 2941   5.202   0.465   5.265  0.0377 -0.0914 -0.1614
   24CHL1  H23A 2942   5.271   0.388   5.224  0.3681 -0.3490  0.8515
   24CHL1  H23B 2943   5.098   0.432   5.284  0.3785  0.1855  2.5434
   24CHL1   C24 2944   5.220   0.585   5.176 -0.1185  0.2212  0.3561
   24CHL1  H24A 2945   5.171   0.675   5.220 -1.3329  0.6274 -1.7095
   24CHL1  H24B 2946   5.327   0.611   5.165 -0.2442  0.6373  0.0953
   24CHL1   C25 2947   5.179   0.573   5.035 -0.5649  0.0081  0.2361
   24CHL1   H25 2948   5.068   0.564   5.030 -0.6180  0.5932  0.3012
   24CHL1   C26 2949   5.213   0.702   4.946 -0.2953 -0.7161 -0.3167
   24CHL1  H26A 2950   5.170   0.794   4.990 -1.7371 -1.1824 -0.6916
   24CHL1  H26B 2951   5.324   0.712   4.949 -0.3350 -0.3963  0.3314
   24CHL1  H26C 2952   5.189   0.692   4.838  3.2159  1.4331 -1.4782
   24CHL1   C27 2953   5.241   0.448   4.971 -0.7368 -0.5227  0.3544
   24CHL1  H27A 2954   5.181   0.360   5.003 -0.7022  0.2154  2.6250
   24CHL1  H27B 2955   5.233   0.458   4.861  0.1470 -2.0036  0.1335
   24CHL1  H27C 2956   5.348   0.444   4.999 -0.7631 -1.2474  0.3740
   25CHL1    C3 2957   5.534   0.248   6.644 -0.1682 -0.1778 -0.3074
   25CHL1    H3 2958   5.481   0.167   6.588 -2.0464  1.0393 -0.3750
   25CHL1    O3 2959   5.569   0.193   6.773  0.1800  0.1744  0.0585
   25CHL1   H3' 2960   5.601   0.269   6.823  2.3211 -0.0451 -0.8868
   25CHL1    C4 2961   5.666   0.273   6.577 -0.4801  0.1327  0.4594
   25CHL1   H4A 2962   5.722   0.341   6.645  1.5551 -1.2943  0.3029
   25CHL1   H4B 2963   5.724   0.178   6.568 -1.9247 -0.7214 -0.1228
   25CHL1    C5 2964   5.642   0.331   6.442  0.2143  0.0604  0.3058
   25CHL1    C6 2965   5.686   0.266   6.334  0.8233  0.2685 -1.1777
   25CHL1    H6 2966   5.741   0.171   6.341 -0.5581 -0.6045 -1.7636
   25CHL1    C7 2967   5.669   0.322   6.199 -0.0153  0.1000  0.5203
   25CHL1   H7A 2968   5.776   0.318   6.167  0.4948 -1.5897  2.2355
   25CHL1   H7B 2969   5.601   0.270   6.129 -1.0117  1.1615  0.6691
   25CHL1    C8 2970   5.621   0.474   6.201 -0.5135 -0.3653  0.6134
   25CHL1    H8 2971   5.708   0.539   6.223 -2.4964  2.9452 -0.7130
   25CHL1   C14 2972   5.582   0.522   6.057  0.2426 -0.0612 -0.7992
   25CHL1   H14 2973   5.488   0.465   6.040 -0.0968 -0.3651  1.6791
   25CHL1   C15 2974   5.665   0.479   5.942  0.7286 -0.0106 -0.0007
   25CHL1  H15A 2975   5.770   0.515   5.949  1.0446 -0.9232  0.0271
   25CHL1  H15B 2976   5.665   0.370   5.919 -0.3382 -0.2855  1.2137
   25CHL1   C16 2977   5.588   0.554   5.833 -0.1810  0.2876  0.2240
   25CHL1  H16A 2978   5.667   0.614   5.782  0.1883 -0.6847 -0.3933
   25CHL1  H16B 2979   5.540   0.486   5.758 -0.1462 -0.8137  1.1773
   25CHL1   C17 2980   5.496   0.660   5.895  0.2642 -0.0975  0.7347
   25CHL1   H17 2981   5.393   0.618   5.898 -0.0036  0.5309  0.4462
   25CHL1   C13 2982   5.541   0.665   6.042  0.4254  0.2825 -0.5178
   25CHL1   C18 2983   5.662   0.760   6.062 -0.4159 -0.0017  0.1500
   25CHL1  H18A 2984   5.633   0.867   6.058  1.2102  0.6567  3.2478
   25CHL1  H18B 2985   5.716   0.753   6.159  1.4760  0.6794 -0.8038
   25CHL1  H18C 2986   5.749   0.739   5.996 -0.0001 -1.0944  1.0143
   25CHL1   C12 2987   5.436   0.704   6.148 -0.4228 -0.0107 -0.3097
   25CHL1  H12A 2988   5.411   0.812   6.160  0.5041  0.1351  0.4884
   25CHL1  H12B 2989   5.343   0.650   6.121 -1.8501  1.4393  1.3948
   25CHL1   C11 2990   5.469   0.659   6.292 -0.1718 -0.1334  0.6170
   25CHL1  H11A 2991   5.549   0.723   6.334  1.4770 -2.2800  0.9171
   25CHL1  H11B 2992   5.377   0.674   6.353 -0.5306  0.3482 -0.0296
   25CHL1    C9 2993   5.517   0.510   6.302 -0.5147  0.4169 -0.4453
   25CHL1    H9 2994   5.423   0.458   6.277 -1.1128  0.7113  1.0832
   25CHL1   C10 2995   5.558   0.459   6.442  0.0415  0.3314  0.0727
   25CHL1   C19 2996   5.641   0.572   6.515  0.3741  0.7162 -0.0120
   25CHL1  H19A 2997   5.697   0.544   6.607  1.1696  0.4990 -0.5500
   25CHL1  H19B 2998   5.713   0.607   6.437 -0.6573  0.4282 -1.1247
   25CHL1  H19C 2999   5.572   0.656   6.537 -1.9288 -1.4398  1.5320
   25CHL1    C1 3000   5.429   0.427   6.525  0.5674 -0.9039  0.5512
   25CHL1   H1A 3001   5.366   0.518   6.536  1.5408  0.3136 -2.7566
   25CHL1   H1B 3002   5.375   0.347   6.469  1.8756  0.5750 -3.1086
   25CHL1    C2 3003   5.446   0.369   6.660 -0.0505 -0.0668 -0.8779
   25CHL1   H2A 3004   5.350   0.345   6.711  0.1123 -2.3675 -1.5397
   25CHL1   H2B 3005   5.502   0.445   6.720  0.1610  1.0207 -2.3938
   25CHL1   C20 3006   5.498   0.792   5.810  0.8681 -0.0238 -0.0972
   25CHL1   H20 3007   5.589   0.851   5.832  0.1302  1.3839 -0.6679
   25CHL1   C21 3008   5.376   0.885   5.852 -0.0017  0.3366  0.7116
   25CHL1  H21A 3009   5.277   0.852   5.815 -0.3328  1.4092  0.6163
   25CHL1  H21B 3010   5.392   0.979   5.795  0.3737 -0.2408 -0.1719
   25CHL1  H21C 3011   5.367   0.900   5.962 -1.2982 -1.6645  0.9404
   25CHL1   C22 3012   5.494   0.773   5.651  0.2646  0.0659  0.4927
   25CHL1  H22A 3013   5.574   0.701   5.623 -1.0473 -1.2788  0.0695
   25CHL1  H22B 3014   5.396   0.724   5.636  0.2209  0.0078  0.9389
   25CHL1   C23 3015   5.524   0.897   5.567 -0.3039 -0.7208  0.4889
   25CHL1  H23A 3016   5.452   0.976   5.598  0.3773  0.6050 -1.1695
   25CHL1  H23B 3017   5.624   0.940   5.591 -1.0967  1.2660  0.3875
   25CHL1   C24 3018   5.511   0.871   5.419  0.0894 -0.3638 -0.2124
   25CHL1  H24A 3019   5.412   0.826   5.400  0.2698 -0.0022 -2.1423
   25CHL1  H24B 3020   5.521   0.968   5.366 -2.5607  0.0733 -0.0498
   25CHL1   C25 3021   5.598   0.766   5.356  0.0716 -0.6815  0.3268
   25CHL1   H25 3022   5.576   0.664   5.394  0.0758 -0.3274  1.3165
   25CHL1   C26 3023   5.578   0.753   5.207  0.3808 -0.2586  0.2799
   25CHL1  H26A 3024   5.657   0.804   5.148 -0.0301  4.2173  3.1133
   25CHL1  H26B 3025   5.563   0.649   5.170  0.8735  0.6438 -2.7349
   25CHL1  H26C 3026   5.480   0.799   5.180  0.9337 -0.2119 -1.8328
   25CHL1   C27 3027   5.750   0.793   5.389 -0.1384 -0.2892 -0.7296
   25CHL1  H27A 3028   5.781   0.774   5.494 -2.6183 -0.9224 -0.0430
   25CHL1  H27B 3029   5.815   0.741   5.316 -1.2067 -0.3389 -1.6667
   25CHL1  H27C 3030   5.774   0.898   5.359  2.2819 -0.7517 -0.6439
   26CHL1    C3 3031   5.752   4.511   6.427 -0.2201 -0.5718 -0.4467
   26CHL1    H3 3032   5.650   4.466   6.424  0.0259 -1.2021  0.3305
   26CHL1    O3 3033   5.806   4.508   6.563 -0.4608 -0.5056 -0.5975
   26CHL1   H3' 3034   5.893   4.467   6.568  0.7820  2.0120  3.1234
   26CHL1    C4 3035   5.838   4.426   6.333 -0.3943  0.5896 -0.1948
   26CHL1   H4A 3036   5.942   4.458   6.356 -0.7033  0.9969  0.6860
   26CHL1   H4B 3037   5.832   4.325   6.378 -0.5999  0.0851 -1.3257
   26CHL1    C5 3038   5.786   4.440   6.192 -0.2426 -0.4821  0.8165
   26CHL1    C6 3039   5.756   4.335   6.118  0.5097  0.5172 -0.0338
   26CHL1    H6 3040   5.778   4.240   6.169  0.3438  0.9510  0.8606
   26CHL1    C7 3041   5.727   4.340   5.971 -0.4357  0.1290  0.5718
   26CHL1   H7A 3042   5.788   4.265   5.915 -0.5134 -0.7986  1.6976
   26CHL1   H7B 3043   5.620   4.311   5.960 -0.3492 -0.2883  0.7859
   26CHL1    C8 3044   5.754   4.479   5.903 -0.3442  0.0566  0.1743
   26CHL1    H8 3045   5.865   4.479   5.894 -0.1593  2.0525  1.7024
   26CHL1   C14 3046   5.694   4.496   5.766  0.0713  0.7521 -0.1378
   26CHL1   H14 3047   5.585   4.481   5.782  0.0314 -0.4973 -1.3338
   26CHL1   C15 3048   5.728   4.392   5.655  0.2795  0.1284  0.7033
   26CHL1  H15A 3049   5.835   4.363   5.658  0.1211 -0.4752  0.7442
   26CHL1  H15B 3050   5.674   4.295   5.665  1.5325 -0.5954  0.6812
   26CHL1   C16 3051   5.699   4.470   5.527 -0.2966 -0.0714  0.0124
   26CHL1  H16A 3052   5.796   4.488   5.476  0.1110 -0.7927  0.5125
   26CHL1  H16B 3053   5.634   4.414   5.456 -0.7165  0.0709  0.2824
   26CHL1   C17 3054   5.637   4.612   5.564 -0.3596  0.2514  0.5217
   26CHL1   H17 3055   5.529   4.597   5.583 -0.7983  1.7168 -0.5826
   26CHL1   C13 3056   5.685   4.636   5.706 -0.0033  0.2219  0.7777
   26CHL1   C18 3057   5.836   4.686   5.685  0.0505 -0.0811  0.0053
   26CHL1  H18A 3058   5.901   4.666   5.773 -2.2103 -2.7502  1.2340
   26CHL1  H18B 3059   5.895   4.652   5.598  2.1035  3.2162 -0.0452
   26CHL1  H18C 3060   5.819   4.795   5.671 -0.8821 -0.4988 -2.9254
   26CHL1   C12 3061   5.604   4.721   5.797  0.0510 -0.4607  0.2070
   26CHL1  H12A 3062   5.579   4.824   5.765 -2.2854 -0.3898  1.9953
   26CHL1  H12B 3063   5.504   4.673   5.800 -0.7625  1.0210 -1.3403
   26CHL1   C11 3064   5.680   4.725   5.940  0.0599 -0.7396  0.1020
   26CHL1  H11A 3065   5.775   4.783   5.928  0.0458  0.2582  3.7755
   26CHL1  H11B 3066   5.618   4.796   5.999  0.4298 -0.9318  0.7305
   26CHL1    C9 3067   5.704   4.584   5.999 -0.0307 -0.4542 -0.3718
   26CHL1    H9 3068   5.602   4.557   6.034  0.1270  1.3665  1.6704
   26CHL1   C10 3069   5.778   4.584   6.137 -0.5717 -0.3059  0.6149
   26CHL1   C19 3070   5.913   4.659   6.125 -0.1108  0.3543 -0.6438
   26CHL1  H19A 3071   5.960   4.612   6.035  0.8543  0.3122 -0.1316
   26CHL1  H19B 3072   5.897   4.762   6.087  1.6408 -0.1308 -2.9690
   26CHL1  H19C 3073   5.990   4.649   6.204 -0.6441  0.5936 -0.0957
   26CHL1    C1 3074   5.698   4.669   6.239  0.8723  0.5566  0.7825
   26CHL1   H1A 3075   5.706   4.774   6.204 -0.1884  2.0746  4.4967
   26CHL1   H1B 3076   5.598   4.622   6.230  0.9766  0.3146  0.8819
   26CHL1    C2 3077   5.755   4.659   6.381 -0.2266  0.5054  0.0904
   26CHL1   H2A 3078   5.700   4.722   6.455 -0.7171  0.5447 -0.3042
   26CHL1   H2B 3079   5.854   4.710   6.388 -0.1932  0.3373  0.8922
   26CHL1   C20 3080   5.663   4.711   5.450  0.6045  0.7145 -0.3321
   26CHL1   H20 3081   5.771   4.734   5.442  0.1124  3.1396 -0.5589
   26CHL1   C21 3082   5.589   4.846   5.488  0.1136  0.4029  0.5279
   26CHL1  H21A 3083   5.630   4.895   5.579  0.2741 -0.6403  1.0342
   26CHL1  H21B 3084   5.478   4.837   5.494  0.2945 -1.4412  2.0483
   26CHL1  H21C 3085   5.622   4.913   5.406  1.6788  1.2788  1.8115
   26CHL1   C22 3086   5.598   4.659   5.317 -0.4045 -0.4770 -0.3379
   26CHL1  H22A 3087   5.649   4.570   5.275 -0.4696  0.1638 -1.8412
   26CHL1  H22B 3088   5.491   4.638   5.339 -0.7242  0.4050 -0.9850
   26CHL1   C23 3089   5.614   4.759   5.195 -0.8207  0.4741 -0.1318
   26CHL1  H23A 3090   5.566   4.854   5.228  1.2320  0.6574  2.6924
   26CHL1  H23B 3091   5.725   4.771   5.196 -0.6942 -0.5858  0.7651
   26CHL1   C24 3092   5.565   4.698   5.065 -0.2159 -0.5028 -0.0133
   26CHL1  H24A 3093   5.621   4.604   5.046  1.8692  0.6714  0.0606
   26CHL1  H24B 3094   5.459   4.668   5.075 -0.5646  0.7951  0.4493
   26CHL1   C25 3095   5.574   4.794   4.940  0.2863 -0.0364 -0.2747
   26CHL1   H25 3096   5.512   4.880   4.972  2.3818  1.2199  0.5828
   26CHL1   C26 3097   5.717   4.832   4.905 -0.7343 -0.7386 -0.3155
   26CHL1  H26A 3098   5.763   4.733   4.880 -1.8743 -1.4696  0.3889
   26CHL1  H26B 3099   5.719   4.900   4.817 -2.2239 -1.7644 -1.1903
   26CHL1  H26C 3100   5.758   4.887   4.992  0.7962 -1.4259 -0.5630
   26CHL1   C27 3101   5.502   4.734   4.822  0.4258  0.1559  0.6825
   26CHL1  H27A 3102   5.526   4.627   4.807  1.2240  0.4276 -0.0500
   26CHL1  H27B 3103   5.392   4.734   4.838  0.3586 -1.5987  0.3210
   26CHL1  H27C 3104   5.520   4.775   4.721 -1.2794 -4.1628 -1.6324
   27CHL1    C3 3105   4.590   5.007   6.121  0.0724  0.4480 -0.2010
   27CHL1    H3 3106   4.500   5.071   6.109 -1.9528 -2.1813  0.1557
   27CHL1    O3 3107   4.610   4.990   6.260  0.0789 -0.1724  0.3644
   27CHL1   H3' 3108   4.697   5.027   6.277  1.0363 -1.0000 -2.1874
   27CHL1    C4 3109   4.558   4.875   6.058  0.2852 -0.0737  0.3386
   27CHL1   H4A 3110   4.640   4.806   6.088  1.5351  0.6250 -1.3469
   27CHL1   H4B 3111   4.459   4.849   6.103  0.0311  1.5353  0.7423
   27CHL1    C5 3112   4.549   4.879   5.906 -0.4590 -0.2371 -0.0418
   27CHL1    C6 3113   4.450   4.822   5.836 -0.3805 -1.0229  0.2391
   27CHL1    H6 3114   4.371   4.775   5.897 -0.7872 -2.1067 -1.0805
   27CHL1    C7 3115   4.426   4.821   5.688 -0.4313 -0.3680 -0.2562
   27CHL1   H7A 3116   4.382   4.728   5.647  3.2352 -1.9459 -1.0302
   27CHL1   H7B 3117   4.372   4.913   5.659 -0.0050  0.6733  2.0328
   27CHL1    C8 3118   4.562   4.852   5.614  0.4782 -0.2368  0.1567
   27CHL1    H8 3119   4.623   4.760   5.621 -0.1444 -0.5940  0.9450
   27CHL1   C14 3120   4.534   4.885   5.470 -0.5683 -0.1360  0.3486
   27CHL1   H14 3121   4.482   4.983   5.479 -0.3122  0.0794 -0.3876
   27CHL1   C15 3122   4.444   4.803   5.377 -0.2513  0.2211 -0.5022
   27CHL1  H15A 3123   4.476   4.696   5.383 -1.1023 -0.0214 -0.1101
   27CHL1  H15B 3124   4.336   4.806   5.402 -0.4934 -3.3690 -0.5748
   27CHL1   C16 3125   4.472   4.852   5.233  0.3632  0.8883 -1.3368
   27CHL1  H16A 3126   4.493   4.758   5.178  1.2542 -0.8386  1.6742
   27CHL1  H16B 3127   4.389   4.915   5.197 -0.7143 -0.6379 -1.6082
   27CHL1   C17 3128   4.593   4.954   5.245 -0.4730  0.7658  0.6529
   27CHL1   H17 3129   4.540   5.050   5.259 -0.8225  0.2489  3.4184
   27CHL1   C13 3130   4.657   4.929   5.386  0.2813 -0.2946 -0.0630
   27CHL1   C18 3131   4.754   4.817   5.367  0.2308  0.1524 -0.0697
   27CHL1  H18A 3132   4.702   4.728   5.325  0.9740  0.9011 -2.7947
   27CHL1  H18B 3133   4.838   4.857   5.308  0.5070  2.5351  1.8026
   27CHL1  H18C 3134   4.800   4.784   5.462  0.7872  0.1984 -0.3231
   27CHL1   C12 3135   4.720   5.053   5.458  0.1624 -0.1984 -0.4134
   27CHL1  H12A 3136   4.817   5.078   5.411  0.0897  0.2538 -0.3254
   27CHL1  H12B 3137   4.648   5.137   5.464 -0.3023 -0.5962 -0.3399
   27CHL1   C11 3138   4.760   5.010   5.603  0.1142 -0.2922  0.2383
   27CHL1  H11A 3139   4.842   4.935   5.595  0.4997  0.3463 -3.1887
   27CHL1  H11B 3140   4.810   5.098   5.649 -0.9735 -0.9112  2.7762
   27CHL1    C9 3141   4.639   4.967   5.686  0.0043 -0.7979 -0.5557
   27CHL1    H9 3142   4.574   5.056   5.677  2.0358  0.9404  0.9596
   27CHL1   C10 3143   4.664   4.947   5.836  0.3079 -0.6592 -0.1798
   27CHL1   C19 3144   4.781   4.848   5.857 -0.4279  0.8070 -0.8342
   27CHL1  H19A 3145   4.880   4.894   5.839 -0.2330  0.1724 -1.4102
   27CHL1  H19B 3146   4.795   4.791   5.952  1.3994  2.3281 -0.1267
   27CHL1  H19C 3147   4.769   4.762   5.788  0.4696 -0.8189  0.9083
   27CHL1    C1 3148   4.693   5.084   5.905 -0.5940 -0.1212 -0.3369
   27CHL1   H1A 3149   4.780   5.135   5.858  0.4349  0.0269  1.6193
   27CHL1   H1B 3150   4.606   5.148   5.882  0.9811  2.6937  1.0325
   27CHL1    C2 3151   4.717   5.070   6.056 -0.0681 -0.5815  0.3032
   27CHL1   H2A 3152   4.728   5.176   6.088  0.9029 -0.3936 -0.6204
   27CHL1   H2B 3153   4.808   5.013   6.085 -1.4819 -3.1958 -0.0541
   27CHL1   C20 3154   4.680   4.945   5.116  0.1429 -0.0042  0.1636
   27CHL1   H20 3155   4.721   4.843   5.101  0.2792  0.0948 -0.1642
   27CHL1   C21 3156   4.794   5.045   5.127  0.6961 -0.5151 -0.7729
   27CHL1  H21A 3157   4.756   5.133   5.183  1.1397 -0.4775 -0.5290
   27CHL1  H21B 3158   4.812   5.083   5.024  1.4424 -1.8890 -1.1752
   27CHL1  H21C 3159   4.893   5.017   5.167  0.5758  0.3704  0.1683
   27CHL1   C22 3160   4.611   4.975   4.984  0.4828 -0.6683  0.0868
   27CHL1  H22A 3161   4.692   4.965   4.908 -0.0133  0.1916 -0.5858
   27CHL1  H22B 3162   4.530   4.902   4.966 -1.8826  1.3461  1.8580
   27CHL1   C23 3163   4.549   5.116   4.972 -0.1291  0.5183 -0.1654
   27CHL1  H23A 3164   4.472   5.127   5.051  0.0197 -0.6982  0.1645
   27CHL1  H23B 3165   4.632   5.187   4.989  0.8332 -0.0533 -2.1243
   27CHL1   C24 3166   4.500   5.154   4.831  0.2927 -0.3519  0.3380
   27CHL1  H24A 3167   4.452   5.254   4.831  0.9491  0.0172  2.5772
   27CHL1  H24B 3168   4.586   5.157   4.760  1.0480  1.2648  1.2675
   27CHL1   C25 3169   4.394   5.060   4.760 -0.3233  0.4591 -0.5221
   27CHL1   H25 3170   4.448   4.966   4.736 -3.9616 -2.6234  2.1253
   27CHL1   C26 3171   4.259   5.030   4.832 -0.3660 -0.0966  0.4169
   27CHL1  H26A 3172   4.221   5.133   4.850  2.1678  0.5185  3.1111
   27CHL1  H26B 3173   4.196   4.958   4.776  0.9361  0.1665 -1.4722
   27CHL1  H26C 3174   4.290   4.989   4.931 -0.0363 -0.7175  0.0579
   27CHL1   C27 3175   4.347   5.127   4.630 -0.5076 -0.4205 -0.9896
   27CHL1  H27A 3176   4.279   5.214   4.642  0.2607 -0.0319  0.9153
   27CHL1  H27B 3177   4.281   5.061   4.570 -0.2689 -1.8184  0.2211
   27CHL1  H27C 3178   4.431   5.157   4.563 -0.1712 -0.9820 -0.8263
   28CHL1    C3 3179   0.031   5.892   6.390 -0.1671  1.0070  0.5333
   28CHL1    H3 3180   0.132   5.919   6.354  0.3044  0.2573  1.2424
   28CHL1    O3 3181   0.029   5.852   6.529  0.2903 -0.2280 -0.0058
   28CHL1   H3' 3182   0.048   5.928   6.584  2.0057  0.7333 -1.7947
   28CHL1    C4 3183  -0.054   6.018   6.376  0.1163  0.2356  0.6294
   28CHL1   H4A 3184  -0.153   6.003   6.423 -0.3049 -1.8395 -0.8226
   28CHL1   H4B 3185   0.001   6.098   6.431  0.5505 -0.0172  0.5703
   28CHL1    C5 3186  -0.076   6.062   6.236 -0.1628 -0.6343  0.8270
   28CHL1    C6 3187  -0.051   6.191   6.196  0.6325  0.1932 -0.0556
   28CHL1    H6 3188  -0.022   6.271   6.265  0.7311 -0.0674  0.2120
   28CHL1    C7 3189  -0.065   6.246   6.060 -0.1569  0.0406 -0.2240
   28CHL1   H7A 3190  -0.135   6.332   6.053 -1.5765 -1.1606 -1.6684
   28CHL1   H7B 3191   0.031   6.288   6.024 -0.1207 -1.7486 -2.4738
   28CHL1    C8 3192  -0.122   6.138   5.948 -0.0684 -1.0212 -0.1458
   28CHL1    H8 3193  -0.231   6.139   5.967  0.3269  1.3598  2.5250
   28CHL1   C14 3194  -0.072   6.180   5.809 -0.4837 -0.4973 -0.1693
   28CHL1   H14 3195   0.038   6.169   5.808 -0.1396  2.4309 -0.8456
   28CHL1   C15 3196  -0.082   6.330   5.767  1.0641  1.3681 -0.0970
   28CHL1  H15A 3197  -0.184   6.345   5.809  0.3215 -2.4679 -0.1663
   28CHL1  H15B 3198  -0.011   6.400   5.815  1.6995  0.2085  0.7195
   28CHL1   C16 3199  -0.080   6.327   5.619  0.1352  0.0609 -0.0924
   28CHL1  H16A 3200  -0.179   6.356   5.579  0.0472  1.4401  1.0369
   28CHL1  H16B 3201   0.001   6.385   5.570  1.5614 -1.2963  0.5805
   28CHL1   C17 3202  -0.066   6.181   5.578  0.2703 -0.8294 -0.6462
   28CHL1   H17 3203   0.041   6.151   5.575  0.4695 -0.0927 -1.1041
   28CHL1   C13 3204  -0.127   6.096   5.698 -0.0686  0.1541 -0.2895
   28CHL1   C18 3205  -0.284   6.104   5.686 -0.4620 -0.0304  0.5553
   28CHL1  H18A 3206  -0.325   6.076   5.785 -1.8079  1.2967  0.4133
   28CHL1  H18B 3207  -0.314   6.209   5.667 -1.4801 -0.7350 -2.0880
   28CHL1  H18C 3208  -0.317   6.031   5.610  2.0648 -0.7604  0.0524
   28CHL1   C12 3209  -0.079   5.955   5.722  0.3670 -0.1775  0.1877
   28CHL1  H12A 3210  -0.128   5.896   5.642  0.1955  1.2398 -0.7938
   28CHL1  H12B 3211   0.030   5.945   5.703  0.5158  1.9132 -0.2923
   28CHL1   C11 3212  -0.111   5.895   5.862  0.3620 -0.3591 -0.6387
   28CHL1  H11A 3213  -0.220   5.877   5.868  0.5592 -1.0491  2.0866
   28CHL1  H11B 3214  -0.064   5.794   5.861 -0.4327 -0.7384 -0.3772
   28CHL1    C9 3215  -0.075   5.992   5.981  0.5628 -0.6915  0.6733
   28CHL1    H9 3216   0.033   6.014   5.966  0.4711 -1.0811 -0.6967
   28CHL1   C10 3217  -0.108   5.952   6.130  0.1383  0.1412  0.4100
   28CHL1   C19 3218  -0.259   5.918   6.148 -0.7655 -0.5593 -0.4056
   28CHL1  H19A 3219  -0.295   5.839   6.078  2.2442 -0.1288 -2.6703
   28CHL1  H19B 3220  -0.274   5.883   6.252  0.9396  0.1018  0.0854
   28CHL1  H19C 3221  -0.309   6.014   6.121  2.7789  1.4086 -0.5754
   28CHL1    C1 3222  -0.027   5.816   6.155 -0.2414 -0.5740  0.4162
   28CHL1   H1A 3223  -0.073   5.732   6.098  0.5347  0.3913 -1.7260
   28CHL1   H1B 3224   0.075   5.837   6.118 -0.7324  3.5443  0.9745
   28CHL1    C2 3225  -0.029   5.776   6.309 -0.6929  0.0059 -0.1828
   28CHL1   H2A 3226   0.037   5.687   6.319 -1.6818 -0.5735  1.5641
   28CHL1   H2B 3227  -0.134   5.753   6.334 -0.6553 -0.7666 -0.6778
   28CHL1   C20 3228  -0.123   6.161   5.432  0.1659  0.4765  0.7803
   28CHL1   H20 3229  -0.231   6.186   5.442  0.3184  0.4968  2.9392
   28CHL1   C21 3230  -0.104   6.020   5.382 -0.0841 -0.1117  0.2633
   28CHL1  H21A 3231  -0.125   6.012   5.273  1.7348  1.6095 -0.2567
   28CHL1  H21B 3232  -0.163   5.941   5.434  0.5074 -1.9204 -1.6519
   28CHL1  H21C 3233   0.001   5.991   5.405  0.8976  2.7758 -0.2536
   28CHL1   C22 3234  -0.053   6.255   5.329 -0.4468 -0.2456 -0.3118
   28CHL1  H22A 3235  -0.087   6.353   5.368  0.8752  1.2243 -2.6249
   28CHL1  H22B 3236   0.057   6.243   5.340 -0.3994  0.5670  0.1910
   28CHL1   C23 3237  -0.097   6.247   5.185 -0.4747 -0.0686  1.0229
   28CHL1  H23A 3238  -0.051   6.157   5.139  0.1453 -0.6663  2.7272
   28CHL1  H23B 3239  -0.207   6.240   5.179 -0.4169 -1.0200  0.8394
   28CHL1   C24 3240  -0.059   6.375   5.096  0.2438 -0.1753 -0.3495
   28CHL1  H24A 3241  -0.123   6.462   5.126 -0.6728 -0.0215 -2.5774
   28CHL1  H24B 3242   0.047   6.399   5.121  0.3412 -0.0121 -0.9081
   28CHL1   C25 3243  -0.062   6.363   4.951  0.5058 -0.0252  0.1168
   28CHL1   H25 3244  -0.152   6.305   4.920 -1.1340  1.0401  2.5253
   28CHL1   C26 3245  -0.068   6.503   4.882  0.3845  0.2859 -0.0514
   28CHL1  H26A 3246  -0.129   6.574   4.943 -1.4617  0.3102 -1.8195
   28CHL1  H26B 3247   0.033   6.539   4.855  0.0337  0.8876 -0.5818
   28CHL1  H26C 3248  -0.116   6.494   4.782 -1.7827  1.7281  0.7841
   28CHL1   C27 3249   0.060   6.284   4.897 -0.9792 -0.2307  0.0190
   28CHL1  H27A 3250   0.075   6.181   4.936  0.2930  0.3306  1.0428
   28CHL1  H27B 3251   0.039   6.295   4.788 -0.7322  0.0230 -0.0036
   28CHL1  H27C 3252   0.147   6.352   4.903 -1.4020  0.4859 -1.3785
   29CHL1    C3 3253   3.502   6.417   6.332  0.3298 -0.3787  0.5887
   29CHL1    H3 3254   3.601   6.391   6.290 -0.1892  0.6820 -1.4144
   29CHL1    O3 3255   3.517   6.454   6.468  0.4149 -0.3378  0.2124
   29CHL1   H3' 3256   3.430   6.487   6.493 -0.0133 -2.0973  1.2100
   29CHL1    C4 3257   3.451   6.540   6.259  0.8025 -0.6297 -0.1120
   29CHL1   H4A 3258   3.359   6.583   6.305  0.1392 -1.6872 -0.4072
   29CHL1   H4B 3259   3.530   6.618   6.273 -1.2277  1.1683  2.1959
   29CHL1    C5 3260   3.436   6.503   6.114  0.2599  0.0111 -0.8051
   29CHL1    C6 3261   3.508   6.568   6.017  0.3149 -0.0225 -0.2820
   29CHL1    H6 3262   3.565   6.657   6.046 -0.9894  1.2599 -1.5210
   29CHL1    C7 3263   3.494   6.536   5.875 -0.4187  0.1530  0.3152
   29CHL1   H7A 3264   3.490   6.625   5.808  0.5151 -0.7272 -0.9515
   29CHL1   H7B 3265   3.585   6.494   5.827 -0.1123  0.8142  0.3015
   29CHL1    C8 3266   3.375   6.444   5.850  0.3281 -0.4893  0.3433
   29CHL1    H8 3267   3.282   6.503   5.863  0.5345 -0.1250  0.2017
   29CHL1   C14 3268   3.377   6.395   5.710 -0.1839  0.5131  0.8058
   29CHL1   H14 3269   3.467   6.333   5.696 -0.8269 -0.2099 -0.2918
   29CHL1   C15 3270   3.389   6.497   5.592 -0.3779 -0.1362  0.1263
   29CHL1  H15A 3271   3.306   6.570   5.596  0.9166  1.4174 -0.2762
   29CHL1  H15B 3272   3.486   6.551   5.590  0.3522 -1.3965 -0.9792
   29CHL1   C16 3273   3.370   6.406   5.470 -0.1725  1.0097 -0.1793
   29CHL1  H16A 3274   3.304   6.457   5.397 -1.7826 -0.7015  0.0162
   29CHL1  H16B 3275   3.464   6.378   5.419  0.2431  2.0113  0.0015
   29CHL1   C17 3276   3.305   6.261   5.512 -0.1978  0.6669 -0.0403
   29CHL1   H17 3277   3.392   6.192   5.520 -2.2416 -2.1674 -0.9106
   29CHL1   C13 3278   3.268   6.294   5.661 -0.9662 -0.9861 -0.3446
   29CHL1   C18 3279   3.128   6.362   5.671 -0.4531 -0.2664  0.1584
   29CHL1  H18A 3280   3.054   6.281   5.656 -1.8387  0.9453  0.1616
   29CHL1  H18B 3281   3.120   6.418   5.767  1.6571 -1.2048  0.9200
   29CHL1  H18C 3282   3.113   6.436   5.589  0.0875  1.6531  1.6999
   29CHL1   C12 3283   3.275   6.170   5.754  0.1712  1.0818 -0.2417
   29CHL1  H12A 3284   3.204   6.089   5.728  0.4297  0.4647  0.9077
   29CHL1  H12B 3285   3.376   6.125   5.747 -0.7274 -1.2934  0.9922
   29CHL1   C11 3286   3.259   6.211   5.906 -0.2169 -0.4164 -0.0819
   29CHL1  H11A 3287   3.153   6.241   5.921 -0.3073 -0.8913  0.2703
   29CHL1  H11B 3288   3.280   6.116   5.961 -0.5982 -1.1874 -1.2212
   29CHL1    C9 3289   3.365   6.322   5.942  0.1211 -0.9718  0.3690
   29CHL1    H9 3290   3.465   6.275   5.942  0.2051 -0.7939  0.7956
   29CHL1   C10 3291   3.353   6.376   6.089  0.1225  0.4584  0.3132
   29CHL1   C19 3292   3.208   6.405   6.131  0.8818 -0.2367  0.5045
   29CHL1  H19A 3293   3.192   6.457   6.228 -2.5231  0.5778 -0.3797
   29CHL1  H19B 3294   3.149   6.466   6.060 -0.1845 -1.0977  0.6157
   29CHL1  H19C 3295   3.147   6.312   6.136 -1.0251  0.9797  0.3686
   29CHL1    C1 3296   3.388   6.253   6.185 -0.6630 -0.0058  0.0105
   29CHL1   H1A 3297   3.328   6.160   6.177  2.5827 -2.4668  1.7885
   29CHL1   H1B 3298   3.486   6.221   6.145 -0.8331  1.6010 -1.8220
   29CHL1    C2 3299   3.402   6.295   6.330 -0.6405  0.2327 -0.4855
   29CHL1   H2A 3300   3.429   6.209   6.394 -3.1259  1.3872  2.3395
   29CHL1   H2B 3301   3.312   6.332   6.384  0.7826 -0.0677  2.2896
   29CHL1   C20 3302   3.199   6.205   5.412  0.4068 -0.1077 -0.0309
   29CHL1   H20 3303   3.117   6.280   5.410 -0.3199 -0.8960 -0.3913
   29CHL1   C21 3304   3.140   6.071   5.472  0.5799  0.3295  0.5309
   29CHL1  H21A 3305   3.216   5.992   5.491 -1.4014 -1.3401  1.9846
   29CHL1  H21B 3306   3.065   6.024   5.405  0.9840  1.0932 -0.4897
   29CHL1  H21C 3307   3.090   6.099   5.567  0.4268  1.1085  0.2238
   29CHL1   C22 3308   3.251   6.196   5.268 -0.2160  0.3349  0.2944
   29CHL1  H22A 3309   3.292   6.294   5.236  0.5309  0.2878  1.0900
   29CHL1  H22B 3310   3.327   6.115   5.259 -1.6472 -0.9389 -0.8851
   29CHL1   C23 3311   3.133   6.158   5.168 -0.1614  0.6731  0.1603
   29CHL1  H23A 3312   3.091   6.060   5.198  1.9387 -0.2792  0.1363
   29CHL1  H23B 3313   3.061   6.243   5.173 -1.8688 -0.6552 -0.8112
   29CHL1   C24 3314   3.180   6.142   5.026  0.6621 -0.0116  0.1108
   29CHL1  H24A 3315   3.243   6.231   5.002  1.4282 -1.2296 -2.8675
   29CHL1  H24B 3316   3.243   6.051   5.020 -0.4371 -0.7902  0.1186
   29CHL1   C25 3317   3.063   6.148   4.923  0.1235 -0.1390 -0.2820
   29CHL1   H25 3318   3.108   6.135   4.822  1.0112  0.8054 -0.0236
   29CHL1   C26 3319   2.954   6.053   4.967 -0.6046  0.6254 -0.5065
   29CHL1  H26A 3320   2.888   6.030   4.880 -0.4302 -2.3381  0.0265
   29CHL1  H26B 3321   2.999   5.956   4.998  1.4914  1.7975  0.2599
   29CHL1  H26C 3322   2.890   6.106   5.040  0.1721  0.9480 -0.0616
   29CHL1   C27 3323   2.992   6.282   4.919  0.6479 -0.4047 -0.0111
   29CHL1  H27A 3324   3.056   6.366   4.885 -1.5960  1.0479 -0.8505
   29CHL1  H27B 3325   2.903   6.255   4.859  1.3625 -1.4261 -0.6537
   29CHL1  H27C 3326   2.944   6.308   5.015 -1.4158 -2.0261 -0.5220
   30CHL1    C3 3327   4.090   0.728   6.318  0.4255  0.6720 -0.1448
   30CHL1    H3 3328   3.994   0.779   6.297  2.0047  3.5730 -0.8059
   30CHL1    O3 3329   4.090   0.695   6.456  0.1225 -0.4784 -0.4051
   30CHL1   H3' 3330   4.123   0.773   6.501 -0.3732 -1.2521  1.3894
   30CHL1    C4 3331   4.115   0.599   6.235  0.0671  0.7725 -0.9643
   30CHL1   H4A 3332   4.193   0.537   6.284  1.1713  1.5786 -1.6639
   30CHL1   H4B 3333   4.025   0.541   6.265  1.2395 -0.7322 -0.2132
   30CHL1    C5 3334   4.136   0.606   6.092 -0.4284  0.0919  0.5639
   30CHL1    C6 3335   4.046   0.547   6.013 -0.9326  0.3690  0.2209
   30CHL1    H6 3336   3.969   0.478   6.052 -1.4059  0.4266 -0.6063
   30CHL1    C7 3337   4.059   0.560   5.862  0.1615 -0.3954  0.0651
   30CHL1   H7A 3338   4.051   0.463   5.809  2.7531 -0.7196  0.1395
   30CHL1   H7B 3339   3.987   0.640   5.833  0.2939 -0.0294  0.7237
   30CHL1    C8 3340   4.200   0.621   5.814 -0.1739  0.0838  0.5987
   30CHL1    H8 3341   4.262   0.533   5.843 -0.8082 -1.2204 -1.7479
   30CHL1   C14 3342   4.185   0.664   5.671  0.0949 -0.8280 -0.6624
   30CHL1   H14 3343   4.115   0.750   5.673 -0.2899 -1.1423  1.0576
   30CHL1   C15 3344   4.132   0.566   5.561  0.0120  0.0378  0.4672
   30CHL1  H15A 3345   4.195   0.477   5.586  1.8581  1.3473  0.6894
   30CHL1  H15B 3346   4.023   0.547   5.565  0.0548 -0.0298  3.0438
   30CHL1   C16 3347   4.162   0.640   5.432 -0.0564  0.2050  0.0159
   30CHL1  H16A 3348   4.219   0.576   5.361  0.5876  0.2262  0.5037
   30CHL1  H16B 3349   4.068   0.665   5.378 -0.5891 -1.7166  0.0034
   30CHL1   C17 3350   4.252   0.765   5.467 -0.2765  0.0360 -0.3363
   30CHL1   H17 3351   4.184   0.853   5.473  1.4103  1.3001  1.4664
   30CHL1   C13 3352   4.310   0.730   5.604  0.0537 -0.6295 -0.3393
   30CHL1   C18 3353   4.423   0.623   5.595 -0.1516  0.7615  0.5178
   30CHL1  H18A 3354   4.457   0.597   5.697 -1.9373 -1.5780  0.6241
   30CHL1  H18B 3355   4.395   0.524   5.552  0.4631 -0.2096  2.2658
   30CHL1  H18C 3356   4.514   0.659   5.542 -0.1045 -0.8894 -0.6129
   30CHL1   C12 3357   4.354   0.847   5.688 -0.7455 -0.0424 -0.6133
   30CHL1  H12A 3358   4.442   0.896   5.643 -0.1103 -0.0403  0.6074
   30CHL1  H12B 3359   4.271   0.920   5.675 -0.6659 -0.1893 -2.0777
   30CHL1   C11 3360   4.358   0.816   5.840 -0.7041  0.0061 -0.0478
   30CHL1  H11A 3361   4.443   0.745   5.844 -0.1137  0.6216 -1.0842
   30CHL1  H11B 3362   4.390   0.901   5.903 -0.2664 -0.7618  0.7907
   30CHL1    C9 3363   4.232   0.744   5.903  0.2940 -0.9137  0.7435
   30CHL1    H9 3364   4.146   0.813   5.890  0.7774  0.3417  3.3853
   30CHL1   C10 3365   4.234   0.716   6.051  0.4628  0.3878 -0.5688
   30CHL1   C19 3366   4.377   0.649   6.082  0.5374  0.1435  0.3771
   30CHL1  H19A 3367   4.378   0.626   6.191 -0.4791 -0.2386  0.3142
   30CHL1  H19B 3368   4.401   0.564   6.014  0.3936  0.4822 -0.0982
   30CHL1  H19C 3369   4.459   0.723   6.072  0.8150 -0.2408 -0.2356
   30CHL1    C1 3370   4.229   0.847   6.131  0.1071 -1.0013  0.1144
   30CHL1   H1A 3371   4.309   0.919   6.105  0.4157 -1.0085  1.0121
   30CHL1   H1B 3372   4.137   0.899   6.096 -0.4773 -1.7094  0.5693
   30CHL1    C2 3373   4.203   0.823   6.279 -0.3952 -0.5077 -0.5944
   30CHL1   H2A 3374   4.184   0.921   6.329 -0.3452 -0.1386 -1.2834
   30CHL1   H2B 3375   4.299   0.780   6.314 -0.6098 -1.2919 -0.9418
   30CHL1   C20 3376   4.352   0.799   5.352  0.9026 -0.4153 -0.6887
   30CHL1   H20 3377   4.430   0.720   5.351  1.2518 -0.0739 -1.4072
   30CHL1   C21 3378   4.405   0.942   5.366 -0.1999  0.9655 -0.2221
   30CHL1  H21A 3379   4.458   0.986   5.278  0.1660 -1.2889 -1.1848
   30CHL1  H21B 3380   4.481   0.960   5.445  1.3166 -0.9624 -1.1601
   30CHL1  H21C 3381   4.315   1.007   5.375 -0.8402 -0.0545  1.0124
   30CHL1   C22 3382   4.291   0.809   5.208  0.2123 -0.4764 -0.5992
   30CHL1  H22A 3383   4.210   0.734   5.193 -0.1769 -0.1592 -0.1140
   30CHL1  H22B 3384   4.229   0.901   5.211  0.4954 -0.3085  1.0491
   30CHL1   C23 3385   4.388   0.809   5.091 -0.0874 -0.8394 -0.0868
   30CHL1  H23A 3386   4.466   0.888   5.099 -1.4525  0.3929  2.4375
   30CHL1  H23B 3387   4.442   0.713   5.089 -0.3515 -1.0327  1.1521
   30CHL1   C24 3388   4.324   0.825   4.951 -0.0690  0.1150  0.6399
   30CHL1  H24A 3389   4.247   0.745   4.952 -1.2668  1.2371  1.1045
   30CHL1  H24B 3390   4.282   0.927   4.942  0.8760  0.3153 -3.7057
   30CHL1   C25 3391   4.411   0.800   4.825 -0.4754  1.7054 -1.3619
   30CHL1   H25 3392   4.345   0.819   4.737  0.3852 -0.6352 -2.6039
   30CHL1   C26 3393   4.529   0.882   4.825 -0.5178 -0.7053  0.2136
   30CHL1  H26A 3394   4.597   0.885   4.913 -1.2652  0.1249  0.7858
   30CHL1  H26B 3395   4.587   0.871   4.731 -0.7325 -0.3883  0.0410
   30CHL1  H26C 3396   4.490   0.985   4.838  3.0669  0.5295  2.3833
   30CHL1   C27 3397   4.449   0.651   4.811 -0.5881  0.8303  0.2002
   30CHL1  H27A 3398   4.477   0.639   4.705 -0.0430  2.0740  0.1874
   30CHL1  H27B 3399   4.530   0.618   4.880 -0.5194 -0.2053 -0.3616
   30CHL1  H27C 3400   4.356   0.594   4.831 -0.6364  0.9832  0.4100
   31CHL1    C3 3401   4.540   0.265   6.445  0.0011 -0.1770  0.2691
   31CHL1    H3 3402   4.460   0.339   6.423  0.4690 -0.0459 -1.0812
   31CHL1    O3 3403   4.553   0.242   6.585  0.2620 -0.3732  0.6886
   31CHL1   H3' 3404   4.619   0.174   6.601  0.9885  0.9682  4.5301
   31CHL1    C4 3405   4.524   0.129   6.377 -0.0441 -0.8812 -0.1149
   31CHL1   H4A 3406   4.601   0.059   6.415  0.0782 -1.0753 -0.7126
   31CHL1   H4B 3407   4.426   0.098   6.419 -0.0505 -0.2503  0.3599
   31CHL1    C5 3408   4.522   0.143   6.225  0.1258 -0.3914  0.4156
   31CHL1    C6 3409   4.415   0.111   6.150  0.0962  0.0762 -0.1631
   31CHL1    H6 3410   4.331   0.065   6.202 -0.3107  1.2004  0.2086
   31CHL1    C7 3411   4.415   0.120   5.998 -0.2739 -0.3618 -0.7147
   31CHL1   H7A 3412   4.365   0.032   5.953  0.7492 -1.0296 -0.5642
   31CHL1   H7B 3413   4.347   0.202   5.967 -0.5902  0.4543  1.9058
   31CHL1    C8 3414   4.552   0.145   5.936  0.3925  0.6326 -0.0816
   31CHL1    H8 3415   4.613   0.054   5.950  1.9355  1.8354  1.3718
   31CHL1   C14 3416   4.537   0.187   5.797  0.3576 -0.6665 -0.6393
   31CHL1   H14 3417   4.488   0.287   5.803  2.1237  0.2849 -1.2282
   31CHL1   C15 3418   4.449   0.107   5.705  0.5212 -0.3671  0.6081
   31CHL1  H15A 3419   4.498   0.007   5.705  0.0389 -0.7432 -3.2798
   31CHL1  H15B 3420   4.343   0.100   5.739 -0.7515 -2.0927 -3.1754
   31CHL1   C16 3421   4.470   0.170   5.567  1.2681 -0.4294  0.0094
   31CHL1  H16A 3422   4.469   0.088   5.491 -1.6491  1.1680 -1.8891
   31CHL1  H16B 3423   4.387   0.237   5.535  1.2830 -0.8642 -0.9991
   31CHL1   C17 3424   4.606   0.241   5.576  0.8228  0.4705  0.3569
   31CHL1   H17 3425   4.584   0.350   5.583 -0.5441  0.4185 -1.8933
   31CHL1   C13 3426   4.657   0.205   5.715 -0.4428  0.0527 -0.6508
   31CHL1   C18 3427   4.744   0.084   5.702  0.3803  0.4188 -0.0695
   31CHL1  H18A 3428   4.752   0.033   5.801 -1.9414  0.7276  0.3429
   31CHL1  H18B 3429   4.717   0.011   5.623  0.6956  1.3335 -1.0388
   31CHL1  H18C 3430   4.851   0.099   5.675  0.0399  1.6092 -0.8213
   31CHL1   C12 3431   4.735   0.320   5.785  0.0080 -0.0574  0.5076
   31CHL1  H12A 3432   4.828   0.345   5.731  0.7790 -2.6796  0.5299
   31CHL1  H12B 3433   4.668   0.407   5.805  0.3211  0.0905  0.9281
   31CHL1   C11 3434   4.768   0.289   5.940  0.1262 -0.4584  0.2638
   31CHL1  H11A 3435   4.837   0.202   5.940 -0.7404 -1.2966 -3.1032
   31CHL1  H11B 3436   4.800   0.383   5.989 -0.1502 -0.8719  1.2652
   31CHL1    C9 3437   4.635   0.253   6.011  0.0375  0.8156  0.4815
   31CHL1    H9 3438   4.570   0.343   6.006 -1.8929 -0.4561  1.4764
   31CHL1   C10 3439   4.648   0.216   6.163  0.2737  0.6907  0.1462
   31CHL1   C19 3440   4.763   0.122   6.186  0.1470  0.5613 -0.4071
   31CHL1  H19A 3441   4.855   0.162   6.138 -0.5700 -0.2597 -2.5888
   31CHL1  H19B 3442   4.782   0.111   6.294 -2.9042  0.0504  0.1603
   31CHL1  H19C 3443   4.735   0.023   6.144 -0.7362  0.5620  0.1608
   31CHL1    C1 3444   4.671   0.346   6.243  0.2851  0.4712  0.1480
   31CHL1   H1A 3445   4.767   0.396   6.215  0.2325  0.4414 -0.0831
   31CHL1   H1B 3446   4.586   0.414   6.220  1.4275  3.0781  3.0065
   31CHL1    C2 3447   4.670   0.337   6.398 -0.5439 -0.1761 -0.5594
   31CHL1   H2A 3448   4.667   0.438   6.444  0.7110  0.5145 -1.9312
   31CHL1   H2B 3449   4.761   0.287   6.437  0.6661  2.6910  0.5624
   31CHL1   C20 3450   4.695   0.207   5.448  0.0791 -0.2709 -0.9951
   31CHL1   H20 3451   4.735   0.104   5.457 -0.4160 -0.3046  2.0930
   31CHL1   C21 3452   4.819   0.300   5.444  0.4911  0.0226  0.1162
   31CHL1  H21A 3453   4.890   0.291   5.529  1.7942  0.2652 -0.9141
   31CHL1  H21B 3454   4.783   0.405   5.458  0.6735  0.3178 -1.4585
   31CHL1  H21C 3455   4.865   0.298   5.343 -1.6028  2.1969 -0.9850
   31CHL1   C22 3456   4.620   0.193   5.310 -0.4153 -0.0740 -0.1626
   31CHL1  H22A 3457   4.696   0.185   5.229 -1.6251  0.0088 -1.3593
   31CHL1  H22B 3458   4.557   0.101   5.310  0.8732 -1.0390 -2.7002
   31CHL1   C23 3459   4.550   0.317   5.277  0.0347 -0.1665  0.7661
   31CHL1  H23A 3460   4.487   0.357   5.360  1.5414 -1.3030  2.5216
   31CHL1  H23B 3461   4.617   0.405   5.272 -3.0186  2.3055 -0.1197
   31CHL1   C24 3462   4.459   0.307   5.155 -0.7324  0.0037  1.2625
   31CHL1  H24A 3463   4.526   0.317   5.067 -3.4890 -1.6885 -1.1998
   31CHL1  H24B 3464   4.416   0.205   5.146 -2.5498  0.7303  1.3512
   31CHL1   C25 3465   4.341   0.404   5.159 -0.5117  0.2202  0.2132
   31CHL1   H25 3466   4.379   0.506   5.183 -1.3296  1.1528 -2.2358
   31CHL1   C26 3467   4.283   0.408   5.015  0.5510  0.1286  0.7263
   31CHL1  H26A 3468   4.206   0.488   5.019  2.3759  2.0852 -1.0044
   31CHL1  H26B 3469   4.367   0.416   4.943  0.2234  1.4532  0.4616
   31CHL1  H26C 3470   4.228   0.313   4.999  2.5836 -1.1374  0.8839
   31CHL1   C27 3471   4.238   0.351   5.258 -0.2533  0.1113 -0.6083
   31CHL1  H27A 3472   4.145   0.408   5.240 -0.4285 -0.1203 -0.4334
   31CHL1  H27B 3473   4.212   0.244   5.247  0.1588  0.0876 -1.4461
   31CHL1  H27C 3474   4.268   0.350   5.365 -2.0744  1.9036 -0.0301
   32CHL1    C3 3475   5.310   5.608   6.302 -0.7789  0.5513  0.5126
   32CHL1    H3 3476   5.321   5.715   6.328  1.6336  1.6256 -3.8584
   32CHL1    O3 3477   5.228   5.543   6.402  0.7359 -0.2454  0.1914
   32CHL1   H3' 3478   5.292   5.484   6.442  0.7107  1.5209  3.0895
   32CHL1    C4 3479   5.236   5.591   6.161 -0.9394 -0.8045 -0.2845
   32CHL1   H4A 3480   5.199   5.488   6.147 -2.1656 -0.2857 -1.0073
   32CHL1   H4B 3481   5.138   5.644   6.165 -0.1618  0.9773 -2.8093
   32CHL1    C5 3482   5.316   5.643   6.041  0.7451 -0.5841  0.2701
   32CHL1    C6 3483   5.270   5.727   5.951  0.4475  0.0238  0.2090
   32CHL1    H6 3484   5.164   5.754   5.961  0.1960 -0.9211  0.2174
   32CHL1    C7 3485   5.345   5.779   5.835 -0.6113  0.3606  0.0755
   32CHL1   H7A 3486   5.277   5.766   5.749  2.1305 -5.0205 -1.7294
   32CHL1   H7B 3487   5.369   5.886   5.854  0.1353 -0.2340  2.9859
   32CHL1    C8 3488   5.473   5.697   5.813 -0.0223 -0.1510  0.3782
   32CHL1    H8 3489   5.434   5.604   5.766 -0.1976  0.5484 -0.8952
   32CHL1   C14 3490   5.569   5.778   5.718 -0.1571 -0.5127 -0.8425
   32CHL1   H14 3491   5.595   5.876   5.764 -1.2421 -0.7614  0.3799
   32CHL1   C15 3492   5.508   5.828   5.588  0.2696  0.5863  0.9337
   32CHL1  H15A 3493   5.436   5.754   5.546  2.8181 -1.3453 -0.2828
   32CHL1  H15B 3494   5.460   5.927   5.606  1.1594  1.0310  0.8856
   32CHL1   C16 3495   5.617   5.831   5.483 -0.7149 -0.9441  0.0050
   32CHL1  H16A 3496   5.586   5.758   5.405  0.2832  0.8794 -2.1955
   32CHL1  H16B 3497   5.622   5.930   5.434 -0.1096 -1.2425 -0.5487
   32CHL1   C17 3498   5.749   5.779   5.556 -0.0749 -0.4536 -0.0445
   32CHL1   H17 3499   5.796   5.868   5.604 -3.6342  1.1233  0.8430
   32CHL1   C13 3500   5.689   5.694   5.667  1.1823  0.3186 -0.8037
   32CHL1   C18 3501   5.634   5.557   5.606  0.4150  0.3011  0.7234
   32CHL1  H18A 3502   5.595   5.489   5.684  1.4040 -0.5880  0.4762
   32CHL1  H18B 3503   5.558   5.561   5.525  1.4122 -1.9750 -0.4434
   32CHL1  H18C 3504   5.723   5.509   5.558  2.0006  2.7036  1.0910
   32CHL1   C12 3505   5.776   5.675   5.794 -0.4898 -0.0161 -0.4031
   32CHL1  H12A 3506   5.875   5.630   5.772 -0.6525 -0.4638 -0.2381
   32CHL1  H12B 3507   5.795   5.779   5.826 -0.3171  0.0702 -0.7835
   32CHL1   C11 3508   5.687   5.605   5.904 -0.7853 -0.5941  0.0624
   32CHL1  H11A 3509   5.684   5.497   5.879 -0.4675 -0.2731 -1.4063
   32CHL1  H11B 3510   5.749   5.606   5.997  2.5834  3.2934 -1.9459
   32CHL1    C9 3511   5.551   5.674   5.936 -0.1926 -0.3024 -0.1789
   32CHL1    H9 3512   5.577   5.774   5.976  1.7234 -0.4523 -0.9359
   32CHL1   C10 3513   5.468   5.592   6.044 -0.3022 -0.5234  0.2175
   32CHL1   C19 3514   5.469   5.440   6.009 -0.4829  0.9647  0.0007
   32CHL1  H19A 3515   5.392   5.391   6.071  2.2825 -0.4582  2.5705
   32CHL1  H19B 3516   5.448   5.425   5.901  0.3765 -0.6742  0.0232
   32CHL1  H19C 3517   5.569   5.395   6.031 -0.0672  1.8154 -0.0756
   32CHL1    C1 3518   5.527   5.610   6.185 -0.1397 -0.6496 -0.0407
   32CHL1   H1A 3519   5.630   5.571   6.184  0.7351  1.4969  0.5452
   32CHL1   H1B 3520   5.532   5.720   6.201 -0.5299 -0.3469 -1.7385
   32CHL1    C2 3521   5.446   5.547   6.297 -0.7410  0.2585  0.6964
   32CHL1   H2A 3522   5.483   5.574   6.398  0.6566  3.3620 -0.5237
   32CHL1   H2B 3523   5.427   5.438   6.285 -2.6721  0.6533 -0.0218
   32CHL1   C20 3524   5.852   5.715   5.461 -0.3454 -0.9195 -0.1413
   32CHL1   H20 3525   5.811   5.621   5.419  0.0309 -0.8496 -0.6678
   32CHL1   C21 3526   5.984   5.667   5.532 -0.1072 -0.1662 -0.1443
   32CHL1  H21A 3527   5.961   5.564   5.567 -1.5371 -1.2411 -3.7725
   32CHL1  H21B 3528   6.016   5.737   5.611  1.8167  0.7564 -1.6540
   32CHL1  H21C 3529   6.073   5.664   5.466 -1.1050 -4.0910 -1.6049
   32CHL1   C22 3530   5.890   5.798   5.334  0.8779  0.5830  0.1451
   32CHL1  H22A 3531   5.971   5.745   5.279 -0.4977 -1.4750 -0.0266
   32CHL1  H22B 3532   5.797   5.792   5.272 -0.6708 -2.2055  2.4893
   32CHL1   C23 3533   5.934   5.948   5.360 -0.4312  0.3780  0.3864
   32CHL1  H23A 3534   5.850   6.008   5.401  0.1572  1.0172  0.6674
   32CHL1  H23B 3535   6.018   5.948   5.432 -0.5982 -0.0310  0.5816
   32CHL1   C24 3536   5.989   6.018   5.229  0.5033  0.8407  0.6814
   32CHL1  H24A 3537   6.017   6.122   5.255  0.9973  1.5366 -2.2249
   32CHL1  H24B 3538   6.074   5.960   5.187 -0.4173  1.1661 -1.8256
   32CHL1   C25 3539   5.887   6.021   5.116 -0.5891 -0.0980 -0.4390
   32CHL1   H25 3540   5.864   5.919   5.080 -2.2562 -0.8411  2.4866
   32CHL1   C26 3541   5.749   6.088   5.154 -0.6423  0.1148  0.0935
   32CHL1  H26A 3542   5.764   6.174   5.223  0.0223  1.1659 -1.3044
   32CHL1  H26B 3543   5.689   6.127   5.069 -3.7626  0.2928  2.2067
   32CHL1  H26C 3544   5.685   6.020   5.213 -1.2951  0.0640 -0.6632
   32CHL1   C27 3545   5.955   6.084   4.989  1.3062  0.2287  0.3100
   32CHL1  H27A 3546   6.041   6.017   4.971  0.6837 -0.7213  0.7712
   32CHL1  H27B 3547   5.884   6.077   4.903  0.5328  0.7310  0.8910
   32CHL1  H27C 3548   5.990   6.185   5.017 -1.8913  1.2507  1.0208
   33CHL1    C3 3549   3.847   6.205   6.383  0.8049  0.5693  0.4028
   33CHL1    H3 3550   3.737   6.222   6.383  0.8742  1.0728 -0.7468
   33CHL1    O3 3551   3.876   6.218   6.525 -0.6450 -0.1945 -0.4318
   33CHL1   H3' 3552   3.967   6.191   6.538 -0.9892  0.0759  3.5033
   33CHL1    C4 3553   3.877   6.067   6.321  0.6165  0.1144  0.0877
   33CHL1   H4A 3554   3.982   6.046   6.350  0.2915  0.7014  1.7789
   33CHL1   H4B 3555   3.827   5.978   6.364  0.3199 -0.5345 -1.5078
   33CHL1    C5 3556   3.845   6.061   6.174 -0.0771  0.1974  0.3375
   33CHL1    C6 3557   3.757   5.975   6.129 -0.1903  1.0367  0.2289
   33CHL1    H6 3558   3.706   5.900   6.193 -1.5594 -0.2227 -2.1762
   33CHL1    C7 3559   3.716   5.963   5.989  0.3402  0.6607 -0.5401
   33CHL1   H7A 3560   3.730   5.857   5.958  0.8305  0.1113  1.4563
   33CHL1   H7B 3561   3.608   5.984   5.976  0.1526  0.3310  0.4181
   33CHL1    C8 3562   3.802   6.033   5.886 -0.2182 -0.1387  0.0792
   33CHL1    H8 3563   3.896   5.975   5.873 -1.1386 -1.8338  0.6966
   33CHL1   C14 3564   3.728   6.072   5.761 -0.1682 -0.4787  0.1704
   33CHL1   H14 3565   3.649   6.143   5.794  0.3625  0.9885 -1.5343
   33CHL1   C15 3566   3.665   5.957   5.685 -0.1336 -0.2337  0.2634
   33CHL1  H15A 3567   3.728   5.866   5.670 -0.6187 -0.6869  0.8890
   33CHL1  H15B 3568   3.574   5.925   5.740 -0.3319  1.3408  0.9079
   33CHL1   C16 3569   3.623   6.024   5.556 -0.2650 -0.5935  0.6518
   33CHL1  H16A 3570   3.653   5.960   5.471  1.5804 -0.2746  1.0162
   33CHL1  H16B 3571   3.513   6.039   5.561 -0.2698 -0.9611  1.9074
   33CHL1   C17 3572   3.704   6.159   5.534  0.4391  0.4038  0.3407
   33CHL1   H17 3573   3.639   6.249   5.546 -0.8489 -0.2521 -1.2303
   33CHL1   C13 3574   3.795   6.156   5.654 -0.8744  0.3644  1.0004
   33CHL1   C18 3575   3.924   6.080   5.619 -0.1573 -0.6412  0.5353
   33CHL1  H18A 3576   3.898   5.985   5.568  0.0021  0.8149 -2.4834
   33CHL1  H18B 3577   3.973   6.143   5.541  0.5992 -1.3043  0.4571
   33CHL1  H18C 3578   3.997   6.059   5.701  0.1053  2.1443  1.1134
   33CHL1   C12 3579   3.836   6.292   5.713 -0.0090 -0.7130  0.6277
   33CHL1  H12A 3580   3.910   6.335   5.641  0.9528 -1.8471  0.9170
   33CHL1  H12B 3581   3.748   6.357   5.731  0.8189  0.3833  0.8063
   33CHL1   C11 3582   3.911   6.267   5.839  0.0725  0.1733 -0.1303
   33CHL1  H11A 3583   4.014   6.229   5.819  0.1445 -0.8470  1.9028
   33CHL1  H11B 3584   3.929   6.368   5.881  0.7882 -0.0669  0.1706
   33CHL1    C9 3585   3.845   6.170   5.943  0.2980 -0.1259 -0.1528
   33CHL1    H9 3586   3.749   6.226   5.957  1.6870  2.8891 -1.6172
   33CHL1   C10 3587   3.909   6.167   6.082  0.4312 -0.3234 -0.0337
   33CHL1   C19 3588   4.058   6.136   6.079 -1.1312 -0.1097  0.5451
   33CHL1  H19A 3589   4.105   6.221   6.024 -0.6062 -0.8435 -0.1716
   33CHL1  H19B 3590   4.108   6.138   6.178  1.0434 -0.3952 -0.4825
   33CHL1  H19C 3591   4.079   6.039   6.030  0.0768  0.0914  0.6126
   33CHL1    C1 3592   3.898   6.309   6.150 -0.3630 -0.0484 -0.6647
   33CHL1   H1A 3593   3.967   6.375   6.094  1.5598 -0.2862  1.2962
   33CHL1   H1B 3594   3.792   6.343   6.142 -0.9349 -0.9093  2.0706
   33CHL1    C2 3595   3.927   6.314   6.301  0.6130 -0.2767  0.1148
   33CHL1   H2A 3596   3.895   6.411   6.345  0.6614 -0.0565 -0.3372
   33CHL1   H2B 3597   4.035   6.299   6.321  0.6770 -0.0481 -0.0673
   33CHL1   C20 3598   3.750   6.163   5.386  0.7265 -0.2254 -0.6719
   33CHL1   H20 3599   3.825   6.087   5.354 -0.3880 -0.4424 -3.0115
   33CHL1   C21 3600   3.805   6.305   5.361 -0.5347 -0.2370  0.1041
   33CHL1  H21A 3601   3.725   6.381   5.353 -0.5515 -0.2364  0.2795
   33CHL1  H21B 3602   3.866   6.298   5.268  0.3121  1.1069  0.5364
   33CHL1  H21C 3603   3.878   6.328   5.441  0.4459 -1.9414 -0.2339
   33CHL1   C22 3604   3.639   6.138   5.288  0.0923 -0.6017  0.2607
   33CHL1  H22A 3605   3.578   6.050   5.316 -1.8757  0.9661  1.1496
   33CHL1  H22B 3606   3.573   6.227   5.295  0.7624 -0.0811  0.0771
   33CHL1   C23 3607   3.691   6.128   5.140  0.3143  0.2490  0.0298
   33CHL1  H23A 3608   3.746   6.219   5.106  2.9441 -1.2493 -0.0084
   33CHL1  H23B 3609   3.763   6.043   5.145  1.3568  1.1838  1.7349
   33CHL1   C24 3610   3.564   6.090   5.054 -0.5345 -0.2222  0.6524
   33CHL1  H24A 3611   3.521   5.993   5.088 -5.5638  0.4904 -2.6091
   33CHL1  H24B 3612   3.485   6.167   5.065 -0.1846 -0.0559  2.2072
   33CHL1   C25 3613   3.610   6.085   4.907  0.0700 -0.4773  0.1616
   33CHL1   H25 3614   3.648   6.185   4.877 -1.3936 -0.3173 -1.3430
   33CHL1   C26 3615   3.697   5.967   4.873 -0.2483 -0.3368  0.3940
   33CHL1  H26A 3616   3.636   5.876   4.893 -1.6824  0.0680 -1.8129
   33CHL1  H26B 3617   3.718   5.949   4.766 -0.0495 -2.1930  0.7186
   33CHL1  H26C 3618   3.791   5.958   4.931 -0.0363  0.1624  0.1310
   33CHL1   C27 3619   3.481   6.081   4.833 -0.1197  0.3622 -0.4106
   33CHL1  H27A 3620   3.437   6.183   4.845  2.3477  1.3184  1.3762
   33CHL1  H27B 3621   3.494   6.058   4.725  1.0093 -1.5528  0.0831
   33CHL1  H27C 3622   3.415   5.998   4.866  0.2835 -0.1683 -0.9405
   34CHL1    C3 3623   3.241   1.027   6.597  0.1300 -0.0757 -0.1459
   34CHL1    H3 3624   3.286   0.926   6.595 -0.3901 -0.3084 -0.3342
   34CHL1    O3 3625   3.209   1.060   6.727  0.0622 -0.1420 -0.0343
   34CHL1   H3' 3626   3.294   1.074   6.768 -0.3199 -0.3061  0.8510
   34CHL1    C4 3627   3.330   1.131   6.534  0.1924 -0.1579  0.0920
   34CHL1   H4A 3628   3.278   1.226   6.560 -1.1883 -0.8677 -0.0147
   34CHL1   H4B 3629   3.425   1.133   6.593  1.0757  2.5319 -1.2294
   34CHL1    C5 3630   3.365   1.110   6.387  0.6287  0.0049 -0.0494
   34CHL1    C6 3631   3.491   1.104   6.338  0.5144  0.2169 -0.2691
   34CHL1    H6 3632   3.575   1.125   6.405 -0.0861  2.5638 -0.1626
   34CHL1    C7 3633   3.520   1.107   6.194 -0.2938  0.6108  0.3314
   34CHL1   H7A 3634   3.604   1.176   6.170  0.5651 -1.1881 -2.2079
   34CHL1   H7B 3635   3.571   1.011   6.172  0.4074  1.1340 -0.3716
   34CHL1    C8 3636   3.396   1.126   6.101  0.1730 -0.0727 -0.2630
   34CHL1    H8 3637   3.366   1.233   6.102 -1.7196 -0.5399  1.9509
   34CHL1   C14 3638   3.425   1.078   5.960  0.7337  0.3355 -0.0320
   34CHL1   H14 3639   3.434   0.968   5.967  0.9613  0.2998 -0.7724
   34CHL1   C15 3640   3.549   1.121   5.879 -0.3321  0.8175 -0.8025
   34CHL1  H15A 3641   3.558   1.231   5.890 -1.3596  0.7900  0.7289
   34CHL1  H15B 3642   3.639   1.071   5.921 -0.7267 -0.5305 -1.4972
   34CHL1   C16 3643   3.522   1.088   5.737  0.4071  0.2626 -0.3729
   34CHL1  H16A 3644   3.567   1.159   5.665 -1.1803 -0.6439 -2.3666
   34CHL1  H16B 3645   3.557   0.985   5.715  2.0014  0.2788  1.7752
   34CHL1   C17 3646   3.365   1.078   5.722 -0.3391 -0.7405  0.0426
   34CHL1   H17 3647   3.343   0.971   5.704  1.7736 -1.2411  0.1069
   34CHL1   C13 3648   3.309   1.112   5.865  0.2138  0.1914 -0.0507
   34CHL1   C18 3649   3.276   1.260   5.871  0.7318 -0.5852 -0.3736
   34CHL1  H18A 3650   3.228   1.298   5.964 -2.9348  1.0425 -2.7025
   34CHL1  H18B 3651   3.362   1.330   5.862 -0.1994  0.9785  1.8156
   34CHL1  H18C 3652   3.208   1.288   5.787 -0.2824 -1.4583  0.1307
   34CHL1   C12 3653   3.186   1.018   5.908  0.4783 -0.4827  0.3130
   34CHL1  H12A 3654   3.095   1.039   5.847  0.4120 -1.1956  0.1578
   34CHL1  H12B 3655   3.219   0.915   5.881 -2.7568 -1.7351  0.6023
   34CHL1   C11 3656   3.160   1.027   6.057  0.3299  0.6759 -0.2579
   34CHL1  H11A 3657   3.089   1.112   6.063 -2.0741 -1.1399 -1.3634
   34CHL1  H11B 3658   3.094   0.941   6.082  0.0665  0.6481 -1.0348
   34CHL1    C9 3659   3.281   1.040   6.155  0.2337 -0.6317  0.2994
   34CHL1    H9 3660   3.326   0.939   6.169  2.2337  0.1597 -0.2094
   34CHL1   C10 3661   3.239   1.089   6.293 -0.4197  0.3067 -0.4274
   34CHL1   C19 3662   3.155   1.221   6.290 -0.0414 -0.7137 -0.7311
   34CHL1  H19A 3663   3.053   1.210   6.245 -0.8347  1.1050  0.4745
   34CHL1  H19B 3664   3.138   1.254   6.394  1.2913  0.1211 -0.7569
   34CHL1  H19C 3665   3.204   1.299   6.228  4.1727 -0.8584  2.0839
   34CHL1    C1 3666   3.150   0.984   6.361 -0.3420 -0.4726  0.0543
   34CHL1   H1A 3667   3.063   0.985   6.293  0.7664  1.7924 -1.4638
   34CHL1   H1B 3668   3.191   0.881   6.360 -0.7442 -0.6299 -0.7298
   34CHL1    C2 3669   3.116   1.005   6.511  0.1104  0.4089  0.0739
   34CHL1   H2A 3670   3.052   0.917   6.534  0.1322  0.1230 -0.9149
   34CHL1   H2B 3671   3.052   1.095   6.524  0.5160  0.8662 -0.9815
   34CHL1   C20 3672   3.306   1.143   5.587  0.5445 -0.1802 -0.1589
   34CHL1   H20 3673   3.317   1.253   5.601  1.3255 -0.2465 -0.1757
   34CHL1   C21 3674   3.154   1.108   5.587  0.0011 -0.2225 -0.3999
   34CHL1  H21A 3675   3.103   1.170   5.510 -3.0633  1.1033  2.4868
   34CHL1  H21B 3676   3.110   1.139   5.684 -2.2743 -0.8149 -1.1912
   34CHL1  H21C 3677   3.136   0.999   5.572  0.4444 -0.3461 -0.0486
   34CHL1   C22 3678   3.371   1.100   5.457  0.0644  0.7789 -0.0321
   34CHL1  H22A 3679   3.481   1.085   5.459 -0.0781 -0.2647  1.4649
   34CHL1  H22B 3680   3.333   1.001   5.424 -0.9105  1.5724 -1.4083
   34CHL1   C23 3681   3.349   1.200   5.342 -0.7177  0.5072 -0.2095
   34CHL1  H23A 3682   3.240   1.216   5.324 -0.5418  1.0738 -0.7973
   34CHL1  H23B 3683   3.396   1.295   5.377  1.8973 -0.8881  0.3062
   34CHL1   C24 3684   3.414   1.154   5.206  0.3031  0.0780  0.5180
   34CHL1  H24A 3685   3.522   1.181   5.207  0.7096 -1.4382  0.0883
   34CHL1  H24B 3686   3.398   1.045   5.192  0.0758  0.1646  0.0591
   34CHL1   C25 3687   3.365   1.227   5.081  0.4522 -0.4129  0.9931
   34CHL1   H25 3688   3.435   1.215   4.996 -1.1513  0.3349 -0.4955
   34CHL1   C26 3689   3.227   1.172   5.032 -0.2860 -0.7221  0.0307
   34CHL1  H26A 3690   3.230   1.069   4.990  0.1838 -0.3192 -0.9448
   34CHL1  H26B 3691   3.157   1.182   5.118 -0.4139 -0.3114 -0.1201
   34CHL1  H26C 3692   3.191   1.236   4.949 -3.7575 -0.6221  1.4521
   34CHL1   C27 3693   3.361   1.381   5.099 -0.1931 -0.2235 -0.0369
   34CHL1  H27A 3694   3.266   1.415   5.146  0.0711  0.3810  0.0684
   34CHL1  H27B 3695   3.453   1.416   5.151  0.5771  1.0133 -2.1322
   34CHL1  H27C 3696   3.378   1.430   5.001  2.1108  0.6011  0.7235
   35CHL1    C3 3697   3.510   0.681   6.588  0.5154  0.7661 -0.6573
   35CHL1    H3 3698   3.441   0.769   6.588  1.7426  1.7775  0.7348
   35CHL1    O3 3699   3.533   0.641   6.726 -0.2780 -0.1954 -0.5488
   35CHL1   H3' 3700   3.450   0.602   6.755  1.9313 -1.8994  4.4457
   35CHL1    C4 3701   3.426   0.570   6.517 -0.2146 -0.4184  0.2369
   35CHL1   H4A 3702   3.474   0.473   6.542 -0.4920 -0.8590 -0.8575
   35CHL1   H4B 3703   3.326   0.571   6.566 -0.7709  0.2047 -0.8760
   35CHL1    C5 3704   3.406   0.587   6.366  0.6743  0.0052 -0.3770
   35CHL1    C6 3705   3.285   0.590   6.306 -0.0259 -0.2433  0.6744
   35CHL1    H6 3706   3.199   0.575   6.372  1.5432  1.3721  3.2716
   35CHL1    C7 3707   3.271   0.610   6.158  0.1176  0.7599  0.3430
   35CHL1   H7A 3708   3.187   0.549   6.117  0.1233  0.2643  1.0643
   35CHL1   H7B 3709   3.241   0.715   6.140 -0.2713  0.5224 -0.4999
   35CHL1    C8 3710   3.402   0.578   6.088 -0.0554 -0.5072 -0.0308
   35CHL1    H8 3711   3.422   0.471   6.112 -0.7982 -0.5255  0.5275
   35CHL1   C14 3712   3.382   0.607   5.941  1.0859 -0.1194 -0.0177
   35CHL1   H14 3713   3.347   0.712   5.943  0.2754 -0.2200 -3.2229
   35CHL1   C15 3714   3.282   0.530   5.856  0.2464  0.6950  0.4431
   35CHL1  H15A 3715   3.307   0.423   5.867  2.7705  0.7021 -3.2774
   35CHL1  H15B 3716   3.174   0.551   5.872 -0.1386 -0.1048 -0.9217
   35CHL1   C16 3717   3.318   0.569   5.712 -0.2505  0.5527 -0.5733
   35CHL1  H16A 3718   3.342   0.476   5.655  0.7283  1.7910 -2.2495
   35CHL1  H16B 3719   3.232   0.629   5.676 -2.3738 -0.8098  1.9139
   35CHL1   C17 3720   3.449   0.651   5.720  0.5894  0.5400 -0.7058
   35CHL1   H17 3721   3.411   0.755   5.731 -1.6048 -0.2789  0.0951
   35CHL1   C13 3722   3.511   0.613   5.855  0.6021  0.4988 -0.2972
   35CHL1   C18 3723   3.563   0.466   5.862 -0.2387 -0.8924  0.2909
   35CHL1  H18A 3724   3.498   0.390   5.815 -0.1519  0.3772 -2.0436
   35CHL1  H18B 3725   3.656   0.451   5.803  1.0998  2.6698  1.1989
   35CHL1  H18C 3726   3.584   0.440   5.968 -1.9703  0.1324  0.9208
   35CHL1   C12 3727   3.612   0.705   5.919  0.1032 -0.2695  0.1583
   35CHL1  H12A 3728   3.706   0.694   5.860  0.0135  0.6418 -0.1706
   35CHL1  H12B 3729   3.587   0.814   5.919  0.0599 -0.2791 -0.1316
   35CHL1   C11 3730   3.645   0.658   6.062  0.0546 -0.3605 -0.5690
   35CHL1  H11A 3731   3.693   0.558   6.062  0.7796 -0.0888  2.3737
   35CHL1  H11B 3732   3.714   0.731   6.108 -0.6287  0.0239 -0.1307
   35CHL1    C9 3733   3.519   0.659   6.153  0.2698  0.1901  0.2320
   35CHL1    H9 3734   3.490   0.766   6.140  1.1168  0.1440 -2.7885
   35CHL1   C10 3735   3.544   0.616   6.300  0.1517  0.0959  0.2299
   35CHL1   C19 3736   3.639   0.494   6.295  0.4476 -0.5388  0.5213
   35CHL1  H19A 3737   3.601   0.424   6.217 -0.2617  0.6858 -0.2683
   35CHL1  H19B 3738   3.739   0.523   6.256 -0.3224  0.3839 -0.8811
   35CHL1  H19C 3739   3.656   0.434   6.387  1.6969 -0.3121  0.4546
   35CHL1    C1 3740   3.618   0.732   6.371  0.1012  0.3798  0.0517
   35CHL1   H1A 3741   3.713   0.754   6.317  0.9396  1.2111  1.7759
   35CHL1   H1B 3742   3.564   0.828   6.356 -0.7263 -0.2295 -0.9446
   35CHL1    C2 3743   3.641   0.709   6.518  0.5757  0.4989  0.6963
   35CHL1   H2A 3744   3.693   0.800   6.555  2.2798  0.5267 -1.5244
   35CHL1   H2B 3745   3.706   0.618   6.526 -1.0180 -0.8008 -0.6225
   35CHL1   C20 3746   3.542   0.662   5.598  0.0186 -0.3688 -0.3739
   35CHL1   H20 3747   3.633   0.717   5.631 -0.0931  0.1292 -0.8760
   35CHL1   C21 3748   3.474   0.765   5.497  0.6291  0.7461 -0.4378
   35CHL1  H21A 3749   3.468   0.863   5.549 -1.1563  0.0363  0.8129
   35CHL1  H21B 3750   3.371   0.729   5.477  1.3630 -2.6049  1.0413
   35CHL1  H21C 3751   3.520   0.783   5.398  2.3776  1.1692  0.4097
   35CHL1   C22 3752   3.571   0.528   5.526  0.3440  0.7536 -0.1064
   35CHL1  H22A 3753   3.595   0.449   5.600  3.4056 -0.4557 -2.1899
   35CHL1  H22B 3754   3.483   0.496   5.466 -0.1049  1.3538  0.2199
   35CHL1   C23 3755   3.702   0.531   5.438  0.5003  0.2090  0.2456
   35CHL1  H23A 3756   3.677   0.591   5.347  0.3955  1.3963  1.0276
   35CHL1  H23B 3757   3.792   0.580   5.481  1.6044 -2.8360  1.6316
   35CHL1   C24 3758   3.756   0.391   5.391 -0.2090  0.1084  0.1616
   35CHL1  H24A 3759   3.858   0.415   5.354  0.5954 -2.1474  0.7852
   35CHL1  H24B 3760   3.771   0.330   5.482 -0.8508  0.5158  0.5535
   35CHL1   C25 3761   3.681   0.315   5.281  0.4529 -0.6913  0.4102
   35CHL1   H25 3762   3.576   0.297   5.311  0.5852 -1.2647  0.5421
   35CHL1   C26 3763   3.675   0.392   5.149 -0.3451  0.0932  0.5055
   35CHL1  H26A 3764   3.609   0.327   5.087 -0.3106  0.6671 -0.1421
   35CHL1  H26B 3765   3.631   0.495   5.153  0.2876  0.4807 -1.4952
   35CHL1  H26C 3766   3.772   0.385   5.095  0.3741  1.3025  1.6002
   35CHL1   C27 3767   3.748   0.177   5.258  0.4941 -0.5088  0.4890
   35CHL1  H27A 3768   3.858   0.184   5.242  0.1375 -0.8111 -2.6507
   35CHL1  H27B 3769   3.725   0.116   5.348 -1.6322 -0.0114  0.3445
   35CHL1  H27C 3770   3.707   0.129   5.167 -1.9304  1.2963  0.5087
   36CHL1    C3 3771   2.327   5.491   6.517 -0.8114 -0.6076 -0.5091
   36CHL1    H3 3772   2.217   5.477   6.521 -0.7013 -1.2476  1.1713
   36CHL1    O3 3773   2.385   5.483   6.650  0.3985 -0.5361 -0.2646
   36CHL1   H3' 3774   2.458   5.545   6.659  0.2864 -0.6487  1.9010
   36CHL1    C4 3775   2.395   5.380   6.440  0.4820 -0.1803  0.0730
   36CHL1   H4A 3776   2.504   5.375   6.461  0.2525  0.5187  1.5437
   36CHL1   H4B 3777   2.350   5.285   6.478  1.4161 -0.4469  0.5389
   36CHL1    C5 3778   2.375   5.372   6.284  0.2924  0.1794 -0.0286
   36CHL1    C6 3779   2.345   5.255   6.218  0.5200 -0.1326 -0.7266
   36CHL1    H6 3780   2.334   5.166   6.281 -1.0429  1.7017  1.7473
   36CHL1    C7 3781   2.330   5.255   6.064 -0.0545 -0.9816 -0.1816
   36CHL1   H7A 3782   2.373   5.163   6.017  0.2789 -2.2686  2.4296
   36CHL1   H7B 3783   2.222   5.262   6.040 -0.1192  0.4966  0.4218
   36CHL1    C8 3784   2.393   5.386   5.995 -0.1592 -0.2396 -0.3599
   36CHL1    H8 3785   2.504   5.382   6.001 -0.0613 -0.6380 -1.8577
   36CHL1   C14 3786   2.346   5.391   5.852  0.0070  0.3241 -0.0026
   36CHL1   H14 3787   2.236   5.404   5.847  0.2439  2.3142 -1.8320
   36CHL1   C15 3788   2.382   5.274   5.755  0.2020  0.4889  0.1952
   36CHL1  H15A 3789   2.479   5.229   5.783 -0.8285 -2.6333 -0.7886
   36CHL1  H15B 3790   2.315   5.186   5.763  1.5878 -0.5041  1.2506
   36CHL1   C16 3791   2.379   5.337   5.609 -0.9511  0.1473 -0.5245
   36CHL1  H16A 3792   2.478   5.319   5.562 -0.1829  0.1471  0.9980
   36CHL1  H16B 3793   2.304   5.280   5.550  0.9671 -0.1981 -2.7612
   36CHL1   C17 3794   2.355   5.490   5.629 -0.1794  1.0515  0.5472
   36CHL1   H17 3795   2.245   5.502   5.623 -0.1897  0.9541  0.5366
   36CHL1   C13 3796   2.390   5.521   5.778 -0.4594 -0.8205 -0.4894
   36CHL1   C18 3797   2.548   5.532   5.779  0.2662  0.4587 -0.2705
   36CHL1  H18A 3798   2.601   5.444   5.738 -1.4364 -0.0613 -1.4328
   36CHL1  H18B 3799   2.589   5.620   5.725 -0.9602  1.1399 -0.1147
   36CHL1  H18C 3800   2.585   5.545   5.883  3.3551  0.7540 -1.2968
   36CHL1   C12 3801   2.324   5.640   5.847 -0.4790 -0.0258 -0.3221
   36CHL1  H12A 3802   2.336   5.737   5.794 -0.4832  0.1403 -0.0190
   36CHL1  H12B 3803   2.215   5.622   5.843 -0.3594 -0.6743 -1.0097
   36CHL1   C11 3804   2.344   5.644   5.999 -0.3920 -0.7619 -0.0148
   36CHL1  H11A 3805   2.444   5.693   5.991  0.4169 -2.5198 -1.5327
   36CHL1  H11B 3806   2.268   5.714   6.040 -0.5752  1.2721 -3.4033
   36CHL1    C9 3807   2.339   5.511   6.075  0.4359  0.2122  1.2147
   36CHL1    H9 3808   2.234   5.475   6.076 -0.0840  1.6126  0.1382
   36CHL1   C10 3809   2.386   5.510   6.219  0.3707 -0.0286  0.2272
   36CHL1   C19 3810   2.536   5.556   6.215 -0.0986 -0.6475  0.1375
   36CHL1  H19A 3811   2.595   5.487   6.151 -1.3750 -0.1230 -1.6803
   36CHL1  H19B 3812   2.549   5.659   6.174  0.5827  0.0126  1.9135
   36CHL1  H19C 3813   2.588   5.554   6.313 -0.2916 -1.3721  0.2323
   36CHL1    C1 3814   2.316   5.619   6.302  0.6510  0.1063  0.1871
   36CHL1   H1A 3815   2.324   5.720   6.256 -1.1394  0.0017 -0.4586
   36CHL1   H1B 3816   2.206   5.600   6.307  0.7955 -0.4659  1.6155
   36CHL1    C2 3817   2.351   5.626   6.449  0.5338  0.1249  0.1218
   36CHL1   H2A 3818   2.293   5.699   6.511  0.1124 -2.5926  3.1983
   36CHL1   H2B 3819   2.460   5.645   6.444  0.3710  0.6976 -3.5585
   36CHL1   C20 3820   2.432   5.565   5.515  1.0044  0.4155  0.8345
   36CHL1   H20 3821   2.540   5.554   5.536  0.4920 -1.5929  2.8718
   36CHL1   C21 3822   2.389   5.712   5.515  0.1588 -0.5891  0.0430
   36CHL1  H21A 3823   2.420   5.765   5.422  2.0973  1.5455  1.7921
   36CHL1  H21B 3824   2.428   5.773   5.599 -0.4340  1.2208 -0.9365
   36CHL1  H21C 3825   2.280   5.725   5.531  0.0504  0.2143 -1.1931
   36CHL1   C22 3826   2.401   5.505   5.372  0.2730 -0.2842 -0.3343
   36CHL1  H22A 3827   2.437   5.400   5.384  3.2174  0.9260  3.4187
   36CHL1  H22B 3828   2.291   5.506   5.352  0.6501 -0.1338 -2.7272
   36CHL1   C23 3829   2.485   5.561   5.253 -0.4730 -0.1004  0.5159
   36CHL1  H23A 3830   2.451   5.663   5.227  1.1626  0.4634  0.4817
   36CHL1  H23B 3831   2.590   5.578   5.286 -1.0673  2.3413  1.2970
   36CHL1   C24 3832   2.477   5.477   5.132  0.3681  0.0229  0.4559
   36CHL1  H24A 3833   2.503   5.372   5.159 -0.1997 -1.0466 -2.7268
   36CHL1  H24B 3834   2.372   5.481   5.096  0.4703  3.0067  0.2880
   36CHL1   C25 3835   2.570   5.525   5.009 -0.5244 -0.6301  0.2176
   36CHL1   H25 3836   2.537   5.453   4.931 -1.1351 -0.2366  0.1105
   36CHL1   C26 3837   2.531   5.657   4.955 -0.8822  0.0383  0.6371
   36CHL1  H26A 3838   2.573   5.662   4.852  0.0386 -0.9816  0.9510
   36CHL1  H26B 3839   2.421   5.657   4.942 -0.7578 -1.5475 -0.7250
   36CHL1  H26C 3840   2.567   5.740   5.020 -1.1419 -1.6150  2.9974
   36CHL1   C27 3841   2.716   5.500   5.023 -0.0215 -0.0279 -0.0705
   36CHL1  H27A 3842   2.751   5.559   5.110 -0.7788 -1.1115  0.9966
   36CHL1  H27B 3843   2.732   5.391   5.037  1.1462  0.3185  1.5242
   36CHL1  H27C 3844   2.776   5.533   4.936  1.5646  0.5922  1.2087
   37CHL1    C3 3845   3.223   3.308   6.511 -0.8837 -0.4839  0.5480
   37CHL1    H3 3846   3.324   3.347   6.491 -0.5244 -2.3920 -1.8111
   37CHL1    O3 3847   3.206   3.296   6.645  0.1555  0.3024 -0.4355
   37CHL1   H3' 3848   3.218   3.381   6.690  1.4043  0.9343 -1.8831
   37CHL1    C4 3849   3.107   3.388   6.451 -0.5202  0.5406 -0.1914
   37CHL1   H4A 3850   3.010   3.337   6.471  0.6148 -2.0094 -0.7034
   37CHL1   H4B 3851   3.103   3.488   6.498  1.8888  1.1291 -1.1005
   37CHL1    C5 3852   3.120   3.408   6.300 -0.2298 -0.1834  0.1097
   37CHL1    C6 3853   3.099   3.530   6.245 -0.0242  0.0406 -0.0717
   37CHL1    H6 3854   3.078   3.623   6.300 -0.4586  0.0808 -0.2949
   37CHL1    C7 3855   3.102   3.548   6.100  0.3641  0.1682  0.0131
   37CHL1   H7A 3856   3.012   3.607   6.071  1.6486  1.4610 -1.5250
   37CHL1   H7B 3857   3.190   3.612   6.080  1.2773 -0.4052  1.9531
   37CHL1    C8 3858   3.106   3.423   6.017  0.1422 -0.4289  0.1674
   37CHL1    H8 3859   3.000   3.392   6.000 -0.4223  1.5166 -0.1654
   37CHL1   C14 3860   3.157   3.456   5.876  0.2799 -0.2880  0.1599
   37CHL1   H14 3861   3.263   3.487   5.886  0.1984 -0.2780  1.0769
   37CHL1   C15 3862   3.092   3.581   5.803 -0.3552 -0.2436  0.1696
   37CHL1  H15A 3863   2.983   3.562   5.797 -0.9457  3.0193 -1.6735
   37CHL1  H15B 3864   3.095   3.681   5.851 -3.0664 -0.0976  0.1787
   37CHL1   C16 3865   3.154   3.569   5.663  0.5735 -1.0678 -0.3267
   37CHL1  H16A 3866   3.077   3.577   5.584  1.2499 -0.9515 -0.9919
   37CHL1  H16B 3867   3.234   3.640   5.635 -0.1419 -0.1607 -0.0888
   37CHL1   C17 3868   3.224   3.426   5.665  0.0025  0.1118  0.4997
   37CHL1   H17 3869   3.330   3.448   5.692 -0.6428  0.0192  3.4819
   37CHL1   C13 3870   3.170   3.343   5.779  0.1802  0.3595 -0.3275
   37CHL1   C18 3871   3.023   3.305   5.742  0.0953  0.0656  0.2072
   37CHL1  H18A 3872   2.957   3.277   5.827 -2.7934  0.9399 -1.6184
   37CHL1  H18B 3873   2.959   3.377   5.686 -3.0778 -1.5430  1.4961
   37CHL1  H18C 3874   3.030   3.207   5.690  1.2828 -1.1238  2.4494
   37CHL1   C12 3875   3.263   3.232   5.845  0.0216 -0.5113  0.6020
   37CHL1  H12A 3876   3.271   3.149   5.772 -0.3297  0.8651 -1.0632
   37CHL1  H12B 3877   3.366   3.269   5.867 -0.0080 -1.4921  2.6825
   37CHL1   C11 3878   3.198   3.198   5.981  0.5626  0.3477 -0.0483
   37CHL1  H11A 3879   3.099   3.153   5.959  0.2767  0.9883 -0.0897
   37CHL1  H11B 3880   3.259   3.120   6.032 -1.4107 -0.9292  0.4744
   37CHL1    C9 3881   3.193   3.316   6.077  0.4115  0.0434  0.2111
   37CHL1    H9 3882   3.299   3.349   6.081  0.8575 -1.3332  0.0371
   37CHL1   C10 3883   3.146   3.283   6.220 -0.1458 -0.3077  0.0390
   37CHL1   C19 3884   3.010   3.202   6.216  0.1031 -0.0071  0.1804
   37CHL1  H19A 3885   3.017   3.106   6.161 -1.3410 -0.3288  0.4986
   37CHL1  H19B 3886   2.986   3.182   6.323  2.1691  0.1685  0.7188
   37CHL1  H19C 3887   2.922   3.263   6.185 -1.6041 -1.6762  1.5228
   37CHL1    C1 3888   3.261   3.200   6.288 -0.4140 -0.1346 -0.7358
   37CHL1   H1A 3889   3.255   3.095   6.251  0.1423 -0.6336  0.5252
   37CHL1   H1B 3890   3.361   3.246   6.272  0.1717 -0.7817  0.8506
   37CHL1    C2 3891   3.232   3.174   6.438 -0.6424  0.3231 -0.3910
   37CHL1   H2A 3892   3.310   3.103   6.473  0.3267  0.2818 -2.5236
   37CHL1   H2B 3893   3.146   3.107   6.461 -0.3191 -0.4170 -1.2525
   37CHL1   C20 3894   3.225   3.360   5.527 -0.4614  0.4037 -0.3966
   37CHL1   H20 3895   3.118   3.342   5.505 -0.0931  0.3083 -2.1801
   37CHL1   C21 3896   3.309   3.230   5.519  0.0689  0.1842 -0.1980
   37CHL1  H21A 3897   3.254   3.144   5.562 -3.6026  1.3118 -2.2048
   37CHL1  H21B 3898   3.409   3.243   5.566  0.1495 -2.1243  0.3899
   37CHL1  H21C 3899   3.325   3.208   5.412  0.5823  1.1268 -0.3211
   37CHL1   C22 3900   3.285   3.455   5.422  0.6041  0.1343  0.5133
   37CHL1  H22A 3901   3.260   3.563   5.427  1.4316  0.3198  0.6986
   37CHL1  H22B 3902   3.394   3.438   5.431  0.7712  2.0415  3.7946
   37CHL1   C23 3903   3.229   3.419   5.280 -0.5445 -0.2022  0.1841
   37CHL1  H23A 3904   3.244   3.310   5.261  0.0755  0.2146 -1.9662
   37CHL1  H23B 3905   3.118   3.429   5.280 -0.4454  1.1495  0.9227
   37CHL1   C24 3906   3.290   3.506   5.166  0.0953  0.2766 -0.2111
   37CHL1  H24A 3907   3.249   3.609   5.175  2.4884  1.2187  0.9164
   37CHL1  H24B 3908   3.400   3.511   5.183  0.2322 -1.3937 -0.4086
   37CHL1   C25 3909   3.254   3.452   5.024  0.2421 -0.7955  0.3464
   37CHL1   H25 3910   3.150   3.415   5.026 -0.0891 -0.0045 -1.1348
   37CHL1   C26 3911   3.265   3.579   4.928 -0.2742  0.2739 -0.4415
   37CHL1  H26A 3912   3.251   3.554   4.821 -1.8969  0.8310 -0.3889
   37CHL1  H26B 3913   3.187   3.658   4.938 -1.6495 -1.2490  1.5628
   37CHL1  H26C 3914   3.364   3.627   4.947 -0.1599  0.3598 -1.2319
   37CHL1   C27 3915   3.340   3.339   4.969  0.0309  0.4251 -0.0136
   37CHL1  H27A 3916   3.448   3.363   4.981 -0.1642  1.2722  0.1334
   37CHL1  H27B 3917   3.333   3.242   5.022 -1.0282 -0.1011 -1.0618
   37CHL1  H27C 3918   3.324   3.324   4.860  0.1543 -1.3548  0.1854
   38CHL1    C3 3919   4.227   4.014   6.730 -0.1467 -0.4773  0.1778
   38CHL1    H3 3920   4.318   4.062   6.688  0.4043 -1.1833  0.5551
   38CHL1    O3 3921   4.199   4.058   6.862  0.3794 -0.7604 -0.8030
   38CHL1   H3' 3922   4.274   4.018   6.906 -1.4342 -2.8827  0.5727
   38CHL1    C4 3923   4.109   4.062   6.640 -0.2802 -0.0063 -0.3551
   38CHL1   H4A 3924   4.021   4.003   6.674 -0.2014  0.2645  0.3274
   38CHL1   H4B 3925   4.085   4.170   6.652  0.5748  0.2701 -1.0446
   38CHL1    C5 3926   4.132   4.023   6.491 -0.2165  0.2935 -0.2100
   38CHL1    C6 3927   4.149   4.116   6.392 -0.2301  0.4243 -0.9476
   38CHL1    H6 3928   4.146   4.221   6.422 -0.7062  0.6937 -1.9087
   38CHL1    C7 3929   4.171   4.071   6.254 -0.2183 -0.2911 -0.2742
   38CHL1   H7A 3930   4.107   4.136   6.191  0.0009  0.8577  0.6474
   38CHL1   H7B 3931   4.276   4.091   6.224  0.5968 -0.1689  2.3849
   38CHL1    C8 3932   4.125   3.932   6.218  0.0414  0.4580  0.6778
   38CHL1    H8 3933   4.014   3.929   6.222  0.0182  0.5864  0.1605
   38CHL1   C14 3934   4.181   3.890   6.083  0.1609  0.0091  0.3903
   38CHL1   H14 3935   4.290   3.876   6.099  0.1408 -0.1266  0.4099
   38CHL1   C15 3936   4.170   3.985   5.959 -1.0508 -0.4087 -0.6661
   38CHL1  H15A 3937   4.066   4.023   5.947 -0.7104  0.3421 -1.3236
   38CHL1  H15B 3938   4.245   4.066   5.962 -3.0541  1.5590 -0.8508
   38CHL1   C16 3939   4.205   3.900   5.837  0.5951 -0.3533 -0.1060
   38CHL1  H16A 3940   4.135   3.922   5.754  0.9609  2.8037  0.3115
   38CHL1  H16B 3941   4.309   3.923   5.806  0.5325  0.3974  0.2039
   38CHL1   C17 3942   4.195   3.753   5.889 -0.2686 -0.1499  0.7075
   38CHL1   H17 3943   4.300   3.717   5.902 -0.2037 -0.2565 -0.0633
   38CHL1   C13 3944   4.141   3.753   6.031  0.4436  0.9833  0.0759
   38CHL1   C18 3945   3.985   3.749   6.029 -0.6182  0.1672  0.0912
   38CHL1  H18A 3946   3.950   3.828   5.960 -0.5959  0.4603  0.4114
   38CHL1  H18B 3947   3.949   3.660   5.973  1.2923 -0.7627  0.2839
   38CHL1  H18C 3948   3.949   3.740   6.134  2.5226  0.9707  1.3370
   38CHL1   C12 3949   4.186   3.646   6.133 -0.0571 -0.4895 -0.1938
   38CHL1  H12A 3950   4.166   3.542   6.097  2.8007 -1.2003  0.0160
   38CHL1  H12B 3951   4.297   3.649   6.127  0.0710  0.5994  1.7786
   38CHL1   C11 3952   4.138   3.682   6.274 -0.1548  0.3611  0.4337
   38CHL1  H11A 3953   4.035   3.642   6.289 -0.7157  1.9240  0.9293
   38CHL1  H11B 3954   4.195   3.623   6.349  0.3570 -0.0224 -0.2513
   38CHL1    C9 3955   4.172   3.831   6.317  0.3153  1.0631 -0.2074
   38CHL1    H9 3956   4.283   3.828   6.309  0.3497  0.2326  0.4266
   38CHL1   C10 3957   4.137   3.870   6.464  0.5109 -0.2190  0.5817
   38CHL1   C19 3958   4.006   3.796   6.499 -0.0207  0.5295 -0.3794
   38CHL1  H19A 3959   3.979   3.820   6.604  2.3431 -2.2451  1.0267
   38CHL1  H19B 3960   3.917   3.818   6.437 -0.8341  0.6470  0.7938
   38CHL1  H19C 3961   4.013   3.686   6.514 -1.3797  0.5034  0.2221
   38CHL1    C1 3962   4.241   3.817   6.565  0.3576 -0.1707 -0.0108
   38CHL1   H1A 3963   4.244   3.707   6.549  2.5445 -0.0597 -0.7631
   38CHL1   H1B 3964   4.340   3.845   6.522  1.2742 -2.5119  0.4144
   38CHL1    C2 3965   4.238   3.870   6.711 -0.0796  0.7512  0.5216
   38CHL1   H2A 3966   4.329   3.838   6.765 -1.7763 -1.4949  2.2298
   38CHL1   H2B 3967   4.149   3.820   6.753 -0.0077 -0.8604 -1.0905
   38CHL1   C20 3968   4.138   3.656   5.785  0.4668  0.2035 -0.0266
   38CHL1   H20 3969   4.032   3.685   5.773  0.4163  0.0927  0.1535
   38CHL1   C21 3970   4.134   3.514   5.845 -0.4487 -0.3965  0.8656
   38CHL1  H21A 3971   4.237   3.486   5.877 -0.1684 -1.4982 -0.8440
   38CHL1  H21B 3972   4.100   3.447   5.763 -2.4839  0.3922  1.0072
   38CHL1  H21C 3973   4.062   3.500   5.929 -0.7356 -1.5800  0.4518
   38CHL1   C22 3974   4.208   3.658   5.643  1.1788 -0.1696  0.0512
   38CHL1  H22A 3975   4.204   3.764   5.608  0.0668  0.2444  1.3513
   38CHL1  H22B 3976   4.313   3.629   5.662  1.3381  1.1814  1.3799
   38CHL1   C23 3977   4.147   3.554   5.541 -0.3673  0.5727  0.6378
   38CHL1  H23A 3978   4.168   3.451   5.576 -2.0087 -0.4616 -1.2183
   38CHL1  H23B 3979   4.039   3.573   5.521 -0.2885 -0.7278 -1.4087
   38CHL1   C24 3980   4.228   3.544   5.405 -0.3511 -0.0141 -0.3207
   38CHL1  H24A 3981   4.223   3.648   5.366  0.9231  0.1833  0.0095
   38CHL1  H24B 3982   4.334   3.529   5.432 -0.0081 -1.5938 -2.2526
   38CHL1   C25 3983   4.177   3.431   5.311 -0.2384 -0.2294  0.2157
   38CHL1   H25 3984   4.094   3.380   5.365  0.8016 -0.4753  1.6490
   38CHL1   C26 3985   4.136   3.499   5.180 -0.2009  0.1681 -0.4893
   38CHL1  H26A 3986   4.213   3.569   5.141 -1.2430  0.9710 -1.1575
   38CHL1  H26B 3987   4.111   3.420   5.105  0.1904  0.0219 -0.4699
   38CHL1  H26C 3988   4.050   3.567   5.190 -1.1118 -0.8086 -1.3942
   38CHL1   C27 3989   4.285   3.330   5.282 -0.8799  0.0303  0.2273
   38CHL1  H27A 3990   4.386   3.365   5.250  1.3467 -4.3949  1.5576
   38CHL1  H27B 3991   4.314   3.271   5.372 -0.4280  0.4063  0.3336
   38CHL1  H27C 3992   4.257   3.253   5.207 -2.7532  0.3703  0.5514
   39CHL1    C3 3993   5.977   2.854   6.281  0.8154  0.5761  0.1844
   39CHL1    H3 3994   5.925   2.952   6.281  1.4890  0.9484 -0.3591
   39CHL1    O3 3995   6.008   2.804   6.410 -0.3526 -0.7556 -0.0501
   39CHL1   H3' 3996   6.087   2.854   6.432 -1.1282  0.0565  1.0355
   39CHL1    C4 3997   5.895   2.744   6.208 -0.3593 -0.3708  0.2551
   39CHL1   H4A 3998   5.958   2.653   6.215 -1.8636 -1.5144 -0.4037
   39CHL1   H4B 3999   5.803   2.734   6.268  0.4848  2.4548  2.2119
   39CHL1    C5 4000   5.864   2.787   6.063  0.4982  0.3808 -0.3337
   39CHL1    C6 4001   5.737   2.795   6.016 -0.2828  0.1510 -0.4238
   39CHL1    H6 4002   5.653   2.762   6.079 -2.0481  0.9063 -2.2967
   39CHL1    C7 4003   5.706   2.836   5.873  0.6710  0.4795  0.6288
   39CHL1   H7A 4004   5.622   2.768   5.846  1.2642  0.5428 -1.4980
   39CHL1   H7B 4005   5.669   2.939   5.857 -1.2256 -0.4205 -1.2068
   39CHL1    C8 4006   5.823   2.811   5.777 -0.2749  0.0896  0.3469
   39CHL1    H8 4007   5.829   2.700   5.771 -1.4933 -0.0324  1.0178
   39CHL1   C14 4008   5.808   2.876   5.639  0.0830  0.3873  0.5109
   39CHL1   H14 4009   5.797   2.985   5.660 -1.4591 -0.1645  2.9278
   39CHL1   C15 4010   5.677   2.842   5.555  0.5238  0.2525 -0.4340
   39CHL1  H15A 4011   5.654   2.734   5.552 -0.9840  0.5042  0.6836
   39CHL1  H15B 4012   5.592   2.893   5.605 -0.0692  0.2752 -1.4343
   39CHL1   C16 4013   5.709   2.899   5.422 -0.1804 -0.0523  0.7869
   39CHL1  H16A 4014   5.693   2.820   5.344 -0.9119  1.4096 -0.6165
   39CHL1  H16B 4015   5.656   2.989   5.384  0.9644 -0.8957 -3.3857
   39CHL1   C17 4016   5.864   2.939   5.416 -0.7829  0.4301 -0.0197
   39CHL1   H17 4017   5.878   3.049   5.431  0.5954  0.4661 -1.3821
   39CHL1   C13 4018   5.925   2.872   5.541 -0.4323  0.5654 -0.1986
   39CHL1   C18 4019   5.956   2.722   5.513 -0.4242 -0.1994  0.6525
   39CHL1  H18A 4020   5.883   2.685   5.438  0.4493  1.5169 -1.1203
   39CHL1  H18B 4021   6.053   2.714   5.460 -0.6545  0.3387  0.1502
   39CHL1  H18C 4022   5.959   2.656   5.603 -0.7979 -0.0830  0.7508
   39CHL1   C12 4023   6.043   2.952   5.599 -0.2213  0.6042 -0.1031
   39CHL1  H12A 4024   6.140   2.942   5.546  0.5060  0.1127  1.2544
   39CHL1  H12B 4025   6.024   3.060   5.614  0.2063  1.0538 -2.4717
   39CHL1   C11 4026   6.076   2.879   5.735  0.3359 -0.7894 -0.3835
   39CHL1  H11A 4027   6.123   2.780   5.713  0.5208 -0.9671  0.7342
   39CHL1  H11B 4028   6.147   2.951   5.783 -0.7788  1.0266 -1.3729
   39CHL1    C9 4029   5.951   2.873   5.836 -0.4054 -0.6302  0.4419
   39CHL1    H9 4030   5.921   2.978   5.854 -2.3138 -0.9911 -0.4085
   39CHL1   C10 4031   5.986   2.820   5.977 -0.5645  0.5303 -0.6308
   39CHL1   C19 4032   6.070   2.692   5.961  0.3890  0.8129  0.3502
   39CHL1  H19A 4033   6.018   2.616   5.899  1.0792  1.0074 -0.4917
   39CHL1  H19B 4034   6.164   2.714   5.906  1.0910 -3.0455 -0.2958
   39CHL1  H19C 4035   6.098   2.655   6.062 -2.4468  0.4832  1.1000
   39CHL1    C1 4036   6.071   2.919   6.060  0.0057 -0.3335  0.4164
   39CHL1   H1A 4037   6.162   2.954   6.008  0.4952 -0.7943  0.9569
   39CHL1   H1B 4038   6.024   3.020   6.065 -1.3878 -0.8988 -0.6279
   39CHL1    C2 4039   6.107   2.883   6.205  0.1649  0.2033 -0.1911
   39CHL1   H2A 4040   6.163   2.961   6.262  1.2163 -0.6895  0.0324
   39CHL1   H2B 4041   6.179   2.799   6.199 -0.1086  0.0143 -0.8718
   39CHL1   C20 4042   5.936   2.909   5.281 -0.1313  0.7821  1.2439
   39CHL1   H20 4043   5.945   2.800   5.264  0.5224  1.1952 -1.5956
   39CHL1   C21 4044   6.087   2.954   5.281  0.6347  0.1234  0.3841
   39CHL1  H21A 4045   6.142   2.934   5.186  0.5346 -1.5144  0.6361
   39CHL1  H21B 4046   6.141   2.894   5.357  0.6689 -1.6135 -0.9239
   39CHL1  H21C 4047   6.096   3.058   5.317 -0.4366 -0.0761  1.2832
   39CHL1   C22 4048   5.861   2.972   5.156  0.1324 -0.2627 -0.5246
   39CHL1  H22A 4049   5.942   2.967   5.080  0.5300 -0.6314 -0.0863
   39CHL1  H22B 4050   5.782   2.902   5.122  2.0261 -1.9249 -1.7714
   39CHL1   C23 4051   5.820   3.112   5.179  0.4509 -1.0654 -0.1009
   39CHL1  H23A 4052   5.732   3.123   5.247  0.4012 -0.3088 -0.2813
   39CHL1  H23B 4053   5.898   3.163   5.239 -1.7988 -0.7675  2.7947
   39CHL1   C24 4054   5.780   3.188   5.051 -0.6692 -0.8139  0.0342
   39CHL1  H24A 4055   5.753   3.292   5.079 -3.3536 -1.4022 -0.0820
   39CHL1  H24B 4056   5.865   3.191   4.980 -1.1517 -0.5432 -0.5458
   39CHL1   C25 4057   5.651   3.127   4.981 -0.8756 -0.2714 -0.3982
   39CHL1   H25 4058   5.676   3.023   4.948 -1.3363  0.0558 -1.8402
   39CHL1   C26 4059   5.535   3.150   5.084  0.1179  0.5877 -0.0477
   39CHL1  H26A 4060   5.441   3.125   5.031  1.1988  1.6557 -2.5960
   39CHL1  H26B 4061   5.540   3.092   5.179  0.7546 -0.0140 -0.4378
   39CHL1  H26C 4062   5.536   3.257   5.111  1.5939  1.6981 -3.8480
   39CHL1   C27 4063   5.629   3.195   4.846 -0.0231 -0.1412 -0.0276
   39CHL1  H27A 4064   5.618   3.304   4.863  1.5808  0.3271 -1.6695
   39CHL1  H27B 4065   5.712   3.188   4.773 -0.6575  0.9611 -0.8884
   39CHL1  H27C 4066   5.532   3.164   4.800 -0.3714 -1.2051  1.3596
   40CHL1    C3 4067   4.780   5.656   6.003  0.9426 -0.4545  0.2948
   40CHL1    H3 4068   4.784   5.764   5.978 -1.5758 -0.3722  0.0470
   40CHL1    O3 4069   4.784   5.631   6.142 -0.6960 -0.5955 -0.0633
   40CHL1   H3' 4070   4.700   5.657   6.180 -0.1252  0.7338  0.3532
   40CHL1    C4 4071   4.645   5.602   5.954 -0.6330  0.6804  0.5559
   40CHL1   H4A 4072   4.637   5.494   5.978 -2.0822  0.7907  0.6240
   40CHL1   H4B 4073   4.561   5.652   6.007 -0.3488  0.7677  0.9299
   40CHL1    C5 4074   4.638   5.617   5.805 -0.1565  0.1703 -0.4333
   40CHL1    C6 4075   4.538   5.685   5.754  0.1771  0.4386  0.9159
   40CHL1    H6 4076   4.469   5.734   5.824  1.3709 -0.0870  2.5258
   40CHL1    C7 4077   4.520   5.712   5.603  0.2269  0.1454 -0.4359
   40CHL1   H7A 4078   4.411   5.709   5.584  0.0103  3.3122 -0.2348
   40CHL1   H7B 4079   4.551   5.813   5.570  1.0897 -0.5668 -1.9309
   40CHL1    C8 4080   4.601   5.609   5.525  0.3984  0.9003  0.3307
   40CHL1    H8 4081   4.551   5.511   5.540  1.3159  0.6397  1.9893
   40CHL1   C14 4082   4.592   5.651   5.377 -0.6567 -0.2916 -0.2276
   40CHL1   H14 4083   4.634   5.754   5.375 -2.7780  0.6134 -1.0606
   40CHL1   C15 4084   4.461   5.666   5.309  0.1674  0.2788  0.3050
   40CHL1  H15A 4085   4.412   5.566   5.320  0.3388 -0.0578 -1.5522
   40CHL1  H15B 4086   4.393   5.735   5.363 -0.2269 -2.1438  3.1889
   40CHL1   C16 4087   4.498   5.689   5.158  0.0379 -0.0779 -0.6010
   40CHL1  H16A 4088   4.427   5.644   5.085 -0.0487 -2.9522  1.1009
   40CHL1  H16B 4089   4.498   5.800   5.155 -0.8627 -0.0604 -0.2302
   40CHL1   C17 4090   4.650   5.648   5.153 -0.5693 -0.1833 -0.4493
   40CHL1   H17 4091   4.707   5.741   5.178 -1.5697  0.2877  0.1440
   40CHL1   C13 4092   4.683   5.571   5.282  0.3410 -0.8215 -0.8029
   40CHL1   C18 4093   4.639   5.422   5.265  0.0477 -0.0601 -0.4006
   40CHL1  H18A 4094   4.720   5.371   5.209 -0.7409  0.0752 -1.7053
   40CHL1  H18B 4095   4.637   5.370   5.363  1.0546  0.4642 -0.0908
   40CHL1  H18C 4096   4.539   5.404   5.219 -0.9505 -0.4422  1.7759
   40CHL1   C12 4097   4.831   5.577   5.334 -0.2235 -0.2467  0.3321
   40CHL1  H12A 4098   4.914   5.540   5.270 -1.5743 -1.7456 -0.6296
   40CHL1  H12B 4099   4.853   5.686   5.337 -1.2218 -0.0573  1.3926
   40CHL1   C11 4100   4.845   5.526   5.479  0.4717 -0.1981  0.1072
   40CHL1  H11A 4101   4.829   5.416   5.479  0.0549 -0.1381  0.3419
   40CHL1  H11B 4102   4.952   5.532   5.511 -0.4315 -1.6010  3.8844
   40CHL1    C9 4103   4.746   5.594   5.574  1.2582  0.0229 -1.0273
   40CHL1    H9 4104   4.783   5.699   5.573  2.2606 -0.2980 -0.0812
   40CHL1   C10 4105   4.754   5.553   5.725 -0.1382 -0.5530  0.0662
   40CHL1   C19 4106   4.746   5.398   5.724 -0.0881  0.2439 -1.3060
   40CHL1  H19A 4107   4.654   5.382   5.664 -1.2023  1.9890 -0.1795
   40CHL1  H19B 4108   4.845   5.363   5.687  0.7765 -1.1979  2.0509
   40CHL1  H19C 4109   4.730   5.354   5.825 -1.8164  2.8396 -0.3499
   40CHL1    C1 4110   4.884   5.615   5.789 -0.4861  0.1490 -0.1690
   40CHL1   H1A 4111   4.973   5.570   5.741  0.6356  2.0631  0.0430
   40CHL1   H1B 4112   4.890   5.724   5.770  3.2302 -0.1377 -1.3881
   40CHL1    C2 4113   4.897   5.592   5.932 -0.6518  0.1221 -0.5631
   40CHL1   H2A 4114   4.988   5.647   5.967 -1.1517  1.0710 -0.7181
   40CHL1   H2B 4115   4.907   5.484   5.957 -2.0443  0.6089  2.5445
   40CHL1   C20 4116   4.702   5.603   5.021  0.3762 -0.0728  1.1073
   40CHL1   H20 4117   4.709   5.492   5.029  3.3736  0.0077  0.8151
   40CHL1   C21 4118   4.851   5.641   4.997 -0.6213  0.9570 -0.2877
   40CHL1  H21A 4119   4.864   5.749   5.019  1.1356  0.4296  1.4855
   40CHL1  H21B 4120   4.885   5.610   4.896 -0.9616 -0.3610 -0.0123
   40CHL1  H21C 4121   4.910   5.586   5.073  0.3886 -1.4166 -2.6271
   40CHL1   C22 4122   4.610   5.633   4.893  0.6600 -0.8213 -0.1578
   40CHL1  H22A 4123   4.505   5.598   4.908  0.2432 -0.4939 -2.0202
   40CHL1  H22B 4124   4.594   5.742   4.896  2.5166 -0.5441  1.3665
   40CHL1   C23 4125   4.654   5.586   4.751  0.7203 -0.7390  0.2183
   40CHL1  H23A 4126   4.745   5.639   4.717  0.2129 -0.1327 -0.2027
   40CHL1  H23B 4127   4.676   5.478   4.736 -0.7732 -1.1238  0.6746
   40CHL1   C24 4128   4.553   5.628   4.640  0.3130  0.1571  0.3146
   40CHL1  H24A 4129   4.459   5.572   4.657  1.3565 -1.6727  0.2788
   40CHL1  H24B 4130   4.528   5.737   4.637 -0.5586 -0.0458 -0.1035
   40CHL1   C25 4131   4.610   5.590   4.495  0.0284 -0.6710  0.8313
   40CHL1   H25 4132   4.706   5.644   4.477  0.2846 -1.3542  0.1033
   40CHL1   C26 4133   4.625   5.448   4.461  0.1119  0.1029  0.1148
   40CHL1  H26A 4134   4.660   5.433   4.357 -1.0028  3.1658 -0.8081
   40CHL1  H26B 4135   4.695   5.395   4.528 -1.9627  0.0029  2.3512
   40CHL1  H26C 4136   4.526   5.397   4.469 -0.1927  0.6148 -0.3009
   40CHL1   C27 4137   4.511   5.653   4.396  0.7921  0.5012  0.3339
   40CHL1  H27A 4138   4.495   5.758   4.427  0.1845  0.8988 -1.2467
   40CHL1  H27B 4139   4.545   5.649   4.291 -0.1074 -0.0215  0.0519
   40CHL1  H27C 4140   4.418   5.593   4.405  1.2313 -0.1616  0.5990
   41CHL1    C3 4141   0.996   1.284   6.938 -0.5240  0.0612 -0.5068
   41CHL1    H3 4142   0.966   1.182   6.906  1.4613 -0.3468 -1.2456
   41CHL1    O3 4143   0.986   1.286   7.084  0.3359  0.0711  0.3471
   41CHL1   H3' 4144   1.054   1.229   7.121  0.0755  0.4019  1.3764
   41CHL1    C4 4145   1.139   1.310   6.884 -0.0015  0.0878  0.5319
   41CHL1   H4A 4146   1.167   1.414   6.909  1.4030  0.0605 -0.7972
   41CHL1   H4B 4147   1.203   1.240   6.943  0.0605 -1.6487 -1.4510
   41CHL1    C5 4148   1.153   1.310   6.732  0.7868  0.3586 -0.4199
   41CHL1    C6 4149   1.238   1.224   6.674 -0.8937  0.0560 -0.1990
   41CHL1    H6 4150   1.303   1.164   6.739 -0.3510  0.4812 -0.3429
   41CHL1    C7 4151   1.245   1.209   6.524  0.0425 -0.9681 -0.1631
   41CHL1   H7A 4152   1.351   1.216   6.494 -0.0232  1.7135 -0.0475
   41CHL1   H7B 4153   1.199   1.111   6.497 -0.9387 -0.8954  1.1468
   41CHL1    C8 4154   1.159   1.320   6.452 -0.5348  0.1981  0.9790
   41CHL1    H8 4155   1.214   1.416   6.448 -1.7611  1.0234  2.7868
   41CHL1   C14 4156   1.142   1.275   6.308  0.2195  0.2173 -0.2613
   41CHL1   H14 4157   1.086   1.179   6.305  1.8642 -0.7565 -1.7636
   41CHL1   C15 4158   1.271   1.233   6.234  0.0465  0.1641 -0.3360
   41CHL1  H15A 4159   1.347   1.312   6.254  0.3900 -0.2230 -0.0909
   41CHL1  H15B 4160   1.303   1.134   6.272  1.3206  0.3675 -0.8154
   41CHL1   C16 4161   1.229   1.238   6.086 -0.2640 -0.4223 -0.2044
   41CHL1  H16A 4162   1.311   1.295   6.038  1.1133 -0.7788  1.6181
   41CHL1  H16B 4163   1.229   1.131   6.053 -1.3600 -0.4385 -0.1940
   41CHL1   C17 4164   1.084   1.299   6.084 -0.1887 -0.6801  0.3321
   41CHL1   H17 4165   1.017   1.211   6.097 -0.4360 -0.1510  3.4154
   41CHL1   C13 4166   1.071   1.372   6.214 -0.8762 -0.1814 -0.4747
   41CHL1   C18 4167   1.126   1.518   6.212  0.6896 -0.8443  0.4421
   41CHL1  H18A 4168   1.142   1.561   6.313  1.6864  0.5889 -0.2847
   41CHL1  H18B 4169   1.230   1.526   6.173  0.1623 -2.8992 -1.5681
   41CHL1  H18C 4170   1.055   1.580   6.154  1.2934  1.0940  1.6952
   41CHL1   C12 4171   0.926   1.389   6.269 -0.1388  0.1449 -0.1657
   41CHL1  H12A 4172   0.872   1.461   6.204  1.2775 -0.9434 -2.6847
   41CHL1  H12B 4173   0.872   1.294   6.250  0.8068 -0.3608 -0.3419
   41CHL1   C11 4174   0.929   1.425   6.423 -0.0707 -0.3462  0.7419
   41CHL1  H11A 4175   0.957   1.533   6.423  0.4431 -0.4794  1.1738
   41CHL1  H11B 4176   0.826   1.428   6.464  0.8220 -2.5214  3.4635
   41CHL1    C9 4177   1.025   1.340   6.515  0.1146 -0.5241  0.4065
   41CHL1    H9 4178   0.980   1.239   6.504  1.3552 -0.8885 -2.2909
   41CHL1   C10 4179   1.038   1.389   6.665 -0.2378  0.0129  0.3483
   41CHL1   C19 4180   1.074   1.542   6.658  0.2851 -0.3678 -0.2210
   41CHL1  H19A 4181   1.084   1.584   6.760 -1.2844 -2.2361  0.7790
   41CHL1  H19B 4182   1.173   1.558   6.611  1.1234 -1.5085  1.0734
   41CHL1  H19C 4183   0.996   1.606   6.612  0.3520  0.1709  0.4119
   41CHL1    C1 4184   0.900   1.373   6.721  0.0715  0.0122  0.4786
   41CHL1   H1A 4185   0.836   1.446   6.667  2.0229  0.5478 -1.2411
   41CHL1   H1B 4186   0.860   1.275   6.688  0.0507  0.9871 -2.7557
   41CHL1    C2 4187   0.893   1.381   6.877 -0.1758  0.7824  0.1734
   41CHL1   H2A 4188   0.791   1.345   6.904  0.7021 -1.5477  0.6025
   41CHL1   H2B 4189   0.919   1.486   6.905 -1.0150  0.5427  2.0631
   41CHL1   C20 4190   1.053   1.375   5.949  0.0041 -0.0369 -0.2539
   41CHL1   H20 4191   1.107   1.472   5.948  3.3582 -1.6770  1.9873
   41CHL1   C21 4192   0.902   1.390   5.949 -0.1763  0.2310  0.3083
   41CHL1  H21A 4193   0.872   1.489   5.991  0.1603 -0.0333  1.1843
   41CHL1  H21B 4194   0.851   1.308   6.003 -0.7657  0.7862  0.6155
   41CHL1  H21C 4195   0.868   1.390   5.843  0.4061 -1.1103  0.1055
   41CHL1   C22 4196   1.107   1.295   5.828 -0.0231 -0.5308  0.0113
   41CHL1  H22A 4197   1.211   1.259   5.845  0.3766  0.4405 -0.3204
   41CHL1  H22B 4198   1.049   1.206   5.794  0.4160 -0.6134 -0.5299
   41CHL1   C23 4199   1.116   1.379   5.689 -0.5546 -0.1530  0.0673
   41CHL1  H23A 4200   1.012   1.417   5.672  0.2371  3.0696  1.5990
   41CHL1  H23B 4201   1.191   1.460   5.701  1.3964 -2.0743  1.6770
   41CHL1   C24 4202   1.152   1.283   5.577  0.3356 -0.2944 -0.3104
   41CHL1  H24A 4203   1.246   1.241   5.617  1.3759  2.0702 -0.1028
   41CHL1  H24B 4204   1.076   1.202   5.565 -0.1486 -0.2791  2.0670
   41CHL1   C25 4205   1.164   1.350   5.445 -0.3971 -0.6110 -0.1669
   41CHL1   H25 4206   1.105   1.444   5.450  1.2114  0.4893 -0.8784
   41CHL1   C26 4207   1.320   1.394   5.425  0.6909  0.8842  0.4757
   41CHL1  H26A 4208   1.319   1.474   5.348  1.3343  0.9827  0.5674
   41CHL1  H26B 4209   1.372   1.441   5.510 -0.9448  0.7199  1.6166
   41CHL1  H26C 4210   1.380   1.305   5.396  1.9250  0.8456  2.9200
   41CHL1   C27 4211   1.125   1.265   5.317  0.2041  0.4228  0.4240
   41CHL1  H27A 4212   1.165   1.309   5.223  0.0370 -2.7937 -1.2867
   41CHL1  H27B 4213   1.166   1.163   5.327 -0.4075  0.0361 -0.8333
   41CHL1  H27C 4214   1.015   1.261   5.308 -0.1099  3.1273  1.7513
   42CHL1    C3 4215   0.583   4.016   6.195 -0.5811  0.2137 -0.1060
   42CHL1    H3 4216   0.563   3.934   6.123  1.8102  1.9864 -3.0141
   42CHL1    O3 4217   0.511   3.999   6.319 -0.6348 -0.2270  0.3089
   42CHL1   H3' 4218   0.514   3.905   6.335  2.8389 -0.5215 -1.1546
   42CHL1    C4 4219   0.735   4.007   6.220 -0.8611 -0.1405  1.2534
   42CHL1   H4A 4220   0.761   4.091   6.288  1.3817  1.6211 -1.5503
   42CHL1   H4B 4221   0.763   3.906   6.257  3.8618  0.0504 -0.9998
   42CHL1    C5 4222   0.808   4.037   6.088  0.1134  0.4570 -0.0183
   42CHL1    C6 4223   0.908   3.956   6.044  0.2520 -0.5234 -1.1739
   42CHL1    H6 4224   0.936   3.864   6.098  2.3465 -0.1112 -1.4684
   42CHL1    C7 4225   0.997   3.972   5.921  0.9399 -0.9635 -0.1446
   42CHL1   H7A 4226   1.103   3.948   5.943  0.9458 -1.1146 -0.3300
   42CHL1   H7B 4227   0.959   3.900   5.845 -0.7985 -1.0288  0.7402
   42CHL1    C8 4228   0.981   4.127   5.874  0.0141 -0.0463  0.0011
   42CHL1    H8 4229   1.036   4.188   5.949  1.0543  1.9957 -2.3072
   42CHL1   C14 4230   1.027   4.140   5.727 -0.3366  0.5127 -0.1843
   42CHL1   H14 4231   0.961   4.075   5.666 -0.1585 -0.7021  0.8542
   42CHL1   C15 4232   1.168   4.071   5.683 -0.3566 -0.2168  0.2006
   42CHL1  H15A 4233   1.237   4.116   5.758  0.2809  0.7126 -0.9242
   42CHL1  H15B 4234   1.166   3.960   5.675 -0.5346 -0.5222  3.2536
   42CHL1   C16 4235   1.196   4.135   5.548  1.0289 -0.8204  0.1025
   42CHL1  H16A 4236   1.306   4.152   5.544  1.1928 -1.2061  1.9849
   42CHL1  H16B 4237   1.185   4.057   5.470 -0.1181 -1.8850  1.2620
   42CHL1   C17 4238   1.082   4.240   5.527  0.1122 -0.5415  0.1915
   42CHL1   H17 4239   0.999   4.192   5.470 -0.0942  1.0923 -0.9661
   42CHL1   C13 4240   1.023   4.278   5.665 -0.1302 -0.0706 -0.0057
   42CHL1   C18 4241   1.128   4.370   5.740  0.0305  0.2458  0.0434
   42CHL1  H18A 4242   1.093   4.405   5.840  1.5548 -0.9798  1.0665
   42CHL1  H18B 4243   1.229   4.325   5.745 -0.3046 -0.4223  1.4237
   42CHL1  H18C 4244   1.136   4.462   5.679 -0.2084 -0.9367 -1.8592
   42CHL1   C12 4245   0.881   4.334   5.673 -0.3393  0.0561 -0.1975
   42CHL1  H12A 4246   0.874   4.435   5.627  1.3294 -0.4342 -1.6179
   42CHL1  H12B 4247   0.812   4.271   5.613  0.7635 -1.7628  0.3683
   42CHL1   C11 4248   0.829   4.320   5.813 -0.7196  0.3066  0.6683
   42CHL1  H11A 4249   0.871   4.390   5.888  0.9725  0.3891 -0.3086
   42CHL1  H11B 4250   0.722   4.349   5.807 -0.5059  0.8069 -1.2043
   42CHL1    C9 4251   0.833   4.172   5.876  0.1432  0.6310 -0.3273
   42CHL1    H9 4252   0.779   4.101   5.809 -2.1481  1.7388  0.2650
   42CHL1   C10 4253   0.772   4.165   6.018  0.1595 -0.1746 -0.4101
   42CHL1   C19 4254   0.816   4.290   6.104 -0.1654 -0.4944 -0.0241
   42CHL1  H19A 4255   0.782   4.390   6.071  0.8236 -0.1313  0.0169
   42CHL1  H19B 4256   0.786   4.272   6.209  1.0621  1.0957  0.6355
   42CHL1  H19C 4257   0.926   4.305   6.103 -0.3336  0.8364 -0.2295
   42CHL1    C1 4258   0.617   4.158   5.998  0.0914  0.9514  0.5101
   42CHL1   H1A 4259   0.589   4.257   5.957  0.0397 -0.0301 -1.9762
   42CHL1   H1B 4260   0.588   4.074   5.932 -0.9082 -2.7450  5.0954
   42CHL1    C2 4261   0.541   4.143   6.129 -0.0013 -1.0883  0.8593
   42CHL1   H2A 4262   0.432   4.151   6.110 -0.0178 -2.6079  0.1128
   42CHL1   H2B 4263   0.566   4.233   6.189 -2.4081 -0.8451  1.5745
   42CHL1   C20 4264   1.124   4.351   5.435 -0.5545  0.1185  0.4441
   42CHL1   H20 4265   1.058   4.440   5.447 -0.9027  0.1449 -1.2891
   42CHL1   C21 4266   1.091   4.306   5.288 -0.1505 -0.0983 -1.2108
   42CHL1  H21A 4267   1.160   4.220   5.271  0.6734  0.4957 -0.9720
   42CHL1  H21B 4268   1.118   4.376   5.206  0.7726 -0.0961 -0.9254
   42CHL1  H21C 4269   0.984   4.281   5.277 -0.0389  0.4079 -4.5632
   42CHL1   C22 4270   1.271   4.399   5.452 -0.4648  0.0268  0.4258
   42CHL1  H22A 4271   1.301   4.409   5.558 -0.5094 -1.7504  0.6344
   42CHL1  H22B 4272   1.339   4.322   5.411  1.1207  0.8263  1.4278
   42CHL1   C23 4273   1.282   4.534   5.374  0.1184 -0.1896  0.0649
   42CHL1  H23A 4274   1.367   4.532   5.303  0.1584 -3.3232  0.0638
   42CHL1  H23B 4275   1.188   4.549   5.316 -0.4582  2.0068  1.4319
   42CHL1   C24 4276   1.308   4.651   5.472 -0.1620 -0.4059 -0.2644
   42CHL1  H24A 4277   1.215   4.667   5.532 -0.3817 -0.2146 -0.6514
   42CHL1  H24B 4278   1.389   4.624   5.543 -0.7276 -0.4850  0.3630
   42CHL1   C25 4279   1.347   4.785   5.403  0.5508 -0.2738  0.2785
   42CHL1   H25 4280   1.280   4.787   5.315  1.1746 -0.7716 -0.2205
   42CHL1   C26 4281   1.311   4.910   5.495 -0.0888 -0.6592 -0.0300
   42CHL1  H26A 4282   1.202   4.929   5.492 -0.0476 -0.4285 -0.0466
   42CHL1  H26B 4283   1.346   4.899   5.600 -0.5954 -0.4097  0.1663
   42CHL1  H26C 4284   1.362   4.998   5.451  0.1626 -0.6869  0.2080
   42CHL1   C27 4285   1.489   4.790   5.347  0.0404  0.6823  0.7977
   42CHL1  H27A 4286   1.501   4.888   5.295  4.0104  0.1041  0.2818
   42CHL1  H27B 4287   1.557   4.798   5.434  0.1354 -1.1540  0.9155
   42CHL1  H27C 4288   1.506   4.706   5.277 -0.0960  2.8585 -2.0379
   43CHL1    C3 4289   2.343   6.267   6.067 -0.1018  0.1786  0.3500
   43CHL1    H3 4290   2.330   6.374   6.039  0.7256 -0.2173 -1.6933
   43CHL1    O3 4291   2.365   6.250   6.202 -0.6009  0.3794  0.0268
   43CHL1   H3' 4292   2.313   6.316   6.249  1.6218  1.1927  1.5628
   43CHL1    C4 4293   2.204   6.203   6.039 -0.8695  0.5124 -0.0841
   43CHL1   H4A 4294   2.204   6.096   6.070 -0.8426  0.7772  0.8706
   43CHL1   H4B 4295   2.131   6.258   6.101  0.8469  0.0761  2.4983
   43CHL1    C5 4296   2.182   6.220   5.888  0.3627  0.0873  0.1174
   43CHL1    C6 4297   2.069   6.279   5.844 -0.3945  0.3287 -0.3268
   43CHL1    H6 4298   1.998   6.325   5.915 -1.8580 -0.6794 -1.0677
   43CHL1    C7 4299   2.037   6.285   5.701 -0.5846 -0.4156  0.3981
   43CHL1   H7A 4300   1.929   6.258   5.698 -0.1567 -2.4844  1.4448
   43CHL1   H7B 4301   2.044   6.388   5.660 -1.4489 -0.5967 -0.2252
   43CHL1    C8 4302   2.123   6.193   5.610 -0.2101 -0.1113 -0.2278
   43CHL1    H8 4303   2.087   6.089   5.626  0.4666 -0.2586  0.3881
   43CHL1   C14 4304   2.105   6.228   5.464  0.6191  0.4629  0.3009
   43CHL1   H14 4305   2.148   6.330   5.458  1.0235  0.4655  2.5472
   43CHL1   C15 4306   1.959   6.228   5.398 -0.1593 -0.4266 -0.8393
   43CHL1  H15A 4307   1.905   6.138   5.434  1.6743 -1.4537 -0.5523
   43CHL1  H15B 4308   1.905   6.315   5.441 -1.9602 -1.7727 -0.2515
   43CHL1   C16 4309   1.977   6.228   5.247 -0.3621 -1.0798  0.0774
   43CHL1  H16A 4310   1.918   6.144   5.205 -2.2126 -0.3050  1.0122
   43CHL1  H16B 4311   1.947   6.328   5.208  0.7994 -0.0908  1.5936
   43CHL1   C17 4312   2.125   6.196   5.224 -0.0153 -0.2203 -0.7578
   43CHL1   H17 4313   2.162   6.300   5.215 -0.7894  0.0142 -1.3086
   43CHL1   C13 4314   2.180   6.141   5.363 -0.0993 -0.0393 -0.0463
   43CHL1   C18 4315   2.146   5.997   5.375  0.0941 -0.7844 -0.0303
   43CHL1  H18A 4316   2.161   5.955   5.477  1.1350 -1.4837 -0.4476
   43CHL1  H18B 4317   2.038   5.988   5.352 -0.3237  1.6391  0.6308
   43CHL1  H18C 4318   2.199   5.932   5.303 -0.0995 -1.4758  0.4465
   43CHL1   C12 4319   2.329   6.167   5.389  0.6001 -0.3501  0.0630
   43CHL1  H12A 4320   2.392   6.098   5.328 -0.4178 -2.9862  1.7923
   43CHL1  H12B 4321   2.340   6.272   5.355 -1.1196 -0.1941 -0.1492
   43CHL1   C11 4322   2.362   6.143   5.535 -0.3709  0.1630 -0.5733
   43CHL1  H11A 4323   2.383   6.036   5.557  0.5231  0.5475  0.5281
   43CHL1  H11B 4324   2.463   6.189   5.538 -0.2683 -0.1067  2.0192
   43CHL1    C9 4325   2.269   6.204   5.646  0.2835  0.2379  0.5452
   43CHL1    H9 4326   2.273   6.314   5.633 -0.1433 -0.1119 -4.1519
   43CHL1   C10 4327   2.288   6.167   5.794 -0.3553  0.3702  1.0077
   43CHL1   C19 4328   2.289   6.008   5.805  0.6043  0.2432  0.1572
   43CHL1  H19A 4329   2.205   5.960   5.750  1.1060  0.5178 -0.8838
   43CHL1  H19B 4330   2.374   5.962   5.752 -0.1236  0.3178 -1.1148
   43CHL1  H19C 4331   2.283   5.972   5.910  2.7579  1.0865  0.6119
   43CHL1    C1 4332   2.431   6.215   5.834 -0.2777 -0.3499  0.0262
   43CHL1   H1A 4333   2.506   6.153   5.782 -0.1175 -3.2945  3.3638
   43CHL1   H1B 4334   2.444   6.323   5.810  1.0116 -0.5562 -0.2510
   43CHL1    C2 4335   2.451   6.198   5.988 -0.6837 -0.1954  0.1991
   43CHL1   H2A 4336   2.551   6.236   6.018 -1.5996  1.2945  1.5243
   43CHL1   H2B 4337   2.435   6.090   6.013 -0.4979 -0.4801 -0.8800
   43CHL1   C20 4338   2.170   6.142   5.090  0.3881 -0.5345 -0.7546
   43CHL1   H20 4339   2.277   6.115   5.083  1.6758  3.8841 -1.4717
   43CHL1   C21 4340   2.155   6.263   4.985 -0.2285 -0.0457 -0.4332
   43CHL1  H21A 4341   2.232   6.335   5.018  0.0464 -0.6330  0.2473
   43CHL1  H21B 4342   2.051   6.303   4.989  0.0384  0.5573  1.3687
   43CHL1  H21C 4343   2.185   6.216   4.889  1.6973 -1.9715  1.0033
   43CHL1   C22 4344   2.081   6.027   5.036 -0.0645  0.0755 -0.2269
   43CHL1  H22A 4345   2.024   5.979   5.118 -0.0000  3.3877  1.9321
   43CHL1  H22B 4346   2.002   6.076   4.975  0.2266 -1.5241 -1.9953
   43CHL1   C23 4347   2.160   5.950   4.927  0.0387  0.4647 -0.7999
   43CHL1  H23A 4348   2.196   6.022   4.851  0.6732  2.8435  1.5845
   43CHL1  H23B 4349   2.250   5.910   4.979 -0.2397 -1.2156 -1.5496
   43CHL1   C24 4350   2.087   5.831   4.867 -0.0326 -0.6736 -0.9259
   43CHL1  H24A 4351   2.065   5.766   4.955  0.2770  0.6159  0.1422
   43CHL1  H24B 4352   1.992   5.850   4.812  0.6013 -1.2606 -2.2551
   43CHL1   C25 4353   2.170   5.756   4.759 -0.1507 -0.3279  0.6102
   43CHL1   H25 4354   2.274   5.733   4.788 -0.0277 -1.9352 -0.9029
   43CHL1   C26 4355   2.116   5.611   4.753  0.1458 -0.2668  0.2543
   43CHL1  H26A 4356   2.153   5.556   4.664 -1.0397 -0.5362 -0.0765
   43CHL1  H26B 4357   2.140   5.546   4.840 -2.4239 -0.7244  0.6922
   43CHL1  H26C 4358   2.005   5.613   4.753  0.1245 -0.3910  1.6981
   43CHL1   C27 4359   2.181   5.821   4.615 -0.4845 -0.0818  0.3226
   43CHL1  H27A 4360   2.086   5.794   4.562 -0.1419  0.8613 -0.8018
   43CHL1  H27B 4361   2.213   5.926   4.628 -1.0435  0.1820 -0.3846
   43CHL1  H27C 4362   2.269   5.771   4.569  0.5881 -0.5054  2.6898
   44CHL1    C3 4363   1.551   6.307   5.934 -0.0353 -0.8062  0.1599
   44CHL1    H3 4364   1.569   6.408   5.893 -0.0980 -2.1059 -3.4053
   44CHL1    O3 4365   1.528   6.327   6.070 -0.1652 -0.6635 -0.8543
   44CHL1   H3' 4366   1.594   6.390   6.101  0.4521 -0.6584 -2.1425
   44CHL1    C4 4367   1.422   6.245   5.881  0.3445  0.4597  0.3541
   44CHL1   H4A 4368   1.394   6.155   5.941  1.8185 -0.4741 -0.3089
   44CHL1   H4B 4369   1.336   6.314   5.898 -0.0097  0.3987 -1.0893
   44CHL1    C5 4370   1.428   6.214   5.731  0.4049 -0.4335  0.1463
   44CHL1    C6 4371   1.352   6.287   5.645 -0.5648  0.6968  0.6862
   44CHL1    H6 4372   1.280   6.362   5.681 -0.1421  0.8269  1.2720
   44CHL1    C7 4373   1.350   6.265   5.502  1.0421  0.6027  0.1474
   44CHL1   H7A 4374   1.242   6.259   5.474  0.6942 -1.0663  1.6498
   44CHL1   H7B 4375   1.393   6.349   5.445 -0.9269  1.9266  0.5103
   44CHL1    C8 4376   1.418   6.133   5.464 -0.3390 -0.3084  0.4908
   44CHL1    H8 4377   1.337   6.058   5.469 -1.9697  1.1489 -1.6804
   44CHL1   C14 4378   1.440   6.139   5.313 -0.2296  0.0486  0.7101
   44CHL1   H14 4379   1.508   6.227   5.309 -0.6433  0.3317 -0.8764
   44CHL1   C15 4380   1.335   6.181   5.212  0.2168  0.0381 -0.0331
   44CHL1  H15A 4381   1.240   6.130   5.239  1.5233 -2.0953  0.7597
   44CHL1  H15B 4382   1.326   6.291   5.218  1.6185  0.1381  0.4714
   44CHL1   C16 4383   1.391   6.135   5.072 -0.5734  0.1786  0.9631
   44CHL1  H16A 4384   1.334   6.051   5.028  0.7559  0.1220 -0.7759
   44CHL1  H16B 4385   1.402   6.218   4.999 -1.8884 -0.3645  0.1203
   44CHL1   C17 4386   1.523   6.067   5.099  0.2316 -0.4713 -0.0464
   44CHL1   H17 4387   1.602   6.145   5.090  0.4966 -0.8002 -0.6301
   44CHL1   C13 4388   1.508   6.021   5.247 -0.3397 -1.0958 -0.1499
   44CHL1   C18 4389   1.412   5.897   5.260  0.1609 -0.2279  0.0985
   44CHL1  H18A 4390   1.454   5.807   5.212 -0.3129  0.3947 -1.5506
   44CHL1  H18B 4391   1.398   5.868   5.367 -1.5009 -0.5412 -0.1714
   44CHL1  H18C 4392   1.319   5.909   5.200  1.1533 -2.3839 -1.9937
   44CHL1   C12 4393   1.639   5.998   5.323 -0.6277 -0.1040 -0.3277
   44CHL1  H12A 4394   1.692   5.906   5.291  0.0472 -0.2168  1.0164
   44CHL1  H12B 4395   1.709   6.081   5.301 -0.6593 -0.1354 -0.5475
   44CHL1   C11 4396   1.623   5.991   5.486 -0.8382 -0.5638  0.0151
   44CHL1  H11A 4397   1.571   5.894   5.503 -0.0244 -0.8570  0.9092
   44CHL1  H11B 4398   1.729   5.987   5.518 -0.5226  1.2448 -0.6587
   44CHL1    C9 4399   1.550   6.106   5.539 -0.0401 -0.1912 -0.3878
   44CHL1    H9 4400   1.608   6.197   5.512 -0.9620  0.6703  0.4409
   44CHL1   C10 4401   1.537   6.120   5.694 -0.7160  0.8278  0.6914
   44CHL1   C19 4402   1.490   5.979   5.754 -0.0355  0.4709  0.1301
   44CHL1  H19A 4403   1.389   5.942   5.728  0.9962 -0.9256 -2.2395
   44CHL1  H19B 4404   1.552   5.900   5.706  0.1624  0.1918  0.8251
   44CHL1  H19C 4405   1.514   5.969   5.862  2.1892  3.6304  0.0623
   44CHL1    C1 4406   1.671   6.165   5.764  0.3859 -0.2811  1.0127
   44CHL1   H1A 4407   1.748   6.084   5.758  1.5317  0.8388  0.2183
   44CHL1   H1B 4408   1.709   6.247   5.700 -0.6687  0.5165  1.3846
   44CHL1    C2 4409   1.669   6.211   5.918 -0.0147 -0.4144  0.0759
   44CHL1   H2A 4410   1.759   6.271   5.941  0.4366 -0.6212 -1.0763
   44CHL1   H2B 4411   1.665   6.120   5.982  0.3970  0.4351  1.3618
   44CHL1   C20 4412   1.552   5.957   4.992 -0.6579  0.2568  0.5659
   44CHL1   H20 4413   1.479   5.874   4.989  0.3444 -0.6065 -1.4796
   44CHL1   C21 4414   1.697   5.892   5.030 -0.1236  0.3852  0.2330
   44CHL1  H21A 4415   1.693   5.819   5.113  2.0318  0.0357  0.0853
   44CHL1  H21B 4416   1.768   5.977   5.045 -0.4245  1.2950 -2.7291
   44CHL1  H21C 4417   1.737   5.839   4.941  0.4332 -1.8208  1.7413
   44CHL1   C22 4418   1.549   6.010   4.847 -0.3749  0.3125  0.1679
   44CHL1  H22A 4419   1.568   5.918   4.788 -0.7599 -0.2834  0.9549
   44CHL1  H22B 4420   1.449   6.056   4.827 -0.4882 -0.2049 -0.4745
   44CHL1   C23 4421   1.664   6.106   4.809 -0.0096 -0.4574 -0.9544
   44CHL1  H23A 4422   1.678   6.189   4.882 -0.2780 -0.1123 -1.2916
   44CHL1  H23B 4423   1.758   6.050   4.829 -0.0075  0.5160  2.6370
   44CHL1   C24 4424   1.648   6.170   4.673 -0.0967  0.2940  0.1961
   44CHL1  H24A 4425   1.624   6.090   4.599 -0.3705 -2.3378  2.9183
   44CHL1  H24B 4426   1.562   6.240   4.667 -1.3653 -1.0023  1.9979
   44CHL1   C25 4427   1.779   6.231   4.612  0.6223 -0.0505 -0.1484
   44CHL1   H25 4428   1.833   6.278   4.697  0.2498  0.3821 -0.1427
   44CHL1   C26 4429   1.876   6.121   4.579  0.2917 -0.0245 -0.7620
   44CHL1  H26A 4430   1.840   6.066   4.489 -1.0361 -0.5599  0.0637
   44CHL1  H26B 4431   1.974   6.160   4.544  0.3986 -0.2432 -0.7028
   44CHL1  H26C 4432   1.892   6.051   4.663  1.4301  2.3989  1.1748
   44CHL1   C27 4433   1.765   6.329   4.491  0.7215 -1.0933  0.1423
   44CHL1  H27A 4434   1.750   6.433   4.526 -0.8318 -0.4258 -2.2741
   44CHL1  H27B 4435   1.858   6.327   4.430 -0.5532  1.9544 -2.1629
   44CHL1  H27C 4436   1.685   6.299   4.421  0.8357  0.7517 -0.8496
   45CHL1    C3 4437   3.361   0.076   6.408  0.2791 -0.3702 -0.8185
   45CHL1    H3 4438   3.428  -0.012   6.398  0.0621 -0.5445 -0.7303
   45CHL1    O3 4439   3.354   0.124   6.536 -0.4188  0.2852 -0.2442
   45CHL1   H3' 4440   3.289   0.194   6.541 -1.4311 -0.6898  2.1960
   45CHL1    C4 4441   3.412   0.192   6.324  0.0806 -0.2853 -0.0405
   45CHL1   H4A 4442   3.332   0.268   6.332 -0.0489 -0.5970  2.4061
   45CHL1   H4B 4443   3.508   0.236   6.358  0.0180 -1.0997  1.2648
   45CHL1    C5 4444   3.419   0.151   6.176 -1.4822 -0.2893  0.4130
   45CHL1    C6 4445   3.538   0.149   6.106  0.0431  0.2548  0.3867
   45CHL1    H6 4446   3.630   0.168   6.164  0.3690  1.2517 -0.4204
   45CHL1    C7 4447   3.549   0.112   5.961 -0.3750 -0.1199 -0.0368
   45CHL1   H7A 4448   3.630   0.171   5.914  0.7844 -1.8795 -0.3343
   45CHL1   H7B 4449   3.594   0.011   5.952  2.1289  0.8963  0.3167
   45CHL1    C8 4450   3.411   0.121   5.892  0.5331  0.5651 -0.6580
   45CHL1    H8 4451   3.381   0.228   5.896 -0.9964  0.1504 -0.6551
   45CHL1   C14 4452   3.408   0.070   5.746  0.2146  0.5774 -0.7876
   45CHL1   H14 4453   3.433  -0.039   5.744 -1.3614  0.1996 -2.2247
   45CHL1   C15 4454   3.496   0.138   5.648 -0.3353  0.7624 -0.3434
   45CHL1  H15A 4455   3.518   0.243   5.674 -0.5172  0.7970 -0.3275
   45CHL1  H15B 4456   3.595   0.088   5.646 -0.7846 -0.2814  1.1558
   45CHL1   C16 4457   3.434   0.099   5.513  0.1111 -0.7089  0.7747
   45CHL1  H16A 4458   3.411   0.191   5.455  0.0430  0.1032  2.0582
   45CHL1  H16B 4459   3.506   0.034   5.458  0.3355 -1.0850  1.4993
   45CHL1   C17 4460   3.302   0.025   5.539 -0.4264  0.8384  0.4783
   45CHL1   H17 4461   3.334  -0.081   5.544  1.1413  1.2727  0.2753
   45CHL1   C13 4462   3.267   0.060   5.680  0.5775  0.0622 -0.0664
   45CHL1   C18 4463   3.198   0.205   5.682 -0.2921 -0.2832 -0.4139
   45CHL1  H18A 4464   3.261   0.272   5.619 -1.3283  0.2476 -0.9220
   45CHL1  H18B 4465   3.091   0.197   5.652 -1.8617  1.9793  3.6985
   45CHL1  H18C 4466   3.203   0.247   5.785  0.1535  2.4421 -1.4565
   45CHL1   C12 4467   3.182  -0.037   5.757 -0.0402 -0.0073  0.6948
   45CHL1  H12A 4468   3.083  -0.064   5.715  0.3237 -2.1461  1.0883
   45CHL1  H12B 4469   3.227  -0.138   5.754  1.7745  0.8029 -1.0930
   45CHL1   C11 4470   3.174  -0.001   5.902  0.6021 -0.1607 -0.3336
   45CHL1  H11A 4471   3.101   0.082   5.912 -0.8204 -1.1164 -2.1597
   45CHL1  H11B 4472   3.130  -0.086   5.958 -0.1478  0.2189 -0.3394
   45CHL1    C9 4473   3.309   0.032   5.977 -0.4349  0.0120 -0.6293
   45CHL1    H9 4474   3.355  -0.068   5.990 -1.8474 -0.6499 -0.5785
   45CHL1   C10 4475   3.289   0.101   6.120  0.1172 -0.2594  0.9463
   45CHL1   C19 4476   3.197   0.220   6.116 -0.3524 -0.3078  0.4923
   45CHL1  H19A 4477   3.093   0.211   6.076 -1.0753  2.6572  1.4240
   45CHL1  H19B 4478   3.179   0.255   6.220  1.8148 -0.2485  0.8979
   45CHL1  H19C 4479   3.243   0.300   6.054  2.3669  0.5939  3.4201
   45CHL1    C1 4480   3.223  -0.003   6.218 -0.0222  0.1431  0.1748
   45CHL1   H1A 4481   3.120  -0.017   6.180  0.3139 -0.2534 -0.6094
   45CHL1   H1B 4482   3.278  -0.097   6.199 -0.1899  0.6096 -3.3026
   45CHL1    C2 4483   3.220   0.028   6.364  0.2388  0.3474  0.1054
   45CHL1   H2A 4484   3.195  -0.061   6.426  1.6567 -0.7679 -0.8455
   45CHL1   H2B 4485   3.144   0.109   6.362  2.0602  2.3206  2.8388
   45CHL1   C20 4486   3.197   0.042   5.424 -1.0152 -0.4737  0.4968
   45CHL1   H20 4487   3.158   0.146   5.418 -1.0045 -0.5347 -0.9421
   45CHL1   C21 4488   3.082  -0.051   5.454  0.1092  0.3208  0.3822
   45CHL1  H21A 4489   3.030  -0.049   5.356 -1.0362 -0.0396  0.9629
   45CHL1  H21B 4490   3.017   0.002   5.527 -0.6846 -0.3466  0.1851
   45CHL1  H21C 4491   3.112  -0.157   5.471  0.2970  0.2549 -0.3239
   45CHL1   C22 4492   3.254   0.023   5.279 -1.3312  0.6845  0.9478
   45CHL1  H22A 4493   3.175   0.047   5.205  0.1150  2.3805 -0.1206
   45CHL1  H22B 4494   3.335   0.098   5.269 -0.7173  0.4254  3.3896
   45CHL1   C23 4495   3.307  -0.116   5.236 -0.1850 -0.4776  0.4311
   45CHL1  H23A 4496   3.358  -0.150   5.328  0.2999 -0.6396  0.1026
   45CHL1  H23B 4497   3.224  -0.186   5.213 -0.7150  0.4955 -0.7357
   45CHL1   C24 4498   3.430  -0.110   5.135  0.0831 -0.0812 -0.0235
   45CHL1  H24A 4499   3.400  -0.085   5.030 -0.5291 -0.4183  0.0692
   45CHL1  H24B 4500   3.495  -0.027   5.170 -2.2327  0.9705  2.0076
   45CHL1   C25 4501   3.501  -0.245   5.119 -0.3172  0.9390 -0.2294
   45CHL1   H25 4502   3.513  -0.283   5.223  0.7159  0.3408 -0.5484
   45CHL1   C26 4503   3.409  -0.344   5.043 -0.4507  1.3664 -0.2133
   45CHL1  H26A 4504   3.400  -0.309   4.938 -0.1732  0.2039 -0.6411
   45CHL1  H26B 4505   3.457  -0.444   5.050 -2.3562  0.4092  0.0043
   45CHL1  H26C 4506   3.310  -0.356   5.093  0.3209 -1.6933  0.8257
   45CHL1   C27 4507   3.642  -0.230   5.047  0.1011 -0.2191  0.8000
   45CHL1  H27A 4508   3.632  -0.204   4.939 -1.0297 -0.2639  0.8776
   45CHL1  H27B 4509   3.698  -0.143   5.088  1.7405 -0.2714 -1.1515
   45CHL1  H27C 4510   3.699  -0.323   5.066  0.9176  0.4091  1.4922
   46CHL1    C3 4511   3.058   1.706   6.632 -0.3941 -0.4895 -0.0846
   46CHL1    H3 4512   3.162   1.672   6.650 -0.6776 -1.5105 -0.2618
   46CHL1    O3 4513   2.990   1.706   6.752  0.3174  0.2474 -0.6469
   46CHL1   H3' 4514   2.907   1.752   6.737 -0.7858  0.3475  4.2006
   46CHL1    C4 4515   3.035   1.841   6.570  0.1393 -0.1984  0.6245
   46CHL1   H4A 4516   2.926   1.865   6.564 -0.6081 -3.4374 -2.0335
   46CHL1   H4B 4517   3.078   1.922   6.632 -0.4107  1.2985 -0.8553
   46CHL1    C5 4518   3.091   1.839   6.428 -0.1722  1.1447  0.2670
   46CHL1    C6 4519   3.184   1.923   6.390  0.3144  0.6546 -0.2189
   46CHL1    H6 4520   3.230   1.999   6.454  2.7877 -0.5087 -0.4832
   46CHL1    C7 4521   3.242   1.931   6.250 -0.1185 -0.1504  0.1854
   46CHL1   H7A 4522   3.266   2.038   6.228  0.2913 -0.4965 -1.1734
   46CHL1   H7B 4523   3.338   1.874   6.255 -0.4814 -0.7243  0.7666
   46CHL1    C8 4524   3.142   1.874   6.147 -0.7150 -0.4895  0.6126
   46CHL1    H8 4525   3.059   1.948   6.137 -1.8941 -1.7616  0.7481
   46CHL1   C14 4526   3.227   1.862   6.015  0.2859 -0.1565 -0.0605
   46CHL1   H14 4527   3.315   1.797   6.031  0.3825  0.4137  2.0361
   46CHL1   C15 4528   3.275   1.991   5.954  0.4916  0.1208  0.2148
   46CHL1  H15A 4529   3.201   2.070   5.976 -0.5807 -1.3377  2.2266
   46CHL1  H15B 4530   3.363   2.030   6.010  0.3022 -0.1826  0.7297
   46CHL1   C16 4531   3.312   1.952   5.810 -0.0079 -0.6120  0.1824
   46CHL1  H16A 4532   3.265   2.030   5.747  1.9855  0.8893  0.4464
   46CHL1  H16B 4533   3.419   1.938   5.783 -0.0761 -1.3484  0.2821
   46CHL1   C17 4534   3.259   1.805   5.784 -0.2763  0.5436  0.4215
   46CHL1   H17 4535   3.326   1.724   5.819 -0.9612 -0.2060  0.0119
   46CHL1   C13 4536   3.150   1.793   5.897  0.5568 -0.1293 -0.0974
   46CHL1   C18 4537   3.025   1.873   5.857 -0.7586  0.6046 -0.0657
   46CHL1  H18A 4538   2.961   1.890   5.946 -3.5875 -3.0608 -1.1691
   46CHL1  H18B 4539   3.048   1.970   5.808 -0.4393  0.0211 -1.0974
   46CHL1  H18C 4540   2.964   1.815   5.786  0.1239 -1.0979  0.5232
   46CHL1   C12 4541   3.123   1.644   5.951 -0.2074 -0.0043 -0.4576
   46CHL1  H12A 4542   3.066   1.582   5.879  1.6941 -0.9022 -1.2738
   46CHL1  H12B 4543   3.219   1.590   5.967 -0.2706 -0.1049 -0.4223
   46CHL1   C11 4544   3.032   1.652   6.077 -0.1121 -0.1977  0.0485
   46CHL1  H11A 4545   2.934   1.692   6.044 -0.6336 -0.0471  1.6884
   46CHL1  H11B 4546   3.024   1.549   6.116  0.0674 -1.1945 -2.3747
   46CHL1    C9 4547   3.099   1.734   6.194 -0.4925 -0.2634 -0.2395
   46CHL1    H9 4548   3.194   1.680   6.216 -2.5812 -3.9777  0.6241
   46CHL1   C10 4549   3.028   1.740   6.331 -0.6240  0.2915 -0.2237
   46CHL1   C19 4550   2.885   1.772   6.304  0.5038  0.1506 -0.2853
   46CHL1  H19A 4551   2.840   1.695   6.238 -0.6835 -0.5468  1.2725
   46CHL1  H19B 4552   2.817   1.772   6.391 -0.8482 -0.9080 -1.2932
   46CHL1  H19C 4553   2.865   1.869   6.252 -3.9852 -0.2738  0.2616
   46CHL1    C1 4554   3.044   1.600   6.399 -0.8802 -0.2418 -0.3915
   46CHL1   H1A 4555   3.002   1.519   6.336 -1.1120  1.2248 -2.2126
   46CHL1   H1B 4556   3.155   1.592   6.405 -0.8289  0.3877 -0.3827
   46CHL1    C2 4557   2.994   1.594   6.545 -0.1347  0.0395 -0.0095
   46CHL1   H2A 4558   3.003   1.493   6.590 -2.3882 -1.0093 -1.7030
   46CHL1   H2B 4559   2.885   1.613   6.547  0.0133  0.8986  0.4168
   46CHL1   C20 4560   3.218   1.792   5.636 -0.2631  0.4874  0.1049
   46CHL1   H20 4561   3.137   1.863   5.611 -0.5373  0.5690  1.1932
   46CHL1   C21 4562   3.172   1.646   5.620 -0.4573 -0.1799  0.5946
   46CHL1  H21A 4563   3.076   1.637   5.677 -1.0977 -1.3439 -0.6117
   46CHL1  H21B 4564   3.246   1.578   5.667  1.1927  2.7731  2.5955
   46CHL1  H21C 4565   3.153   1.621   5.513 -1.3630 -0.7254  0.8667
   46CHL1   C22 4566   3.324   1.843   5.534  0.1586 -0.3533 -0.3425
   46CHL1  H22A 4567   3.353   1.946   5.561 -2.9630  0.5448 -0.1238
   46CHL1  H22B 4568   3.410   1.772   5.532  0.7640  0.2326  2.0250
   46CHL1   C23 4569   3.274   1.857   5.389 -0.2012  0.2830  0.3157
   46CHL1  H23A 4570   3.213   1.767   5.366 -0.9712  1.2532 -1.6486
   46CHL1  H23B 4571   3.200   1.939   5.390 -0.9341 -0.3509 -0.6924
   46CHL1   C24 4572   3.383   1.876   5.280  0.2037  0.2295 -0.0607
   46CHL1  H24A 4573   3.411   1.983   5.288  0.4120  0.0665  1.8911
   46CHL1  H24B 4574   3.470   1.807   5.283 -0.8046 -1.3111 -2.4963
   46CHL1   C25 4575   3.325   1.861   5.128 -0.5153  0.6943 -0.1026
   46CHL1   H25 4576   3.223   1.904   5.140 -1.1175 -1.1037  1.7932
   46CHL1   C26 4577   3.413   1.935   5.025 -0.2312 -0.0501 -0.0749
   46CHL1  H26A 4578   3.431   2.039   5.058  1.5316 -1.1219  2.7232
   46CHL1  H26B 4579   3.511   1.883   5.014 -0.7706 -1.1307  0.0836
   46CHL1  H26C 4580   3.362   1.937   4.926 -2.7440 -1.2997  1.1123
   46CHL1   C27 4581   3.311   1.716   5.074 -1.0226  0.9578  0.0355
   46CHL1  H27A 4582   3.409   1.671   5.047 -0.9424  1.3432 -0.3256
   46CHL1  H27B 4583   3.273   1.650   5.155 -0.1371 -2.5707 -2.1835
   46CHL1  H27C 4584   3.238   1.720   4.990  0.0078 -1.9248 -1.1050
   47CHL1    C3 4585   2.864   2.413   6.594  0.7089  0.1244  0.6638
   47CHL1    H3 4586   2.876   2.521   6.571 -0.6524  0.2720  0.5717
   47CHL1    O3 4587   2.859   2.403   6.738 -0.1305 -0.0626  0.1683
   47CHL1   H3' 4588   2.943   2.439   6.768 -0.4758  1.0992 -0.1859
   47CHL1    C4 4589   2.733   2.361   6.538  0.3708  0.5328 -0.3849
   47CHL1   H4A 4590   2.707   2.256   6.566 -0.2779  0.3467 -1.6204
   47CHL1   H4B 4591   2.655   2.427   6.582  0.2962  0.8224 -0.9526
   47CHL1    C5 4592   2.738   2.366   6.385 -0.0951  0.3554 -0.1138
   47CHL1    C6 4593   2.643   2.444   6.323 -0.0033 -0.3180  0.1415
   47CHL1    H6 4594   2.565   2.491   6.385 -1.2485 -1.0143 -0.8369
   47CHL1    C7 4595   2.620   2.458   6.178  0.4499  0.2605 -0.4267
   47CHL1   H7A 4596   2.515   2.432   6.153  0.7332 -2.2797  0.7149
   47CHL1   H7B 4597   2.646   2.561   6.144 -0.6646 -0.0360 -2.3108
   47CHL1    C8 4598   2.707   2.349   6.106  0.6461  0.3738  0.9640
   47CHL1    H8 4599   2.652   2.254   6.120  1.1865 -0.0312  0.4099
   47CHL1   C14 4600   2.714   2.385   5.965 -0.4327 -0.4668 -0.1324
   47CHL1   H14 4601   2.777   2.476   5.968 -2.1904  0.8284 -0.7442
   47CHL1   C15 4602   2.592   2.445   5.892 -0.1512  0.6241  0.0898
   47CHL1  H15A 4603   2.497   2.397   5.924 -0.1108 -1.1701 -2.2606
   47CHL1  H15B 4604   2.579   2.555   5.908  1.3396  0.8960 -0.4553
   47CHL1   C16 4605   2.624   2.417   5.743  0.4056 -0.3753 -0.3392
   47CHL1  H16A 4606   2.548   2.344   5.708 -1.1682  0.0891  1.8456
   47CHL1  H16B 4607   2.622   2.508   5.681  0.9263  0.7338  1.2055
   47CHL1   C17 4608   2.767   2.353   5.735 -0.2154 -0.0282 -0.5792
   47CHL1   H17 4609   2.835   2.441   5.737 -1.8249  1.3030 -1.2991
   47CHL1   C13 4610   2.782   2.283   5.879 -0.2628 -0.7299 -0.0235
   47CHL1   C18 4611   2.704   2.155   5.879  0.2185 -0.0709 -0.5421
   47CHL1  H18A 4612   2.608   2.162   5.824  1.1632  0.3657 -2.2110
   47CHL1  H18B 4613   2.752   2.079   5.814 -0.0086  0.3873 -1.2585
   47CHL1  H18C 4614   2.691   2.110   5.979 -2.0706  0.0371 -0.7350
   47CHL1   C12 4615   2.928   2.264   5.923  0.4450 -0.2312  1.1978
   47CHL1  H12A 4616   2.973   2.185   5.860 -1.2712  0.3016 -0.7856
   47CHL1  H12B 4617   2.984   2.360   5.917 -2.1029  1.3309  1.0128
   47CHL1   C11 4618   2.933   2.232   6.075 -0.1566  0.1487  0.5266
   47CHL1  H11A 4619   2.900   2.126   6.078 -1.3592  0.4902  0.0686
   47CHL1  H11B 4620   3.041   2.234   6.100 -0.1171 -0.6336  0.4449
   47CHL1    C9 4621   2.847   2.325   6.160  0.4953  0.4238  0.0075
   47CHL1    H9 4622   2.894   2.426   6.161  0.5431  0.4007  0.3512
   47CHL1   C10 4623   2.852   2.286   6.317 -0.0950  0.1932 -0.4115
   47CHL1   C19 4624   2.826   2.133   6.329 -1.0946  0.6019 -0.1629
   47CHL1  H19A 4625   2.815   2.090   6.430  0.3471  0.4976 -0.0216
   47CHL1  H19B 4626   2.736   2.116   6.267 -0.6378  1.5593 -1.1320
   47CHL1  H19C 4627   2.911   2.072   6.291 -0.6996  1.1912 -0.2357
   47CHL1    C1 4628   2.985   2.331   6.376 -0.3419  0.2065  0.9029
   47CHL1   H1A 4629   3.060   2.255   6.345 -1.8124 -0.8239 -0.2474
   47CHL1   H1B 4630   3.004   2.432   6.334 -2.5832 -0.3258 -1.6483
   47CHL1    C2 4631   2.984   2.342   6.531 -0.0128 -0.3823  0.5008
   47CHL1   H2A 4632   3.078   2.386   6.572  0.4085  0.1120 -0.9500
   47CHL1   H2B 4633   2.990   2.237   6.566 -1.8131 -0.7309 -0.1446
   47CHL1   C20 4634   2.807   2.274   5.609 -0.5626  0.3582 -0.1272
   47CHL1   H20 4635   2.790   2.164   5.617  1.7937 -0.0900 -0.8242
   47CHL1   C21 4636   2.963   2.292   5.581  0.2342 -0.1040  0.5341
   47CHL1  H21A 4637   3.011   2.230   5.660  0.0632 -3.0431 -1.5096
   47CHL1  H21B 4638   2.990   2.399   5.592  1.9318 -0.5734  1.3756
   47CHL1  H21C 4639   2.995   2.253   5.482  0.8452  0.4487  0.5065
   47CHL1   C22 4640   2.729   2.331   5.488  0.4020  0.1910 -1.2137
   47CHL1  H22A 4641   2.625   2.351   5.522  0.8085  1.4020 -0.6031
   47CHL1  H22B 4642   2.765   2.429   5.449 -0.8064  1.3351  0.4041
   47CHL1   C23 4643   2.722   2.231   5.366 -0.1602 -0.4289 -0.1017
   47CHL1  H23A 4644   2.829   2.225   5.335 -0.0898 -1.0735  0.2387
   47CHL1  H23B 4645   2.693   2.133   5.409  1.4418 -0.9651 -0.1763
   47CHL1   C24 4646   2.636   2.295   5.257 -0.1015 -0.5441 -0.6560
   47CHL1  H24A 4647   2.532   2.303   5.296 -0.0083  2.7916 -0.7907
   47CHL1  H24B 4648   2.653   2.402   5.234 -0.6881  0.2950  2.3110
   47CHL1   C25 4649   2.641   2.204   5.135 -0.4374 -0.0234  0.1941
   47CHL1   H25 4650   2.616   2.098   5.153  0.2054 -0.3427 -0.7417
   47CHL1   C26 4651   2.538   2.258   5.040  0.1917  0.2631  0.1952
   47CHL1  H26A 4652   2.551   2.363   5.009 -0.9000  0.0961 -0.9139
   47CHL1  H26B 4653   2.544   2.199   4.946  2.4055  1.7217 -0.6329
   47CHL1  H26C 4654   2.435   2.252   5.082  1.0665 -1.4648  2.2989
   47CHL1   C27 4655   2.781   2.208   5.060 -0.2767  0.0181 -0.0414
   47CHL1  H27A 4656   2.767   2.184   4.952 -0.0056 -3.0653  0.5310
   47CHL1  H27B 4657   2.811   2.315   5.058  0.0133 -0.0550  0.3049
   47CHL1  H27C 4658   2.858   2.138   5.097 -0.1592 -0.6685 -1.5012
   48CHL1    C3 4659   6.437   0.723   6.514 -0.5111  0.5411  0.5897
   48CHL1    H3 4660   6.536   0.676   6.531 -0.6703 -0.1232 -0.2261
   48CHL1    O3 4661   6.373   0.708   6.638  0.1436  0.1479 -0.9338
   48CHL1   H3' 4662   6.289   0.754   6.635 -0.1780 -0.0619  1.9755
   48CHL1    C4 4663   6.461   0.866   6.472  0.0443  0.1671  0.3220
   48CHL1   H4A 4664   6.376   0.936   6.487 -0.0859 -0.1618  1.1832
   48CHL1   H4B 4665   6.528   0.921   6.542  0.3465  2.5715 -1.7081
   48CHL1    C5 4666   6.502   0.894   6.332 -0.5547  0.3242  0.9470
   48CHL1    C6 4667   6.613   0.961   6.310 -0.4173 -1.0203  0.2599
   48CHL1    H6 4668   6.651   1.008   6.402 -0.1645 -0.5247 -0.0966
   48CHL1    C7 4669   6.679   0.986   6.175  0.2629  0.2493  0.2424
   48CHL1   H7A 4670   6.703   1.093   6.159 -0.8210  0.4143 -0.4251
   48CHL1   H7B 4671   6.776   0.932   6.176  0.7123  1.0452  0.2988
   48CHL1    C8 4672   6.588   0.946   6.056  0.1703  0.9188 -0.8339
   48CHL1    H8 4673   6.505   1.021   6.051 -1.2405 -0.4558  0.8894
   48CHL1   C14 4674   6.671   0.949   5.930 -0.2544  0.0529 -0.2382
   48CHL1   H14 4675   6.753   0.874   5.932 -2.1585 -2.1713 -0.6145
   48CHL1   C15 4676   6.753   1.081   5.909 -0.0954  0.0257 -0.0540
   48CHL1  H15A 4677   6.688   1.170   5.913  1.2683  1.1075 -0.9821
   48CHL1  H15B 4678   6.843   1.090   5.973 -0.6588  1.2383  0.5843
   48CHL1   C16 4679   6.791   1.062   5.758 -0.3627 -0.5564 -0.6389
   48CHL1  H16A 4680   6.772   1.153   5.697  1.3219 -0.3100 -0.8575
   48CHL1  H16B 4681   6.897   1.029   5.759  0.1503  0.9665 -1.2333
   48CHL1   C17 4682   6.700   0.947   5.697 -0.1783 -0.0070  0.3728
   48CHL1   H17 4683   6.761   0.854   5.692 -2.3316 -1.4681 -0.5886
   48CHL1   C13 4684   6.593   0.919   5.808 -0.8462 -0.3565  0.4491
   48CHL1   C18 4685   6.487   1.024   5.784  0.6462 -0.1891  0.9335
   48CHL1  H18A 4686   6.419   0.989   5.704 -3.2099 -0.3199  3.9294
   48CHL1  H18B 4687   6.419   1.022   5.873 -1.7635 -1.3007 -0.8273
   48CHL1  H18C 4688   6.523   1.126   5.758 -2.8312  0.2548 -3.1884
   48CHL1   C12 4689   6.538   0.778   5.815  0.0806 -0.7021  0.1491
   48CHL1  H12A 4690   6.471   0.756   5.730  0.5660  2.2813 -1.1167
   48CHL1  H12B 4691   6.618   0.701   5.809  0.9330  0.2899 -2.4251
   48CHL1   C11 4692   6.449   0.764   5.947 -0.1080  0.4195  0.6127
   48CHL1  H11A 4693   6.351   0.813   5.928 -0.0375 -0.1910 -1.6500
   48CHL1  H11B 4694   6.429   0.654   5.949  1.2748  0.0515 -1.8683
   48CHL1    C9 4695   6.519   0.807   6.080 -1.3361 -0.1226  0.1364
   48CHL1    H9 4696   6.605   0.740   6.100 -1.3324 -0.5191 -1.1589
   48CHL1   C10 4697   6.438   0.813   6.218  0.8659  0.3665  0.2370
   48CHL1   C19 4698   6.303   0.871   6.179  0.1301 -0.0793  0.6735
   48CHL1  H19A 4699   6.245   0.900   6.270 -0.2250  1.9868 -0.1413
   48CHL1  H19B 4700   6.318   0.968   6.127  0.0909 -0.4334 -0.0013
   48CHL1  H19C 4701   6.250   0.796   6.116  1.2892  0.0060 -0.4343
   48CHL1    C1 4702   6.412   0.663   6.269 -0.5711 -0.1663 -0.5037
   48CHL1   H1A 4703   6.372   0.608   6.181 -0.8686 -2.1474  0.8119
   48CHL1   H1B 4704   6.512   0.617   6.280  0.5340  2.4014  1.2199
   48CHL1    C2 4705   6.352   0.647   6.410  0.1762  0.5489 -0.2412
   48CHL1   H2A 4706   6.340   0.542   6.445 -1.0918  0.6919 -0.1980
   48CHL1   H2B 4707   6.251   0.694   6.416  0.0741  0.4760 -1.1946
   48CHL1   C20 4708   6.654   0.974   5.553  0.7669 -0.1251  0.8400
   48CHL1   H20 4709   6.595   1.068   5.557 -0.4417 -0.8450  0.3933
   48CHL1   C21 4710   6.559   0.869   5.490 -1.1669  0.3103  0.7836
   48CHL1  H21A 4711   6.555   0.881   5.380 -1.7310 -0.8598  0.6581
   48CHL1  H21B 4712   6.599   0.766   5.503  2.9844  1.5713 -0.5965
   48CHL1  H21C 4713   6.455   0.878   5.528 -0.7373 -0.4934  2.2273
   48CHL1   C22 4714   6.775   1.006   5.454  0.1009  0.3873 -0.6537
   48CHL1  H22A 4715   6.829   1.097   5.484  0.6786 -0.5624  1.3713
   48CHL1  H22B 4716   6.841   0.916   5.454 -3.2505 -2.2894 -0.6053
   48CHL1   C23 4717   6.739   1.034   5.308 -0.4555 -0.4501  0.0165
   48CHL1  H23A 4718   6.693   0.946   5.258 -1.2260  0.8615 -1.6797
   48CHL1  H23B 4719   6.663   1.114   5.297  0.4492  0.2662 -1.2942
   48CHL1   C24 4720   6.868   1.066   5.221  0.2190 -0.0971  0.1819
   48CHL1  H24A 4721   6.915   1.164   5.248 -1.2772  0.4363  0.9765
   48CHL1  H24B 4722   6.948   0.992   5.243 -1.0449 -0.7739  2.9638
   48CHL1   C25 4723   6.831   1.071   5.071 -0.3939  0.5171  0.8236
   48CHL1   H25 4724   6.805   0.967   5.043 -2.1663  0.9822  0.6151
   48CHL1   C26 4725   6.706   1.159   5.047  0.6723  0.2846  0.3800
   48CHL1  H26A 4726   6.675   1.145   4.941  2.0594  0.8115 -0.1125
   48CHL1  H26B 4727   6.617   1.120   5.101  0.2447  1.2661  0.3991
   48CHL1  H26C 4728   6.736   1.263   5.071  1.6735 -0.0206  0.5013
   48CHL1   C27 4729   6.946   1.123   4.985  0.3921 -0.2066 -1.1328
   48CHL1  H27A 4730   6.947   1.232   5.010  0.2573  0.0913 -2.3678
   48CHL1  H27B 4731   7.046   1.078   4.996  0.2378 -0.6357 -1.4740
   48CHL1  H27C 4732   6.924   1.124   4.876  1.4966 -0.1615 -1.3617
   49CHL1    C3 4733   4.442   5.706   3.287  0.3193  0.1089  0.7734
   49CHL1    H3 4734   4.373   5.784   3.248  0.3495  0.1853  0.8723
   49CHL1    O3 4735   4.521   5.652   3.178 -0.2634  0.2763  0.3900
   49CHL1   H3' 4736   4.467   5.620   3.105  0.8679  2.0448 -1.3033
   49CHL1    C4 4737   4.547   5.772   3.381  0.4853 -0.1398 -0.2484
   49CHL1   H4A 4738   4.626   5.697   3.403 -0.3922 -0.6758  1.2025
   49CHL1   H4B 4739   4.586   5.847   3.309 -0.7524 -2.2029 -3.2856
   49CHL1    C5 4740   4.487   5.826   3.510 -0.0225 -0.4133 -0.2681
   49CHL1    C6 4741   4.500   5.959   3.542  0.4945  0.6990 -0.1213
   49CHL1    H6 4742   4.565   6.021   3.479  0.6277  0.1657 -0.5116
   49CHL1    C7 4743   4.446   6.022   3.665 -0.0404 -0.4486  0.1208
   49CHL1   H7A 4744   4.512   6.090   3.724 -0.8251 -1.4103  2.2135
   49CHL1   H7B 4745   4.353   6.071   3.630  0.1917 -0.5993 -0.7308
   49CHL1    C8 4746   4.410   5.906   3.772  0.2305  0.0063 -0.1906
   49CHL1    H8 4747   4.506   5.858   3.803 -0.4014 -1.8008 -0.8820
   49CHL1   C14 4748   4.341   5.969   3.896 -0.7724 -0.2072  0.2641
   49CHL1   H14 4749   4.254   6.026   3.857  0.3262  0.9449 -0.5688
   49CHL1   C15 4750   4.417   6.087   3.968 -0.7990  0.5361 -0.3896
   49CHL1  H15A 4751   4.527   6.074   3.979 -1.0779 -2.0493  0.0522
   49CHL1  H15B 4752   4.400   6.176   3.904  1.2075 -0.5183 -2.5439
   49CHL1   C16 4753   4.348   6.094   4.098  0.5061  0.3140  0.2326
   49CHL1  H16A 4754   4.421   6.093   4.182 -0.4848  1.1997  1.1440
   49CHL1  H16B 4755   4.289   6.189   4.105  0.8417  0.5875 -0.4738
   49CHL1   C17 4756   4.251   5.980   4.108 -0.1635 -0.0350  0.0681
   49CHL1   H17 4757   4.154   6.014   4.065 -1.0670  0.8530  2.5818
   49CHL1   C13 4758   4.300   5.875   4.003  0.2314  0.0920  0.9406
   49CHL1   C18 4759   4.423   5.803   4.068  0.2562  0.2273 -0.1204
   49CHL1  H18A 4760   4.498   5.874   4.110  0.0205  1.2728 -1.4003
   49CHL1  H18B 4761   4.383   5.725   4.137  0.1617  0.2945 -0.1001
   49CHL1  H18C 4762   4.479   5.743   3.993  1.1082 -1.5168  1.7879
   49CHL1   C12 4763   4.196   5.787   3.929  1.1290 -0.2545  1.1055
   49CHL1  H12A 4764   4.150   5.713   3.998 -1.8531 -3.2843 -3.5705
   49CHL1  H12B 4765   4.107   5.840   3.891  1.0025 -1.2667 -0.0947
   49CHL1   C11 4766   4.258   5.703   3.817  0.7023  0.6689  0.0282
   49CHL1  H11A 4767   4.339   5.637   3.855  1.2668  0.8106 -0.9051
   49CHL1  H11B 4768   4.183   5.631   3.777 -0.2425  1.1072  0.9566
   49CHL1    C9 4769   4.325   5.793   3.706 -0.1141 -0.0291 -0.5801
   49CHL1    H9 4770   4.233   5.838   3.664  0.1484  1.6724  0.5616
   49CHL1   C10 4771   4.403   5.722   3.590 -0.2165 -0.4786 -0.3118
   49CHL1   C19 4772   4.487   5.620   3.661 -0.2347 -0.9854 -0.1225
   49CHL1  H19A 4773   4.535   5.655   3.754  0.1480 -0.4109 -0.5370
   49CHL1  H19B 4774   4.431   5.527   3.685 -2.0327  0.3396  1.1178
   49CHL1  H19C 4775   4.566   5.577   3.597  0.6236  1.0117 -0.4534
   49CHL1    C1 4776   4.300   5.652   3.494  0.1266 -0.4496  0.0114
   49CHL1   H1A 4777   4.255   5.578   3.564  0.2386 -0.9448 -0.4425
   49CHL1   H1B 4778   4.225   5.728   3.461  2.5815  2.2301  0.1511
   49CHL1    C2 4779   4.367   5.593   3.368  0.2154 -0.4509  0.2256
   49CHL1   H2A 4780   4.286   5.555   3.303 -1.5233  1.4879  1.1442
   49CHL1   H2B 4781   4.438   5.509   3.385 -0.5226 -0.5836  3.1257
   49CHL1   C20 4782   4.203   5.940   4.249 -0.0004 -0.3533  0.1198
   49CHL1   H20 4783   4.299   5.909   4.296  0.3912 -1.1053 -1.1379
   49CHL1   C21 4784   4.095   5.827   4.242 -0.1630 -0.2021  0.5974
   49CHL1  H21A 4785   4.079   5.809   4.351 -1.5650  0.0897  0.4701
   49CHL1  H21B 4786   4.134   5.738   4.188 -2.5041 -1.8823  1.4931
   49CHL1  H21C 4787   3.996   5.860   4.202 -0.3619 -0.9926  0.4161
   49CHL1   C22 4788   4.157   6.064   4.329 -0.6757 -0.2044  1.1420
   49CHL1  H22A 4789   4.242   6.133   4.345 -0.4806 -0.4141  1.0055
   49CHL1  H22B 4790   4.067   6.104   4.279 -1.7328 -1.4632  1.9668
   49CHL1   C23 4791   4.109   6.041   4.474 -0.6142 -0.5730  0.6158
   49CHL1  H23A 4792   4.103   6.140   4.523 -0.7352  0.1936 -0.8832
   49CHL1  H23B 4793   4.010   5.992   4.483 -0.5156 -0.9310 -0.0938
   49CHL1   C24 4794   4.227   5.982   4.562 -0.4040 -0.1324  0.2559
   49CHL1  H24A 4795   4.249   5.880   4.526 -0.0840  0.6596 -1.9145
   49CHL1  H24B 4796   4.317   6.046   4.547 -0.7436  0.0658 -0.9980
   49CHL1   C25 4797   4.195   5.972   4.707  0.3366 -0.0924 -0.2303
   49CHL1   H25 4798   4.143   6.065   4.741 -1.7585  0.2057 -3.7154
   49CHL1   C26 4799   4.080   5.861   4.728  0.2557 -0.4080 -0.3323
   49CHL1  H26A 4800   4.079   5.821   4.832 -1.4851  1.0846  0.2794
   49CHL1  H26B 4801   3.980   5.905   4.709  1.3122  1.6521 -1.4952
   49CHL1  H26C 4802   4.095   5.779   4.655  0.9671 -0.7666  0.2073
   49CHL1   C27 4803   4.321   5.933   4.784 -0.6038 -0.1478 -0.8537
   49CHL1  H27A 4804   4.395   6.016   4.788 -1.5196  0.6539  0.1300
   49CHL1  H27B 4805   4.303   5.894   4.887  0.4232  1.9941  0.1977
   49CHL1  H27C 4806   4.364   5.852   4.722 -1.1939 -1.1674  0.0271
   50CHL1    C3 4807   1.888   3.546   3.043  0.2880  0.0871 -0.5862
   50CHL1    H3 4808   1.818   3.468   3.078 -0.8669 -0.1042 -3.0908
   50CHL1    O3 4809   1.911   3.512   2.903 -0.2049 -0.7390 -0.2089
   50CHL1   H3' 4810   1.959   3.587   2.865  0.2205 -1.5999 -1.4493
   50CHL1    C4 4811   1.821   3.677   3.071 -0.7489 -0.7240  0.3637
   50CHL1   H4A 4812   1.897   3.751   3.036  0.8312 -2.5336 -0.2185
   50CHL1   H4B 4813   1.731   3.701   3.011 -1.3443 -2.4384  0.5312
   50CHL1    C5 4814   1.801   3.704   3.218 -0.5365 -0.2675 -0.3318
   50CHL1    C6 4815   1.680   3.722   3.269 -0.1266 -0.8131 -0.0612
   50CHL1    H6 4816   1.593   3.714   3.202  0.3156  3.6024 -1.4891
   50CHL1    C7 4817   1.664   3.741   3.420  0.6345  0.4193  0.2879
   50CHL1   H7A 4818   1.593   3.825   3.435  0.9599  0.9914 -1.2706
   50CHL1   H7B 4819   1.622   3.658   3.480  0.0074  1.5133  1.4261
   50CHL1    C8 4820   1.796   3.783   3.493  0.8086 -0.4333 -0.3771
   50CHL1    H8 4821   1.808   3.892   3.477  2.6361 -0.7313 -1.1971
   50CHL1   C14 4822   1.785   3.753   3.642 -0.0771 -0.1498  0.2450
   50CHL1   H14 4823   1.777   3.643   3.653  3.1716 -0.5684 -0.6886
   50CHL1   C15 4824   1.663   3.806   3.718  0.1604 -0.1142  0.9273
   50CHL1  H15A 4825   1.655   3.911   3.684  1.0852 -0.7163 -1.3679
   50CHL1  H15B 4826   1.577   3.740   3.696  0.7829 -0.1873 -1.6230
   50CHL1   C16 4827   1.710   3.802   3.864  0.1942  0.4613  0.6423
   50CHL1  H16A 4828   1.682   3.903   3.901  1.2967  0.9498  0.1866
   50CHL1  H16B 4829   1.650   3.720   3.909 -0.5416  0.8990  0.4913
   50CHL1   C17 4830   1.857   3.762   3.870 -0.5984 -0.0596 -0.4820
   50CHL1   H17 4831   1.879   3.654   3.882  0.5009  0.3267  1.4346
   50CHL1   C13 4832   1.905   3.798   3.724 -0.9602 -0.5168  0.2166
   50CHL1   C18 4833   1.922   3.956   3.724 -0.4711  0.4061  0.2615
   50CHL1  H18A 4834   1.942   3.991   3.620 -1.8491 -0.4241 -0.2940
   50CHL1  H18B 4835   1.830   4.004   3.763 -1.3782 -0.6513 -0.5279
   50CHL1  H18C 4836   2.008   3.988   3.788 -0.1399  0.3101 -0.1280
   50CHL1   C12 4837   2.030   3.722   3.680 -0.6590 -0.7377 -0.1373
   50CHL1  H12A 4838   2.122   3.766   3.724  0.5282  0.3465 -3.3970
   50CHL1  H12B 4839   2.029   3.614   3.706 -1.4572 -0.0711  2.9895
   50CHL1   C11 4840   2.044   3.745   3.528 -0.4039  0.3859 -0.3692
   50CHL1  H11A 4841   2.067   3.852   3.509  2.6593 -0.1153  0.0149
   50CHL1  H11B 4842   2.135   3.691   3.494  0.1556  1.2231 -0.2181
   50CHL1    C9 4843   1.917   3.707   3.446  0.2621  0.2405 -0.4958
   50CHL1    H9 4844   1.895   3.604   3.483  1.2711 -0.0611 -0.7199
   50CHL1   C10 4845   1.939   3.707   3.297 -1.3452 -0.6502  0.1667
   50CHL1   C19 4846   2.019   3.832   3.251 -0.3917  0.2920  0.3253
   50CHL1  H19A 4847   2.026   3.845   3.141  3.5967  2.8689  0.7051
   50CHL1  H19B 4848   1.978   3.924   3.297  0.1264  1.6570 -1.8248
   50CHL1  H19C 4849   2.127   3.825   3.276 -0.0813  1.0282 -0.7539
   50CHL1    C1 4850   2.024   3.573   3.262  0.6273 -0.3061 -0.5767
   50CHL1   H1A 4851   2.130   3.577   3.295  1.2141 -1.1248 -2.2178
   50CHL1   H1B 4852   1.980   3.491   3.323  0.5593 -0.6287 -1.0545
   50CHL1    C2 4853   2.023   3.537   3.114  0.3233  0.2228 -0.4175
   50CHL1   H2A 4854   2.049   3.431   3.094 -3.0419 -0.9159  0.5716
   50CHL1   H2B 4855   2.088   3.607   3.057  1.1263 -0.1563  0.0203
   50CHL1   C20 4856   1.928   3.814   4.001  0.6792  0.3076 -0.0438
   50CHL1   H20 4857   1.921   3.924   3.988 -0.2060  0.5937  2.3499
   50CHL1   C21 4858   2.080   3.789   4.017  0.3850  0.0784  0.3423
   50CHL1  H21A 4859   2.099   3.681   3.995 -1.8874  0.0763 -2.0969
   50CHL1  H21B 4860   2.125   3.831   4.110  2.1556 -0.0370 -0.4259
   50CHL1  H21C 4861   2.120   3.852   3.935 -0.0162  1.5634  1.2516
   50CHL1   C22 4862   1.852   3.765   4.127 -0.6605 -0.3513 -0.1965
   50CHL1  H22A 4863   1.750   3.808   4.127 -1.5536 -2.3337 -1.4377
   50CHL1  H22B 4864   1.836   3.655   4.120  1.3278 -0.5937 -2.1021
   50CHL1   C23 4865   1.915   3.796   4.262 -0.0591 -0.0405  0.1046
   50CHL1  H23A 4866   2.014   3.745   4.271 -0.2176 -0.3065  0.3623
   50CHL1  H23B 4867   1.936   3.905   4.264 -0.4916  0.0552  1.9229
   50CHL1   C24 4868   1.828   3.752   4.382 -0.3404 -0.2028  0.1912
   50CHL1  H24A 4869   1.743   3.822   4.393  0.7132  0.8914  1.8765
   50CHL1  H24B 4870   1.784   3.654   4.355  1.9541 -2.1922  2.9935
   50CHL1   C25 4871   1.910   3.743   4.511  0.3233  0.7144  0.3211
   50CHL1   H25 4872   1.980   3.659   4.495 -3.2488 -2.1322 -1.9943
   50CHL1   C26 4873   1.994   3.863   4.531 -0.1299 -0.7707 -0.7074
   50CHL1  H26A 4874   2.054   3.848   4.624 -0.4524  2.4046  0.1260
   50CHL1  H26B 4875   2.066   3.881   4.448 -0.7588 -1.5285 -1.4183
   50CHL1  H26C 4876   1.927   3.951   4.544  1.0739  0.1121 -0.2537
   50CHL1   C27 4877   1.830   3.713   4.641 -0.0034  0.0733 -0.4975
   50CHL1  H27A 4878   1.764   3.802   4.650  1.7538  1.4390 -0.4600
   50CHL1  H27B 4879   1.771   3.619   4.651  1.9267 -1.0649  0.9915
   50CHL1  H27C 4880   1.904   3.704   4.724  1.5347  0.1726 -1.8096
   51CHL1    C3 4881   2.677   2.503   3.391 -0.0779 -0.3202 -0.2972
   51CHL1    H3 4882   2.732   2.599   3.405 -0.2943  0.2584 -2.8559
   51CHL1    O3 4883   2.632   2.483   3.265  0.0797 -0.6421  0.4485
   51CHL1   H3' 4884   2.711   2.509   3.217  0.4549  1.5456  2.1100
   51CHL1    C4 4885   2.775   2.387   3.433  0.1054  0.1914  0.5498
   51CHL1   H4A 4886   2.716   2.296   3.411  0.6735  0.0470 -0.4555
   51CHL1   H4B 4887   2.861   2.388   3.362  0.6003 -0.3079  1.1347
   51CHL1    C5 4888   2.818   2.388   3.575 -0.4694 -0.1047  0.3532
   51CHL1    C6 4889   2.950   2.386   3.608  0.0541  0.4264  0.1691
   51CHL1    H6 4890   3.030   2.391   3.532 -1.4089  1.9895 -1.3482
   51CHL1    C7 4891   3.003   2.372   3.755 -0.1825  0.4952  0.2887
   51CHL1   H7A 4892   3.066   2.281   3.769 -2.6774 -1.3282  0.3302
   51CHL1   H7B 4893   3.062   2.458   3.793  0.5015  0.5052 -0.7420
   51CHL1    C8 4894   2.886   2.345   3.865 -0.2785 -0.0730  0.6039
   51CHL1    H8 4895   2.856   2.238   3.876 -1.4695  0.1432 -0.3520
   51CHL1   C14 4896   2.922   2.397   3.996 -0.4302  0.4901 -0.1783
   51CHL1   H14 4897   2.932   2.505   3.976 -0.6054 -0.0374 -3.7959
   51CHL1   C15 4898   3.057   2.342   4.054  0.4214 -0.5028  0.9347
   51CHL1  H15A 4899   3.077   2.243   4.008  0.2874 -0.1521  0.0989
   51CHL1  H15B 4900   3.126   2.423   4.022  0.2151 -1.3043 -1.8589
   51CHL1   C16 4901   3.040   2.351   4.206 -0.7976  0.1565 -0.1604
   51CHL1  H16A 4902   3.031   2.247   4.243  3.2127 -0.6600 -0.9813
   51CHL1  H16B 4903   3.128   2.382   4.266 -0.6497  0.1547 -0.3725
   51CHL1   C17 4904   2.910   2.424   4.231  0.0943 -0.2244  1.0286
   51CHL1   H17 4905   2.931   2.532   4.215 -0.0586 -0.3703 -0.2211
   51CHL1   C13 4906   2.815   2.381   4.107  0.0280  0.1136 -0.6265
   51CHL1   C18 4907   2.766   2.233   4.126  0.3360  0.6906  0.1622
   51CHL1  H18A 4908   2.705   2.211   4.036  0.0941  2.6035 -0.1878
   51CHL1  H18B 4909   2.842   2.152   4.131  1.7244  1.7421 -2.2936
   51CHL1  H18C 4910   2.689   2.228   4.206 -1.1441 -1.5637 -1.2947
   51CHL1   C12 4911   2.703   2.471   4.074  0.0552 -0.1851  0.1595
   51CHL1  H12A 4912   2.607   2.461   4.129 -1.4611  0.2324 -2.2972
   51CHL1  H12B 4913   2.732   2.577   4.088 -0.6099 -0.2689  2.6674
   51CHL1   C11 4914   2.656   2.451   3.923  0.3287  0.0396 -0.0987
   51CHL1  H11A 4915   2.577   2.373   3.912 -0.0221  0.4103 -0.2102
   51CHL1  H11B 4916   2.604   2.547   3.908  0.2395 -0.0232 -0.1901
   51CHL1    C9 4917   2.770   2.437   3.815  0.3136 -0.0229 -0.6316
   51CHL1    H9 4918   2.811   2.540   3.800  3.1849 -1.1390 -1.0958
   51CHL1   C10 4919   2.710   2.401   3.685  0.2272 -0.2801  0.8585
   51CHL1   C19 4920   2.639   2.256   3.696 -0.7329 -0.7107 -0.0655
   51CHL1  H19A 4921   2.719   2.188   3.732  0.2790  0.0620 -0.7962
   51CHL1  H19B 4922   2.565   2.256   3.779 -1.0958  0.2782 -0.3676
   51CHL1  H19C 4923   2.592   2.229   3.599  1.3629 -1.3062 -0.9701
   51CHL1    C1 4924   2.605   2.502   3.635  0.8861  0.4057  0.9374
   51CHL1   H1A 4925   2.511   2.495   3.694 -1.5760 -0.9025 -2.7483
   51CHL1   H1B 4926   2.649   2.603   3.645  0.9759  0.3041  1.6183
   51CHL1    C2 4927   2.561   2.487   3.489  0.3463 -0.4191  0.0927
   51CHL1   H2A 4928   2.477   2.556   3.465 -0.5441 -1.0785  1.2182
   51CHL1   H2B 4929   2.528   2.381   3.475  1.9017 -1.0000  0.6664
   51CHL1   C20 4930   2.860   2.403   4.375 -0.3194  0.1788  0.2679
   51CHL1   H20 4931   2.835   2.295   4.372  0.3336 -0.0003  0.9470
   51CHL1   C21 4932   2.728   2.479   4.404 -0.3138 -0.4503 -0.0556
   51CHL1  H21A 4933   2.738   2.585   4.374 -0.3330  0.2039  2.0849
   51CHL1  H21B 4934   2.709   2.470   4.513 -0.1950 -1.4078 -0.1046
   51CHL1  H21C 4935   2.648   2.433   4.342  0.6418 -0.4184 -1.3475
   51CHL1   C22 4936   2.965   2.423   4.484 -0.1467  0.8842 -0.6354
   51CHL1  H22A 4937   2.921   2.378   4.576 -0.9508 -0.8795 -1.8099
   51CHL1  H22B 4938   3.050   2.352   4.471 -0.0293  1.0788 -0.9363
   51CHL1   C23 4939   3.013   2.562   4.513  0.8718 -0.3363 -0.0804
   51CHL1  H23A 4940   3.030   2.591   4.407 -0.4733 -2.8529 -1.0704
   51CHL1  H23B 4941   2.931   2.625   4.555 -1.3875 -2.1337 -1.5562
   51CHL1   C24 4942   3.142   2.578   4.600  0.7446  0.4251  0.0908
   51CHL1  H24A 4943   3.150   2.508   4.686  4.2158  0.6873  0.1330
   51CHL1  H24B 4944   3.234   2.563   4.539  0.4806  1.7329 -0.6511
   51CHL1   C25 4945   3.151   2.722   4.656  0.2096  0.1607  0.6198
   51CHL1   H25 4946   3.062   2.741   4.719  1.6813 -0.9846  3.2001
   51CHL1   C26 4947   3.279   2.739   4.734 -0.0858  0.0350 -0.2011
   51CHL1  H26A 4948   3.364   2.750   4.664 -0.4168 -3.4623 -1.3477
   51CHL1  H26B 4949   3.263   2.835   4.788  1.1296  1.0717 -1.5908
   51CHL1  H26C 4950   3.291   2.651   4.802 -0.1238  1.7611  2.1679
   51CHL1   C27 4951   3.139   2.823   4.541 -0.9214 -0.4756  0.2837
   51CHL1  H27A 4952   3.036   2.825   4.498 -0.6826  1.3651 -0.2652
   51CHL1  H27B 4953   3.145   2.927   4.578  1.1105 -0.4186 -0.1102
   51CHL1  H27C 4954   3.214   2.803   4.462 -0.7381  0.5999  0.1696
   52CHL1    C3 4955   3.256   5.401   3.085 -0.4159 -0.1923 -1.0512
   52CHL1    H3 4956   3.229   5.300   3.048 -1.2499 -0.6615  0.7362
   52CHL1    O3 4957   3.301   5.471   2.971 -0.0071 -0.6018  0.0980
   52CHL1   H3' 4958   3.394   5.449   2.968  0.2712  0.0207  2.0960
   52CHL1    C4 4959   3.139   5.483   3.147  0.0762  0.4608  0.2770
   52CHL1   H4A 4960   3.176   5.588   3.150  0.7326  0.3100 -1.6014
   52CHL1   H4B 4961   3.062   5.483   3.067 -0.6144 -0.3619  0.9270
   52CHL1    C5 4962   3.097   5.426   3.276  0.0420 -0.3238  0.2890
   52CHL1    C6 4963   2.963   5.401   3.286 -0.0103 -0.2485  0.7029
   52CHL1    H6 4964   2.893   5.435   3.208 -0.1237  1.5033  1.5415
   52CHL1    C7 4965   2.903   5.352   3.411  0.4590  0.0907  0.2106
   52CHL1   H7A 4966   2.818   5.418   3.439 -0.0570 -1.1911  1.7435
   52CHL1   H7B 4967   2.856   5.252   3.398 -0.6245  0.6171 -0.0426
   52CHL1    C8 4968   2.996   5.351   3.530  0.2080 -0.1298  1.0553
   52CHL1    H8 4969   3.009   5.458   3.553  0.3644  0.7071 -2.2981
   52CHL1   C14 4970   2.940   5.279   3.647  0.8773 -0.7700  0.3176
   52CHL1   H14 4971   2.934   5.174   3.612  0.3542 -0.2546 -1.2503
   52CHL1   C15 4972   2.806   5.317   3.705 -0.1165 -0.8486 -0.1727
   52CHL1  H15A 4973   2.794   5.428   3.708 -0.1443 -0.6478 -3.4384
   52CHL1  H15B 4974   2.720   5.281   3.645 -1.4641  1.6079  0.1668
   52CHL1   C16 4975   2.803   5.268   3.850 -0.1019  0.7060  0.0645
   52CHL1  H16A 4976   2.771   5.352   3.915 -0.5162  0.6988 -0.1225
   52CHL1  H16B 4977   2.728   5.187   3.839  0.4172  0.3664 -1.1597
   52CHL1   C17 4978   2.949   5.199   3.865  0.4421 -0.6620  0.1705
   52CHL1   H17 4979   2.936   5.101   3.815  0.4455  0.4155 -2.0827
   52CHL1   C13 4980   3.032   5.280   3.768 -0.5113  0.5104 -0.0235
   52CHL1   C18 4981   3.050   5.430   3.812  0.2782 -0.1503 -0.5266
   52CHL1  H18A 4982   2.952   5.481   3.823  0.8432  0.7371  0.6963
   52CHL1  H18B 4983   3.114   5.437   3.903 -0.0977 -0.1027 -0.2654
   52CHL1  H18C 4984   3.117   5.483   3.741 -2.3416 -0.2137 -3.2299
   52CHL1   C12 4985   3.170   5.214   3.733 -0.3022 -0.5276  0.6849
   52CHL1  H12A 4986   3.237   5.209   3.821 -1.1895 -2.1098  1.3208
   52CHL1  H12B 4987   3.148   5.107   3.712 -0.2924 -0.4322  0.1901
   52CHL1   C11 4988   3.237   5.279   3.613  0.7579  0.0351  0.2365
   52CHL1  H11A 4989   3.273   5.374   3.658 -1.5512 -0.7084  4.1772
   52CHL1  H11B 4990   3.321   5.211   3.585  1.3615  0.5493  0.7601
   52CHL1    C9 4991   3.139   5.300   3.495  0.2954 -0.3816  0.9047
   52CHL1    H9 4992   3.127   5.202   3.445 -0.7340  0.6497 -0.9905
   52CHL1   C10 4993   3.204   5.395   3.383  0.0349 -0.1589  0.7047
   52CHL1   C19 4994   3.279   5.517   3.439  0.2418 -0.0196 -0.6437
   52CHL1  H19A 4995   3.230   5.579   3.517  1.0875  0.5215 -0.5178
   52CHL1  H19B 4996   3.376   5.483   3.481  0.2638  2.2470  1.3633
   52CHL1  H19C 4997   3.316   5.585   3.360 -1.6046  1.1355 -0.5670
   52CHL1    C1 4998   3.314   5.309   3.315  0.3966 -0.3854 -0.0810
   52CHL1   H1A 4999   3.400   5.285   3.382  1.3385  0.2864 -1.0158
   52CHL1   H1B 5000   3.266   5.212   3.288 -0.2612  0.3612 -1.6892
   52CHL1    C2 5001   3.374   5.379   3.190 -0.3837 -0.7726 -0.0285
   52CHL1   H2A 5002   3.449   5.310   3.147 -0.1363  1.0894 -2.7766
   52CHL1   H2B 5003   3.436   5.469   3.210 -1.7560 -0.3763  3.1265
   52CHL1   C20 5004   2.987   5.193   4.011  0.1345  0.1429  0.3916
   52CHL1   H20 5005   3.022   5.292   4.049 -0.4923  0.9262 -0.9702
   52CHL1   C21 5006   3.093   5.078   4.031 -0.6842  0.8870 -0.0626
   52CHL1  H21A 5007   3.153   5.092   4.124  1.1540  0.0218 -1.0784
   52CHL1  H21B 5008   3.166   5.082   3.948 -0.8079  1.0181 -0.1676
   52CHL1  H21C 5009   3.044   4.979   4.028  2.2830 -0.6984  0.0103
   52CHL1   C22 5010   2.863   5.159   4.103 -0.3313 -0.4323 -0.5682
   52CHL1  H22A 5011   2.785   5.238   4.109  0.5701  0.3608  1.9073
   52CHL1  H22B 5012   2.818   5.066   4.062  2.0660 -0.8110 -2.5927
   52CHL1   C23 5013   2.896   5.133   4.246 -0.4523 -0.0017  0.3549
   52CHL1  H23A 5014   2.984   5.066   4.250  0.0603  0.7023  1.3157
   52CHL1  H23B 5015   2.936   5.224   4.296  0.9325 -0.7318  0.6158
   52CHL1   C24 5016   2.779   5.062   4.322 -0.8760  0.4379  0.5601
   52CHL1  H24A 5017   2.692   5.130   4.309 -0.0204  1.2989 -0.8130
   52CHL1  H24B 5018   2.750   4.965   4.278 -0.0379  1.4511 -2.4833
   52CHL1   C25 5019   2.801   5.058   4.472  1.0239 -0.1927 -0.0680
   52CHL1   H25 5020   2.842   5.151   4.516 -0.3122 -0.5734  2.1105
   52CHL1   C26 5021   2.669   5.022   4.555 -0.7537  0.2855  0.5074
   52CHL1  H26A 5022   2.671   5.018   4.666  0.8337 -2.3227  0.4544
   52CHL1  H26B 5023   2.589   5.090   4.517  1.3910  1.1672 -2.8220
   52CHL1  H26C 5024   2.657   4.913   4.540  1.4093 -0.1643  1.7549
   52CHL1   C27 5025   2.908   4.957   4.496  0.5276  1.0452 -0.0126
   52CHL1  H27A 5026   2.880   4.859   4.452 -1.6095  1.9251 -0.7432
   52CHL1  H27B 5027   3.001   5.002   4.454  0.5125  0.6266 -0.5161
   52CHL1  H27C 5028   2.922   4.956   4.606 -1.9222 -0.7767  0.3610
   53CHL1    C3 5029   4.078   5.164   3.295 -0.3683 -0.0946 -0.2982
   53CHL1    H3 5030   3.987   5.114   3.256  0.0636  0.0983 -1.5854
   53CHL1    O3 5031   4.189   5.163   3.211 -0.2313 -0.1730 -0.2861
   53CHL1   H3' 5032   4.266   5.191   3.262  1.3917 -3.2895 -0.7550
   53CHL1    C4 5033   4.048   5.309   3.337 -0.2141  0.5615  0.4170
   53CHL1   H4A 5034   4.142   5.363   3.358 -0.2350  0.4573  0.8020
   53CHL1   H4B 5035   4.001   5.362   3.252 -0.8922 -0.5502  0.0668
   53CHL1    C5 5036   3.954   5.318   3.451 -0.6761 -0.1321  0.2629
   53CHL1    C6 5037   3.833   5.385   3.438 -0.4267 -0.6704  1.1005
   53CHL1    H6 5038   3.806   5.444   3.349  0.1227 -0.0811  1.3123
   53CHL1    C7 5039   3.738   5.405   3.546  0.2000 -0.3051 -0.4593
   53CHL1   H7A 5040   3.702   5.509   3.556 -1.4227 -0.9215  0.5395
   53CHL1   H7B 5041   3.645   5.352   3.517  0.1678 -0.1686 -0.6028
   53CHL1    C8 5042   3.786   5.366   3.685  0.2506  0.8329  0.0124
   53CHL1    H8 5043   3.841   5.452   3.728 -0.6555  1.3858  0.0967
   53CHL1   C14 5044   3.667   5.338   3.776 -0.7175 -0.5442 -0.0509
   53CHL1   H14 5045   3.616   5.249   3.735 -2.5059 -0.1122  1.1407
   53CHL1   C15 5046   3.554   5.443   3.780  0.5715 -0.4052  0.2293
   53CHL1  H15A 5047   3.595   5.546   3.792 -1.4866  0.3134  1.5437
   53CHL1  H15B 5048   3.493   5.421   3.690 -0.0794  0.9423  0.3220
   53CHL1   C16 5049   3.484   5.403   3.911  0.6588 -0.6279  0.3416
   53CHL1  H16A 5050   3.485   5.492   3.978 -1.4994  0.4308 -0.9308
   53CHL1  H16B 5051   3.376   5.383   3.897  1.2056 -2.3524 -1.9822
   53CHL1   C17 5052   3.565   5.288   3.983 -0.3322  0.1018  0.2834
   53CHL1   H17 5053   3.538   5.188   3.941 -0.5476 -0.8026  2.4362
   53CHL1   C13 5054   3.706   5.308   3.922  0.1435  0.1826  0.2889
   53CHL1   C18 5055   3.763   5.439   3.990 -0.0368 -0.4552 -0.9446
   53CHL1  H18A 5056   3.695   5.526   3.991 -1.2142 -1.2277  3.5009
   53CHL1  H18B 5057   3.780   5.413   4.096  0.4850  0.2961 -0.8376
   53CHL1  H18C 5058   3.863   5.460   3.945 -1.6218  4.0443 -2.8863
   53CHL1   C12 5059   3.811   5.200   3.928  0.1915  0.2176 -0.7263
   53CHL1  H12A 5060   3.856   5.192   4.029 -0.5143  0.4699 -0.3840
   53CHL1  H12B 5061   3.758   5.102   3.920 -0.2632  0.4453 -0.5442
   53CHL1   C11 5062   3.921   5.209   3.825 -0.4326 -0.5568 -0.2017
   53CHL1  H11A 5063   3.982   5.297   3.855  1.1080 -0.9516 -2.0310
   53CHL1  H11B 5064   3.987   5.121   3.836 -0.2014 -0.1757  1.9234
   53CHL1    C9 5065   3.870   5.238   3.683 -0.5118 -0.0289  0.1864
   53CHL1    H9 5066   3.802   5.156   3.652 -0.9419  0.7419 -0.9746
   53CHL1   C10 5067   3.983   5.241   3.575  0.5578 -0.4072 -0.2154
   53CHL1   C19 5068   4.112   5.294   3.634 -0.2098 -0.0982 -0.7899
   53CHL1  H19A 5069   4.162   5.231   3.710 -0.1451  3.4955  2.4504
   53CHL1  H19B 5070   4.189   5.318   3.558  3.0528 -1.1525  1.9315
   53CHL1  H19C 5071   4.094   5.392   3.683  0.2760 -0.4120  0.0319
   53CHL1    C1 5072   4.002   5.101   3.534  0.6709  0.0432 -0.6433
   53CHL1   H1A 5073   4.037   5.035   3.617 -3.8265  0.1816  1.6893
   53CHL1   H1B 5074   3.907   5.051   3.503  0.6157  0.6437 -1.4688
   53CHL1    C2 5075   4.109   5.082   3.422 -0.4275  0.7828 -0.8980
   53CHL1   H2A 5076   4.120   4.973   3.402 -0.9300  0.5292  0.1538
   53CHL1   H2B 5077   4.206   5.119   3.462  0.3935  0.0181 -2.1057
   53CHL1   C20 5078   3.537   5.271   4.137  0.7458 -0.6001  0.1632
   53CHL1   H20 5079   3.584   5.359   4.187  1.1863  0.7727 -2.4555
   53CHL1   C21 5080   3.622   5.153   4.184 -0.0708  0.5805 -0.4488
   53CHL1  H21A 5081   3.607   5.126   4.290  0.0534 -0.1196 -0.6004
   53CHL1  H21B 5082   3.731   5.174   4.176  0.0287  0.6927  0.9519
   53CHL1  H21C 5083   3.605   5.056   4.131  1.8109 -0.3422  0.5426
   53CHL1   C22 5084   3.386   5.272   4.182  0.6919  0.2532 -0.1589
   53CHL1  H22A 5085   3.334   5.362   4.143 -0.8161  0.6384  2.5056
   53CHL1  H22B 5086   3.338   5.184   4.133 -0.2269 -0.7238  2.3363
   53CHL1   C23 5087   3.348   5.277   4.333 -0.2266 -0.5802  0.3973
   53CHL1  H23A 5088   3.393   5.187   4.382 -1.7934 -0.8400  1.4402
   53CHL1  H23B 5089   3.413   5.359   4.371  1.2040 -0.8112 -1.4197
   53CHL1   C24 5090   3.206   5.301   4.365  0.5519  0.2292 -0.3157
   53CHL1  H24A 5091   3.169   5.395   4.319  0.2133  0.2746  0.0415
   53CHL1  H24B 5092   3.154   5.213   4.322 -2.1196  2.1360 -1.2740
   53CHL1   C25 5093   3.164   5.294   4.518  0.2918 -0.1340 -0.3864
   53CHL1   H25 5094   3.053   5.299   4.519  0.1545 -2.0027 -1.7633
   53CHL1   C26 5095   3.213   5.172   4.591 -0.3084 -0.2976  0.8167
   53CHL1  H26A 5096   3.179   5.080   4.539 -0.1867 -0.6622  1.3765
   53CHL1  H26B 5097   3.323   5.170   4.602 -0.1153  0.7392 -0.6060
   53CHL1  H26C 5098   3.168   5.173   4.693 -0.9370  2.0667  0.5831
   53CHL1   C27 5099   3.209   5.424   4.594  0.5162 -0.4099 -0.3515
   53CHL1  H27A 5100   3.145   5.425   4.685  1.0916  0.1462  0.0551
   53CHL1  H27B 5101   3.311   5.421   4.637  0.9588  0.0003 -1.3651
   53CHL1  H27C 5102   3.191   5.521   4.544  1.0015 -0.2637 -0.2411
   54CHL1    C3 5103   0.813   0.034   3.171 -0.1154 -0.4749  0.6871
   54CHL1    H3 5104   0.844  -0.072   3.157  0.7914 -0.1366  0.0110
   54CHL1    O3 5105   0.869   0.096   3.062 -0.0940  0.2788  1.0041
   54CHL1   H3' 5106   0.792   0.124   3.011 -0.4886 -0.8213  0.9803
   54CHL1    C4 5107   0.665   0.050   3.151 -0.2574 -0.1926 -0.0451
   54CHL1   H4A 5108   0.636   0.156   3.141 -0.9694 -0.6301 -3.9784
   54CHL1   H4B 5109   0.641   0.009   3.051  0.5947 -0.3493 -0.1931
   54CHL1    C5 5110   0.583  -0.002   3.269  0.0205  0.4606 -0.0083
   54CHL1    C6 5111   0.478  -0.082   3.260 -0.0267 -0.1630 -0.0386
   54CHL1    H6 5112   0.451  -0.113   3.158 -1.6072 -0.6495  0.4966
   54CHL1    C7 5113   0.393  -0.129   3.376  0.5227  0.8151  0.9271
   54CHL1   H7A 5114   0.286  -0.111   3.352  1.1508  0.7953 -2.4433
   54CHL1   H7B 5115   0.410  -0.239   3.383  2.3146  1.0211  0.3786
   54CHL1    C8 5116   0.414  -0.055   3.506 -0.0563  0.3233  0.0572
   54CHL1    H8 5117   0.354   0.038   3.497 -3.0325 -1.1617  2.6014
   54CHL1   C14 5118   0.345  -0.122   3.631 -0.2388  0.2234  0.1287
   54CHL1   H14 5119   0.392  -0.222   3.641  1.6031  0.4702 -3.9297
   54CHL1   C15 5120   0.195  -0.152   3.626  0.2310 -0.1713  0.6910
   54CHL1  H15A 5121   0.134  -0.067   3.588  1.9368 -0.0341 -2.0462
   54CHL1  H15B 5122   0.168  -0.235   3.557  0.6079 -0.5541  1.0023
   54CHL1   C16 5123   0.153  -0.186   3.772 -0.5753 -0.2066 -0.0262
   54CHL1  H16A 5124   0.069  -0.117   3.793 -0.4915 -0.8399  2.7627
   54CHL1  H16B 5125   0.135  -0.293   3.794  2.9044 -0.8217  0.4106
   54CHL1   C17 5126   0.271  -0.135   3.860  0.0021  0.4026  0.3882
   54CHL1   H17 5127   0.330  -0.225   3.889  0.4896  0.0493 -1.5516
   54CHL1   C13 5128   0.362  -0.051   3.760  0.4903  0.4834  0.2594
   54CHL1   C18 5129   0.302   0.090   3.763  0.2770 -0.3727 -0.7727
   54CHL1  H18A 5130   0.343   0.167   3.696 -1.4417  1.6781  0.4168
   54CHL1  H18B 5131   0.192   0.082   3.747  0.1402  1.5325 -0.9079
   54CHL1  H18C 5132   0.310   0.139   3.862 -0.0686 -0.6300 -0.6126
   54CHL1   C12 5133   0.511  -0.054   3.781 -0.4586  0.7847 -0.4115
   54CHL1  H12A 5134   0.539  -0.004   3.876 -0.7179 -0.7448  0.5170
   54CHL1  H12B 5135   0.544  -0.160   3.788 -1.6249  0.3656 -0.9577
   54CHL1   C11 5136   0.595   0.015   3.673  0.4285  0.5867 -0.1082
   54CHL1  H11A 5137   0.574   0.124   3.679  3.1956  1.2644 -1.3311
   54CHL1  H11B 5138   0.703   0.009   3.699  0.3826 -0.3650 -0.0809
   54CHL1    C9 5139   0.559  -0.033   3.525 -0.1439  0.1687 -0.3985
   54CHL1    H9 5140   0.602  -0.135   3.522 -2.7088 -0.9552 -1.8730
   54CHL1   C10 5141   0.632   0.053   3.411 -0.5006 -0.0389 -0.1729
   54CHL1   C19 5142   0.581   0.207   3.430 -0.1155 -0.9821  1.0212
   54CHL1  H19A 5143   0.472   0.215   3.410  0.1692 -0.0123 -0.2361
   54CHL1  H19B 5144   0.607   0.253   3.528  1.1354 -1.2586  0.8405
   54CHL1  H19C 5145   0.636   0.269   3.357 -0.7049 -0.8871  0.6498
   54CHL1    C1 5146   0.787   0.054   3.423  0.1337 -0.2897  0.6875
   54CHL1   H1A 5147   0.822   0.113   3.510 -0.8355  0.6019  0.4847
   54CHL1   H1B 5148   0.825  -0.050   3.434  2.2355  0.2979 -0.4939
   54CHL1    C2 5149   0.860   0.101   3.299 -0.2874 -0.1034 -0.3244
   54CHL1   H2A 5150   0.966   0.074   3.320 -0.2611 -1.7603 -2.2716
   54CHL1   H2B 5151   0.852   0.211   3.291 -0.1418 -0.1445 -1.0357
   54CHL1   C20 5152   0.230  -0.072   4.001  0.4749 -0.2796 -0.7690
   54CHL1   H20 5153   0.176   0.023   3.982  0.5218  0.1907  1.1751
   54CHL1   C21 5154   0.358  -0.033   4.080 -0.3916  0.1432 -0.0645
   54CHL1  H21A 5155   0.424  -0.122   4.088 -0.5030 -0.2565 -2.6623
   54CHL1  H21B 5156   0.327  -0.000   4.181 -0.7906 -2.2997  0.6713
   54CHL1  H21C 5157   0.419   0.048   4.036  1.2818  0.2571  2.2800
   54CHL1   C22 5158   0.153  -0.176   4.084 -0.1182  0.3223  0.5764
   54CHL1  H22A 5159   0.070  -0.227   4.031 -2.0794  1.8241  2.0626
   54CHL1  H22B 5160   0.227  -0.254   4.113  0.6106  0.4088 -0.9316
   54CHL1   C23 5161   0.093  -0.127   4.216 -0.3076  0.2758  1.2706
   54CHL1  H23A 5162   0.170  -0.067   4.267 -1.3773  3.5357 -0.6340
   54CHL1  H23B 5163   0.015  -0.050   4.195 -0.8803 -0.3116  1.1916
   54CHL1   C24 5164   0.030  -0.235   4.309  0.1945  0.4254  0.1330
   54CHL1  H24A 5165  -0.006  -0.184   4.401 -1.2345 -0.1260 -0.0984
   54CHL1  H24B 5166  -0.053  -0.272   4.246  0.8628  2.7924 -2.3538
   54CHL1   C25 5167   0.120  -0.346   4.370  0.3940 -0.0861  0.1708
   54CHL1   H25 5168   0.151  -0.411   4.286 -2.1197  0.5417 -1.3292
   54CHL1   C26 5169   0.231  -0.285   4.458 -0.4447  0.2608  0.7707
   54CHL1  H26A 5170   0.187  -0.254   4.555 -1.4469  2.2862 -0.2608
   54CHL1  H26B 5171   0.307  -0.365   4.472  0.9768  1.2477 -0.8733
   54CHL1  H26C 5172   0.278  -0.191   4.421  0.9729 -0.9112 -0.5257
   54CHL1   C27 5173   0.041  -0.444   4.455 -0.6404  0.3795 -0.2607
   54CHL1  H27A 5174   0.093  -0.541   4.470  0.6231  0.8032 -1.6343
   54CHL1  H27B 5175   0.017  -0.405   4.556  0.8882  1.3318 -0.2175
   54CHL1  H27C 5176  -0.049  -0.464   4.393 -1.9243 -0.3430  1.7626
   55CHL1    C3 5177   5.160   1.383   3.224 -0.8209 -0.2769 -0.0648
   55CHL1    H3 5178   5.126   1.471   3.283 -0.0630  0.4487 -0.6690
   55CHL1    O3 5179   5.147   1.414   3.083  0.3968  0.0533  0.2211
   55CHL1   H3' 5180   5.063   1.374   3.058  1.3623 -1.1169 -1.3535
   55CHL1    C4 5181   5.304   1.353   3.268 -0.4237 -0.3890 -0.3077
   55CHL1   H4A 5182   5.334   1.257   3.221  0.2431 -2.1205  3.3053
   55CHL1   H4B 5183   5.369   1.432   3.224  1.1466 -1.8654 -0.7570
   55CHL1    C5 5184   5.309   1.343   3.421 -0.4043 -0.0127  0.8132
   55CHL1    C6 5185   5.386   1.428   3.496  0.0473 -0.6155 -0.1215
   55CHL1    H6 5186   5.444   1.506   3.444 -0.3477 -1.4307 -1.8492
   55CHL1    C7 5187   5.385   1.428   3.646 -0.7579 -0.6978  0.8275
   55CHL1   H7A 5188   5.482   1.452   3.694 -0.5203 -0.8779  0.4478
   55CHL1   H7B 5189   5.317   1.510   3.679  1.1261  2.2849 -2.1000
   55CHL1    C8 5190   5.326   1.306   3.707  0.2424 -1.1237  0.3844
   55CHL1    H8 5191   5.404   1.227   3.698  0.9063 -0.9227  3.3292
   55CHL1   C14 5192   5.296   1.335   3.853  0.7737 -0.4785 -0.6709
   55CHL1   H14 5193   5.218   1.413   3.855  0.1360 -1.1112 -0.2646
   55CHL1   C15 5194   5.403   1.391   3.947 -0.0150 -0.0585  0.7918
   55CHL1  H15A 5195   5.493   1.327   3.945 -1.3726 -2.0491  0.1182
   55CHL1  H15B 5196   5.438   1.494   3.924  0.7529 -0.2830  0.9251
   55CHL1   C16 5197   5.346   1.374   4.084  0.7302 -0.1343 -0.7104
   55CHL1  H16A 5198   5.429   1.344   4.152 -0.2142 -0.4318  0.3399
   55CHL1  H16B 5199   5.311   1.477   4.110  0.8889  0.1139 -1.4496
   55CHL1   C17 5200   5.220   1.287   4.075 -0.2959 -0.1209 -0.3933
   55CHL1   H17 5201   5.136   1.360   4.078 -0.2505 -0.0914  2.1891
   55CHL1   C13 5202   5.224   1.223   3.934 -0.1521 -0.4484 -0.5176
   55CHL1   C18 5203   5.311   1.090   3.932 -0.8982  0.7266 -0.1255
   55CHL1  H18A 5204   5.263   1.014   3.998 -0.4998  2.1562  1.9186
   55CHL1  H18B 5205   5.308   1.064   3.824 -2.9043 -1.3779  0.3571
   55CHL1  H18C 5206   5.412   1.110   3.973  0.0666 -0.2740 -1.9350
   55CHL1   C12 5207   5.087   1.198   3.866 -0.0537 -0.0063  0.8004
   55CHL1  H12A 5208   5.044   1.105   3.908 -1.3726  0.1146 -0.2158
   55CHL1  H12B 5209   5.010   1.277   3.884 -2.8247 -2.4384  0.2667
   55CHL1   C11 5210   5.101   1.167   3.714  0.1719  0.0945  0.3810
   55CHL1  H11A 5211   5.135   1.063   3.697 -0.9039 -0.2379  0.2176
   55CHL1  H11B 5212   4.995   1.170   3.683  0.1107  0.2770  0.6067
   55CHL1    C9 5213   5.192   1.266   3.633 -0.1278  0.0373 -0.7323
   55CHL1    H9 5214   5.138   1.362   3.628 -1.0736 -0.3658  0.8518
   55CHL1   C10 5215   5.212   1.236   3.479  0.0013 -0.4101  0.2912
   55CHL1   C19 5216   5.279   1.104   3.461 -0.1031 -0.1039  0.0920
   55CHL1  H19A 5217   5.360   1.077   3.532  2.0951  0.5714 -2.0168
   55CHL1  H19B 5218   5.212   1.016   3.458  3.6705 -3.2682 -0.7444
   55CHL1  H19C 5219   5.325   1.103   3.360 -1.1972  2.0744 -0.4886
   55CHL1    C1 5220   5.073   1.242   3.413  0.4320  0.5065 -0.1527
   55CHL1   H1A 5221   5.018   1.148   3.434  2.8906 -1.0577 -0.3779
   55CHL1   H1B 5222   5.023   1.336   3.446  0.7626  0.7329 -0.2901
   55CHL1    C2 5223   5.072   1.255   3.260  0.4238 -0.2540 -0.5109
   55CHL1   H2A 5224   4.966   1.267   3.228  0.0703  0.5817  0.9231
   55CHL1   H2B 5225   5.109   1.170   3.198  2.0420 -0.8663  1.2140
   55CHL1   C20 5226   5.204   1.198   4.196  0.5514  0.1727 -0.4699
   55CHL1   H20 5227   5.278   1.115   4.192 -0.2332 -0.5375 -0.6855
   55CHL1   C21 5228   5.063   1.132   4.200  0.8203  0.3567 -0.1676
   55CHL1  H21A 5229   4.982   1.205   4.217 -0.9480 -2.1115  3.4024
   55CHL1  H21B 5230   5.053   1.069   4.292  0.8282 -0.1997 -0.5441
   55CHL1  H21C 5231   5.047   1.061   4.116 -0.5124 -2.1404  2.0390
   55CHL1   C22 5232   5.230   1.282   4.326  0.9707 -0.6325 -0.0416
   55CHL1  H22A 5233   5.336   1.315   4.332  0.5021  0.8181  0.9049
   55CHL1  H22B 5234   5.179   1.379   4.312  0.3236 -0.9624 -0.0241
   55CHL1   C23 5235   5.168   1.230   4.454 -0.2601  0.3086 -0.2102
   55CHL1  H23A 5236   5.171   1.307   4.534  0.7920  2.2044 -1.9789
   55CHL1  H23B 5237   5.060   1.215   4.432  0.1411  0.3828 -2.4314
   55CHL1   C24 5238   5.229   1.098   4.512  0.8477  0.9146 -0.0451
   55CHL1  H24A 5239   5.192   1.009   4.458  2.9822  0.0566 -0.1921
   55CHL1  H24B 5240   5.339   1.089   4.504  0.7908 -1.9239  0.9898
   55CHL1   C25 5241   5.196   1.072   4.661  0.1399 -0.6598  0.0765
   55CHL1   H25 5242   5.213   1.167   4.717 -2.1575  0.0307 -0.2995
   55CHL1   C26 5243   5.047   1.041   4.675  0.0504 -0.5783  0.3216
   55CHL1  H26A 5244   5.025   1.041   4.784 -0.1719  2.4251  0.3600
   55CHL1  H26B 5245   4.987   1.117   4.620  0.1530  0.8428  2.0855
   55CHL1  H26C 5246   5.024   0.941   4.632  0.5186 -1.3386  1.7663
   55CHL1   C27 5247   5.274   0.953   4.724  0.3177 -0.0456 -0.1991
   55CHL1  H27A 5248   5.247   0.949   4.832 -1.0917 -1.1176 -0.5467
   55CHL1  H27B 5249   5.249   0.853   4.683  0.0094 -0.0661  0.0312
   55CHL1  H27C 5250   5.384   0.961   4.715  0.3046  0.0063 -0.3114
   56CHL1    C3 5251   4.897   4.266   3.014  0.0483 -0.3372 -0.5292
   56CHL1    H3 5252   4.926   4.368   3.045 -1.3303 -0.6023  1.8397
   56CHL1    O3 5253   4.874   4.275   2.877 -0.5963 -0.3609  0.5879
   56CHL1   H3' 5254   4.953   4.323   2.852  0.4768  0.1379  4.4129
   56CHL1    C4 5255   5.008   4.163   3.052 -0.3626 -0.2304 -0.2048
   56CHL1   H4A 5256   4.992   4.070   2.992 -0.7039 -2.1527  2.6450
   56CHL1   H4B 5257   5.095   4.212   3.004 -0.7189  1.1591  0.5329
   56CHL1    C5 5258   5.024   4.136   3.201 -0.4780 -0.2865 -0.6872
   56CHL1    C6 5259   5.146   4.150   3.265  0.9376 -0.2983  0.2946
   56CHL1    H6 5260   5.237   4.185   3.213  1.4608  0.0958  1.4546
   56CHL1    C7 5261   5.174   4.122   3.403  0.9329  0.1777  0.2980
   56CHL1   H7A 5262   5.264   4.059   3.410  0.9285 -0.1981 -2.1577
   56CHL1   H7B 5263   5.195   4.217   3.458 -2.2840  1.5780 -0.6513
   56CHL1    C8 5264   5.059   4.038   3.470  0.2128 -0.1440  0.0046
   56CHL1    H8 5265   5.051   3.938   3.422 -2.4566  0.0406 -0.0419
   56CHL1   C14 5266   5.088   4.031   3.623 -1.0567  0.4429 -0.5838
   56CHL1   H14 5267   5.099   4.135   3.659  1.6912  0.0879 -0.1382
   56CHL1   C15 5268   5.223   3.969   3.671 -0.2794 -0.4872  0.6441
   56CHL1  H15A 5269   5.238   3.877   3.612  0.2070  1.0381 -1.7565
   56CHL1  H15B 5270   5.303   4.044   3.651 -2.6786  1.8037 -1.2044
   56CHL1   C16 5271   5.204   3.953   3.825 -0.3616 -1.1970  0.2934
   56CHL1  H16A 5272   5.237   3.854   3.863  2.2889  0.0951  1.6049
   56CHL1  H16B 5273   5.264   4.030   3.878  0.8676  0.0480 -2.6507
   56CHL1   C17 5274   5.054   3.982   3.847  0.6648  0.3844 -0.4766
   56CHL1   H17 5275   5.045   4.088   3.881  0.0446 -0.5515  2.6494
   56CHL1   C13 5276   4.975   3.975   3.711 -0.1222  0.4051  0.2838
   56CHL1   C18 5277   4.944   3.825   3.691 -0.3668  0.5643  0.2104
   56CHL1  H18A 5278   4.909   3.799   3.589  2.3067 -0.9402 -0.4121
   56CHL1  H18B 5279   5.040   3.771   3.705  0.4360  0.9601 -2.9446
   56CHL1  H18C 5280   4.869   3.796   3.767  0.4253 -0.0014  0.7942
   56CHL1   C12 5281   4.848   4.060   3.690 -0.3158  0.3325 -0.4309
   56CHL1  H12A 5282   4.762   4.017   3.745  0.3093 -0.1057  0.2142
   56CHL1  H12B 5283   4.860   4.167   3.718 -1.9735  0.8142 -1.3648
   56CHL1   C11 5284   4.810   4.051   3.541  0.0471 -0.1335 -0.6266
   56CHL1  H11A 5285   4.780   3.948   3.511  1.0702  0.1388 -2.7849
   56CHL1  H11B 5286   4.724   4.120   3.531 -0.1781 -0.3519 -0.2291
   56CHL1    C9 5287   4.920   4.102   3.444  0.1149  0.2841  0.3569
   56CHL1    H9 5288   4.950   4.206   3.469  1.0039  0.0420  0.3561
   56CHL1   C10 5289   4.900   4.098   3.283 -0.4339 -0.0623  0.3581
   56CHL1   C19 5290   4.858   3.950   3.240 -0.1390 -0.0877 -0.3503
   56CHL1  H19A 5291   4.944   3.883   3.258  0.0610  0.6917  1.8624
   56CHL1  H19B 5292   4.765   3.923   3.295 -0.2545  0.1772 -0.4146
   56CHL1  H19C 5293   4.827   3.939   3.134  1.5484  1.1488 -1.0111
   56CHL1    C1 5294   4.796   4.199   3.233 -0.1960 -0.4464 -0.0245
   56CHL1   H1A 5295   4.705   4.173   3.291 -0.7484 -0.1534 -0.7361
   56CHL1   H1B 5296   4.838   4.298   3.261 -0.3978  0.8821 -3.7377
   56CHL1    C2 5297   4.762   4.226   3.086 -0.2533  0.7156 -0.1628
   56CHL1   H2A 5298   4.684   4.305   3.081 -0.4885  0.5223  0.4082
   56CHL1   H2B 5299   4.709   4.139   3.042 -1.7674  1.1673  0.6899
   56CHL1   C20 5300   4.995   3.890   3.962  0.7095  0.3505 -0.2098
   56CHL1   H20 5301   5.007   3.788   3.918 -0.5006  0.3064 -0.4865
   56CHL1   C21 5302   4.843   3.922   3.988  0.3503 -1.0857  0.1275
   56CHL1  H21A 5303   4.817   3.880   4.088 -0.8782 -0.3275  0.1495
   56CHL1  H21B 5304   4.776   3.886   3.907  0.3794  0.2619 -0.5179
   56CHL1  H21C 5305   4.830   4.031   4.008 -3.0040 -1.3377 -0.0997
   56CHL1   C22 5306   5.070   3.881   4.096 -0.2331  0.3982  0.0146
   56CHL1  H22A 5307   5.028   3.799   4.158 -0.9487  0.3164 -0.5568
   56CHL1  H22B 5308   5.173   3.844   4.076 -0.3366  0.7046 -1.1541
   56CHL1   C23 5309   5.077   4.015   4.167 -0.1953 -0.3259 -0.2848
   56CHL1  H23A 5310   5.153   4.076   4.114 -1.0280 -1.2338 -2.6591
   56CHL1  H23B 5311   4.984   4.075   4.155 -0.3239 -0.2671  0.8796
   56CHL1   C24 5312   5.093   4.012   4.316  0.3366  0.3255 -0.2819
   56CHL1  H24A 5313   5.072   4.108   4.368 -0.0962  0.2300 -0.2764
   56CHL1  H24B 5314   5.013   3.950   4.361 -0.0139 -0.1118 -1.4503
   56CHL1   C25 5315   5.239   3.960   4.356 -0.2102 -0.0678  0.2414
   56CHL1   H25 5316   5.241   3.863   4.303 -1.4591  1.1398 -2.2024
   56CHL1   C26 5317   5.356   4.048   4.301 -0.3745  0.0581  0.1442
   56CHL1  H26A 5318   5.346   4.152   4.338 -0.1991 -0.5068  1.8994
   56CHL1  H26B 5319   5.453   4.015   4.345 -1.5038 -0.1135  2.6545
   56CHL1  H26C 5320   5.364   4.052   4.190  0.9195  0.6623  0.2342
   56CHL1   C27 5321   5.253   3.943   4.508  0.0835  0.4639 -0.2196
   56CHL1  H27A 5322   5.242   4.045   4.552 -0.5980 -0.1603  1.1042
   56CHL1  H27B 5323   5.169   3.875   4.530 -0.3202  0.2607 -2.2194
   56CHL1  H27C 5324   5.349   3.894   4.535  1.2895  1.6753 -2.0185
   57CHL1    C3 5325   3.682   3.076   2.992  0.1251 -0.0223  0.2599
   57CHL1    H3 5326   3.665   2.969   2.965  0.3685  0.9417 -4.6263
   57CHL1    O3 5327   3.663   3.148   2.873  0.2035 -1.6311 -0.1739
   57CHL1   H3' 5328   3.699   3.231   2.905 -0.2447 -1.6082  0.2881
   57CHL1    C4 5329   3.573   3.112   3.094  0.5365 -0.2515  0.6271
   57CHL1   H4A 5330   3.570   3.222   3.102 -1.1897 -0.2081 -0.1657
   57CHL1   H4B 5331   3.483   3.064   3.050  1.2493 -1.5233  0.5154
   57CHL1    C5 5332   3.585   3.065   3.233 -1.2793 -0.5564 -0.2788
   57CHL1    C6 5333   3.480   3.014   3.299 -0.2458  0.0986  0.7389
   57CHL1    H6 5334   3.391   3.008   3.235 -0.1858  1.4973  0.4862
   57CHL1    C7 5335   3.475   2.971   3.443 -0.6055 -0.5784 -0.2602
   57CHL1   H7A 5336   3.397   3.031   3.496 -0.5098 -0.3229 -0.4101
   57CHL1   H7B 5337   3.438   2.866   3.450 -0.5094 -0.5056  2.3157
   57CHL1    C8 5338   3.609   2.991   3.517  0.4567  0.7512 -0.0617
   57CHL1    H8 5339   3.620   3.097   3.549 -0.9387  1.1396 -0.7577
   57CHL1   C14 5340   3.617   2.894   3.636  0.0216  0.0104 -0.8894
   57CHL1   H14 5341   3.623   2.787   3.606  0.8105 -0.3959  0.6021
   57CHL1   C15 5342   3.504   2.885   3.746  0.1633  0.1981 -0.0328
   57CHL1  H15A 5343   3.469   2.990   3.760  3.3489  1.1700  1.7350
   57CHL1  H15B 5344   3.420   2.823   3.709 -0.8062  0.7411  1.1424
   57CHL1   C16 5345   3.569   2.827   3.869 -0.1086  0.1924 -0.2192
   57CHL1  H16A 5346   3.548   2.896   3.953 -0.1900  1.0024 -0.8824
   57CHL1  H16B 5347   3.532   2.725   3.887  3.6286 -1.4204 -0.6256
   57CHL1   C17 5348   3.726   2.813   3.830 -0.1711  0.2719  0.2643
   57CHL1   H17 5349   3.738   2.715   3.780 -0.9337 -0.1481  0.8770
   57CHL1   C13 5350   3.746   2.913   3.720  0.0483  0.1403 -0.3111
   57CHL1   C18 5351   3.754   3.059   3.774  0.3562  1.0873 -0.8012
   57CHL1  H18A 5352   3.668   3.082   3.840 -0.9547  0.0044 -2.0654
   57CHL1  H18B 5353   3.845   3.077   3.835  0.3314  2.5003 -1.1378
   57CHL1  H18C 5354   3.753   3.136   3.694 -2.1241  0.6721 -1.2616
   57CHL1   C12 5355   3.870   2.895   3.638 -0.2622 -0.2528  0.0222
   57CHL1  H12A 5356   3.958   2.929   3.696 -1.1233  1.3280  0.4682
   57CHL1  H12B 5357   3.877   2.787   3.614  0.5819 -0.4032  0.8915
   57CHL1   C11 5358   3.864   2.967   3.497 -0.6142 -0.4990 -0.4849
   57CHL1  H11A 5359   3.906   3.065   3.528  0.5489 -0.7784 -1.1110
   57CHL1  H11B 5360   3.941   2.924   3.430 -1.1130  1.3626 -2.3454
   57CHL1    C9 5361   3.729   2.972   3.417 -0.1505 -0.2029 -0.4683
   57CHL1    H9 5362   3.710   2.872   3.374 -0.7505 -0.2110 -0.1853
   57CHL1   C10 5363   3.730   3.073   3.292 -0.0432 -0.7815  0.8799
   57CHL1   C19 5364   3.777   3.213   3.344 -0.3485 -0.0957  0.7764
   57CHL1  H19A 5365   3.883   3.216   3.377 -0.5208  2.7192  1.3353
   57CHL1  H19B 5366   3.782   3.289   3.264  1.2298  0.3178  1.2401
   57CHL1  H19C 5367   3.712   3.248   3.426 -0.6719 -2.5539  1.6722
   57CHL1    C1 5368   3.836   3.030   3.192  0.1482  0.0601 -0.6729
   57CHL1   H1A 5369   3.936   3.040   3.240 -1.3519  1.7695  2.3742
   57CHL1   H1B 5370   3.817   2.922   3.172 -0.3365  0.1317 -0.6091
   57CHL1    C2 5371   3.825   3.104   3.057 -0.2111  0.0256 -0.0219
   57CHL1   H2A 5372   3.898   3.074   2.978  1.3931 -0.9770  1.7509
   57CHL1   H2B 5373   3.835   3.213   3.073 -0.0802  0.1737 -1.0593
   57CHL1   C20 5374   3.830   2.813   3.945  0.2551  0.7199 -0.2206
   57CHL1   H20 5375   3.928   2.845   3.902  1.0921 -0.6865  0.5586
   57CHL1   C21 5376   3.855   2.666   4.004  1.1792  0.0597 -0.0774
   57CHL1  H21A 5377   3.753   2.631   4.033  1.3683 -0.3488  0.1027
   57CHL1  H21B 5378   3.918   2.674   4.095  0.6330 -1.1780  0.4422
   57CHL1  H21C 5379   3.896   2.593   3.931 -1.4649 -2.4747  0.7259
   57CHL1   C22 5380   3.796   2.905   4.063  0.7348  1.2845  0.3031
   57CHL1  H22A 5381   3.764   3.008   4.039 -0.0243  0.3346 -3.5474
   57CHL1  H22B 5382   3.718   2.856   4.125  2.5026 -0.1482  1.4881
   57CHL1   C23 5383   3.917   2.928   4.154 -0.3239 -0.0653  0.2858
   57CHL1  H23A 5384   3.925   2.841   4.223  0.3821 -1.9643 -2.0140
   57CHL1  H23B 5385   4.012   2.916   4.097 -1.1278 -0.5774 -0.9897
   57CHL1   C24 5386   3.920   3.063   4.229 -0.2718 -0.1185  0.2754
   57CHL1  H24A 5387   3.917   3.144   4.152  1.6984 -0.6639 -0.4486
   57CHL1  H24B 5388   3.836   3.067   4.300 -0.4347 -1.0061  0.1450
   57CHL1   C25 5389   4.050   3.081   4.310 -0.0254  0.0336 -0.0072
   57CHL1   H25 5390   4.036   3.180   4.358  1.2812  0.7897 -1.1003
   57CHL1   C26 5391   4.068   2.974   4.420 -0.5199  0.1279 -0.1460
   57CHL1  H26A 5392   3.980   2.963   4.487 -0.9417 -0.2927 -0.7478
   57CHL1  H26B 5393   4.086   2.874   4.375  1.8641 -0.0364  1.0175
   57CHL1  H26C 5394   4.160   2.979   4.481 -0.8711 -0.4668  0.4474
   57CHL1   C27 5395   4.175   3.088   4.217  0.1653 -0.6165 -0.2459
   57CHL1  H27A 5396   4.266   3.117   4.272  0.3282  0.1203 -0.8904
   57CHL1  H27B 5397   4.191   2.989   4.168 -2.3188 -1.9842  1.4405
   57CHL1  H27C 5398   4.151   3.168   4.143  0.3788  1.1772  1.5717
   58CHL1    C3 5399   5.478   6.424   3.226  0.0804  0.3079 -0.1671
   58CHL1    H3 5400   5.453   6.316   3.227 -0.4503  0.4074  1.5536
   58CHL1    O3 5401   5.520   6.474   3.096 -0.2765  0.1662  0.1518
   58CHL1   H3' 5402   5.434   6.500   3.062 -0.2925  2.1492  1.5381
   58CHL1    C4 5403   5.356   6.507   3.283 -0.2548  0.2416  0.6445
   58CHL1   H4A 5404   5.361   6.617   3.266  0.9746  0.3943  1.8171
   58CHL1   H4B 5405   5.269   6.460   3.232  0.2272  0.8591 -0.7844
   58CHL1    C5 5406   5.335   6.488   3.433  0.0398  0.5214  0.7375
   58CHL1    C6 5407   5.218   6.453   3.477  0.8777  0.3249 -0.2748
   58CHL1    H6 5408   5.140   6.439   3.401  1.3665  0.7721 -0.8705
   58CHL1    C7 5409   5.182   6.441   3.626  1.0840  0.6706  0.0275
   58CHL1   H7A 5410   5.089   6.490   3.662  0.2197  0.9185 -2.3159
   58CHL1   H7B 5411   5.153   6.334   3.627  1.9523  0.3872 -1.4297
   58CHL1    C8 5412   5.289   6.471   3.722 -0.1054 -0.1571 -0.1762
   58CHL1    H8 5413   5.297   6.582   3.723 -1.1693 -0.0714 -0.5285
   58CHL1   C14 5414   5.275   6.402   3.846  0.3211  0.1694  0.1088
   58CHL1   H14 5415   5.270   6.294   3.822 -0.2701  0.4975 -1.3330
   58CHL1   C15 5416   5.141   6.409   3.925  0.9463  0.4022  0.3205
   58CHL1  H15A 5417   5.114   6.516   3.937 -0.9556  0.0105 -0.0051
   58CHL1  H15B 5418   5.052   6.362   3.878  0.7084 -0.5047  1.6130
   58CHL1   C16 5419   5.171   6.357   4.066 -0.1197 -0.1543  0.6947
   58CHL1  H16A 5420   5.145   6.436   4.140  1.2034 -0.9340  2.0659
   58CHL1  H16B 5421   5.109   6.267   4.087 -2.3483  1.3810  1.0334
   58CHL1   C17 5422   5.323   6.331   4.074  0.1208 -0.1240 -0.1481
   58CHL1   H17 5423   5.349   6.225   4.051  0.9638 -0.0757  0.5194
   58CHL1   C13 5424   5.385   6.412   3.949 -1.0139 -0.2652 -0.4301
   58CHL1   C18 5425   5.390   6.565   3.990 -1.0069  0.2140 -0.1762
   58CHL1  H18A 5426   5.308   6.593   4.059 -0.4460  0.9465  0.2044
   58CHL1  H18B 5427   5.493   6.574   4.032  0.2721 -3.9970 -1.8075
   58CHL1  H18C 5428   5.378   6.627   3.898  1.8391  1.7059  0.3194
   58CHL1   C12 5429   5.521   6.367   3.896  0.2981 -0.1502 -0.1036
   58CHL1  H12A 5430   5.606   6.397   3.961  1.3914 -0.7983 -1.1959
   58CHL1  H12B 5431   5.527   6.256   3.894  1.5285 -0.1649  1.7959
   58CHL1   C11 5432   5.540   6.428   3.761  0.0980  1.0659  0.1980
   58CHL1  H11A 5433   5.574   6.533   3.776  2.0985  0.3740  0.8609
   58CHL1  H11B 5434   5.626   6.379   3.711 -0.9494 -0.3524 -0.2724
   58CHL1    C9 5435   5.421   6.423   3.661  0.3829 -0.0544 -0.5434
   58CHL1    H9 5436   5.406   6.314   3.650 -3.4038  0.1915  0.7567
   58CHL1   C10 5437   5.463   6.487   3.527  0.1293  0.1755 -0.7662
   58CHL1   C19 5438   5.499   6.629   3.549 -0.6171 -1.2692  0.1744
   58CHL1  H19A 5439   5.435   6.691   3.616  0.8944  1.0921 -0.4547
   58CHL1  H19B 5440   5.601   6.636   3.592 -0.6048  1.0394 -0.1332
   58CHL1  H19C 5441   5.517   6.692   3.460  3.6201 -1.5889  0.6211
   58CHL1    C1 5442   5.584   6.408   3.470  0.2546  0.3927 -0.3216
   58CHL1   H1A 5443   5.678   6.441   3.521  0.4887 -0.1182 -0.4147
   58CHL1   H1B 5444   5.566   6.299   3.484  1.2433 -0.0289 -1.9490
   58CHL1    C2 5445   5.611   6.433   3.323  0.1078  0.6006  0.0171
   58CHL1   H2A 5446   5.684   6.362   3.280  0.4093 -1.1791  3.1807
   58CHL1   H2B 5447   5.653   6.535   3.311  0.2800  0.8687  2.3896
   58CHL1   C20 5448   5.369   6.360   4.217  0.1712 -0.1633 -0.2759
   58CHL1   H20 5449   5.353   6.468   4.236  1.1533 -0.2732  1.3549
   58CHL1   C21 5450   5.518   6.343   4.236 -1.0679  0.4353  0.3546
   58CHL1  H21A 5451   5.542   6.234   4.228 -0.9335  0.5424 -0.8046
   58CHL1  H21B 5452   5.554   6.376   4.336  0.2438 -2.2814  0.8896
   58CHL1  H21C 5453   5.570   6.403   4.158 -0.2077 -0.4860  0.1886
   58CHL1   C22 5454   5.305   6.282   4.330 -0.6569  0.1930  0.1122
   58CHL1  H22A 5455   5.350   6.294   4.430 -2.0135 -3.1820  1.2838
   58CHL1  H22B 5456   5.202   6.319   4.347 -0.0374  1.7733  0.5258
   58CHL1   C23 5457   5.303   6.132   4.308 -0.0267 -0.0090  0.2206
   58CHL1  H23A 5458   5.242   6.114   4.217  1.0194  1.5062 -0.8140
   58CHL1  H23B 5459   5.400   6.098   4.268  0.9395  3.3980 -0.7139
   58CHL1   C24 5460   5.234   6.060   4.422 -0.0342  0.3340 -0.8448
   58CHL1  H24A 5461   5.290   6.086   4.514 -1.8663 -0.8505  0.6850
   58CHL1  H24B 5462   5.136   6.110   4.441 -0.0635 -0.0166 -0.0413
   58CHL1   C25 5463   5.218   5.906   4.420  0.2576  0.4607 -0.0161
   58CHL1   H25 5464   5.142   5.884   4.342  1.0878  0.6094 -0.8729
   58CHL1   C26 5465   5.345   5.827   4.400  0.3209 -0.0985 -0.4867
   58CHL1  H26A 5466   5.396   5.857   4.306 -0.3707 -0.6446 -1.0475
   58CHL1  H26B 5467   5.407   5.849   4.490 -1.0429 -0.9338  0.7078
   58CHL1  H26C 5468   5.338   5.716   4.396  0.3456 -0.2434  2.0637
   58CHL1   C27 5469   5.155   5.857   4.557  0.3180 -0.3456  0.2677
   58CHL1  H27A 5470   5.234   5.861   4.635  2.1765 -1.9207 -1.4402
   58CHL1  H27B 5471   5.074   5.928   4.586  0.9149  0.3509  0.2526
   58CHL1  H27C 5472   5.134   5.748   4.552 -0.1516 -0.2678  0.4785
   59CHL1    C3 5473   1.869   1.883   3.315 -0.5330  0.3954 -0.2369
   59CHL1    H3 5474   1.980   1.883   3.325 -0.5700  1.6857  0.2611
   59CHL1    O3 5475   1.848   1.870   3.177  0.0606  0.0271 -0.0989
   59CHL1   H3' 5476   1.753   1.853   3.177  0.2150 -0.9510 -0.6528
   59CHL1    C4 5477   1.802   1.774   3.399 -0.0390 -0.4096 -0.1102
   59CHL1   H4A 5478   1.697   1.777   3.361  0.0297 -1.4727 -0.4156
   59CHL1   H4B 5479   1.835   1.676   3.359  0.7912 -0.0707 -0.2616
   59CHL1    C5 5480   1.810   1.783   3.551 -1.1356  0.0960  0.2134
   59CHL1    C6 5481   1.857   1.690   3.629 -0.4921  1.0353 -0.6154
   59CHL1    H6 5482   1.891   1.594   3.588 -1.4700  0.2702  0.3097
   59CHL1    C7 5483   1.885   1.694   3.775 -0.3941 -0.1622  0.3152
   59CHL1   H7A 5484   1.855   1.597   3.821 -3.1634  0.6669  0.3913
   59CHL1   H7B 5485   1.995   1.703   3.792 -0.6358  1.5809  1.1296
   59CHL1    C8 5486   1.815   1.811   3.848  0.8773  0.2291  0.7091
   59CHL1    H8 5487   1.707   1.785   3.857  0.4102  1.3060 -1.1396
   59CHL1   C14 5488   1.875   1.837   3.984  0.0931 -0.7101 -1.0662
   59CHL1   H14 5489   1.981   1.868   3.968  0.8823  0.0024  3.8484
   59CHL1   C15 5490   1.884   1.723   4.088  0.6790  0.6543 -0.0558
   59CHL1  H15A 5491   1.801   1.650   4.080  0.4813  0.9401 -0.6403
   59CHL1  H15B 5492   1.981   1.670   4.077  1.8773  2.4753  1.1380
   59CHL1   C16 5493   1.889   1.796   4.221 -0.1199  0.5105 -0.0764
   59CHL1  H16A 5494   1.801   1.763   4.281 -0.8423  1.5986 -0.5205
   59CHL1  H16B 5495   1.981   1.780   4.282  1.5117  2.5748 -1.8338
   59CHL1   C17 5496   1.887   1.947   4.187  0.7576 -0.4288  0.3954
   59CHL1   H17 5497   1.990   1.982   4.163  0.7798  0.4674  1.7114
   59CHL1   C13 5498   1.809   1.955   4.061 -0.0360  0.4610 -0.0725
   59CHL1   C18 5499   1.660   1.921   4.094  0.0128  0.0959 -0.2908
   59CHL1  H18A 5500   1.657   1.838   4.167  1.0778  0.4168  0.1358
   59CHL1  H18B 5501   1.609   2.013   4.130  1.5613 -0.1234  2.7685
   59CHL1  H18C 5502   1.613   1.894   3.997  1.9439  0.7037 -1.4634
   59CHL1   C12 5503   1.817   2.089   3.977 -0.4853 -0.3627  0.4125
   59CHL1  H12A 5504   1.767   2.171   4.033  0.7869  0.2729  0.6699
   59CHL1  H12B 5505   1.926   2.107   3.961 -0.3022  0.7041  2.4317
   59CHL1   C11 5506   1.765   2.068   3.829 -0.3473 -0.1473  0.4401
   59CHL1  H11A 5507   1.654   2.071   3.842 -0.2723  0.0890  1.0700
   59CHL1  H11B 5508   1.788   2.162   3.774  0.2898 -0.3833  0.2938
   59CHL1    C9 5509   1.820   1.940   3.758  0.1864 -0.2140  0.1439
   59CHL1    H9 5510   1.928   1.964   3.746 -0.0941  2.3010  1.7479
   59CHL1   C10 5511   1.769   1.921   3.609 -0.9041  1.0090  0.3602
   59CHL1   C19 5512   1.618   1.917   3.598 -0.3304  0.2789 -0.2304
   59CHL1  H19A 5513   1.574   2.019   3.604 -2.2344 -0.3727 -1.9580
   59CHL1  H19B 5514   1.569   1.892   3.501 -0.3110  1.6977 -0.6315
   59CHL1  H19C 5515   1.575   1.858   3.682 -1.0932  1.1038 -0.0335
   59CHL1    C1 5516   1.841   2.030   3.521  0.1189 -0.5969  0.3854
   59CHL1   H1A 5517   1.800   2.130   3.547  0.6406 -0.2140 -0.2343
   59CHL1   H1B 5518   1.948   2.031   3.553 -0.2580 -0.4973  1.7203
   59CHL1    C2 5519   1.818   2.020   3.370 -0.1421 -0.1482  0.2798
   59CHL1   H2A 5520   1.874   2.094   3.309 -0.5717  0.2192  0.3262
   59CHL1   H2B 5521   1.710   2.033   3.351 -0.1523 -1.5920 -0.8130
   59CHL1   C20 5522   1.837   2.041   4.299 -0.5970  0.1583  0.2488
   59CHL1   H20 5523   1.726   2.039   4.304 -0.7555 -1.5333 -2.1288
   59CHL1   C21 5524   1.899   2.178   4.279 -0.0970 -0.4637 -0.1520
   59CHL1  H21A 5525   1.837   2.265   4.310 -0.5705 -0.1596 -1.8253
   59CHL1  H21B 5526   1.920   2.203   4.172 -0.5628 -0.0453 -0.1521
   59CHL1  H21C 5527   2.001   2.192   4.322 -1.4260  2.4659  2.3743
   59CHL1   C22 5528   1.883   1.990   4.444 -0.9882 -0.2185  0.0691
   59CHL1  H22A 5529   1.823   1.898   4.463  1.4232 -1.7311  0.7315
   59CHL1  H22B 5530   1.990   1.959   4.444 -0.6281  0.8714 -1.9889
   59CHL1   C23 5531   1.859   2.090   4.553  0.2185 -0.4859 -0.0010
   59CHL1  H23A 5532   1.933   2.173   4.547 -0.6263  0.2363 -0.6921
   59CHL1  H23B 5533   1.756   2.130   4.541 -0.2480 -1.8047 -0.5806
   59CHL1   C24 5534   1.871   2.025   4.690  0.1733 -0.1787  0.3971
   59CHL1  H24A 5535   1.801   1.939   4.700  0.4318 -0.6958 -1.8593
   59CHL1  H24B 5536   1.975   1.988   4.705  0.4332  0.1496 -0.5706
   59CHL1   C25 5537   1.848   2.121   4.811 -0.4870 -1.5817 -0.2517
   59CHL1   H25 5538   1.753   2.179   4.804  1.2168  1.9612  2.6262
   59CHL1   C26 5539   1.856   2.045   4.946 -0.1184  0.2337  0.4908
   59CHL1  H26A 5540   1.959   2.006   4.960 -0.8245 -2.1697 -0.5815
   59CHL1  H26B 5541   1.832   2.114   5.030 -1.4864 -0.1566  0.4358
   59CHL1  H26C 5542   1.778   1.966   4.949 -0.9266  0.9614 -0.7945
   59CHL1   C27 5543   1.957   2.236   4.814 -0.2834  0.2485 -0.4422
   59CHL1  H27A 5544   2.051   2.189   4.849 -1.1200  0.2177  1.9892
   59CHL1  H27B 5545   1.974   2.280   4.714 -0.0342 -0.3484 -0.6623
   59CHL1  H27C 5546   1.936   2.312   4.893  4.5502  0.8305  0.5710
   60CHL1    C3 5547   6.678   1.326   3.074 -0.4164  0.8805  0.0749
   60CHL1    H3 5548   6.712   1.431   3.073  0.1205  0.7157  0.2969
   60CHL1    O3 5549   6.670   1.291   2.936 -0.2099  0.2396  0.1053
   60CHL1   H3' 5550   6.669   1.195   2.938  0.9286  0.2279  1.2241
   60CHL1    C4 5551   6.786   1.239   3.144 -0.1049  0.2367  0.2667
   60CHL1   H4A 5552   6.762   1.135   3.114  1.3749  0.2700 -1.2118
   60CHL1   H4B 5553   6.885   1.245   3.094  0.3421  0.1041  1.1272
   60CHL1    C5 5554   6.793   1.252   3.296  0.6766  0.3884  0.5894
   60CHL1    C6 5555   6.912   1.269   3.346 -0.2236 -0.3555  0.6155
   60CHL1    H6 5556   7.000   1.267   3.280 -0.3008  2.3371  0.3193
   60CHL1    C7 5557   6.933   1.271   3.493  0.6633 -0.0810  0.1664
   60CHL1   H7A 5558   7.027   1.222   3.526  0.3292  0.0938  1.4134
   60CHL1   H7B 5559   6.957   1.375   3.524  0.2718  0.4332 -1.1607
   60CHL1    C8 5560   6.807   1.218   3.569 -0.5499  0.0293 -0.4902
   60CHL1    H8 5561   6.805   1.109   3.548 -0.5644  0.3232 -2.1582
   60CHL1   C14 5562   6.818   1.256   3.718  0.5513 -0.1845 -0.0083
   60CHL1   H14 5563   6.812   1.367   3.713  0.1131 -0.2284 -0.6187
   60CHL1   C15 5564   6.944   1.218   3.801  0.1641  0.1542  0.6486
   60CHL1  H15A 5565   7.000   1.127   3.770  1.4211  1.3655 -0.8712
   60CHL1  H15B 5566   7.016   1.301   3.788  0.2875 -0.3132 -2.4117
   60CHL1   C16 5567   6.898   1.219   3.948  0.4582 -0.2046  0.0921
   60CHL1  H16A 5568   6.919   1.119   3.992 -0.7241 -0.2157  0.6710
   60CHL1  H16B 5569   6.949   1.290   4.016 -0.8827 -0.2705  1.2104
   60CHL1   C17 5570   6.738   1.243   3.947  0.0203  0.0872 -0.1122
   60CHL1   H17 5571   6.734   1.353   3.955  0.0040  0.0170  1.0125
   60CHL1   C13 5572   6.697   1.204   3.800 -0.5364 -0.4197 -0.2509
   60CHL1   C18 5573   6.696   1.050   3.787 -0.5506 -0.1651  0.3244
   60CHL1  H18A 5574   6.788   1.001   3.825 -0.1239 -1.1360 -1.8248
   60CHL1  H18B 5575   6.608   1.008   3.841 -0.5493 -0.8389 -0.1846
   60CHL1  H18C 5576   6.684   1.022   3.680 -1.0391 -0.9152  0.5633
   60CHL1   C12 5577   6.574   1.286   3.750  0.8757 -0.8892  1.7040
   60CHL1  H12A 5578   6.476   1.284   3.801  0.9433  2.7357  2.1888
   60CHL1  H12B 5579   6.597   1.394   3.754 -0.6387 -0.4938  0.7100
   60CHL1   C11 5580   6.542   1.246   3.601  0.1876  1.3163  0.3254
   60CHL1  H11A 5581   6.525   1.136   3.601 -1.1229  1.4421 -2.1948
   60CHL1  H11B 5582   6.448   1.293   3.568  0.3439  1.3475 -0.0835
   60CHL1    C9 5583   6.671   1.273   3.509  0.1628 -0.1358 -0.7565
   60CHL1    H9 5584   6.684   1.383   3.499 -1.6530  0.1454 -0.3868
   60CHL1   C10 5585   6.652   1.234   3.359 -0.1313  0.0147  0.0684
   60CHL1   C19 5586   6.597   1.092   3.341 -0.3089 -0.1475  0.0010
   60CHL1  H19A 5587   6.596   1.068   3.233  1.8987 -1.7284  0.2686
   60CHL1  H19B 5588   6.670   1.020   3.385  0.6485 -0.0057 -1.3080
   60CHL1  H19C 5589   6.495   1.084   3.384  0.3806  3.1941  2.7434
   60CHL1    C1 5590   6.552   1.339   3.293 -0.5862  0.1386 -0.1853
   60CHL1   H1A 5591   6.456   1.320   3.345 -1.8623  2.8709 -1.3024
   60CHL1   H1B 5592   6.596   1.441   3.303 -1.7689  0.5538  1.0276
   60CHL1    C2 5593   6.541   1.314   3.143 -0.2205  0.8969  0.0968
   60CHL1   H2A 5594   6.467   1.385   3.100  0.1332  0.8407 -0.6211
   60CHL1   H2B 5595   6.500   1.214   3.116 -0.7312  0.3491  2.5822
   60CHL1   C20 5596   6.670   1.179   4.068 -0.1851 -0.0864  0.8281
   60CHL1   H20 5597   6.688   1.069   4.073  3.7710  0.4509  2.0404
   60CHL1   C21 5598   6.523   1.197   4.059  0.2230  0.1934 -0.3073
   60CHL1  H21A 5599   6.479   1.173   4.158 -0.3908 -1.1751 -0.8793
   60CHL1  H21B 5600   6.473   1.142   3.976 -2.5572 -1.0978  2.0321
   60CHL1  H21C 5601   6.490   1.301   4.035  1.2083  0.4766 -0.4445
   60CHL1   C22 5602   6.727   1.243   4.196  0.1768 -0.5117  0.5599
   60CHL1  H22A 5603   6.835   1.218   4.202  0.9217  0.9726 -3.4196
   60CHL1  H22B 5604   6.716   1.353   4.200 -0.3449 -0.4149 -1.7249
   60CHL1   C23 5605   6.680   1.174   4.326  0.1789  0.5068  0.0303
   60CHL1  H23A 5606   6.579   1.205   4.361 -0.2531 -1.2298  0.4255
   60CHL1  H23B 5607   6.693   1.064   4.323 -0.7644  0.3695  0.5873
   60CHL1   C24 5608   6.774   1.208   4.444 -0.0548 -0.8492  0.3122
   60CHL1  H24A 5609   6.876   1.167   4.427  0.1945 -0.7270  1.4814
   60CHL1  H24B 5610   6.796   1.317   4.446 -0.6476 -0.7404  2.2138
   60CHL1   C25 5611   6.727   1.163   4.580 -0.0892  0.0744 -0.4776
   60CHL1   H25 5612   6.804   1.188   4.655  0.3384 -3.1465  0.2973
   60CHL1   C26 5613   6.591   1.227   4.628 -0.1081 -0.4290 -0.1356
   60CHL1  H26A 5614   6.565   1.188   4.728  2.2035 -0.6473  0.4500
   60CHL1  H26B 5615   6.616   1.336   4.632  0.7077 -0.5947 -0.4143
   60CHL1  H26C 5616   6.517   1.208   4.548  1.6600 -1.8132 -1.5298
   60CHL1   C27 5617   6.722   1.007   4.593 -1.0430 -0.5732  0.0544
   60CHL1  H27A 5618   6.638   0.959   4.538 -3.3204  0.2196  2.6253
   60CHL1  H27B 5619   6.818   0.967   4.552 -0.1638 -0.8632  2.2335
   60CHL1  H27C 5620   6.711   0.981   4.701  0.4021 -0.8510  0.1611
   61CHL1    C3 5621   4.809   3.421   2.989 -0.7430  0.1121  0.5843
   61CHL1    H3 5622   4.917   3.447   2.995 -0.1809 -2.0202  0.6754
   61CHL1    O3 5623   4.782   3.405   2.848  0.5934  0.5239 -0.3233
   61CHL1   H3' 5624   4.791   3.494   2.814 -2.2654  1.2517  0.5593
   61CHL1    C4 5625   4.778   3.293   3.062  0.5844  0.0654  0.2799
   61CHL1   H4A 5626   4.673   3.258   3.058  0.5005  0.3194  0.1872
   61CHL1   H4B 5627   4.833   3.218   3.001  1.3969 -0.7625  1.9447
   61CHL1    C5 5628   4.815   3.302   3.206  0.4623 -0.2108  0.6280
   61CHL1    C6 5629   4.894   3.210   3.257  0.3864  0.0543  0.1883
   61CHL1    H6 5630   4.943   3.138   3.189  3.4674 -0.3294  2.6161
   61CHL1    C7 5631   4.923   3.208   3.404  0.2417  0.0188 -0.2531
   61CHL1   H7A 5632   4.950   3.113   3.456 -2.9434  0.3569  2.3473
   61CHL1   H7B 5633   5.011   3.276   3.408  0.7639 -0.6564  0.1693
   61CHL1    C8 5634   4.815   3.285   3.497 -0.8330 -0.0711  0.0320
   61CHL1    H8 5635   4.732   3.212   3.489 -0.7063 -0.3522  1.0517
   61CHL1   C14 5636   4.863   3.301   3.643 -0.8876  0.0005  0.3194
   61CHL1   H14 5637   4.957   3.356   3.623 -1.8892  1.4183 -0.7425
   61CHL1   C15 5638   4.903   3.169   3.718  0.0779 -0.3573  0.1935
   61CHL1  H15A 5639   4.832   3.084   3.707 -0.4055  0.1780 -1.0100
   61CHL1  H15B 5640   5.000   3.129   3.681  0.5735  0.3432  0.7080
   61CHL1   C16 5641   4.910   3.222   3.862  0.1714  0.5429  0.4288
   61CHL1  H16A 5642   4.871   3.158   3.944  2.3974  0.5845  1.5912
   61CHL1  H16B 5643   5.020   3.220   3.879  0.7370  0.5699 -2.7028
   61CHL1   C17 5644   4.844   3.366   3.871  0.0480 -0.6188  0.0022
   61CHL1   H17 5645   4.933   3.431   3.863 -0.1961 -0.2732  0.0666
   61CHL1   C13 5646   4.777   3.371   3.739  0.2232  0.2038 -0.1740
   61CHL1   C18 5647   4.642   3.299   3.752 -0.0340  0.2822  0.5864
   61CHL1  H18A 5648   4.605   3.280   3.649  3.2148 -0.3727 -0.5781
   61CHL1  H18B 5649   4.633   3.199   3.798  0.2085 -0.1652 -0.3302
   61CHL1  H18C 5650   4.578   3.371   3.808 -0.3744  0.7185 -0.3441
   61CHL1   C12 5651   4.763   3.517   3.676  0.3421  0.3013  0.2441
   61CHL1  H12A 5652   4.688   3.578   3.731 -1.0170 -1.2222  0.1573
   61CHL1  H12B 5653   4.865   3.557   3.690  1.2197 -1.6799 -0.0775
   61CHL1   C11 5654   4.709   3.513   3.531 -0.3605 -0.1860  0.0041
   61CHL1  H11A 5655   4.603   3.481   3.536 -0.4969 -0.1752 -2.0957
   61CHL1  H11B 5656   4.702   3.617   3.492 -1.4626 -0.7130 -1.2631
   61CHL1    C9 5657   4.787   3.421   3.432 -0.6646  0.0880 -0.0306
   61CHL1    H9 5658   4.889   3.463   3.419 -0.1295 -1.5567 -1.3705
   61CHL1   C10 5659   4.731   3.414   3.282  0.3116 -0.2295 -0.0524
   61CHL1   C19 5660   4.581   3.382   3.275 -0.3339  0.1505 -0.5632
   61CHL1  H19A 5661   4.558   3.289   3.332  0.6529  0.5824  0.5693
   61CHL1  H19B 5662   4.514   3.461   3.316 -2.4764 -1.9322  0.1999
   61CHL1  H19C 5663   4.540   3.374   3.172 -0.8731  1.4739 -0.4682
   61CHL1    C1 5664   4.761   3.547   3.205 -0.7291  0.5073 -0.5494
   61CHL1   H1A 5665   4.694   3.626   3.245  0.5852  0.8206  1.1603
   61CHL1   H1B 5666   4.865   3.580   3.221 -0.9525  2.4467 -2.6659
   61CHL1    C2 5667   4.737   3.540   3.052 -0.2411  0.4541  0.2589
   61CHL1   H2A 5668   4.761   3.635   3.001  0.5703 -0.2053 -0.6168
   61CHL1   H2B 5669   4.630   3.517   3.032  0.0789 -1.6280  0.7135
   61CHL1   C20 5670   4.776   3.407   4.002 -0.5525  0.2738 -0.4688
   61CHL1   H20 5671   4.706   3.489   3.975 -2.0032 -0.9929 -0.6381
   61CHL1   C21 5672   4.884   3.478   4.086 -0.4575 -0.3373 -0.5566
   61CHL1  H21A 5673   4.842   3.532   4.174  0.1257 -0.9774  0.1336
   61CHL1  H21B 5674   4.926   3.567   4.035 -1.6444  0.7451  0.2735
   61CHL1  H21C 5675   4.961   3.406   4.121  0.5566  0.7095 -0.5648
   61CHL1   C22 5676   4.697   3.298   4.075 -0.3991  0.4490 -0.0351
   61CHL1  H22A 5677   4.616   3.247   4.018  0.0992  0.4318 -0.7434
   61CHL1  H22B 5678   4.774   3.226   4.108 -1.0639 -0.7414 -1.0006
   61CHL1   C23 5679   4.625   3.338   4.207  0.1123 -0.3198  0.9023
   61CHL1  H23A 5680   4.700   3.383   4.275  2.3341 -2.8858  0.3207
   61CHL1  H23B 5681   4.556   3.419   4.177  0.8449  0.0814  0.2670
   61CHL1   C24 5682   4.558   3.228   4.284  0.6402  0.4943  0.4969
   61CHL1  H24A 5683   4.486   3.277   4.353  0.5358  2.5359 -0.9710
   61CHL1  H24B 5684   4.504   3.161   4.213  2.7871  0.2403 -0.9912
   61CHL1   C25 5685   4.642   3.142   4.372  0.1574 -0.1428  0.0787
   61CHL1   H25 5686   4.719   3.088   4.314 -0.4925 -2.0631  0.9381
   61CHL1   C26 5687   4.704   3.224   4.490 -0.0628  0.2318  0.5381
   61CHL1  H26A 5688   4.765   3.310   4.456 -0.1705  0.0584 -0.1191
   61CHL1  H26B 5689   4.623   3.270   4.551  0.2328 -0.2750  1.3288
   61CHL1  H26C 5690   4.771   3.157   4.547  3.9898  0.6991 -3.1287
   61CHL1   C27 5691   4.549   3.041   4.440  0.0318  0.5469  0.1612
   61CHL1  H27A 5692   4.614   2.971   4.496  0.1639  1.8537  1.7179
   61CHL1  H27B 5693   4.478   3.082   4.515  0.3503  0.2073  0.6466
   61CHL1  H27C 5694   4.480   2.997   4.364 -0.3028  1.6653 -0.2091
   62CHL1    C3 5695   0.785   3.885   3.515  0.6658  0.0349  0.5104
   62CHL1    H3 5696   0.838   3.794   3.552  1.8795  0.9810  1.1604
   62CHL1    O3 5697   0.770   3.864   3.374  0.1395 -0.5096  0.4510
   62CHL1   H3' 5698   0.842   3.911   3.331  0.4207  0.7772  2.2280
   62CHL1    C4 5699   0.643   3.892   3.584 -0.6407  0.2323 -0.0847
   62CHL1   H4A 5700   0.591   3.972   3.527 -0.0009 -0.7228 -2.0870
   62CHL1   H4B 5701   0.607   3.790   3.557 -1.1291  0.3971 -0.0661
   62CHL1    C5 5702   0.665   3.917   3.728  0.3086  0.2175 -0.1084
   62CHL1    C6 5703   0.594   3.838   3.816  0.1540  0.5366  0.5695
   62CHL1    H6 5704   0.530   3.754   3.788 -0.5652  1.3760 -0.3816
   62CHL1    C7 5705   0.587   3.866   3.960  0.9415 -0.3720  0.1021
   62CHL1   H7A 5706   0.483   3.866   3.997  1.3455  1.6504  1.3583
   62CHL1   H7B 5707   0.638   3.781   4.011 -2.1424 -1.7880  1.0707
   62CHL1    C8 5708   0.646   3.997   4.002 -0.7407 -0.4478  0.2886
   62CHL1    H8 5709   0.573   4.077   3.982  0.1370  0.4897  0.7542
   62CHL1   C14 5710   0.671   3.991   4.148 -0.2968 -0.4884 -0.5001
   62CHL1   H14 5711   0.759   3.923   4.148  0.1227  0.0370 -0.7982
   62CHL1   C15 5712   0.566   3.932   4.251 -0.0759 -0.3708  0.3355
   62CHL1  H15A 5713   0.466   3.981   4.242  0.5679  1.1107  0.8228
   62CHL1  H15B 5714   0.557   3.823   4.234  2.0427 -0.7950  1.5186
   62CHL1   C16 5715   0.611   3.978   4.389  0.7197  0.4203  0.1937
   62CHL1  H16A 5716   0.531   4.043   4.429 -1.5840 -0.5469 -2.4818
   62CHL1  H16B 5717   0.641   3.887   4.445 -0.8226 -1.4567 -1.8636
   62CHL1   C17 5718   0.737   4.075   4.362  0.5206  0.9059 -0.2121
   62CHL1   H17 5719   0.828   4.011   4.355 -0.3072 -0.5972  1.8995
   62CHL1   C13 5720   0.722   4.117   4.210 -0.7907 -0.0409  0.0710
   62CHL1   C18 5721   0.608   4.219   4.204  0.3792 -0.2866  0.0442
   62CHL1  H18A 5722   0.646   4.315   4.244 -0.9952  0.2530  0.1239
   62CHL1  H18B 5723   0.578   4.236   4.098 -0.0786  0.1279  0.2371
   62CHL1  H18C 5724   0.520   4.190   4.266  0.9275 -0.4756  0.7430
   62CHL1   C12 5725   0.845   4.171   4.134 -0.0341  0.2798  0.4660
   62CHL1  H12A 5726   0.874   4.269   4.176  0.6920  0.3745 -0.2362
   62CHL1  H12B 5727   0.934   4.109   4.156 -2.1784 -2.9048  0.8681
   62CHL1   C11 5728   0.820   4.180   3.978 -0.8602 -0.2309 -0.3666
   62CHL1  H11A 5729   0.737   4.252   3.964  1.9328  3.0084 -1.6438
   62CHL1  H11B 5730   0.909   4.213   3.920 -0.1611 -0.5587  0.4988
   62CHL1    C9 5731   0.774   4.042   3.925 -0.0511 -0.8000 -0.1138
   62CHL1    H9 5732   0.850   3.964   3.944  0.9889 -0.3398 -2.1086
   62CHL1   C10 5733   0.754   4.043   3.764  0.6456 -0.9589 -0.2789
   62CHL1   C19 5734   0.673   4.165   3.720  0.3118 -0.4211 -0.2780
   62CHL1  H19A 5735   0.704   4.268   3.746 -0.6137 -0.1482 -0.2313
   62CHL1  H19B 5736   0.661   4.174   3.610 -1.5047  0.1891 -0.0526
   62CHL1  H19C 5737   0.568   4.149   3.753  0.6611 -2.4590 -0.0212
   62CHL1    C1 5738   0.887   4.042   3.684  0.2367  0.6365 -0.2312
   62CHL1   H1A 5739   0.936   4.141   3.686  1.9629 -0.0855 -2.4344
   62CHL1   H1B 5740   0.959   3.965   3.721  1.8789  1.0561 -2.3327
   62CHL1    C2 5741   0.868   4.010   3.543 -0.0350 -0.0176  0.3442
   62CHL1   H2A 5742   0.965   3.978   3.498 -0.0032 -0.5579  0.7817
   62CHL1   H2B 5743   0.836   4.086   3.470  0.3835  0.7356  0.9320
   62CHL1   C20 5744   0.774   4.185   4.468  0.4963  0.4461 -0.2957
   62CHL1   H20 5745   0.726   4.277   4.430 -1.0678 -0.4847 -0.6610
   62CHL1   C21 5746   0.929   4.192   4.463 -0.6779  0.9021  0.2147
   62CHL1  H21A 5747   0.972   4.194   4.360 -0.1466  1.3427  0.4414
   62CHL1  H21B 5748   0.955   4.091   4.502 -2.1308 -0.1381 -1.3475
   62CHL1  H21C 5749   0.966   4.269   4.534 -1.9645  0.4592  1.4207
   62CHL1   C22 5750   0.710   4.167   4.609 -0.9161  0.0579 -0.0971
   62CHL1  H22A 5751   0.599   4.167   4.599 -0.8005  2.5798 -2.6602
   62CHL1  H22B 5752   0.744   4.068   4.646 -0.1782  0.4112  0.1960
   62CHL1   C23 5753   0.754   4.271   4.712 -0.0430  0.5116 -0.2349
   62CHL1  H23A 5754   0.862   4.296   4.718  0.0867 -0.0038 -0.3835
   62CHL1  H23B 5755   0.697   4.362   4.685 -0.8425  0.3293  0.7639
   62CHL1   C24 5756   0.718   4.231   4.859  0.0954  0.1919  0.2581
   62CHL1  H24A 5757   0.609   4.206   4.860  0.2363 -0.4288  0.7835
   62CHL1  H24B 5758   0.771   4.137   4.887 -1.3133 -0.5453  0.5934
   62CHL1   C25 5759   0.750   4.334   4.967  0.4500 -0.1467  0.4388
   62CHL1   H25 5760   0.690   4.425   4.947  0.7889 -0.3852 -1.9006
   62CHL1   C26 5761   0.714   4.283   5.101  1.1734 -0.0112 -0.3895
   62CHL1  H26A 5762   0.606   4.260   5.093  0.9273  1.2643 -1.1954
   62CHL1  H26B 5763   0.763   4.191   5.136  1.0427  0.6217  1.5630
   62CHL1  H26C 5764   0.719   4.353   5.187  1.9739 -2.0691  1.2971
   62CHL1   C27 5765   0.895   4.394   4.966 -0.0079  0.4669 -0.6889
   62CHL1  H27A 5766   0.897   4.472   5.045 -0.8225  1.7627 -1.9201
   62CHL1  H27B 5767   0.962   4.313   5.004  0.9614  0.5442 -2.1916
   62CHL1  H27C 5768   0.933   4.429   4.868 -2.6444 -0.6166 -2.2113
   63CHL1    C3 5769   3.956   3.931   3.212 -1.1016 -0.0051  0.0342
   63CHL1    H3 5770   4.012   3.836   3.201 -1.3194 -0.0810 -0.4624
   63CHL1    O3 5771   3.945   3.996   3.087  0.1457  0.0639  0.0837
   63CHL1   H3' 5772   3.906   4.081   3.104  2.3174  1.2251 -0.3579
   63CHL1    C4 5773   3.807   3.902   3.263 -0.0278  0.5372  0.1104
   63CHL1   H4A 5774   3.753   3.999   3.258  0.7135  0.9145 -0.9406
   63CHL1   H4B 5775   3.765   3.834   3.186  1.1785  0.8810 -0.8738
   63CHL1    C5 5776   3.808   3.834   3.400  0.2630  1.0518  0.3693
   63CHL1    C6 5777   3.743   3.713   3.424 -0.5014 -0.6213  0.3039
   63CHL1    H6 5778   3.699   3.659   3.339  1.4258  0.1573 -1.2627
   63CHL1    C7 5779   3.735   3.644   3.555  0.2672 -0.1361 -0.3446
   63CHL1   H7A 5780   3.626   3.629   3.575  0.6495 -2.8363  0.1166
   63CHL1   H7B 5781   3.800   3.554   3.555  0.9833  0.3726 -0.6053
   63CHL1    C8 5782   3.788   3.731   3.666 -0.1814 -0.1257 -0.8636
   63CHL1    H8 5783   3.716   3.812   3.690 -1.4478 -1.3776 -0.3371
   63CHL1   C14 5784   3.807   3.657   3.801 -0.2802 -0.3758  0.3401
   63CHL1   H14 5785   3.888   3.587   3.774 -0.0728 -0.4180  1.0568
   63CHL1   C15 5786   3.683   3.583   3.849  0.9196  0.1068  0.1362
   63CHL1  H15A 5787   3.594   3.648   3.865  1.4122  0.8478 -0.1151
   63CHL1  H15B 5788   3.654   3.509   3.772 -2.0026  0.7311  0.5037
   63CHL1   C16 5789   3.719   3.524   3.980 -0.7233  0.3569  0.2328
   63CHL1  H16A 5790   3.630   3.522   4.047 -0.7592 -0.2627  0.1766
   63CHL1  H16B 5791   3.755   3.420   3.962  1.4575  0.7035  2.1798
   63CHL1   C17 5792   3.835   3.619   4.034  0.2534 -0.5367  0.0694
   63CHL1   H17 5793   3.922   3.551   4.018 -1.9561 -3.2930 -1.1931
   63CHL1   C13 5794   3.850   3.736   3.921 -0.3861 -0.6918  0.5103
   63CHL1   C18 5795   3.759   3.863   3.956 -0.0058 -0.9534 -0.1755
   63CHL1  H18A 5796   3.666   3.822   4.001 -0.0127 -1.0933 -0.3209
   63CHL1  H18B 5797   3.815   3.928   4.028 -1.0909 -1.2495  0.9780
   63CHL1  H18C 5798   3.739   3.934   3.873 -1.0925 -0.9600  0.0678
   63CHL1   C12 5799   3.989   3.781   3.893 -0.4475 -0.5292 -0.3692
   63CHL1  H12A 5800   4.033   3.848   3.970 -0.2386 -0.0643 -0.8867
   63CHL1  H12B 5801   4.054   3.693   3.876 -0.3814 -0.6102  0.2900
   63CHL1   C11 5802   3.990   3.869   3.762 -0.0711 -0.3584  0.5966
   63CHL1  H11A 5803   3.933   3.963   3.779 -1.1415 -0.8325 -0.2872
   63CHL1  H11B 5804   4.096   3.880   3.731 -0.1831  2.1172  0.9222
   63CHL1    C9 5805   3.917   3.803   3.633  0.1277 -0.3257 -0.5280
   63CHL1    H9 5806   3.986   3.719   3.611 -0.2259 -0.9768  0.7284
   63CHL1   C10 5807   3.898   3.901   3.511 -0.4584 -0.1993 -0.0506
   63CHL1   C19 5808   3.822   4.029   3.556  0.1825  0.7061  0.8698
   63CHL1  H19A 5809   3.869   4.095   3.633  0.9630  1.7710 -0.4750
   63CHL1  H19B 5810   3.806   4.095   3.468 -2.9593 -1.5301 -0.4068
   63CHL1  H19C 5811   3.723   4.005   3.600 -0.8506 -0.6596 -1.9933
   63CHL1    C1 5812   4.042   3.931   3.454  0.2321 -0.1494 -0.0389
   63CHL1   H1A 5813   4.096   3.975   3.540  0.1317  0.2057 -0.1558
   63CHL1   H1B 5814   4.088   3.830   3.444  2.2305  0.6285  0.8001
   63CHL1    C2 5815   4.038   4.008   3.322 -0.5003  0.0995  0.5209
   63CHL1   H2A 5816   4.132   4.037   3.270 -1.3042  1.6607 -0.1272
   63CHL1   H2B 5817   3.992   4.108   3.337 -2.9938 -0.8538 -0.2600
   63CHL1   C20 5818   3.823   3.661   4.177 -0.2164  0.0417  0.2563
   63CHL1   H20 5819   3.740   3.732   4.199 -0.4366  0.4670 -1.7545
   63CHL1   C21 5820   3.957   3.729   4.222  0.1863 -0.5376 -0.1309
   63CHL1  H21A 5821   4.049   3.684   4.177  0.4198 -0.2217  0.0244
   63CHL1  H21B 5822   3.966   3.734   4.332  2.3817  1.9868 -0.3227
   63CHL1  H21C 5823   3.951   3.832   4.182 -0.7654  0.3897  2.2398
   63CHL1   C22 5824   3.787   3.548   4.271  0.2299 -0.0212 -0.6244
   63CHL1  H22A 5825   3.695   3.490   4.249 -0.6207  1.6829 -1.7195
   63CHL1  H22B 5826   3.872   3.476   4.269  0.5119  0.2551  0.4750
   63CHL1   C23 5827   3.766   3.585   4.424 -0.4082  0.1580 -0.6616
   63CHL1  H23A 5828   3.849   3.636   4.477 -0.5483 -1.3473  1.0941
   63CHL1  H23B 5829   3.686   3.661   4.434 -1.0039 -0.3712 -1.2698
   63CHL1   C24 5830   3.727   3.474   4.517  0.2996  0.1442  0.5880
   63CHL1  H24A 5831   3.623   3.442   4.495 -0.5847  2.0117  1.8017
   63CHL1  H24B 5832   3.785   3.380   4.502 -2.5967 -1.6073 -0.3582
   63CHL1   C25 5833   3.733   3.509   4.664  0.5405 -0.4558  0.0923
   63CHL1   H25 5834   3.837   3.541   4.688  0.9391 -0.9272 -0.9370
   63CHL1   C26 5835   3.638   3.623   4.698 -0.5100 -0.9132 -0.4485
   63CHL1  H26A 5836   3.653   3.714   4.637 -1.2640 -0.2206  0.3808
   63CHL1  H26B 5837   3.531   3.597   4.681 -1.6515  2.2000  1.1961
   63CHL1  H26C 5838   3.642   3.648   4.806  1.9571 -1.1465 -0.4437
   63CHL1   C27 5839   3.688   3.381   4.733 -0.1324 -0.3270  0.6169
   63CHL1  H27A 5840   3.579   3.365   4.720 -0.5411 -0.3233  3.3813
   63CHL1  H27B 5841   3.762   3.301   4.710  0.4255  0.3425  0.0617
   63CHL1  H27C 5842   3.687   3.393   4.843 -2.0067 -0.1653  0.6138
   64CHL1    C3 5843   2.307   6.095   2.874 -0.5624 -0.2966  0.7358
   64CHL1    H3 5844   2.202   6.091   2.838 -0.7938 -2.1485  1.5165
   64CHL1    O3 5845   2.399   6.146   2.771  0.0970  0.3081 -0.5040
   64CHL1   H3' 5846   2.401   6.241   2.785 -1.5146  0.1906  1.0077
   64CHL1    C4 5847   2.324   6.196   2.995  0.4044  0.2033  0.1323
   64CHL1   H4A 5848   2.431   6.212   3.023 -0.0261  1.0990  1.3915
   64CHL1   H4B 5849   2.274   6.289   2.961  1.0093  0.5681  0.2327
   64CHL1    C5 5850   2.259   6.151   3.122  0.3410  0.3447  0.8919
   64CHL1    C6 5851   2.171   6.227   3.182 -0.2430 -0.5282 -0.0012
   64CHL1    H6 5852   2.162   6.323   3.130 -0.1939  0.7638  2.2460
   64CHL1    C7 5853   2.094   6.202   3.310 -0.6437 -0.9718 -0.2397
   64CHL1   H7A 5854   2.098   6.290   3.379 -0.1968 -0.6255 -0.6947
   64CHL1   H7B 5855   1.986   6.189   3.289 -1.0650  0.8088  0.5711
   64CHL1    C8 5856   2.162   6.080   3.377  0.6971  0.2246 -0.3421
   64CHL1    H8 5857   2.262   6.096   3.424 -0.5330  0.5188  2.3477
   64CHL1   C14 5858   2.073   6.025   3.493  0.1692  0.5216 -0.7246
   64CHL1   H14 5859   1.979   5.994   3.442  0.2490 -1.5760  0.2806
   64CHL1   C15 5860   2.032   6.114   3.618  0.5924  0.0489 -0.1688
   64CHL1  H15A 5861   2.117   6.171   3.660  0.5319  0.5273 -0.6878
   64CHL1  H15B 5862   1.966   6.196   3.582  0.1826  0.5135  1.5239
   64CHL1   C16 5863   1.964   6.021   3.716  0.0780 -0.3548  0.0299
   64CHL1  H16A 5864   2.004   6.029   3.820  0.6585  0.7642 -0.2641
   64CHL1  H16B 5865   1.854   6.032   3.717 -0.0178 -1.0223 -1.6081
   64CHL1   C17 5866   2.005   5.880   3.667  0.6881  0.0634 -0.3766
   64CHL1   H17 5867   1.915   5.839   3.616 -0.0514  1.1054  0.0614
   64CHL1   C13 5868   2.116   5.892   3.561  0.2208  0.3049  0.3010
   64CHL1   C18 5869   2.251   5.914   3.644  0.3124  0.1477  0.3955
   64CHL1  H18A 5870   2.327   5.948   3.571 -1.1007 -0.7884 -1.6130
   64CHL1  H18B 5871   2.234   5.983   3.730 -0.9817 -2.0510  2.0051
   64CHL1  H18C 5872   2.276   5.815   3.688 -2.0488 -0.6475  0.0879
   64CHL1   C12 5873   2.119   5.786   3.447  0.0254 -0.4798  0.7829
   64CHL1  H12A 5874   2.137   5.682   3.483  3.2580 -0.7146 -1.1102
   64CHL1  H12B 5875   2.018   5.778   3.402  0.5965 -2.8319 -0.2668
   64CHL1   C11 5876   2.215   5.835   3.340 -0.5435  0.4173 -0.5988
   64CHL1  H11A 5877   2.317   5.820   3.383 -0.0726  1.7177 -1.2288
   64CHL1  H11B 5878   2.207   5.769   3.251 -0.6635  0.8475 -0.9136
   64CHL1    C9 5879   2.194   5.974   3.275 -0.4770 -0.2200  0.1229
   64CHL1    H9 5880   2.097   5.957   3.225  0.3397  0.8617 -1.9766
   64CHL1   C10 5881   2.290   6.009   3.152  0.0382 -0.1280  0.2952
   64CHL1   C19 5882   2.434   5.999   3.204 -0.2193  0.0372  0.0214
   64CHL1  H19A 5883   2.464   6.056   3.294  0.2020  0.1907 -0.2135
   64CHL1  H19B 5884   2.465   5.893   3.216  0.0821 -0.0613 -1.3949
   64CHL1  H19C 5885   2.514   6.030   3.133  0.0043 -1.2469 -0.3255
   64CHL1    C1 5886   2.272   5.913   3.037  0.7007 -0.4484 -0.0430
   64CHL1   H1A 5887   2.288   5.810   3.076  0.9794 -0.4795 -0.2338
   64CHL1   H1B 5888   2.165   5.924   3.008  1.2370 -1.0159 -2.4775
   64CHL1    C2 5889   2.347   5.955   2.911 -0.2012  0.0737  0.0192
   64CHL1   H2A 5890   2.321   5.887   2.827  0.3997  0.2710 -0.3332
   64CHL1   H2B 5891   2.454   5.938   2.934 -0.5734 -0.0305  1.8378
   64CHL1   C20 5892   2.020   5.775   3.775 -0.2679 -0.8529 -0.0554
   64CHL1   H20 5893   2.107   5.817   3.830 -1.1413 -0.4068  1.0334
   64CHL1   C21 5894   2.054   5.637   3.724 -0.8253  0.0521 -0.2980
   64CHL1  H21A 5895   1.997   5.595   3.638  0.0691 -2.1689  0.1263
   64CHL1  H21B 5896   2.026   5.568   3.807  0.2918  3.0507  2.8221
   64CHL1  H21C 5897   2.161   5.625   3.697 -0.8574  2.7775 -2.0064
   64CHL1   C22 5898   1.892   5.771   3.870 -0.4484  0.1873 -0.4260
   64CHL1  H22A 5899   1.863   5.871   3.909 -0.9271  0.4745 -1.4893
   64CHL1  H22B 5900   1.816   5.721   3.806 -1.2584 -0.2135  0.8116
   64CHL1   C23 5901   1.924   5.677   3.996 -0.3415  0.7783 -0.7842
   64CHL1  H23A 5902   1.938   5.568   3.980  0.6546  0.5143  1.5351
   64CHL1  H23B 5903   2.014   5.723   4.041  0.4112 -0.4503 -0.9808
   64CHL1   C24 5904   1.798   5.680   4.090  0.1473  0.0811  0.1552
   64CHL1  H24A 5905   1.768   5.787   4.094 -0.0040  0.0999 -1.1748
   64CHL1  H24B 5906   1.723   5.623   4.031  0.6777 -0.1853 -0.2686
   64CHL1   C25 5907   1.815   5.615   4.224 -0.1309  0.0152  0.1713
   64CHL1   H25 5908   1.831   5.506   4.215  0.5239  0.0396  0.9481
   64CHL1   C26 5909   1.927   5.674   4.311 -0.3072 -0.7077 -0.2520
   64CHL1  H26A 5910   2.027   5.654   4.268 -0.5512 -2.3076 -0.1191
   64CHL1  H26B 5911   1.902   5.783   4.314 -0.6617 -0.7603 -1.1881
   64CHL1  H26C 5912   1.928   5.652   4.420  2.2953  0.8475  0.1318
   64CHL1   C27 5913   1.684   5.622   4.296  0.1701 -0.0011  0.0610
   64CHL1  H27A 5914   1.602   5.591   4.227 -0.6716  3.2246 -0.5560
   64CHL1  H27B 5915   1.691   5.547   4.378  1.8470  1.6349  1.4971
   64CHL1  H27C 5916   1.666   5.723   4.337 -0.9273 -1.0723  2.3699
   65CHL1    C3 5917   5.256   2.943   2.932 -0.0594 -0.7264  0.2524
   65CHL1    H3 5918   5.282   2.836   2.915 -0.2629 -0.9599  1.2981
   65CHL1    O3 5919   5.244   3.006   2.803 -0.7660  0.3533  0.0704
   65CHL1   H3' 5920   5.300   3.085   2.801 -0.3798  0.0955  0.4896
   65CHL1    C4 5921   5.144   2.975   3.030 -0.4213  0.4265 -0.3949
   65CHL1   H4A 5922   5.130   3.085   3.036  2.1120  0.8921 -1.5431
   65CHL1   H4B 5923   5.054   2.933   2.981 -0.1842  1.1720 -1.5229
   65CHL1    C5 5924   5.164   2.917   3.168 -0.1505  0.6560  0.0140
   65CHL1    C6 5925   5.083   2.827   3.228 -0.3557 -0.4295  0.3717
   65CHL1    H6 5926   4.989   2.803   3.175 -0.4281  3.1173 -1.4051
   65CHL1    C7 5927   5.102   2.757   3.360  0.3351  0.7409 -0.0944
   65CHL1   H7A 5928   5.005   2.753   3.416  0.5623  0.5893  0.2939
   65CHL1   H7B 5929   5.144   2.655   3.347 -1.5804 -0.0399 -0.5551
   65CHL1    C8 5930   5.209   2.841   3.442  0.5144 -0.0631  0.6678
   65CHL1    H8 5931   5.155   2.933   3.474  0.4903  0.3600 -0.5417
   65CHL1   C14 5932   5.247   2.758   3.567 -0.0514 -0.1841  0.9949
   65CHL1   H14 5933   5.287   2.664   3.522 -0.9727  0.5460 -1.5642
   65CHL1   C15 5934   5.136   2.717   3.662  0.1719 -0.1064  0.1798
   65CHL1  H15A 5935   5.083   2.812   3.687 -1.8419 -1.3593  0.9471
   65CHL1  H15B 5936   5.056   2.648   3.628  0.1640  0.3094 -0.6635
   65CHL1   C16 5937   5.212   2.668   3.787 -0.0824  0.4714  0.5620
   65CHL1  H16A 5938   5.172   2.723   3.875  0.7969 -0.6521  1.6933
   65CHL1  H16B 5939   5.208   2.557   3.793 -1.4228  0.5536  1.4229
   65CHL1   C17 5940   5.359   2.706   3.759  0.0852 -0.8100 -0.1125
   65CHL1   H17 5941   5.417   2.620   3.720  0.7619  0.0240 -0.9752
   65CHL1   C13 5942   5.356   2.819   3.652 -0.2544 -0.0869 -0.4870
   65CHL1   C18 5943   5.315   2.954   3.714  0.3542  0.5218 -0.0077
   65CHL1  H18A 5944   5.279   3.024   3.636  1.1251  0.4645 -0.4219
   65CHL1  H18B 5945   5.228   2.940   3.782 -0.0543 -1.2287 -0.8327
   65CHL1  H18C 5946   5.404   3.004   3.758  2.2945 -0.6199 -2.3926
   65CHL1   C12 5947   5.489   2.822   3.566 -0.2212 -0.1169  0.0828
   65CHL1  H12A 5948   5.572   2.879   3.614  1.3867 -2.5035  0.2992
   65CHL1  H12B 5949   5.527   2.722   3.538  0.2173  1.1390 -4.6239
   65CHL1   C11 5950   5.453   2.915   3.441  0.3336  0.2131 -0.5103
   65CHL1  H11A 5951   5.435   3.017   3.482 -1.3351  0.0862 -0.8795
   65CHL1  H11B 5952   5.548   2.918   3.384  0.1290  1.7027 -0.8223
   65CHL1    C9 5953   5.329   2.875   3.358  0.1694  0.7158  0.1321
   65CHL1    H9 5954   5.368   2.777   3.323  2.6260  1.6195  0.1292
   65CHL1   C10 5955   5.296   2.956   3.234 -0.0999  1.1150  0.2650
   65CHL1   C19 5956   5.276   3.099   3.274  0.0885 -0.1880 -0.0326
   65CHL1  H19A 5957   5.215   3.107   3.366 -2.5279 -0.9533 -1.5893
   65CHL1  H19B 5958   5.374   3.146   3.297 -0.0379  0.4881 -0.8119
   65CHL1  H19C 5959   5.226   3.165   3.199  0.0458 -1.7287 -1.4060
   65CHL1    C1 5960   5.411   2.947   3.134  0.4222  0.2270  0.2287
   65CHL1   H1A 5961   5.503   2.999   3.169  1.0077  0.3231 -1.3604
   65CHL1   H1B 5962   5.434   2.840   3.113  3.2930  1.0903 -1.5566
   65CHL1    C2 5963   5.388   3.005   2.994  0.1138 -0.1065  0.5847
   65CHL1   H2A 5964   5.468   2.982   2.921 -1.1292 -0.6229 -0.6640
   65CHL1   H2B 5965   5.375   3.115   3.003  2.2287  0.0956  1.6149
   65CHL1   C20 5966   5.418   2.736   3.894 -0.0655 -0.2621 -0.6369
   65CHL1   H20 5967   5.379   2.818   3.958 -0.5097 -0.8450 -0.1547
   65CHL1   C21 5968   5.565   2.765   3.871 -0.3032 -0.6193  1.1505
   65CHL1  H21A 5969   5.611   2.688   3.805 -2.9176 -1.8934  0.6816
   65CHL1  H21B 5970   5.618   2.759   3.969 -2.6058  0.1745  2.5154
   65CHL1  H21C 5971   5.581   2.867   3.831 -2.3997 -0.2059  1.2881
   65CHL1   C22 5972   5.413   2.617   3.998  0.3050  0.2097 -0.4069
   65CHL1  H22A 5973   5.312   2.573   4.010  1.1993 -2.1908 -1.1218
   65CHL1  H22B 5974   5.481   2.544   3.949  1.8107  0.7874  0.7400
   65CHL1   C23 5975   5.451   2.660   4.140  0.4208 -0.1502 -0.0633
   65CHL1  H23A 5976   5.559   2.682   4.150  0.5629  0.5662 -2.6528
   65CHL1  H23B 5977   5.392   2.748   4.172 -0.7633 -0.0499 -2.2851
   65CHL1   C24 5978   5.422   2.549   4.233 -0.5676 -0.0914 -0.3407
   65CHL1  H24A 5979   5.313   2.528   4.234 -0.2581 -1.7944 -0.0228
   65CHL1  H24B 5980   5.460   2.456   4.186  1.5702  0.2551  0.5777
   65CHL1   C25 5981   5.480   2.560   4.380  0.6837  0.7600  0.3931
   65CHL1   H25 5982   5.591   2.554   4.382  0.9166  3.7323  1.0686
   65CHL1   C26 5983   5.447   2.696   4.448 -0.1029  0.2951 -0.0234
   65CHL1  H26A 5984   5.481   2.778   4.381  1.4521 -1.3493 -1.3212
   65CHL1  H26B 5985   5.337   2.690   4.468 -0.1023 -2.6427 -0.5108
   65CHL1  H26C 5986   5.505   2.698   4.542  1.0244  1.2705 -0.7153
   65CHL1   C27 5987   5.427   2.445   4.473 -0.4211 -0.2919 -0.0830
   65CHL1  H27A 5988   5.454   2.462   4.579 -0.7836  0.2779 -0.0794
   65CHL1  H27B 5989   5.318   2.457   4.459 -0.4439  2.0775  1.5300
   65CHL1  H27C 5990   5.462   2.342   4.449  1.5500  0.5605 -1.1356
   66CHL1    C3 5991   3.297   2.554   3.070  0.4379 -1.2084  0.5001
   66CHL1    H3 5992   3.367   2.470   3.048  1.5539 -0.1748 -0.0170
   66CHL1    O3 5993   3.249   2.611   2.948 -0.4514 -0.0592  1.0007
   66CHL1   H3' 5994   3.223   2.702   2.966 -1.2818  0.1616 -1.0753
   66CHL1    C4 5995   3.188   2.489   3.159 -0.5108 -0.2575 -0.2308
   66CHL1   H4A 5996   3.114   2.564   3.193 -0.0687  0.1183 -0.0815
   66CHL1   H4B 5997   3.125   2.426   3.091 -1.5903  1.1703 -0.6001
   66CHL1    C5 5998   3.253   2.418   3.279  0.3617  0.4444  0.0620
   66CHL1    C6 5999   3.237   2.290   3.301 -0.0714 -0.1082  0.5853
   66CHL1    H6 6000   3.181   2.230   3.227 -1.9695 -1.1222  2.7250
   66CHL1    C7 6001   3.292   2.225   3.424  1.0629  0.0888  0.6943
   66CHL1   H7A 6002   3.218   2.167   3.482  3.0691 -2.4218  0.9377
   66CHL1   H7B 6003   3.381   2.174   3.380  1.0755  1.4388 -0.9730
   66CHL1    C8 6004   3.341   2.319   3.531  0.4567  0.4250 -0.9007
   66CHL1    H8 6005   3.257   2.372   3.581 -0.4154 -2.0473  0.4136
   66CHL1   C14 6006   3.414   2.237   3.636  0.2453  0.0781  0.1249
   66CHL1   H14 6007   3.497   2.189   3.580  0.8457  0.5819  0.5713
   66CHL1   C15 6008   3.339   2.123   3.707  0.1614 -0.4182 -0.2550
   66CHL1  H15A 6009   3.234   2.151   3.732 -0.3106 -0.8306 -1.6664
   66CHL1  H15B 6010   3.343   2.028   3.649  0.7278  0.0083 -0.9342
   66CHL1   C16 6011   3.411   2.104   3.839 -0.6325 -0.2848  0.0805
   66CHL1  H16A 6012   3.337   2.124   3.920 -0.4732  3.6595 -0.5350
   66CHL1  H16B 6013   3.463   2.006   3.837 -0.7837 -0.3597 -1.0183
   66CHL1   C17 6014   3.529   2.210   3.848  0.6123 -0.3004 -0.2360
   66CHL1   H17 6015   3.624   2.175   3.805  0.5168  0.8408 -1.4552
   66CHL1   C13 6016   3.479   2.320   3.756 -0.2309 -0.1726  0.5279
   66CHL1   C18 6017   3.373   2.405   3.832  0.1125  0.7428  0.0337
   66CHL1  H18A 6018   3.311   2.459   3.757 -2.2061 -0.1034  1.2306
   66CHL1  H18B 6019   3.298   2.341   3.884  1.0789 -0.0303  0.5166
   66CHL1  H18C 6020   3.421   2.477   3.901  0.0039  1.1157 -0.2765
   66CHL1   C12 6021   3.586   2.411   3.691  0.3562  0.2078  0.2052
   66CHL1  H12A 6022   3.638   2.467   3.771  1.0693 -1.2954  0.8371
   66CHL1  H12B 6023   3.664   2.347   3.644  1.4980  1.2526  0.6408
   66CHL1   C11 6024   3.519   2.499   3.582 -0.0845  0.4808 -0.1224
   66CHL1  H11A 6025   3.454   2.568   3.640  1.1070  1.5430 -0.0212
   66CHL1  H11B 6026   3.597   2.559   3.531 -0.2670  2.1932  1.5316
   66CHL1    C9 6027   3.429   2.428   3.473  0.0670  0.5425  0.2420
   66CHL1    H9 6028   3.496   2.367   3.408 -1.9750 -1.6534  0.0475
   66CHL1   C10 6029   3.341   2.515   3.373 -0.3687 -0.2127  0.5935
   66CHL1   C19 6030   3.274   2.636   3.446 -0.2877  0.5580  0.0542
   66CHL1  H19A 6031   3.195   2.617   3.523  0.5506  0.9086  1.0213
   66CHL1  H19B 6032   3.357   2.682   3.504  0.6355  1.3596 -1.8254
   66CHL1  H19C 6033   3.247   2.719   3.378  1.6596  2.4467  1.4346
   66CHL1    C1 6034   3.449   2.576   3.273 -0.2940  0.7231  0.5440
   66CHL1   H1A 6035   3.521   2.642   3.325  2.5099 -2.9357  1.7254
   66CHL1   H1B 6036   3.510   2.491   3.235  1.2042  1.3543  1.4664
   66CHL1    C2 6037   3.389   2.648   3.152 -0.0247  0.7426  0.0783
   66CHL1   H2A 6038   3.457   2.697   3.080 -0.0195  1.0011  0.2575
   66CHL1   H2B 6039   3.325   2.729   3.194 -1.3011  1.0714 -2.3427
   66CHL1   C20 6040   3.559   2.257   3.996 -0.0538 -0.0765  0.3125
   66CHL1   H20 6041   3.465   2.301   4.037  0.7563  1.0351  1.0368
   66CHL1   C21 6042   3.667   2.361   4.001 -0.8334  0.3380  0.0625
   66CHL1  H21A 6043   3.642   2.464   3.969  0.2344  0.9754  1.1872
   66CHL1  H21B 6044   3.763   2.337   3.951 -0.2339 -0.0389  1.3544
   66CHL1  H21C 6045   3.694   2.365   4.109 -0.8514  0.9390  0.0465
   66CHL1   C22 6046   3.596   2.133   4.085 -0.0103 -0.8506  0.2422
   66CHL1  H22A 6047   3.530   2.048   4.060  0.1123 -0.6658 -0.7573
   66CHL1  H22B 6048   3.701   2.110   4.055  0.2717  0.3961  0.2267
   66CHL1   C23 6049   3.600   2.144   4.241 -0.7502 -0.1901  0.1623
   66CHL1  H23A 6050   3.669   2.227   4.267 -0.5334 -0.2736 -0.1470
   66CHL1  H23B 6051   3.499   2.171   4.279 -0.3196  0.0217  1.1989
   66CHL1   C24 6052   3.639   2.013   4.304  0.4203  0.1908 -0.2228
   66CHL1  H24A 6053   3.558   1.944   4.273  1.1412 -1.8368  2.0995
   66CHL1  H24B 6054   3.727   1.965   4.257 -0.8738 -1.3274 -1.2034
   66CHL1   C25 6055   3.652   2.008   4.457  0.1787 -0.5629  0.1222
   66CHL1   H25 6056   3.559   2.043   4.506  0.6605 -0.1049  0.7254
   66CHL1   C26 6057   3.681   1.860   4.499 -0.3955 -0.2963  0.3618
   66CHL1  H26A 6058   3.684   1.832   4.606 -2.6723  1.0255  0.8350
   66CHL1  H26B 6059   3.610   1.795   4.444  0.0518  1.5486 -2.6489
   66CHL1  H26C 6060   3.779   1.829   4.458 -0.6085 -1.8401  0.9612
   66CHL1   C27 6061   3.756   2.100   4.511 -0.1865 -0.2387 -0.2861
   66CHL1  H27A 6062   3.774   2.085   4.620  0.5607  2.1375 -0.0287
   66CHL1  H27B 6063   3.730   2.206   4.491  1.1596 -0.1678 -1.9184
   66CHL1  H27C 6064   3.849   2.070   4.457 -1.8642 -0.1579 -3.3992
   67CHL1    C3 6065   5.059   1.817   3.245  0.6683  1.0532  0.1169
   67CHL1    H3 6066   4.991   1.731   3.229  0.8930  1.2711 -2.3791
   67CHL1    O3 6067   5.085   1.872   3.117  0.3141 -0.0814 -0.1464
   67CHL1   H3' 6068   5.020   1.941   3.104  0.9119  0.6010  0.4250
   67CHL1    C4 6069   4.986   1.919   3.338 -0.0280 -0.7732 -0.4702
   67CHL1   H4A 6070   5.037   2.016   3.324 -2.0343  0.1826 -1.5578
   67CHL1   H4B 6071   4.888   1.948   3.294  0.7530 -1.2248 -2.6001
   67CHL1    C5 6072   4.972   1.867   3.483 -0.0924 -0.1876  0.3061
   67CHL1    C6 6073   4.858   1.857   3.547  0.2427  0.6801 -0.5492
   67CHL1    H6 6074   4.762   1.877   3.497 -0.2942 -0.3614  0.0318
   67CHL1    C7 6075   4.838   1.827   3.692  0.2953  0.4270 -0.1594
   67CHL1   H7A 6076   4.759   1.894   3.730  0.0545 -0.5184  1.0919
   67CHL1   H7B 6077   4.793   1.728   3.714 -1.6006  0.6415 -2.5745
   67CHL1    C8 6078   4.967   1.852   3.764  0.2291 -0.4314 -0.4018
   67CHL1    H8 6079   4.979   1.963   3.763 -1.0563 -0.2812 -1.1090
   67CHL1   C14 6080   4.949   1.802   3.911 -0.1221 -0.4002 -0.0281
   67CHL1   H14 6081   4.921   1.694   3.906  1.3459 -0.9215  1.8936
   67CHL1   C15 6082   4.834   1.859   3.998 -0.5038 -0.2924  0.2659
   67CHL1  H15A 6083   4.824   1.970   4.003 -0.1363 -0.2941  1.2819
   67CHL1  H15B 6084   4.729   1.832   3.971 -2.0702  1.3310  4.0341
   67CHL1   C16 6085   4.862   1.813   4.142  0.2788  0.0755  0.6639
   67CHL1  H16A 6086   4.856   1.897   4.214 -0.7261  1.1145 -0.5760
   67CHL1  H16B 6087   4.784   1.739   4.169  1.8258 -1.9105 -0.0438
   67CHL1   C17 6088   5.008   1.750   4.131 -0.2620  0.7665  0.2643
   67CHL1   H17 6089   4.977   1.645   4.110 -0.8028  1.3201 -2.0530
   67CHL1   C13 6090   5.072   1.800   4.001 -0.1172  0.0765  0.6367
   67CHL1   C18 6091   5.115   1.948   4.021  0.1764 -0.2050  0.6322
   67CHL1  H18A 6092   5.208   1.960   4.080 -0.7531 -2.1613  2.6225
   67CHL1  H18B 6093   5.130   1.989   3.918 -0.2692 -2.9978 -0.6568
   67CHL1  H18C 6094   5.038   2.007   4.075 -0.0629 -0.9862  1.1441
   67CHL1   C12 6095   5.176   1.723   3.933 -0.2075 -0.1136 -0.4816
   67CHL1  H12A 6096   5.273   1.728   3.986  0.4565  0.1539 -1.6869
   67CHL1  H12B 6097   5.137   1.620   3.923 -1.3781 -0.0451  2.5405
   67CHL1   C11 6098   5.206   1.771   3.785  0.2492 -0.2061 -0.4704
   67CHL1  H11A 6099   5.256   1.869   3.803  1.2284 -0.7286 -0.2592
   67CHL1  H11B 6100   5.289   1.707   3.748  1.7975  0.6443  1.3485
   67CHL1    C9 6101   5.083   1.776   3.690  0.0487 -0.0846  0.0017
   67CHL1    H9 6102   5.040   1.675   3.679 -2.6140  1.0275 -0.4808
   67CHL1   C10 6103   5.112   1.836   3.545 -0.1431  0.4526 -0.1018
   67CHL1   C19 6104   5.201   1.963   3.560 -0.2199  0.2084  0.4802
   67CHL1  H19A 6105   5.297   1.922   3.597 -0.7641 -2.0068 -0.4365
   67CHL1  H19B 6106   5.217   2.016   3.463 -0.6110 -0.4140  0.0732
   67CHL1  H19C 6107   5.159   2.035   3.633 -0.7780  0.4756 -0.0980
   67CHL1    C1 6108   5.171   1.726   3.453 -0.6801  0.2114  0.9585
   67CHL1   H1A 6109   5.273   1.698   3.488 -0.5865 -1.6998 -0.6399
   67CHL1   H1B 6110   5.119   1.628   3.461  0.4831 -0.5308 -0.0550
   67CHL1    C2 6111   5.194   1.773   3.310  0.1167  0.2213  0.1101
   67CHL1   H2A 6112   5.237   1.686   3.257 -2.3990  1.0709 -3.7815
   67CHL1   H2B 6113   5.274   1.850   3.315 -0.0489  0.3309  1.7775
   67CHL1   C20 6114   5.080   1.762   4.258  0.9486  0.2353 -0.1330
   67CHL1   H20 6115   5.060   1.861   4.305  1.8633  1.0263 -1.3734
   67CHL1   C21 6116   5.234   1.732   4.257 -0.2245  0.0991 -0.9577
   67CHL1  H21A 6117   5.289   1.805   4.193 -1.8850  0.7217 -1.7480
   67CHL1  H21B 6118   5.258   1.630   4.221  0.8253 -0.0514  0.1000
   67CHL1  H21C 6119   5.271   1.751   4.360  0.6034  0.1408 -1.2577
   67CHL1   C22 6120   5.012   1.663   4.359  0.5497  0.0496 -0.1113
   67CHL1  H22A 6121   4.904   1.689   4.357  0.2037 -1.2760 -2.2817
   67CHL1  H22B 6122   5.032   1.558   4.327  1.8354  0.0356  0.6675
   67CHL1   C23 6123   5.060   1.670   4.504 -0.0167 -0.2174 -0.7576
   67CHL1  H23A 6124   5.158   1.620   4.510 -1.4048 -3.1010 -0.2608
   67CHL1  H23B 6125   5.076   1.766   4.558  1.5080 -1.1935  0.6042
   67CHL1   C24 6126   4.964   1.581   4.598  0.1744 -0.2770 -0.5833
   67CHL1  H24A 6127   4.866   1.631   4.586  0.2539 -0.2477 -1.1151
   67CHL1  H24B 6128   4.945   1.478   4.562 -0.7016 -0.4427  0.2878
   67CHL1   C25 6129   5.008   1.582   4.739  0.6975 -0.0558 -1.0083
   67CHL1   H25 6130   5.001   1.684   4.782  1.7870 -0.0366 -0.8514
   67CHL1   C26 6131   4.899   1.495   4.808 -0.3297  0.6731  0.4142
   67CHL1  H26A 6132   4.798   1.542   4.801 -0.4079  0.3145 -4.0955
   67CHL1  H26B 6133   4.899   1.394   4.762  0.9974  1.2641 -0.9718
   67CHL1  H26C 6134   4.916   1.471   4.915 -0.2965 -1.4037 -0.0239
   67CHL1   C27 6135   5.142   1.520   4.755  0.6582  0.0585  0.5052
   67CHL1  H27A 6136   5.146   1.412   4.728  1.0116  0.0613  0.5422
   67CHL1  H27B 6137   5.224   1.576   4.706  1.1887  0.2860  1.6143
   67CHL1  H27C 6138   5.168   1.525   4.863  1.7762 -0.1728  0.2588
   68CHL1    C3 6139   3.009   1.389   3.187  0.0112 -0.5768 -0.6585
   68CHL1    H3 6140   2.915   1.330   3.193 -0.3218  0.1109  1.4788
   68CHL1    O3 6141   3.041   1.423   3.050  0.2351  0.2898  0.6447
   68CHL1   H3' 6142   3.129   1.461   3.058  0.2253  0.8681 -1.3645
   68CHL1    C4 6143   2.971   1.522   3.266  0.1048  0.3100 -0.4147
   68CHL1   H4A 6144   3.064   1.584   3.265  0.7107 -0.5774  0.0760
   68CHL1   H4B 6145   2.884   1.568   3.215 -1.7068 -1.3453  1.0514
   68CHL1    C5 6146   2.941   1.488   3.412  0.4597  0.0591 -0.1438
   68CHL1    C6 6147   2.823   1.515   3.469 -0.4556 -0.7226 -1.2975
   68CHL1    H6 6148   2.749   1.574   3.411 -0.6571 -0.1286 -0.4587
   68CHL1    C7 6149   2.781   1.491   3.610 -0.3311 -0.2236 -0.1757
   68CHL1   H7A 6150   2.738   1.586   3.649 -2.0080 -0.2631 -1.7571
   68CHL1   H7B 6151   2.704   1.411   3.616  1.2857 -1.8336  0.0058
   68CHL1    C8 6152   2.911   1.458   3.690 -0.1198  1.0610  0.7967
   68CHL1    H8 6153   2.977   1.547   3.691  2.6564 -0.8348  3.3789
   68CHL1   C14 6154   2.876   1.419   3.826 -0.6039  0.1150 -0.3223
   68CHL1   H14 6155   2.803   1.335   3.825 -1.2947  0.6676 -3.1497
   68CHL1   C15 6156   2.794   1.531   3.898  0.2695  1.2480  0.4791
   68CHL1  H15A 6157   2.824   1.632   3.864  1.7427  0.1197 -1.8569
   68CHL1  H15B 6158   2.686   1.528   3.872  1.1310  1.6740 -3.9364
   68CHL1   C16 6159   2.816   1.501   4.043  0.2272  0.1340 -0.2711
   68CHL1  H16A 6160   2.853   1.578   4.115 -0.9923  0.2786  0.2269
   68CHL1  H16B 6161   2.723   1.459   4.087  1.3834 -1.4063  0.8496
   68CHL1   C17 6162   2.923   1.385   4.051 -0.6593  0.6935  0.6279
   68CHL1   H17 6163   2.865   1.290   4.052 -0.5851  0.6455  0.4424
   68CHL1   C13 6164   2.994   1.398   3.916 -0.0181  0.5093  0.5983
   68CHL1   C18 6165   3.080   1.529   3.918 -0.6902 -0.6358 -0.6818
   68CHL1  H18A 6166   3.035   1.627   3.945  0.6488 -0.8526  2.9313
   68CHL1  H18B 6167   3.152   1.515   4.001 -1.0173 -0.4278 -0.3604
   68CHL1  H18C 6168   3.153   1.545   3.835 -1.1619  0.8231 -0.8490
   68CHL1   C12 6169   3.068   1.272   3.858  0.3241 -0.2474 -0.5943
   68CHL1  H12A 6170   3.157   1.240   3.916  1.4511 -0.2264 -2.2544
   68CHL1  H12B 6171   3.002   1.183   3.845 -2.6764  1.9234 -1.1778
   68CHL1   C11 6172   3.120   1.295   3.715  0.2687  0.2764  0.7282
   68CHL1  H11A 6173   3.208   1.362   3.723  1.3011 -0.9195 -0.1112
   68CHL1  H11B 6174   3.157   1.202   3.666 -1.2007  0.2281 -0.3530
   68CHL1    C9 6175   3.001   1.349   3.625  0.3106 -0.5771  0.2233
   68CHL1    H9 6176   2.944   1.255   3.610  0.3431 -0.6611  0.6019
   68CHL1   C10 6177   3.052   1.406   3.487  0.1834  0.0838  0.0646
   68CHL1   C19 6178   3.201   1.459   3.500  0.3227  0.4669 -0.4165
   68CHL1  H19A 6179   3.218   1.526   3.413  0.6822 -0.2734 -0.9194
   68CHL1  H19B 6180   3.198   1.528   3.587  2.8424  0.7425 -0.4787
   68CHL1  H19C 6181   3.283   1.386   3.516  1.0201  1.6650  2.0381
   68CHL1    C1 6182   3.076   1.276   3.398  0.7211  0.5296  0.2531
   68CHL1   H1A 6183   3.156   1.205   3.428 -0.8978 -2.0991 -1.2722
   68CHL1   H1B 6184   2.978   1.223   3.397  0.2037  1.4194  1.3532
   68CHL1    C2 6185   3.115   1.307   3.253  0.1362 -0.3269 -0.4266
   68CHL1   H2A 6186   3.141   1.216   3.196  0.5306 -0.4839 -0.0033
   68CHL1   H2B 6187   3.214   1.357   3.256  1.0664 -1.9581 -1.9149
   68CHL1   C20 6188   3.003   1.392   4.185  0.9784 -0.4160 -0.0945
   68CHL1   H20 6189   3.052   1.490   4.198  0.0121 -0.0670  1.1218
   68CHL1   C21 6190   3.116   1.291   4.192 -0.0846 -0.2759  0.4045
   68CHL1  H21A 6191   3.186   1.310   4.108 -0.1147 -1.0831  0.1833
   68CHL1  H21B 6192   3.080   1.187   4.175  0.8128 -0.1965 -2.4201
   68CHL1  H21C 6193   3.181   1.300   4.283  1.3072 -0.1953 -0.5634
   68CHL1   C22 6194   2.908   1.388   4.311 -0.5780 -0.3122  0.6304
   68CHL1  H22A 6195   2.819   1.454   4.299 -0.3767 -0.4749 -2.4459
   68CHL1  H22B 6196   2.879   1.284   4.338  0.2030 -0.4872  0.8156
   68CHL1   C23 6197   2.973   1.437   4.445 -0.1392  1.4385  0.0281
   68CHL1  H23A 6198   3.036   1.346   4.461  0.2221  1.1521 -2.6443
   68CHL1  H23B 6199   3.045   1.518   4.427 -0.7011  1.4281 -2.6541
   68CHL1   C24 6200   2.869   1.444   4.560  0.2053  0.7388  0.2632
   68CHL1  H24A 6201   2.798   1.528   4.542  0.9021  1.4995  0.9715
   68CHL1  H24B 6202   2.802   1.355   4.563 -0.0362  0.9054 -0.0746
   68CHL1   C25 6203   2.918   1.470   4.713 -0.5720 -0.1809  1.2256
   68CHL1   H25 6204   2.833   1.517   4.767 -0.0010  1.3965  0.7957
   68CHL1   C26 6205   2.939   1.355   4.802 -0.9875  0.3889  1.0548
   68CHL1  H26A 6206   2.992   1.378   4.897 -0.7867 -0.7540  1.2336
   68CHL1  H26B 6207   2.842   1.302   4.818 -1.6156  1.3685  0.6185
   68CHL1  H26C 6208   2.997   1.277   4.749 -0.4235  0.2532  1.8468
   68CHL1   C27 6209   3.041   1.575   4.709  0.2943  0.1943 -0.0866
   68CHL1  H27A 6210   3.067   1.584   4.817  1.9648 -3.2117 -0.0691
   68CHL1  H27B 6211   3.129   1.548   4.648  0.8962  2.7526 -0.4400
   68CHL1  H27C 6212   3.014   1.676   4.670  0.8528  0.8210  1.0864
   69CHL1    C3 6213   0.331   6.214   3.127  0.3283  0.4471  0.4506
   69CHL1    H3 6214   0.419   6.198   3.192  0.1394 -2.0538  0.1614
   69CHL1    O3 6215   0.363   6.214   2.991 -0.4063  0.1327  0.1035
   69CHL1   H3' 6216   0.442   6.161   2.983 -0.8282 -0.6972  1.1668
   69CHL1    C4 6217   0.232   6.098   3.156 -0.6087 -0.5576 -0.2965
   69CHL1   H4A 6218   0.140   6.126   3.101 -1.3944  0.9739  1.6902
   69CHL1   H4B 6219   0.268   6.010   3.098 -0.0530 -0.4420 -0.1326
   69CHL1    C5 6220   0.203   6.083   3.302  0.0284 -0.3252 -0.0232
   69CHL1    C6 6221   0.240   5.980   3.370 -0.2856 -0.3714 -0.5021
   69CHL1    H6 6222   0.298   5.902   3.318  2.2862  0.8251  0.3939
   69CHL1    C7 6223   0.214   5.961   3.514  0.1481 -0.0515 -0.1181
   69CHL1   H7A 6224   0.168   5.861   3.532 -0.2481  0.1374 -0.0761
   69CHL1   H7B 6225   0.310   5.966   3.570  0.1552  1.6431 -0.2470
   69CHL1    C8 6226   0.111   6.065   3.567  0.4538  0.0387  0.1055
   69CHL1    H8 6227   0.012   6.036   3.525 -0.9936 -0.8148  3.7074
   69CHL1   C14 6228   0.103   6.069   3.716  0.3387  0.1920  0.5234
   69CHL1   H14 6229   0.208   6.095   3.744  2.2268 -2.7482 -2.9944
   69CHL1   C15 6230   0.088   5.936   3.784 -0.6818  0.0583 -0.4961
   69CHL1  H15A 6231   0.003   5.887   3.732  1.0558 -1.8984 -1.6547
   69CHL1  H15B 6232   0.174   5.866   3.774 -0.9454 -0.2316 -0.7609
   69CHL1   C16 6233   0.054   5.976   3.930 -0.1193 -0.1925  0.8626
   69CHL1  H16A 6234  -0.024   5.916   3.980 -1.5766  0.8938 -0.0382
   69CHL1  H16B 6235   0.145   5.962   3.992  2.0362 -0.2967 -2.1055
   69CHL1   C17 6236   0.003   6.125   3.925 -0.2735  0.2295  0.1689
   69CHL1   H17 6237   0.087   6.189   3.962  0.0280 -0.2701  0.3530
   69CHL1   C13 6238  -0.004   6.163   3.775  0.5157  0.1756  1.0362
   69CHL1   C18 6239  -0.149   6.134   3.720  0.4519 -1.0542 -0.5541
   69CHL1  H18A 6240  -0.150   6.150   3.610  0.1394  0.4311 -0.3627
   69CHL1  H18B 6241  -0.185   6.031   3.744 -3.3066 -0.5765 -3.1306
   69CHL1  H18C 6242  -0.220   6.206   3.768  2.5323 -2.0292  4.7155
   69CHL1   C12 6243   0.036   6.307   3.737 -0.2757  0.3511 -0.5694
   69CHL1  H12A 6244  -0.047   6.375   3.765 -0.3221  0.6468 -1.3958
   69CHL1  H12B 6245   0.126   6.333   3.798  0.2786 -2.5317 -0.0184
   69CHL1   C11 6246   0.068   6.320   3.590  0.0688  0.7463  1.3561
   69CHL1  H11A 6247  -0.029   6.319   3.536  0.4967  0.0901  0.5801
   69CHL1  H11B 6248   0.123   6.413   3.564  0.2527  0.1467 -0.5453
   69CHL1    C9 6249   0.157   6.204   3.522  0.2969 -0.7216 -0.4721
   69CHL1    H9 6250   0.264   6.219   3.548  0.3309  3.8320 -2.2898
   69CHL1   C10 6251   0.151   6.216   3.365 -0.2078  0.0440  0.0053
   69CHL1   C19 6252   0.006   6.236   3.309  0.2606  0.6511 -0.5835
   69CHL1  H19A 6253  -0.039   6.331   3.344 -0.0232 -0.0610  1.0937
   69CHL1  H19B 6254   0.024   6.250   3.200 -1.3246  0.0013 -0.9548
   69CHL1  H19C 6255  -0.060   6.147   3.323 -0.1111  1.0125 -0.0019
   69CHL1    C1 6256   0.240   6.335   3.319 -0.0516 -1.0250 -0.3995
   69CHL1   H1A 6257   0.192   6.431   3.348  0.3501 -0.5293 -1.3377
   69CHL1   H1B 6258   0.337   6.336   3.373  0.2856  1.4988 -0.9438
   69CHL1    C2 6259   0.272   6.344   3.168 -0.0668  0.2675  0.2853
   69CHL1   H2A 6260   0.350   6.423   3.170  0.8746 -0.5912 -0.9893
   69CHL1   H2B 6261   0.193   6.375   3.097 -1.1728 -2.1609  0.3427
   69CHL1   C20 6262  -0.112   6.158   4.027  0.7682  0.4099 -0.3052
   69CHL1   H20 6263  -0.198   6.096   3.995  0.5216  1.5501 -1.9538
   69CHL1   C21 6264  -0.160   6.305   4.026 -0.2178 -0.6761 -0.2305
   69CHL1  H21A 6265  -0.254   6.306   4.085  0.9680 -0.9576  1.7673
   69CHL1  H21B 6266  -0.179   6.350   3.926  1.4223  0.8564  0.0931
   69CHL1  H21C 6267  -0.093   6.380   4.073 -1.7576  0.8539 -0.4082
   69CHL1   C22 6268  -0.079   6.125   4.176  0.1324  0.1811  0.0893
   69CHL1  H22A 6269  -0.013   6.036   4.178  1.5357  1.0732 -2.1294
   69CHL1  H22B 6270  -0.022   6.213   4.212  3.1405 -0.6658 -2.1530
   69CHL1   C23 6271  -0.204   6.116   4.260  0.4101  0.7366  0.6970
   69CHL1  H23A 6272  -0.262   6.211   4.270 -1.3427  0.1357 -2.3225
   69CHL1  H23B 6273  -0.273   6.043   4.211 -0.2052  1.8910 -0.2109
   69CHL1   C24 6274  -0.163   6.065   4.396  0.7519  0.4569 -0.1366
   69CHL1  H24A 6275  -0.087   5.984   4.389  0.2941 -0.1570  1.4637
   69CHL1  H24B 6276  -0.123   6.157   4.444 -2.8612  1.1838  1.7696
   69CHL1   C25 6277  -0.285   6.007   4.478  0.2901 -0.4042  0.2376
   69CHL1   H25 6278  -0.234   5.972   4.570  3.4598  1.3361 -0.6768
   69CHL1   C26 6279  -0.382   6.124   4.517  0.1101 -0.0732  0.0190
   69CHL1  H26A 6280  -0.456   6.095   4.594 -0.8541  1.2517 -0.3812
   69CHL1  H26B 6281  -0.315   6.205   4.553 -0.0193  0.4955 -0.9809
   69CHL1  H26C 6282  -0.441   6.163   4.432 -0.5327  1.3909  1.0968
   69CHL1   C27 6283  -0.348   5.889   4.405  0.8492  0.5004 -0.1623
   69CHL1  H27A 6284  -0.427   5.909   4.329 -0.3702  2.5215  1.5282
   69CHL1  H27B 6285  -0.267   5.833   4.354  0.6399  1.4268 -1.5711
   69CHL1  H27C 6286  -0.397   5.817   4.473 -0.1884 -0.3050 -1.6912
   70CHL1    C3 6287   0.379   3.045   3.563 -0.0449 -0.5236  0.2153
   70CHL1    H3 6288   0.490   3.036   3.565  0.1257  0.6223 -1.9244
   70CHL1    O3 6289   0.348   3.098   3.435  0.7227  0.3129 -0.1193
   70CHL1   H3' 6290   0.401   3.046   3.375 -1.2330 -0.3749 -1.3733
   70CHL1    C4 6291   0.315   2.903   3.575  0.4828 -0.2983  0.1338
   70CHL1   H4A 6292   0.204   2.909   3.576  0.2482 -2.8419  2.4763
   70CHL1   H4B 6293   0.347   2.848   3.485  0.3291 -0.7561  0.3552
   70CHL1    C5 6294   0.370   2.853   3.706 -0.4178  0.5311 -0.6263
   70CHL1    C6 6295   0.445   2.739   3.709  1.1415  0.0447  0.5514
   70CHL1    H6 6296   0.463   2.688   3.614  2.8326  2.5015 -0.5520
   70CHL1    C7 6297   0.492   2.667   3.835  0.2230  0.3661  0.7618
   70CHL1   H7A 6298   0.469   2.559   3.824 -1.3569  0.6254  1.2896
   70CHL1   H7B 6299   0.602   2.680   3.841  0.1213  0.8085  1.9399
   70CHL1    C8 6300   0.433   2.719   3.967  0.5356 -1.1704 -0.0604
   70CHL1    H8 6301   0.330   2.677   3.973  0.8936 -1.9222  1.2952
   70CHL1   C14 6302   0.514   2.678   4.086  0.0814  0.1951 -0.0827
   70CHL1   H14 6303   0.613   2.727   4.077  0.8855 -1.5493 -1.0309
   70CHL1   C15 6304   0.562   2.541   4.106 -0.6591  0.9667  0.6643
   70CHL1  H15A 6305   0.474   2.476   4.087  0.5432 -0.5318  0.0072
   70CHL1  H15B 6306   0.644   2.514   4.036 -0.7807 -0.3929  1.0286
   70CHL1   C16 6307   0.602   2.527   4.254 -0.0115 -0.8229  0.1929
   70CHL1  H16A 6308   0.536   2.451   4.300 -1.3058  0.4375  0.5005
   70CHL1  H16B 6309   0.710   2.510   4.272 -0.2561 -0.1734  2.7977
   70CHL1   C17 6310   0.572   2.667   4.318 -0.5548  0.3748  0.1219
   70CHL1   H17 6311   0.660   2.729   4.293 -0.3685 -0.0546 -0.3055
   70CHL1   C13 6312   0.462   2.729   4.226 -0.0134 -0.6914  0.4435
   70CHL1   C18 6313   0.325   2.659   4.255 -0.0404 -0.4356  0.0252
   70CHL1  H18A 6314   0.256   2.653   4.169  0.4165 -1.0566 -0.3047
   70CHL1  H18B 6315   0.329   2.554   4.292 -2.3425 -0.4210  0.4425
   70CHL1  H18C 6316   0.274   2.713   4.338  1.2643  1.4988 -0.3579
   70CHL1   C12 6317   0.468   2.879   4.221 -0.3754  0.3364  0.5178
   70CHL1  H12A 6318   0.428   2.919   4.317  1.3302  1.4101  0.8341
   70CHL1  H12B 6319   0.573   2.914   4.214 -0.8950  2.9403  3.3660
   70CHL1   C11 6320   0.384   2.933   4.102  0.2943  0.5030 -0.5817
   70CHL1  H11A 6321   0.284   2.897   4.135  2.1046 -2.3032  2.4890
   70CHL1  H11B 6322   0.382   3.044   4.096  0.0388  0.6581  1.5336
   70CHL1    C9 6323   0.429   2.872   3.965  0.2065 -0.4186 -0.7706
   70CHL1    H9 6324   0.537   2.895   3.945  0.5449 -2.2090 -1.1183
   70CHL1   C10 6325   0.345   2.928   3.838 -0.3680  1.2648 -0.4760
   70CHL1   C19 6326   0.192   2.912   3.875 -0.3854 -0.7396 -0.3820
   70CHL1  H19A 6327   0.156   2.810   3.901 -1.9018 -0.3914 -1.0001
   70CHL1  H19B 6328   0.163   2.974   3.963  0.2460 -1.3679  0.2963
   70CHL1  H19C 6329   0.130   2.944   3.789  0.3499  0.7225 -0.3970
   70CHL1    C1 6330   0.370   3.080   3.816 -0.2810  0.5322  0.5889
   70CHL1   H1A 6331   0.326   3.139   3.900  1.6704 -0.1562  2.1685
   70CHL1   H1B 6332   0.480   3.078   3.830 -0.4159 -0.0852  1.6968
   70CHL1    C2 6333   0.336   3.139   3.677  0.1790 -0.5325 -0.7511
   70CHL1   H2A 6334   0.390   3.236   3.681 -0.8092  0.0288 -0.5705
   70CHL1   H2B 6335   0.228   3.164   3.676  0.6964  2.1460  0.8396
   70CHL1   C20 6336   0.537   2.677   4.472  0.1136  0.4199  0.1270
   70CHL1   H20 6337   0.459   2.754   4.488 -2.9083 -2.2433 -0.8536
   70CHL1   C21 6338   0.666   2.736   4.544 -0.0062 -0.5657  0.3843
   70CHL1  H21A 6339   0.759   2.675   4.542  2.6428  3.0604  1.7650
   70CHL1  H21B 6340   0.647   2.764   4.650 -0.5528 -2.0966  0.7126
   70CHL1  H21C 6341   0.690   2.824   4.481  0.5459 -0.0071  1.3572
   70CHL1   C22 6342   0.480   2.549   4.538  0.3261 -0.0477  0.3120
   70CHL1  H22A 6343   0.378   2.527   4.500  0.3530 -1.2959  0.9234
   70CHL1  H22B 6344   0.545   2.465   4.506  0.4530  0.4944 -0.9238
   70CHL1   C23 6345   0.455   2.558   4.692  0.0127 -0.1561 -0.1813
   70CHL1  H23A 6346   0.548   2.586   4.745 -1.7191  1.7046  2.0392
   70CHL1  H23B 6347   0.384   2.643   4.703  0.9355  0.9471 -2.2445
   70CHL1   C24 6348   0.402   2.432   4.754 -0.0920  0.0283  0.4326
   70CHL1  H24A 6349   0.313   2.403   4.694  1.3120 -1.0435 -1.2285
   70CHL1  H24B 6350   0.478   2.351   4.745 -0.2398 -0.3044  1.8916
   70CHL1   C25 6351   0.351   2.449   4.895 -0.2692  0.5524 -0.3873
   70CHL1   H25 6352   0.301   2.355   4.926 -1.3193  1.4001  0.5990
   70CHL1   C26 6353   0.466   2.481   4.991  0.6550 -0.1458  0.2098
   70CHL1  H26A 6354   0.533   2.565   4.961  2.0025 -0.8430  1.1469
   70CHL1  H26B 6355   0.442   2.507   5.097  1.2128 -0.0753  0.3224
   70CHL1  H26C 6356   0.537   2.396   5.000 -0.4617 -1.4592 -2.5322
   70CHL1   C27 6357   0.237   2.550   4.905  0.9588 -0.2694  0.4552
   70CHL1  H27A 6358   0.201   2.542   5.010  3.6845 -3.5633  1.3097
   70CHL1  H27B 6359   0.269   2.655   4.889 -0.4404 -0.0250 -0.9578
   70CHL1  H27C 6360   0.160   2.538   4.826 -0.5151  2.2530  1.3582
   71CHL1    C3 6361   5.062   0.819   3.288  0.0964  0.6590  0.3470
   71CHL1    H3 6362   5.111   0.918   3.297 -0.0361  0.5367  3.3219
   71CHL1    O3 6363   5.006   0.801   3.155 -0.9150  0.1598  0.0442
   71CHL1   H3' 6364   5.023   0.707   3.147  0.9756  0.3188  1.5956
   71CHL1    C4 6365   5.157   0.704   3.317  0.0180 -0.3963  0.0359
   71CHL1   H4A 6366   5.100   0.614   3.287 -0.8074  0.4267 -0.9645
   71CHL1   H4B 6367   5.236   0.713   3.239  0.3049 -0.0646  0.3595
   71CHL1    C5 6368   5.206   0.709   3.463  0.0817  0.0017  0.3923
   71CHL1    C6 6369   5.333   0.717   3.493  0.1975 -0.0594 -0.8757
   71CHL1    H6 6370   5.406   0.728   3.411  0.1071 -2.9866 -1.4342
   71CHL1    C7 6371   5.384   0.719   3.634  0.8549  1.0192  0.0756
   71CHL1   H7A 6372   5.468   0.647   3.636  0.1627  0.2184  1.6378
   71CHL1   H7B 6373   5.423   0.817   3.670  1.0475  1.1835 -0.5625
   71CHL1    C8 6374   5.277   0.655   3.734 -0.0831 -0.5463  0.2543
   71CHL1    H8 6375   5.270   0.546   3.715 -2.4151 -0.4056 -0.0494
   71CHL1   C14 6376   5.334   0.672   3.877  0.3752 -0.2930  0.2154
   71CHL1   H14 6377   5.345   0.782   3.881  0.6125 -0.2738 -0.6518
   71CHL1   C15 6378   5.481   0.637   3.912 -0.7504 -0.3768  0.1619
   71CHL1  H15A 6379   5.526   0.547   3.865 -0.0733  0.4034 -0.7361
   71CHL1  H15B 6380   5.544   0.719   3.869 -0.6603  0.8832  2.5610
   71CHL1   C16 6381   5.476   0.638   4.066  0.0866  0.1653 -0.1022
   71CHL1  H16A 6382   5.492   0.535   4.103  0.9159  0.8411  1.5793
   71CHL1  H16B 6383   5.543   0.710   4.117  0.3536 -0.2680  0.1614
   71CHL1   C17 6384   5.326   0.671   4.111 -0.0469 -0.0305 -0.3412
   71CHL1   H17 6385   5.314   0.781   4.126 -0.0778 -0.0383 -0.3072
   71CHL1   C13 6386   5.242   0.626   3.995  0.1694 -0.2255  0.6946
   71CHL1   C18 6387   5.217   0.471   3.990  0.5392 -0.5311 -0.6118
   71CHL1  H18A 6388   5.205   0.430   3.888 -1.6415  2.8509 -1.8936
   71CHL1  H18B 6389   5.298   0.411   4.036  0.9916 -0.6235 -1.5045
   71CHL1  H18C 6390   5.126   0.451   4.051  0.4523  0.4173 -0.4103
   71CHL1   C12 6391   5.099   0.683   3.969  0.0128 -0.2540 -0.7406
   71CHL1  H12A 6392   5.024   0.639   4.038 -0.6140  0.4588 -0.9515
   71CHL1  H12B 6393   5.110   0.793   3.980  2.7984 -0.5867  0.8910
   71CHL1   C11 6394   5.041   0.659   3.826  0.4576 -0.3882  0.8282
   71CHL1  H11A 6395   5.024   0.550   3.814 -2.1793  0.0136  0.1756
   71CHL1  H11B 6396   4.942   0.709   3.817 -0.5185 -1.9734  2.2021
   71CHL1    C9 6397   5.136   0.712   3.714 -0.2190 -0.4870 -1.2291
   71CHL1    H9 6398   5.146   0.822   3.731 -0.5515 -0.8802  2.0984
   71CHL1   C10 6399   5.091   0.700   3.563  0.5480  0.3441  0.0904
   71CHL1   C19 6400   5.022   0.565   3.546 -0.2643  0.2266  0.3546
   71CHL1  H19A 6401   4.946   0.545   3.625 -0.1696 -1.4292  0.0556
   71CHL1  H19B 6402   4.968   0.547   3.451 -1.2079 -1.6084  1.1719
   71CHL1  H19C 6403   5.094   0.487   3.577  0.7666  1.4984  1.2751
   71CHL1    C1 6404   4.990   0.809   3.532  0.7005 -0.3242 -0.5918
   71CHL1   H1A 6405   4.890   0.788   3.576 -0.3185  4.3776 -0.1944
   71CHL1   H1B 6406   5.030   0.907   3.563 -1.3955 -0.0606  1.5621
   71CHL1    C2 6407   4.942   0.814   3.386 -0.4108  0.0617  0.3922
   71CHL1   H2A 6408   4.868   0.892   3.360 -1.3637 -0.8722  0.1841
   71CHL1   H2B 6409   4.884   0.720   3.369 -0.4604  0.3628 -1.1867
   71CHL1   C20 6410   5.300   0.614   4.252 -0.2205 -0.1573  0.4116
   71CHL1   H20 6411   5.292   0.503   4.243 -1.1819  0.0365 -1.5768
   71CHL1   C21 6412   5.159   0.680   4.285  0.5436  0.2956  0.0499
   71CHL1  H21A 6413   5.149   0.781   4.240  1.6065 -0.2985 -1.6049
   71CHL1  H21B 6414   5.148   0.688   4.395 -1.1497 -3.5101  0.2911
   71CHL1  H21C 6415   5.074   0.622   4.245 -2.4487  3.1947  1.7725
   71CHL1   C22 6416   5.407   0.644   4.363 -0.9874 -0.0125 -0.1868
   71CHL1  H22A 6417   5.507   0.638   4.315 -1.3387  2.2441 -1.3187
   71CHL1  H22B 6418   5.410   0.753   4.385 -0.0780  0.8797 -4.0374
   71CHL1   C23 6419   5.393   0.566   4.489  0.0550 -0.2600 -0.1261
   71CHL1  H23A 6420   5.299   0.593   4.542  0.5778  0.6846  0.3576
   71CHL1  H23B 6421   5.387   0.457   4.472 -1.4758 -0.0143 -1.3625
   71CHL1   C24 6422   5.505   0.595   4.589 -1.1833 -0.3712  0.9739
   71CHL1  H24A 6423   5.602   0.590   4.535 -1.4147 -1.1862  0.6062
   71CHL1  H24B 6424   5.479   0.695   4.629  1.7360 -0.2962  2.9758
   71CHL1   C25 6425   5.522   0.496   4.701  0.6343 -0.0666 -1.1462
   71CHL1   H25 6426   5.420   0.458   4.723 -0.2524  0.8271 -3.4435
   71CHL1   C26 6427   5.602   0.370   4.672 -0.5232 -0.9918  0.0116
   71CHL1  H26A 6428   5.710   0.392   4.667 -0.2806 -2.0571  0.2054
   71CHL1  H26B 6429   5.587   0.303   4.760 -0.1225  0.7192  1.4266
   71CHL1  H26C 6430   5.558   0.319   4.583 -2.9118  1.0948 -0.1231
   71CHL1   C27 6431   5.588   0.557   4.831  0.0287 -0.2853  0.5034
   71CHL1  H27A 6432   5.696   0.580   4.822 -0.0095 -0.7525 -1.6901
   71CHL1  H27B 6433   5.527   0.647   4.855  1.2685  1.1032 -1.3284
   71CHL1  H27C 6434   5.579   0.484   4.915  1.4302 -2.6557 -1.2957
   72CHL1    C3 6435   5.405   0.414   3.198  0.0449 -0.9314 -0.1142
   72CHL1    H3 6436   5.414   0.518   3.236  0.2709 -1.1136  0.3393
   72CHL1    O3 6437   5.379   0.425   3.057 -0.2377 -0.1803  0.1317
   72CHL1   H3' 6438   5.445   0.479   3.014  0.5129 -0.6103  0.7310
   72CHL1    C4 6439   5.539   0.337   3.226 -0.5015 -0.1648  0.3450
   72CHL1   H4A 6440   5.536   0.243   3.167 -0.5742 -1.1695  1.9048
   72CHL1   H4B 6441   5.626   0.392   3.183  1.0254 -1.6553  1.4138
   72CHL1    C5 6442   5.562   0.318   3.373  0.7221 -0.0218 -0.1553
   72CHL1    C6 6443   5.667   0.365   3.432 -0.7919 -0.3479 -0.7424
   72CHL1    H6 6444   5.743   0.409   3.367  2.3206 -1.6063  1.7732
   72CHL1    C7 6445   5.699   0.338   3.578 -0.7122  0.1193 -0.0110
   72CHL1   H7A 6446   5.809   0.323   3.584 -0.6858  0.5899  0.8660
   72CHL1   H7B 6447   5.680   0.430   3.638  1.6195  1.9134 -1.8079
   72CHL1    C8 6448   5.614   0.222   3.634  1.5540  0.5058 -0.2159
   72CHL1    H8 6449   5.651   0.129   3.586 -1.2915 -1.0544  0.4268
   72CHL1   C14 6450   5.631   0.220   3.781  0.1100  0.1225 -0.2222
   72CHL1   H14 6451   5.612   0.323   3.819 -2.2964  0.1037 -1.2165
   72CHL1   C15 6452   5.768   0.177   3.834 -0.0950  0.5550 -0.3630
   72CHL1  H15A 6453   5.806   0.096   3.768 -1.1471  0.7795 -1.2844
   72CHL1  H15B 6454   5.847   0.255   3.824 -0.7496  1.0820 -1.7113
   72CHL1   C16 6455   5.743   0.122   3.974  0.4322 -0.1034  0.2015
   72CHL1  H16A 6456   5.752   0.012   3.978  0.8382 -0.1112 -0.6365
   72CHL1  H16B 6457   5.809   0.165   4.053 -0.6746  1.1631  0.4646
   72CHL1   C17 6458   5.594   0.154   4.005 -1.4183  0.6046  0.4527
   72CHL1   H17 6459   5.600   0.265   4.017 -1.4850  0.9325 -2.0736
   72CHL1   C13 6460   5.532   0.131   3.865  1.2288 -0.4634  0.8464
   72CHL1   C18 6461   5.546  -0.020   3.818  0.0114  0.2235 -0.4967
   72CHL1  H18A 6462   5.603  -0.085   3.887  0.8529  2.2097  0.7701
   72CHL1  H18B 6463   5.445  -0.065   3.809  0.3276 -0.0901 -3.6386
   72CHL1  H18C 6464   5.602  -0.027   3.722 -0.4420 -0.0959 -0.7386
   72CHL1   C12 6465   5.386   0.170   3.835 -0.5309  0.2865  0.1718
   72CHL1  H12A 6466   5.320   0.091   3.878  2.5673 -0.7428  3.5222
   72CHL1  H12B 6467   5.362   0.265   3.887 -1.0193  0.8830 -1.1012
   72CHL1   C11 6468   5.361   0.170   3.681  0.0187 -0.2200 -0.1639
   72CHL1  H11A 6469   5.361   0.063   3.651 -0.5776 -0.8488  1.9146
   72CHL1  H11B 6470   5.269   0.218   3.642  0.5370  0.0657 -1.0678
   72CHL1    C9 6471   5.467   0.254   3.601 -0.4897  0.0038 -0.1408
   72CHL1    H9 6472   5.445   0.359   3.630 -2.4657 -0.6097  0.7345
   72CHL1   C10 6473   5.442   0.246   3.449  0.1744  0.8401  0.1637
   72CHL1   C19 6474   5.431   0.096   3.402 -0.2475  0.1460 -0.0740
   72CHL1  H19A 6475   5.417   0.096   3.292  1.5731 -0.4379 -0.3421
   72CHL1  H19B 6476   5.512   0.035   3.447 -0.2033  0.2440 -0.0189
   72CHL1  H19C 6477   5.338   0.061   3.451 -0.2141 -0.5098 -0.4640
   72CHL1    C1 6478   5.310   0.317   3.415  0.4577  1.3246  0.2477
   72CHL1   H1A 6479   5.227   0.254   3.454  0.7393  0.3523 -0.6548
   72CHL1   H1B 6480   5.301   0.406   3.480 -0.2233  0.0214  2.0167
   72CHL1    C2 6481   5.282   0.354   3.263 -0.4710 -0.7563 -0.3981
   72CHL1   H2A 6482   5.190   0.412   3.243  0.9693  1.3625 -1.2001
   72CHL1   H2B 6483   5.270   0.251   3.223  0.3036 -0.8232 -0.4758
   72CHL1   C20 6484   5.538   0.083   4.125 -0.3104  0.0874 -0.2291
   72CHL1   H20 6485   5.510  -0.022   4.103 -0.2378 -0.0126  0.1411
   72CHL1   C21 6486   5.417   0.163   4.175  0.0994 -0.5580  0.6262
   72CHL1  H21A 6487   5.341   0.162   4.094  0.5162  1.3066  0.1804
   72CHL1  H21B 6488   5.437   0.271   4.193  1.5916 -0.7607  0.3210
   72CHL1  H21C 6489   5.369   0.122   4.267 -1.9468 -1.3010 -0.6941
   72CHL1   C22 6490   5.642   0.059   4.233 -0.4824 -0.3109  0.9218
   72CHL1  H22A 6491   5.707  -0.026   4.203  0.2951  0.1796  1.2076
   72CHL1  H22B 6492   5.694   0.154   4.256 -0.1042 -0.7626  1.9722
   72CHL1   C23 6493   5.594  -0.005   4.364  0.4936 -0.6437  0.7384
   72CHL1  H23A 6494   5.677  -0.011   4.438  1.4697  1.9000 -0.0396
   72CHL1  H23B 6495   5.525   0.071   4.407  1.5705  1.9678 -1.7791
   72CHL1   C24 6496   5.524  -0.134   4.341  0.8305 -0.4391 -0.4998
   72CHL1  H24A 6497   5.425  -0.106   4.299  0.1411 -1.2486  0.5421
   72CHL1  H24B 6498   5.588  -0.194   4.273  1.1176 -1.0068  0.2567
   72CHL1   C25 6499   5.483  -0.210   4.474 -0.3771 -0.1680  0.0418
   72CHL1   H25 6500   5.447  -0.312   4.448  0.3498 -0.4570  0.1480
   72CHL1   C26 6501   5.605  -0.237   4.565 -0.5462  0.4520 -0.1568
   72CHL1  H26A 6502   5.634  -0.146   4.621 -2.3883  1.1554 -0.2495
   72CHL1  H26B 6503   5.572  -0.312   4.639  0.2640  1.2121  0.9936
   72CHL1  H26C 6504   5.697  -0.278   4.518 -0.9833 -0.6006 -0.1242
   72CHL1   C27 6505   5.375  -0.133   4.554  0.1076 -0.2926 -0.1943
   72CHL1  H27A 6506   5.409  -0.040   4.604  1.4109 -1.5486  1.3691
   72CHL1  H27B 6507   5.295  -0.105   4.482  0.4067 -0.6682 -0.6795
   72CHL1  H27C 6508   5.329  -0.203   4.627 -4.1872  1.2493 -1.1131
   73CHL1    C3 6509   1.125   1.212   3.296 -0.2245 -0.4301  0.1242
   73CHL1    H3 6510   1.168   1.315   3.302 -0.9329 -0.1411  0.2931
   73CHL1    O3 6511   1.102   1.189   3.160  0.0080  0.0246 -1.0105
   73CHL1   H3' 6512   1.191   1.168   3.131  0.2292  0.8074 -0.9096
   73CHL1    C4 6513   1.213   1.112   3.356 -0.3511 -0.0515  0.0594
   73CHL1   H4A 6514   1.183   1.010   3.322 -1.3356  0.2089  0.1201
   73CHL1   H4B 6515   1.315   1.119   3.313 -0.5034 -1.2150 -0.5309
   73CHL1    C5 6516   1.214   1.109   3.512  0.5521 -0.1970 -0.0581
   73CHL1    C6 6517   1.328   1.123   3.583  0.0787  0.2299  0.7428
   73CHL1    H6 6518   1.421   1.121   3.524 -0.5956 -0.0951 -0.3580
   73CHL1    C7 6519   1.337   1.135   3.730  0.3402  0.3931  0.1035
   73CHL1   H7A 6520   1.424   1.083   3.774 -1.2331 -2.0625  0.4686
   73CHL1   H7B 6521   1.349   1.242   3.758 -0.6989  0.1824  1.4572
   73CHL1    C8 6522   1.205   1.078   3.789  0.5166 -0.2557 -0.7200
   73CHL1    H8 6523   1.215   0.969   3.775  1.8995 -0.1512 -0.6965
   73CHL1   C14 6524   1.205   1.122   3.931 -0.4069 -0.7199 -0.5664
   73CHL1   H14 6525   1.197   1.233   3.923  1.0650 -0.7396 -3.9287
   73CHL1   C15 6526   1.321   1.096   4.015 -0.2872 -0.1155  0.7929
   73CHL1  H15A 6527   1.350   0.989   4.008 -3.3461 -1.2360  2.9532
   73CHL1  H15B 6528   1.410   1.156   3.988  0.1324 -0.8289  0.5536
   73CHL1   C16 6529   1.281   1.114   4.160 -0.2217 -0.0342 -0.6785
   73CHL1  H16A 6530   1.308   1.022   4.217  0.5901  0.2528 -0.5870
   73CHL1  H16B 6531   1.328   1.205   4.204 -1.2753 -0.0820  0.6311
   73CHL1   C17 6532   1.128   1.133   4.157  0.5849  0.1306 -0.1996
   73CHL1   H17 6533   1.114   1.243   4.161  1.3023  0.1798  1.7267
   73CHL1   C13 6534   1.087   1.073   4.016 -0.8430  0.2372  0.3859
   73CHL1   C18 6535   1.084   0.918   4.014 -0.5956 -0.3437  0.1465
   73CHL1  H18A 6536   1.072   0.875   3.912  0.5204  0.4400 -0.3249
   73CHL1  H18B 6537   1.184   0.876   4.037 -0.0595  0.6860 -0.2585
   73CHL1  H18C 6538   1.007   0.877   4.084  1.4965  0.3516  3.0333
   73CHL1   C12 6539   0.950   1.120   3.956 -0.3843  0.1845  0.0882
   73CHL1  H12A 6540   0.863   1.064   3.996  0.0667  0.5903  1.7024
   73CHL1  H12B 6541   0.930   1.229   3.970 -2.0023 -0.1798  0.8243
   73CHL1   C11 6542   0.951   1.098   3.801 -0.2332 -0.4185  1.1104
   73CHL1  H11A 6543   0.928   0.989   3.793  1.1707 -0.6043 -2.9062
   73CHL1  H11B 6544   0.874   1.164   3.755  2.7785  1.8793 -0.9574
   73CHL1    C9 6545   1.081   1.133   3.720 -0.0284 -0.2362  0.3461
   73CHL1    H9 6546   1.084   1.244   3.727  0.7623 -0.2209 -0.1289
   73CHL1   C10 6547   1.076   1.099   3.575  0.8022 -0.4507 -0.2071
   73CHL1   C19 6548   1.018   0.954   3.552 -0.3047 -0.3516  0.0162
   73CHL1  H19A 6549   0.908   0.950   3.571 -0.2981  1.0050  0.4287
   73CHL1  H19B 6550   1.031   0.931   3.444  2.0793  2.2930 -0.3558
   73CHL1  H19C 6551   1.083   0.887   3.612  2.1349 -0.2610 -2.3562
   73CHL1    C1 6552   0.984   1.200   3.505  0.2350 -0.0494 -0.4604
   73CHL1   H1A 6553   0.879   1.179   3.535  0.7232 -0.5880  0.9546
   73CHL1   H1B 6554   1.011   1.306   3.525 -1.3639  0.5720 -1.3707
   73CHL1    C2 6555   0.982   1.203   3.355  0.2202 -0.0035  0.3361
   73CHL1   H2A 6556   0.920   1.289   3.323 -0.2817 -0.1658  0.8523
   73CHL1   H2B 6557   0.927   1.112   3.320  1.3482 -0.5292 -0.1106
   73CHL1   C20 6558   1.058   1.076   4.294 -0.9321  0.1734  1.0955
   73CHL1   H20 6559   1.081   0.967   4.306  0.3335  0.0877 -1.4483
   73CHL1   C21 6560   0.913   1.092   4.282  0.6667  0.0141  0.5543
   73CHL1  H21A 6561   0.872   1.025   4.204  2.0365  0.5543 -0.6794
   73CHL1  H21B 6562   0.887   1.197   4.256 -0.4995  0.0094  1.6024
   73CHL1  H21C 6563   0.865   1.070   4.380  1.1858  0.1174  0.8341
   73CHL1   C22 6564   1.117   1.145   4.421 -0.1471  0.1457  0.0126
   73CHL1  H22A 6565   1.059   1.094   4.501 -1.4020  0.0203 -0.9359
   73CHL1  H22B 6566   1.226   1.134   4.437  0.3451  2.8076 -1.0074
   73CHL1   C23 6567   1.096   1.297   4.446 -0.2835 -0.2398  0.1410
   73CHL1  H23A 6568   1.149   1.355   4.367 -2.0350  1.8808  0.4299
   73CHL1  H23B 6569   0.986   1.314   4.444  0.0108  1.8961 -1.5397
   73CHL1   C24 6570   1.158   1.343   4.577  0.4806 -0.6012  0.2943
   73CHL1  H24A 6571   1.257   1.298   4.597 -0.3372 -2.8889 -0.5090
   73CHL1  H24B 6572   1.170   1.453   4.589  1.2760 -0.7409  0.8566
   73CHL1   C25 6573   1.076   1.299   4.704 -0.8016 -0.1104 -0.3125
   73CHL1   H25 6574   1.095   1.190   4.717  2.9979  0.4950  0.4560
   73CHL1   C26 6575   1.137   1.368   4.826  0.5797 -0.0775 -0.0706
   73CHL1  H26A 6576   1.095   1.336   4.923  1.1168 -0.3394  0.0785
   73CHL1  H26B 6577   1.247   1.360   4.839  0.3511  0.1204  2.3881
   73CHL1  H26C 6578   1.121   1.478   4.819  1.2116 -0.0456 -1.3296
   73CHL1   C27 6579   0.933   1.340   4.699 -0.4793  0.0008  0.3068
   73CHL1  H27A 6580   0.873   1.269   4.637  0.0098 -0.2430  0.1076
   73CHL1  H27B 6581   0.884   1.342   4.798 -1.5035 -0.0472 -0.1811
   73CHL1  H27C 6582   0.915   1.440   4.655 -1.6466 -1.4153 -2.8078
   74CHL1    C3 6583   1.907   2.407   3.113 -0.0498  0.1845  0.6802
   74CHL1    H3 6584   1.901   2.300   3.145 -1.6294 -0.3465 -1.2006
   74CHL1    O3 6585   1.846   2.408   2.982 -0.3749  0.1429  0.6291
   74CHL1   H3' 6586   1.847   2.499   2.952 -1.4958  0.5284  1.6735
   74CHL1    C4 6587   1.804   2.472   3.200  0.1457 -0.2270  0.0165
   74CHL1   H4A 6588   1.772   2.566   3.149  0.0579  0.6180  1.5667
   74CHL1   H4B 6589   1.714   2.407   3.195 -0.8937  1.1835 -4.2834
   74CHL1    C5 6590   1.835   2.490   3.348  0.0305  0.0397  0.0900
   74CHL1    C6 6591   1.756   2.435   3.444 -0.1870  0.2429  0.1140
   74CHL1    H6 6592   1.652   2.411   3.416  0.5204 -0.4078 -2.2534
   74CHL1    C7 6593   1.786   2.445   3.591 -0.0961 -0.1769 -0.6588
   74CHL1   H7A 6594   1.704   2.502   3.639 -0.7200 -1.0819 -0.6201
   74CHL1   H7B 6595   1.787   2.344   3.637  0.7321  1.2906  2.8456
   74CHL1    C8 6596   1.912   2.534   3.619  0.6623 -0.0939  0.3055
   74CHL1    H8 6597   1.880   2.640   3.604 -0.5283 -0.6860 -1.5923
   74CHL1   C14 6598   1.959   2.497   3.758  0.1326 -0.4894  0.5666
   74CHL1   H14 6599   1.988   2.391   3.749  0.1460 -0.3483 -1.3920
   74CHL1   C15 6600   1.861   2.509   3.870 -0.1418  0.3212  0.4136
   74CHL1  H15A 6601   1.792   2.596   3.866 -1.1656 -0.4890 -0.6285
   74CHL1  H15B 6602   1.794   2.420   3.867 -2.0061  1.6561  0.5218
   74CHL1   C16 6603   1.941   2.523   3.995 -0.5504 -0.0579 -0.1612
   74CHL1  H16A 6604   1.925   2.619   4.048  1.2853  1.4443 -2.1445
   74CHL1  H16B 6605   1.922   2.444   4.071 -1.0784  1.6756  1.5942
   74CHL1   C17 6606   2.086   2.524   3.950  0.1425 -0.4578  0.0473
   74CHL1   H17 6607   2.118   2.418   3.949 -0.6066 -0.8120  2.9745
   74CHL1   C13 6608   2.080   2.580   3.807 -0.1702 -0.1973  0.1553
   74CHL1   C18 6609   2.042   2.727   3.810  0.2935  0.1976  0.4007
   74CHL1  H18A 6610   2.120   2.800   3.840  0.1530 -0.0426  1.3869
   74CHL1  H18B 6611   2.012   2.760   3.708 -0.1184 -1.2278  0.0421
   74CHL1  H18C 6612   1.953   2.751   3.872 -1.1098  0.6002 -1.6443
   74CHL1   C12 6613   2.196   2.557   3.708  0.6161  0.2109  0.7525
   74CHL1  H12A 6614   2.277   2.621   3.746 -1.2718  0.4100  4.9422
   74CHL1  H12B 6615   2.236   2.454   3.720  1.1070 -0.1895 -3.0628
   74CHL1   C11 6616   2.162   2.583   3.564  0.6088 -0.2177  0.4383
   74CHL1  H11A 6617   2.145   2.692   3.553  0.2849 -0.2123  0.9836
   74CHL1  H11B 6618   2.244   2.549   3.497  0.8123 -2.2759  1.6399
   74CHL1    C9 6619   2.029   2.517   3.517  0.2284  0.5550 -0.5409
   74CHL1    H9 6620   2.057   2.409   3.517  0.0867  0.4053  3.0480
   74CHL1   C10 6621   1.975   2.546   3.373 -0.8106  0.7167  0.3451
   74CHL1   C19 6622   1.976   2.703   3.349  0.4659  0.5606  0.0585
   74CHL1  H19A 6623   2.079   2.733   3.318  0.9811 -1.0664  0.0732
   74CHL1  H19B 6624   1.902   2.728   3.271  2.4745  3.0886 -1.1766
   74CHL1  H19C 6625   1.954   2.760   3.441 -0.8133  0.3962 -0.1354
   74CHL1    C1 6626   2.080   2.481   3.267  0.2231  0.7237  0.4745
   74CHL1   H1A 6627   2.179   2.528   3.283  0.8792 -1.3299  3.1090
   74CHL1   H1B 6628   2.095   2.374   3.289 -1.7123 -0.0048 -1.3820
   74CHL1    C2 6629   2.036   2.484   3.114 -0.3683  0.1817  0.4289
   74CHL1   H2A 6630   2.118   2.436   3.057  0.2014  2.0232 -0.3824
   74CHL1   H2B 6631   2.030   2.588   3.076 -2.1116  0.3239  0.9897
   74CHL1   C20 6632   2.182   2.588   4.058  0.0837 -0.0480 -0.3113
   74CHL1   H20 6633   2.176   2.699   4.048 -2.5589 -0.2028 -1.2307
   74CHL1   C21 6634   2.329   2.556   4.033 -0.6515 -0.1731  0.1507
   74CHL1  H21A 6635   2.349   2.532   3.926 -1.5532 -1.2069  0.2036
   74CHL1  H21B 6636   2.360   2.469   4.094  1.1555 -0.7952 -1.5426
   74CHL1  H21C 6637   2.403   2.631   4.069  1.4361 -3.1525  2.5726
   74CHL1   C22 6638   2.138   2.567   4.205 -0.6107 -0.2367 -0.4969
   74CHL1  H22A 6639   2.032   2.599   4.212 -0.3342  1.4660 -2.7151
   74CHL1  H22B 6640   2.153   2.462   4.238 -0.1484  0.4684  1.6914
   74CHL1   C23 6641   2.204   2.663   4.312 -0.3947 -0.2630 -0.4759
   74CHL1  H23A 6642   2.308   2.630   4.334 -0.6511 -1.4621 -1.0098
   74CHL1  H23B 6643   2.206   2.767   4.272  2.8771 -0.6458 -1.6234
   74CHL1   C24 6644   2.123   2.649   4.442 -0.4348  0.6836  0.0703
   74CHL1  H24A 6645   2.018   2.686   4.438 -0.5046  0.5167  0.3410
   74CHL1  H24B 6646   2.107   2.540   4.460 -1.3221  1.0191  1.5138
   74CHL1   C25 6647   2.187   2.704   4.572  0.3992 -0.3863  0.3779
   74CHL1   H25 6648   2.292   2.667   4.570  1.0460  1.3691  0.1870
   74CHL1   C26 6649   2.194   2.853   4.568  0.2568 -1.0209  0.0097
   74CHL1  H26A 6650   2.090   2.884   4.591 -0.5816 -3.9436  0.6257
   74CHL1  H26B 6651   2.257   2.893   4.650 -0.2556 -0.8171  0.3054
   74CHL1  H26C 6652   2.239   2.901   4.478  1.4240 -0.8221  0.6752
   74CHL1   C27 6653   2.118   2.661   4.695 -0.0070 -0.2220 -0.6053
   74CHL1  H27A 6654   2.126   2.550   4.698 -0.2613 -0.3775 -3.1522
   74CHL1  H27B 6655   2.157   2.698   4.792 -0.2549 -1.5204  0.0100
   74CHL1  H27C 6656   2.011   2.687   4.691 -0.4063 -1.4999  0.8813
   75CHL1    C3 6657   1.017   5.919   3.063 -0.0715 -0.1243  0.6140
   75CHL1    H3 6658   0.984   5.813   3.056 -1.7668  0.2307  2.3171
   75CHL1    O3 6659   1.040   5.961   2.929  0.1009  0.5818 -0.3930
   75CHL1   H3' 6660   0.953   5.980   2.893 -0.8066 -3.0831 -0.4784
   75CHL1    C4 6661   0.899   6.001   3.118 -0.0234  0.7424  0.2464
   75CHL1   H4A 6662   0.922   6.108   3.099 -0.5070  0.5245 -1.7211
   75CHL1   H4B 6663   0.810   5.980   3.055  1.2408  0.0346 -1.3819
   75CHL1    C5 6664   0.867   5.985   3.266  0.0676  0.1237  0.5613
   75CHL1    C6 6665   0.741   5.962   3.316 -0.4979 -0.6640 -0.3924
   75CHL1    H6 6666   0.652   5.962   3.250 -0.6253 -1.6938 -0.2497
   75CHL1    C7 6667   0.713   5.949   3.458 -0.7354  0.6557 -0.9295
   75CHL1   H7A 6668   0.623   6.011   3.481  0.5556  1.4754  2.6555
   75CHL1   H7B 6669   0.682   5.848   3.490  2.6535  0.0523  0.9034
   75CHL1    C8 6670   0.828   5.999   3.551 -0.1210  0.1859 -0.4451
   75CHL1    H8 6671   0.828   6.110   3.557 -0.9972  0.1927 -0.4796
   75CHL1   C14 6672   0.819   5.945   3.698  0.7830 -0.1184  0.2236
   75CHL1   H14 6673   0.846   5.837   3.694 -0.4091 -0.4071 -2.2010
   75CHL1   C15 6674   0.674   5.937   3.767 -1.3094 -0.1200 -0.4401
   75CHL1  H15A 6675   0.608   6.024   3.744  0.4973  1.2091 -0.8035
   75CHL1  H15B 6676   0.630   5.838   3.743  0.8593 -0.6869 -2.5267
   75CHL1   C16 6677   0.705   5.942   3.916  0.3861  0.3853 -0.4673
   75CHL1  H16A 6678   0.668   6.032   3.970  2.1246  0.8123  0.0993
   75CHL1  H16B 6679   0.658   5.854   3.966  0.2522  2.0811  2.6651
   75CHL1   C17 6680   0.858   5.931   3.928 -0.2891 -0.2787 -0.2084
   75CHL1   H17 6681   0.885   5.824   3.912 -1.3540 -0.8271  1.3136
   75CHL1   C13 6682   0.918   6.009   3.799  0.0756  0.7108  0.1012
   75CHL1   C18 6683   0.903   6.163   3.807  0.1418  0.0593 -0.2713
   75CHL1  H18A 6684   0.801   6.197   3.835 -0.1875 -2.5510  2.1217
   75CHL1  H18B 6685   0.967   6.204   3.888 -0.9583 -0.3363  0.8140
   75CHL1  H18C 6686   0.933   6.211   3.711  2.6562  0.3279  0.5598
   75CHL1   C12 6687   1.059   5.971   3.750 -0.0499 -0.1347  0.7605
   75CHL1  H12A 6688   1.139   6.026   3.805  1.8728 -1.9613 -0.0673
   75CHL1  H12B 6689   1.065   5.861   3.766 -0.7210 -0.5681 -1.6296
   75CHL1   C11 6690   1.076   6.007   3.600 -0.5887 -0.3440 -0.3464
   75CHL1  H11A 6691   1.076   6.118   3.605 -2.9848 -0.3458  1.7342
   75CHL1  H11B 6692   1.180   5.987   3.566  0.3620  0.4344  1.9205
   75CHL1    C9 6693   0.965   5.961   3.495 -0.6900  0.2735 -1.1010
   75CHL1    H9 6694   0.968   5.850   3.502 -1.8762  0.2835 -0.0597
   75CHL1   C10 6695   0.995   5.996   3.349  0.5816 -0.3969 -1.1081
   75CHL1   C19 6696   1.044   6.139   3.355 -0.0421  0.0801 -0.1845
   75CHL1  H19A 6697   1.150   6.145   3.388  0.1118  0.6895 -0.7579
   75CHL1  H19B 6698   1.038   6.197   3.261 -0.8350  2.1194  1.0454
   75CHL1  H19C 6699   0.985   6.198   3.428  0.2917 -1.6592  1.5816
   75CHL1    C1 6700   1.104   5.905   3.294  0.3432  0.2536 -1.1683
   75CHL1   H1A 6701   1.197   5.919   3.353 -0.1789  3.0534 -0.8733
   75CHL1   H1B 6702   1.077   5.798   3.306  1.3836  0.1837  0.9070
   75CHL1    C2 6703   1.143   5.937   3.148 -0.0861  0.4732 -0.2411
   75CHL1   H2A 6704   1.229   5.882   3.105  0.3188  0.1427  0.9690
   75CHL1   H2B 6705   1.179   6.042   3.141  1.1545 -0.0438 -3.1141
   75CHL1   C20 6706   0.911   5.976   4.071 -0.3729 -0.2921  0.2116
   75CHL1   H20 6707   0.883   6.083   4.079 -2.4962 -0.8133  0.3349
   75CHL1   C21 6708   1.061   5.960   4.090 -0.3774 -0.4904 -0.1653
   75CHL1  H21A 6709   1.093   5.853   4.092  2.7753  0.3630  0.0137
   75CHL1  H21B 6710   1.093   6.009   4.184  1.2003  0.9493 -1.3796
   75CHL1  H21C 6711   1.109   6.013   4.005  0.2637  0.7159  0.9220
   75CHL1   C22 6712   0.842   5.906   4.191  0.1843 -0.1601  0.6795
   75CHL1  H22A 6713   0.732   5.914   4.180 -0.1746 -0.9827  3.0816
   75CHL1  H22B 6714   0.881   5.802   4.188 -0.6528 -0.4648 -1.1981
   75CHL1   C23 6715   0.870   5.968   4.333 -0.2360  0.0002  0.0552
   75CHL1  H23A 6716   0.978   5.959   4.359 -0.3546 -2.5786 -0.0402
   75CHL1  H23B 6717   0.833   6.072   4.338 -0.7093  0.0011 -2.3891
   75CHL1   C24 6718   0.789   5.885   4.436  0.1272  0.3005  0.2193
   75CHL1  H24A 6719   0.679   5.883   4.418  0.2848 -2.3269 -1.0274
   75CHL1  H24B 6720   0.836   5.784   4.428  0.4644  0.5342 -1.0208
   75CHL1   C25 6721   0.814   5.901   4.590 -0.0301 -0.0194  0.2022
   75CHL1   H25 6722   0.925   5.894   4.596  0.0173  0.1986 -0.3844
   75CHL1   C26 6723   0.784   6.049   4.632 -0.3974 -0.9297 -0.2436
   75CHL1  H26A 6724   0.685   6.082   4.594  0.4345  2.4056  0.2156
   75CHL1  H26B 6725   0.782   6.045   4.743  3.1380 -0.2935 -0.0471
   75CHL1  H26C 6726   0.864   6.122   4.609  0.2112 -2.0792 -1.9963
   75CHL1   C27 6727   0.752   5.793   4.672 -0.7488 -0.4657  0.2157
   75CHL1  H27A 6728   0.642   5.781   4.657 -0.9429  0.7437  0.5137
   75CHL1  H27B 6729   0.793   5.697   4.636  0.4582  0.0364  0.2043
   75CHL1  H27C 6730   0.781   5.804   4.778  0.3986  0.2353 -0.1528
   76CHL1    C3 6731   5.820   2.697   3.207 -0.0024  0.2407 -1.0068
   76CHL1    H3 6732   5.725   2.709   3.262  0.2337 -1.2108 -0.2296
   76CHL1    O3 6733   5.807   2.748   3.080  0.6158  1.1444  0.0142
   76CHL1   H3' 6734   5.883   2.709   3.036  0.2649  1.6908 -1.1272
   76CHL1    C4 6735   5.931   2.768   3.284  0.2424  0.4389  0.7023
   76CHL1   H4A 6736   6.032   2.731   3.259  0.8318  0.4588  2.8161
   76CHL1   H4B 6737   5.924   2.878   3.269 -0.5905  0.2489 -0.4352
   76CHL1    C5 6738   5.923   2.728   3.429  0.6976  0.1819 -0.1071
   76CHL1    C6 6739   5.911   2.824   3.526 -0.0749  0.0433  0.0678
   76CHL1    H6 6740   5.891   2.931   3.514 -1.2804 -0.0479  1.0656
   76CHL1    C7 6741   5.918   2.791   3.670  0.0036 -0.2451  0.2636
   76CHL1   H7A 6742   5.987   2.865   3.716 -1.6746  1.5750 -0.0070
   76CHL1   H7B 6743   5.818   2.809   3.715 -0.0363  1.7324 -0.5450
   76CHL1    C8 6744   5.963   2.649   3.705 -0.0380 -0.4560  0.2489
   76CHL1    H8 6745   6.074   2.659   3.695  0.2782 -0.9444  2.7491
   76CHL1   C14 6746   5.916   2.619   3.850 -0.2529 -0.4447 -0.3707
   76CHL1   H14 6747   5.806   2.634   3.840 -0.6519 -1.7372  1.6324
   76CHL1   C15 6748   5.954   2.714   3.965 -0.4305 -0.0869  0.3546
   76CHL1  H15A 6749   6.064   2.730   3.964 -0.5006  0.4031  0.0616
   76CHL1  H15B 6750   5.910   2.815   3.951  1.6182  1.5108  4.0984
   76CHL1   C16 6751   5.906   2.636   4.092  0.1522 -0.0551  0.3456
   76CHL1  H16A 6752   5.981   2.660   4.171  0.4467  1.7592 -0.4353
   76CHL1  H16B 6753   5.803   2.669   4.114  0.9628  1.9095  1.5240
   76CHL1   C17 6754   5.881   2.488   4.046 -0.2652  0.0876  0.5998
   76CHL1   H17 6755   5.772   2.468   4.045 -0.7074  1.8838  3.1550
   76CHL1   C13 6756   5.935   2.476   3.902 -0.2303  0.0315 -0.0545
   76CHL1   C18 6757   6.089   2.438   3.898  0.0510  1.0596 -0.3788
   76CHL1  H18A 6758   6.141   2.494   3.978 -1.6772  1.7800  0.2922
   76CHL1  H18B 6759   6.097   2.330   3.926  0.0008  1.8325  3.0380
   76CHL1  H18C 6760   6.137   2.465   3.802  2.0157  4.0051  1.2946
   76CHL1   C12 6761   5.864   2.379   3.806  0.3397 -0.5391 -0.5930
   76CHL1  H12A 6762   5.866   2.272   3.837 -2.0198  0.1299  2.3167
   76CHL1  H12B 6763   5.757   2.406   3.817 -0.0375 -2.5865  1.5580
   76CHL1   C11 6764   5.899   2.397   3.662  0.2059 -0.3184 -0.0527
   76CHL1  H11A 6765   5.991   2.336   3.648 -0.2153 -0.7484 -0.9950
   76CHL1  H11B 6766   5.822   2.340   3.607 -0.5901  0.1031  0.6012
   76CHL1    C9 6767   5.902   2.551   3.605  0.2676  0.4991 -0.3343
   76CHL1    H9 6768   5.792   2.567   3.610 -0.2599 -2.8361  2.6715
   76CHL1   C10 6769   5.945   2.575   3.461 -0.5616  0.2187 -0.1706
   76CHL1   C19 6770   6.095   2.538   3.442  0.6873  0.4357  0.5327
   76CHL1  H19A 6771   6.150   2.589   3.524 -1.0890 -0.1287  2.1762
   76CHL1  H19B 6772   6.123   2.431   3.453  2.7472  0.2707 -4.0506
   76CHL1  H19C 6773   6.141   2.550   3.342 -2.4086  0.3072 -1.0265
   76CHL1    C1 6774   5.861   2.484   3.359  0.1589 -0.4577 -0.2255
   76CHL1   H1A 6775   5.904   2.382   3.364  0.0220 -0.4942  0.2975
   76CHL1   H1B 6776   5.762   2.463   3.404 -0.2815 -0.7308 -1.2883
   76CHL1    C2 6777   5.839   2.541   3.214  0.3190  0.0175  0.5369
   76CHL1   H2A 6778   5.750   2.494   3.167 -0.5115 -0.6296  2.6165
   76CHL1   H2B 6779   5.930   2.516   3.156 -1.0501 -3.1075 -0.5289
   76CHL1   C20 6780   5.933   2.387   4.149 -0.2029 -0.1878 -0.4243
   76CHL1   H20 6781   6.043   2.386   4.166 -0.0407  2.2516 -0.9433
   76CHL1   C21 6782   5.890   2.247   4.102 -0.2103 -0.0383  0.5649
   76CHL1  H21A 6783   5.941   2.214   4.009 -2.1233  1.6897 -1.2151
   76CHL1  H21B 6784   5.780   2.254   4.085 -0.2115 -0.3976  0.4157
   76CHL1  H21C 6785   5.914   2.165   4.174  0.0354 -0.3854  0.0920
   76CHL1   C22 6786   5.860   2.401   4.291  0.4508  0.0774 -0.6518
   76CHL1  H22A 6787   5.854   2.508   4.321 -0.5411  0.4526 -2.0645
   76CHL1  H22B 6788   5.753   2.372   4.285  0.2454  0.8276 -0.7610
   76CHL1   C23 6789   5.936   2.319   4.409 -0.3626  0.5610 -0.4934
   76CHL1  H23A 6790   5.936   2.210   4.385  0.1404  0.4943 -0.2084
   76CHL1  H23B 6791   6.043   2.346   4.422  0.7074 -3.0444 -0.5630
   76CHL1   C24 6792   5.862   2.330   4.544 -0.0545  0.6877  0.2153
   76CHL1  H24A 6793   5.857   2.440   4.556 -0.6991  0.7054 -0.1655
   76CHL1  H24B 6794   5.759   2.290   4.554  0.4614 -0.3195  1.8669
   76CHL1   C25 6795   5.933   2.271   4.667  0.0247  0.4441 -0.7925
   76CHL1   H25 6796   6.036   2.312   4.658 -0.5017  1.7035 -1.2427
   76CHL1   C26 6797   5.858   2.319   4.793  0.1032  0.4271  0.3331
   76CHL1  H26A 6798   5.888   2.261   4.883  0.4162  0.0583 -0.0041
   76CHL1  H26B 6799   5.885   2.424   4.820 -0.4151  0.4171  0.8961
   76CHL1  H26C 6800   5.747   2.322   4.791  0.0746  1.2374  1.6531
   76CHL1   C27 6801   5.941   2.117   4.661 -0.7699 -0.0175  0.1740
   76CHL1  H27A 6802   5.996   2.085   4.570 -1.1334 -1.0224  0.2999
   76CHL1  H27B 6803   5.998   2.087   4.751 -0.1108 -0.2093 -0.3025
   76CHL1  H27C 6804   5.834   2.088   4.663 -1.0070  0.7432 -0.6460
   77SOPE     N 6805   4.954   5.616   6.510 -0.1156  0.7467  0.4717
   77SOPE   HN1 6806   4.985   5.553   6.587  1.0338 -0.0317 -0.5953
   77SOPE   HN2 6807   4.961   5.572   6.416 -0.7121 -0.5666  1.0280
   77SOPE   HN3 6808   5.012   5.702   6.508 -1.6354  1.7986 -1.2144
   77SOPE   C12 6809   4.815   5.666   6.526 -0.8807  0.5800  0.7844
   77SOPE  H12A 6810   4.801   5.676   6.635  0.7065 -0.1098  1.0866
   77SOPE  H12B 6811   4.745   5.589   6.488 -1.6878  1.3057  0.7719
   77SOPE   C11 6812   4.800   5.797   6.447  0.2308 -0.1404  0.2743
   77SOPE  H11A 6813   4.693   5.814   6.423  0.7822  1.5155 -1.2331
   77SOPE  H11B 6814   4.846   5.801   6.345 -1.6682 -0.3359 -0.6284
   77SOPE     P 6815   4.786   5.973   6.650 -0.0309  0.4184  0.2384
   77SOPE   O13 6816   4.897   5.950   6.743 -0.0014  1.0045  0.0762
   77SOPE   O14 6817   4.658   5.909   6.683  0.5133 -0.2998 -0.6654
   77SOPE   O12 6818   4.841   5.912   6.515 -0.2054 -0.6982 -0.3688
   77SOPE   O11 6819   4.768   6.138   6.627  0.1483 -0.1867  0.7427
   77SOPE    C1 6820   4.703   6.174   6.505 -0.1356 -0.2263  0.1895
   77SOPE    HA 6821   4.735   6.116   6.416 -1.3795  2.5449 -2.2133
   77SOPE    HB 6822   4.727   6.280   6.481 -0.0104 -0.2014  0.4199
   77SOPE    C2 6823   4.551   6.190   6.522 -0.2908 -0.0134  0.1151
   77SOPE    HS 6824   4.516   6.093   6.563 -0.0831  0.4291  1.3801
   77SOPE   O21 6825   4.489   6.225   6.403 -0.8672 -0.1496  0.6231
   77SOPE   C21 6826   4.459   6.124   6.326 -0.0456  1.2072 -0.2655
   77SOPE   O22 6827   4.491   6.008   6.343  0.8860  0.3204  0.4123
   77SOPE   C22 6828   4.412   6.185   6.195  0.5189  1.0319 -0.4019
   77SOPE   H2R 6829   4.479   6.267   6.160 -0.2236  2.0115  0.3838
   77SOPE   H2S 6830   4.313   6.233   6.209 -0.0930 -0.1784 -0.4619
   77SOPE    C3 6831   4.521   6.303   6.626 -1.1895 -0.5458  0.5487
   77SOPE    HX 6832   4.561   6.267   6.723 -0.0043  1.5378  0.8968
   77SOPE    HY 6833   4.410   6.309   6.635 -1.2826 -0.1234 -0.7073
   77SOPE   O31 6834   4.592   6.429   6.593 -0.2543  0.5427 -0.0639
   77SOPE   C31 6835   4.523   6.511   6.517 -0.1806 -0.8890  0.1007
   77SOPE   O32 6836   4.402   6.499   6.496 -0.3126  0.0100  0.7493
   77SOPE   C32 6837   4.612   6.617   6.462 -0.7800  0.1474  0.0181
   77SOPE   H2X 6838   4.716   6.586   6.482  0.0997  2.6560 -0.2679
   77SOPE   H2Y 6839   4.601   6.705   6.529  1.1623 -0.0645  0.6721
   77SOPE   C23 6840   4.421   6.098   6.072 -0.3722 -0.3730  0.3996
   77SOPE   H3R 6841   4.341   6.021   6.079 -1.6605  0.9145  0.1697
   77SOPE   H3S 6842   4.516   6.040   6.075 -0.6062 -0.7537  0.4363
   77SOPE   C24 6843   4.402   6.168   5.940 -0.2623  0.1083  0.2775
   77SOPE   H4R 6844   4.311   6.230   5.956  1.0556  2.3467 -0.4254
   77SOPE   H4S 6845   4.487   6.236   5.919  0.7365 -1.4684 -1.0087
   77SOPE   C25 6846   4.377   6.082   5.807 -0.4409 -0.0099 -0.0168
   77SOPE   H5R 6847   4.454   6.006   5.783 -0.4580  0.2531 -0.9385
   77SOPE   H5S 6848   4.283   6.023   5.807  0.6510 -2.2339 -4.8652
   77SOPE   C26 6849   4.368   6.167   5.675  0.1169 -0.0339 -0.8461
   77SOPE   H6R 6850   4.291   6.246   5.685 -0.6932 -0.8695 -0.3127
   77SOPE   H6S 6851   4.462   6.224   5.658  0.4163 -0.6710 -1.3981
   77SOPE   C27 6852   4.367   6.078   5.557  0.3808  0.4486  0.0421
   77SOPE   H7R 6853   4.452   6.007   5.559 -1.0340 -1.4306 -1.9480
   77SOPE   H7S 6854   4.268   6.027   5.556 -0.8218  2.5713  1.3420
   77SOPE   C28 6855   4.381   6.165   5.424  0.5931  0.3941  0.1976
   77SOPE   H8R 6856   4.301   6.241   5.420 -1.0716 -1.2277  1.3118
   77SOPE   H8S 6857   4.469   6.233   5.422  0.6344  0.3764  1.1835
   77SOPE   C29 6858   4.378   6.064   5.304  0.0893  0.3846  0.2746
   77SOPE   H91 6859   4.476   6.017   5.287  0.6016  0.7193  2.1393
   77SOPE  C210 6860   4.286   6.043   5.205  0.4504 -0.8149 -0.2510
   77SOPE  H101 6861   4.316   5.973   5.125  2.4101 -1.0927  0.6657
   77SOPE  C211 6862   4.159   6.122   5.194 -0.6704 -0.5534  0.5350
   77SOPE  H11R 6863   4.157   6.212   5.258  0.7338 -0.0564 -0.0773
   77SOPE  H11S 6864   4.070   6.061   5.220 -1.3874 -0.1183 -0.8029
   77SOPE  C212 6865   4.153   6.154   5.040 -0.3838  0.8752  0.6094
   77SOPE  H12R 6866   4.138   6.055   4.991  0.0784  0.3021  1.5872
   77SOPE  H12S 6867   4.238   6.201   4.988 -1.7570  0.7351 -1.8890
   77SOPE  C213 6868   4.035   6.252   5.005 -0.3300  0.2277  0.0987
   77SOPE  H13R 6869   4.059   6.356   5.039 -0.4296 -0.4124  2.2562
   77SOPE  H13S 6870   3.935   6.222   5.043 -1.3086  2.2718 -0.6674
   77SOPE  C214 6871   4.021   6.267   4.846 -0.3128  0.7864 -0.2684
   77SOPE  H14R 6872   3.989   6.167   4.810  0.3981  0.1193  0.8856
   77SOPE  H14S 6873   4.121   6.303   4.813 -0.8681  2.3467 -0.3379
   77SOPE  C215 6874   3.913   6.373   4.811  0.8559  0.5241 -0.0532
   77SOPE  H15R 6875   3.944   6.470   4.856  0.4853  0.2858  0.7214
   77SOPE  H15S 6876   3.814   6.349   4.856  1.4354 -1.6893  0.1703
   77SOPE  C216 6877   3.900   6.400   4.656 -0.3249 -0.3760  0.4212
   77SOPE  H16R 6878   3.941   6.305   4.614  1.7589  0.7718 -0.2914
   77SOPE  H16S 6879   3.973   6.480   4.632 -0.9543 -0.3791 -1.6843
   77SOPE  C217 6880   3.762   6.438   4.612  0.1144  1.0396  0.8192
   77SOPE  H17R 6881   3.702   6.345   4.603 -1.5596  2.0651  0.7460
   77SOPE  H17S 6882   3.780   6.478   4.510  0.1779 -0.3228  0.2847
   77SOPE  C218 6883   3.692   6.539   4.698  0.4394  0.3127  0.1218
   77SOPE  H18R 6884   3.594   6.567   4.655  0.7648  2.2458  0.5604
   77SOPE  H18S 6885   3.753   6.631   4.704  3.7424 -1.4961 -2.1227
   77SOPE  H18T 6886   3.663   6.496   4.796  2.0123  0.4963  0.7038
   77SOPE   C33 6887   4.571   6.657   6.315  0.2387  0.0001 -0.8057
   77SOPE   H3X 6888   4.609   6.756   6.282 -0.9002  0.3064 -1.2651
   77SOPE   H3Y 6889   4.462   6.679   6.316  0.4512  1.2249  0.8689
   77SOPE   C34 6890   4.592   6.556   6.204 -0.0320  0.0007  0.3675
   77SOPE   H4X 6891   4.569   6.453   6.237 -1.3954 -0.2517 -1.2907
   77SOPE   H4Y 6892   4.700   6.560   6.179  0.2722 -1.0507  1.4106
   77SOPE   C35 6893   4.506   6.590   6.082  0.2454 -0.8384  0.1775
   77SOPE   H5X 6894   4.470   6.695   6.081 -2.0566 -1.5708 -0.4385
   77SOPE   H5Y 6895   4.418   6.522   6.078  0.2507 -0.7932 -2.1252
   77SOPE   C36 6896   4.576   6.566   5.948  0.0266  0.4201  0.6707
   77SOPE   H6X 6897   4.630   6.470   5.939  0.0624  0.5820 -1.1312
   77SOPE   H6Y 6898   4.652   6.647   5.940  1.7937 -0.8631  3.1981
   77SOPE   C37 6899   4.490   6.569   5.816  0.4495 -0.1233 -0.1078
   77SOPE   H7X 6900   4.415   6.650   5.831 -1.1593 -1.4074 -0.9221
   77SOPE   H7Y 6901   4.433   6.474   5.812 -0.9947  0.6623  0.6089
   77SOPE   C38 6902   4.575   6.579   5.691  0.2442 -0.1061 -0.7168
   77SOPE   H8X 6903   4.634   6.485   5.677  1.5039  0.7037 -0.9728
   77SOPE   H8Y 6904   4.651   6.657   5.710  0.4086 -0.5934  0.7715
   77SOPE   C39 6905   4.491   6.602   5.564  0.6928  0.6096  0.3397
   77SOPE   H9X 6906   4.413   6.673   5.599 -0.4073 -0.1313 -0.5258
   77SOPE   H9Y 6907   4.440   6.506   5.540 -0.4561  0.5438  2.7587
   77SOPE  C310 6908   4.572   6.638   5.434  0.2595  0.0684 -0.2394
   77SOPE  H10X 6909   4.655   6.567   5.414  0.3806 -0.3755  1.6114
   77SOPE  H10Y 6910   4.624   6.733   5.459  1.1774 -0.3294 -0.6075
   77SOPE  C311 6911   4.485   6.662   5.310 -1.1332  0.7266  0.0804
   77SOPE  H11X 6912   4.436   6.759   5.335 -2.0989 -0.3987  2.9774
   77SOPE  H11Y 6913   4.414   6.578   5.294 -2.0037  1.3144  0.7349
   77SOPE  C312 6914   4.566   6.680   5.182  0.3233  0.1504 -0.2269
   77SOPE  H12X 6915   4.647   6.755   5.197 -0.0861  0.6388 -0.4123
   77SOPE  H12Y 6916   4.511   6.717   5.092  0.6960  0.2266 -0.4231
   77SOPE  C313 6917   4.644   6.556   5.131 -0.0537 -0.4332 -0.9134
   77SOPE  H13X 6918   4.732   6.544   5.198 -0.7582 -0.7601 -0.0193
   77SOPE  H13Y 6919   4.674   6.560   5.024  1.5856 -1.5933 -0.5365
   77SOPE  C314 6920   4.563   6.420   5.145  0.3006 -0.5142 -0.3596
   77SOPE  H14X 6921   4.455   6.423   5.118  0.5439 -1.3659 -1.4976
   77SOPE  H14Y 6922   4.562   6.404   5.255  0.8319  2.4268  0.1485
   77SOPE  C315 6923   4.641   6.304   5.081  0.4729  0.5570  0.3837
   77SOPE  H15X 6924   4.624   6.296   4.972  1.2735  0.5585  0.2526
   77SOPE  H15Y 6925   4.601   6.210   5.124 -0.6691  0.1098 -1.5707
   77SOPE  C316 6926   4.797   6.291   5.119  0.6318  0.3795  0.4472
   77SOPE  H16X 6927   4.823   6.299   5.226  4.5835  2.5142 -0.5023
   77SOPE  H16Y 6928   4.845   6.374   5.063  2.1495 -0.3464  0.6488
   77SOPE  C317 6929   4.858   6.154   5.074 -0.4250  0.0591  0.6693
   77SOPE  H17X 6930   4.958   6.147   5.121 -0.5183  2.4854  1.3501
   77SOPE  H17Y 6931   4.874   6.166   4.964  0.9495 -0.6875  0.7743
   77SOPE  C318 6932   4.773   6.026   5.077  0.1458  0.4729 -0.1755
   77SOPE  H18X 6933   4.664   6.049   5.076 -0.4960 -2.2091 -0.7807
   77SOPE  H18Y 6934   4.797   5.962   5.165  0.1309 -2.1824 -1.9755
   77SOPE  H18Z 6935   4.794   5.954   4.995  1.1662 -0.4261  0.8320
   78SOPE     N 6936   5.264   3.414   6.653 -0.1997  0.2477  0.0091
   78SOPE   HN1 6937   5.199   3.336   6.628  0.9714 -0.2413 -1.6673
   78SOPE   HN2 6938   5.361   3.377   6.655 -0.5278 -0.7746 -1.5376
   78SOPE   HN3 6939   5.231   3.446   6.747  0.1167 -1.1190  0.6074
   78SOPE   C12 6940   5.238   3.532   6.567 -0.3241 -0.9979 -0.7582
   78SOPE  H12A 6941   5.133   3.569   6.575  0.0980  0.5990 -1.9889
   78SOPE  H12B 6942   5.258   3.507   6.461  1.0929 -1.5244 -0.3962
   78SOPE   C11 6943   5.340   3.649   6.616  0.5478 -0.6854 -0.8265
   78SOPE  H11A 6944   5.323   3.734   6.546  2.6273 -0.7564 -1.5114
   78SOPE  H11B 6945   5.446   3.616   6.608  1.6268  2.5647 -1.6852
   78SOPE     P 6946   5.413   3.779   6.834 -0.0501  0.2184 -0.0216
   78SOPE   O13 6947   5.450   3.706   6.957  0.3041 -0.0357 -1.0996
   78SOPE   O14 6948   5.355   3.915   6.844  0.2062  0.1610 -0.5819
   78SOPE   O12 6949   5.308   3.696   6.746 -0.1848  0.0068 -0.0138
   78SOPE   O11 6950   5.553   3.785   6.751  0.1977 -0.3161  0.1659
   78SOPE    C1 6951   5.618   3.903   6.706 -0.5023  0.7378 -0.2158
   78SOPE    HA 6952   5.729   3.906   6.719 -0.5432  1.8443  0.0130
   78SOPE    HB 6953   5.592   3.988   6.773 -0.9281 -0.4588  1.1783
   78SOPE    C2 6954   5.579   3.933   6.558  0.2780 -0.9361  0.1701
   78SOPE    HS 6955   5.468   3.932   6.569  0.2887 -0.9271  0.2812
   78SOPE   O21 6956   5.624   3.830   6.461 -0.1464 -0.1051  0.0144
   78SOPE   C21 6957   5.566   3.829   6.346  0.4474 -0.1945 -0.0888
   78SOPE   O22 6958   5.468   3.892   6.311 -0.1336  0.2636  0.4753
   78SOPE   C22 6959   5.634   3.720   6.252  0.6229  0.4390  0.3910
   78SOPE   H2R 6960   5.626   3.627   6.312  0.3568  0.7957  0.9272
   78SOPE   H2S 6961   5.736   3.762   6.236 -0.2854  1.8147 -2.4332
   78SOPE    C3 6962   5.625   4.080   6.516 -0.2523 -0.1229 -0.4271
   78SOPE    HX 6963   5.735   4.073   6.527 -0.4371 -2.0578  0.8087
   78SOPE    HY 6964   5.592   4.156   6.590 -2.0241 -0.8978 -0.3677
   78SOPE   O31 6965   5.588   4.130   6.388 -0.2656  0.1121 -0.2559
   78SOPE   C31 6966   5.463   4.175   6.392 -0.6989 -0.4305  0.2432
   78SOPE   O32 6967   5.389   4.184   6.487 -0.2997  0.0489  0.3401
   78SOPE   C32 6968   5.427   4.218   6.253 -0.4905  0.5958  0.0945
   78SOPE   H2X 6969   5.452   4.141   6.177  1.4190  1.1088  0.1433
   78SOPE   H2Y 6970   5.477   4.314   6.228 -1.4540  0.5643 -2.1514
   78SOPE   C23 6971   5.563   3.699   6.111  0.1426 -1.1187 -0.7078
   78SOPE   H3R 6972   5.457   3.671   6.128 -0.3587  1.0688  0.1094
   78SOPE   H3S 6973   5.614   3.613   6.064  1.1839 -0.0480 -1.5925
   78SOPE   C24 6974   5.576   3.809   6.008  0.3592 -0.6489  0.8649
   78SOPE   H4R 6975   5.525   3.899   6.048  0.5077 -0.6863  1.1434
   78SOPE   H4S 6976   5.682   3.836   5.986  0.1558 -1.0092 -0.7154
   78SOPE   C25 6977   5.509   3.773   5.872  0.5791 -0.2804  0.1245
   78SOPE   H5R 6978   5.449   3.681   5.887  0.6258 -0.1564  1.1029
   78SOPE   H5S 6979   5.451   3.863   5.842 -0.0907 -0.6445  0.2995
   78SOPE   C26 6980   5.607   3.734   5.763 -0.4354  0.1577 -0.2019
   78SOPE   H6R 6981   5.664   3.648   5.804  2.0755  1.2961 -1.1384
   78SOPE   H6S 6982   5.554   3.691   5.675 -0.2909 -0.0788 -0.1738
   78SOPE   C27 6983   5.714   3.833   5.731 -0.0387 -0.6585  0.4496
   78SOPE   H7R 6984   5.770   3.862   5.823 -2.3875 -0.1096  1.7748
   78SOPE   H7S 6985   5.785   3.784   5.662 -2.3946  0.7650 -3.2631
   78SOPE   C28 6986   5.653   3.956   5.663 -0.6120  0.1395  0.2912
   78SOPE   H8R 6987   5.597   3.938   5.568 -0.5911 -0.5160  0.3951
   78SOPE   H8S 6988   5.588   4.008   5.735 -1.5957  0.4894 -0.8119
   78SOPE   C29 6989   5.767   4.043   5.644 -0.1071 -0.3849 -0.0084
   78SOPE   H91 6990   5.798   4.100   5.732 -0.5630 -0.5465  0.2585
   78SOPE  C210 6991   5.825   4.064   5.528  0.9690  0.0537 -0.0631
   78SOPE  H101 6992   5.909   4.133   5.513  1.7724 -1.3605 -2.5132
   78SOPE  C211 6993   5.787   3.996   5.396 -0.8117  0.7389 -0.0897
   78SOPE  H11R 6994   5.708   3.919   5.402 -1.6361  1.2874 -2.6571
   78SOPE  H11S 6995   5.873   3.934   5.360 -0.7171 -0.5493  2.2110
   78SOPE  C212 6996   5.747   4.095   5.291 -0.0929 -0.3947 -0.0242
   78SOPE  H12R 6997   5.660   4.146   5.339 -0.2189 -1.6275  1.0876
   78SOPE  H12S 6998   5.730   4.030   5.203  1.8125 -1.9933  0.7351
   78SOPE  C213 6999   5.855   4.196   5.238  0.2975 -0.2405  0.5895
   78SOPE  H13R 7000   5.949   4.142   5.216 -0.1150 -1.1842  1.0786
   78SOPE  H13S 7001   5.868   4.261   5.327  1.0281 -1.4299  1.3857
   78SOPE  C214 7002   5.822   4.280   5.113  0.4836 -0.2714  0.7572
   78SOPE  H14R 7003   5.727   4.330   5.143  0.5097  1.1116 -1.2340
   78SOPE  H14S 7004   5.801   4.220   5.022 -0.4386  1.0769  0.0450
   78SOPE  C215 7005   5.919   4.391   5.074  0.0811  0.4509 -0.2301
   78SOPE  H15R 7006   5.873   4.457   4.996  0.8894  0.9676 -0.2783
   78SOPE  H15S 7007   6.005   4.341   5.025 -0.6470 -0.0109 -1.0830
   78SOPE  C216 7008   5.979   4.481   5.183  0.6133 -0.4438 -0.0076
   78SOPE  H16R 7009   6.078   4.448   5.221  1.4851  0.8975 -1.0239
   78SOPE  H16S 7010   5.919   4.481   5.276  0.5930  3.1554  0.1280
   78SOPE  C217 7011   5.987   4.628   5.128 -0.1855 -0.1027 -0.4471
   78SOPE  H17R 7012   6.033   4.690   5.208  1.0364 -1.6455  0.0942
   78SOPE  H17S 7013   5.887   4.672   5.107 -0.6564 -1.0571 -0.2853
   78SOPE  C218 7014   6.089   4.641   5.007  0.3749  0.0529  0.5879
   78SOPE  H18R 7015   6.171   4.566   5.008  0.2413 -0.2232 -2.2053
   78SOPE  H18S 7016   6.126   4.744   4.993  0.3783 -0.1885 -1.4637
   78SOPE  H18T 7017   6.039   4.630   4.909  0.2138  0.8675  0.5730
   78SOPE   C33 7018   5.280   4.248   6.240  0.6878 -0.3467  0.1147
   78SOPE   H3X 7019   5.240   4.319   6.316 -2.6187 -0.6361 -1.1727
   78SOPE   H3Y 7020   5.217   4.158   6.257  1.1293 -0.9892 -1.5199
   78SOPE   C34 7021   5.251   4.312   6.101  0.1056 -0.0520 -0.2172
   78SOPE   H4X 7022   5.320   4.398   6.100  0.7882 -0.5517 -2.6488
   78SOPE   H4Y 7023   5.147   4.353   6.103 -0.0221 -0.3988  0.6127
   78SOPE   C35 7024   5.275   4.221   5.975  0.4680 -0.2177 -0.0147
   78SOPE   H5X 7025   5.202   4.137   5.970  0.5493 -0.2938  0.0586
   78SOPE   H5Y 7026   5.379   4.184   5.968  0.1110 -1.3474  0.4926
   78SOPE   C36 7027   5.266   4.302   5.839 -0.8947 -0.6254  0.3070
   78SOPE   H6X 7028   5.341   4.384   5.843  0.3057 -1.6990  0.4025
   78SOPE   H6Y 7029   5.159   4.334   5.837 -0.2675  2.3193  3.6852
   78SOPE   C37 7030   5.310   4.233   5.712  0.3656  0.5650  0.1170
   78SOPE   H7X 7031   5.236   4.150   5.703  1.2656 -0.3183  0.6736
   78SOPE   H7Y 7032   5.412   4.191   5.724  0.0563 -0.2513 -0.0287
   78SOPE   C38 7033   5.312   4.326   5.587  0.1006 -0.2204  0.0979
   78SOPE   H8X 7034   5.382   4.407   5.618 -0.9030  1.0289 -0.8255
   78SOPE   H8Y 7035   5.210   4.370   5.585 -0.3736 -1.3067 -2.4151
   78SOPE   C39 7036   5.371   4.255   5.471 -0.9139  0.3493  1.0748
   78SOPE   H9X 7037   5.315   4.165   5.439 -0.1943  0.5934 -1.0378
   78SOPE   H9Y 7038   5.478   4.236   5.493 -0.4843 -0.7653 -1.5307
   78SOPE  C310 7039   5.353   4.341   5.345 -0.1332  0.1984 -0.4137
   78SOPE  H10X 7040   5.427   4.424   5.350  0.7783 -0.6164 -0.0509
   78SOPE  H10Y 7041   5.247   4.369   5.330 -0.2321 -0.1063 -0.2901
   78SOPE  C311 7042   5.385   4.272   5.213  0.5376  0.0694 -0.0713
   78SOPE  H11X 7043   5.302   4.201   5.195 -0.5261  1.4481 -0.7255
   78SOPE  H11Y 7044   5.481   4.217   5.202  0.0051 -0.5715 -1.8505
   78SOPE  C312 7045   5.369   4.373   5.097  0.1150  0.9268  0.2461
   78SOPE  H12X 7046   5.455   4.442   5.113 -0.4724  2.2229 -1.8029
   78SOPE  H12Y 7047   5.268   4.419   5.101  0.5869  2.1116 -0.8630
   78SOPE  C313 7048   5.384   4.334   4.949  0.2916 -0.4806 -0.2736
   78SOPE  H13X 7049   5.486   4.295   4.933  0.4158 -0.3221  0.1189
   78SOPE  H13Y 7050   5.370   4.427   4.889  0.0513  1.1139  2.1150
   78SOPE  C314 7051   5.291   4.228   4.909 -0.6476  0.2038  0.2139
   78SOPE  H14X 7052   5.303   4.143   4.980  1.2638 -0.0846 -0.4075
   78SOPE  H14Y 7053   5.332   4.194   4.811  0.1399 -2.1802  1.3122
   78SOPE  C315 7054   5.142   4.268   4.895  0.5978 -0.3213 -0.2987
   78SOPE  H15X 7055   5.138   4.351   4.822  0.0911 -0.8308 -0.8609
   78SOPE  H15Y 7056   5.106   4.306   4.993  0.3250  0.9766 -0.8917
   78SOPE  C316 7057   5.075   4.143   4.847 -0.5686 -0.0489 -0.4547
   78SOPE  H16X 7058   5.106   4.056   4.909 -0.7866 -0.7046 -1.2529
   78SOPE  H16Y 7059   5.094   4.140   4.738 -2.8762  4.0490 -1.1666
   78SOPE  C317 7060   4.926   4.155   4.855  0.0201  0.0082  0.0996
   78SOPE  H17X 7061   4.889   4.256   4.826  0.6571 -0.1505 -1.3394
   78SOPE  H17Y 7062   4.893   4.127   4.957  4.5151 -0.7837  1.5852
   78SOPE  C318 7063   4.838   4.061   4.764 -0.5484 -0.3831  0.1444
   78SOPE  H18X 7064   4.866   3.958   4.795  1.3456 -0.8437 -2.7591
   78SOPE  H18Y 7065   4.864   4.067   4.656  0.5002 -1.0045  0.3473
   78SOPE  H18Z 7066   4.731   4.086   4.778 -0.2271  2.5464 -1.7135
   79SOPE     N 7067   6.829   4.069   7.301  0.4369  0.0750  0.2176
   79SOPE   HN1 7068   6.754   4.092   7.233  1.3862 -1.9221 -1.6103
   79SOPE   HN2 7069   6.842   3.966   7.308  1.1026  0.0832 -0.7585
   79SOPE   HN3 7070   6.806   4.105   7.396 -3.0272  0.2635 -0.5564
   79SOPE   C12 7071   6.966   4.122   7.265  0.2533  0.0698 -0.1740
   79SOPE  H12A 7072   7.040   4.092   7.342  2.0340  0.9436 -1.4831
   79SOPE  H12B 7073   6.949   4.231   7.271 -3.1403 -0.3473 -0.3770
   79SOPE   C11 7074   7.011   4.089   7.125  0.4812 -0.1903  0.0740
   79SOPE  H11A 7075   7.117   4.123   7.119 -0.6330  3.6011 -1.9052
   79SOPE  H11B 7076   6.959   4.140   7.040  2.5834  1.0946 -0.5304
   79SOPE     P 7077   7.059   3.858   6.991 -0.4181  0.1131 -0.2390
   79SOPE   O13 7078   7.025   3.718   7.012  0.1582  0.1735 -0.6241
   79SOPE   O14 7079   7.204   3.886   6.981 -0.1180 -0.4208 -0.1529
   79SOPE   O12 7080   6.996   3.944   7.107  0.2651  0.4256 -0.4755
   79SOPE   O11 7081   6.979   3.909   6.865  0.1960 -0.1811  0.3186
   79SOPE    C1 7082   6.835   3.922   6.863 -0.3649  0.0551 -0.5263
   79SOPE    HA 7083   6.813   4.027   6.835  0.5103  0.7828  1.3161
   79SOPE    HB 7084   6.782   3.900   6.958 -1.1918 -0.7457 -1.1513
   79SOPE    C2 7085   6.774   3.848   6.739 -0.2010  0.6006 -0.3936
   79SOPE    HS 7086   6.788   3.739   6.758  0.9329  0.7303 -0.3949
   79SOPE   O21 7087   6.833   3.886   6.617  0.4908 -0.0695  0.0385
   79SOPE   C21 7088   6.944   3.832   6.583 -0.1433  0.7941  0.1366
   79SOPE   O22 7089   6.987   3.729   6.639  0.6298 -0.6727 -0.0053
   79SOPE   C22 7090   7.000   3.895   6.456  0.3330 -0.7782 -0.1863
   79SOPE   H2R 7091   7.110   3.892   6.464  0.3262  0.6252  0.6416
   79SOPE   H2S 7092   6.972   4.002   6.444  1.1322 -0.6890 -1.4583
   79SOPE    C3 7093   6.621   3.869   6.739 -0.1489 -0.0095 -0.1788
   79SOPE    HX 7094   6.595   3.974   6.716 -1.6742 -0.6262 -1.3893
   79SOPE    HY 7095   6.590   3.839   6.842  1.9063 -0.5535  0.3392
   79SOPE   O31 7096   6.554   3.774   6.645  0.1503  0.3160 -0.0078
   79SOPE   C31 7097   6.431   3.810   6.597  0.4559  0.1158 -0.4982
   79SOPE   O32 7098   6.361   3.906   6.630 -0.3182  0.4252 -0.0793
   79SOPE   C32 7099   6.392   3.700   6.499 -0.0565 -0.9041  0.1782
   79SOPE   H2X 7100   6.317   3.748   6.433 -1.6983 -2.3712  0.8944
   79SOPE   H2Y 7101   6.335   3.620   6.551 -1.4202 -1.1156 -1.5787
   79SOPE   C23 7102   6.954   3.816   6.330 -0.2052 -0.6803  0.5717
   79SOPE   H3R 7103   6.845   3.825   6.310 -0.2580  1.5651  1.6550
   79SOPE   H3S 7104   6.987   3.709   6.331  1.6425 -0.2432 -2.1368
   79SOPE   C24 7105   7.024   3.875   6.211  0.3000  0.0117 -0.3042
   79SOPE   H4R 7106   7.013   3.984   6.193  0.1658  0.2648  1.1648
   79SOPE   H4S 7107   7.132   3.858   6.229  0.4764  0.4266 -0.9330
   79SOPE   C25 7108   6.981   3.792   6.088 -0.1522  0.1925 -0.3386
   79SOPE   H5R 7109   7.000   3.685   6.114 -2.1764  0.0308  0.6245
   79SOPE   H5S 7110   6.876   3.824   6.074  0.4146  2.0961 -0.5062
   79SOPE   C26 7111   7.060   3.839   5.965  0.5807 -0.2597 -0.1187
   79SOPE   H6R 7112   7.049   3.949   5.955  0.4539 -0.2630 -0.0052
   79SOPE   H6S 7113   7.170   3.819   5.968  0.5362 -0.7534 -1.1620
   79SOPE   C27 7114   7.009   3.777   5.837 -0.0043  0.7214 -0.7019
   79SOPE   H7R 7115   7.027   3.668   5.853 -1.2865  0.7611  1.3529
   79SOPE   H7S 7116   6.899   3.797   5.837 -0.1899  0.0840  2.4028
   79SOPE   C28 7117   7.081   3.827   5.705 -0.3149 -0.1115 -0.4150
   79SOPE   H8R 7118   7.069   3.937   5.712 -0.2155 -0.1485  0.4204
   79SOPE   H8S 7119   7.188   3.796   5.704 -0.4678 -0.6602  0.1402
   79SOPE   C29 7120   7.013   3.767   5.586  0.5705 -0.2181  0.6536
   79SOPE   H91 7121   6.914   3.807   5.558 -0.0663 -1.8679  0.4766
   79SOPE  C210 7122   7.051   3.667   5.511 -0.5370  0.0886  0.1184
   79SOPE  H101 7123   6.996   3.632   5.423 -0.6942  1.5477 -0.3867
   79SOPE  C211 7124   7.173   3.579   5.540 -0.6287 -0.1042 -0.6126
   79SOPE  H11R 7125   7.165   3.469   5.531 -1.7746 -0.2779  1.8252
   79SOPE  H11S 7126   7.224   3.599   5.637  1.5726  1.0332 -1.9150
   79SOPE  C212 7127   7.283   3.616   5.435 -0.3992 -0.1503 -0.1792
   79SOPE  H12R 7128   7.377   3.571   5.472 -0.6152  0.0889  0.6727
   79SOPE  H12S 7129   7.287   3.725   5.413 -0.6058 -0.0839  0.1037
   79SOPE  C213 7130   7.270   3.550   5.298 -0.0541 -0.3093  0.5442
   79SOPE  H13R 7131   7.181   3.589   5.243  0.6865  0.3646 -0.1898
   79SOPE  H13S 7132   7.247   3.441   5.308 -2.2564 -0.0615 -1.1793
   79SOPE  C214 7133   7.393   3.544   5.206 -0.1292 -0.0356 -0.4495
   79SOPE  H14R 7134   7.476   3.519   5.275  1.6197  1.0155 -2.0854
   79SOPE  H14S 7135   7.435   3.642   5.176  2.0620 -1.0618 -0.9198
   79SOPE  C215 7136   7.387   3.453   5.081  0.0624  0.0914  0.3007
   79SOPE  H15R 7137   7.292   3.481   5.032  0.4694 -3.0418 -2.7101
   79SOPE  H15S 7138   7.379   3.349   5.120 -1.0051  0.6858  1.7228
   79SOPE  C216 7139   7.515   3.478   4.994  0.0079 -0.0302 -0.0771
   79SOPE  H16R 7140   7.555   3.581   5.013  1.4943 -0.3474 -1.3259
   79SOPE  H16S 7141   7.492   3.479   4.886  1.4313 -2.3867 -0.4553
   79SOPE  C217 7142   7.628   3.378   5.017  0.5324 -0.1612  0.1062
   79SOPE  H17R 7143   7.579   3.282   4.991 -0.6294  1.0270 -2.4796
   79SOPE  H17S 7144   7.653   3.370   5.125  0.1847 -3.1819  0.0248
   79SOPE  C218 7145   7.747   3.422   4.931 -0.0251 -0.2540  0.0511
   79SOPE  H18R 7146   7.773   3.526   4.959  0.3602 -0.1991 -0.4850
   79SOPE  H18S 7147   7.706   3.401   4.830  2.4040  0.8001 -1.2389
   79SOPE  H18T 7148   7.834   3.359   4.961 -0.7882 -1.9704 -1.1297
   79SOPE   C33 7149   6.508   3.651   6.417  0.3725 -0.3419  0.1485
   79SOPE   H3X 7150   6.552   3.570   6.479  4.5670  2.9997  2.0336
   79SOPE   H3Y 7151   6.593   3.722   6.402  0.6774 -0.3024  1.8626
   79SOPE   C34 7152   6.474   3.597   6.272 -0.3664  0.1896  0.0765
   79SOPE   H4X 7153   6.413   3.672   6.219 -0.6882 -0.0139  0.1548
   79SOPE   H4Y 7154   6.414   3.503   6.271  0.3188 -0.3515  2.6877
   79SOPE   C35 7155   6.603   3.573   6.183 -0.2309 -0.7418  0.2538
   79SOPE   H5X 7156   6.659   3.484   6.218  0.8791  0.3421  1.3650
   79SOPE   H5Y 7157   6.668   3.658   6.214 -1.9817  0.5905  0.4727
   79SOPE   C36 7158   6.586   3.561   6.033  0.2152 -0.2294 -0.4907
   79SOPE   H6X 7159   6.529   3.653   6.007 -1.9092 -1.5110 -0.6485
   79SOPE   H6Y 7160   6.511   3.478   6.027 -0.2910  0.2940 -2.1067
   79SOPE   C37 7161   6.716   3.532   5.952 -0.0273  0.4866  0.1381
   79SOPE   H7X 7162   6.764   3.435   5.976  0.1839  1.0749  2.2871
   79SOPE   H7Y 7163   6.790   3.613   5.970 -0.0493  0.5772 -0.1745
   79SOPE   C38 7164   6.675   3.531   5.799  0.4547  0.6179 -0.1853
   79SOPE   H8X 7165   6.608   3.446   5.776  0.8292  0.6169 -1.3586
   79SOPE   H8Y 7166   6.765   3.506   5.739  1.8066 -0.7405  2.2311
   79SOPE   C39 7167   6.606   3.664   5.758 -0.0101 -0.4347 -0.3155
   79SOPE   H9X 7168   6.641   3.741   5.829 -0.7152 -0.9170  0.5865
   79SOPE   H9Y 7169   6.497   3.648   5.776 -0.0086  0.0418  0.1543
   79SOPE  C310 7170   6.621   3.716   5.609  0.3663 -0.2097  0.5057
   79SOPE  H10X 7171   6.728   3.740   5.589 -0.1045  0.4620 -1.3116
   79SOPE  H10Y 7172   6.552   3.803   5.603  0.1517 -0.1014  3.2773
   79SOPE  C311 7173   6.589   3.600   5.508  0.0150 -0.5664 -0.6133
   79SOPE  H11X 7174   6.480   3.583   5.505  0.1878 -2.8080  1.8461
   79SOPE  H11Y 7175   6.630   3.504   5.548 -1.6243  0.1780  3.2793
   79SOPE  C312 7176   6.656   3.627   5.367  0.3092 -0.6523  0.7151
   79SOPE  H12X 7177   6.629   3.539   5.306  0.4638 -0.8629  0.9449
   79SOPE  H12Y 7178   6.765   3.621   5.386  0.3934  0.8237  0.7894
   79SOPE  C313 7179   6.614   3.757   5.299 -0.1791  0.3855 -0.2821
   79SOPE  H13X 7180   6.635   3.846   5.363 -1.6363  0.1174  0.6256
   79SOPE  H13Y 7181   6.504   3.749   5.285 -0.2654  1.3260 -0.2240
   79SOPE  C314 7182   6.672   3.773   5.159 -0.0358  1.0945  0.6281
   79SOPE  H14X 7183   6.613   3.717   5.084 -0.5789  1.6508  0.6354
   79SOPE  H14Y 7184   6.775   3.732   5.157  0.2574  1.7591  1.2797
   79SOPE  C315 7185   6.668   3.921   5.119 -0.8316 -0.9056 -0.2030
   79SOPE  H15X 7186   6.747   3.983   5.167 -0.5014 -1.0599 -0.5465
   79SOPE  H15Y 7187   6.579   3.970   5.163  0.5923  0.2523  1.5509
   79SOPE  C316 7188   6.677   3.948   4.974 -0.4631  0.0251  0.2886
   79SOPE  H16X 7189   6.666   4.056   4.950  0.7689  0.6413  2.2914
   79SOPE  H16Y 7190   6.600   3.888   4.921  0.0031  0.6853 -1.2096
   79SOPE  C317 7191   6.811   3.890   4.911  0.2449 -0.4895  0.7880
   79SOPE  H17X 7192   6.843   3.789   4.945  0.7158 -0.6973 -0.2420
   79SOPE  H17Y 7193   6.879   3.970   4.949 -0.5496  0.9749 -0.7459
   79SOPE  C318 7194   6.812   3.902   4.755  0.1973 -0.4374 -0.0581
   79SOPE  H18X 7195   6.812   4.005   4.714  0.0269  0.3652  1.8437
   79SOPE  H18Y 7196   6.726   3.845   4.712  0.3079 -1.9675  1.6102
   79SOPE  H18Z 7197   6.904   3.858   4.711 -0.8507 -2.0737 -0.7370
   80SOPE     N 7198   4.180   4.675   7.145  0.5438 -0.6763 -0.4290
   80SOPE   HN1 7199   4.084   4.711   7.163 -0.6241 -4.4757  1.9587
   80SOPE   HN2 7200   4.206   4.627   7.233  0.1601  0.6261  0.4297
   80SOPE   HN3 7201   4.247   4.751   7.120  0.7867 -0.5237  0.6230
   80SOPE   C12 7202   4.139   4.596   7.022  0.1857 -0.3260 -0.5281
   80SOPE  H12A 7203   4.101   4.678   6.957 -2.7404  2.5542  4.1732
   80SOPE  H12B 7204   4.057   4.533   7.063  1.8889 -0.6444  2.6726
   80SOPE   C11 7205   4.241   4.504   6.950  0.6581  0.3252  0.3857
   80SOPE  H11A 7206   4.298   4.567   6.879 -2.1579  0.0744 -2.3087
   80SOPE  H11B 7207   4.173   4.433   6.897  1.1414  0.0054  0.1837
   80SOPE     P 7208   4.463   4.453   7.084 -0.0943  0.1459 -0.1674
   80SOPE   O13 7209   4.495   4.351   7.184  0.5614 -0.0599  0.7751
   80SOPE   O14 7210   4.479   4.598   7.113  0.3455  0.7304 -0.7246
   80SOPE   O12 7211   4.307   4.429   7.049 -0.0478  0.0596 -0.0544
   80SOPE   O11 7212   4.543   4.421   6.961 -0.4509 -0.3382 -0.4100
   80SOPE    C1 7213   4.509   4.314   6.868 -0.9338 -0.8336 -0.3927
   80SOPE    HA 7214   4.399   4.311   6.853 -0.9850 -1.5224  0.0823
   80SOPE    HB 7215   4.548   4.218   6.907  0.7324 -0.1988 -0.4223
   80SOPE    C2 7216   4.581   4.325   6.734 -0.1478  0.1802 -0.1448
   80SOPE    HS 7217   4.553   4.426   6.698  1.1345 -0.3059 -2.6908
   80SOPE   O21 7218   4.530   4.220   6.645  0.0801 -0.6438 -0.2202
   80SOPE   C21 7219   4.543   4.248   6.516  0.1870  0.7834  0.0894
   80SOPE   O22 7220   4.558   4.360   6.463 -0.2085 -0.1649 -0.2650
   80SOPE   C22 7221   4.543   4.113   6.442 -0.3151 -0.0807  1.0955
   80SOPE   H2R 7222   4.449   4.055   6.452  1.3055 -2.9963  0.4626
   80SOPE   H2S 7223   4.619   4.052   6.495  0.2798  0.3731  0.7796
   80SOPE    C3 7224   4.733   4.316   6.750 -0.1233 -0.6808  0.2903
   80SOPE    HX 7225   4.766   4.217   6.787 -0.9568 -0.8366  0.6477
   80SOPE    HY 7226   4.771   4.392   6.822 -0.3246 -0.7990  0.5203
   80SOPE   O31 7227   4.806   4.328   6.622  0.4612 -0.3183 -0.1382
   80SOPE   C31 7228   4.831   4.451   6.579  0.1924 -0.5430  0.8470
   80SOPE   O32 7229   4.815   4.554   6.647 -0.1860  0.1643 -0.6256
   80SOPE   C32 7230   4.894   4.451   6.435  0.6881 -0.4365 -0.0471
   80SOPE   H2X 7231   4.861   4.357   6.385  0.4236 -0.1132 -0.4911
   80SOPE   H2Y 7232   5.005   4.450   6.432  0.6955 -1.2942  0.2749
   80SOPE   C23 7233   4.585   4.122   6.295 -0.5896 -0.2071  0.2506
   80SOPE   H3R 7234   4.694   4.141   6.290 -0.8725  3.0510  2.8909
   80SOPE   H3S 7235   4.543   4.211   6.244  2.4664  0.4133 -1.3637
   80SOPE   C24 7236   4.563   3.987   6.221  0.1895 -0.4139  0.2897
   80SOPE   H4R 7237   4.630   3.911   6.266  0.1220 -0.8817 -0.3806
   80SOPE   H4S 7238   4.464   3.939   6.240  1.0825 -2.2696  0.5113
   80SOPE   C25 7239   4.604   3.999   6.069  0.3252 -0.2909 -0.3166
   80SOPE   H5R 7240   4.524   4.057   6.018  1.1382  0.9341 -0.2521
   80SOPE   H5S 7241   4.704   4.047   6.070  1.1218 -1.9056 -0.5166
   80SOPE   C26 7242   4.624   3.862   6.007  0.3408 -0.3680  0.1428
   80SOPE   H6R 7243   4.668   3.799   6.087 -0.2765  1.4500  1.9935
   80SOPE   H6S 7244   4.521   3.827   5.982  0.1410  0.0974  0.3111
   80SOPE   C27 7245   4.709   3.862   5.876 -0.1936 -0.1174 -0.3187
   80SOPE   H7R 7246   4.811   3.904   5.891  0.0014 -0.9554  0.8263
   80SOPE   H7S 7247   4.730   3.756   5.849 -1.4603 -0.7488  1.0105
   80SOPE   C28 7248   4.633   3.938   5.755  0.1756  0.6875 -0.1622
   80SOPE   H8R 7249   4.531   3.895   5.746  0.1984  0.2390  1.4407
   80SOPE   H8S 7250   4.633   4.048   5.767  0.5971  1.1638 -3.5428
   80SOPE   C29 7251   4.698   3.906   5.629 -0.0943 -0.2675  1.0127
   80SOPE   H91 7252   4.803   3.940   5.629  0.6081 -2.1083 -1.6986
   80SOPE  C210 7253   4.640   3.864   5.513  0.1456 -0.0602  0.5599
   80SOPE  H101 7254   4.700   3.848   5.422 -1.3672  1.1793 -0.7242
   80SOPE  C211 7255   4.499   3.819   5.498 -0.0925 -0.6894  0.4992
   80SOPE  H11R 7256   4.466   3.774   5.595 -2.1442  0.4794  0.3960
   80SOPE  H11S 7257   4.492   3.731   5.431  2.0956 -1.3834  1.0874
   80SOPE  C212 7258   4.393   3.927   5.460 -0.1925  0.1814 -0.3752
   80SOPE  H12R 7259   4.395   4.011   5.533 -0.0479  1.1917 -1.4976
   80SOPE  H12S 7260   4.288   3.892   5.464 -0.8194  2.0940  2.5619
   80SOPE  C213 7261   4.422   3.967   5.314 -0.2511 -0.1189 -0.8205
   80SOPE  H13R 7262   4.421   3.873   5.254 -2.6148 -1.9511  1.8228
   80SOPE  H13S 7263   4.527   4.003   5.319  0.6388 -2.7231  1.2017
   80SOPE  C214 7264   4.332   4.083   5.265 -0.1623 -0.5655 -0.6235
   80SOPE  H14R 7265   4.308   4.147   5.353 -1.4005 -1.8915  0.0383
   80SOPE  H14S 7266   4.236   4.041   5.230  0.5612 -2.5816 -0.3424
   80SOPE  C215 7267   4.391   4.166   5.152  0.0651  0.7038  1.1556
   80SOPE  H15R 7268   4.488   4.203   5.192  0.6962  0.8574 -0.4494
   80SOPE  H15S 7269   4.320   4.249   5.133 -0.8987 -0.0314  1.4589
   80SOPE  C216 7270   4.410   4.077   5.022 -0.0425 -0.0196 -0.0235
   80SOPE  H16R 7271   4.320   4.011   5.029  0.8865 -1.1983  1.5553
   80SOPE  H16S 7272   4.495   4.010   5.048  0.8224  0.8507 -0.5624
   80SOPE  C217 7273   4.424   4.134   4.888  0.4528 -0.2880  0.8831
   80SOPE  H17R 7274   4.527   4.166   4.864  0.0136  1.4420  1.1912
   80SOPE  H17S 7275   4.369   4.229   4.873 -1.2513 -1.4235 -0.4927
   80SOPE  C218 7276   4.382   4.031   4.784  0.1462 -0.4248 -0.2617
   80SOPE  H18R 7277   4.359   4.098   4.698  1.1406 -0.4558 -0.5631
   80SOPE  H18S 7278   4.295   3.981   4.832  0.7753 -0.3287  1.0351
   80SOPE  H18T 7279   4.469   3.965   4.764 -0.3901 -1.7552  1.5066
   80SOPE   C33 7280   4.844   4.573   6.358  0.3901  0.2107  0.4259
   80SOPE   H3X 7281   4.887   4.670   6.392  1.8171  0.2951 -1.4629
   80SOPE   H3Y 7282   4.734   4.572   6.367  0.3276 -1.0251 -0.3447
   80SOPE   C34 7283   4.889   4.579   6.219  0.4772  0.3540  0.8678
   80SOPE   H4X 7284   4.989   4.531   6.215  1.2520  1.9321 -2.4141
   80SOPE   H4Y 7285   4.899   4.682   6.178 -1.2009  0.4021  0.5139
   80SOPE   C35 7286   4.803   4.488   6.126  0.6867 -0.7646  0.1452
   80SOPE   H5X 7287   4.710   4.547   6.117 -1.2355 -2.3541  5.6106
   80SOPE   H5Y 7288   4.763   4.398   6.177 -2.0367 -0.9402 -2.0735
   80SOPE   C36 7289   4.865   4.466   5.991  0.4039 -0.0660 -0.2397
   80SOPE   H6X 7290   4.975   4.457   6.001  0.5324  1.0079 -0.5723
   80SOPE   H6Y 7291   4.846   4.543   5.914  2.0056 -0.6719 -1.2829
   80SOPE   C37 7292   4.803   4.339   5.919 -1.0219 -0.2832 -0.5670
   80SOPE   H7X 7293   4.692   4.350   5.924 -0.7981  1.7600  2.4188
   80SOPE   H7Y 7294   4.831   4.249   5.979 -0.6327  0.0774 -0.2071
   80SOPE   C38 7295   4.865   4.340   5.777 -0.2139 -0.3058  0.6644
   80SOPE   H8X 7296   4.974   4.324   5.790 -0.2575 -0.5459  0.7219
   80SOPE   H8Y 7297   4.857   4.435   5.719  2.1113 -0.6683 -0.3592
   80SOPE   C39 7298   4.825   4.233   5.680 -0.1358  0.3371 -0.0235
   80SOPE   H9X 7299   4.720   4.234   5.646  0.3805  0.7261 -1.7158
   80SOPE   H9Y 7300   4.839   4.138   5.736  2.1480  0.9526  0.5642
   80SOPE  C310 7301   4.919   4.209   5.560 -0.4557 -0.0430  0.2837
   80SOPE  H10X 7302   4.897   4.105   5.526 -2.4145 -0.0077  1.3088
   80SOPE  H10Y 7303   5.027   4.203   5.586  0.0326  2.4936 -0.8531
   80SOPE  C311 7304   4.913   4.310   5.438  0.4523 -1.2612 -0.1461
   80SOPE  H11X 7305   4.976   4.277   5.353 -2.1547  0.2058 -2.8065
   80SOPE  H11Y 7306   4.954   4.408   5.473 -1.8278 -0.1450 -0.4400
   80SOPE  C312 7307   4.765   4.331   5.382  0.1610 -0.0352  0.3779
   80SOPE  H12X 7308   4.691   4.363   5.458 -0.2343  1.0139 -0.4194
   80SOPE  H12Y 7309   4.729   4.230   5.353  0.7374 -0.6881  1.8437
   80SOPE  C313 7310   4.743   4.437   5.273 -0.1486 -0.2952 -0.0201
   80SOPE  H13X 7311   4.787   4.536   5.296 -0.5668  0.1327 -0.9995
   80SOPE  H13Y 7312   4.633   4.443   5.261 -0.0120 -0.2420 -1.4585
   80SOPE  C314 7313   4.788   4.389   5.133  0.0598  1.6712  0.6112
   80SOPE  H14X 7314   4.740   4.292   5.111  1.7162  0.1524  3.2108
   80SOPE  H14Y 7315   4.898   4.370   5.137 -0.2132 -1.8938 -3.0391
   80SOPE  C315 7316   4.768   4.487   5.011 -0.3082  0.4397 -0.2364
   80SOPE  H15X 7317   4.845   4.462   4.936  0.8200 -1.3776  1.4343
   80SOPE  H15Y 7318   4.785   4.586   5.057  2.3134 -0.7391  1.5715
   80SOPE  C316 7319   4.635   4.467   4.940  0.1174 -0.0310 -0.1008
   80SOPE  H16X 7320   4.558   4.524   4.996 -0.0641  1.1044 -1.4310
   80SOPE  H16Y 7321   4.608   4.360   4.935 -0.4531  0.1247 -0.4082
   80SOPE  C317 7322   4.632   4.521   4.789 -0.1744 -0.5160 -0.4345
   80SOPE  H17X 7323   4.535   4.508   4.736 -0.7001  1.4882 -0.0734
   80SOPE  H17Y 7324   4.722   4.473   4.745  0.6492  0.8125 -0.2492
   80SOPE  C318 7325   4.655   4.677   4.775  0.2608  0.0545 -0.0369
   80SOPE  H18X 7326   4.556   4.728   4.770 -1.0186 -2.3798 -1.0207
   80SOPE  H18Y 7327   4.697   4.697   4.674  0.6637  0.9572  0.2978
   80SOPE  H18Z 7328   4.718   4.724   4.853 -0.1950  1.8513 -0.6957
   81SOPE     N 7329   0.296   1.060   7.196  0.0229 -0.7439 -0.1068
   81SOPE   HN1 7330   0.338   1.094   7.108 -1.3617 -0.0841 -0.5310
   81SOPE   HN2 7331   0.268   1.136   7.261 -0.0117 -0.3760 -0.5484
   81SOPE   HN3 7332   0.375   1.007   7.240 -0.8669 -1.5791  0.5210
   81SOPE   C12 7333   0.186   0.964   7.190 -0.8546  0.2196 -0.2353
   81SOPE  H12A 7334   0.100   1.010   7.138 -0.5268  1.8345  0.6054
   81SOPE  H12B 7335   0.154   0.945   7.294 -0.8936  0.2657 -0.2394
   81SOPE   C11 7336   0.224   0.835   7.108 -0.1268 -0.1212  0.4843
   81SOPE  H11A 7337   0.251   0.869   7.006 -2.5522  0.8028  0.0677
   81SOPE  H11B 7338   0.130   0.775   7.101 -0.4886  0.0517  3.0163
   81SOPE     P 7339   0.281   0.634   7.276  0.1550  0.4663 -0.1920
   81SOPE   O13 7340   0.166   0.681   7.363 -0.6007  0.0491  0.1644
   81SOPE   O14 7341   0.404   0.572   7.335  0.0489 -0.1178  0.1190
   81SOPE   O12 7342   0.322   0.757   7.178 -0.1968 -0.3653  0.3085
   81SOPE   O11 7343   0.217   0.541   7.168 -0.0754 -0.0757 -0.7889
   81SOPE    C1 7344   0.294   0.458   7.084  0.2305  0.1948 -0.7483
   81SOPE    HA 7345   0.244   0.359   7.086  2.4563 -0.9946  0.7512
   81SOPE    HB 7346   0.395   0.428   7.118 -0.3389 -0.0800  0.7891
   81SOPE    C2 7347   0.308   0.499   6.936  0.2765  0.4168  0.5888
   81SOPE    HS 7348   0.353   0.600   6.946  0.1747  0.4434  0.7765
   81SOPE   O21 7349   0.180   0.485   6.876  0.0257  0.1682  0.4948
   81SOPE   C21 7350   0.149   0.593   6.800 -0.1884 -0.2562 -0.6288
   81SOPE   O22 7351   0.219   0.689   6.778  0.2267 -0.4764 -0.1133
   81SOPE   C22 7352   0.021   0.558   6.729  0.2397  0.0034 -0.0125
   81SOPE   H2R 7353  -0.068   0.575   6.793 -1.4642 -0.9007 -2.0218
   81SOPE   H2S 7354   0.013   0.449   6.709 -2.3777  0.5980 -3.1373
   81SOPE    C3 7355   0.416   0.410   6.863 -0.1355 -0.9701 -0.2685
   81SOPE    HX 7356   0.382   0.305   6.872  0.4044 -1.1159  0.1096
   81SOPE    HY 7357   0.508   0.433   6.921 -0.0584 -1.2709 -0.2734
   81SOPE   O31 7358   0.434   0.459   6.726 -0.0491 -0.7177 -0.6142
   81SOPE   C31 7359   0.520   0.385   6.651  0.2687 -0.0929  0.2026
   81SOPE   O32 7360   0.585   0.293   6.694 -0.1570 -0.5358 -0.5867
   81SOPE   C32 7361   0.501   0.416   6.500  0.7070  0.0545  0.7831
   81SOPE   H2X 7362   0.403   0.370   6.478  0.7204  0.3571  0.0350
   81SOPE   H2Y 7363   0.587   0.367   6.448 -0.2083 -1.2409  0.4683
   81SOPE   C23 7364  -0.006   0.647   6.607 -0.2552 -0.4799 -0.7596
   81SOPE   H3R 7365   0.012   0.755   6.625  1.1308 -0.5750 -1.3782
   81SOPE   H3S 7366  -0.114   0.641   6.583 -0.3482  1.8273 -1.1327
   81SOPE   C24 7367   0.081   0.599   6.489 -0.2982  0.1578  0.3844
   81SOPE   H4R 7368   0.184   0.629   6.516  0.6690 -2.3091 -0.2799
   81SOPE   H4S 7369   0.080   0.488   6.481 -1.6941  0.1393  0.5342
   81SOPE   C25 7370   0.037   0.660   6.362 -0.6125 -0.2413  0.1797
   81SOPE   H5R 7371  -0.069   0.641   6.335 -0.7301  2.9308 -2.1410
   81SOPE   H5S 7372   0.045   0.770   6.376 -1.5938 -0.2079  0.5695
   81SOPE   C26 7373   0.117   0.603   6.240  0.9694  0.2689 -0.4714
   81SOPE   H6R 7374   0.223   0.603   6.275  0.2032 -0.3307  2.0877
   81SOPE   H6S 7375   0.100   0.493   6.233 -2.8798  0.7095  0.1103
   81SOPE   C27 7376   0.076   0.644   6.100  0.0283  0.8884 -0.5569
   81SOPE   H7R 7377  -0.029   0.616   6.077  0.5166 -0.7664 -0.8828
   81SOPE   H7S 7378   0.087   0.754   6.089 -0.4644  1.2345  1.7878
   81SOPE   C28 7379   0.152   0.564   5.995 -0.0049 -0.6452 -0.7195
   81SOPE   H8R 7380   0.144   0.462   6.037 -2.1875  0.6986  2.5128
   81SOPE   H8S 7381   0.095   0.588   5.902  1.6557  2.0802 -1.1557
   81SOPE   C29 7382   0.297   0.621   5.977 -0.1894  0.1289  0.1360
   81SOPE   H91 7383   0.368   0.592   6.055  0.5590 -1.0175 -0.9401
   81SOPE  C210 7384   0.340   0.692   5.874 -0.6122  0.0008 -0.2251
   81SOPE  H101 7385   0.443   0.729   5.878  0.1692 -2.0014 -0.5935
   81SOPE  C211 7386   0.265   0.753   5.758 -0.0533  0.0738  0.0628
   81SOPE  H11R 7387   0.276   0.863   5.763 -0.4634  0.0636  1.3998
   81SOPE  H11S 7388   0.157   0.744   5.780  0.0432  3.2766  2.4617
   81SOPE  C212 7389   0.306   0.706   5.616 -0.4287 -0.3084 -0.9726
   81SOPE  H12R 7390   0.284   0.598   5.603 -2.8728  0.0866 -0.4896
   81SOPE  H12S 7391   0.417   0.705   5.603 -0.0062  1.6722  1.6036
   81SOPE  C213 7392   0.244   0.786   5.503  0.1337  0.4460  0.5700
   81SOPE  H13R 7393   0.252   0.895   5.525  2.2719  0.9300 -2.0880
   81SOPE  H13S 7394   0.134   0.779   5.511 -0.0755  1.2357 -1.0812
   81SOPE  C214 7395   0.304   0.748   5.372  1.0057  0.1242  0.6391
   81SOPE  H14R 7396   0.412   0.776   5.369  0.5594  1.8895 -1.2474
   81SOPE  H14S 7397   0.264   0.830   5.308 -1.4429 -1.0521  0.5729
   81SOPE  C215 7398   0.288   0.602   5.326  0.1281 -0.4498  0.3077
   81SOPE  H15R 7399   0.324   0.523   5.396 -0.8725 -0.9266  0.3016
   81SOPE  H15S 7400   0.353   0.585   5.237  0.5383  2.6088 -0.0839
   81SOPE  C216 7401   0.138   0.571   5.285  0.6490 -0.5954 -0.1490
   81SOPE  H16R 7402   0.123   0.637   5.197  2.0508  0.3247  0.2629
   81SOPE  H16S 7403   0.079   0.617   5.367  0.8464 -1.3890  0.4397
   81SOPE  C217 7404   0.096   0.428   5.237  0.1252 -0.0977 -0.7912
   81SOPE  H17R 7405   0.062   0.366   5.323  0.5453  0.3038 -0.3263
   81SOPE  H17S 7406   0.191   0.393   5.191  0.6593 -0.4630  0.5183
   81SOPE  C218 7407  -0.017   0.421   5.134 -0.3130  0.3889  0.2029
   81SOPE  H18R 7408  -0.094   0.493   5.168 -0.7138 -0.6722  1.6559
   81SOPE  H18S 7409  -0.051   0.316   5.120 -1.5786  0.8634 -0.3592
   81SOPE  H18T 7410   0.027   0.464   5.042 -1.3488  0.6289 -0.1891
   81SOPE   C33 7411   0.496   0.568   6.467 -0.2785 -0.7149 -0.7894
   81SOPE   H3X 7412   0.592   0.607   6.507 -0.8923  1.5274 -1.3756
   81SOPE   H3Y 7413   0.412   0.616   6.522  0.4173  0.1901 -0.5009
   81SOPE   C34 7414   0.503   0.599   6.321 -0.4698 -0.6720 -0.5086
   81SOPE   H4X 7415   0.475   0.705   6.301 -0.3774 -0.4051  0.7410
   81SOPE   H4Y 7416   0.428   0.533   6.272  0.1887  0.7296 -3.6693
   81SOPE   C35 7417   0.644   0.575   6.260  0.9910 -0.0487  0.4930
   81SOPE   H5X 7418   0.679   0.475   6.294  0.2240  0.1421  1.9471
   81SOPE   H5Y 7419   0.718   0.644   6.308  1.0812 -0.4415  0.9289
   81SOPE   C36 7420   0.649   0.587   6.109 -0.2268 -0.6589 -0.1123
   81SOPE   H6X 7421   0.591   0.676   6.076  2.7397  1.1388 -0.9353
   81SOPE   H6Y 7422   0.605   0.497   6.063 -1.8348  0.2024 -0.3237
   81SOPE   C37 7423   0.784   0.583   6.043  0.1298  0.2669  0.2864
   81SOPE   H7X 7424   0.838   0.486   6.050 -1.7548 -0.7634  1.2802
   81SOPE   H7Y 7425   0.840   0.664   6.096 -1.1112  0.9381  0.5983
   81SOPE   C38 7426   0.775   0.609   5.892  0.4215 -0.2555  0.2094
   81SOPE   H8X 7427   0.875   0.633   5.851  0.4227  1.2520  0.9988
   81SOPE   H8Y 7428   0.714   0.702   5.881 -0.2885 -0.7460 -0.0292
   81SOPE   C39 7429   0.714   0.495   5.806 -0.1831 -0.5921  0.6359
   81SOPE   H9X 7430   0.612   0.473   5.843 -1.2301 -2.4911 -2.9012
   81SOPE   H9Y 7431   0.775   0.403   5.818 -0.0261 -0.6953 -0.7314
   81SOPE  C310 7432   0.705   0.538   5.656  0.4674  0.5240 -0.2576
   81SOPE  H10X 7433   0.809   0.535   5.615  0.4846 -2.3182 -0.2448
   81SOPE  H10Y 7434   0.676   0.645   5.652 -2.5271 -0.1533  0.7150
   81SOPE  C311 7435   0.599   0.446   5.590  0.0669  0.3358 -0.3036
   81SOPE  H11X 7436   0.495   0.459   5.628 -1.2364 -0.8511 -3.1793
   81SOPE  H11Y 7437   0.629   0.341   5.612  0.2700  0.5630  0.5481
   81SOPE  C312 7438   0.584   0.468   5.443  0.6558  0.1851  0.6205
   81SOPE  H12X 7439   0.561   0.574   5.421 -1.2662 -0.3165 -0.0407
   81SOPE  H12Y 7440   0.492   0.415   5.408  0.0143  1.0458  0.9583
   81SOPE  C313 7441   0.717   0.434   5.371  0.2371 -0.5097  0.3771
   81SOPE  H13X 7442   0.741   0.325   5.373 -0.8979 -0.7656  0.6914
   81SOPE  H13Y 7443   0.799   0.478   5.431  0.7151 -3.0041  1.6969
   81SOPE  C314 7444   0.732   0.476   5.222 -0.3106 -0.4347  0.0878
   81SOPE  H14X 7445   0.834   0.455   5.184 -0.2505 -0.1262  0.0723
   81SOPE  H14Y 7446   0.723   0.587   5.223 -0.6348 -0.4418  1.9077
   81SOPE  C315 7447   0.607   0.430   5.143 -0.3440 -0.4350  0.0340
   81SOPE  H15X 7448   0.516   0.463   5.197  0.4717  1.7748  0.1384
   81SOPE  H15Y 7449   0.600   0.319   5.136  0.1341 -0.4479 -0.2653
   81SOPE  C316 7450   0.586   0.495   5.006 -0.1490 -0.0950 -0.3359
   81SOPE  H16X 7451   0.673   0.458   4.947  1.5837  0.8360  1.4978
   81SOPE  H16Y 7452   0.605   0.604   5.020  3.3161 -0.3779 -1.8221
   81SOPE  C317 7453   0.450   0.463   4.934  0.5464 -0.2640  0.7978
   81SOPE  H17X 7454   0.377   0.518   4.998 -0.1856 -0.5763  0.2402
   81SOPE  H17Y 7455   0.425   0.355   4.944  0.4645 -0.3945 -0.6735
   81SOPE  C318 7456   0.441   0.523   4.797  0.0495 -0.1088  0.6067
   81SOPE  H18X 7457   0.508   0.469   4.727 -0.4495 -0.9930  0.7885
   81SOPE  H18Y 7458   0.471   0.630   4.796  0.0582 -0.0620  2.4863
   81SOPE  H18Z 7459   0.339   0.500   4.760  0.2931 -3.2604  1.5819
   82SOPE     N 7460   1.671   3.637   6.867 -0.0547  0.3844  0.0486
   82SOPE   HN1 7461   1.675   3.540   6.902  0.3286 -0.3295 -1.8224
   82SOPE   HN2 7462   1.572   3.666   6.855  0.4078  1.4338 -1.7754
   82SOPE   HN3 7463   1.708   3.645   6.770 -0.5579 -1.3298 -0.3141
   82SOPE   C12 7464   1.757   3.716   6.959  0.0041 -0.3464  0.0438
   82SOPE  H12A 7465   1.725   3.823   6.959 -0.8663 -0.5743 -2.0118
   82SOPE  H12B 7466   1.864   3.712   6.931 -0.1053 -1.2538 -0.2529
   82SOPE   C11 7467   1.750   3.677   7.108  0.4637 -0.7553 -0.0709
   82SOPE  H11A 7468   1.655   3.713   7.154 -0.0296 -2.4235  0.2804
   82SOPE  H11B 7469   1.832   3.740   7.148  0.2984  2.4816 -4.1561
   82SOPE     P 7470   1.902   3.479   7.179 -0.0741 -0.4821  0.0461
   82SOPE   O13 7471   1.867   3.344   7.219  0.1043 -0.6033 -0.0363
   82SOPE   O14 7472   1.959   3.571   7.277 -0.7207  0.4431 -0.2283
   82SOPE   O12 7473   1.757   3.537   7.128 -0.0159  0.0774  0.2852
   82SOPE   O11 7474   1.989   3.481   7.038 -0.3928  0.5495  0.2862
   82SOPE    C1 7475   1.948   3.392   6.936  0.0060  0.8407  0.3610
   82SOPE    HA 7476   1.843   3.405   6.904  0.2319  2.3368  0.1731
   82SOPE    HB 7477   1.970   3.287   6.969 -0.2560  0.7667  0.2973
   82SOPE    C2 7478   2.034   3.414   6.809 -0.5814 -0.0892 -0.0837
   82SOPE    HS 7479   2.143   3.416   6.831 -0.6071  0.8878  0.0281
   82SOPE   O21 7480   1.994   3.535   6.739 -0.8042 -0.6039 -0.4808
   82SOPE   C21 7481   2.091   3.627   6.726  0.0290 -0.7825 -0.6863
   82SOPE   O22 7482   2.191   3.640   6.795  0.2860 -0.0295 -0.2511
   82SOPE   C22 7483   2.069   3.720   6.603 -0.6231 -0.0134  0.3078
   82SOPE   H2R 7484   2.049   3.824   6.635 -1.0318 -0.3089  1.0265
   82SOPE   H2S 7485   1.982   3.680   6.545 -1.5016 -0.5915  1.9616
   82SOPE    C3 7486   2.010   3.305   6.703 -0.5913  0.1694  0.3928
   82SOPE    HX 7487   1.902   3.294   6.679 -0.1068 -3.6470 -0.7177
   82SOPE    HY 7488   2.028   3.216   6.767 -0.7540 -1.5854 -1.8768
   82SOPE   O31 7489   2.092   3.301   6.578 -0.2621 -0.3176 -0.6973
   82SOPE   C31 7490   2.211   3.239   6.591 -0.4401 -0.0347  0.1039
   82SOPE   O32 7491   2.250   3.171   6.687  0.3319 -0.6892  0.2510
   82SOPE   C32 7492   2.304   3.295   6.482  0.4961 -0.6563  0.0326
   82SOPE   H2X 7493   2.391   3.229   6.462  1.2894  0.2067  0.5826
   82SOPE   H2Y 7494   2.329   3.402   6.496  0.8915 -0.2029 -3.2193
   82SOPE   C23 7495   2.203   3.720   6.517  0.6023  0.1346 -0.2436
   82SOPE   H3R 7496   2.220   3.616   6.483 -1.0575 -0.4266  0.5174
   82SOPE   H3S 7497   2.288   3.754   6.580  0.4941 -1.2283  0.6754
   82SOPE   C24 7498   2.192   3.809   6.397 -0.3479 -0.5097  1.0105
   82SOPE   H4R 7499   2.144   3.904   6.428  0.0421 -0.4977  1.5819
   82SOPE   H4S 7500   2.289   3.841   6.352 -0.8131  0.6399  0.7734
   82SOPE   C25 7501   2.104   3.740   6.284 -0.6431  0.7507  0.4288
   82SOPE   H5R 7502   2.154   3.643   6.264  0.3041  1.3795 -0.3800
   82SOPE   H5S 7503   2.009   3.707   6.331  0.2976 -0.4956  1.4991
   82SOPE   C26 7504   2.090   3.815   6.151  0.4610  0.7229 -0.0361
   82SOPE   H6R 7505   2.026   3.905   6.160  0.7191  0.9722 -0.6513
   82SOPE   H6S 7506   2.194   3.846   6.130  0.5030  0.0878 -0.7977
   82SOPE   C27 7507   2.032   3.722   6.039 -0.0964 -0.3298 -0.4374
   82SOPE   H7R 7508   2.103   3.644   6.003  1.6418  0.0145  1.9617
   82SOPE   H7S 7509   1.939   3.683   6.086 -0.5180  0.9030 -0.2089
   82SOPE   C28 7510   1.999   3.794   5.909 -0.4255  0.1268 -0.2450
   82SOPE   H8R 7511   1.951   3.890   5.939 -1.7346 -0.5586 -0.0722
   82SOPE   H8S 7512   2.100   3.819   5.869 -0.8762 -0.6417 -2.0018
   82SOPE   C29 7513   1.921   3.710   5.813  0.2981  0.4436  0.5001
   82SOPE   H91 7514   1.815   3.700   5.840  0.2331 -0.7587 -0.1094
   82SOPE  C210 7515   1.974   3.627   5.720  0.3792  0.1541  0.2690
   82SOPE  H101 7516   1.907   3.574   5.651  1.5599 -0.9057 -0.0919
   82SOPE  C211 7517   2.123   3.588   5.709  0.2057 -0.8691  0.5318
   82SOPE  H11R 7518   2.134   3.478   5.719 -0.2821 -1.0550 -0.8012
   82SOPE  H11S 7519   2.179   3.634   5.794 -2.5869 -1.9038  3.1203
   82SOPE  C212 7520   2.183   3.631   5.574  0.6404  0.0099  0.3801
   82SOPE  H12R 7521   2.292   3.607   5.566  0.6445 -0.0476  0.6048
   82SOPE  H12S 7522   2.158   3.738   5.559 -0.5857 -0.2783  0.2962
   82SOPE  C213 7523   2.126   3.555   5.453  0.2861 -0.2478  0.5077
   82SOPE  H13R 7524   2.016   3.569   5.447  0.2065 -1.1948 -0.4842
   82SOPE  H13S 7525   2.149   3.447   5.462  1.9856 -0.2257 -2.1885
   82SOPE  C214 7526   2.187   3.597   5.319 -0.0786 -0.3681  0.1900
   82SOPE  H14R 7527   2.297   3.599   5.333  0.3223 -1.7205 -2.2905
   82SOPE  H14S 7528   2.161   3.700   5.288 -0.1814 -0.1777  0.8761
   82SOPE  C215 7529   2.143   3.523   5.192  0.5158  0.1783 -0.3491
   82SOPE  H15R 7530   2.035   3.498   5.195  0.6462 -0.3197  1.0000
   82SOPE  H15S 7531   2.192   3.423   5.189  0.1821  0.0317 -2.3045
   82SOPE  C216 7532   2.164   3.604   5.064  0.0686 -0.0554  0.0019
   82SOPE  H16R 7533   2.267   3.647   5.072  0.3982 -0.9028  0.4117
   82SOPE  H16S 7534   2.097   3.693   5.059 -0.1118 -0.2489 -1.9064
   82SOPE  C217 7535   2.157   3.532   4.925  0.1028  0.1515  0.2544
   82SOPE  H17R 7536   2.050   3.507   4.909  0.2026  0.3650 -0.7588
   82SOPE  H17S 7537   2.209   3.434   4.924  0.2281  0.2098  0.7656
   82SOPE  C218 7538   2.194   3.633   4.816 -0.1574  0.1417  0.7087
   82SOPE  H18R 7539   2.137   3.728   4.819  0.0536  0.2441  1.6324
   82SOPE  H18S 7540   2.164   3.583   4.721 -0.8680 -1.2687  1.6365
   82SOPE  H18T 7541   2.301   3.664   4.818  0.0331 -0.4572  0.3471
   82SOPE   C33 7542   2.230   3.300   6.346 -0.0026 -0.4545  0.1099
   82SOPE   H3X 7543   2.295   3.350   6.271 -1.9552  0.6331 -0.9461
   82SOPE   H3Y 7544   2.131   3.351   6.340  0.7415  1.0855  0.5251
   82SOPE   C34 7545   2.198   3.151   6.302 -0.2535 -0.1691 -0.3097
   82SOPE   H4X 7546   2.106   3.115   6.352 -0.4656 -0.3165 -0.8076
   82SOPE   H4Y 7547   2.296   3.103   6.326 -0.1298  0.3653  0.2971
   82SOPE   C35 7548   2.181   3.139   6.147 -0.2570 -0.4127  0.2173
   82SOPE   H5X 7549   2.161   3.032   6.127 -0.8378 -0.2257 -0.1995
   82SOPE   H5Y 7550   2.284   3.162   6.112  0.8422  2.9349  4.6211
   82SOPE   C36 7551   2.075   3.228   6.084 -0.5054  0.2297 -0.1464
   82SOPE   H6X 7552   2.100   3.330   6.121 -0.2210 -0.9438  3.2829
   82SOPE   H6Y 7553   1.978   3.196   6.128  0.4735 -1.5338  0.8534
   82SOPE   C37 7554   2.067   3.209   5.933 -0.5907 -0.3231  0.1402
   82SOPE   H7X 7555   1.980   3.274   5.911 -0.2194  0.4796  0.9602
   82SOPE   H7Y 7556   2.041   3.101   5.935  2.0197 -1.0238  2.1785
   82SOPE   C38 7557   2.198   3.227   5.853 -0.2472  0.3213 -0.4559
   82SOPE   H8X 7558   2.263   3.141   5.878 -2.5344 -2.0407 -2.1268
   82SOPE   H8Y 7559   2.254   3.320   5.879  1.1755 -0.9721  1.3310
   82SOPE   C39 7560   2.196   3.209   5.698 -0.1573 -0.5520  0.2555
   82SOPE   H9X 7561   2.301   3.228   5.664  0.0899 -0.6293  0.9458
   82SOPE   H9Y 7562   2.139   3.292   5.652 -0.9477 -1.8435 -1.1643
   82SOPE  C310 7563   2.149   3.077   5.649  0.7057  0.2606  0.0043
   82SOPE  H10X 7564   2.054   3.049   5.701  1.0338  0.9150  0.9905
   82SOPE  H10Y 7565   2.219   2.995   5.677  0.8959 -0.1857 -1.6700
   82SOPE  C311 7566   2.146   3.076   5.490  0.2179 -0.1879 -0.0444
   82SOPE  H11X 7567   2.078   3.152   5.445 -0.1654 -0.8031 -0.5382
   82SOPE  H11Y 7568   2.112   2.973   5.464  1.5861 -0.9091  0.9193
   82SOPE  C312 7569   2.278   3.095   5.411  0.7609  0.6514  0.8273
   82SOPE  H12X 7570   2.357   3.038   5.465  0.9047  1.1317  1.1270
   82SOPE  H12Y 7571   2.302   3.203   5.399 -0.2094  0.8289  0.3566
   82SOPE  C313 7572   2.268   3.035   5.271  0.0956  0.0484  0.8098
   82SOPE  H13X 7573   2.265   2.925   5.257 -1.5281  0.3059 -1.8086
   82SOPE  H13Y 7574   2.354   3.073   5.213  1.1347 -0.1984  2.1546
   82SOPE  C314 7575   2.146   3.071   5.186 -0.5014 -0.1564 -0.3735
   82SOPE  H14X 7576   2.110   3.170   5.220 -0.8674 -1.0220  1.9878
   82SOPE  H14Y 7577   2.070   2.996   5.216 -0.4402 -1.0341 -2.2954
   82SOPE  C315 7578   2.164   3.050   5.040  0.0742 -0.3490  0.9395
   82SOPE  H15X 7579   2.167   2.940   5.021  1.5296 -0.2418  0.3872
   82SOPE  H15Y 7580   2.258   3.102   5.012  0.5128 -1.4659  0.2642
   82SOPE  C316 7581   2.049   3.113   4.948  0.5046  0.4676 -0.2952
   82SOPE  H16X 7582   2.078   3.105   4.842 -0.1328 -3.2451 -0.3169
   82SOPE  H16Y 7583   2.034   3.220   4.973  1.2170  0.7900 -1.2054
   82SOPE  C317 7584   1.918   3.040   4.971  0.6531  0.1966  0.9247
   82SOPE  H17X 7585   1.843   3.107   4.925 -0.8387 -2.6387 -0.9966
   82SOPE  H17Y 7586   1.887   3.029   5.078 -0.8872  1.5040  0.6504
   82SOPE  C318 7587   1.918   2.907   4.902 -0.1501 -0.1830 -0.2901
   82SOPE  H18X 7588   1.954   2.924   4.798 -1.9437  4.2383 -0.3668
   82SOPE  H18Y 7589   1.816   2.864   4.900 -0.0956 -0.3011 -0.6570
   82SOPE  H18Z 7590   1.988   2.838   4.955 -0.6843 -0.3906  0.1464
   83SOPE     N 7591   2.189   6.351   2.317  0.4078  0.3644  0.1448
   83SOPE   HN1 7592   2.150   6.263   2.276 -0.4943  0.6345  0.3891
   83SOPE   HN2 7593   2.107   6.415   2.322 -0.4099 -0.6990  1.1934
   83SOPE   HN3 7594   2.258   6.385   2.248 -0.0222 -0.5844 -0.7834
   83SOPE   C12 7595   2.231   6.338   2.460  0.6446  0.7977  0.3613
   83SOPE  H12A 7596   2.247   6.441   2.500 -2.3178  1.1160  0.9567
   83SOPE  H12B 7597   2.330   6.290   2.474  1.4582  2.8984  2.6858
   83SOPE   C11 7598   2.121   6.264   2.551 -1.1054  0.3419  0.6733
   83SOPE  H11A 7599   2.153   6.253   2.657  2.0081 -1.9028 -0.3765
   83SOPE  H11B 7600   2.110   6.161   2.512 -0.4013 -0.0157  1.3820
   83SOPE     P 7601   1.952   6.455   2.650 -0.1186 -0.1653 -0.6497
   83SOPE   O13 7602   1.815   6.486   2.623 -0.1072 -0.2492 -0.5375
   83SOPE   O14 7603   2.047   6.570   2.664 -0.3883 -0.4553 -1.0267
   83SOPE   O12 7604   2.004   6.345   2.539 -0.3590 -0.3429 -0.2511
   83SOPE   O11 7605   1.956   6.374   2.790 -0.7110 -0.2822 -0.1387
   83SOPE    C1 7606   1.874   6.256   2.802 -0.3643  0.2944  0.4410
   83SOPE    HA 7607   1.923   6.186   2.874  3.5709  2.8390  0.5316
   83SOPE    HB 7608   1.860   6.201   2.707 -2.6266  1.3881  0.0870
   83SOPE    C2 7609   1.741   6.276   2.875  0.5736  0.6172 -0.0712
   83SOPE    HS 7610   1.677   6.355   2.830 -0.4145  1.1204  2.1098
   83SOPE   O21 7611   1.772   6.306   3.008  0.0175 -0.5148 -0.5450
   83SOPE   C21 7612   1.689   6.379   3.079 -0.2604  0.9704 -0.3716
   83SOPE   O22 7613   1.582   6.425   3.050  0.0872  0.1290 -0.1478
   83SOPE   C22 7614   1.745   6.392   3.215 -0.0074 -0.1130  0.0240
   83SOPE   H2R 7615   1.847   6.436   3.205 -0.1269 -0.2304 -2.2786
   83SOPE   H2S 7616   1.768   6.291   3.255 -0.8502 -0.7023 -0.9249
   83SOPE    C3 7617   1.653   6.141   2.872  0.5116 -0.0981 -0.7212
   83SOPE    HX 7618   1.718   6.078   2.937  0.5006  0.5857 -0.0368
   83SOPE    HY 7619   1.651   6.095   2.771  0.4987  1.2226 -1.3387
   83SOPE   O31 7620   1.519   6.158   2.930  0.3626  0.0346  0.1792
   83SOPE   C31 7621   1.430   6.233   2.870 -0.1650 -0.0966 -0.3264
   83SOPE   O32 7622   1.446   6.297   2.768 -0.4619  0.0990 -0.7585
   83SOPE   C32 7623   1.294   6.236   2.945  0.2465  0.3855 -0.8622
   83SOPE   H2X 7624   1.317   6.294   3.036  4.5487 -0.4909 -1.1884
   83SOPE   H2Y 7625   1.269   6.135   2.983  0.9573  0.3764 -0.4097
   83SOPE   C23 7626   1.677   6.494   3.310  0.1675 -0.2488 -0.8611
   83SOPE   H3R 7627   1.566   6.494   3.316  0.1237  2.1850 -0.9245
   83SOPE   H3S 7628   1.702   6.598   3.284 -1.9305  0.2014 -1.2437
   83SOPE   C24 7629   1.729   6.486   3.455 -0.4077  0.2158  0.3023
   83SOPE   H4R 7630   1.682   6.403   3.512 -0.4866 -0.1697 -0.3085
   83SOPE   H4S 7631   1.836   6.459   3.447 -1.0421 -2.7226  0.6232
   83SOPE   C25 7632   1.724   6.613   3.530  0.0644 -0.5326 -0.6177
   83SOPE   H5R 7633   1.778   6.692   3.474  0.2484  0.3119  0.7023
   83SOPE   H5S 7634   1.623   6.657   3.543 -0.0408 -0.9065 -0.1381
   83SOPE   C26 7635   1.788   6.612   3.669  0.3219  0.1941  0.4499
   83SOPE   H6R 7636   1.745   6.529   3.730  0.2332 -0.0635  0.0377
   83SOPE   H6S 7637   1.899   6.601   3.671  0.3518  0.5188  1.3430
   83SOPE   C27 7638   1.762   6.746   3.739  0.0249  0.5485 -0.0384
   83SOPE   H7R 7639   1.800   6.826   3.673 -2.4917 -0.2971 -2.7053
   83SOPE   H7S 7640   1.652   6.760   3.736 -0.2287 -1.0455  0.6623
   83SOPE   C28 7641   1.827   6.755   3.884  0.1683 -0.0813  0.1051
   83SOPE   H8R 7642   1.935   6.771   3.862  0.0309  2.4820  0.9377
   83SOPE   H8S 7643   1.789   6.849   3.930 -0.3747 -0.5788  0.6838
   83SOPE   C29 7644   1.798   6.637   3.968  0.3815 -0.4518  0.1950
   83SOPE   H91 7645   1.822   6.540   3.923  3.5691  0.0608  0.5738
   83SOPE  C210 7646   1.773   6.647   4.104  0.0514  0.1238  0.6881
   83SOPE  H101 7647   1.744   6.553   4.154  0.9128  0.1432  1.2545
   83SOPE  C211 7648   1.769   6.770   4.190  0.1125  0.1558  0.4202
   83SOPE  H11R 7649   1.793   6.869   4.145  0.5776  0.0809  0.4979
   83SOPE  H11S 7650   1.862   6.766   4.251  0.1690 -0.7830  0.2768
   83SOPE  C212 7651   1.651   6.775   4.289 -0.5145 -0.4077 -0.0274
   83SOPE  H12R 7652   1.673   6.687   4.353  2.2980 -0.5811 -1.0878
   83SOPE  H12S 7653   1.553   6.752   4.240 -0.6326  0.6047 -0.2927
   83SOPE  C213 7654   1.660   6.903   4.373  0.3425 -0.0403 -0.5459
   83SOPE  H13R 7655   1.622   6.985   4.310  0.9902 -0.8036 -1.9706
   83SOPE  H13S 7656   1.768   6.916   4.398  0.6359 -3.7262  0.7348
   83SOPE  C214 7657   1.584   6.885   4.500 -0.3007 -0.7747 -0.4472
   83SOPE  H14R 7658   1.641   6.813   4.563  0.7344 -0.3956 -0.9314
   83SOPE  H14S 7659   1.490   6.830   4.478  0.0856 -1.9508  0.7031
   83SOPE  C215 7660   1.560   7.017   4.577  0.0254 -0.1816  0.3243
   83SOPE  H15R 7661   1.660   7.060   4.598  0.2721 -0.4944 -0.1803
   83SOPE  H15S 7662   1.523   6.985   4.677  1.2875  1.6950  1.4584
   83SOPE  C216 7663   1.471   7.119   4.517  0.0085 -0.4545 -0.8488
   83SOPE  H16R 7664   1.381   7.063   4.481 -1.2597 -1.2940  3.1378
   83SOPE  H16S 7665   1.530   7.173   4.440  0.3472  3.3136  1.8466
   83SOPE  C217 7666   1.420   7.220   4.623 -0.5881  0.9241 -0.5027
   83SOPE  H17R 7667   1.407   7.159   4.715 -1.8888  1.7145 -0.1397
   83SOPE  H17S 7668   1.320   7.258   4.593 -1.0685 -0.5246 -0.8404
   83SOPE  C218 7669   1.522   7.336   4.642 -0.3868  0.1801 -0.4704
   83SOPE  H18R 7670   1.476   7.424   4.692  0.0807 -0.7195  1.6784
   83SOPE  H18S 7671   1.581   7.366   4.552 -1.5301 -0.6645 -1.5192
   83SOPE  H18T 7672   1.597   7.321   4.723 -1.5218  1.6967  0.9242
   83SOPE   C33 7673   1.186   6.314   2.870 -0.1481  0.0371  0.3782
   83SOPE   H3X 7674   1.128   6.244   2.805 -1.1073  0.7931  0.3895
   83SOPE   H3Y 7675   1.229   6.399   2.812 -0.2000  0.8479  1.4935
   83SOPE   C34 7676   1.081   6.384   2.959 -0.3027  0.9868 -0.1301
   83SOPE   H4X 7677   1.049   6.306   3.032  0.6061 -0.0796 -0.8514
   83SOPE   H4Y 7678   0.989   6.410   2.903  0.8676  1.9346 -1.6799
   83SOPE   C35 7679   1.132   6.502   3.033  0.6334 -0.0569  0.2735
   83SOPE   H5X 7680   1.141   6.587   2.962 -3.2242  2.4161  2.4212
   83SOPE   H5Y 7681   1.237   6.491   3.069  0.1317 -3.1674  1.0469
   83SOPE   C36 7682   1.041   6.571   3.133 -0.0618 -0.4680 -0.2432
   83SOPE   H6X 7683   0.940   6.581   3.087  0.3374  2.1620 -0.7011
   83SOPE   H6Y 7684   1.079   6.674   3.152 -2.1634  0.3028  0.0812
   83SOPE   C37 7685   1.033   6.501   3.264 -0.7128 -0.0944  0.5258
   83SOPE   H7X 7686   1.138   6.471   3.286 -0.6625 -0.4023 -0.1121
   83SOPE   H7Y 7687   0.976   6.407   3.248  0.7612 -0.7639 -1.2661
   83SOPE   C38 7688   0.971   6.590   3.369  0.2920  0.1290 -0.2686
   83SOPE   H8X 7689   0.867   6.621   3.347 -0.2223 -1.0403  0.4282
   83SOPE   H8Y 7690   1.031   6.684   3.370  1.6915 -0.5314 -4.3688
   83SOPE   C39 7691   0.980   6.525   3.507 -0.7994  0.1685  0.6541
   83SOPE   H9X 7692   1.089   6.504   3.513 -0.7103  0.8615  1.8145
   83SOPE   H9Y 7693   0.943   6.421   3.516  0.3095 -0.2855  0.1668
   83SOPE  C310 7694   0.938   6.613   3.622 -0.5288  0.6182 -0.4410
   83SOPE  H10X 7695   0.831   6.636   3.608 -0.6466 -0.3262 -1.2466
   83SOPE  H10Y 7696   0.992   6.710   3.623  2.4978 -0.8971  1.9339
   83SOPE  C311 7697   0.962   6.555   3.762  0.1780 -0.1458  0.5614
   83SOPE  H11X 7698   1.066   6.517   3.772 -0.6179 -2.6269  0.2114
   83SOPE  H11Y 7699   0.888   6.473   3.769  1.2974 -1.4219 -1.6983
   83SOPE  C312 7700   0.928   6.668   3.867 -0.4608 -0.0573 -0.2917
   83SOPE  H12X 7701   0.829   6.714   3.846 -0.9419 -0.7759  0.3733
   83SOPE  H12Y 7702   1.007   6.745   3.851 -0.5483  0.0328 -0.2911
   83SOPE  C313 7703   0.934   6.620   4.012  0.0167  0.2618 -0.2892
   83SOPE  H13X 7704   0.942   6.714   4.070 -0.8168  1.3208 -1.8358
   83SOPE  H13Y 7705   1.020   6.555   4.037 -0.7681 -1.8471 -2.6677
   83SOPE  C314 7706   0.810   6.544   4.062 -0.3837 -0.3391 -0.9076
   83SOPE  H14X 7707   0.779   6.472   3.984 -2.1124 -0.3819 -0.2397
   83SOPE  H14Y 7708   0.723   6.613   4.071 -0.9893 -1.3318  1.7822
   83SOPE  C315 7709   0.833   6.466   4.194  0.1782 -0.3654 -0.0130
   83SOPE  H15X 7710   0.939   6.431   4.189  0.3639  0.3057 -2.0152
   83SOPE  H15Y 7711   0.775   6.371   4.193 -1.7912  0.7903  0.0038
   83SOPE  C316 7712   0.803   6.550   4.321 -0.0296 -0.2105 -0.1003
   83SOPE  H16X 7713   0.853   6.648   4.306 -0.8343 -0.0201 -1.8170
   83SOPE  H16Y 7714   0.850   6.495   4.405  1.2568  0.4392 -0.3710
   83SOPE  C317 7715   0.662   6.578   4.351 -0.0275 -0.2532  0.0017
   83SOPE  H17X 7716   0.606   6.483   4.339  0.8000 -0.8738  0.9282
   83SOPE  H17Y 7717   0.605   6.647   4.285 -3.6365 -1.2045  1.8458
   83SOPE  C318 7718   0.633   6.629   4.493  0.4654 -0.4937  0.0091
   83SOPE  H18X 7719   0.523   6.644   4.502  0.1801 -2.3074 -0.2166
   83SOPE  H18Y 7720   0.681   6.727   4.516 -1.0363  0.2248  0.2212
   83SOPE  H18Z 7721   0.674   6.549   4.559  1.6936  2.5729  3.3873
   84SOPE     N 7722   1.488   4.207   2.375  0.7787 -0.0239  0.1888
   84SOPE   HN1 7723   1.583   4.244   2.394  0.6420 -0.8027  2.8551
   84SOPE   HN2 7724   1.484   4.116   2.426 -0.4976 -0.1758 -0.1262
   84SOPE   HN3 7725   1.484   4.183   2.274 -0.6525  2.1952 -0.3439
   84SOPE   C12 7726   1.370   4.291   2.417 -0.1627 -0.6096  0.0810
   84SOPE  H12A 7727   1.279   4.244   2.372  0.5208 -0.7822 -1.1539
   84SOPE  H12B 7728   1.387   4.386   2.363 -1.7935  1.0876  2.3959
   84SOPE   C11 7729   1.363   4.295   2.563 -0.4659 -0.6774 -1.0306
   84SOPE  H11A 7730   1.310   4.391   2.580  2.2407  0.9188 -0.9207
   84SOPE  H11B 7731   1.460   4.318   2.613  0.0933 -3.1777 -0.8184
   84SOPE     P 7732   1.161   4.185   2.682  0.1557  0.5719 -0.2054
   84SOPE   O13 7733   1.127   4.060   2.761 -0.1196  0.6590  0.6181
   84SOPE   O14 7734   1.072   4.222   2.566 -0.3601  0.1796  0.1325
   84SOPE   O12 7735   1.304   4.177   2.620 -0.0524  0.7356 -0.0104
   84SOPE   O11 7736   1.170   4.315   2.771  0.2525 -0.1447 -0.2601
   84SOPE    C1 7737   1.126   4.314   2.913  0.0103 -0.1393  0.7341
   84SOPE    HA 7738   1.023   4.273   2.912 -0.6073  1.3275  1.2061
   84SOPE    HB 7739   1.123   4.413   2.963  0.9136 -0.4096  1.3550
   84SOPE    C2 7740   1.236   4.243   2.997  0.0832 -0.0858  0.7101
   84SOPE    HS 7741   1.243   4.137   2.963 -0.0465  0.2882 -0.5030
   84SOPE   O21 7742   1.176   4.238   3.128 -0.2940 -0.3787  0.4759
   84SOPE   C21 7743   1.253   4.178   3.218  0.1830 -0.4532 -0.3567
   84SOPE   O22 7744   1.340   4.099   3.187 -1.2338  0.1444 -0.0359
   84SOPE   C22 7745   1.192   4.197   3.354 -0.2238  0.3593  0.6290
   84SOPE   H2R 7746   1.102   4.132   3.361 -0.0916  0.3444  3.2191
   84SOPE   H2S 7747   1.170   4.304   3.378 -0.1042 -0.0747  2.9828
   84SOPE    C3 7748   1.366   4.316   2.986 -0.1592  0.2591 -0.3136
   84SOPE    HX 7749   1.391   4.306   2.878  1.0772 -1.6419  0.1081
   84SOPE    HY 7750   1.448   4.262   3.038  0.1070  0.8800 -0.0757
   84SOPE   O31 7751   1.357   4.455   3.022  0.5055  0.2037  0.0576
   84SOPE   C31 7752   1.420   4.497   3.138  0.3354  0.8716 -0.8402
   84SOPE   O32 7753   1.493   4.424   3.202  0.8262  0.0877  0.0108
   84SOPE   C32 7754   1.392   4.641   3.184 -0.3706  0.8424  0.1979
   84SOPE   H2X 7755   1.314   4.694   3.125 -0.6245  0.7972  0.4838
   84SOPE   H2Y 7756   1.483   4.703   3.175  0.0079  0.6558  2.2792
   84SOPE   C23 7757   1.297   4.160   3.450  0.0238  0.0437  0.2956
   84SOPE   H3R 7758   1.397   4.203   3.429 -0.2804  1.1972  1.1357
   84SOPE   H3S 7759   1.308   4.049   3.454 -0.8268 -0.0209  1.7156
   84SOPE   C24 7760   1.244   4.192   3.591 -0.4855  0.4593  0.6031
   84SOPE   H4R 7761   1.227   4.301   3.603  0.3394  0.6845 -0.1005
   84SOPE   H4S 7762   1.141   4.154   3.605  0.1747 -0.7905  2.5233
   84SOPE   C25 7763   1.345   4.136   3.693  0.6441 -0.5231 -0.2009
   84SOPE   H5R 7764   1.382   4.040   3.652 -0.4017 -1.1746  0.3555
   84SOPE   H5S 7765   1.427   4.211   3.696  1.3871 -1.3327  0.5888
   84SOPE   C26 7766   1.285   4.117   3.835 -0.5487 -0.6349  0.0694
   84SOPE   H6R 7767   1.289   4.219   3.878 -1.4625  0.9761 -3.2939
   84SOPE   H6S 7768   1.180   4.081   3.830 -1.0383  0.6556  0.5345
   84SOPE   C27 7769   1.367   4.009   3.901 -0.1514 -0.2387 -0.9558
   84SOPE   H7R 7770   1.355   3.912   3.848  0.2079 -0.7128 -0.1873
   84SOPE   H7S 7771   1.474   4.035   3.895 -0.4401  1.9150  1.3562
   84SOPE   C28 7772   1.329   3.981   4.060 -0.3005  0.1897  0.0047
   84SOPE   H8R 7773   1.378   3.888   4.096 -0.5385  0.2682  0.5492
   84SOPE   H8S 7774   1.387   4.059   4.115 -2.3612  2.3364 -0.6773
   84SOPE   C29 7775   1.179   3.969   4.100  0.2397  0.3869 -0.1877
   84SOPE   H91 7776   1.109   4.025   4.037  1.3238  3.2375  0.9581
   84SOPE  C210 7777   1.146   3.911   4.214 -0.1256 -0.0069 -0.0034
   84SOPE  H101 7778   1.040   3.898   4.241 -0.9041  0.8170 -2.3671
   84SOPE  C211 7779   1.237   3.825   4.312 -0.4166  0.1421 -0.2370
   84SOPE  H11R 7780   1.203   3.848   4.415 -1.6026 -0.6384 -0.4331
   84SOPE  H11S 7781   1.343   3.859   4.317 -1.1865  2.6161  0.4289
   84SOPE  C212 7782   1.236   3.677   4.285  0.0060 -0.5406 -0.1905
   84SOPE  H12R 7783   1.282   3.652   4.187  1.0627 -0.4688  0.2739
   84SOPE  H12S 7784   1.130   3.648   4.269  0.0469  0.2043 -2.1876
   84SOPE  C213 7785   1.306   3.586   4.389  0.0705 -0.5453  0.4160
   84SOPE  H13R 7786   1.264   3.610   4.488  1.1635 -3.3311  1.6687
   84SOPE  H13S 7787   1.416   3.599   4.385  0.0867 -0.9164 -1.2188
   84SOPE  C214 7788   1.267   3.440   4.360 -0.2955  0.1470 -0.1060
   84SOPE  H14R 7789   1.321   3.420   4.264  0.7910 -0.2416  0.5663
   84SOPE  H14S 7790   1.157   3.431   4.346 -0.5108 -2.7719  2.3742
   84SOPE  C215 7791   1.294   3.349   4.479 -0.4228  0.0680 -0.6669
   84SOPE  H15R 7792   1.232   3.382   4.564  0.7923 -1.3611  0.8276
   84SOPE  H15S 7793   1.401   3.357   4.507 -0.0734  3.9488 -2.4807
   84SOPE  C216 7794   1.257   3.202   4.445  0.8051  0.0143 -0.0007
   84SOPE  H16R 7795   1.325   3.150   4.373  0.0685  0.7114 -1.2370
   84SOPE  H16S 7796   1.152   3.208   4.409  0.3272  1.5888  1.5625
   84SOPE  C217 7797   1.259   3.107   4.566  0.0392  0.3933  0.2996
   84SOPE  H17R 7798   1.223   3.004   4.543  1.9374 -0.7839  2.2509
   84SOPE  H17S 7799   1.194   3.142   4.648  0.5568 -0.0550  0.9119
   84SOPE  C218 7800   1.402   3.078   4.616 -0.5535 -0.2182  0.1200
   84SOPE  H18R 7801   1.471   3.045   4.535  0.4017  1.8043  0.0414
   84SOPE  H18S 7802   1.394   3.003   4.698 -0.4216  0.2056  0.5241
   84SOPE  H18T 7803   1.455   3.170   4.649  0.6663 -0.4624 -1.0708
   84SOPE   C33 7804   1.366   4.632   3.337 -0.3017 -0.7939  0.3916
   84SOPE   H3X 7805   1.450   4.576   3.384 -0.9488 -2.8934 -0.8157
   84SOPE   H3Y 7806   1.272   4.573   3.346 -1.3687  1.0451  1.8756
   84SOPE   C34 7807   1.349   4.766   3.409 -0.2080 -0.6883  0.1007
   84SOPE   H4X 7808   1.301   4.843   3.345 -0.8496 -1.4089 -0.3110
   84SOPE   H4Y 7809   1.453   4.796   3.433  0.1034 -0.8112 -1.0011
   84SOPE   C35 7810   1.278   4.758   3.541  0.3708 -0.0683 -0.5480
   84SOPE   H5X 7811   1.173   4.733   3.516 -0.4396  1.7525  0.8406
   84SOPE   H5Y 7812   1.273   4.863   3.576  1.3380  0.4805 -1.9164
   84SOPE   C36 7813   1.340   4.668   3.652 -0.0857  0.0346  0.0466
   84SOPE   H6X 7814   1.447   4.690   3.671 -0.3380  2.0973 -0.6328
   84SOPE   H6Y 7815   1.326   4.563   3.618 -0.4346  0.1546 -0.1838
   84SOPE   C37 7816   1.265   4.680   3.780  0.2156  0.2994 -0.2261
   84SOPE   H7X 7817   1.155   4.675   3.762  0.4472 -1.6467 -1.4267
   84SOPE   H7Y 7818   1.289   4.777   3.827  0.8248  0.2845 -0.5001
   84SOPE   C38 7819   1.287   4.562   3.875 -0.3301 -0.3178  0.3729
   84SOPE   H8X 7820   1.395   4.538   3.878 -0.3749 -0.7486 -0.8592
   84SOPE   H8Y 7821   1.237   4.473   3.832  0.7385  0.7917 -3.5468
   84SOPE   C39 7822   1.238   4.576   4.016  0.8091 -0.5721  0.3526
   84SOPE   H9X 7823   1.131   4.604   4.009  1.2983  0.9365 -2.7396
   84SOPE   H9Y 7824   1.274   4.678   4.043  1.1661 -0.7879  0.7090
   84SOPE  C310 7825   1.278   4.469   4.118  0.5309 -0.7173 -0.0203
   84SOPE  H10X 7826   1.386   4.471   4.141  0.0490 -1.4490  2.6723
   84SOPE  H10Y 7827   1.241   4.372   4.080  0.9852 -2.6110  3.8674
   84SOPE  C311 7828   1.212   4.487   4.245  0.0178  0.4057  0.4570
   84SOPE  H11X 7829   1.102   4.483   4.230 -0.0567 -0.7985  1.1869
   84SOPE  H11Y 7830   1.241   4.587   4.284 -1.6047  1.1908 -0.2733
   84SOPE  C312 7831   1.254   4.369   4.343  0.1226  0.5250  0.1804
   84SOPE  H12X 7832   1.284   4.280   4.283 -0.2110 -0.2518  1.1193
   84SOPE  H12Y 7833   1.165   4.339   4.402 -1.0035 -0.7489 -2.0421
   84SOPE  C313 7834   1.378   4.399   4.423 -1.1505 -0.4641 -0.8195
   84SOPE  H13X 7835   1.451   4.431   4.346  0.6594  0.9277  1.3423
   84SOPE  H13Y 7836   1.421   4.315   4.481 -1.3512 -1.1583 -1.6572
   84SOPE  C314 7837   1.350   4.521   4.528 -0.0881  0.1098 -0.2202
   84SOPE  H14X 7838   1.300   4.606   4.477  1.6078  0.9859 -0.4939
   84SOPE  H14Y 7839   1.451   4.559   4.553 -1.5753  3.9377  0.7379
   84SOPE  C315 7840   1.290   4.490   4.671 -0.3276 -0.1677 -0.1559
   84SOPE  H15X 7841   1.323   4.389   4.705  0.7347  0.3354  0.3575
   84SOPE  H15Y 7842   1.181   4.490   4.652 -0.0217 -0.6386 -2.1045
   84SOPE  C316 7843   1.322   4.597   4.775 -0.1327 -0.2137 -0.1127
   84SOPE  H16X 7844   1.280   4.696   4.747 -0.0876 -0.6188 -1.6961
   84SOPE  H16Y 7845   1.431   4.614   4.782 -0.4988  2.5139  0.2852
   84SOPE  C317 7846   1.266   4.555   4.909 -0.7686 -0.1318  0.1944
   84SOPE  H17X 7847   1.297   4.452   4.936  0.9667  0.5881  1.1243
   84SOPE  H17Y 7848   1.157   4.547   4.888 -0.6001  0.9615 -1.2443
   84SOPE  C318 7849   1.304   4.650   5.029 -0.0698  0.5021  0.3549
   84SOPE  H18X 7850   1.415   4.647   5.034  0.1486 -0.3992 -2.6225
   84SOPE  H18Y 7851   1.252   4.625   5.124 -1.6635  1.6623 -0.1741
   84SOPE  H18Z 7852   1.270   4.753   5.009 -1.6615 -0.4410 -2.3823
   85SOPE     N 7853   3.125   4.807   2.641  0.3076  0.5061  0.2244
   85SOPE   HN1 7854   3.116   4.767   2.545 -1.1159 -0.3278  0.6846
   85SOPE   HN2 7855   3.054   4.883   2.645  1.0002  1.4693 -2.8480
   85SOPE   HN3 7856   3.224   4.841   2.645  0.8306 -0.9895  0.6750
   85SOPE   C12 7857   3.109   4.707   2.749  0.7571  0.1871  0.8899
   85SOPE  H12A 7858   3.086   4.759   2.844  1.6409 -0.5134  1.5014
   85SOPE  H12B 7859   3.200   4.645   2.758  0.6369  0.2594  3.0550
   85SOPE   C11 7860   2.984   4.619   2.717  0.6020 -0.0854 -0.2872
   85SOPE  H11A 7861   2.967   4.546   2.799 -1.1328 -0.9713 -1.3887
   85SOPE  H11B 7862   3.015   4.566   2.625  2.3839 -0.8533  0.7138
   85SOPE     P 7863   2.731   4.668   2.753 -0.3288  0.0028  0.2923
   85SOPE   O13 7864   2.694   4.540   2.694 -0.5393 -0.0625  0.2512
   85SOPE   O14 7865   2.630   4.778   2.736  0.2157  0.5564 -0.0475
   85SOPE   O12 7866   2.873   4.707   2.697 -0.0984 -0.3671 -0.7053
   85SOPE   O11 7867   2.755   4.650   2.909  0.6089  0.1964 -0.1372
   85SOPE    C1 7868   2.786   4.764   3.000  0.2475  0.3137 -0.2063
   85SOPE    HA 7869   2.840   4.842   2.941  1.6267 -1.7157 -1.8093
   85SOPE    HB 7870   2.855   4.727   3.079 -0.5232 -0.3207  0.1816
   85SOPE    C2 7871   2.657   4.819   3.060 -0.2902 -0.6502  0.3817
   85SOPE    HS 7872   2.603   4.867   2.976  0.2700  1.8846  1.3830
   85SOPE   O21 7873   2.686   4.906   3.175 -0.9266  0.1683  0.2719
   85SOPE   C21 7874   2.617   5.014   3.199  0.0399 -0.2390  0.9168
   85SOPE   O22 7875   2.529   5.060   3.128 -0.4684 -0.4808 -0.0125
   85SOPE   C22 7876   2.671   5.079   3.326 -0.5433  0.0569 -0.6440
   85SOPE   H2R 7877   2.666   5.187   3.303 -3.4958 -0.2070 -1.7189
   85SOPE   H2S 7878   2.777   5.054   3.347 -1.1573 -0.0819  2.8829
   85SOPE    C3 7879   2.564   4.702   3.113  0.8273 -0.5883  0.1508
   85SOPE    HX 7880   2.616   4.655   3.198  0.7253 -1.5447 -0.3046
   85SOPE    HY 7881   2.563   4.626   3.032 -0.2784  0.9363 -1.3440
   85SOPE   O31 7882   2.432   4.758   3.147  0.1133  0.2151 -0.2640
   85SOPE   C31 7883   2.334   4.756   3.053  0.4286  0.6979  0.0600
   85SOPE   O32 7884   2.348   4.716   2.939 -0.0197 -0.1726 -0.0401
   85SOPE   C32 7885   2.201   4.791   3.112  0.5540 -0.0728  0.4147
   85SOPE   H2X 7886   2.203   4.780   3.223  0.1545  1.2105  0.5703
   85SOPE   H2Y 7887   2.126   4.722   3.069 -1.2548 -0.4231  3.7933
   85SOPE   C23 7888   2.596   5.040   3.452  0.1329 -0.5404 -0.1033
   85SOPE   H3R 7889   2.489   5.056   3.431  0.5530  0.7163 -1.4626
   85SOPE   H3S 7890   2.635   5.106   3.533 -1.6915 -0.2548  0.5769
   85SOPE   C24 7891   2.618   4.887   3.491 -0.0198 -1.1768  0.2528
   85SOPE   H4R 7892   2.595   4.829   3.398  0.1990 -0.7088 -0.0998
   85SOPE   H4S 7893   2.728   4.873   3.499 -0.0959 -1.9612  0.0798
   85SOPE   C25 7894   2.537   4.845   3.611 -0.1480  0.2701  1.3073
   85SOPE   H5R 7895   2.438   4.893   3.620  0.2252  0.9079  2.1899
   85SOPE   H5S 7896   2.531   4.734   3.615  0.6243  0.1362 -0.4939
   85SOPE   C26 7897   2.605   4.889   3.739 -0.2422 -0.4673 -0.2878
   85SOPE   H6R 7898   2.714   4.870   3.734 -0.1885  0.1077 -2.2454
   85SOPE   H6S 7899   2.584   4.999   3.740 -1.8314 -0.7440  0.2207
   85SOPE   C27 7900   2.561   4.811   3.864  0.1536  0.7570 -1.0610
   85SOPE   H7R 7901   2.451   4.799   3.863  0.2105  0.1127 -0.3440
   85SOPE   H7S 7902   2.603   4.710   3.848 -0.2154  0.2912  0.7082
   85SOPE   C28 7903   2.618   4.864   3.994  0.2309 -0.1065  0.2147
   85SOPE   H8R 7904   2.636   4.776   4.060 -0.6479  1.2644  2.3798
   85SOPE   H8S 7905   2.714   4.914   3.974  1.0517 -0.3766  3.0093
   85SOPE   C29 7906   2.524   4.958   4.068 -0.2590  0.0314 -0.1955
   85SOPE   H91 7907   2.508   5.053   4.015  0.8299  2.3144  3.1783
   85SOPE  C210 7908   2.466   4.936   4.188 -0.3157  0.2841  0.6641
   85SOPE  H101 7909   2.402   5.022   4.210  2.1544  3.2026 -2.4348
   85SOPE  C211 7910   2.483   4.821   4.284  0.3360  0.3802 -0.3865
   85SOPE  H11R 7911   2.526   4.853   4.382  2.3858  0.8194 -1.3623
   85SOPE  H11S 7912   2.575   4.766   4.251  0.7592  1.1050 -0.4379
   85SOPE  C212 7913   2.361   4.735   4.305 -0.1395 -0.0144  0.1517
   85SOPE  H12R 7914   2.345   4.682   4.209 -0.9298  0.6583 -0.0916
   85SOPE  H12S 7915   2.275   4.799   4.333  0.0115 -0.7563  2.5938
   85SOPE  C213 7916   2.398   4.635   4.418 -0.1237  1.0745  0.6276
   85SOPE  H13R 7917   2.313   4.564   4.430  0.2649  0.3301 -0.7881
   85SOPE  H13S 7918   2.421   4.697   4.507 -0.5320  1.6715  0.3225
   85SOPE  C214 7919   2.526   4.557   4.379  0.4957  0.5425 -0.9419
   85SOPE  H14R 7920   2.616   4.620   4.389  0.5006  0.3713  0.2354
   85SOPE  H14S 7921   2.502   4.518   4.278 -1.6296 -0.3070 -0.1770
   85SOPE  C215 7922   2.572   4.443   4.475 -0.3468 -0.7620 -0.0533
   85SOPE  H15R 7923   2.678   4.420   4.451 -0.4149 -1.8046  0.5681
   85SOPE  H15S 7924   2.502   4.356   4.473 -0.8509 -0.4182  1.4238
   85SOPE  C216 7925   2.569   4.491   4.624  0.4078 -0.1741 -0.2683
   85SOPE  H16R 7926   2.468   4.535   4.637 -0.1305 -1.5549  0.3756
   85SOPE  H16S 7927   2.645   4.569   4.644  0.6909 -0.7225  0.9001
   85SOPE  C217 7928   2.570   4.386   4.732  0.0308 -0.2118 -0.1213
   85SOPE  H17R 7929   2.473   4.334   4.744  0.6312 -0.8431  2.8963
   85SOPE  H17S 7930   2.587   4.440   4.827  1.2672 -2.3340  0.9664
   85SOPE  C218 7931   2.672   4.269   4.702  0.1229  0.8889  0.2623
   85SOPE  H18R 7932   2.663   4.222   4.601 -0.6709  2.6163 -0.5061
   85SOPE  H18S 7933   2.658   4.189   4.778 -0.6908  2.1731  1.5058
   85SOPE  H18T 7934   2.776   4.307   4.695  1.1768 -1.8151 -0.0573
   85SOPE   C33 7935   2.160   4.941   3.083 -0.3035  0.0021  0.2087
   85SOPE   H3X 7936   2.138   4.938   2.974 -0.0817 -1.4362  0.1847
   85SOPE   H3Y 7937   2.247   5.009   3.086 -1.4673  1.4921  1.7066
   85SOPE   C34 7938   2.045   4.990   3.164  0.5566  0.1006  0.1392
   85SOPE   H4X 7939   1.963   4.928   3.123  1.2993  0.5976 -2.2636
   85SOPE   H4Y 7940   2.018   5.092   3.130  2.6591  0.5861 -0.2381
   85SOPE   C35 7941   2.055   4.980   3.315  0.3893 -0.2866  0.5291
   85SOPE   H5X 7942   2.063   4.874   3.345 -2.1962 -0.3203  1.3065
   85SOPE   H5Y 7943   1.959   5.014   3.360  0.6346 -0.3300  1.0936
   85SOPE   C36 7944   2.165   5.069   3.377 -0.1590 -0.2309 -0.0966
   85SOPE   H6X 7945   2.163   5.176   3.347  0.3731  0.1119  1.0352
   85SOPE   H6Y 7946   2.263   5.051   3.328  0.4409  0.0867  0.9536
   85SOPE   C37 7947   2.162   5.040   3.524 -0.6789 -0.2382  0.1536
   85SOPE   H7X 7948   2.202   4.936   3.531  1.1724  0.4776  1.0127
   85SOPE   H7Y 7949   2.056   5.038   3.558  0.2567 -0.4424  3.4393
   85SOPE   C38 7950   2.243   5.124   3.618 -0.0443 -0.0124 -0.5288
   85SOPE   H8X 7951   2.216   5.231   3.608 -3.3273 -0.7868 -1.3347
   85SOPE   H8Y 7952   2.348   5.125   3.584  0.3005  0.9759  0.5241
   85SOPE   C39 7953   2.235   5.060   3.756  0.2768 -0.0410 -0.1177
   85SOPE   H9X 7954   2.335   5.076   3.802  0.3930  1.4355 -0.8133
   85SOPE   H9Y 7955   2.215   4.951   3.761  0.3706 -0.0048  2.9152
   85SOPE  C310 7956   2.134   5.120   3.854  0.0916  0.4944 -1.0121
   85SOPE  H10X 7957   2.033   5.078   3.837 -0.8426  1.7519  1.0770
   85SOPE  H10Y 7958   2.139   5.231   3.848  0.1180  0.4666 -1.5260
   85SOPE  C311 7959   2.170   5.082   3.999  0.2770  0.1204 -0.4855
   85SOPE  H11X 7960   2.246   5.153   4.038  1.5024 -1.0245 -0.7569
   85SOPE  H11Y 7961   2.226   4.987   4.001  1.4853  0.7653 -1.8829
   85SOPE  C312 7962   2.053   5.093   4.098 -0.3896 -0.4699  0.4146
   85SOPE  H12X 7963   1.990   5.001   4.103  0.3420 -1.1289 -1.5037
   85SOPE  H12Y 7964   1.992   5.182   4.072 -0.7287 -1.0568 -0.8682
   85SOPE  C313 7965   2.110   5.109   4.241 -0.0306  0.2736  0.2564
   85SOPE  H13X 7966   2.168   5.201   4.221 -1.4920  0.4677 -4.1310
   85SOPE  H13Y 7967   2.163   5.015   4.266 -0.5958 -1.2336 -3.6023
   85SOPE  C314 7968   1.999   5.132   4.346  0.0137  0.2169  0.0097
   85SOPE  H14X 7969   1.921   5.053   4.336  0.1458 -0.0203  0.7972
   85SOPE  H14Y 7970   1.952   5.229   4.318  0.1126  0.7318  1.5582
   85SOPE  C315 7971   2.043   5.146   4.487 -0.2450  0.6174 -0.1704
   85SOPE  H15X 7972   1.959   5.184   4.550 -2.0376  0.0736 -2.1024
   85SOPE  H15Y 7973   2.127   5.218   4.487  2.1981 -2.0623 -0.5683
   85SOPE  C316 7974   2.100   5.014   4.550  0.4936 -0.3202 -0.3299
   85SOPE  H16X 7975   2.183   4.980   4.485 -0.1729 -1.6646 -0.5021
   85SOPE  H16Y 7976   2.018   4.940   4.544 -0.3773  0.6777 -1.2912
   85SOPE  C317 7977   2.132   5.010   4.699 -0.0246 -0.2862 -0.3186
   85SOPE  H17X 7978   2.204   5.088   4.731  1.2364 -1.8463  0.7823
   85SOPE  H17Y 7979   2.193   4.920   4.721  2.0314  0.6083 -2.0269
   85SOPE  C318 7980   2.008   5.027   4.791  0.1786 -0.0002  0.1062
   85SOPE  H18X 7981   1.969   5.129   4.773  0.8330  0.0179 -1.4565
   85SOPE  H18Y 7982   2.046   5.025   4.895 -0.2166 -1.3307  0.2379
   85SOPE  H18Z 7983   1.934   4.947   4.772  2.4874 -2.3937  0.6178
   86SOPE     N 7984   5.264   2.231   2.598  0.1726 -0.7677 -0.4667
   86SOPE   HN1 7985   5.348   2.220   2.659  1.3171  1.2087 -1.5841
   86SOPE   HN2 7986   5.201   2.298   2.646  1.1615 -0.3685  0.2993
   86SOPE   HN3 7987   5.213   2.141   2.585  0.9011 -0.9274 -2.4711
   86SOPE   C12 7988   5.278   2.292   2.461 -0.2278 -0.6481  0.6120
   86SOPE  H12A 7989   5.300   2.209   2.391 -2.9118  1.3624 -2.9833
   86SOPE  H12B 7990   5.371   2.353   2.462  0.5779 -1.8599  0.8495
   86SOPE   C11 7991   5.148   2.361   2.425 -0.2728  0.3361  0.6121
   86SOPE  H11A 7992   5.072   2.280   2.424 -1.4982  1.4650  0.6768
   86SOPE  H11B 7993   5.156   2.418   2.330 -2.6009  0.3633  0.3839
   86SOPE     P 7994   4.968   2.531   2.495 -0.2765  0.1260 -0.1944
   86SOPE   O13 7995   4.863   2.457   2.563  0.4947  0.2322 -0.6222
   86SOPE   O14 7996   4.952   2.557   2.350 -0.2182  0.4267  0.4310
   86SOPE   O12 7997   5.111   2.455   2.517  0.4315 -0.6843 -0.8625
   86SOPE   O11 7998   4.995   2.669   2.572  0.1400 -0.1066 -0.3872
   86SOPE    C1 7999   5.063   2.664   2.695  0.1073 -1.1966 -0.5880
   86SOPE    HA 8000   5.113   2.761   2.716 -1.8031 -0.2719 -0.0160
   86SOPE    HB 8001   5.145   2.592   2.710  0.1673 -0.5667  2.9268
   86SOPE    C2 8002   4.977   2.622   2.817  0.1735  0.1107  0.5032
   86SOPE    HS 8003   4.919   2.529   2.800  1.1617 -0.3737 -0.2858
   86SOPE   O21 8004   4.888   2.732   2.834  0.9915  0.4609  0.9921
   86SOPE   C21 8005   4.774   2.700   2.895 -0.7224  0.7972  0.5267
   86SOPE   O22 8006   4.735   2.585   2.919  0.3088  0.6052  0.0962
   86SOPE   C22 8007   4.694   2.827   2.916  0.3622  0.2448  0.2432
   86SOPE   H2R 8008   4.588   2.796   2.916  0.8717 -1.7264 -1.0110
   86SOPE   H2S 8009   4.713   2.894   2.829 -0.8280 -0.3785 -0.5294
   86SOPE    C3 8010   5.067   2.602   2.941  0.0921  0.0505 -0.4764
   86SOPE    HX 8011   5.124   2.694   2.968 -0.2345 -0.2553  1.3790
   86SOPE    HY 8012   5.146   2.528   2.917  2.2668  2.3402 -0.7524
   86SOPE   O31 8013   4.990   2.569   3.062 -0.0155 -0.5928  0.0588
   86SOPE   C31 8014   5.010   2.452   3.125  0.2590 -0.5913  0.2374
   86SOPE   O32 8015   5.085   2.362   3.084  0.8464 -0.2481 -0.6386
   86SOPE   C32 8016   4.927   2.448   3.244  0.1554  0.5020 -0.2186
   86SOPE   H2X 8017   4.841   2.519   3.234 -1.0796 -0.7710  0.9123
   86SOPE   H2Y 8018   4.991   2.482   3.329  0.0054 -1.8560  0.9090
   86SOPE   C23 8019   4.733   2.901   3.042 -0.9263 -0.6341 -0.5521
   86SOPE   H3R 8020   4.697   3.006   3.047  2.7754  0.7979 -0.3185
   86SOPE   H3S 8021   4.842   2.921   3.054 -1.3883  1.2791  1.0388
   86SOPE   C24 8022   4.680   2.831   3.170 -0.1588  0.2722 -0.0417
   86SOPE   H4R 8023   4.572   2.807   3.159  0.0521 -1.0968  0.6884
   86SOPE   H4S 8024   4.731   2.734   3.185  2.0116  1.1069 -1.5924
   86SOPE   C25 8025   4.716   2.896   3.315 -0.0378  0.6034  0.1161
   86SOPE   H5R 8026   4.822   2.926   3.304  0.1377 -1.0036 -4.1866
   86SOPE   H5S 8027   4.649   2.983   3.338  1.2166  1.3885  0.9363
   86SOPE   C26 8028   4.709   2.793   3.423 -0.0051  0.4862 -0.1973
   86SOPE   H6R 8029   4.604   2.759   3.439  0.2587  0.6853  2.5289
   86SOPE   H6S 8030   4.773   2.708   3.390  0.3120  0.0143  1.5024
   86SOPE   C27 8031   4.752   2.835   3.562 -0.9526 -0.9624 -0.5592
   86SOPE   H7R 8032   4.849   2.883   3.539 -0.4232 -1.9004 -0.3479
   86SOPE   H7S 8033   4.691   2.916   3.606 -2.1124 -1.5687 -0.9948
   86SOPE   C28 8034   4.777   2.718   3.658  0.0798 -0.4714  0.0250
   86SOPE   H8R 8035   4.800   2.629   3.595 -1.4284 -0.4015 -0.6611
   86SOPE   H8S 8036   4.864   2.738   3.724 -0.4829 -0.4930  0.7818
   86SOPE   C29 8037   4.664   2.689   3.750 -1.0586  0.1889  0.4420
   86SOPE   H91 8038   4.611   2.594   3.731  0.6963 -1.0853  1.6876
   86SOPE  C210 8039   4.636   2.753   3.858 -0.2058 -0.2272 -0.2948
   86SOPE  H101 8040   4.546   2.714   3.908  0.2509 -1.1517 -0.1788
   86SOPE  C211 8041   4.690   2.881   3.911 -0.3119  1.2276 -0.1235
   86SOPE  H11R 8042   4.614   2.961   3.896  0.4397  2.1000  0.6017
   86SOPE  H11S 8043   4.778   2.910   3.850 -0.8341  2.4632 -0.3251
   86SOPE  C212 8044   4.730   2.878   4.057  0.1485 -0.4463  0.4020
   86SOPE  H12R 8045   4.659   2.817   4.116 -1.3009  0.5149 -0.3004
   86SOPE  H12S 8046   4.730   2.984   4.088  1.7282 -0.8029  1.7779
   86SOPE  C213 8047   4.878   2.838   4.079  0.2051 -0.1098  0.1957
   86SOPE  H13R 8048   4.933   2.924   4.033  0.2217  0.2085  0.8020
   86SOPE  H13S 8049   4.910   2.745   4.027  2.7169  0.2822  0.8827
   86SOPE  C214 8050   4.903   2.814   4.235  0.9338 -0.4580  0.3899
   86SOPE  H14R 8051   4.844   2.890   4.290  1.3664  0.2122 -0.0543
   86SOPE  H14S 8052   5.012   2.811   4.253  0.5805 -0.9105  2.6740
   86SOPE  C215 8053   4.855   2.677   4.287  1.2248  0.2553  0.3549
   86SOPE  H15R 8054   4.888   2.586   4.233 -0.6940  0.5243 -1.4140
   86SOPE  H15S 8055   4.744   2.684   4.288  1.0100 -2.0546  2.4485
   86SOPE  C216 8056   4.889   2.656   4.430  0.0308  0.3226 -0.1564
   86SOPE  H16R 8057   4.847   2.559   4.463 -1.1729  0.5674 -0.9037
   86SOPE  H16S 8058   4.843   2.729   4.500  1.8848  0.1527  1.3049
   86SOPE  C217 8059   5.038   2.659   4.476 -0.7686 -0.0255  0.3396
   86SOPE  H17R 8060   5.101   2.740   4.433  0.9733 -0.6854  1.5658
   86SOPE  H17S 8061   5.090   2.567   4.443  0.7893  0.7368  0.5887
   86SOPE  C218 8062   5.055   2.651   4.626  0.3344 -0.5169  0.0638
   86SOPE  H18R 8063   4.991   2.565   4.656  0.8603 -1.7062 -2.0220
   86SOPE  H18S 8064   5.018   2.751   4.659  0.0340 -0.4657 -0.4127
   86SOPE  H18T 8065   5.156   2.622   4.662  0.7287 -0.6143 -1.0779
   86SOPE   C33 8066   4.872   2.308   3.286  0.7350  0.5654 -0.9593
   86SOPE   H3X 8067   4.951   2.232   3.306 -1.0260 -1.2269 -0.5535
   86SOPE   H3Y 8068   4.804   2.268   3.209  0.6951 -1.1250 -0.0800
   86SOPE   C34 8069   4.774   2.318   3.405 -0.4544  0.2698  0.5225
   86SOPE   H4X 8070   4.729   2.216   3.414  3.6778 -1.7996  0.1027
   86SOPE   H4Y 8071   4.695   2.388   3.371 -1.9890 -0.7500  1.8482
   86SOPE   C35 8072   4.840   2.361   3.533 -0.7980 -0.1300 -0.3584
   86SOPE   H5X 8073   4.765   2.391   3.610  0.8255 -1.2771  1.7808
   86SOPE   H5Y 8074   4.895   2.455   3.509 -0.3499 -0.5129 -0.8357
   86SOPE   C36 8075   4.931   2.260   3.602  0.1539  0.0747 -0.3855
   86SOPE   H6X 8076   5.001   2.215   3.528  0.0179 -0.1901 -0.3526
   86SOPE   H6Y 8077   4.857   2.187   3.642 -1.0832  1.4301 -0.1362
   86SOPE   C37 8078   5.003   2.314   3.726  0.2704 -0.0054  0.7905
   86SOPE   H7X 8079   5.078   2.389   3.691 -0.6354  1.0970  1.1607
   86SOPE   H7Y 8080   5.053   2.230   3.777 -1.8865 -2.1308 -0.3973
   86SOPE   C38 8081   4.905   2.389   3.822 -0.1141  0.3431  0.2399
   86SOPE   H8X 8082   4.825   2.318   3.851 -0.7756  1.0981  0.3053
   86SOPE   H8Y 8083   4.855   2.471   3.766 -0.1026 -0.3791 -0.8481
   86SOPE   C39 8084   4.974   2.426   3.954  0.6266  0.1056 -0.3893
   86SOPE   H9X 8085   4.909   2.502   4.003 -1.3102 -1.7819  0.1412
   86SOPE   H9Y 8086   5.063   2.485   3.925  0.5440  0.6123  0.3588
   86SOPE  C310 8087   5.015   2.302   4.038  0.1588 -0.5275 -0.2674
   86SOPE  H10X 8088   5.114   2.263   4.008  0.9911  0.4090  1.1561
   86SOPE  H10Y 8089   4.940   2.221   4.028 -0.0107 -0.3137 -0.7550
   86SOPE  C311 8090   5.019   2.335   4.186  0.1030 -0.3705  0.2745
   86SOPE  H11X 8091   4.922   2.374   4.223  0.7267  0.7010  0.8206
   86SOPE  H11Y 8092   5.096   2.413   4.199  0.6543 -0.5647 -1.4971
   86SOPE  C312 8093   5.064   2.215   4.278  0.3265  0.2172  0.5120
   86SOPE  H12X 8094   5.163   2.182   4.238 -0.4239  0.2420 -1.4870
   86SOPE  H12Y 8095   4.984   2.139   4.275  1.2941 -0.8705  1.4568
   86SOPE  C313 8096   5.075   2.250   4.425  0.0111 -0.1885 -0.2524
   86SOPE  H13X 8097   4.985   2.298   4.470  2.0000  2.2366  1.4930
   86SOPE  H13Y 8098   5.157   2.324   4.439 -0.1267 -0.4142  2.2390
   86SOPE  C314 8099   5.104   2.121   4.509 -0.5971 -0.0808 -0.5702
   86SOPE  H14X 8100   5.173   2.047   4.462  0.0662 -1.9688  3.0265
   86SOPE  H14Y 8101   5.014   2.062   4.537 -0.9197  1.3429  1.6227
   86SOPE  C315 8102   5.156   2.141   4.657  0.1318 -0.2046 -0.2775
   86SOPE  H15X 8103   5.073   2.200   4.702 -0.6542 -1.0707 -0.5739
   86SOPE  H15Y 8104   5.248   2.203   4.668 -0.8829  1.0432  1.8156
   86SOPE  C316 8105   5.181   2.004   4.720 -0.1542  0.1652 -0.1094
   86SOPE  H16X 8106   5.258   1.950   4.662 -1.0789 -1.0831 -0.2230
   86SOPE  H16Y 8107   5.091   1.941   4.698 -0.1404  0.7429 -1.9766
   86SOPE  C317 8108   5.201   2.008   4.872 -0.1832  0.9551 -0.1322
   86SOPE  H17X 8109   5.115   2.058   4.922 -0.1823 -0.3415  1.2411
   86SOPE  H17Y 8110   5.287   2.070   4.904  1.7737 -1.7444  0.1820
   86SOPE  C318 8111   5.226   1.868   4.934 -0.4103  0.0548  0.1610
   86SOPE  H18X 8112   5.253   1.875   5.041 -0.1263 -0.0279  0.0943
   86SOPE  H18Y 8113   5.306   1.806   4.888  0.8118  1.2641  0.6024
   86SOPE  H18Z 8114   5.139   1.800   4.919 -1.9156  1.3579  2.4337
   87SOPE     N 8115   6.857   0.933   2.478 -0.4220 -0.2663  0.1499
   87SOPE   HN1 8116   6.771   0.988   2.454  0.2959  1.9027  2.1816
   87SOPE   HN2 8117   6.942   0.985   2.450  0.6940 -2.4014 -0.6587
   87SOPE   HN3 8118   6.860   0.849   2.417  4.1510  0.5669 -1.1388
   87SOPE   C12 8119   6.864   0.872   2.617 -0.1040 -0.0543  0.8905
   87SOPE  H12A 8120   6.947   0.798   2.626 -0.5455 -1.0025 -1.8443
   87SOPE  H12B 8121   6.766   0.820   2.627  0.2107 -0.9169 -0.3401
   87SOPE   C11 8122   6.895   0.973   2.734 -0.1482 -0.5006  0.1257
   87SOPE  H11A 8123   6.907   0.915   2.828  1.7700  0.1269  0.3121
   87SOPE  H11B 8124   6.812   1.045   2.744 -0.5186 -0.4262 -2.5899
   87SOPE     P 8125   7.153   0.991   2.720  0.3650  0.1064  0.5680
   87SOPE   O13 8126   7.243   1.110   2.739 -0.0502 -0.1705  0.4870
   87SOPE   O14 8127   7.174   0.901   2.607 -0.2541 -0.4651 -0.6760
   87SOPE   O12 8128   7.010   1.047   2.698  0.2840 -0.5263 -0.4597
   87SOPE   O11 8129   7.134   0.910   2.852 -0.6242  0.2802 -0.2711
   87SOPE    C1 8130   7.130   0.983   2.978 -0.5201 -0.4971 -0.1066
   87SOPE    HA 8131   7.068   1.075   2.971 -2.0102 -1.5095 -0.8000
   87SOPE    HB 8132   7.227   1.034   2.999 -1.8937  1.9174  0.7232
   87SOPE    C2 8133   7.096   0.882   3.092 -0.0649  0.0622 -0.7002
   87SOPE    HS 8134   7.165   0.796   3.085 -0.1516 -0.0414 -0.3044
   87SOPE   O21 8135   6.963   0.840   3.078  0.3114  0.1374  0.1588
   87SOPE   C21 8136   6.931   0.717   3.101 -0.9333 -0.2257  0.0565
   87SOPE   O22 8137   7.004   0.628   3.143  0.3745 -0.1246 -0.7919
   87SOPE   C22 8138   6.781   0.694   3.072 -0.0567 -0.5209 -0.7131
   87SOPE   H2R 8139   6.768   0.585   3.058 -0.7100 -0.4510 -0.6810
   87SOPE   H2S 8140   6.758   0.757   2.983 -0.9947  3.0154  1.8205
   87SOPE    C3 8141   7.124   0.937   3.235  0.0093 -0.0410 -0.3970
   87SOPE    HX 8142   7.076   1.036   3.247 -1.9244 -1.0330  0.5811
   87SOPE    HY 8143   7.233   0.943   3.259 -0.2634 -0.4725  1.0421
   87SOPE   O31 8144   7.062   0.851   3.337 -0.9899  0.1347 -0.3308
   87SOPE   C31 8145   7.096   0.859   3.469  0.4216 -1.4430 -0.2851
   87SOPE   O32 8146   7.181   0.925   3.511  0.2709  0.0950 -0.0763
   87SOPE   C32 8147   6.988   0.787   3.548 -0.5913 -0.7277 -0.2040
   87SOPE   H2X 8148   6.982   0.685   3.506 -0.0335 -0.3093 -1.3436
   87SOPE   H2Y 8149   6.886   0.829   3.539 -0.4114  0.3895  2.0959
   87SOPE   C23 8150   6.699   0.743   3.194 -0.0867 -0.3731  0.1440
   87SOPE   H3R 8151   6.594   0.759   3.159 -0.4215  0.1278  1.3457
   87SOPE   H3S 8152   6.730   0.847   3.215 -1.6252  0.0491  0.4862
   87SOPE   C24 8153   6.708   0.657   3.318 -0.3691 -0.5395 -0.1383
   87SOPE   H4R 8154   6.677   0.559   3.277  4.2762 -0.3405 -5.3279
   87SOPE   H4S 8155   6.815   0.646   3.346  0.4128  3.3393 -0.9960
   87SOPE   C25 8156   6.629   0.714   3.430  0.2138 -0.0520 -0.8730
   87SOPE   H5R 8157   6.687   0.803   3.462  0.6957 -1.2257  1.8146
   87SOPE   H5S 8158   6.530   0.742   3.387 -1.2353 -1.2021  1.5017
   87SOPE   C26 8159   6.593   0.610   3.542 -0.3267  0.1875 -0.6782
   87SOPE   H6R 8160   6.559   0.516   3.494 -1.6333 -0.1031  0.7163
   87SOPE   H6S 8161   6.695   0.602   3.585  0.4367  0.8722 -2.2893
   87SOPE   C27 8162   6.490   0.661   3.649 -0.2160 -0.2248 -0.3108
   87SOPE   H7R 8163   6.539   0.753   3.689 -0.6429  0.6978 -1.8068
   87SOPE   H7S 8164   6.391   0.685   3.604 -0.6727  1.4649  1.4826
   87SOPE   C28 8165   6.476   0.565   3.766  0.1644 -0.5825  0.1623
   87SOPE   H8R 8166   6.463   0.461   3.728  1.6274 -0.5132 -0.6199
   87SOPE   H8S 8167   6.570   0.548   3.823  0.0076 -0.9522  0.3098
   87SOPE   C29 8168   6.361   0.604   3.857 -0.2425 -0.5226  0.2309
   87SOPE   H91 8169   6.263   0.590   3.810  0.3070  0.6650 -1.3785
   87SOPE  C210 8170   6.370   0.679   3.969 -0.2067 -0.0143  0.0518
   87SOPE  H101 8171   6.281   0.698   4.030  1.3168  0.9129  2.1109
   87SOPE  C211 8172   6.503   0.713   4.028  0.3898 -0.2156  0.0917
   87SOPE  H11R 8173   6.493   0.801   4.095 -2.0451 -0.6748  0.4194
   87SOPE  H11S 8174   6.582   0.718   3.950  0.7630 -0.6897  0.4277
   87SOPE  C212 8175   6.560   0.597   4.122  0.1317 -0.5834 -0.0808
   87SOPE  H12R 8176   6.669   0.619   4.132  0.2930 -1.6824  0.6961
   87SOPE  H12S 8177   6.555   0.497   4.074  1.7137 -0.4451 -0.5899
   87SOPE  C213 8178   6.483   0.590   4.259  0.6216 -0.1420  0.6498
   87SOPE  H13R 8179   6.376   0.569   4.239 -0.2166  1.2908  3.1226
   87SOPE  H13S 8180   6.494   0.684   4.317 -0.0525  2.2964 -2.8648
   87SOPE  C214 8181   6.535   0.483   4.349 -0.2227  0.1027  0.0455
   87SOPE  H14R 8182   6.644   0.497   4.366 -0.3575 -1.4319  2.8235
   87SOPE  H14S 8183   6.512   0.386   4.300  0.1838 -0.3672  0.7678
   87SOPE  C215 8184   6.474   0.487   4.493 -0.0264 -0.4224 -0.2865
   87SOPE  H15R 8185   6.364   0.482   4.479  0.2926 -2.0506 -3.0783
   87SOPE  H15S 8186   6.489   0.583   4.547  2.5993 -0.1558 -1.3234
   87SOPE  C216 8187   6.514   0.368   4.584  0.2143  0.2423 -0.1282
   87SOPE  H16R 8188   6.605   0.389   4.644  0.4636 -0.1679 -0.3664
   87SOPE  H16S 8189   6.549   0.286   4.518 -0.2743  0.3693 -0.5505
   87SOPE  C217 8190   6.397   0.317   4.667 -0.0384  0.7979  0.1135
   87SOPE  H17R 8191   6.305   0.305   4.607  0.1901  1.6880 -0.4320
   87SOPE  H17S 8192   6.362   0.391   4.742  0.4176  2.5613 -1.3492
   87SOPE  C218 8193   6.435   0.174   4.731  0.3274  0.5298 -0.5662
   87SOPE  H18R 8194   6.532   0.179   4.784  0.6269 -1.0245 -0.9158
   87SOPE  H18S 8195   6.439   0.101   4.646 -0.2038 -0.7403  0.4682
   87SOPE  H18T 8196   6.353   0.151   4.802  0.8883  1.1956  0.3033
   87SOPE   C33 8197   7.017   0.787   3.695 -0.3908 -0.4181 -0.1590
   87SOPE   H3X 8198   6.995   0.883   3.747  1.3895 -0.3588  0.5416
   87SOPE   H3Y 8199   7.124   0.771   3.718 -0.2612 -2.1795 -1.8340
   87SOPE   C34 8200   6.926   0.689   3.773 -0.1803 -0.1069 -0.5231
   87SOPE   H4X 8201   6.945   0.594   3.719  1.0808  0.5136 -1.2120
   87SOPE   H4Y 8202   6.816   0.705   3.769 -0.3064 -1.0770 -1.3700
   87SOPE   C35 8203   6.975   0.672   3.927  0.0066  0.8472  0.3321
   87SOPE   H5X 8204   7.085   0.659   3.935  0.1229  0.3598 -1.6509
   87SOPE   H5Y 8205   6.932   0.576   3.964  1.8062 -0.5368 -1.0318
   87SOPE   C36 8206   6.917   0.771   4.027  0.1793  0.4575 -0.8667
   87SOPE   H6X 8207   6.807   0.758   4.029  0.2211  0.1748  0.0032
   87SOPE   H6Y 8208   6.942   0.878   4.014 -0.7154  1.1873  2.3156
   87SOPE   C37 8209   6.992   0.735   4.160 -0.3460 -0.0945  0.3282
   87SOPE   H7X 8210   7.101   0.745   4.139 -0.1086 -0.3374  1.3712
   87SOPE   H7Y 8211   6.983   0.628   4.187  1.0547  0.0332  1.4037
   87SOPE   C38 8212   6.939   0.818   4.274 -0.2300  0.0327 -0.0146
   87SOPE   H8X 8213   6.829   0.831   4.265 -0.0583  0.6739 -1.5619
   87SOPE   H8Y 8214   6.985   0.919   4.266  1.1145 -0.4731  0.9085
   87SOPE   C39 8215   6.974   0.749   4.411 -0.2010 -0.5720 -0.1878
   87SOPE   H9X 8216   6.968   0.830   4.486  1.9679  1.0497 -1.6353
   87SOPE   H9Y 8217   7.082   0.724   4.416  0.2062  1.2970  1.7535
   87SOPE  C310 8218   6.878   0.635   4.458  0.0148 -0.5090  0.7115
   87SOPE  H10X 8219   6.880   0.566   4.371  0.5969 -3.5663  2.9882
   87SOPE  H10Y 8220   6.777   0.676   4.480 -0.0677 -0.6451  0.5868
   87SOPE  C311 8221   6.920   0.548   4.579  0.1534 -0.5361  0.7033
   87SOPE  H11X 8222   7.030   0.537   4.567  0.2857 -0.0563  1.4722
   87SOPE  H11Y 8223   6.878   0.445   4.583 -0.5294 -0.3059 -0.1347
   87SOPE  C312 8224   6.899   0.624   4.712  0.2882  0.5106  0.7513
   87SOPE  H12X 8225   6.941   0.727   4.710  0.8510  0.2814  0.2760
   87SOPE  H12Y 8226   6.954   0.562   4.786 -1.5918 -0.1563  1.6488
   87SOPE  C313 8227   6.751   0.625   4.752 -0.6481  0.4780  0.8195
   87SOPE  H13X 8228   6.721   0.520   4.774 -0.8152  0.2754 -0.3092
   87SOPE  H13Y 8229   6.688   0.664   4.670  0.1538  0.3379  0.1263
   87SOPE  C314 8230   6.733   0.693   4.887 -0.1778 -0.2198 -0.3915
   87SOPE  H14X 8231   6.703   0.800   4.881  0.5245 -0.0345 -0.6829
   87SOPE  H14Y 8232   6.817   0.687   4.959  0.2851  0.0620 -0.8951
   87SOPE  C315 8233   6.616   0.628   4.956  0.4088  0.4189 -0.1466
   87SOPE  H15X 8234   6.647   0.526   4.987  1.8730  0.6216 -0.8459
   87SOPE  H15Y 8235   6.521   0.619   4.900 -0.2298  0.6660  0.8770
   87SOPE  C316 8236   6.573   0.701   5.090  0.5614  0.4972 -0.5059
   87SOPE  H16X 8237   6.523   0.797   5.065  1.6841  1.3862  0.5134
   87SOPE  H16Y 8238   6.665   0.727   5.146 -0.2905 -1.1061  1.7667
   87SOPE  C317 8239   6.472   0.612   5.184 -0.0875 -0.0497  0.1332
   87SOPE  H17X 8240   6.471   0.670   5.279 -0.7566  1.0329 -0.5151
   87SOPE  H17Y 8241   6.525   0.517   5.209  0.8719  0.5259  0.3435
   87SOPE  C318 8242   6.331   0.582   5.129 -0.0073  0.1762  0.0602
   87SOPE  H18X 8243   6.260   0.555   5.210  0.4734 -1.4068 -0.0056
   87SOPE  H18Y 8244   6.345   0.505   5.050  0.9785 -1.1509  1.4634
   87SOPE  H18Z 8245   6.290   0.670   5.076  1.4531  0.5619 -0.4925
   88SOPE     N 8246   2.427   0.449   2.444  0.4182  0.2356  0.3983
   88SOPE   HN1 8247   2.418   0.408   2.349 -0.9319  3.4845 -1.0451
   88SOPE   HN2 8248   2.525   0.440   2.479  1.1332 -3.1035 -2.0549
   88SOPE   HN3 8249   2.364   0.400   2.510  1.7473 -2.2598 -0.0775
   88SOPE   C12 8250   2.405   0.604   2.431 -0.2581  0.1165 -0.3701
   88SOPE  H12A 8251   2.298   0.623   2.412 -0.2602  0.3878 -0.0886
   88SOPE  H12B 8252   2.473   0.631   2.347 -1.7223 -0.9124 -1.9630
   88SOPE   C11 8253   2.437   0.679   2.559  0.8107  0.0838 -0.8191
   88SOPE  H11A 8254   2.427   0.786   2.534 -0.3924  0.2795  0.3597
   88SOPE  H11B 8255   2.541   0.669   2.596  0.6488  0.3245 -0.2940
   88SOPE     P 8256   2.241   0.748   2.729 -0.1642 -0.0081 -0.2683
   88SOPE   O13 8257   2.157   0.676   2.828 -0.6860  0.1889  0.4284
   88SOPE   O14 8258   2.172   0.820   2.621 -0.2766 -0.4996 -0.0076
   88SOPE   O12 8259   2.342   0.638   2.666  0.0785 -0.3271 -0.0518
   88SOPE   O11 8260   2.343   0.835   2.807  0.3191  0.4453  0.6815
   88SOPE    C1 8261   2.458   0.787   2.879  0.2533 -0.6054  0.0186
   88SOPE    HA 8262   2.552   0.826   2.834 -0.1236 -1.8164 -1.9212
   88SOPE    HB 8263   2.487   0.680   2.875 -1.4912 -1.1679  1.1010
   88SOPE    C2 8264   2.453   0.827   3.031  0.1852  0.1303 -0.3693
   88SOPE    HS 8265   2.429   0.935   3.037 -0.5167  0.0192 -1.0105
   88SOPE   O21 8266   2.586   0.795   3.093 -0.1482 -0.4540  0.5928
   88SOPE   C21 8267   2.675   0.891   3.089 -0.6085 -0.2526 -0.3406
   88SOPE   O22 8268   2.664   0.998   3.027 -0.0010 -0.2563  0.2237
   88SOPE   C22 8269   2.797   0.841   3.172  0.1706  0.3122  0.0884
   88SOPE   H2R 8270   2.881   0.895   3.123 -0.9899 -0.3705 -2.8475
   88SOPE   H2S 8271   2.814   0.733   3.151 -2.1201 -0.4273  1.7132
   88SOPE    C3 8272   2.352   0.744   3.111 -0.2021 -0.4944  0.2619
   88SOPE    HX 8273   2.379   0.636   3.112 -4.0591 -1.6086  1.3981
   88SOPE    HY 8274   2.255   0.752   3.059  0.2720 -0.3201 -0.6222
   88SOPE   O31 8275   2.331   0.782   3.246 -0.4254 -0.0603 -0.2050
   88SOPE   C31 8276   2.234   0.863   3.274  0.1523 -0.8635  0.6890
   88SOPE   O32 8277   2.160   0.913   3.187  0.4444 -0.0217 -0.2838
   88SOPE   C32 8278   2.202   0.874   3.426 -0.2964 -0.5883 -0.2350
   88SOPE   H2X 8279   2.091   0.880   3.429 -0.2738 -0.4269  0.5635
   88SOPE   H2Y 8280   2.253   0.967   3.459  0.2737 -1.2372  0.7906
   88SOPE   C23 8281   2.755   0.870   3.324  0.5414  0.6129 -0.0179
   88SOPE   H3R 8282   2.663   0.810   3.342  1.5736 -0.4330  2.0876
   88SOPE   H3S 8283   2.734   0.980   3.329 -0.0657  0.5760 -1.2702
   88SOPE   C24 8284   2.849   0.819   3.432 -0.0546 -0.2689  0.3173
   88SOPE   H4R 8285   2.896   0.721   3.410 -1.3402 -1.3276  2.0120
   88SOPE   H4S 8286   2.925   0.898   3.453 -0.1575  0.2298 -1.1222
   88SOPE   C25 8287   2.779   0.803   3.572  0.4366  0.3850  0.0870
   88SOPE   H5R 8288   2.759   0.900   3.623 -0.5051  0.3189 -0.1504
   88SOPE   H5S 8289   2.682   0.751   3.558  0.6856  0.0099 -0.2670
   88SOPE   C26 8290   2.865   0.705   3.655 -0.1345 -0.1634 -0.1268
   88SOPE   H6R 8291   2.864   0.603   3.611 -1.5679  0.4153 -1.4954
   88SOPE   H6S 8292   2.972   0.729   3.676 -0.5493  0.6574  1.2248
   88SOPE   C27 8293   2.796   0.703   3.791 -0.0595  0.3145 -0.2617
   88SOPE   H7R 8294   2.693   0.663   3.784  0.4093 -1.4642  1.9413
   88SOPE   H7S 8295   2.845   0.624   3.852 -2.8076 -1.4433 -0.1894
   88SOPE   C28 8296   2.791   0.834   3.877 -0.3401  0.4612  0.1429
   88SOPE   H8R 8297   2.715   0.912   3.858 -1.5400 -0.7195 -0.1098
   88SOPE   H8S 8298   2.755   0.788   3.971 -1.1286 -1.3372 -0.9807
   88SOPE   C29 8299   2.925   0.902   3.900 -0.1490  0.8264  0.4459
   88SOPE   H91 8300   2.977   0.929   3.807  0.1061  2.3141  0.9855
   88SOPE  C210 8301   2.972   0.935   4.023  0.5219  0.0139 -0.0156
   88SOPE  H101 8302   3.067   0.991   4.018  1.3851 -1.4646 -0.7900
   88SOPE  C211 8303   2.913   0.925   4.157 -0.4128  0.4952 -0.0299
   88SOPE  H11R 8304   2.802   0.921   4.154 -0.5011  0.4196  1.8857
   88SOPE  H11S 8305   2.943   1.014   4.215  0.0671 -0.3903  1.1324
   88SOPE  C212 8306   2.974   0.804   4.228 -0.1541 -0.0385 -0.5858
   88SOPE  H12R 8307   3.085   0.809   4.216 -0.1370  1.0312 -0.0317
   88SOPE  H12S 8308   2.943   0.708   4.180 -1.8895 -0.7562  1.7768
   88SOPE  C213 8309   2.923   0.791   4.376  0.4251  0.4470 -0.0833
   88SOPE  H13R 8310   2.974   0.709   4.430 -0.4302 -0.6817 -0.9290
   88SOPE  H13S 8311   2.812   0.778   4.382  0.7366 -2.2646  1.0983
   88SOPE  C214 8312   2.962   0.920   4.456 -0.7876  0.1868  0.6471
   88SOPE  H14R 8313   2.926   1.009   4.400 -1.2278  0.5700  1.5309
   88SOPE  H14S 8314   3.073   0.932   4.454 -0.8559  0.8436 -0.3507
   88SOPE  C215 8315   2.904   0.927   4.596  1.0367 -0.5616 -0.4117
   88SOPE  H15R 8316   2.793   0.924   4.587  0.9082 -1.6402  1.1466
   88SOPE  H15S 8317   2.933   1.023   4.644 -1.4674 -0.0038  0.1420
   88SOPE  C216 8318   2.946   0.810   4.685  0.0350  0.1367 -0.1032
   88SOPE  H16R 8319   3.057   0.823   4.691  0.3716 -1.4324 -1.9618
   88SOPE  H16S 8320   2.932   0.718   4.626 -1.2693  0.2242  0.0429
   88SOPE  C217 8321   2.881   0.792   4.827  0.1163 -0.1191 -0.1584
   88SOPE  H17R 8322   2.928   0.701   4.871 -0.8599 -1.6340 -2.0586
   88SOPE  H17S 8323   2.772   0.781   4.809  0.0909 -0.2627  0.0701
   88SOPE  C218 8324   2.895   0.916   4.921  0.0960  0.7993  0.0923
   88SOPE  H18R 8325   2.880   1.012   4.868  0.6826  1.3296  0.8506
   88SOPE  H18S 8326   3.001   0.920   4.956 -0.4493 -0.6059  2.1214
   88SOPE  H18T 8327   2.830   0.905   5.011  0.6017  0.5364  0.4349
   88SOPE   C33 8328   2.263   0.761   3.514 -0.1712  0.0128  0.1354
   88SOPE   H3X 8329   2.367   0.751   3.476  0.3275  0.1455  1.4428
   88SOPE   H3Y 8330   2.221   0.660   3.492  1.2394 -0.6295  0.2704
   88SOPE   C34 8331   2.253   0.785   3.665 -0.5058 -0.1929 -0.1276
   88SOPE   H4X 8332   2.144   0.798   3.682 -0.4780  0.0271 -0.1153
   88SOPE   H4Y 8333   2.306   0.879   3.691 -0.4077 -0.6382  1.3741
   88SOPE   C35 8334   2.315   0.674   3.749  0.2793  0.0432  0.2933
   88SOPE   H5X 8335   2.420   0.655   3.719  1.1315  1.8245  1.8995
   88SOPE   H5Y 8336   2.249   0.586   3.729 -2.4790  2.4251 -1.8579
   88SOPE   C36 8337   2.312   0.699   3.901  0.4527 -0.2455 -0.6785
   88SOPE   H6X 8338   2.215   0.740   3.938  1.6014  1.5619  0.4845
   88SOPE   H6Y 8339   2.367   0.794   3.917 -1.2222  0.8860 -1.3486
   88SOPE   C37 8340   2.358   0.586   3.995 -0.0619  0.2984  0.5746
   88SOPE   H7X 8341   2.463   0.559   3.970 -0.2448 -1.2829  1.3889
   88SOPE   H7Y 8342   2.284   0.506   3.972  0.8994 -0.4742  0.0903
   88SOPE   C38 8343   2.359   0.620   4.144  0.6107 -0.3826  0.0217
   88SOPE   H8X 8344   2.336   0.526   4.198 -2.1308 -0.2597 -0.7874
   88SOPE   H8Y 8345   2.272   0.685   4.168  0.5293 -0.9267  1.2847
   88SOPE   C39 8346   2.488   0.689   4.194 -0.3632 -0.9323  0.0688
   88SOPE   H9X 8347   2.503   0.781   4.134  0.9299 -0.8044  0.5640
   88SOPE   H9Y 8348   2.577   0.626   4.171 -0.0900 -0.0475 -1.4273
   88SOPE  C310 8349   2.499   0.720   4.343  0.6961 -0.1166  0.3732
   88SOPE  H10X 8350   2.407   0.743   4.402 -0.4915 -0.0533 -1.4370
   88SOPE  H10Y 8351   2.567   0.803   4.370 -0.8295  1.7100 -1.1721
   88SOPE  C311 8352   2.564   0.603   4.410 -0.0638  0.0986 -0.9322
   88SOPE  H11X 8353   2.656   0.571   4.358  0.5812  0.0686  0.1971
   88SOPE  H11Y 8354   2.492   0.519   4.397  1.4250 -2.0981  3.1401
   88SOPE  C312 8355   2.580   0.632   4.559 -0.9417  0.2038  0.6342
   88SOPE  H12X 8356   2.483   0.667   4.601 -0.4952  0.6358  1.3202
   88SOPE  H12Y 8357   2.664   0.703   4.574 -3.0111  2.4729  2.3723
   88SOPE  C313 8358   2.604   0.506   4.645 -0.1035  0.2554 -0.1095
   88SOPE  H13X 8359   2.702   0.465   4.612  0.3310 -0.3007  1.7397
   88SOPE  H13Y 8360   2.534   0.431   4.602 -0.1051 -0.3523  0.9156
   88SOPE  C314 8361   2.589   0.511   4.798  0.5882 -0.5433 -0.1608
   88SOPE  H14X 8362   2.520   0.433   4.836  0.9996 -0.1717  1.4197
   88SOPE  H14Y 8363   2.541   0.609   4.818 -0.0262 -1.0557  1.0235
   88SOPE  C315 8364   2.714   0.492   4.884 -0.4489  0.1903 -0.5038
   88SOPE  H15X 8365   2.694   0.514   4.991 -0.3966 -1.0911 -0.2094
   88SOPE  H15Y 8366   2.781   0.574   4.851  2.0676  0.3551  4.1245
   88SOPE  C316 8367   2.764   0.350   4.893 -0.3044  0.2755  0.5617
   88SOPE  H16X 8368   2.802   0.323   4.792 -0.1215  1.4211  0.3093
   88SOPE  H16Y 8369   2.681   0.279   4.916 -0.4435 -0.5635 -2.1278
   88SOPE  C317 8370   2.861   0.338   5.003  0.2737  0.5411 -0.1601
   88SOPE  H17X 8371   2.810   0.355   5.100 -0.5692 -0.7432 -0.3550
   88SOPE  H17Y 8372   2.927   0.425   4.983 -1.7874  2.1751 -0.2144
   88SOPE  C318 8373   2.934   0.209   5.016 -0.0024  0.2972 -0.3281
   88SOPE  H18X 8374   2.967   0.179   5.118  1.2168 -0.1945 -0.8572
   88SOPE  H18Y 8375   3.020   0.205   4.947  0.5384  0.8407  0.2975
   88SOPE  H18Z 8376   2.869   0.125   4.984  0.5177 -0.7699  1.3215
   89SAPC     N 8377   5.908   4.955   7.172  0.1885  0.6947  0.8369
   89SAPC   C12 8378   5.987   5.055   7.083 -0.0464 -0.1973 -0.2050
   89SAPC  H12A 8379   5.955   5.049   6.980  1.4519  0.2082 -0.7212
   89SAPC  H12B 8380   6.091   5.025   7.087 -0.3919 -1.2672  1.9171
   89SAPC   C13 8381   5.934   4.963   7.313 -0.0909 -0.4071  0.3681
   89SAPC  H13A 8382   5.916   5.064   7.347  2.6881  0.0415  0.7162
   89SAPC  H13B 8383   5.872   4.900   7.374 -0.7376 -0.2435 -0.1090
   89SAPC  H13C 8384   6.033   4.925   7.335 -0.9193 -1.3060  2.9481
   89SAPC   C14 8385   5.763   4.974   7.150  0.2823 -0.0270  0.1214
   89SAPC  H14A 8386   5.693   4.905   7.195  0.1982  1.0790  1.7924
   89SAPC  H14B 8387   5.733   5.068   7.195 -1.7348 -1.6132  2.3788
   89SAPC  H14C 8388   5.741   4.979   7.044 -1.9878  0.2567  0.5354
   89SAPC   C15 8389   5.953   4.817   7.128  0.1775 -0.4815  0.0474
   89SAPC  H15A 8390   6.058   4.798   7.148 -0.1330 -1.3368  0.9782
   89SAPC  H15B 8391   5.894   4.737   7.169  0.4129 -1.9668 -2.3209
   89SAPC  H15C 8392   5.935   4.809   7.022 -0.6117 -0.6440  0.1935
   89SAPC   C11 8393   5.979   5.202   7.134 -0.0597  0.2765  0.2471
   89SAPC  H11A 8394   6.065   5.246   7.080  1.5984 -1.9392  0.9097
   89SAPC  H11B 8395   6.014   5.204   7.239 -0.8138  2.2760  0.4935
   89SAPC     P 8396   5.829   5.338   6.979 -0.1660 -0.0680  0.3313
   89SAPC   O13 8397   5.684   5.349   6.951 -0.1173 -0.1406  0.1014
   89SAPC   O14 8398   5.907   5.459   6.966  0.3258  0.0125  0.2963
   89SAPC   O12 8399   5.859   5.269   7.118 -0.0134  0.1935 -0.1480
   89SAPC   O11 8400   5.897   5.223   6.889  0.1245  0.3977 -0.1331
   89SAPC    C1 8401   5.837   5.159   6.781  0.4457 -0.3756  0.1358
   89SAPC    HA 8402   5.903   5.077   6.747 -1.9826 -2.1741 -0.4983
   89SAPC    HB 8403   5.739   5.117   6.812  0.1243  0.7722  0.7260
   89SAPC    C2 8404   5.816   5.249   6.656  0.7276  1.0017  0.5631
   89SAPC    HS 8405   5.732   5.321   6.672 -0.6751 -0.6467  1.0012
   89SAPC   O21 8406   5.797   5.160   6.542 -0.1434 -0.4830 -0.4585
   89SAPC   C21 8407   5.725   5.218   6.446  0.4482 -0.5115 -0.2628
   89SAPC   O22 8408   5.665   5.323   6.445  0.6960 -1.1052  0.3790
   89SAPC   C22 8409   5.703   5.113   6.340  0.3048  0.3448 -0.3824
   89SAPC   H2R 8410   5.784   5.039   6.358  0.3867  1.0349  2.5168
   89SAPC   H2S 8411   5.611   5.056   6.365  0.5952 -0.6430 -1.4499
   89SAPC    C3 8412   5.943   5.333   6.620 -0.7138 -0.5107 -0.7129
   89SAPC    HX 8413   6.016   5.250   6.611 -0.1049 -0.0992  0.2658
   89SAPC    HY 8414   5.963   5.390   6.713  0.9254  1.1172 -1.9881
   89SAPC   O31 8415   5.936   5.414   6.502  0.0516 -0.1922 -0.0756
   89SAPC   C31 8416   5.870   5.528   6.517 -1.1355 -0.2124  0.0478
   89SAPC   O32 8417   5.824   5.574   6.614  0.2045 -0.0938  0.2261
   89SAPC   C32 8418   5.863   5.577   6.376  0.2805 -1.3060  0.0668
   89SAPC   H2X 8419   5.764   5.626   6.361  1.3635  0.7189 -0.9056
   89SAPC   H2Y 8420   5.860   5.491   6.305  1.5205 -1.4144  0.1234
   89SAPC   C23 8421   5.698   5.177   6.203 -0.2514 -0.1780  0.0921
   89SAPC   H3R 8422   5.777   5.246   6.166 -0.2196  0.4677  1.3067
   89SAPC   H3S 8423   5.614   5.250   6.197  0.9311  1.4989  2.4123
   89SAPC   C24 8424   5.681   5.072   6.095  0.1485 -0.3558 -0.4448
   89SAPC   H4R 8425   5.614   5.000   6.147 -0.9586  0.4458 -0.7356
   89SAPC   H4S 8426   5.779   5.022   6.077 -0.1425 -0.7026 -1.0733
   89SAPC   C25 8427   5.600   5.107   5.972 -0.0107 -0.1043 -0.1271
   89SAPC   H5R 8428   5.493   5.129   5.985  0.0352  0.6881 -0.9632
   89SAPC   C26 8429   5.646   5.106   5.848  0.9459  0.2419 -0.2470
   89SAPC   H6R 8430   5.569   5.124   5.772 -0.3978 -4.1290 -0.2136
   89SAPC   C27 8431   5.784   5.082   5.794 -0.4730 -0.3080  0.3716
   89SAPC   H7R 8432   5.786   5.008   5.711  1.1501  0.4831 -0.3478
   89SAPC   H7S 8433   5.849   5.042   5.874 -1.0015 -1.2625  0.3405
   89SAPC   C28 8434   5.848   5.209   5.743  0.5800 -0.1094  0.6167
   89SAPC   H8R 8435   5.906   5.263   5.820  2.0376 -0.6686 -0.0547
   89SAPC   C29 8436   5.821   5.268   5.624  0.2866  0.0339 -0.1173
   89SAPC   H9R 8437   5.868   5.364   5.600  1.8847 -0.4525  0.9315
   89SAPC  C210 8438   5.740   5.202   5.525 -0.5040  0.2805  1.2337
   89SAPC  H10R 8439   5.635   5.217   5.559  0.0499  1.1073  2.6415
   89SAPC  H10S 8440   5.757   5.093   5.521 -0.6198  0.2803 -1.7325
   89SAPC  C211 8441   5.742   5.254   5.384  0.1280  0.0750  0.2718
   89SAPC  H11R 8442   5.671   5.335   5.360  1.8884  1.3431 -0.9255
   89SAPC  C212 8443   5.805   5.200   5.278  0.3400  0.4025 -1.1076
   89SAPC  H12R 8444   5.782   5.240   5.178  0.1907  2.1812 -0.3939
   89SAPC  C213 8445   5.901   5.078   5.281 -0.1806  0.3500 -0.6053
   89SAPC  H13R 8446   5.859   4.990   5.334  1.4022 -0.0066  0.1221
   89SAPC  H13S 8447   5.993   5.104   5.337 -1.3541  3.6153 -0.0024
   89SAPC  C214 8448   5.952   5.013   5.150 -0.2797  0.2678  0.0046
   89SAPC  H14R 8449   5.942   4.903   5.159  2.8975 -0.1624 -0.4591
   89SAPC  C215 8450   6.009   5.054   5.038 -0.3028 -0.3032  0.9440
   89SAPC  H15R 8451   6.036   4.978   4.964  1.2572 -0.5699  1.7476
   89SAPC  C216 8452   6.042   5.202   5.004  0.3465 -0.1705 -0.9087
   89SAPC  H16R 8453   6.120   5.234   5.077  1.1052  0.2955 -1.9028
   89SAPC  H16S 8454   5.954   5.269   5.015  0.5988  0.2880 -1.5847
   89SAPC  C217 8455   6.067   5.193   4.850 -0.2095  0.2943  0.1140
   89SAPC  H17R 8456   6.083   5.297   4.814 -0.1945  0.6718  1.1779
   89SAPC  H17S 8457   5.987   5.145   4.789 -0.4616  2.4065 -1.3274
   89SAPC  C218 8458   6.199   5.118   4.808 -0.5219  0.2780 -0.1549
   89SAPC  H18R 8459   6.165   5.013   4.820 -1.0532  0.3703 -0.7597
   89SAPC  H18S 8460   6.278   5.140   4.883 -0.4524  0.6627 -0.3426
   89SAPC  C219 8461   6.242   5.128   4.656  0.3823 -0.5362  0.1960
   89SAPC  H19R 8462   6.287   5.229   4.652 -3.0489  1.3618  3.5476
   89SAPC  H19S 8463   6.147   5.128   4.598  0.5292  1.5447 -0.1024
   89SAPC  C220 8464   6.326   5.007   4.606  0.4326  0.0888  0.0631
   89SAPC  H20R 8465   6.420   5.005   4.665  0.3355 -0.7793  0.1877
   89SAPC  H20S 8466   6.350   5.026   4.499  2.1000  1.9727  0.7118
   89SAPC  H20T 8467   6.279   4.907   4.619  1.6316 -0.6112 -0.7967
   89SAPC   C33 8468   5.975   5.664   6.328  0.0870  0.3366  0.5269
   89SAPC   H3X 8469   6.079   5.627   6.340  0.3220  1.3653  1.9834
   89SAPC   H3Y 8470   5.984   5.768   6.367  2.8651  0.9110 -1.3184
   89SAPC   C34 8471   5.967   5.687   6.177 -0.1927 -0.1277 -0.4616
   89SAPC   H4X 8472   5.865   5.715   6.142  0.5586  1.6851 -1.3610
   89SAPC   H4Y 8473   5.988   5.595   6.120 -0.6266 -1.2779  1.1652
   89SAPC   C35 8474   6.067   5.802   6.146 -0.5061 -0.3616  1.2746
   89SAPC   H5X 8475   6.165   5.764   6.181  0.5220 -1.5392 -2.3537
   89SAPC   H5Y 8476   6.044   5.897   6.198 -0.7729  0.4216 -0.2075
   89SAPC   C36 8477   6.087   5.848   6.005 -0.6416 -0.1981 -0.2853
   89SAPC   H6X 8478   6.001   5.894   5.952  2.1706  1.2955 -4.0057
   89SAPC   H6Y 8479   6.102   5.756   5.945 -0.7647 -1.6586  1.8019
   89SAPC   C37 8480   6.209   5.939   6.003  0.2734  0.4122 -0.0385
   89SAPC   H7X 8481   6.296   5.894   6.057  1.2202 -0.2026 -2.0058
   89SAPC   H7Y 8482   6.187   6.037   6.051  0.6269  0.6881 -0.4375
   89SAPC   C38 8483   6.244   5.996   5.863 -0.0873  0.4091  0.4485
   89SAPC   H8X 8484   6.282   6.100   5.868  1.0121  0.0194  0.4221
   89SAPC   H8Y 8485   6.144   5.994   5.814  0.1297 -1.4751  0.0222
   89SAPC   C39 8486   6.325   5.897   5.777  0.1314 -0.2686 -0.1818
   89SAPC   H9X 8487   6.279   5.796   5.787 -0.2461 -0.2308 -1.3777
   89SAPC   H9Y 8488   6.427   5.877   5.815 -0.2767 -0.9087  0.6333
   89SAPC  C310 8489   6.302   5.929   5.627  0.2881  0.0621 -0.0670
   89SAPC  H10X 8490   6.310   6.040   5.627 -0.6550  0.1876  2.1263
   89SAPC  H10Y 8491   6.195   5.912   5.603  0.4290 -2.1344  0.6447
   89SAPC  C311 8492   6.387   5.851   5.528 -0.2573 -0.8831 -0.3362
   89SAPC  H11X 8493   6.350   5.748   5.512 -1.3098 -0.6592  0.5222
   89SAPC  H11Y 8494   6.488   5.836   5.573 -1.1120  0.3327  2.1604
   89SAPC  C312 8495   6.378   5.924   5.395  0.4160 -0.4233  0.5509
   89SAPC  H12X 8496   6.417   6.027   5.410 -3.0615  0.9801  0.8506
   89SAPC  H12Y 8497   6.273   5.933   5.361  0.4327  1.5876  0.8880
   89SAPC  C313 8498   6.453   5.847   5.291  0.4094 -0.3451  0.0438
   89SAPC  H13X 8499   6.412   5.744   5.282 -1.5043  0.4394 -0.5818
   89SAPC  H13Y 8500   6.557   5.848   5.331  0.3475  0.2015  0.1925
   89SAPC  C314 8501   6.453   5.916   5.149 -0.6792 -0.4001  0.4525
   89SAPC  H14X 8502   6.511   6.011   5.149 -1.3094  0.0028 -0.8333
   89SAPC  H14Y 8503   6.349   5.937   5.117 -1.0021 -2.2610  0.1717
   89SAPC  C315 8504   6.515   5.823   5.038 -0.2664 -0.3671  0.4016
   89SAPC  H15X 8505   6.486   5.856   4.936  0.8621  0.5349  0.3559
   89SAPC  H15Y 8506   6.470   5.723   5.055 -1.6828  0.3947  1.3384
   89SAPC  C316 8507   6.667   5.826   5.036  0.1669 -0.5223 -0.4889
   89SAPC  H16X 8508   6.708   5.724   5.015  1.8131 -0.0189  0.1036
   89SAPC  H16Y 8509   6.701   5.835   5.142  0.5093  0.3166 -0.6669
   89SAPC  C317 8510   6.716   5.944   4.953  0.1892  0.5112 -0.2858
   89SAPC  H17X 8511   6.823   5.958   4.977 -0.3162  1.8924  1.3402
   89SAPC  H17Y 8512   6.657   6.036   4.971  2.0272  1.6789 -0.0111
   89SAPC  C318 8513   6.710   5.897   4.804 -0.3976 -0.3727 -0.4306
   89SAPC  H18X 8514   6.741   5.983   4.742  0.1125 -0.2255  0.0185
   89SAPC  H18Y 8515   6.611   5.859   4.772 -1.7329  1.6817  0.9940
   89SAPC  H18Z 8516   6.781   5.812   4.793 -2.1304 -1.9737  0.1143
   90SAPC     N 8517   0.937   4.939   7.232  0.3343  0.5943 -0.5035
   90SAPC   C12 8518   1.036   4.960   7.120 -0.5248 -0.0390  0.4994
   90SAPC  H12A 8519   1.135   4.977   7.161 -0.1520  2.2835 -1.1416
   90SAPC  H12B 8520   1.018   5.050   7.064 -2.9425 -1.0491 -0.4955
   90SAPC   C13 8521   0.982   4.832   7.329 -0.1381 -0.2033  0.5963
   90SAPC  H13A 8522   0.891   4.795   7.375  0.1548 -2.3238 -0.4225
   90SAPC  H13B 8523   1.028   4.749   7.278  0.3292  0.7109 -0.5037
   90SAPC  H13C 8524   1.059   4.870   7.394  0.8091  1.5736 -1.4593
   90SAPC   C14 8525   0.896   5.056   7.313 -0.4749 -0.4074  0.3659
   90SAPC  H14A 8526   0.823   5.029   7.388 -2.0963  0.2761 -0.9119
   90SAPC  H14B 8527   0.979   5.087   7.376 -0.5879  0.2934  0.1695
   90SAPC  H14C 8528   0.856   5.129   7.245 -3.0030 -3.3622 -1.5997
   90SAPC   C15 8529   0.812   4.885   7.164  0.0304  0.0351 -0.0423
   90SAPC  H15A 8530   0.774   4.957   7.093  0.5126 -1.0187 -1.4243
   90SAPC  H15B 8531   0.834   4.791   7.115  1.2198 -0.2704  1.0278
   90SAPC  H15C 8532   0.727   4.858   7.225 -1.1691  0.4134 -1.4766
   90SAPC   C11 8533   1.051   4.849   7.011  0.3514 -0.2262 -0.6677
   90SAPC  H11A 8534   1.118   4.886   6.930  1.0537 -1.1896 -0.5523
   90SAPC  H11B 8535   0.956   4.821   6.961  1.4553 -3.3219 -1.2653
   90SAPC     P 8536   1.263   4.709   7.097 -0.0063  0.3916  0.2437
   90SAPC   O13 8537   1.292   4.768   7.235  0.1395  0.0004  0.0738
   90SAPC   O14 8538   1.298   4.565   7.076  0.0536 -0.0610  0.5557
   90SAPC   O12 8539   1.107   4.729   7.062  0.2605 -0.6895  0.0891
   90SAPC   O11 8540   1.339   4.799   7.003 -0.2838 -0.3996  0.4861
   90SAPC    C1 8541   1.486   4.782   6.985 -0.5701 -0.3279  0.4795
   90SAPC    HA 8542   1.545   4.873   7.008  1.6655 -1.5087 -0.2904
   90SAPC    HB 8543   1.518   4.689   7.035 -1.3905 -0.2989  1.0914
   90SAPC    C2 8544   1.510   4.769   6.832 -0.1764  0.2284  0.4680
   90SAPC    HS 8545   1.608   4.815   6.808  1.2501 -2.6516  0.3312
   90SAPC   O21 8546   1.413   4.826   6.745  0.3055  0.2698 -0.1443
   90SAPC   C21 8547   1.394   4.962   6.761 -0.1729  0.0514  0.3485
   90SAPC   O22 8548   1.454   5.033   6.841  0.5039  0.6390 -0.9860
   90SAPC   C22 8549   1.285   5.005   6.659 -0.6896 -1.0871  1.1646
   90SAPC   H2R 8550   1.263   4.927   6.582  0.3531 -0.0023 -0.2989
   90SAPC   H2S 8551   1.193   5.019   6.719 -2.2661  0.3246 -1.3919
   90SAPC    C3 8552   1.537   4.625   6.797 -0.2767  0.1590 -0.4336
   90SAPC    HX 8553   1.469   4.560   6.855  0.7259 -0.1249  0.4625
   90SAPC    HY 8554   1.631   4.608   6.855 -1.3032  0.8131  1.4906
   90SAPC   O31 8555   1.558   4.610   6.649  0.2496  0.2038 -0.5855
   90SAPC   C31 8556   1.456   4.547   6.596  0.3093  1.1111  0.1111
   90SAPC   O32 8557   1.360   4.505   6.659  0.1439 -0.3715 -0.7363
   90SAPC   C32 8558   1.474   4.522   6.446  0.4618  0.0247  0.1809
   90SAPC   H2X 8559   1.534   4.430   6.431  1.8604  0.9029  0.0883
   90SAPC   H2Y 8560   1.544   4.602   6.411 -0.1926  0.5798  0.1180
   90SAPC   C23 8561   1.310   5.139   6.591 -0.3639  0.1324  0.5481
   90SAPC   H3R 8562   1.349   5.214   6.663 -1.0264  0.5673  0.4559
   90SAPC   H3S 8563   1.218   5.185   6.549  0.0634  1.2840  0.8268
   90SAPC   C24 8564   1.418   5.130   6.479 -0.3213  1.0235  0.2922
   90SAPC   H4R 8565   1.404   5.226   6.424 -2.1053  1.3002  1.1848
   90SAPC   H4S 8566   1.393   5.054   6.403  0.6708 -1.2669  2.1364
   90SAPC   C25 8567   1.552   5.118   6.535 -0.4622 -0.1209  0.2318
   90SAPC   H5R 8568   1.600   5.201   6.589  1.4190 -1.9908  1.5796
   90SAPC   C26 8569   1.641   5.018   6.507 -0.0735 -0.4245  0.9906
   90SAPC   H6R 8570   1.746   5.017   6.540 -0.0467  0.7494  0.9802
   90SAPC   C27 8571   1.606   4.893   6.426 -0.0103 -0.3432 -0.1125
   90SAPC   H7R 8572   1.497   4.872   6.426 -0.2201  0.2519  2.7385
   90SAPC   H7S 8573   1.640   4.806   6.485  1.2491  1.4985  2.0604
   90SAPC   C28 8574   1.678   4.886   6.295  0.6161  0.8306 -0.0421
   90SAPC   H8R 8575   1.784   4.871   6.320  0.7259  1.1541 -0.2998
   90SAPC   C29 8576   1.633   4.889   6.167 -0.1110 -0.1763 -0.1008
   90SAPC   H9R 8577   1.710   4.898   6.090 -0.2497  1.0643 -0.1150
   90SAPC  C210 8578   1.488   4.916   6.136  0.2685 -0.6297 -0.2034
   90SAPC  H10R 8579   1.417   4.900   6.219 -1.4079  2.0187 -0.9942
   90SAPC  H10S 8580   1.457   4.839   6.061 -0.5786 -2.4515  1.9189
   90SAPC  C211 8581   1.462   5.060   6.085  0.8763 -0.3954 -0.2408
   90SAPC  H11R 8582   1.520   5.140   6.133  0.3673  1.2924 -2.2873
   90SAPC  C212 8583   1.379   5.098   5.989 -0.3259 -0.6298 -0.1928
   90SAPC  H12R 8584   1.391   5.203   5.955  1.5018 -0.6003  0.4607
   90SAPC  C213 8585   1.282   5.015   5.907  0.0557 -0.2605  0.4296
   90SAPC  H13R 8586   1.280   4.906   5.931  0.4266 -0.3134  0.2312
   90SAPC  H13S 8587   1.309   5.023   5.800  1.2923  1.1127  0.8209
   90SAPC  C214 8588   1.142   5.066   5.940 -0.7037 -0.7800  0.6563
   90SAPC  H14R 8589   1.108   5.046   6.043 -1.1633  0.5265  0.7720
   90SAPC  C215 8590   1.062   5.132   5.861 -0.1739 -0.1265  0.1387
   90SAPC  H15R 8591   0.959   5.160   5.888 -0.7178 -0.3417 -1.5885
   90SAPC  C216 8592   1.099   5.174   5.720  0.0488  0.0069  0.4868
   90SAPC  H16R 8593   1.159   5.097   5.668  0.2322  0.6462 -0.2646
   90SAPC  H16S 8594   1.169   5.260   5.722  1.3697 -0.9817 -0.8701
   90SAPC  C217 8595   0.980   5.212   5.633 -0.0761  0.4644 -0.4134
   90SAPC  H17R 8596   0.923   5.293   5.683  1.0170  0.6816  0.5274
   90SAPC  H17S 8597   0.911   5.126   5.642  0.7510  0.0048  2.2902
   90SAPC  C218 8598   1.019   5.226   5.489 -0.4511 -0.5742 -0.2597
   90SAPC  H18R 8599   1.081   5.141   5.452  0.8159  0.8976 -1.7358
   90SAPC  H18S 8600   1.073   5.323   5.492 -2.3343  0.5427 -0.8753
   90SAPC  C219 8601   0.907   5.221   5.386  0.1119 -0.1481 -0.5378
   90SAPC  H19R 8602   0.836   5.305   5.402 -0.3235 -0.2953 -1.6088
   90SAPC  H19S 8603   0.857   5.123   5.399  0.6237 -0.4186 -0.5850
   90SAPC  C220 8604   0.949   5.223   5.240 -1.1374 -0.6644 -0.1001
   90SAPC  H20R 8605   1.018   5.306   5.217 -1.3203 -0.4261  0.1895
   90SAPC  H20S 8606   0.861   5.230   5.173 -0.3029 -1.9500 -1.3732
   90SAPC  H20T 8607   1.003   5.130   5.214 -2.2437 -0.5648 -3.1951
   90SAPC   C33 8608   1.353   4.526   6.363 -0.0891 -0.0422  0.1740
   90SAPC   H3X 8609   1.303   4.619   6.399  2.9112  0.6428  3.0746
   90SAPC   H3Y 8610   1.284   4.440   6.378 -2.1333  1.3848 -0.6166
   90SAPC   C34 8611   1.371   4.540   6.212 -0.8593 -0.3361 -0.0493
   90SAPC   H4X 8612   1.437   4.627   6.194 -1.2386  0.1201  0.7271
   90SAPC   H4Y 8613   1.281   4.571   6.155 -0.9315  1.9603  1.2162
   90SAPC   C35 8614   1.455   4.432   6.140  0.4238  0.4617 -0.6561
   90SAPC   H5X 8615   1.433   4.329   6.176 -0.8343 -0.3523 -3.4267
   90SAPC   H5Y 8616   1.564   4.449   6.157  0.0221  0.5526  2.3415
   90SAPC   C36 8617   1.432   4.448   5.993  0.0547  0.4902  0.9810
   90SAPC   H6X 8618   1.432   4.555   5.961 -1.7947 -0.1982 -1.6863
   90SAPC   H6Y 8619   1.336   4.408   5.954  0.9223 -0.7135 -0.0091
   90SAPC   C37 8620   1.536   4.362   5.925  0.0147  0.6314 -0.4092
   90SAPC   H7X 8621   1.529   4.258   5.962  2.1349  1.0934  1.5002
   90SAPC   H7Y 8622   1.632   4.414   5.947  0.2839  1.5711 -3.4264
   90SAPC   C38 8623   1.539   4.356   5.769 -0.1116 -0.0387  0.3270
   90SAPC   H8X 8624   1.499   4.457   5.746  1.3930  0.6789  0.6732
   90SAPC   H8Y 8625   1.479   4.270   5.733 -0.2795  1.2072 -2.6967
   90SAPC   C39 8626   1.684   4.342   5.714 -0.2478 -0.4201 -0.2232
   90SAPC   H9X 8627   1.716   4.240   5.745  0.1731  0.3381  1.9834
   90SAPC   H9Y 8628   1.735   4.414   5.781 -1.8028  0.3011  0.2232
   90SAPC  C310 8629   1.699   4.386   5.563 -0.5068 -0.5684 -0.4507
   90SAPC  H10X 8630   1.803   4.415   5.540 -0.2352  0.4948  1.8569
   90SAPC  H10Y 8631   1.619   4.461   5.543 -0.7183 -0.2620  1.4146
   90SAPC  C311 8632   1.656   4.264   5.474  0.5183 -0.7604  0.0865
   90SAPC  H11X 8633   1.552   4.228   5.491 -0.0088  1.2727  1.5196
   90SAPC  H11Y 8634   1.736   4.194   5.503  3.7527  1.8993 -1.6563
   90SAPC  C312 8635   1.656   4.298   5.327 -0.3521  0.0331  0.6652
   90SAPC  H12X 8636   1.744   4.360   5.302 -0.5086  0.0292  0.0853
   90SAPC  H12Y 8637   1.568   4.363   5.305  0.9226  1.2291 -1.1612
   90SAPC  C313 8638   1.635   4.179   5.224 -0.3401  0.7660  0.5076
   90SAPC  H13X 8639   1.584   4.098   5.279 -1.0951  0.5110 -0.5474
   90SAPC  H13Y 8640   1.738   4.149   5.195 -0.5169 -0.9420  1.5163
   90SAPC  C314 8641   1.556   4.227   5.101 -0.4472 -0.6092 -0.0364
   90SAPC  H14X 8642   1.609   4.305   5.044 -0.5526  0.3804  1.1805
   90SAPC  H14Y 8643   1.462   4.273   5.139  0.3275  0.4982  0.5565
   90SAPC  C315 8644   1.519   4.112   5.006 -0.2770 -0.5084 -0.5169
   90SAPC  H15X 8645   1.476   4.032   5.069 -0.0885 -0.0259  0.2282
   90SAPC  H15Y 8646   1.614   4.076   4.960  0.9041  2.0871 -0.2881
   90SAPC  C316 8647   1.432   4.144   4.886 -0.2382 -0.0672  0.7987
   90SAPC  H16X 8648   1.456   4.075   4.803  0.3301 -1.8891  2.4014
   90SAPC  H16Y 8649   1.441   4.248   4.848 -1.6334  0.1284  0.9484
   90SAPC  C317 8650   1.281   4.121   4.925  0.7275  0.7654 -0.4728
   90SAPC  H17X 8651   1.254   4.188   5.009 -2.1109  0.4261 -1.0308
   90SAPC  H17Y 8652   1.272   4.014   4.951 -0.2111  0.9237 -0.1308
   90SAPC  C318 8653   1.185   4.156   4.810  0.0578  0.3722 -0.0165
   90SAPC  H18X 8654   1.085   4.110   4.823  0.3591 -0.0591  0.8816
   90SAPC  H18Y 8655   1.235   4.117   4.719 -1.0075 -1.5583  0.1606
   90SAPC  H18Z 8656   1.173   4.266   4.803  1.8751  0.5335 -1.3487
   91SAPC     N 8657   6.493   3.303   7.421  0.3275 -0.2269 -0.1878
   91SAPC   C12 8658   6.354   3.291   7.364  0.0390 -0.5759 -0.5808
   91SAPC  H12A 8659   6.315   3.386   7.333 -2.6886 -0.9622  1.3628
   91SAPC  H12B 8660   6.287   3.257   7.441  0.3049 -0.1655 -0.1648
   91SAPC   C13 8661   6.564   3.179   7.407  0.3107  0.1338 -0.3872
   91SAPC  H13A 8662   6.670   3.194   7.417  0.3699 -0.7607  0.4638
   91SAPC  H13B 8663   6.542   3.104   7.481  4.8657 -0.4144  0.6888
   91SAPC  H13C 8664   6.550   3.145   7.305  3.0773 -0.0863 -0.7506
   91SAPC   C14 8665   6.579   3.395   7.327  0.4380 -0.1941  0.1170
   91SAPC  H14A 8666   6.521   3.482   7.299  0.5649 -0.8534 -2.5008
   91SAPC  H14B 8667   6.672   3.428   7.370  1.0794 -1.4784 -0.2475
   91SAPC  H14C 8668   6.593   3.357   7.227 -3.1596  2.8917 -1.8441
   91SAPC   C15 8669   6.492   3.346   7.564 -0.2571  0.2000  0.1770
   91SAPC  H15A 8670   6.593   3.357   7.601  1.1859 -0.4526 -3.1673
   91SAPC  H15B 8671   6.450   3.444   7.579  0.3132  0.3423  0.8923
   91SAPC  H15C 8672   6.425   3.287   7.625 -1.0314  0.4464 -0.4209
   91SAPC   C11 8673   6.328   3.199   7.237 -0.5294 -0.0531  0.7050
   91SAPC  H11A 8674   6.220   3.200   7.214 -0.3318 -4.3077 -1.3298
   91SAPC  H11B 8675   6.364   3.098   7.268  1.6260  0.2050 -0.7246
   91SAPC     P 8676   6.330   3.376   7.053  0.3030  0.2990 -0.0871
   91SAPC   O13 8677   6.208   3.333   6.983  0.2877 -0.3233 -0.2845
   91SAPC   O14 8678   6.324   3.485   7.149  0.0740  0.1312  0.5109
   91SAPC   O12 8679   6.407   3.251   7.120 -0.0826  0.1456 -0.3877
   91SAPC   O11 8680   6.419   3.408   6.933 -0.1999 -0.5971  0.2719
   91SAPC    C1 8681   6.408   3.323   6.818 -0.3768 -0.3171  0.1860
   91SAPC    HA 8682   6.438   3.218   6.841 -1.5389 -0.9851 -1.2150
   91SAPC    HB 8683   6.309   3.306   6.771  0.6897  0.1032 -2.3814
   91SAPC    C2 8684   6.503   3.381   6.710 -0.2790  0.2267  0.1730
   91SAPC    HS 8685   6.446   3.462   6.661 -2.7100  0.5410  3.1700
   91SAPC   O21 8686   6.537   3.276   6.616 -0.5152 -0.4670  0.2889
   91SAPC   C21 8687   6.456   3.256   6.518 -0.0042  0.2426  0.4047
   91SAPC   O22 8688   6.346   3.307   6.514 -0.2085  0.0151 -0.6708
   91SAPC   C22 8689   6.524   3.177   6.407 -0.2864  1.4122  0.1709
   91SAPC   H2R 8690   6.633   3.165   6.425 -0.1617 -0.0481 -1.3833
   91SAPC   H2S 8691   6.478   3.077   6.422  0.0955  1.1659 -0.2801
   91SAPC    C3 8692   6.633   3.436   6.768  0.1791  0.1291 -0.4648
   91SAPC    HX 8693   6.678   3.361   6.837  0.0356  1.2984  0.9533
   91SAPC    HY 8694   6.600   3.516   6.837 -3.4246 -0.5157 -1.2135
   91SAPC   O31 8695   6.726   3.473   6.667 -0.3334  0.1106 -0.2654
   91SAPC   C31 8696   6.814   3.382   6.635 -0.4232 -0.5192 -0.3757
   91SAPC   O32 8697   6.830   3.276   6.691  0.1012 -0.3547  0.1327
   91SAPC   C32 8698   6.898   3.435   6.519  0.5262  0.4803 -0.5856
   91SAPC   H2X 8699   7.000   3.450   6.562  0.4276  0.0699 -0.1942
   91SAPC   H2Y 8700   6.858   3.531   6.483  0.0252  0.5356  0.1086
   91SAPC   C23 8701   6.492   3.220   6.256 -0.2963  0.3489 -1.0061
   91SAPC   H3R 8702   6.529   3.324   6.249 -0.2582  0.6124  1.8128
   91SAPC   H3S 8703   6.382   3.210   6.247 -0.3167 -0.2248 -0.2521
   91SAPC   C24 8704   6.555   3.135   6.148 -0.5188  0.0926  0.4110
   91SAPC   H4R 8705   6.661   3.102   6.153 -0.2107  0.7712 -1.0751
   91SAPC   H4S 8706   6.547   3.195   6.054  0.5688 -0.2829  0.0521
   91SAPC   C25 8707   6.500   2.996   6.130  0.0669 -0.7694 -0.0771
   91SAPC   H5R 8708   6.505   2.931   6.219  1.0866 -1.2485 -0.4702
   91SAPC   C26 8709   6.454   2.936   6.020 -1.0047 -0.2972  0.0489
   91SAPC   H6R 8710   6.423   2.831   6.026  1.6103 -1.0727  1.1779
   91SAPC   C27 8711   6.462   2.995   5.881  0.1292 -1.0647 -0.4629
   91SAPC   H7R 8712   6.403   2.925   5.818 -1.9778  1.3991 -1.4605
   91SAPC   H7S 8713   6.563   2.985   5.836  0.8002 -0.2869  0.8135
   91SAPC   C28 8714   6.403   3.133   5.845 -0.0344 -0.5509 -0.3748
   91SAPC   H8R 8715   6.321   3.167   5.910 -0.5470  2.1019 -2.2260
   91SAPC   C29 8716   6.423   3.209   5.737 -1.0356 -0.3490  0.0323
   91SAPC   H9R 8717   6.389   3.313   5.738  0.6486  0.2585  2.1728
   91SAPC  C210 8718   6.516   3.173   5.628  0.1270 -0.5056 -0.1071
   91SAPC  H10R 8719   6.598   3.112   5.671 -0.2606 -0.5721  0.5436
   91SAPC  H10S 8720   6.561   3.263   5.580 -0.0141  1.1840  2.6756
   91SAPC  C211 8721   6.441   3.100   5.523 -0.2965  0.6203  0.4021
   91SAPC  H11R 8722   6.331   3.097   5.532 -0.1111 -1.2305  3.2990
   91SAPC  C212 8723   6.497   3.059   5.407  0.5175  0.0333  0.2892
   91SAPC  H12R 8724   6.417   3.026   5.339  1.1613 -1.2095  0.1102
   91SAPC  C213 8725   6.642   3.064   5.371  0.6939 -0.0797  0.7132
   91SAPC  H13R 8726   6.667   2.990   5.291 -0.3508  0.8174 -0.4904
   91SAPC  H13S 8727   6.709   3.039   5.455  2.9494 -0.8920 -1.1992
   91SAPC  C214 8728   6.684   3.196   5.317 -0.1867 -0.1907 -0.6872
   91SAPC  H14R 8729   6.608   3.238   5.249 -1.0303 -0.6209 -0.0332
   91SAPC  C215 8730   6.810   3.245   5.331 -0.4935 -0.1911 -0.3831
   91SAPC  H15R 8731   6.831   3.347   5.295  0.4761  0.5153  1.9699
   91SAPC  C216 8732   6.924   3.187   5.406 -0.7877 -0.2944  0.6332
   91SAPC  H16R 8733   6.891   3.100   5.468 -2.7737  0.1257  0.2276
   91SAPC  H16S 8734   6.953   3.260   5.484  0.9626 -0.9789  0.6550
   91SAPC  C217 8735   7.055   3.162   5.331  0.2892  0.6891  0.5780
   91SAPC  H17R 8736   7.144   3.123   5.386 -1.7024 -2.4441  1.8888
   91SAPC  H17S 8737   7.085   3.259   5.285 -1.7825  0.6040 -1.0497
   91SAPC  C218 8738   7.039   3.058   5.215 -0.3504  0.6088 -0.0291
   91SAPC  H18R 8739   6.955   3.092   5.152  0.2900  1.6518 -0.3373
   91SAPC  H18S 8740   7.008   2.960   5.258 -2.2443  1.1157 -0.1299
   91SAPC  C219 8741   7.160   3.026   5.124 -0.3990 -0.2728  0.1786
   91SAPC  H19R 8742   7.238   2.978   5.186  0.5517 -0.5077 -1.1687
   91SAPC  H19S 8743   7.197   3.128   5.098  1.7771 -1.0390  0.1030
   91SAPC  C220 8744   7.131   2.948   4.992 -0.9126 -0.5886  0.1680
   91SAPC  H20R 8745   7.103   2.842   5.011  0.2773 -1.1053 -0.8409
   91SAPC  H20S 8746   7.225   2.953   4.933 -0.2888 -1.2983  1.0721
   91SAPC  H20T 8747   7.050   3.002   4.939 -0.5370  0.5871  0.7424
   91SAPC   C33 8748   6.899   3.335   6.403 -0.3230  0.9357 -0.3873
   91SAPC   H3X 8749   6.798   3.294   6.382 -0.3738  0.0075  1.5207
   91SAPC   H3Y 8750   6.955   3.241   6.424 -0.7039  1.1897  2.0578
   91SAPC   C34 8751   6.942   3.384   6.262 -0.8465 -0.1891 -0.2225
   91SAPC   H4X 8752   7.048   3.414   6.250 -0.8939  0.0689  0.0032
   91SAPC   H4Y 8753   6.877   3.472   6.244 -2.1644 -0.6325  1.9514
   91SAPC   C35 8754   6.920   3.273   6.153 -0.1478  0.4313 -0.1002
   91SAPC   H5X 8755   6.810   3.271   6.136  0.0754 -0.9772 -1.6081
   91SAPC   H5Y 8756   6.940   3.170   6.190 -0.6472  0.3898  0.0693
   91SAPC   C36 8757   6.991   3.307   6.025 -0.8816  0.4695  0.4066
   91SAPC   H6X 8758   7.100   3.309   6.045 -0.6989 -1.5056 -0.1498
   91SAPC   H6Y 8759   6.969   3.406   5.980  0.8949  0.4835 -0.5185
   91SAPC   C37 8760   6.963   3.199   5.931  0.5048  0.3748  0.0898
   91SAPC   H7X 8761   6.856   3.167   5.927  0.7168 -0.4096  0.3724
   91SAPC   H7Y 8762   7.020   3.116   5.978  0.2865  1.2334  1.9352
   91SAPC   C38 8763   6.998   3.222   5.784  0.4392 -0.1869  0.3804
   91SAPC   H8X 8764   6.930   3.303   5.750 -1.9134 -1.9029  0.7590
   91SAPC   H8Y 8765   6.961   3.133   5.730 -1.8573  0.7526  0.3055
   91SAPC   C39 8766   7.145   3.260   5.754 -0.4886 -0.5382 -0.3717
   91SAPC   H9X 8767   7.188   3.331   5.827  0.9255 -2.0424  0.3216
   91SAPC   H9Y 8768   7.148   3.290   5.647 -0.1398 -0.6052 -0.3810
   91SAPC  C310 8769   7.227   3.123   5.764 -0.6446  0.0448 -0.4707
   91SAPC  H10X 8770   7.190   3.058   5.682  1.6166 -0.2712 -1.3098
   91SAPC  H10Y 8771   7.193   3.077   5.859  2.2313  1.5795  1.4504
   91SAPC  C311 8772   7.381   3.128   5.753 -0.2459 -0.6193  0.0407
   91SAPC  H11X 8773   7.410   3.200   5.832  0.8834 -0.1259 -0.7844
   91SAPC  H11Y 8774   7.413   3.161   5.651 -1.7702 -0.4453 -0.3981
   91SAPC  C312 8775   7.442   2.989   5.782  0.1074 -0.0611 -0.6752
   91SAPC  H12X 8776   7.367   2.912   5.755  1.2071 -1.7068  0.7330
   91SAPC  H12Y 8777   7.465   2.976   5.890  1.6031  0.5235 -0.9019
   91SAPC  C313 8778   7.572   2.971   5.698 -0.2438  0.6355  0.0531
   91SAPC  H13X 8779   7.647   2.907   5.749  0.3415  0.1232 -1.3935
   91SAPC  H13Y 8780   7.621   3.071   5.686  1.1793  0.0668  0.9015
   91SAPC  C314 8781   7.548   2.918   5.552  0.5058 -0.3915 -0.2399
   91SAPC  H14X 8782   7.487   2.995   5.498 -0.8462 -1.0472  0.3103
   91SAPC  H14Y 8783   7.485   2.827   5.557 -0.8416  0.4940 -0.3374
   91SAPC  C315 8784   7.668   2.899   5.456  0.9725 -0.0352  0.6979
   91SAPC  H15X 8785   7.740   2.828   5.503  1.5384  0.7396  1.0146
   91SAPC  H15Y 8786   7.733   2.988   5.463 -1.1952  1.7102 -0.2400
   91SAPC  C316 8787   7.631   2.865   5.313 -0.4594  0.2075  0.2000
   91SAPC  H16X 8788   7.553   2.786   5.313 -0.3207  0.0042 -1.7777
   91SAPC  H16Y 8789   7.727   2.838   5.263 -1.2483 -1.3403 -0.5710
   91SAPC  C317 8790   7.570   2.986   5.241 -0.4730  0.1695 -0.3523
   91SAPC  H17X 8791   7.642   3.069   5.226 -2.8968  2.5631  0.4400
   91SAPC  H17Y 8792   7.487   3.031   5.299  2.1549  0.3288  3.6725
   91SAPC  C318 8793   7.524   2.945   5.102  0.2524  0.3877 -0.4660
   91SAPC  H18X 8794   7.469   2.849   5.110  0.3290  0.4497  1.1272
   91SAPC  H18Y 8795   7.604   2.925   5.028 -0.9101  0.3959 -1.7485
   91SAPC  H18Z 8796   7.448   3.014   5.060 -0.0786 -0.1371 -0.7320
   92SAPC     N 8797   1.207   2.864   7.308  0.6333 -0.4149 -0.1841
   92SAPC   C12 8798   1.259   2.822   7.169 -0.2133  0.2886 -0.1372
   92SAPC  H12A 8799   1.204   2.735   7.138  1.5315 -1.1434  0.6596
   92SAPC  H12B 8800   1.362   2.793   7.184  0.3457  1.5162 -1.3310
   92SAPC   C13 8801   1.055   2.884   7.308  0.2922 -0.2486 -0.2438
   92SAPC  H13A 8802   1.018   2.929   7.399  0.3128 -2.5680  0.9862
   92SAPC  H13B 8803   1.033   2.948   7.223 -0.6315  0.8760  0.8057
   92SAPC  H13C 8804   0.993   2.797   7.294 -0.0126 -0.1491  0.4707
   92SAPC   C14 8805   1.242   2.760   7.410  0.0263 -0.8698 -0.7251
   92SAPC  H14A 8806   1.231   2.808   7.506  0.1096  0.0736 -1.1703
   92SAPC  H14B 8807   1.176   2.675   7.400 -1.0035 -0.2040  0.1656
   92SAPC  H14C 8808   1.344   2.731   7.389  1.0338  2.0124 -0.3292
   92SAPC   C15 8809   1.265   3.001   7.353 -0.7374 -0.9128 -0.6039
   92SAPC  H15A 8810   1.240   3.014   7.458  0.5538  1.5122 -0.5226
   92SAPC  H15B 8811   1.372   3.002   7.343 -0.7010  0.3599 -0.2232
   92SAPC  H15C 8812   1.225   3.085   7.299 -1.0176  0.0613  1.0414
   92SAPC   C11 8813   1.252   2.918   7.055  0.4922 -0.5282 -0.7528
   92SAPC  H11A 8814   1.297   2.888   6.958 -2.2534 -0.4546 -2.1416
   92SAPC  H11B 8815   1.323   2.998   7.086 -2.5129  2.4195 -0.9422
   92SAPC     P 8816   1.075   3.089   6.950 -0.0727  0.2599  0.0546
   92SAPC   O13 8817   0.930   3.119   6.975  0.1158  0.0288 -0.1663
   92SAPC   O14 8818   1.166   3.202   6.972 -0.0392  0.2255  0.0020
   92SAPC   O12 8819   1.119   2.967   7.036 -0.1368  0.7100 -0.0421
   92SAPC   O11 8820   1.087   3.044   6.803 -0.0463 -0.0978  0.1861
   92SAPC    C1 8821   1.043   2.915   6.755 -0.3610 -0.6995 -0.3922
   92SAPC    HA 8822   1.104   2.836   6.803  1.1260 -1.0096 -2.6494
   92SAPC    HB 8823   0.937   2.898   6.783 -0.1208  0.0528  1.0567
   92SAPC    C2 8824   1.083   2.905   6.600  0.3336 -0.5544 -0.6096
   92SAPC    HS 8825   1.013   2.971   6.543  1.0939  1.3489  0.5752
   92SAPC   O21 8826   1.068   2.770   6.556 -0.0107  0.6544 -0.1565
   92SAPC   C21 8827   0.958   2.697   6.571  0.5947  0.8661 -0.1738
   92SAPC   O22 8828   0.850   2.735   6.619  0.2957 -0.0961  0.0009
   92SAPC   C22 8829   0.978   2.554   6.508 -0.5593  0.1119 -1.7187
   92SAPC   H2R 8830   0.970   2.556   6.397  0.1446 -0.9779 -1.8121
   92SAPC   H2S 8831   1.082   2.523   6.528 -1.1408 -2.1531 -1.8631
   92SAPC    C3 8832   1.223   2.954   6.565 -0.2704 -0.4071 -0.0110
   92SAPC    HX 8833   1.305   2.896   6.613 -1.1720  1.4418  4.2937
   92SAPC    HY 8834   1.218   3.051   6.619 -0.5592  0.0797 -0.9009
   92SAPC   O31 8835   1.230   2.974   6.421  0.1573  0.0084  0.1752
   92SAPC   C31 8836   1.324   3.072   6.391  0.8055  0.1978 -0.0655
   92SAPC   O32 8837   1.403   3.120   6.467 -0.8957  0.8560 -0.1268
   92SAPC   C32 8838   1.327   3.080   6.238 -1.0956  0.3399 -0.6070
   92SAPC   H2X 8839   1.424   3.045   6.197 -0.4509  0.5106  0.7169
   92SAPC   H2Y 8840   1.318   3.189   6.216  2.4778  0.9090  0.1468
   92SAPC   C23 8841   0.880   2.447   6.558 -1.1638 -0.4894 -0.6783
   92SAPC   H3R 8842   0.881   2.447   6.669  1.1502 -2.3971 -0.6347
   92SAPC   H3S 8843   0.916   2.345   6.534 -0.6365  0.2101 -3.1052
   92SAPC   C24 8844   0.734   2.453   6.508 -0.2930 -0.0619  0.4182
   92SAPC   H4R 8845   0.737   2.429   6.399 -0.2921  0.5593  0.2797
   92SAPC   H4S 8846   0.683   2.552   6.510 -1.3548 -0.5775 -0.3286
   92SAPC   C25 8847   0.648   2.348   6.577 -0.2464 -0.0429 -0.0975
   92SAPC   H5R 8848   0.610   2.385   6.673 -1.7797  0.4308 -0.8486
   92SAPC   C26 8849   0.586   2.247   6.522  0.5734  0.2016 -0.4830
   92SAPC   H6R 8850   0.524   2.179   6.582  2.2358 -0.0765  0.9983
   92SAPC   C27 8851   0.603   2.206   6.379  0.1346  0.7306 -0.3644
   92SAPC   H7R 8852   0.563   2.105   6.358 -0.1257  0.9797 -1.1110
   92SAPC   H7S 8853   0.710   2.207   6.352 -0.0073  0.1612 -0.9754
   92SAPC   C28 8854   0.529   2.289   6.272  0.3099 -0.4238  0.3116
   92SAPC   H8R 8855   0.473   2.371   6.320  1.5638  1.2866 -1.0260
   92SAPC   C29 8856   0.534   2.281   6.139  0.0539  1.0865  0.0699
   92SAPC   H9R 8857   0.461   2.343   6.084  0.0980 -0.0468 -1.3145
   92SAPC  C210 8858   0.627   2.181   6.068  0.1970 -0.3231 -0.0755
   92SAPC  H10R 8859   0.712   2.149   6.133  1.3247  2.2701 -0.1505
   92SAPC  H10S 8860   0.680   2.237   5.988 -0.7169  2.0539  0.8905
   92SAPC  C211 8861   0.549   2.069   6.000  1.1714 -0.3505 -0.9385
   92SAPC  H11R 8862   0.494   2.010   6.076 -1.2523 -0.2062 -2.4808
   92SAPC  C212 8863   0.525   2.042   5.874 -0.4430  0.2199 -0.0922
   92SAPC  H12R 8864   0.471   1.949   5.848 -0.8582 -0.1822  2.0061
   92SAPC  C213 8865   0.599   2.105   5.757 -0.0720  0.8370  0.8469
   92SAPC  H13R 8866   0.592   2.216   5.750  0.4917  0.7837 -1.9367
   92SAPC  H13S 8867   0.560   2.077   5.657  3.5948 -0.7525 -0.3361
   92SAPC  C214 8868   0.751   2.089   5.758  0.6179  0.4050  0.4816
   92SAPC  H14R 8869   0.789   2.072   5.860  0.6844 -0.7758  0.2639
   92SAPC  C215 8870   0.827   2.083   5.645  0.2241  0.4375 -0.0392
   92SAPC  H15R 8871   0.936   2.095   5.659  0.0300  1.0151  1.1602
   92SAPC  C216 8872   0.773   2.108   5.508 -0.4714 -0.6999 -0.4648
   92SAPC  H16R 8873   0.824   2.191   5.455 -0.5297 -1.0952 -1.1578
   92SAPC  H16S 8874   0.670   2.149   5.519  0.0187  0.5520 -0.3682
   92SAPC  C217 8875   0.747   1.986   5.421 -0.2122 -0.2739  0.2603
   92SAPC  H17R 8876   0.709   1.907   5.490 -2.4693 -1.4460 -2.1603
   92SAPC  H17S 8877   0.848   1.954   5.386  0.3732  1.0977  0.6082
   92SAPC  C218 8878   0.639   2.001   5.311  0.4809 -0.5113 -0.6101
   92SAPC  H18R 8879   0.663   2.098   5.263  0.7347 -0.0924  0.3480
   92SAPC  H18S 8880   0.537   2.014   5.356  0.3724  0.7804 -1.1990
   92SAPC  C219 8881   0.643   1.873   5.225 -0.0901 -0.4116 -0.2170
   92SAPC  H19R 8882   0.610   1.785   5.284  2.1059 -1.6863 -0.7708
   92SAPC  H19S 8883   0.748   1.851   5.195  0.1106 -0.2808  0.3796
   92SAPC  C220 8884   0.547   1.870   5.105 -0.4517 -0.3047  0.3855
   92SAPC  H20R 8885   0.605   1.919   5.023 -0.4927 -0.4752  0.2541
   92SAPC  H20S 8886   0.453   1.929   5.116 -1.8463 -1.1520 -4.4352
   92SAPC  H20T 8887   0.509   1.771   5.073  1.0614 -0.1081 -2.3800
   92SAPC   C33 8888   1.219   3.007   6.156  0.0430 -0.9270 -0.5254
   92SAPC   H3X 8889   1.125   3.030   6.209  0.4945 -2.4755  1.0705
   92SAPC   H3Y 8890   1.256   2.902   6.158  1.0694 -0.7107 -3.5040
   92SAPC   C34 8891   1.210   3.046   6.011 -0.5173  0.2161 -0.1485
   92SAPC   H4X 8892   1.240   3.149   5.983 -0.7835 -0.0543 -1.4874
   92SAPC   H4Y 8893   1.104   3.035   5.982 -0.3704 -1.9914 -0.0231
   92SAPC   C35 8894   1.287   2.949   5.924 -0.5344 -0.4996 -0.3546
   92SAPC   H5X 8895   1.264   2.842   5.944 -3.7629 -0.1887 -1.6738
   92SAPC   H5Y 8896   1.393   2.952   5.956 -0.2975 -1.2271 -1.0425
   92SAPC   C36 8897   1.283   2.970   5.775  0.6137 -0.3016  0.3798
   92SAPC   H6X 8898   1.369   2.921   5.725  1.6206  1.0222  0.7445
   92SAPC   H6Y 8899   1.311   3.077   5.761  0.9880 -0.4968 -0.4406
   92SAPC   C37 8900   1.154   2.928   5.706 -0.1480  0.1546 -0.1221
   92SAPC   H7X 8901   1.074   2.995   5.745  0.8417 -0.3593  3.1214
   92SAPC   H7Y 8902   1.124   2.827   5.740 -0.6452  0.4503  0.3405
   92SAPC   C38 8903   1.169   2.940   5.561  0.0189  0.1518  0.4783
   92SAPC   H8X 8904   1.234   3.029   5.545  2.5040 -1.6919 -0.3090
   92SAPC   H8Y 8905   1.074   2.945   5.505  0.1918  0.4496  0.2056
   92SAPC   C39 8906   1.253   2.823   5.491 -0.6569 -0.1138  0.4628
   92SAPC   H9X 8907   1.204   2.730   5.528 -1.0349  0.5783  1.7824
   92SAPC   H9Y 8908   1.350   2.815   5.543 -0.4015  0.7479  0.1338
   92SAPC  C310 8909   1.262   2.832   5.340  0.2144 -0.2510 -0.3204
   92SAPC  H10X 8910   1.278   2.936   5.303 -0.0515  0.1575  0.6886
   92SAPC  H10Y 8911   1.169   2.806   5.284 -1.7085  2.6925  1.2609
   92SAPC  C311 8912   1.381   2.750   5.302 -0.0912  0.3047  0.3806
   92SAPC  H11X 8913   1.381   2.653   5.355 -0.1469 -0.3126 -0.7121
   92SAPC  H11Y 8914   1.479   2.797   5.328 -0.0640 -0.8870  2.6485
   92SAPC  C312 8915   1.387   2.719   5.155 -0.0040 -0.3605  0.5043
   92SAPC  H12X 8916   1.371   2.809   5.093 -2.0357 -1.1144 -0.1814
   92SAPC  H12Y 8917   1.306   2.644   5.138 -0.2218 -0.1924  0.7823
   92SAPC  C313 8918   1.521   2.649   5.113 -0.5410 -0.7067  0.0301
   92SAPC  H13X 8919   1.516   2.541   5.135 -1.1410 -0.5436  0.7256
   92SAPC  H13Y 8920   1.611   2.692   5.163 -1.0358 -2.6569  2.8081
   92SAPC  C314 8921   1.549   2.665   4.966 -0.1492 -0.7644 -0.3397
   92SAPC  H14X 8922   1.606   2.757   4.941  1.3228 -1.6458 -0.3150
   92SAPC  H14Y 8923   1.450   2.671   4.915 -0.8945 -0.9933  1.0423
   92SAPC  C315 8924   1.644   2.565   4.908  0.5314 -0.2466  0.4190
   92SAPC  H15X 8925   1.606   2.461   4.918 -1.5823  0.0960 -2.5931
   92SAPC  H15Y 8926   1.746   2.576   4.950 -0.3212  1.0567  2.2865
   92SAPC  C316 8927   1.661   2.588   4.759  0.2403 -0.3569 -0.0932
   92SAPC  H16X 8928   1.718   2.678   4.729 -0.7219 -0.1691 -1.4550
   92SAPC  H16Y 8929   1.563   2.607   4.710  0.6474  0.5726 -0.5735
   92SAPC  C317 8930   1.731   2.473   4.689  0.3008 -1.1575 -0.2164
   92SAPC  H17X 8931   1.677   2.383   4.725  2.4073 -3.2230 -1.9182
   92SAPC  H17Y 8932   1.832   2.474   4.736 -0.1643 -0.8121  0.8084
   92SAPC  C318 8933   1.753   2.480   4.533 -0.1514 -0.1093 -0.4815
   92SAPC  H18X 8934   1.657   2.506   4.485  0.3515  0.0075 -1.4548
   92SAPC  H18Y 8935   1.806   2.387   4.502 -1.4948 -0.2052 -2.6825
   92SAPC  H18Z 8936   1.823   2.562   4.505 -0.3024  0.9183  1.8960
   93SAPC     N 8937   2.028   5.187   7.654 -0.0894 -0.1768 -0.9745
   93SAPC   C12 8938   1.919   5.213   7.552 -0.4613 -0.8596  0.4404
   93SAPC  H12A 8939   1.842   5.269   7.603  0.5253 -0.5114  1.6031
   93SAPC  H12B 8940   1.872   5.119   7.528 -2.3433  0.5471 -1.7989
   93SAPC   C13 8941   1.979   5.145   7.791 -0.0536  0.4075 -0.5093
   93SAPC  H13A 8942   2.061   5.114   7.854 -0.4199  0.3387 -0.0641
   93SAPC  H13B 8943   1.936   5.217   7.858 -1.5486  0.5812 -1.6042
   93SAPC  H13C 8944   1.912   5.060   7.788  1.6080 -1.1343  1.9690
   93SAPC   C14 8945   2.127   5.087   7.606 -0.4630  0.5876 -0.3518
   93SAPC  H14A 8946   2.158   5.109   7.505  2.3533 -0.1560  0.2602
   93SAPC  H14B 8947   2.218   5.085   7.664 -0.4442  0.7286 -0.3767
   93SAPC  H14C 8948   2.089   4.987   7.620 -0.8207  0.8667  0.8619
   93SAPC   C15 8949   2.103   5.320   7.674 -0.7590 -0.7470 -0.3219
   93SAPC  H15A 8950   2.046   5.405   7.709  2.7584  1.7101  0.1066
   93SAPC  H15B 8951   2.179   5.305   7.750 -0.6130  1.4842  0.0491
   93SAPC  H15C 8952   2.151   5.351   7.582 -1.2395 -2.3802 -1.1496
   93SAPC   C11 8953   1.955   5.276   7.410 -0.6488 -0.2515  0.0828
   93SAPC  H11A 8954   1.997   5.377   7.433  0.7570 -0.1578 -2.4969
   93SAPC  H11B 8955   1.865   5.296   7.348  0.8732  1.7077 -1.6721
   93SAPC     P 8956   2.184   5.253   7.290  0.1166 -0.0188  0.4779
   93SAPC   O13 8957   2.180   5.400   7.309 -0.2621 -0.2546  0.4757
   93SAPC   O14 8958   2.292   5.177   7.352 -0.3091  0.3921  0.1252
   93SAPC   O12 8959   2.046   5.192   7.339 -0.2367  0.6223 -0.1556
   93SAPC   O11 8960   2.182   5.220   7.141 -0.0947  0.4822  0.7406
   93SAPC    C1 8961   2.101   5.126   7.076  0.4566 -0.0546  0.6419
   93SAPC    HA 8962   2.136   5.023   7.099 -1.3035 -1.2006 -1.5135
   93SAPC    HB 8963   1.999   5.151   7.112  0.3289  0.1963  0.1130
   93SAPC    C2 8964   2.101   5.145   6.920  0.3481  0.7499  0.3747
   93SAPC    HS 8965   2.033   5.069   6.876  0.5781  1.2952 -0.9737
   93SAPC   O21 8966   2.232   5.135   6.861 -0.0389  0.6912 -0.2179
   93SAPC   C21 8967   2.276   5.014   6.827  0.5885  0.0883 -0.4038
   93SAPC   O22 8968   2.224   4.914   6.861 -0.4968 -0.0328 -0.6669
   93SAPC   C22 8969   2.396   5.008   6.735 -0.9040 -0.1733 -0.7935
   93SAPC   H2R 8970   2.420   4.901   6.723 -0.0664 -0.2711  1.3676
   93SAPC   H2S 8971   2.363   5.050   6.638 -1.8004  0.1457 -0.3671
   93SAPC    C3 8972   2.038   5.289   6.887  0.0482  0.1062 -0.1306
   93SAPC    HX 8973   2.098   5.364   6.943  1.1839  1.4049 -2.8914
   93SAPC    HY 8974   1.933   5.293   6.923  0.1275 -1.0061  0.2663
   93SAPC   O31 8975   2.049   5.323   6.747 -0.2277  0.7501 -0.0085
   93SAPC   C31 8976   1.946   5.304   6.674  1.6043 -0.2507  0.0240
   93SAPC   O32 8977   1.836   5.260   6.704  0.0057  0.2552  0.1457
   93SAPC   C32 8978   1.987   5.340   6.535 -0.1477 -0.6642 -0.2733
   93SAPC   H2X 8979   2.086   5.298   6.506  0.5811  0.4827  0.4673
   93SAPC   H2Y 8980   2.018   5.446   6.539  1.3849 -1.1091  2.3321
   93SAPC   C23 8981   2.516   5.089   6.790 -0.0136 -0.1967  0.0650
   93SAPC   H3R 8982   2.550   5.065   6.893  2.0402  1.4279 -0.1833
   93SAPC   H3S 8983   2.477   5.192   6.802 -1.8166 -1.1165  3.7203
   93SAPC   C24 8984   2.638   5.109   6.695  0.6361  0.0131 -0.1167
   93SAPC   H4R 8985   2.695   5.191   6.742 -1.7449  1.1918  0.9057
   93SAPC   H4S 8986   2.613   5.156   6.598  1.5669  1.1819  0.1941
   93SAPC   C25 8987   2.715   4.983   6.698 -0.2415 -0.2313 -0.2216
   93SAPC   H5R 8988   2.766   4.954   6.790 -0.8915  0.7301  0.4671
   93SAPC   C26 8989   2.736   4.908   6.588 -0.1099 -0.4841  0.4297
   93SAPC   H6R 8990   2.796   4.816   6.597 -1.3830 -1.7664 -2.6546
   93SAPC   C27 8991   2.687   4.939   6.445 -1.1925  0.4062 -0.6292
   93SAPC   H7R 8992   2.577   4.949   6.456 -1.1596  0.3890 -0.2860
   93SAPC   H7S 8993   2.691   4.857   6.371  0.6103  1.1753 -1.4457
   93SAPC   C28 8994   2.746   5.068   6.385  0.3324 -0.4558  0.2011
   93SAPC   H8R 8995   2.797   5.141   6.450  2.1232  0.4840 -2.1044
   93SAPC   C29 8996   2.723   5.113   6.263 -0.2652  0.5636 -0.7296
   93SAPC   H9R 8997   2.759   5.215   6.239 -1.2862  0.7533 -1.5439
   93SAPC  C210 8998   2.637   5.041   6.156 -0.4448 -0.4029  0.5912
   93SAPC  H10R 8999   2.596   5.124   6.095 -0.6317 -0.6984  0.3132
   93SAPC  H10S 9000   2.551   4.992   6.205 -1.0078 -0.7074 -0.6645
   93SAPC  C211 9001   2.716   4.945   6.067 -0.1798  0.3180 -0.1233
   93SAPC  H11R 9002   2.801   4.897   6.119  0.7941  1.3766 -0.6985
   93SAPC  C212 9003   2.712   4.928   5.932  0.0486  0.1755 -0.0834
   93SAPC  H12R 9004   2.782   4.856   5.886 -1.3398 -0.1051 -1.8655
   93SAPC  C213 9005   2.613   4.997   5.842 -0.0725 -0.1365  0.8420
   93SAPC  H13R 9006   2.648   5.101   5.824 -0.4703  0.5982  3.7450
   93SAPC  H13S 9007   2.517   4.997   5.898 -1.7621 -4.9668 -1.4796
   93SAPC  C214 9008   2.581   4.903   5.731  0.6147  0.0825  0.7801
   93SAPC  H14R 9009   2.558   4.797   5.749  0.8986 -0.0452  0.3986
   93SAPC  C215 9010   2.590   4.939   5.600 -0.3585 -0.1661 -0.3366
   93SAPC  H15R 9011   2.567   4.869   5.518  1.6342 -2.0610  0.6338
   93SAPC  C216 9012   2.624   5.077   5.551  0.4985  0.2875 -0.8502
   93SAPC  H16R 9013   2.595   5.151   5.628 -1.1941 -0.1794 -1.0080
   93SAPC  H16S 9014   2.574   5.099   5.454  0.3897 -0.3561 -0.9417
   93SAPC  C217 9015   2.783   5.093   5.543  0.1596 -0.4012  0.0836
   93SAPC  H17R 9016   2.832   5.020   5.475  0.8513  0.2197 -0.0943
   93SAPC  H17S 9017   2.815   5.067   5.646 -3.9488  0.4825  1.8072
   93SAPC  C218 9018   2.828   5.235   5.514 -0.0206  0.3135  0.4548
   93SAPC  H18R 9019   2.939   5.240   5.507 -0.1158  0.9435 -0.9107
   93SAPC  H18S 9020   2.794   5.302   5.596  0.9123 -0.6408  1.6617
   93SAPC  C219 9021   2.789   5.294   5.377 -0.2163  0.1011  0.5235
   93SAPC  H19R 9022   2.830   5.396   5.364 -0.0005  0.0569  0.8506
   93SAPC  H19S 9023   2.679   5.308   5.373 -0.3029 -0.7707 -1.1718
   93SAPC  C220 9024   2.835   5.209   5.249 -0.0499 -0.2831  0.8627
   93SAPC  H20R 9025   2.818   5.271   5.158  2.1428  1.2126  1.4154
   93SAPC  H20S 9026   2.772   5.118   5.239  1.5383 -1.2227 -1.3418
   93SAPC  H20T 9027   2.942   5.182   5.252  0.2256 -0.1407 -2.9020
   93SAPC   C33 9028   1.882   5.297   6.426  0.0843  0.0440 -0.3199
   93SAPC   H3X 9029   1.790   5.354   6.452  0.8991  2.1311 -1.7318
   93SAPC   H3Y 9030   1.859   5.189   6.424 -1.3730  0.3383 -0.4132
   93SAPC   C34 9031   1.936   5.337   6.284 -0.1969 -0.4869 -0.2588
   93SAPC   H4X 9032   2.044   5.317   6.268 -0.1993  0.0315 -0.9715
   93SAPC   H4Y 9033   1.930   5.448   6.293 -0.1815 -0.5348  0.3847
   93SAPC   C35 9034   1.846   5.292   6.169  0.4152 -0.4108 -0.1479
   93SAPC   H5X 9035   1.738   5.301   6.191  0.6583 -1.0195  1.4213
   93SAPC   H5Y 9036   1.855   5.183   6.153 -1.5650 -0.9139  1.7014
   93SAPC   C36 9037   1.891   5.346   6.038 -0.3409  0.1706  0.6254
   93SAPC   H6X 9038   2.002   5.341   6.040 -0.3826 -0.7567  0.9893
   93SAPC   H6Y 9039   1.862   5.453   6.033  1.7087  0.7331 -0.4445
   93SAPC   C37 9040   1.839   5.265   5.918 -0.1852  0.5286  0.1313
   93SAPC   H7X 9041   1.731   5.241   5.922  0.4232 -2.6340  0.6499
   93SAPC   H7Y 9042   1.887   5.165   5.929 -2.5035 -0.7638 -0.9571
   93SAPC   C38 9043   1.884   5.317   5.776  0.9182  0.7777 -0.3218
   93SAPC   H8X 9044   1.993   5.341   5.773  1.2314 -0.5005  0.1569
   93SAPC   H8Y 9045   1.830   5.409   5.748  2.5493  2.3133  1.2762
   93SAPC   C39 9046   1.859   5.206   5.669 -0.4197  0.3931 -0.4928
   93SAPC   H9X 9047   1.752   5.176   5.668 -0.4658  0.3858  1.3052
   93SAPC   H9Y 9048   1.906   5.114   5.709 -0.4988  1.4470  2.2058
   93SAPC  C310 9049   1.906   5.240   5.527 -0.4301 -0.0906 -0.9839
   93SAPC  H10X 9050   2.011   5.275   5.528 -0.3926 -0.2024 -0.9934
   93SAPC  H10Y 9051   1.843   5.324   5.490 -0.6303  1.6455  2.8121
   93SAPC  C311 9052   1.913   5.114   5.445  0.5530  0.1938  0.5135
   93SAPC  H11X 9053   1.807   5.093   5.417  1.3442  0.4288 -3.1029
   93SAPC  H11Y 9054   1.956   5.039   5.515  2.6680  1.4945  0.7097
   93SAPC  C312 9055   1.974   5.119   5.309  0.5541  0.0767 -0.1512
   93SAPC  H12X 9056   1.929   5.210   5.264 -1.2140  0.0544  1.4823
   93SAPC  H12Y 9057   1.926   5.031   5.262 -0.2924 -0.0394  0.9076
   93SAPC  C313 9058   2.125   5.097   5.308  0.3272  0.1009 -0.2556
   93SAPC  H13X 9059   2.157   4.997   5.346  1.7440  0.8656  0.6620
   93SAPC  H13Y 9060   2.179   5.177   5.364  3.1591 -0.5198 -1.8709
   93SAPC  C314 9061   2.178   5.094   5.162  0.1821  0.3912  0.1052
   93SAPC  H14X 9062   2.140   5.186   5.112 -1.6065 -0.9947 -1.1834
   93SAPC  H14Y 9063   2.137   5.009   5.104  0.4605  0.8445 -0.7693
   93SAPC  C315 9064   2.326   5.095   5.126  0.4474 -0.3154  0.6114
   93SAPC  H15X 9065   2.378   5.179   5.177 -0.1057 -1.0268  2.4579
   93SAPC  H15Y 9066   2.333   5.106   5.016 -2.6771 -1.3806  0.1946
   93SAPC  C316 9067   2.393   4.963   5.165  0.1011 -0.4290 -0.4872
   93SAPC  H16X 9068   2.325   4.879   5.139 -1.7787  0.7534  0.4173
   93SAPC  H16Y 9069   2.398   4.968   5.276  2.2607 -0.5946 -0.5482
   93SAPC  C317 9070   2.537   4.957   5.114  0.0815  0.4833  0.6000
   93SAPC  H17X 9071   2.598   4.895   5.184  1.7493  2.1098  0.6372
   93SAPC  H17Y 9072   2.579   5.059   5.118 -2.0715  1.3808  3.1696
   93SAPC  C318 9073   2.541   4.908   4.968  0.6086 -0.2928 -0.3612
   93SAPC  H18X 9074   2.528   4.798   4.960  0.5659 -0.2066 -1.7138
   93SAPC  H18Y 9075   2.640   4.936   4.924  2.4862 -1.1022  2.9679
   93SAPC  H18Z 9076   2.460   4.958   4.911 -0.0600 -0.7559  0.1703
   94SAPC     N 9077   0.922   0.173   7.353 -0.3336  0.5446  0.2457
   94SAPC   C12 9078   1.029   0.113   7.447 -1.6309  0.4664  0.3067
   94SAPC  H12A 9079   1.013   0.006   7.447 -2.7025  0.6150  0.0519
   94SAPC  H12B 9080   1.006   0.153   7.545 -0.0806  1.0397  0.4658
   94SAPC   C13 9081   0.934   0.106   7.218 -0.0823  0.2716  0.2534
   94SAPC  H13A 9082   0.923  -0.001   7.221 -2.5027  0.4706  2.3670
   94SAPC  H13B 9083   0.856   0.149   7.156  0.4347  0.5162 -0.2324
   94SAPC  H13C 9084   1.026   0.122   7.164  0.5676  0.4702  1.4009
   94SAPC   C14 9085   0.794   0.131   7.406 -0.2520 -0.4152  0.8653
   94SAPC  H14A 9086   0.770   0.027   7.418  1.9415 -0.7798  2.6348
   94SAPC  H14B 9087   0.767   0.173   7.502  1.5456 -0.6839  1.5283
   94SAPC  H14C 9088   0.719   0.166   7.337 -0.4494 -0.0581  1.2530
   94SAPC   C15 9089   0.939   0.321   7.338  1.0473 -0.7049 -0.0594
   94SAPC  H15A 9090   0.857   0.355   7.277 -0.4755 -1.5508  1.4122
   94SAPC  H15B 9091   0.926   0.376   7.430 -1.0091  1.9050 -1.7676
   94SAPC  H15C 9092   1.037   0.353   7.304  0.5561  1.3505  0.3405
   94SAPC   C11 9093   1.174   0.161   7.428 -0.4417 -0.2583  0.4467
   94SAPC  H11A 9094   1.233   0.081   7.478 -0.8531 -0.0742  1.2571
   94SAPC  H11B 9095   1.183   0.262   7.475  0.2279 -0.3031  0.4302
   94SAPC     P 9096   1.363   0.217   7.248 -0.0688  0.0960  0.3144
   94SAPC   O13 9097   1.388   0.343   7.324  0.2037 -0.1119 -0.1618
   94SAPC   O14 9098   1.450   0.099   7.256 -0.2215 -0.2666  0.1831
   94SAPC   O12 9099   1.218   0.161   7.289  0.2870 -0.0272 -0.1461
   94SAPC   O11 9100   1.344   0.246   7.088  0.0974 -0.1085 -0.2850
   94SAPC    C1 9101   1.246   0.337   7.043  0.0750 -0.0681  0.6381
   94SAPC    HA 9102   1.146   0.311   7.084 -1.2023  2.4198 -0.6849
   94SAPC    HB 9103   1.270   0.442   7.073  2.1121  0.0935 -1.2882
   94SAPC    C2 9104   1.235   0.336   6.888 -0.3179  0.3677  0.2186
   94SAPC    HS 9105   1.167   0.418   6.856 -3.0998  0.1602  4.7510
   94SAPC   O21 9106   1.187   0.211   6.841 -0.2844  0.5828 -0.3863
   94SAPC   C21 9107   1.054   0.203   6.848  0.3785  0.1623 -0.4253
   94SAPC   O22 9108   0.983   0.288   6.893 -0.2108 -0.5395  0.2560
   94SAPC   C22 9109   0.996   0.072   6.791 -0.3851  0.0892  0.8706
   94SAPC   H2R 9110   1.045  -0.009   6.850 -1.3330 -0.5153  0.8397
   94SAPC   H2S 9111   0.888   0.071   6.816 -0.5121 -1.2248  0.3385
   94SAPC    C3 9112   1.380   0.352   6.832  0.0590 -0.5015  0.0070
   94SAPC    HX 9113   1.454   0.274   6.859  2.9713  0.5979 -3.8441
   94SAPC    HY 9114   1.417   0.451   6.866  0.1858 -0.7899  0.7396
   94SAPC   O31 9115   1.370   0.349   6.685 -0.2284  0.1839  0.2572
   94SAPC   C31 9116   1.397   0.234   6.628  0.7896  0.2859 -0.3544
   94SAPC   O32 9117   1.386   0.124   6.684  0.2321 -0.4870 -0.5605
   94SAPC   C32 9118   1.435   0.262   6.484 -0.1506 -0.5493 -0.6792
   94SAPC   H2X 9119   1.526   0.324   6.492 -1.5081  1.2931  1.3614
   94SAPC   H2Y 9120   1.353   0.323   6.439 -0.2004 -0.2369 -0.1688
   94SAPC   C23 9121   1.033   0.057   6.637 -0.9703  0.5197 -0.9407
   94SAPC   H3R 9122   1.052  -0.051   6.617  0.4064  0.6986 -0.6755
   94SAPC   H3S 9123   1.133   0.103   6.624 -0.4738 -0.4794 -0.7612
   94SAPC   C24 9124   0.924   0.109   6.541  0.3879  0.0973 -0.4479
   94SAPC   H4R 9125   0.964   0.078   6.442 -1.0787  2.2851 -1.8232
   94SAPC   H4S 9126   0.927   0.219   6.553 -0.8734 -0.1559  4.2848
   94SAPC   C25 9127   0.775   0.070   6.553  0.3398  0.0549 -0.2508
   94SAPC   H5R 9128   0.735   0.088   6.654 -0.5517 -1.4677 -0.3039
   94SAPC   C26 9129   0.692   0.023   6.459  0.2962  0.2279 -0.3815
   94SAPC   H6R 9130   0.583   0.009   6.470  0.1573  0.9124 -0.8203
   94SAPC   C27 9131   0.726   0.005   6.318  0.5134 -0.0660  1.0154
   94SAPC   H7R 9132   0.662  -0.071   6.269 -0.9913  2.0919 -0.5399
   94SAPC   H7S 9133   0.821  -0.043   6.286 -0.1718 -0.1841 -0.9186
   94SAPC   C28 9134   0.704   0.132   6.238  0.1154  0.1272  0.2046
   94SAPC   H8R 9135   0.666   0.224   6.285  0.3013 -0.3282  1.2763
   94SAPC   C29 9136   0.738   0.141   6.103 -0.2139  0.0515 -0.9712
   94SAPC   H9R 9137   0.731   0.239   6.055 -1.2886  0.9148  0.8467
   94SAPC  C210 9138   0.805   0.039   6.013 -0.5895 -0.5911 -0.3976
   94SAPC  H10R 9139   0.882  -0.005   6.080 -1.8594 -0.7745  0.9706
   94SAPC  H10S 9140   0.848   0.096   5.928 -2.1400  2.2465  0.5886
   94SAPC  C211 9141   0.710  -0.073   5.982  0.1266  0.0217  0.3433
   94SAPC  H11R 9142   0.632  -0.092   6.057 -1.3284 -1.8911 -1.5262
   94SAPC  C212 9143   0.702  -0.135   5.871 -0.6040  0.3341  0.1690
   94SAPC  H12R 9144   0.627  -0.214   5.860 -0.2638  0.0291 -0.0039
   94SAPC  C213 9145   0.793  -0.114   5.749  0.4046  0.1001 -0.4807
   94SAPC  H13R 9146   0.893  -0.160   5.763 -0.2214 -1.3956 -0.7309
   94SAPC  H13S 9147   0.814  -0.005   5.740 -0.0624  0.1946 -0.4640
   94SAPC  C214 9148   0.737  -0.164   5.615 -0.4201  0.1162 -0.1143
   94SAPC  H14R 9149   0.775  -0.260   5.577 -3.2929 -1.4847  0.7785
   94SAPC  C215 9150   0.641  -0.109   5.542  0.2774  0.3100 -0.3796
   94SAPC  H15R 9151   0.627  -0.154   5.443  1.0460 -1.3999  0.2596
   94SAPC  C216 9152   0.579   0.019   5.573 -0.2109 -0.6021 -0.1537
   94SAPC  H16R 9153   0.647   0.107   5.564 -1.4282  0.2620 -1.4566
   94SAPC  H16S 9154   0.541   0.017   5.677  0.1580  0.1927  0.0035
   94SAPC  C217 9155   0.457   0.060   5.475  0.2315  0.4952  0.3820
   94SAPC  H17R 9156   0.398   0.140   5.523 -0.3002  0.8720 -0.8708
   94SAPC  H17S 9157   0.404  -0.036   5.455  3.1322 -1.0047 -0.7168
   94SAPC  C218 9158   0.499   0.103   5.332  0.2210  0.3036 -0.7246
   94SAPC  H18R 9159   0.529   0.006   5.287 -1.5926 -0.0186 -1.3087
   94SAPC  H18S 9160   0.594   0.160   5.348  0.4582 -0.5080  1.0038
   94SAPC  C219 9161   0.381   0.158   5.252  0.3578 -0.2750  0.4725
   94SAPC  H19R 9162   0.426   0.198   5.159 -0.2567  0.3347  0.4285
   94SAPC  H19S 9163   0.340   0.254   5.292  0.1015 -0.0261 -0.3602
   94SAPC  C220 9164   0.266   0.058   5.230 -0.0344 -0.1706 -0.3653
   94SAPC  H20R 9165   0.190   0.060   5.311 -0.1588 -1.1305 -0.4403
   94SAPC  H20S 9166   0.314  -0.040   5.248  1.2358  0.5925  0.4829
   94SAPC  H20T 9167   0.213   0.055   5.132 -0.7524 -2.8447  0.0119
   94SAPC   C33 9168   1.461   0.134   6.399 -0.3287 -0.4421 -0.1769
   94SAPC   H3X 9169   1.363   0.085   6.381 -0.4987  0.0169 -0.5222
   94SAPC   H3Y 9170   1.526   0.063   6.455 -0.2283 -0.8161 -0.7581
   94SAPC   C34 9171   1.529   0.164   6.267 -0.4810  0.0716 -0.8536
   94SAPC   H4X 9172   1.632   0.184   6.303 -1.5905  3.1512  0.9594
   94SAPC   H4Y 9173   1.490   0.253   6.214  2.4422  1.7558 -0.3716
   94SAPC   C35 9174   1.531   0.036   6.169  0.3774 -0.0424  0.9955
   94SAPC   H5X 9175   1.424   0.010   6.152  0.7973  0.2293 -3.0117
   94SAPC   H5Y 9176   1.571  -0.046   6.232  1.7245  1.5282  2.3084
   94SAPC   C36 9177   1.596   0.064   6.031  0.3572 -0.4775 -0.0069
   94SAPC   H6X 9178   1.590  -0.034   5.979 -0.9456 -0.7923  0.7233
   94SAPC   H6Y 9179   1.698   0.085   6.071  0.8331 -0.0073 -1.3969
   94SAPC   C37 9180   1.527   0.174   5.939  0.7609 -0.4703  0.5117
   94SAPC   H7X 9181   1.533   0.272   5.992  2.0305  0.2378 -0.8382
   94SAPC   H7Y 9182   1.422   0.149   5.916  0.6926  1.6202 -1.9291
   94SAPC   C38 9183   1.603   0.202   5.807 -0.5700  0.1953  0.5379
   94SAPC   H8X 9184   1.618   0.103   5.759  1.2835 -0.1776  1.7831
   94SAPC   H8Y 9185   1.701   0.248   5.832  0.3573 -0.6894 -1.2800
   94SAPC   C39 9186   1.526   0.294   5.717 -0.3535  0.1792 -0.7414
   94SAPC   H9X 9187   1.508   0.389   5.772  1.1131  0.4748 -0.7360
   94SAPC   H9Y 9188   1.427   0.251   5.690 -0.8667  0.9354 -0.1209
   94SAPC  C310 9189   1.590   0.333   5.582 -0.8638  0.0650  0.0357
   94SAPC  H10X 9190   1.689   0.378   5.605 -0.0961 -0.6877 -1.6407
   94SAPC  H10Y 9191   1.522   0.407   5.536  0.5772  1.2125 -0.3269
   94SAPC  C311 9192   1.603   0.210   5.490  0.2475 -0.3968 -0.4732
   94SAPC  H11X 9193   1.503   0.162   5.495  0.5802 -0.9997  1.0891
   94SAPC  H11Y 9194   1.683   0.145   5.532 -0.9433 -1.6948 -0.1319
   94SAPC  C312 9195   1.644   0.264   5.349 -0.4729 -0.1817  0.6953
   94SAPC  H12X 9196   1.745   0.303   5.372  0.4113 -1.4889 -0.7756
   94SAPC  H12Y 9197   1.568   0.343   5.332 -1.0251 -1.0242 -1.0449
   94SAPC  C313 9198   1.631   0.165   5.231 -0.0553  0.1456  0.2532
   94SAPC  H13X 9199   1.522   0.146   5.242  0.4148 -2.8501  0.5769
   94SAPC  H13Y 9200   1.691   0.074   5.252 -0.0566  0.3787  1.2975
   94SAPC  C314 9201   1.660   0.231   5.098  0.1268  0.5046  0.0861
   94SAPC  H14X 9202   1.771   0.239   5.093  0.5096 -1.9719  2.2618
   94SAPC  H14Y 9203   1.603   0.325   5.104 -0.1007  0.3448  0.4311
   94SAPC  C315 9204   1.625   0.142   4.975  0.5096 -0.2984 -0.3241
   94SAPC  H15X 9205   1.706   0.067   4.963  1.4572  0.8492 -1.3994
   94SAPC  H15Y 9206   1.633   0.201   4.881  1.1054  0.9175  0.4622
   94SAPC  C316 9207   1.478   0.086   4.983 -0.2502  0.6078  0.0290
   94SAPC  H16X 9208   1.464   0.012   5.065 -1.6490  1.3664  0.5076
   94SAPC  H16Y 9209   1.467   0.041   4.882  2.0297 -0.6497  0.2707
   94SAPC  C317 9210   1.371   0.195   4.993  0.1670  0.0667 -0.1882
   94SAPC  H17X 9211   1.387   0.269   4.912  0.1207  0.8167  0.4773
   94SAPC  H17Y 9212   1.373   0.239   5.096  1.5702 -0.7808  0.1789
   94SAPC  C318 9213   1.227   0.139   4.973 -0.2642  0.0732  0.7463
   94SAPC  H18X 9214   1.157   0.225   4.982  0.9540  1.3625 -1.3334
   94SAPC  H18Y 9215   1.217   0.072   5.061  1.3786  0.3966  1.2056
   94SAPC  H18Z 9216   1.211   0.087   4.876  0.5762  1.0539  0.0599
   95SAPC     N 9217   2.962   1.843   2.236 -0.4338  0.3062  0.1626
   95SAPC   C12 9218   2.923   1.852   2.385  0.3165  0.0827 -0.5027
   95SAPC  H12A 9219   2.820   1.821   2.393  0.5811 -0.5165  1.1973
   95SAPC  H12B 9220   2.928   1.955   2.418 -2.8866  0.7026 -1.5836
   95SAPC   C13 9221   2.990   1.702   2.208  0.5887  0.8507  0.3995
   95SAPC  H13A 9222   2.907   1.635   2.223  2.0483 -1.0616  0.3133
   95SAPC  H13B 9223   3.021   1.702   2.105 -1.2359  0.0296 -0.1841
   95SAPC  H13C 9224   3.079   1.670   2.260  0.8053 -2.3354 -1.6844
   95SAPC   C14 9225   2.851   1.887   2.145 -0.4639  0.3340 -0.1003
   95SAPC  H14A 9226   2.766   1.822   2.152 -1.8813  2.1837  0.7888
   95SAPC  H14B 9227   2.805   1.983   2.164 -0.2325 -0.1052  3.2758
   95SAPC  H14C 9228   2.877   1.899   2.041 -0.3345  2.5913  0.1323
   95SAPC   C15 9229   3.074   1.929   2.204  0.1607  0.0051  0.2745
   95SAPC  H15A 9230   3.107   1.942   2.102  3.1514  0.1792  1.1841
   95SAPC  H15B 9231   3.074   2.027   2.249 -1.4119 -0.0982  0.5626
   95SAPC  H15C 9232   3.163   1.891   2.251  0.5542  1.0525  0.4022
   95SAPC   C11 9233   3.021   1.782   2.490 -0.0480 -0.3084 -0.0935
   95SAPC  H11A 9234   3.008   1.673   2.480 -1.1971 -0.2143  0.2556
   95SAPC  H11B 9235   2.978   1.812   2.588  0.9894 -1.2279  0.6591
   95SAPC     P 9236   3.190   1.978   2.532 -0.0985 -0.2011  0.1457
   95SAPC   O13 9237   3.334   1.996   2.495  0.2193  0.1395  0.4709
   95SAPC   O14 9238   3.097   2.073   2.470  0.4622  0.6080 -0.3344
   95SAPC   O12 9239   3.156   1.829   2.482  0.5244  0.4783  0.2346
   95SAPC   O11 9240   3.160   1.973   2.691  0.0240  0.3691 -0.0898
   95SAPC    C1 9241   3.243   2.049   2.774 -0.1980  0.0024 -0.0877
   95SAPC    HA 9242   3.347   2.014   2.756  0.1591  0.3850  1.1316
   95SAPC    HB 9243   3.230   2.157   2.752 -2.2203 -0.6110 -2.2365
   95SAPC    C2 9244   3.209   2.031   2.925  0.2407 -0.7174 -0.8360
   95SAPC    HS 9245   3.195   1.921   2.938  0.3706 -0.4701  2.0012
   95SAPC   O21 9246   3.102   2.115   2.969  0.7397  0.3085 -0.1440
   95SAPC   C21 9247   2.981   2.063   2.942 -0.6022 -0.8046 -0.1350
   95SAPC   O22 9248   2.954   1.960   2.881  0.1136  0.4680 -0.6904
   95SAPC   C22 9249   2.871   2.145   3.013  0.3898  0.6613  0.5537
   95SAPC   H2R 9250   2.910   2.221   3.085  1.9992 -1.7469  2.3815
   95SAPC   H2S 9251   2.796   2.186   2.942 -0.5066  0.0372  1.1177
   95SAPC    C3 9252   3.330   2.058   3.018 -0.4167  0.0474  0.4157
   95SAPC    HX 9253   3.346   2.168   3.022  1.1215 -0.1802  1.0758
   95SAPC    HY 9254   3.424   2.015   2.976 -0.5970 -1.8328  1.8060
   95SAPC   O31 9255   3.313   2.005   3.157 -0.1727  0.2098 -0.3928
   95SAPC   C31 9256   3.347   1.875   3.164  0.2879 -0.2794  0.6484
   95SAPC   O32 9257   3.367   1.802   3.072 -0.2992 -0.3898 -0.1361
   95SAPC   C32 9258   3.307   1.827   3.302  0.2401  0.1027  0.2910
   95SAPC   H2X 9259   3.267   1.723   3.301 -1.0879  0.6012  0.2968
   95SAPC   H2Y 9260   3.227   1.887   3.349 -0.5941  0.7635 -1.8697
   95SAPC   C23 9261   2.788   2.044   3.101 -0.1347  0.4247 -0.5595
   95SAPC   H3R 9262   2.721   1.976   3.044 -0.3136 -2.1281  2.4400
   95SAPC   H3S 9263   2.724   2.111   3.162 -0.2299  0.8993 -1.1696
   95SAPC   C24 9264   2.870   1.950   3.201  0.3004 -0.2498 -0.2178
   95SAPC   H4R 9265   2.943   2.012   3.256  0.3269  0.8941 -1.4968
   95SAPC   H4S 9266   2.931   1.877   3.144 -0.0015 -0.8664  0.2390
   95SAPC   C25 9267   2.773   1.880   3.292  0.2122 -0.0750  0.0235
   95SAPC   H5R 9268   2.684   1.839   3.240 -0.2522  1.3548 -0.3580
   95SAPC   C26 9269   2.795   1.870   3.426  0.0201  0.1005 -0.2854
   95SAPC   H6R 9270   2.713   1.818   3.477 -0.0791 -0.2831 -0.8175
   95SAPC   C27 9271   2.909   1.930   3.505 -0.2140 -0.5183 -0.3550
   95SAPC   H7R 9272   2.871   2.017   3.563 -0.0317 -0.9240  0.3842
   95SAPC   H7S 9273   2.984   1.981   3.441 -0.9469  0.4481 -0.4700
   95SAPC   C28 9274   2.967   1.821   3.587 -0.1922 -0.0092  0.1265
   95SAPC   H8R 9275   2.988   1.723   3.542 -0.4593 -1.0302  2.0856
   95SAPC   C29 9276   3.006   1.827   3.718  0.3561 -0.6340 -0.3189
   95SAPC   H9R 9277   3.051   1.737   3.763  1.2596  0.4473  0.9995
   95SAPC  C210 9278   2.998   1.945   3.805 -0.0839 -0.3591 -0.0996
   95SAPC  H10R 9279   2.947   2.032   3.757 -1.9805 -1.3578 -0.0079
   95SAPC  H10S 9280   3.102   1.974   3.830  0.4911 -0.9767 -1.6667
   95SAPC  C211 9281   2.924   1.916   3.935  0.7004  0.2687 -0.3374
   95SAPC  H11R 9282   2.818   1.891   3.925  1.0834 -2.4368  1.2845
   95SAPC  C212 9283   2.957   1.929   4.062  0.1854 -0.8356 -0.8554
   95SAPC  H12R 9284   2.878   1.928   4.138  2.1918 -0.3411  1.3714
   95SAPC  C213 9285   3.092   1.968   4.121 -0.0977  0.1731 -0.1562
   95SAPC  H13R 9286   3.080   2.044   4.201 -0.2437  1.6537 -1.5233
   95SAPC  H13S 9287   3.153   2.019   4.044 -0.9270  3.9118  1.4112
   95SAPC  C214 9288   3.154   1.842   4.175 -0.0474  0.2587 -0.2614
   95SAPC  H14R 9289   3.142   1.751   4.116 -0.3418 -0.5199  0.9677
   95SAPC  C215 9290   3.213   1.831   4.296 -0.4467  0.1754 -0.2607
   95SAPC  H15R 9291   3.269   1.741   4.324  0.0182  1.1073  2.0552
   95SAPC  C216 9292   3.249   1.943   4.391 -0.4224 -0.2880  0.0901
   95SAPC  H16R 9293   3.237   2.039   4.339  0.3954  0.1628  0.6950
   95SAPC  H16S 9294   3.357   1.937   4.417 -0.6908  1.6069  1.9040
   95SAPC  C217 9295   3.167   1.922   4.518 -0.4809 -0.2327 -0.6900
   95SAPC  H17R 9296   3.184   1.822   4.562 -2.3702 -0.3922 -0.2324
   95SAPC  H17S 9297   3.059   1.935   4.498 -0.2185  3.6653 -0.4445
   95SAPC  C218 9298   3.183   2.032   4.627  0.4593  0.5259 -0.0251
   95SAPC  H18R 9299   3.149   2.132   4.591  0.1684  0.7017  0.7209
   95SAPC  H18S 9300   3.293   2.039   4.642  0.4226 -1.1876  1.3650
   95SAPC  C219 9301   3.107   2.001   4.758  0.0024  0.1692  0.8729
   95SAPC  H19R 9302   3.146   1.912   4.812  0.2039 -1.8794 -2.3324
   95SAPC  H19S 9303   3.000   1.972   4.747 -0.3650  1.2445  1.5579
   95SAPC  C220 9304   3.114   2.118   4.854 -0.2420 -0.1391  0.6314
   95SAPC  H20R 9305   3.215   2.162   4.837 -0.2980 -1.0005 -2.5318
   95SAPC  H20S 9306   3.104   2.079   4.957 -0.9741 -0.4105  0.4616
   95SAPC  H20T 9307   3.030   2.185   4.826 -0.3359 -0.0525  1.1078
   95SAPC   C33 9308   3.423   1.835   3.399 -0.5504 -0.3869 -0.2487
   95SAPC   H3X 9309   3.465   1.935   3.422  2.2029 -1.6183  0.4280
   95SAPC   H3Y 9310   3.509   1.778   3.358  0.2395  0.0931  0.7088
   95SAPC   C34 9311   3.381   1.776   3.529 -0.4287  0.5019 -0.4480
   95SAPC   H4X 9312   3.358   1.671   3.501 -0.3375  0.4794 -0.4392
   95SAPC   H4Y 9313   3.288   1.825   3.566 -1.7578 -1.4748 -0.9709
   95SAPC   C35 9314   3.493   1.766   3.638 -0.4584 -0.3739  0.5072
   95SAPC   H5X 9315   3.534   1.869   3.640  1.3479 -1.0066 -0.9355
   95SAPC   H5Y 9316   3.577   1.702   3.602  0.4297  2.0173 -2.0779
   95SAPC   C36 9317   3.446   1.712   3.764  0.4532 -0.5298  0.6921
   95SAPC   H6X 9318   3.422   1.605   3.747  0.9886 -0.3505 -1.4444
   95SAPC   H6Y 9319   3.355   1.762   3.803  0.2937  0.0663 -0.4259
   95SAPC   C37 9320   3.545   1.723   3.884 -0.0513  0.5631  0.0658
   95SAPC   H7X 9321   3.571   1.831   3.887  2.1550  0.2929 -3.2009
   95SAPC   H7Y 9322   3.630   1.659   3.852 -2.6573 -2.0401 -2.2717
   95SAPC   C38 9323   3.476   1.684   4.021  0.4458  0.3079  0.3902
   95SAPC   H8X 9324   3.370   1.716   4.021  0.1269 -0.2997  4.5096
   95SAPC   H8Y 9325   3.530   1.728   4.107  1.8488  0.5940 -0.5991
   95SAPC   C39 9326   3.481   1.529   4.027  0.3523  1.0424 -0.3667
   95SAPC   H9X 9327   3.588   1.502   4.011  0.4729  0.8397  0.6904
   95SAPC   H9Y 9328   3.419   1.485   3.947  2.2233 -0.1090 -1.2581
   95SAPC  C310 9329   3.427   1.469   4.161 -0.8220 -0.2864 -0.2989
   95SAPC  H10X 9330   3.409   1.360   4.153 -0.6163 -0.2024 -2.4996
   95SAPC  H10Y 9331   3.328   1.514   4.185 -2.1069 -2.4059 -1.3559
   95SAPC  C311 9332   3.520   1.507   4.276  0.1661  0.0011 -0.1821
   95SAPC  H11X 9333   3.487   1.599   4.329  0.8478  0.4921 -0.6004
   95SAPC  H11Y 9334   3.618   1.529   4.230  0.6811  0.4689  1.0976
   95SAPC  C312 9335   3.527   1.401   4.386 -0.5879 -0.0315 -0.7392
   95SAPC  H12X 9336   3.616   1.424   4.448 -2.3179 -0.4460  2.0755
   95SAPC  H12Y 9337   3.546   1.305   4.333 -2.8469 -1.8982  1.5894
   95SAPC  C313 9338   3.407   1.397   4.476  0.5566  0.4188 -0.1941
   95SAPC  H13X 9339   3.322   1.361   4.414  0.4095 -2.9623  1.7354
   95SAPC  H13Y 9340   3.377   1.492   4.525 -0.2507  0.2571 -0.3532
   95SAPC  C314 9341   3.431   1.283   4.579  0.3699 -0.3589  0.8160
   95SAPC  H14X 9342   3.465   1.194   4.522  1.2837  1.2869 -1.3837
   95SAPC  H14Y 9343   3.335   1.257   4.628  0.2716 -2.0254 -0.2144
   95SAPC  C315 9344   3.531   1.323   4.694  0.4474  0.0663 -0.7999
   95SAPC  H15X 9345   3.483   1.386   4.772  0.4392 -1.8609  0.8519
   95SAPC  H15Y 9346   3.612   1.378   4.642  2.0005 -0.5863  0.8520
   95SAPC  C316 9347   3.598   1.197   4.760  0.3467  0.1849  0.0968
   95SAPC  H16X 9348   3.640   1.134   4.679 -0.7793 -1.7823  0.9715
   95SAPC  H16Y 9349   3.521   1.136   4.811 -0.0777  0.8492  0.2627
   95SAPC  C317 9350   3.717   1.227   4.863 -0.1700 -0.3902  0.5582
   95SAPC  H17X 9351   3.679   1.303   4.935 -0.5941 -0.6981  0.6632
   95SAPC  H17Y 9352   3.801   1.268   4.804 -0.3879 -2.7564 -1.5653
   95SAPC  C318 9353   3.765   1.105   4.939 -0.1311 -0.5626  0.5498
   95SAPC  H18X 9354   3.680   1.057   4.991  0.2701 -1.0940  0.7315
   95SAPC  H18Y 9355   3.847   1.133   5.009 -0.4515  1.6868  0.1098
   95SAPC  H18Z 9356   3.815   1.036   4.868  0.8423 -0.7177  1.3612
   96SAPC     N 9357   4.631   4.130   2.647  0.3154 -0.3826  0.0529
   96SAPC   C12 9358   4.769   4.067   2.690  0.4450 -0.9565  0.1694
   96SAPC  H12A 9359   4.834   4.143   2.731  0.3469 -0.8308  0.0920
   96SAPC  H12B 9360   4.821   4.035   2.601  1.2439  0.2302  0.1815
   96SAPC   C13 9361   4.539   4.142   2.765 -0.2720  0.2380 -0.1681
   96SAPC  H13A 9362   4.559   4.064   2.836  0.6520  0.4170 -0.2234
   96SAPC  H13B 9363   4.554   4.234   2.820 -1.3378 -0.2111  0.9350
   96SAPC  H13C 9364   4.436   4.139   2.730 -0.5764  0.9127  0.6273
   96SAPC   C14 9365   4.656   4.269   2.600 -0.5772 -0.1479  0.5569
   96SAPC  H14A 9366   4.689   4.315   2.692  2.8490 -2.2555  0.5413
   96SAPC  H14B 9367   4.730   4.280   2.523 -0.0943 -0.5255  0.9674
   96SAPC  H14C 9368   4.565   4.317   2.567  0.6651  2.0050  0.0651
   96SAPC   C15 9369   4.584   4.051   2.532  0.1538 -0.8300  0.8274
   96SAPC  H15A 9370   4.554   3.962   2.585  0.8814 -2.2701 -1.0620
   96SAPC  H15B 9371   4.500   4.099   2.482  0.7163 -0.2039  0.4696
   96SAPC  H15C 9372   4.660   4.017   2.464  1.8775 -0.3784  2.4707
   96SAPC   C11 9373   4.757   3.941   2.783  0.1698  0.2619 -0.0807
   96SAPC  H11A 9374   4.726   3.977   2.883 -0.7627  0.8271 -0.5584
   96SAPC  H11B 9375   4.849   3.887   2.814 -1.3442 -1.2797  2.0499
   96SAPC     P 9376   4.698   3.720   2.668  0.4644  0.5417  0.1499
   96SAPC   O13 9377   4.719   3.756   2.524 -0.1517  0.1692 -0.1088
   96SAPC   O14 9378   4.806   3.652   2.738  0.3192  1.1811 -0.3440
   96SAPC   O12 9379   4.656   3.851   2.744 -0.3931  0.3255  0.0149
   96SAPC   O11 9380   4.575   3.625   2.672  0.1603 -0.6627 -0.1743
   96SAPC    C1 9381   4.443   3.664   2.694  0.3279 -0.0972  0.8626
   96SAPC    HA 9382   4.423   3.773   2.685 -2.0418 -0.5005  0.4952
   96SAPC    HB 9383   4.376   3.628   2.613  1.4624  3.7354 -2.1041
   96SAPC    C2 9384   4.393   3.610   2.829 -0.3858  0.2311  0.8673
   96SAPC    HS 9385   4.283   3.616   2.839 -0.6571 -1.0149 -0.8203
   96SAPC   O21 9386   4.463   3.677   2.935  0.2875  0.6878 -0.0639
   96SAPC   C21 9387   4.397   3.787   2.983 -0.2723  0.1762  0.0752
   96SAPC   O22 9388   4.291   3.825   2.937 -0.0866 -0.4822  0.8106
   96SAPC   C22 9389   4.491   3.872   3.071  0.0278  0.8751 -0.5731
   96SAPC   H2R 9390   4.562   3.793   3.105 -2.5689 -1.0925  0.6016
   96SAPC   H2S 9391   4.545   3.939   3.001  1.0061  1.6917  0.9065
   96SAPC    C3 9392   4.411   3.459   2.830  0.1714 -0.6331  0.1425
   96SAPC    HX 9393   4.518   3.455   2.858  1.2405  3.3772 -2.5927
   96SAPC    HY 9394   4.400   3.424   2.725  1.0611  0.2590 -0.2629
   96SAPC   O31 9395   4.327   3.385   2.914  0.5991  0.3223 -0.1600
   96SAPC   C31 9396   4.359   3.264   2.950  0.1883  0.3723 -0.4754
   96SAPC   O32 9397   4.437   3.193   2.892 -0.1417 -0.2449 -0.1332
   96SAPC   C32 9398   4.278   3.229   3.074 -0.9100  0.2745 -0.0068
   96SAPC   H2X 9399   4.181   3.190   3.036  0.6963 -2.5573 -1.5466
   96SAPC   H2Y 9400   4.280   3.324   3.132  1.2328 -0.2733  0.9234
   96SAPC   C23 9401   4.425   3.958   3.176 -0.0164  0.3142  1.0582
   96SAPC   H3R 9402   4.330   4.006   3.144  0.8792  1.1595 -0.5013
   96SAPC   H3S 9403   4.493   4.045   3.193 -1.0177  1.5643 -0.8376
   96SAPC   C24 9404   4.393   3.886   3.315 -0.0082  0.5902  0.1957
   96SAPC   H4R 9405   4.328   3.799   3.290  0.2469 -0.0964  1.8265
   96SAPC   H4S 9406   4.326   3.951   3.375 -0.8570  0.1792 -0.2915
   96SAPC   C25 9407   4.514   3.843   3.400  0.1383 -0.0143  0.1033
   96SAPC   H5R 9408   4.586   3.792   3.334 -0.1313 -2.0250  1.2918
   96SAPC   C26 9409   4.531   3.849   3.535 -0.1905  0.8933 -0.0635
   96SAPC   H6R 9410   4.612   3.787   3.577 -1.8213 -0.5555  1.0682
   96SAPC   C27 9411   4.448   3.918   3.638  0.3049 -0.2482  0.5293
   96SAPC   H7R 9412   4.383   3.992   3.585  1.4401  1.3313  1.2544
   96SAPC   H7S 9413   4.520   3.980   3.695 -1.4445  1.7936  0.6816
   96SAPC   C28 9414   4.364   3.822   3.719 -0.0691  0.0317 -0.0670
   96SAPC   H8R 9415   4.277   3.779   3.667  0.3238 -1.1106  0.2005
   96SAPC   C29 9416   4.373   3.806   3.850 -0.3106 -0.4242  0.4771
   96SAPC   H9R 9417   4.299   3.739   3.897 -2.0039  1.8256  1.2257
   96SAPC  C210 9418   4.470   3.871   3.951  0.4103  0.7018  0.2036
   96SAPC  H10R 9419   4.527   3.953   3.902 -0.0724  0.4345 -0.8406
   96SAPC  H10S 9420   4.530   3.785   3.988 -0.0082 -0.2351 -1.2408
   96SAPC  C211 9421   4.373   3.909   4.069  0.7718 -0.5327 -0.1862
   96SAPC  H11R 9422   4.269   3.934   4.045  1.6879 -0.0663 -4.5895
   96SAPC  C212 9423   4.403   3.908   4.202 -0.1979 -0.4871 -0.0014
   96SAPC  H12R 9424   4.323   3.927   4.275 -1.3211 -0.2794 -1.2556
   96SAPC  C213 9425   4.536   3.865   4.266 -0.7693  0.2159  0.0907
   96SAPC  H13R 9426   4.625   3.919   4.227  0.5070 -1.6127  0.3016
   96SAPC  H13S 9427   4.545   3.756   4.247  0.9952  0.4982 -0.8928
   96SAPC  C214 9428   4.544   3.888   4.408 -0.1278 -0.4804  0.2652
   96SAPC  H14R 9429   4.511   3.989   4.437 -1.2553 -0.2146 -1.7932
   96SAPC  C215 9430   4.565   3.803   4.509 -0.2741  0.4294  0.3014
   96SAPC  H15R 9431   4.566   3.841   4.612  0.6571  1.9740 -0.2601
   96SAPC  C216 9432   4.601   3.653   4.493 -0.2556 -0.1023  0.4289
   96SAPC  H16R 9433   4.554   3.618   4.399 -2.4006 -0.1554  1.4615
   96SAPC  H16S 9434   4.555   3.599   4.578  0.6896  1.0817  1.7451
   96SAPC  C217 9435   4.754   3.623   4.490 -0.2981 -0.3353  0.5140
   96SAPC  H17R 9436   4.800   3.678   4.406  2.0155 -1.1094  1.2025
   96SAPC  H17S 9437   4.774   3.520   4.455 -3.0371 -0.4536 -0.9622
   96SAPC  C218 9438   4.827   3.674   4.616 -0.5051  0.7527  0.3180
   96SAPC  H18R 9439   4.784   3.621   4.704 -2.1169 -0.0972 -0.9422
   96SAPC  H18S 9440   4.809   3.784   4.626  1.7183  1.0421  1.8563
   96SAPC  C219 9441   4.978   3.647   4.623 -0.3498 -0.1071 -0.2077
   96SAPC  H19R 9442   5.013   3.674   4.521  2.7665  0.5998  0.9433
   96SAPC  H19S 9443   4.990   3.537   4.633 -1.7510 -0.0993  2.5178
   96SAPC  C220 9444   5.049   3.719   4.732 -0.0606  0.1688 -0.8063
   96SAPC  H20R 9445   4.984   3.702   4.821 -0.8986 -0.6402 -1.5518
   96SAPC  H20S 9446   5.040   3.829   4.725 -1.3934  0.5882  3.9587
   96SAPC  H20T 9447   5.150   3.676   4.748  0.4778  1.5319 -0.4375
   96SAPC   C33 9448   4.339   3.105   3.158  0.6481 -0.4791  0.3770
   96SAPC   H3X 9449   4.445   3.131   3.174  0.1183  2.8108 -0.7021
   96SAPC   H3Y 9450   4.341   3.022   3.085 -1.3501  0.3740 -0.7322
   96SAPC   C34 9451   4.262   3.073   3.286 -0.2941 -0.2665 -0.2069
   96SAPC   H4X 9452   4.166   3.022   3.265 -0.4072 -0.3054  0.3828
   96SAPC   H4Y 9453   4.242   3.173   3.329  0.1712 -1.1910  2.3334
   96SAPC   C35 9454   4.342   2.986   3.391  0.1768  0.4110  0.1635
   96SAPC   H5X 9455   4.406   3.052   3.453 -0.0065  0.4357  0.3255
   96SAPC   H5Y 9456   4.404   2.917   3.329 -0.9045 -2.9252  2.4868
   96SAPC   C36 9457   4.241   2.920   3.485 -0.5557 -0.2020 -0.4704
   96SAPC   H6X 9458   4.183   2.836   3.442 -0.5086 -0.4558 -0.0464
   96SAPC   H6Y 9459   4.173   2.999   3.522  0.7353  1.4636 -1.5124
   96SAPC   C37 9460   4.314   2.871   3.608  0.4057  0.3135  0.5851
   96SAPC   H7X 9461   4.375   2.953   3.652  1.5590 -0.1738 -0.0516
   96SAPC   H7Y 9462   4.387   2.796   3.571  0.3057 -0.2959  1.5747
   96SAPC   C38 9463   4.220   2.816   3.719  0.1977 -0.4452  0.2367
   96SAPC   H8X 9464   4.141   2.752   3.676  0.0404  0.3559 -0.6851
   96SAPC   H8Y 9465   4.170   2.904   3.766  1.3858  0.1373  0.4758
   96SAPC   C39 9466   4.295   2.752   3.837 -0.1926  0.7136  0.0013
   96SAPC   H9X 9467   4.351   2.826   3.898 -1.2089  1.6166 -0.1273
   96SAPC   H9Y 9468   4.365   2.673   3.801  0.1263  1.5208 -1.2023
   96SAPC  C310 9469   4.199   2.676   3.935  0.7423 -0.2567 -0.0782
   96SAPC  H10X 9470   4.152   2.590   3.884 -0.8993 -0.2434  1.3314
   96SAPC  H10Y 9471   4.121   2.747   3.971  2.0046  0.8783  0.5317
   96SAPC  C311 9472   4.257   2.607   4.051 -0.0814 -0.0490 -0.2935
   96SAPC  H11X 9473   4.331   2.533   4.013 -0.1935 -1.1966  1.5467
   96SAPC  H11Y 9474   4.173   2.549   4.097 -0.6835  0.2261 -1.0324
   96SAPC  C312 9475   4.320   2.697   4.151 -0.4831 -0.0868 -0.3172
   96SAPC  H12X 9476   4.248   2.769   4.195 -0.7369 -0.8303  0.5088
   96SAPC  H12Y 9477   4.402   2.756   4.105 -0.3332 -1.2028 -1.5461
   96SAPC  C313 9478   4.386   2.633   4.276 -0.2485 -0.1087  0.8836
   96SAPC  H13X 9479   4.469   2.697   4.313  0.0345 -0.5519  1.0326
   96SAPC  H13Y 9480   4.442   2.542   4.244 -1.0275  0.1582 -1.4187
   96SAPC  C314 9481   4.290   2.596   4.385 -0.0289 -0.1423  0.3029
   96SAPC  H14X 9482   4.195   2.560   4.339 -0.3345  1.4390 -0.3868
   96SAPC  H14Y 9483   4.258   2.693   4.429  1.5688  0.5196  0.0695
   96SAPC  C315 9484   4.349   2.500   4.488 -0.2865  0.8787 -0.0714
   96SAPC  H15X 9485   4.404   2.415   4.442 -3.7200 -1.4789 -0.1973
   96SAPC  H15Y 9486   4.266   2.455   4.547  1.8341 -2.3184  0.7404
   96SAPC  C316 9487   4.440   2.569   4.591 -0.2429  0.0267 -0.2513
   96SAPC  H16X 9488   4.527   2.611   4.536  0.5251  2.3720  2.4991
   96SAPC  H16Y 9489   4.475   2.495   4.666 -1.4477 -1.4909 -1.1223
   96SAPC  C317 9490   4.377   2.685   4.663  0.0331  0.2930 -0.6113
   96SAPC  H17X 9491   4.273   2.653   4.684  1.0012 -1.8943  1.3820
   96SAPC  H17Y 9492   4.376   2.770   4.592  1.4452  1.0005  0.1674
   96SAPC  C318 9493   4.444   2.724   4.796  0.3281  0.8694  0.3767
   96SAPC  H18X 9494   4.552   2.745   4.787  0.5049  0.7990  1.9896
   96SAPC  H18Y 9495   4.435   2.643   4.872 -0.2190  1.7040  1.2216
   96SAPC  H18Z 9496   4.418   2.819   4.846  0.5916  0.8585  0.5354
   97SAPC     N 9497   0.914   2.328   2.374 -0.0724 -0.2652 -0.1322
   97SAPC   C12 9498   0.804   2.423   2.312 -0.6593  0.0413  0.5396
   97SAPC  H12A 9499   0.790   2.397   2.208 -0.0688  0.8919  0.2432
   97SAPC  H12B 9500   0.832   2.527   2.312  0.7909 -0.2621 -2.2782
   97SAPC   C13 9501   0.867   2.185   2.358  0.4855  0.1665 -0.3762
   97SAPC  H13A 9502   0.947   2.118   2.386 -1.6093 -3.5550 -2.5278
   97SAPC  H13B 9503   0.782   2.180   2.424 -0.2752  0.5402 -1.3010
   97SAPC  H13C 9504   0.829   2.159   2.260 -1.1483 -0.4375  0.3934
   97SAPC   C14 9505   1.044   2.359   2.308 -0.0617 -0.0367 -0.4807
   97SAPC  H14A 9506   1.118   2.294   2.351 -2.2743 -2.8574 -0.6490
   97SAPC  H14B 9507   1.057   2.337   2.204  1.7386  2.0378 -0.7825
   97SAPC  H14C 9508   1.077   2.460   2.328 -0.0928 -0.1225  0.0214
   97SAPC   C15 9509   0.936   2.350   2.524  0.1100  0.0080  0.7788
   97SAPC  H15A 9510   0.844   2.336   2.579 -1.5933  0.3287 -1.8467
   97SAPC  H15B 9511   1.021   2.286   2.546  0.7259  0.5549  0.0184
   97SAPC  H15C 9512   0.960   2.454   2.540 -3.1210  0.4779  3.7694
   97SAPC   C11 9513   0.666   2.408   2.375 -0.5058 -0.1844  0.1591
   97SAPC  H11A 9514   0.631   2.303   2.368 -1.0268 -0.1258  1.5464
   97SAPC  H11B 9515   0.588   2.459   2.314 -0.8097 -1.1488 -0.2771
   97SAPC     P 9516   0.662   2.594   2.554 -0.0609  0.0238 -0.2507
   97SAPC   O13 9517   0.791   2.655   2.528 -0.0337  0.1349 -0.0490
   97SAPC   O14 9518   0.547   2.661   2.485 -0.3967  0.4902  0.1284
   97SAPC   O12 9519   0.665   2.444   2.514  0.6789  0.0235  0.6121
   97SAPC   O11 9520   0.624   2.589   2.708  0.1853  0.5204 -0.0036
   97SAPC    C1 9521   0.611   2.710   2.778  0.1296  0.7426 -1.0209
   97SAPC    HA 9522   0.691   2.785   2.760  1.1733  0.1443  0.8675
   97SAPC    HB 9523   0.509   2.754   2.767 -1.4457 -2.3897 -0.2105
   97SAPC    C2 9524   0.595   2.687   2.939  0.2309 -0.8129  0.3590
   97SAPC    HS 9525   0.573   2.784   2.988  1.2583 -1.0326  1.2931
   97SAPC   O21 9526   0.726   2.635   2.987  0.3616  0.1989  0.4936
   97SAPC   C21 9527   0.743   2.655   3.115 -0.4371 -0.3474 -0.7197
   97SAPC   O22 9528   0.668   2.715   3.188 -0.0038  0.6700 -0.5702
   97SAPC   C22 9529   0.884   2.599   3.159 -0.3953  0.3733 -0.2642
   97SAPC   H2R 9530   0.865   2.491   3.180  0.2396  0.7840  2.8230
   97SAPC   H2S 9531   0.961   2.619   3.081  2.3430  0.0802  2.2020
   97SAPC    C3 9532   0.474   2.586   2.953 -0.3417  0.3388  0.1832
   97SAPC    HX 9533   0.511   2.488   2.915  2.3995  0.1228  3.0411
   97SAPC    HY 9534   0.391   2.620   2.888  0.4058  1.2971 -0.3008
   97SAPC   O31 9535   0.435   2.575   3.090 -0.8284 -0.1013 -0.0678
   97SAPC   C31 9536   0.316   2.631   3.122  0.6614 -0.0529  0.0560
   97SAPC   O32 9537   0.244   2.691   3.047  0.2069  0.1595 -0.4765
   97SAPC   C32 9538   0.272   2.578   3.261  0.3813  0.6102  0.0090
   97SAPC   H2X 9539   0.360   2.592   3.327 -0.0032 -0.5147  0.7940
   97SAPC   H2Y 9540   0.258   2.469   3.251  0.9832  0.6098 -0.8972
   97SAPC   C23 9541   0.936   2.663   3.289  0.0670 -0.3999  0.1977
   97SAPC   H3R 9542   0.856   2.643   3.364 -0.8916  1.5864 -0.2327
   97SAPC   H3S 9543   0.955   2.769   3.264  0.1691 -0.2357  0.9683
   97SAPC   C24 9544   1.068   2.588   3.337 -0.6482 -0.4469 -0.9522
   97SAPC   H4R 9545   1.136   2.590   3.249  3.3806  1.9157  1.8756
   97SAPC   H4S 9546   1.057   2.479   3.353  0.7744 -0.3739  0.9648
   97SAPC   C25 9547   1.125   2.668   3.453  0.8826  0.3667  0.1651
   97SAPC   H5R 9548   1.160   2.769   3.426  0.4590 -0.3474 -3.6267
   97SAPC   C26 9549   1.121   2.627   3.581 -0.2380 -0.1941  0.2490
   97SAPC   H6R 9550   1.158   2.703   3.652  1.6426  0.5861 -1.4540
   97SAPC   C27 9551   1.086   2.493   3.643  0.2500 -0.0804  0.2465
   97SAPC   H7R 9552   1.166   2.446   3.705  1.0516 -2.0932 -2.1458
   97SAPC   H7S 9553   1.063   2.417   3.565 -1.8000  0.1323  0.5989
   97SAPC   C28 9554   0.951   2.486   3.716 -0.4005 -0.5818  0.2734
   97SAPC   H8R 9555   0.860   2.487   3.655  0.4148 -1.3667 -0.9877
   97SAPC   C29 9556   0.937   2.499   3.850 -0.0072  0.6250 -0.0168
   97SAPC   H9R 9557   0.836   2.505   3.891  1.1208  1.0683  2.9420
   97SAPC  C210 9558   1.042   2.517   3.951 -0.4513  0.0262 -0.3576
   97SAPC  H10R 9559   1.099   2.605   3.913  1.1721 -0.2536  1.2601
   97SAPC  H10S 9560   1.109   2.429   3.950  0.1642  0.4861 -0.4283
   97SAPC  C211 9561   1.000   2.550   4.092  0.3389  0.5159 -0.5344
   97SAPC  H11R 9562   0.961   2.652   4.107  0.3388  0.8632 -2.5522
   97SAPC  C212 9563   0.994   2.466   4.199  0.4129 -0.3027  0.2665
   97SAPC  H12R 9564   0.958   2.507   4.295 -0.8465 -0.5964 -0.0547
   97SAPC  C213 9565   1.020   2.319   4.210  0.2472 -0.0270 -0.5640
   97SAPC  H13R 9566   1.067   2.300   4.309  0.5272 -1.4377 -0.9525
   97SAPC  H13S 9567   1.091   2.289   4.131 -0.4689 -0.1296 -1.1767
   97SAPC  C214 9568   0.897   2.235   4.188  0.1183  0.5979 -1.0578
   97SAPC  H14R 9569   0.848   2.240   4.090  0.4267  1.0812 -1.1860
   97SAPC  C215 9570   0.816   2.179   4.287  0.3758  0.0762  0.2790
   97SAPC  H15R 9571   0.733   2.120   4.247 -0.3878  0.2224  1.5916
   97SAPC  C216 9572   0.850   2.180   4.432  0.5606 -0.6800 -0.1904
   97SAPC  H16R 9573   0.952   2.137   4.438  0.6406 -0.4754 -0.0603
   97SAPC  H16S 9574   0.778   2.115   4.487 -0.4779  1.1839  0.7803
   97SAPC  C217 9575   0.844   2.321   4.500  0.2492  0.3298  0.6405
   97SAPC  H17R 9576   0.743   2.366   4.501  0.3887  0.8567 -1.9467
   97SAPC  H17S 9577   0.901   2.391   4.435 -3.4362  0.8101 -2.4120
   97SAPC  C218 9578   0.907   2.317   4.645 -0.0010 -0.7988  0.4257
   97SAPC  H18R 9579   0.936   2.423   4.662  2.8723 -1.4823  0.4209
   97SAPC  H18S 9580   1.000   2.256   4.647  1.4386  1.2987  0.9423
   97SAPC  C219 9581   0.810   2.270   4.757  0.0515  0.1335  0.3442
   97SAPC  H19R 9582   0.794   2.162   4.735  2.2087 -0.0407 -0.6969
   97SAPC  H19S 9583   0.714   2.324   4.743 -1.7606 -2.0955  2.9794
   97SAPC  C220 9584   0.866   2.289   4.897 -0.1012  0.1195 -0.4414
   97SAPC  H20R 9585   0.963   2.236   4.913  0.6657  1.5211 -0.2852
   97SAPC  H20S 9586   0.802   2.251   4.980  1.4122  0.0653  0.7482
   97SAPC  H20T 9587   0.890   2.396   4.915 -2.2906  1.1782 -3.0776
   97SAPC   C33 9588   0.146   2.645   3.315 -0.6302  0.7743 -0.0208
   97SAPC   H3X 9589   0.061   2.637   3.243 -1.3637  1.8760  0.6854
   97SAPC   H3Y 9590   0.159   2.756   3.318  2.7944  0.4561  0.9333
   97SAPC   C34 9591   0.111   2.596   3.451  0.7211 -0.0360 -0.1164
   97SAPC   H4X 9592   0.203   2.616   3.511  0.0500  2.1985  0.2264
   97SAPC   H4Y 9593   0.094   2.486   3.443 -0.8098  0.2507 -1.1299
   97SAPC   C35 9594  -0.004   2.684   3.501 -0.2232  0.1683  0.1235
   97SAPC   H5X 9595  -0.085   2.671   3.427 -1.5655  0.2739  1.5342
   97SAPC   H5Y 9596   0.024   2.791   3.499 -0.1312  0.1382 -0.3150
   97SAPC   C36 9597  -0.045   2.631   3.637  0.5605  0.0259 -0.4442
   97SAPC   H6X 9598   0.041   2.626   3.708 -0.3550  1.3345  0.8259
   97SAPC   H6Y 9599  -0.088   2.529   3.631 -1.7875  0.9284  0.1840
   97SAPC   C37 9600  -0.166   2.708   3.695 -0.1977  0.0187 -0.3087
   97SAPC   H7X 9601  -0.237   2.714   3.610 -0.9139 -0.0757  0.2747
   97SAPC   H7Y 9602  -0.122   2.804   3.729  1.1521 -1.3753  2.1867
   97SAPC   C38 9603  -0.213   2.630   3.823  0.0940  0.7460  0.8310
   97SAPC   H8X 9604  -0.197   2.526   3.788  4.9942  2.2189 -2.2585
   97SAPC   H8Y 9605  -0.319   2.649   3.851 -0.8434 -1.6511 -0.7225
   97SAPC   C39 9606  -0.121   2.656   3.942 -0.3228 -0.9580  0.2653
   97SAPC   H9X 9607  -0.019   2.643   3.900 -0.1385 -1.4769  0.8562
   97SAPC   H9Y 9608  -0.145   2.575   4.014  3.0759 -2.0975  0.2826
   97SAPC  C310 9609  -0.137   2.795   4.010 -0.8668  0.5583 -0.2672
   97SAPC  H10X 9610  -0.245   2.815   4.026 -0.1998  2.5842  2.2752
   97SAPC  H10Y 9611  -0.113   2.875   3.937 -2.3812  1.2002 -0.1000
   97SAPC  C311 9612  -0.059   2.816   4.137 -0.2571 -0.5895  0.1263
   97SAPC  H11X 9613  -0.037   2.921   4.164 -1.3557 -0.5804  1.0395
   97SAPC  H11Y 9614   0.038   2.761   4.133  2.6291  3.8729  1.3034
   97SAPC  C312 9615  -0.134   2.773   4.265  0.2310  0.7495 -0.2751
   97SAPC  H12X 9616  -0.183   2.675   4.253  1.3555  0.0782  0.4297
   97SAPC  H12Y 9617  -0.211   2.853   4.278  1.4149  2.1545 -1.5265
   97SAPC  C313 9618  -0.037   2.795   4.377 -0.0470  0.5218  0.2364
   97SAPC  H13X 9619   0.011   2.894   4.373 -2.0055  1.7347  3.1879
   97SAPC  H13Y 9620   0.040   2.717   4.363 -0.0217  0.8490 -1.6346
   97SAPC  C314 9621  -0.101   2.796   4.514 -0.1515 -0.6155  0.1585
   97SAPC  H14X 9622  -0.155   2.700   4.531 -0.6849 -0.2855  0.3571
   97SAPC  H14Y 9623  -0.172   2.880   4.527 -2.0763 -2.2028  0.4545
   97SAPC  C315 9624   0.006   2.819   4.624  0.1962  0.3832  0.2632
   97SAPC  H15X 9625   0.051   2.920   4.623  1.1598 -0.0294  0.8204
   97SAPC  H15Y 9626   0.078   2.738   4.599 -0.5120  0.6190 -2.9567
   97SAPC  C316 9627  -0.060   2.790   4.759 -0.3669  0.1924 -0.1566
   97SAPC  H16X 9628   0.021   2.804   4.834  0.4397 -2.8910 -0.3271
   97SAPC  H16Y 9629  -0.098   2.686   4.763  0.8580 -0.2880 -0.4360
   97SAPC  C317 9630  -0.175   2.881   4.796  0.2009  0.1821  0.3559
   97SAPC  H17X 9631  -0.266   2.850   4.740  0.3217 -1.3810  0.9913
   97SAPC  H17Y 9632  -0.143   2.987   4.781  1.8711 -0.6511 -2.5254
   97SAPC  C318 9633  -0.216   2.882   4.943 -0.4788  0.3723 -0.1970
   97SAPC  H18X 9634  -0.150   2.951   5.000  0.6818  0.8548 -2.0221
   97SAPC  H18Y 9635  -0.232   2.778   4.977 -0.2164 -0.2532 -1.9066
   97SAPC  H18Z 9636  -0.320   2.920   4.949 -1.1685 -1.2916 -1.2760
   98SAPC     N 9637   0.523   2.986   2.384  0.1482 -0.4779 -0.1495
   98SAPC   C12 9638   0.603   2.944   2.509  0.1324  0.0267 -0.3146
   98SAPC  H12A 9639   0.629   2.842   2.485  0.1364  0.2038 -1.0768
   98SAPC  H12B 9640   0.541   2.948   2.598  0.2250  1.0498 -0.2838
   98SAPC   C13 9641   0.462   3.118   2.416  0.6553 -0.6518  0.3862
   98SAPC  H13A 9642   0.527   3.200   2.443  1.0144 -1.3093  1.5902
   98SAPC  H13B 9643   0.415   3.159   2.327  2.4233  1.3534  0.3039
   98SAPC  H13C 9644   0.388   3.108   2.494  0.1863  0.0328  0.0421
   98SAPC   C14 9645   0.617   2.999   2.277 -0.4115 -0.2699  0.2649
   98SAPC  H14A 9646   0.570   3.034   2.186 -2.2471 -0.3287  1.1526
   98SAPC  H14B 9647   0.689   3.073   2.310 -1.0242  0.6040 -0.3120
   98SAPC  H14C 9648   0.670   2.909   2.250  0.6250  0.0512  1.1125
   98SAPC   C15 9649   0.416   2.889   2.354  0.1234  0.0260  0.2302
   98SAPC  H15A 9650   0.343   2.920   2.281  1.5382  2.2573 -0.3431
   98SAPC  H15B 9651   0.455   2.793   2.327  0.3353 -0.1495  1.1064
   98SAPC  H15C 9652   0.354   2.889   2.443  0.2004  2.6216  0.3575
   98SAPC   C11 9653   0.729   3.019   2.552  0.3098  0.1323 -0.9015
   98SAPC  H11A 9654   0.762   2.986   2.653 -2.2525  2.0129  0.6869
   98SAPC  H11B 9655   0.702   3.126   2.568  0.6867  0.3105 -1.4031
   98SAPC     P 9656   0.950   3.137   2.484  0.0208  0.3965 -0.2129
   98SAPC   O13 9657   1.082   3.097   2.424  0.4854 -0.6264  0.1217
   98SAPC   O14 9658   0.882   3.266   2.449 -0.5150 -0.6699 -0.1476
   98SAPC   O12 9659   0.843   3.019   2.465 -0.5240 -0.0026  0.0214
   98SAPC   O11 9660   0.965   3.138   2.645 -0.0858 -0.5004  0.3310
   98SAPC    C1 9661   1.045   3.042   2.712 -0.5393  0.0413 -0.4894
   98SAPC    HA 9662   1.028   2.939   2.674 -0.6121  0.7249 -2.4119
   98SAPC    HB 9663   1.156   3.053   2.707 -0.2921 -1.1652  1.4546
   98SAPC    C2 9664   1.011   3.047   2.871 -0.0909  0.0019  0.3384
   98SAPC    HS 9665   0.901   3.033   2.878 -0.5583  2.7378 -0.5271
   98SAPC   O21 9666   1.047   3.173   2.910  0.0273  0.0837 -0.0236
   98SAPC   C21 9667   1.022   3.209   3.032  0.1293  0.1286 -0.2083
   98SAPC   O22 9668   0.939   3.160   3.108  0.0205 -0.2678  0.4047
   98SAPC   C22 9669   1.102   3.337   3.057 -0.4373 -0.4809  0.1202
   98SAPC   H2R 9670   1.195   3.325   2.998  0.1860 -0.5223  1.0869
   98SAPC   H2S 9671   1.047   3.425   3.018  2.3136  1.2065 -0.2338
   98SAPC    C3 9672   1.072   2.941   2.958 -0.5541 -0.1561 -0.2485
   98SAPC    HX 9673   1.054   2.841   2.913  1.9080 -0.5563 -0.4780
   98SAPC    HY 9674   1.011   2.942   3.051  0.4660  1.2774  0.4417
   98SAPC   O31 9675   1.211   2.978   2.989  0.2845  0.3424  0.9542
   98SAPC   C31 9676   1.296   2.906   2.913  0.3749 -0.5142 -0.7656
   98SAPC   O32 9677   1.267   2.830   2.825  1.0610  0.1979 -0.9130
   98SAPC   C32 9678   1.438   2.942   2.960  0.7445 -0.4679  0.2066
   98SAPC   H2X 9679   1.472   3.046   2.940 -1.0430  0.1045  0.0536
   98SAPC   H2Y 9680   1.503   2.873   2.901  0.6702  0.9347 -1.5890
   98SAPC   C23 9681   1.138   3.358   3.206  0.2581 -0.3578  0.1038
   98SAPC   H3R 9682   1.056   3.316   3.267  0.0277 -2.5502 -1.5943
   98SAPC   H3S 9683   1.145   3.467   3.229 -1.0870 -0.1115 -0.5607
   98SAPC   C24 9684   1.271   3.287   3.243  1.0168  0.1557  0.1713
   98SAPC   H4R 9685   1.258   3.183   3.208  1.4149  1.1215 -3.1756
   98SAPC   H4S 9686   1.270   3.284   3.355  1.9635 -0.7510  0.1678
   98SAPC   C25 9687   1.389   3.366   3.184  0.6100 -0.8770  0.3287
   98SAPC   H5R 9688   1.374   3.389   3.077 -0.7028  1.0633  0.8595
   98SAPC   C26 9689   1.492   3.421   3.251  0.2712  0.1334  0.1851
   98SAPC   H6R 9690   1.573   3.477   3.202 -0.2031 -1.1392 -2.2192
   98SAPC   C27 9691   1.540   3.390   3.399  0.2395 -0.4363  0.3506
   98SAPC   H7R 9692   1.503   3.476   3.460  2.1835 -0.6367  1.9039
   98SAPC   H7S 9693   1.650   3.406   3.393  0.1910 -0.6246 -1.7546
   98SAPC   C28 9694   1.514   3.264   3.466  0.2405 -0.0966 -0.2232
   98SAPC   H8R 9695   1.471   3.193   3.394  0.1694  1.3811 -1.7267
   98SAPC   C29 9696   1.522   3.238   3.595 -0.1653 -1.3043  0.1198
   98SAPC   H9R 9697   1.469   3.156   3.646 -1.4258  1.1527  3.0770
   98SAPC  C210 9698   1.591   3.332   3.687  0.2937  0.1167  0.2544
   98SAPC  H10R 9699   1.662   3.391   3.624 -1.4013 -1.1811 -3.1542
   98SAPC  H10S 9700   1.646   3.267   3.757  1.5932  1.9596  1.0195
   98SAPC  C211 9701   1.489   3.420   3.755 -0.0022 -0.7818  0.3974
   98SAPC  H11R 9702   1.447   3.495   3.688  0.9881  0.3037  0.9606
   98SAPC  C212 9703   1.455   3.429   3.886  0.4722 -0.8156 -0.0655
   98SAPC  H12R 9704   1.379   3.505   3.910 -0.8853 -1.9016 -0.7972
   98SAPC  C213 9705   1.525   3.357   3.993 -0.0504  0.5477 -0.0067
   98SAPC  H13R 9706   1.549   3.255   3.958 -2.9470 -0.6887  1.2427
   98SAPC  H13S 9707   1.455   3.331   4.076 -2.5901  0.1841 -2.1188
   98SAPC  C214 9708   1.635   3.433   4.066 -0.5470  0.1859  0.8280
   98SAPC  H14R 9709   1.671   3.515   4.003 -2.6799 -0.0486 -0.8169
   98SAPC  C215 9710   1.679   3.408   4.189 -0.2771 -0.3719  0.7636
   98SAPC  H15R 9711   1.761   3.468   4.230 -1.0924  0.8657  0.6302
   98SAPC  C216 9712   1.639   3.291   4.276 -0.0127 -0.3080  0.2410
   98SAPC  H16R 9713   1.680   3.197   4.233  2.3015  0.3587  0.8374
   98SAPC  H16S 9714   1.529   3.285   4.290 -0.4942  0.6821 -2.4885
   98SAPC  C217 9715   1.699   3.302   4.418  0.4186  0.0905 -0.5719
   98SAPC  H17R 9716   1.679   3.206   4.469  0.2062  0.2123 -0.4219
   98SAPC  H17S 9717   1.647   3.376   4.482 -0.0898 -1.6674  1.1253
   98SAPC  C218 9718   1.857   3.319   4.415  0.2508 -0.6857  0.2354
   98SAPC  H18R 9719   1.882   3.422   4.382  2.8203 -2.0188 -2.4711
   98SAPC  H18S 9720   1.896   3.253   4.335 -2.0426 -1.6576 -0.1643
   98SAPC  C219 9721   1.938   3.297   4.547  0.5621 -0.1741  0.0654
   98SAPC  H19R 9722   1.857   3.301   4.623 -0.0450 -0.4199 -0.5665
   98SAPC  H19S 9723   2.017   3.374   4.563  1.0095 -0.7720  0.8521
   98SAPC  C220 9724   2.008   3.163   4.563  0.4811  0.2098 -0.4821
   98SAPC  H20R 9725   2.101   3.176   4.622  1.2606 -1.6365 -1.2270
   98SAPC  H20S 9726   2.033   3.114   4.467 -0.8986 -1.2091 -0.1622
   98SAPC  H20T 9727   1.952   3.085   4.620 -0.2101  1.1707  0.1778
   98SAPC   C33 9728   1.445   2.898   3.106  0.1714  0.0575 -0.4106
   98SAPC   H3X 9729   1.366   2.943   3.169  0.1299 -1.3229  0.5659
   98SAPC   H3Y 9730   1.540   2.939   3.144  0.7884 -1.4509 -0.2618
   98SAPC   C34 9731   1.470   2.749   3.125  0.4643 -0.6616 -0.2252
   98SAPC   H4X 9732   1.533   2.722   3.037  2.1426  0.7604  0.4795
   98SAPC   H4Y 9733   1.371   2.699   3.122 -0.8445  1.5171  2.6280
   98SAPC   C35 9734   1.549   2.725   3.251 -0.2370  0.2227 -0.0116
   98SAPC   H5X 9735   1.648   2.776   3.246  0.1690 -0.6285 -1.0155
   98SAPC   H5Y 9736   1.578   2.619   3.267  0.9401 -0.3944 -4.8257
   98SAPC   C36 9737   1.487   2.768   3.385  0.1128 -0.5879 -0.4519
   98SAPC   H6X 9738   1.411   2.701   3.430  0.2917  0.9076  2.2936
   98SAPC   H6Y 9739   1.438   2.868   3.380  2.2952  0.5182 -0.8353
   98SAPC   C37 9740   1.592   2.782   3.498 -0.3124  0.3436  0.3508
   98SAPC   H7X 9741   1.670   2.851   3.460 -0.7308 -0.2744 -1.7332
   98SAPC   H7Y 9742   1.635   2.680   3.504 -0.3809  0.0704 -2.4253
   98SAPC   C38 9743   1.529   2.823   3.629 -1.0575 -0.1711 -0.1784
   98SAPC   H8X 9744   1.434   2.767   3.647 -0.2620 -1.7125 -0.5801
   98SAPC   H8Y 9745   1.496   2.928   3.613  1.4315  0.5694 -0.9033
   98SAPC   C39 9746   1.635   2.818   3.743  0.5364 -0.2283 -0.0102
   98SAPC   H9X 9747   1.694   2.911   3.729  0.1595  0.2154  1.1863
   98SAPC   H9Y 9748   1.701   2.730   3.724  1.3071  0.5323 -0.9326
   98SAPC  C310 9749   1.576   2.813   3.881  0.4141 -0.1281 -0.3980
   98SAPC  H10X 9750   1.651   2.809   3.963  0.2499 -1.0936 -0.2845
   98SAPC  H10Y 9751   1.515   2.720   3.875  0.6315 -0.1642 -2.7343
   98SAPC  C311 9752   1.475   2.927   3.918 -0.3514 -0.0252  0.0437
   98SAPC  H11X 9753   1.397   2.906   3.842  1.1055 -1.4724 -1.1282
   98SAPC  H11Y 9754   1.509   3.030   3.894 -0.6420 -0.0456 -0.4743
   98SAPC  C312 9755   1.427   2.930   4.061  0.0399  0.4481  0.0233
   98SAPC  H12X 9756   1.417   3.038   4.084  0.7922  1.0458 -2.2042
   98SAPC  H12Y 9757   1.510   2.899   4.128  0.3897 -0.8321 -0.9468
   98SAPC  C313 9758   1.295   2.858   4.088  0.1037 -0.6129 -0.0871
   98SAPC  H13X 9759   1.301   2.748   4.077  1.5590 -0.5562  0.0604
   98SAPC  H13Y 9760   1.223   2.888   4.009 -1.3365  2.0909  2.0638
   98SAPC  C314 9761   1.236   2.918   4.221 -0.6301 -0.4564 -0.5819
   98SAPC  H14X 9762   1.208   3.026   4.219 -0.2600 -0.3066  1.0143
   98SAPC  H14Y 9763   1.313   2.911   4.300 -0.0015 -1.4542 -1.2603
   98SAPC  C315 9764   1.114   2.843   4.279 -0.2865 -0.7783 -0.3506
   98SAPC  H15X 9765   1.143   2.836   4.386  2.6652 -1.5144 -1.1109
   98SAPC  H15Y 9766   1.119   2.734   4.259  0.7640 -1.1404  1.7035
   98SAPC  C316 9767   0.975   2.911   4.250 -0.1380 -0.7124 -0.3504
   98SAPC  H16X 9768   0.960   2.999   4.316  0.9917  0.9788 -2.2286
   98SAPC  H16Y 9769   0.901   2.834   4.281 -0.0343  0.0975  2.1560
   98SAPC  C317 9770   0.970   2.942   4.103 -0.3671  0.2808 -0.8789
   98SAPC  H17X 9771   1.004   2.852   4.047  2.3369  1.2855 -0.9997
   98SAPC  H17Y 9772   1.048   3.018   4.083 -0.1235  0.1329 -0.5027
   98SAPC  C318 9773   0.828   2.978   4.056 -0.9057 -0.8993 -0.4954
   98SAPC  H18X 9774   0.760   2.891   4.062 -1.0243 -0.7092  2.2231
   98SAPC  H18Y 9775   0.832   3.007   3.949 -1.5908  1.0312 -0.0422
   98SAPC  H18Z 9776   0.797   3.060   4.124  2.5842  0.3770 -0.2474
   99SAPC     N 9777   4.010   1.345   2.155  0.3504 -0.3793  0.6320
   99SAPC   C12 9778   4.067   1.216   2.218  0.5232 -0.7636 -0.2899
   99SAPC  H12A 9779   4.169   1.234   2.248 -0.1150  0.8394  1.0332
   99SAPC  H12B 9780   4.066   1.136   2.145 -0.7694 -0.6105 -0.4605
   99SAPC   C13 9781   3.874   1.328   2.097 -0.0993 -0.2378  0.0371
   99SAPC  H13A 9782   3.807   1.293   2.175 -0.7876  1.3754  0.1937
   99SAPC  H13B 9783   3.831   1.416   2.051 -0.8765 -1.1402 -1.0268
   99SAPC  H13C 9784   3.881   1.260   2.013 -3.1488  0.8088 -1.2025
   99SAPC   C14 9785   3.994   1.448   2.261  0.5507  1.0024  0.2757
   99SAPC  H14A 9786   3.919   1.523   2.238 -0.5346 -0.6790 -2.0977
   99SAPC  H14B 9787   3.944   1.404   2.347 -1.6890 -0.1636 -1.5250
   99SAPC  H14C 9788   4.084   1.499   2.291  1.8187 -1.4822  0.9438
   99SAPC   C15 9789   4.096   1.401   2.048 -0.3338 -0.2647  0.0140
   99SAPC  H15A 9790   4.106   1.341   1.959 -1.3988  0.6952 -0.7850
   99SAPC  H15B 9791   4.062   1.500   2.021  2.9793  0.7977 -0.7026
   99SAPC  H15C 9792   4.196   1.404   2.088 -0.1626  3.0263 -0.3637
   99SAPC   C11 9793   4.001   1.145   2.338 -0.3349  0.4413 -0.5001
   99SAPC  H11A 9794   3.895   1.122   2.315 -0.4137 -0.5322  0.7184
   99SAPC  H11B 9795   3.992   1.208   2.429 -1.2555  0.9120 -0.9168
   99SAPC     P 9796   4.168   0.996   2.469 -0.3027  0.0853  0.2376
   99SAPC   O13 9797   4.229   0.859   2.444  0.5658  0.3037 -0.0806
   99SAPC   O14 9798   4.256   1.113   2.487  0.1748 -0.4196 -0.2136
   99SAPC   O12 9799   4.065   1.024   2.353  0.3063 -0.2985  0.2241
   99SAPC   O11 9800   4.084   0.995   2.591 -0.3818 -0.0021 -0.7081
   99SAPC    C1 9801   3.974   0.903   2.608  0.5935 -0.3516  0.3261
   99SAPC    HA 9802   3.887   0.969   2.627 -0.5340 -1.5248 -0.5510
   99SAPC    HB 9803   3.940   0.841   2.522 -0.3936  2.6116 -1.5892
   99SAPC    C2 9804   3.984   0.813   2.744  0.6572  0.9953  0.5777
   99SAPC    HS 9805   3.887   0.765   2.768  2.5562 -1.7445  3.6567
   99SAPC   O21 9806   4.013   0.896   2.858 -0.0830 -0.0602  0.0201
   99SAPC   C21 9807   3.919   0.973   2.903 -0.2617 -1.0673 -0.2539
   99SAPC   O22 9808   3.804   0.978   2.859  0.3055 -0.6571  0.3237
   99SAPC   C22 9809   3.981   1.048   3.016 -0.4678  0.2277  0.4891
   99SAPC   H2R 9810   4.058   1.110   2.966  0.6671 -1.5105  0.0029
   99SAPC   H2S 9811   3.911   1.126   3.054  0.1866  0.6600  0.8316
   99SAPC    C3 9812   4.088   0.702   2.732  0.2399  0.4452  0.2230
   99SAPC    HX 9813   4.190   0.747   2.735  0.8135 -0.7449 -0.4168
   99SAPC    HY 9814   4.069   0.662   2.630 -0.1207  0.4577  0.2837
   99SAPC   O31 9815   4.073   0.605   2.840  1.0032  0.2260  0.0241
   99SAPC   C31 9816   4.183   0.536   2.881 -0.0416 -0.5510  0.2791
   99SAPC   O32 9817   4.292   0.543   2.825  0.5557  0.5140 -0.3493
   99SAPC   C32 9818   4.138   0.461   3.003 -0.2559  0.0977 -0.0320
   99SAPC   H2X 9819   4.057   0.393   2.972 -0.2170  1.1824 -2.7424
   99SAPC   H2Y 9820   4.091   0.532   3.075  1.4710  0.3211  0.9464
   99SAPC   C23 9821   4.046   0.955   3.131  0.2612  0.2460 -0.7887
   99SAPC   H3R 9822   4.099   1.024   3.200 -1.2220  0.2980  0.3460
   99SAPC   H3S 9823   4.113   0.881   3.080  0.5873 -0.7430  1.0082
   99SAPC   C24 9824   3.944   0.887   3.220  0.0470  0.3893 -0.0752
   99SAPC   H4R 9825   3.991   0.805   3.279 -2.2562 -0.4117  0.7715
   99SAPC   H4S 9826   3.871   0.835   3.154  0.5405  0.6473 -0.8332
   99SAPC   C25 9827   3.870   0.981   3.311  0.0946 -0.5205 -1.4957
   99SAPC   H5R 9828   3.794   1.042   3.260  0.6342  1.6240  0.1098
   99SAPC   C26 9829   3.878   0.991   3.450 -0.7548 -0.3805  0.4986
   99SAPC   H6R 9830   3.822   1.067   3.505 -0.2574  0.8253 -0.6118
   99SAPC   C27 9831   3.962   0.914   3.549 -0.7087  0.7953 -0.6871
   99SAPC   H7R 9832   4.000   0.973   3.636  0.9617 -1.8313  0.4662
   99SAPC   H7S 9833   4.055   0.876   3.502 -0.6266  0.0295  0.0737
   99SAPC   C28 9834   3.897   0.787   3.602  0.7631 -0.5087 -0.3142
   99SAPC   H8R 9835   3.820   0.742   3.537 -1.3936 -0.7447  2.2227
   99SAPC   C29 9836   3.904   0.753   3.728 -0.1979 -0.2016  0.2667
   99SAPC   H9R 9837   3.855   0.656   3.744 -1.5549  0.3707 -0.2966
   99SAPC  C210 9838   4.014   0.808   3.824  0.8914 -0.3367 -0.5722
   99SAPC  H10R 9839   3.981   0.771   3.924 -0.0473  3.7773  0.8455
   99SAPC  H10S 9840   4.020   0.919   3.822 -1.1431 -0.1725  0.0938
   99SAPC  C211 9841   4.150   0.758   3.787 -0.5685 -0.9901 -0.0916
   99SAPC  H11R 9842   4.166   0.704   3.692  3.6114 -1.7882  0.8626
   99SAPC  C212 9843   4.256   0.767   3.870 -0.0619 -0.2713 -0.0697
   99SAPC  H12R 9844   4.351   0.740   3.822 -0.9644  0.1052 -2.1890
   99SAPC  C213 9845   4.270   0.814   4.011  0.2278  0.0141 -0.4318
   99SAPC  H13R 9846   4.172   0.853   4.046  1.1512  2.0292  0.0873
   99SAPC  H13S 9847   4.329   0.909   4.011 -1.0928  0.8727  0.6028
   99SAPC  C214 9848   4.326   0.713   4.115  0.5392  0.0766  0.6446
   99SAPC  H14R 9849   4.422   0.666   4.088 -0.7692 -1.5733 -1.4106
   99SAPC  C215 9850   4.255   0.681   4.224 -0.4707 -0.5017  0.1673
   99SAPC  H15R 9851   4.312   0.619   4.295  0.5673 -0.0634 -0.2589
   99SAPC  C216 9852   4.120   0.717   4.275  0.2800  0.2307 -0.7996
   99SAPC  H16R 9853   4.066   0.620   4.288  1.7260 -0.4468  0.4610
   99SAPC  H16S 9854   4.061   0.774   4.200 -1.2091 -0.7254 -0.4086
   99SAPC  C217 9855   4.125   0.783   4.411 -0.0989  0.5259  0.3093
   99SAPC  H17R 9856   4.164   0.886   4.395 -1.0283  1.0756  1.3718
   99SAPC  H17S 9857   4.194   0.737   4.484  1.3450  1.3478 -0.4834
   99SAPC  C218 9858   3.989   0.787   4.483  0.2791  0.5359  0.3968
   99SAPC  H18R 9859   3.978   0.682   4.518 -0.0946 -0.0408 -1.3756
   99SAPC  H18S 9860   3.901   0.811   4.420  0.8565 -1.2077 -1.1876
   99SAPC  C219 9861   3.999   0.871   4.613 -0.2935  0.3474  0.1257
   99SAPC  H19R 9862   4.086   0.830   4.669  0.2946  1.3858 -0.0006
   99SAPC  H19S 9863   3.910   0.851   4.676 -0.2748  0.4147  0.1740
   99SAPC  C220 9864   4.006   1.023   4.599  0.2359 -0.2909 -0.0902
   99SAPC  H20R 9865   3.909   1.058   4.558  0.8755 -0.6090 -1.9733
   99SAPC  H20S 9866   4.089   1.046   4.528  2.1084  0.3426  2.1950
   99SAPC  H20T 9867   4.035   1.067   4.696 -0.1400 -0.7245  0.2268
   99SAPC   C33 9868   4.249   0.387   3.082 -0.4701  0.3608 -0.5234
   99SAPC   H3X 9869   4.334   0.450   3.115  1.1764 -1.7578 -0.5388
   99SAPC   H3Y 9870   4.283   0.305   3.016  0.0412 -0.7901  1.1162
   99SAPC   C34 9871   4.180   0.321   3.205 -0.7919  0.1306  0.6108
   99SAPC   H4X 9872   4.246   0.236   3.232 -0.8871 -0.0137  0.3971
   99SAPC   H4Y 9873   4.074   0.294   3.186 -0.5004 -1.4897  1.0628
   99SAPC   C35 9874   4.172   0.406   3.327  0.6409  0.8066 -0.2163
   99SAPC   H5X 9875   4.092   0.483   3.322  0.6929  0.9097  0.4782
   99SAPC   H5Y 9876   4.264   0.469   3.330  0.5510  0.9343 -0.0991
   99SAPC   C36 9877   4.158   0.329   3.458 -0.1784 -0.2635 -0.9243
   99SAPC   H6X 9878   4.250   0.273   3.486  0.1006  0.1821 -0.9410
   99SAPC   H6Y 9879   4.078   0.252   3.455 -1.4643  0.9927  0.0654
   99SAPC   C37 9880   4.129   0.424   3.581 -0.5642 -0.1724 -0.1653
   99SAPC   H7X 9881   4.049   0.495   3.551 -1.5401 -0.6454  1.2396
   99SAPC   H7Y 9882   4.215   0.483   3.618 -1.0939 -0.5190  1.6947
   99SAPC   C38 9883   4.075   0.343   3.696 -0.0942  0.3620 -0.9491
   99SAPC   H8X 9884   4.143   0.262   3.730 -0.7116 -0.0089 -0.5785
   99SAPC   H8Y 9885   3.981   0.306   3.651  0.8350 -2.9306 -0.4129
   99SAPC   C39 9886   4.039   0.429   3.821  0.3936 -0.0661  0.4506
   99SAPC   H9X 9887   3.955   0.496   3.795  1.2747  1.7952  2.1204
   99SAPC   H9Y 9888   4.126   0.493   3.847  0.7330  0.2168 -1.2230
   99SAPC  C310 9889   3.994   0.349   3.943  0.1074  0.1366 -0.3464
   99SAPC  H10X 9890   3.910   0.282   3.916  0.4058 -0.4618  0.1978
   99SAPC  H10Y 9891   3.953   0.406   4.030 -0.4225 -2.3880  1.1512
   99SAPC  C311 9892   4.117   0.270   3.999  0.1502  0.0041  0.2569
   99SAPC  H11X 9893   4.197   0.341   4.028 -1.2228  3.1864 -2.9850
   99SAPC  H11Y 9894   4.155   0.200   3.922  0.9683 -0.8444  1.4092
   99SAPC  C312 9895   4.075   0.190   4.122  0.1975  0.9571 -0.5639
   99SAPC  H12X 9896   4.154   0.113   4.128  0.3521  1.0957 -0.8110
   99SAPC  H12Y 9897   3.978   0.144   4.093 -0.9357  2.9654 -0.1735
   99SAPC  C313 9898   4.041   0.260   4.254 -0.0252 -0.9202 -0.4150
   99SAPC  H13X 9899   4.005   0.179   4.322 -0.4533 -0.8379 -0.5399
   99SAPC  H13Y 9900   3.964   0.339   4.238 -1.0055 -1.2900  2.0066
   99SAPC  C314 9901   4.160   0.331   4.329  0.3810  0.0078  0.6893
   99SAPC  H14X 9902   4.195   0.412   4.262 -0.3625  0.4197  0.7822
   99SAPC  H14Y 9903   4.248   0.263   4.330  1.2135  1.0372 -0.3076
   99SAPC  C315 9904   4.128   0.366   4.474  0.6653 -0.0275  0.1246
   99SAPC  H15X 9905   4.067   0.458   4.487 -2.7075 -2.3109  2.0193
   99SAPC  H15Y 9906   4.223   0.389   4.526  1.3575  0.0160 -1.1260
   99SAPC  C316 9907   4.046   0.263   4.558 -1.1392  0.0741  0.7025
   99SAPC  H16X 9908   4.094   0.164   4.551 -1.1083  0.0814  0.8032
   99SAPC  H16Y 9909   3.953   0.249   4.500 -0.1626 -2.5869 -0.3784
   99SAPC  C317 9910   4.000   0.307   4.703 -1.1195 -0.4462  0.1349
   99SAPC  H17X 9911   3.952   0.407   4.709 -1.5568 -0.6851  0.6619
   99SAPC  H17Y 9912   4.096   0.305   4.760  0.7839 -0.5207 -2.8165
   99SAPC  C318 9913   3.903   0.211   4.763 -0.2003  0.3945  0.8103
   99SAPC  H18X 9914   3.954   0.113   4.753 -0.5026 -0.0048  2.7870
   99SAPC  H18Y 9915   3.808   0.204   4.706  0.8307 -1.5817 -0.7888
   99SAPC  H18Z 9916   3.895   0.243   4.870  2.1064  2.0667  0.5769
  100SAPC     N 9917   2.308   1.618   2.295 -0.7411  0.5689 -0.2015
  100SAPC   C12 9918   2.350   1.755   2.346  0.5482  0.3247 -0.3366
  100SAPC  H12A 9919   2.295   1.834   2.296 -1.4367 -0.5011  0.4455
  100SAPC  H12B 9920   2.451   1.771   2.310  0.8571  0.4611  0.5840
  100SAPC   C13 9921   2.400   1.517   2.352  0.1425  1.1339  0.1266
  100SAPC  H13A 9922   2.500   1.532   2.312 -0.4114  1.5719 -1.1581
  100SAPC  H13B 9923   2.417   1.538   2.456  1.0704  1.7905 -0.1390
  100SAPC  H13C 9924   2.358   1.418   2.337  1.7361  0.4183  0.1236
  100SAPC   C14 9925   2.174   1.589   2.354  0.1539 -0.0733 -0.6263
  100SAPC  H14A 9926   2.109   1.672   2.331  1.8655  1.4231 -0.3346
  100SAPC  H14B 9927   2.128   1.500   2.313 -1.5220 -0.4411  1.8780
  100SAPC  H14C 9928   2.176   1.570   2.460 -5.0745  1.0800 -0.0724
  100SAPC   C15 9929   2.303   1.595   2.147  0.0205  0.1387  0.7494
  100SAPC  H15A 9930   2.401   1.598   2.101  0.6611 -0.2478  2.0234
  100SAPC  H15B 9931   2.252   1.502   2.125  0.8930 -0.4464  1.1178
  100SAPC  H15C 9932   2.241   1.674   2.109  3.4929  1.7029 -2.2781
  100SAPC   C11 9933   2.353   1.777   2.497 -0.7193 -0.0525  0.1970
  100SAPC  H11A 9934   2.251   1.770   2.539 -0.6751  0.0577  0.3252
  100SAPC  H11B 9935   2.388   1.881   2.517  1.2177 -0.6394  0.0504
  100SAPC     P 9936   2.596   1.697   2.562 -0.0403 -0.1337 -0.1656
  100SAPC   O13 9937   2.663   1.569   2.580  0.6672 -0.4542 -0.3592
  100SAPC   O14 9938   2.630   1.779   2.445 -0.2480 -0.1959 -0.0148
  100SAPC   O12 9939   2.438   1.683   2.568 -0.3263  0.6791  0.2799
  100SAPC   O11 9940   2.628   1.796   2.684 -0.0541  0.3419  0.2014
  100SAPC    C1 9941   2.697   1.748   2.799  0.0780  0.3932 -0.5584
  100SAPC    HA 9942   2.785   1.684   2.778  0.7292  0.4820  1.6462
  100SAPC    HB 9943   2.736   1.837   2.853 -1.2940 -0.7363  2.5340
  100SAPC    C2 9944   2.610   1.664   2.893 -0.5203  0.0835  0.2062
  100SAPC    HS 9945   2.569   1.573   2.844 -0.0714 -0.4892  0.8739
  100SAPC   O21 9946   2.496   1.744   2.941 -0.2694  0.1416 -0.4538
  100SAPC   C21 9947   2.383   1.682   2.974 -0.3648 -0.7735  0.5351
  100SAPC   O22 9948   2.360   1.564   2.960 -0.1653  0.2894  0.0025
  100SAPC   C22 9949   2.283   1.782   3.042  0.7509  0.2163  0.1179
  100SAPC   H2R 9950   2.327   1.881   3.063 -0.4440  0.9359 -0.6217
  100SAPC   H2S 9951   2.215   1.793   2.955  0.0595 -1.8702  0.3408
  100SAPC    C3 9952   2.695   1.609   3.015 -0.2514 -0.1321 -0.5497
  100SAPC    HX 9953   2.736   1.698   3.068 -2.2508 -0.4550  1.7347
  100SAPC    HY 9954   2.780   1.555   2.969 -1.3535 -0.7106 -1.9961
  100SAPC   O31 9955   2.612   1.541   3.108 -0.2107 -0.2590 -0.3338
  100SAPC   C31 9956   2.602   1.412   3.102 -1.2612  0.0373  0.2625
  100SAPC   O32 9957   2.629   1.339   3.011  0.2391 -0.1243 -0.8267
  100SAPC   C32 9958   2.540   1.360   3.230 -0.1705 -0.2969 -0.2436
  100SAPC   H2X 9959   2.431   1.381   3.227  0.1004  1.4902  0.7194
  100SAPC   H2Y 9960   2.587   1.408   3.319  1.7965 -1.6713 -0.4752
  100SAPC   C23 9961   2.208   1.734   3.169 -0.1908  0.2880 -0.0213
  100SAPC   H3R 9962   2.188   1.625   3.160  1.2205  0.0065  0.0445
  100SAPC   H3S 9963   2.110   1.787   3.168  0.5916  1.8153  0.7636
  100SAPC   C24 9964   2.289   1.770   3.292 -0.5395  0.1235  0.0171
  100SAPC   H4R 9965   2.316   1.877   3.293 -0.9368  0.2686 -1.6661
  100SAPC   H4S 9966   2.384   1.712   3.283  0.7382  2.0756  0.3023
  100SAPC   C25 9967   2.219   1.743   3.423 -0.1341 -0.4810 -0.2752
  100SAPC   H5R 9968   2.114   1.776   3.428 -0.3636 -0.6061 -2.7601
  100SAPC   C26 9969   2.257   1.676   3.533 -0.5769 -0.0348  0.2565
  100SAPC   H6R 9970   2.197   1.671   3.625  0.4888 -2.9828  0.8830
  100SAPC   C27 9971   2.391   1.604   3.553 -0.0864  0.4618 -0.1370
  100SAPC   H7R 9972   2.466   1.684   3.536  1.4003 -1.0305 -0.8806
  100SAPC   H7S 9973   2.392   1.536   3.465 -3.1445 -0.0138  0.0734
  100SAPC   C28 9974   2.425   1.535   3.681 -0.3613 -0.4170 -0.2611
  100SAPC   H8R 9975   2.432   1.425   3.674  2.0968 -0.5654  2.4366
  100SAPC   C29 9976   2.431   1.595   3.806  0.8217  0.3193  0.1189
  100SAPC   H9R 9977   2.458   1.537   3.895  1.1538 -0.7849 -0.6720
  100SAPC  C210 9978   2.411   1.746   3.817 -0.7907 -0.5853 -0.2593
  100SAPC  H10R 9979   2.313   1.771   3.865 -1.6562 -3.6164 -0.2742
  100SAPC  H10S 9980   2.422   1.799   3.720 -0.4841  0.4364  0.3199
  100SAPC  C211 9981   2.529   1.795   3.903 -0.3343 -0.1847  0.2636
  100SAPC  H11R 9982   2.613   1.842   3.850 -0.3073 -1.0206 -0.4454
  100SAPC  C212 9983   2.537   1.800   4.040 -0.1632  0.0845  0.1653
  100SAPC  H12R 9984   2.627   1.850   4.079 -1.0635  0.0016  2.4942
  100SAPC  C213 9985   2.438   1.750   4.144 -0.2471 -0.4251  0.3261
  100SAPC  H13R 9986   2.339   1.728   4.098 -0.3416  0.8614 -0.1214
  100SAPC  H13S 9987   2.413   1.827   4.220  0.3669  0.3997 -0.2972
  100SAPC  C214 9988   2.498   1.634   4.207  0.0991 -0.1746 -0.7936
  100SAPC  H14R 9989   2.529   1.549   4.144  1.0247 -1.8740  1.8090
  100SAPC  C215 9990   2.516   1.612   4.334 -0.1727 -0.3885  0.2282
  100SAPC  H15R 9991   2.563   1.522   4.376 -0.5690 -0.6054  0.2069
  100SAPC  C216 9992   2.479   1.712   4.443 -0.2389  0.0374  0.1477
  100SAPC  H16R 9993   2.402   1.662   4.506  2.5209 -0.2462  3.5883
  100SAPC  H16S 9994   2.439   1.807   4.402  1.2716  0.5782 -0.1443
  100SAPC  C217 9995   2.606   1.745   4.535  0.4895  0.4361  0.2444
  100SAPC  H17R 9996   2.646   1.660   4.595  0.0616  0.9334  1.2531
  100SAPC  H17S 9997   2.563   1.808   4.615  0.3330  1.6843 -0.7973
  100SAPC  C218 9998   2.718   1.816   4.451 -0.4380 -0.0702 -0.0995
  100SAPC  H18R 9999   2.765   1.740   4.385 -2.3357  0.1160 -1.7764
  100SAPC  H18S10000   2.795   1.840   4.527  0.8124 -1.8134 -0.7473
  100SAPC  C21910001   2.679   1.949   4.391  0.1235 -0.0977  0.0812
  100SAPC  H19R10002   2.599   1.945   4.314 -1.1505  0.8710  1.3107
  100SAPC  H19S10003   2.766   1.991   4.336 -0.4414  2.1702  0.8296
  100SAPC  C22010004   2.635   2.045   4.495  0.3808  0.1037 -0.6035
  100SAPC  H20R10005   2.626   2.146   4.448  0.6578 -0.5862 -2.1910
  100SAPC  H20S10006   2.705   2.043   4.582 -2.0685  1.1268  1.5292
  100SAPC  H20T10007   2.531   2.019   4.525 -0.0723  0.0133 -2.1585
  100SAPC   C3310008   2.561   1.204   3.241 -0.0602 -0.8771  0.0971
  100SAPC   H3X10009   2.669   1.178   3.238  0.2760  0.1330  1.9488
  100SAPC   H3Y10010   2.508   1.166   3.151  0.2837 -1.1418  0.0037
  100SAPC   C3410011   2.488   1.146   3.361  0.5023  0.4837 -0.3062
  100SAPC   H4X10012   2.467   1.038   3.353  2.0384  0.1483 -0.0716
  100SAPC   H4Y10013   2.387   1.192   3.366  0.1580 -0.3441  0.5347
  100SAPC   C3510014   2.563   1.173   3.489  0.1050 -0.3056 -0.5358
  100SAPC   H5X10015   2.576   1.282   3.509  0.8084 -0.4301 -0.2699
  100SAPC   H5Y10016   2.667   1.136   3.475 -0.1883 -1.3725 -0.0553
  100SAPC   C3610017   2.504   1.118   3.608  0.2232  0.6636 -0.6274
  100SAPC   H6X10018   2.488   1.008   3.602 -2.6725  0.7990  1.7292
  100SAPC   H6Y10019   2.398   1.152   3.614 -0.7613 -2.2135  0.0795
  100SAPC   C3710020   2.583   1.137   3.735 -0.5916  0.0491 -0.3492
  100SAPC   H7X10021   2.611   1.244   3.743  3.6663 -0.9217 -0.0081
  100SAPC   H7Y10022   2.669   1.067   3.741  0.3807  1.1280 -1.4373
  100SAPC   C3810023   2.486   1.109   3.854 -0.3436  0.3654  0.6947
  100SAPC   H8X10024   2.473   0.999   3.849  2.4370 -0.1157  2.3968
  100SAPC   H8Y10025   2.395   1.173   3.865  0.0273  0.7779  1.4201
  100SAPC   C3910026   2.566   1.148   3.978  0.1395  0.6858 -0.9138
  100SAPC   H9X10027   2.604   1.251   3.961 -3.0354  1.9254 -1.2835
  100SAPC   H9Y10028   2.648   1.073   3.986 -2.1625 -2.2288 -2.4524
  100SAPC  C31010029   2.483   1.139   4.111 -0.4231 -0.0172 -0.0846
  100SAPC  H10X10030   2.427   1.047   4.137 -1.0977  0.4245  0.0647
  100SAPC  H10Y10031   2.407   1.220   4.103 -1.9723 -1.6230 -3.9990
  100SAPC  C31110032   2.567   1.170   4.232  0.2036 -0.5581  0.1338
  100SAPC  H11X10033   2.617   1.269   4.238  1.3914 -1.1431  0.0547
  100SAPC  H11Y10034   2.660   1.110   4.237  0.3007 -0.4224 -0.0471
  100SAPC  C31210035   2.499   1.141   4.360  0.3929  0.3005 -0.4274
  100SAPC  H12X10036   2.474   1.033   4.368 -1.1008  0.7399  1.9612
  100SAPC  H12Y10037   2.399   1.188   4.361 -0.0546 -0.5416  1.7372
  100SAPC  C31310038   2.582   1.179   4.492 -0.0105 -0.4828  0.3762
  100SAPC  H13X10039   2.587   1.289   4.506  0.6182 -0.1427 -2.1286
  100SAPC  H13Y10040   2.687   1.155   4.468  0.4532  1.4102  0.3301
  100SAPC  C31410041   2.535   1.125   4.627 -0.2738  0.4768 -0.0873
  100SAPC  H14X10042   2.540   1.014   4.619  1.5716  0.4962  0.3218
  100SAPC  H14Y10043   2.428   1.155   4.621  0.2607  2.5565  0.1255
  100SAPC  C31510044   2.612   1.171   4.751 -0.6891 -0.0816 -0.2157
  100SAPC  H15X10045   2.617   1.281   4.738  1.7605 -0.1359 -0.3011
  100SAPC  H15Y10046   2.716   1.131   4.758 -1.0636 -0.8092  1.4674
  100SAPC  C31610047   2.544   1.124   4.883  0.4154  0.3143 -0.8570
  100SAPC  H16X10048   2.613   1.156   4.964 -1.0316  1.3624 -0.0006
  100SAPC  H16Y10049   2.532   1.014   4.884 -1.3449  0.4711  1.0131
  100SAPC  C31710050   2.412   1.203   4.898  0.0442  0.0597  0.2664
  100SAPC  H17X10051   2.350   1.162   4.816 -0.2842  1.6244 -0.3076
  100SAPC  H17Y10052   2.435   1.312   4.892  0.6714 -0.1292 -0.9136
  100SAPC  C31810053   2.333   1.182   5.033 -0.4722 -0.0022 -0.4570
  100SAPC  H18X10054   2.395   1.234   5.110  0.2510  0.0486 -1.0713
  100SAPC  H18Y10055   2.315   1.074   5.051  3.5158 -0.4812  1.6780
  100SAPC  H18Z10056   2.231   1.227   5.033  0.0214  1.1682 -0.2986
  101OSM      N10057   0.334   6.303   7.006 -1.0044  0.7816  0.1601
  101OSM    C1510058   0.438   6.333   7.111  0.5490  0.1419  0.9429
  101OSM   H15A10059   0.527   6.376   7.067 -0.2507 -1.6309 -2.8650
  101OSM   H15B10060   0.465   6.235   7.148 -2.8206 -0.8072  1.1718
  101OSM   H15C10061   0.409   6.388   7.199  0.5850 -1.8720  2.2790
  101OSM    C1410062   0.217   6.229   7.070 -0.0100  0.1695  0.1835
  101OSM   H14A10063   0.248   6.128   7.094  0.0630  0.1347 -0.0503
  101OSM   H14B10064   0.139   6.208   6.999 -0.9709 -0.5597  1.3980
  101OSM   H14C10065   0.171   6.281   7.153  1.5331  1.0151  0.5458
  101OSM    C1310066   0.276   6.430   6.951  0.1898 -0.2906 -0.0762
  101OSM   H13A10067   0.231   6.483   7.034 -0.5337 -2.6168  1.1334
  101OSM   H13B10068   0.203   6.406   6.876 -0.6377  0.5891  0.4375
  101OSM   H13C10069   0.353   6.492   6.907  1.9477 -0.1631  2.8408
  101OSM    C1210070   0.401   6.225   6.894  0.4975 -0.4887  0.0298
  101OSM   H12A10071   0.481   6.284   6.853 -1.3925 -0.2409 -3.8531
  101OSM   H12B10072   0.332   6.230   6.810  0.0376  2.1603  0.4793
  101OSM    C1110073   0.448   6.080   6.927 -0.8661  0.5758  0.4082
  101OSM   H11A10074   0.488   6.032   6.834  0.9983 -1.0954  1.9721
  101OSM   H11B10075   0.353   6.026   6.945  0.1664 -1.5159  0.0194
  101OSM      P10076   0.682   6.009   7.025  0.0255  0.2758  0.1813
  101OSM    O1310077   0.754   6.040   7.151  0.7455  0.1236  0.1814
  101OSM    O1410078   0.667   5.873   6.978 -0.0756 -0.0334  0.2514
  101OSM    O1110079   0.737   6.099   6.909 -0.3277  0.7251 -0.3119
  101OSM    O1210080   0.539   6.072   7.034  0.4092 -0.1328  0.0119
  101OSM    C1S10081   0.839   6.048   6.816 -0.1470 -0.2140  0.2273
  101OSM    H1S10082   0.878   5.949   6.849 -1.7900 -0.0671  2.8653
  101OSM    H1T10083   0.928   6.111   6.793 -1.5138  1.5000 -0.5556
  101OSM     NF10084   0.861   5.941   6.590 -1.1300  0.0079 -1.1919
  101OSM    HNF10085   0.884   5.986   6.504 -0.4230  0.4095 -0.7984
  101OSM    C2S10086   0.779   6.025   6.678 -0.1864  0.5305 -0.3692
  101OSM    H2S10087   0.700   5.952   6.708  1.0751  0.1008  2.1751
  101OSM    C3S10088   0.723   6.159   6.620  0.2300 -0.6161  0.0258
  101OSM    H3S10089   0.807   6.214   6.573  0.1998 -0.3138  0.3175
  101OSM     O310090   0.662   6.257   6.706 -0.0699  0.8072  0.4281
  101OSM    HO310091   0.681   6.222   6.794  1.0143  1.1093  0.3339
  101OSM    C4S10092   0.626   6.134   6.502 -0.3103 -0.7045 -0.3262
  101OSM    H4S10093   0.673   6.134   6.403 -1.9838 -1.2866 -1.1579
  101OSM    C5S10094   0.496   6.101   6.509  0.2481 -0.3459  0.3931
  101OSM    H5S10095   0.440   6.082   6.602 -0.4686 -0.3764 -0.0356
  101OSM    C6S10096   0.407   6.077   6.388  0.2297  0.0618  0.3419
  101OSM    H6S10097   0.316   6.140   6.402 -0.2379 -0.5387  0.0336
  101OSM    H6T10098   0.368   5.974   6.403 -0.2321 -0.1983 -2.2750
  101OSM    C7S10099   0.457   6.090   6.245  0.0062  0.5276 -0.1579
  101OSM    H7S10100   0.542   6.025   6.217  0.2009  0.8705 -0.3783
  101OSM    H7T10101   0.500   6.190   6.222 -2.8609  1.4309 -2.2179
  101OSM    C8S10102   0.350   6.065   6.141  0.2787  0.2245  0.8013
  101OSM    H8S10103   0.275   6.147   6.146  0.5687  0.4751  1.2030
  101OSM    H8T10104   0.301   5.966   6.145 -1.6144  1.0122 -0.8657
  101OSM    C9S10105   0.424   6.069   5.998 -0.0791 -0.1307  0.7293
  101OSM    H9S10106   0.513   6.004   6.014 -0.6321 -0.5981  2.0923
  101OSM    H9T10107   0.457   6.174   5.979 -1.2131  0.4672  1.8526
  101OSM   C10S10108   0.332   6.016   5.883 -0.2201  0.1277 -0.4835
  101OSM   H10S10109   0.251   6.091   5.883 -1.4848 -1.1864 -0.5040
  101OSM   H10T10110   0.286   5.921   5.919 -0.4526  0.1908 -0.6109
  101OSM   C11S10111   0.398   6.000   5.753 -0.1090  1.0297 -0.8925
  101OSM   H11S10112   0.345   5.924   5.692 -0.4088 -0.7897  1.4843
  101OSM   H11T10113   0.494   5.952   5.782 -0.2953  0.7133 -0.7928
  101OSM   C12S10114   0.424   6.126   5.674  0.1619 -1.0587 -0.4737
  101OSM   H12S10115   0.497   6.188   5.731 -0.8369  1.0059 -1.2982
  101OSM   H12T10116   0.335   6.190   5.656  0.0978 -1.4422 -1.6385
  101OSM   C13S10117   0.479   6.087   5.534 -0.4925  0.2398 -0.4320
  101OSM   H13S10118   0.411   6.022   5.476  0.8632 -1.0605 -0.6261
  101OSM   H13T10119   0.563   6.021   5.565 -1.0979 -0.6188 -0.6119
  101OSM   C14S10120   0.529   6.202   5.443  0.3780  0.0813  0.0300
  101OSM   H14S10121   0.554   6.148   5.350 -0.0583 -1.7674  0.9385
  101OSM   H14T10122   0.620   6.244   5.491  1.3021 -2.7657  0.9734
  101OSM   C15S10123   0.422   6.304   5.420  0.8329 -0.1533  0.0552
  101OSM   H15S10124   0.381   6.360   5.507 -2.3230 -1.8315 -0.1864
  101OSM   H15T10125   0.329   6.252   5.389  0.3962  1.2846 -1.1767
  101OSM   C16S10126   0.458   6.411   5.313 -0.2958 -0.3395 -0.3570
  101OSM   H16S10127   0.492   6.363   5.219  2.1153  0.6565 -0.0610
  101OSM   H16T10128   0.540   6.479   5.342 -0.6358  0.6381 -1.6084
  101OSM   C17S10129   0.327   6.493   5.276 -0.2114  0.9292  0.0429
  101OSM   H17S10130   0.315   6.569   5.356 -0.8519  2.7370 -1.7073
  101OSM   H17T10131   0.234   6.435   5.293  1.5285 -2.3964 -0.9281
  101OSM   C18S10132   0.316   6.541   5.136  0.0209 -0.0285  1.1015
  101OSM   H18S10133   0.347   6.460   5.066 -0.6784 -1.2023  2.0968
  101OSM   H18T10134   0.389   6.622   5.115  0.9194 -0.8749  0.8484
  101OSM   H18U10135   0.216   6.583   5.116  0.8546  2.2154  1.3826
  101OSM    C1F10136   0.911   5.821   6.615 -0.1087  0.8927 -0.1804
  101OSM     OF10137   0.869   5.744   6.704 -0.0608  0.1913  0.1232
  101OSM    C2F10138   1.018   5.775   6.524 -0.4797  1.0328  0.0770
  101OSM    H2F10139   1.068   5.689   6.572 -0.1485  1.2820  0.1888
  101OSM    H2G10140   1.100   5.849   6.510  2.0552 -1.6531 -0.3277
  101OSM    C3F10141   0.959   5.726   6.391  0.2074  0.3252  0.9667
  101OSM    H3F10142   0.889   5.793   6.337  1.8854  0.7254 -0.8255
  101OSM    H3G10143   0.916   5.627   6.419  0.7306 -0.3398 -0.5116
  101OSM    C4F10144   1.070   5.687   6.287 -0.1766  0.0052  0.3217
  101OSM    H4F10145   1.144   5.616   6.329 -1.7870 -2.3636 -0.6680
  101OSM    H4G10146   1.123   5.779   6.253  1.6541 -0.8093  0.8903
  101OSM    C5F10147   1.016   5.605   6.165 -0.4884  0.1684 -0.9427
  101OSM    H5F10148   1.090   5.618   6.084 -0.9336  1.5402 -1.1537
  101OSM    H5G10149   0.917   5.644   6.133 -0.1179  1.8696 -0.1533
  101OSM    C6F10150   1.005   5.461   6.199  0.2360  0.2702  0.3922
  101OSM    H6F10151   0.931   5.447   6.281 -0.6158  2.4771  0.0615
  101OSM    H6G10152   1.098   5.426   6.250 -0.3298 -0.2503  1.0915
  101OSM    C7F10153   0.969   5.367   6.085  0.5583  0.4100  0.1901
  101OSM    H7F10154   0.984   5.271   6.137 -0.9030  0.7812  1.3663
  101OSM    H7G10155   1.060   5.367   6.021  0.6060 -1.9819  0.1849
  101OSM    C8F10156   0.830   5.373   6.022  0.2424 -0.0292  0.0709
  101OSM    H8F10157   0.834   5.332   5.919 -1.3706 -2.6038  0.9448
  101OSM    H8G10158   0.789   5.476   6.013  1.3688  0.3001 -1.6942
  101OSM    C9F10159   0.736   5.291   6.104  0.6308  0.9801  0.3268
  101OSM    H9F10160   0.717   5.323   6.207  0.9977  1.0104  0.3878
  101OSM   C10F10161   0.677   5.176   6.061 -0.0143  0.1995 -0.1270
  101OSM   H10F10162   0.610   5.125   6.132 -0.6306  2.0814  0.6885
  101OSM   C11F10163   0.697   5.107   5.928 -0.3691 -0.2117  0.7706
  101OSM   H11F10164   0.734   5.004   5.949 -1.5014 -0.5663  1.1162
  101OSM   H11G10165   0.762   5.161   5.856 -0.3318  1.5037  2.0385
  101OSM   C12F10166   0.566   5.120   5.843  0.0139  0.5883 -0.8728
  101OSM   H12F10167   0.476   5.098   5.905  0.7125  0.3484  0.0812
  101OSM   H12G10168   0.589   5.053   5.757  2.0637  2.1953 -1.6513
  101OSM   C13F10169   0.556   5.254   5.784  0.3503  0.1971  0.8470
  101OSM   H13F10170   0.655   5.268   5.737 -0.0358 -0.3281 -0.1415
  101OSM   H13G10171   0.528   5.321   5.868 -1.9015 -0.7542  0.9374
  101OSM   C14F10172   0.434   5.277   5.693  1.2469 -0.2300 -0.3219
  101OSM   H14F10173   0.454   5.383   5.669  0.9554  0.7695  3.3563
  101OSM   H14G10174   0.338   5.265   5.748  0.5075  2.0637 -1.0223
  101OSM   C15F10175   0.434   5.185   5.576  0.9128 -0.0304 -0.5302
  101OSM   H15F10176   0.337   5.187   5.522 -0.5793 -2.1906  1.8038
  101OSM   H15G10177   0.435   5.076   5.601 -0.5783 -0.4244 -2.0325
  101OSM   C16F10178   0.557   5.199   5.477  0.6212 -0.3485 -0.0864
  101OSM   H16F10179   0.658   5.176   5.518  0.4242 -1.0966 -0.0225
  101OSM   H16G10180   0.551   5.307   5.450 -2.9977 -0.6474 -1.0020
  101OSM   C17F10181   0.552   5.126   5.345 -0.4352 -0.0560 -0.5850
  101OSM   H17F10182   0.569   5.019   5.368 -0.7765 -0.0057 -0.1006
  101OSM   H17G10183   0.633   5.162   5.277 -0.1428 -0.2709 -0.3511
  101OSM   C18F10184   0.425   5.126   5.267  0.4299 -0.1239 -0.0730
  101OSM   H18F10185   0.336   5.117   5.333 -0.6181 -3.3518 -1.6909
  101OSM   H18G10186   0.426   5.034   5.203  1.5998 -0.2771  0.1394
  101OSM   H18H10187   0.413   5.219   5.207  0.4694  0.7425  1.2334
  102OSM      N10188   0.301   3.167   6.890  0.3548 -1.1442 -0.5871
  102OSM    C1510189   0.395   3.233   6.986  0.4395  0.1055  0.0453
  102OSM   H15A10190   0.494   3.190   6.989 -0.0706 -1.0476  0.9818
  102OSM   H15B10191   0.361   3.238   7.088  3.8615  3.6038  1.2904
  102OSM   H15C10192   0.389   3.337   6.958 -1.6197 -0.9209 -4.1013
  102OSM    C1410193   0.162   3.230   6.912 -0.2149  0.3253  0.0460
  102OSM   H14A10194   0.106   3.200   6.824  2.0478  0.6793 -1.6160
  102OSM   H14B10195   0.170   3.337   6.924  0.8757  0.0689  2.0050
  102OSM   H14C10196   0.119   3.201   7.006 -0.8206  4.3894  1.2017
  102OSM    C1310197   0.352   3.199   6.753  0.4416 -0.3444 -0.0838
  102OSM   H13A10198   0.444   3.144   6.742 -0.3020 -1.2631 -2.0307
  102OSM   H13B10199   0.377   3.302   6.733  0.0206 -0.8453 -3.9922
  102OSM   H13C10200   0.281   3.164   6.681 -0.3940 -0.8498  0.9554
  102OSM    C1210201   0.289   3.018   6.914 -0.5857 -0.1391 -0.0262
  102OSM   H12A10202   0.383   2.971   6.889  0.9527  1.6256  2.0658
  102OSM   H12B10203   0.225   2.981   6.836  1.9507  0.5783 -2.6361
  102OSM    C1110204   0.251   2.972   7.053 -0.5176  0.5063 -0.3900
  102OSM   H11A10205   0.140   2.976   7.059 -0.7095 -2.5143 -0.1644
  102OSM   H11B10206   0.292   3.032   7.137  1.6283 -0.8848 -0.3485
  102OSM      P10207   0.245   2.716   7.116  0.1610 -0.0242  0.4847
  102OSM    O1310208   0.347   2.630   7.183  0.4788 -0.0899 -0.2472
  102OSM    O1410209   0.121   2.743   7.192 -0.2901  0.1331  0.1016
  102OSM    O1110210   0.204   2.650   6.974 -0.0049  0.1512 -0.4542
  102OSM    O1210211   0.310   2.846   7.068  0.0726  0.0272 -0.2734
  102OSM    C1S10212   0.096   2.705   6.894 -0.4243 -0.2020  0.7778
  102OSM    H1S10213   0.111   2.814   6.888  1.5588 -0.4778  0.0313
  102OSM    H1T10214  -0.008   2.689   6.930 -1.8091  0.1368 -2.7240
  102OSM     NF10215   0.019   2.705   6.658  0.3407 -0.6764  0.6830
  102OSM    HNF10216  -0.065   2.653   6.643 -0.8130  1.2246  0.1712
  102OSM    C2S10217   0.113   2.642   6.754 -0.2196 -1.2294  0.6246
  102OSM    H2S10218   0.218   2.649   6.719 -0.5408 -1.1208 -0.3404
  102OSM    C3S10219   0.089   2.491   6.760 -0.4923  0.9957  0.3136
  102OSM    H3S10220  -0.013   2.467   6.797 -0.2115 -1.4381 -0.2883
  102OSM     O310221   0.174   2.413   6.846  0.6913 -0.2648 -0.4279
  102OSM    HO310222   0.201   2.477   6.912  0.0307 -0.5060  0.0829
  102OSM    C4S10223   0.109   2.426   6.623 -0.2952  0.8272 -0.2965
  102OSM    H4S10224   0.216   2.421   6.595 -0.5152 -0.2577 -1.0106
  102OSM    C5S10225   0.018   2.363   6.548  0.0395 -0.9286  0.4652
  102OSM    H5S10226  -0.086   2.359   6.585  0.0256  0.8313  0.7040
  102OSM    C6S10227   0.055   2.294   6.424 -0.0367  0.7019 -0.2361
  102OSM    H6S10228   0.016   2.190   6.421  3.6191 -0.8971  1.6196
  102OSM    H6T10229   0.165   2.285   6.417 -0.1162  0.4251 -1.4953
  102OSM    C7S10230   0.025   2.364   6.293  0.2204  0.3737  0.0577
  102OSM    H7S10231   0.049   2.472   6.292  1.1469  0.1779 -1.1672
  102OSM    H7T10232  -0.084   2.352   6.276 -0.4255  2.9154  1.8254
  102OSM    C8S10233   0.106   2.293   6.181 -0.5935 -0.1519  0.0240
  102OSM    H8S10234   0.107   2.183   6.195  1.4167 -0.0894  0.5679
  102OSM    H8T10235   0.212   2.325   6.177 -0.3435 -1.0268 -0.5715
  102OSM    C9S10236   0.047   2.309   6.038  0.6414 -0.4563  0.3667
  102OSM    H9S10237  -0.006   2.406   6.036 -0.8326 -1.2528 -0.8314
  102OSM    H9T10238  -0.027   2.229   6.015 -0.3027 -0.1744  2.2533
  102OSM   C10S10239   0.146   2.313   5.922  0.4085  0.0714  0.2746
  102OSM   H10S10240   0.184   2.209   5.929 -1.4814 -0.8420 -1.7365
  102OSM   H10T10241   0.226   2.385   5.950 -0.3577  0.5920  1.1901
  102OSM   C11S10242   0.092   2.340   5.780 -0.8298  0.1177  0.0729
  102OSM   H11S10243   0.076   2.450   5.780  2.5931  0.7368  1.1685
  102OSM   H11T10244  -0.007   2.295   5.757 -0.1419 -1.4531  0.0211
  102OSM   C12S10245   0.185   2.296   5.662  0.0618  0.1190 -0.3803
  102OSM   H12S10246   0.147   2.327   5.563  1.0610  0.6532 -0.6133
  102OSM   H12T10247   0.196   2.186   5.666 -2.2092 -0.1524  3.2682
  102OSM   C13S10248   0.328   2.366   5.666  0.4322 -0.0293  0.1744
  102OSM   H13S10249   0.383   2.325   5.753  0.7221 -0.5105 -0.2294
  102OSM   H13T10250   0.321   2.475   5.683  1.9466 -0.0941  1.3128
  102OSM   C14S10251   0.407   2.341   5.538 -0.1683  0.1684  0.0160
  102OSM   H14S10252   0.360   2.378   5.445  1.9617  0.9475 -0.8105
  102OSM   H14T10253   0.429   2.233   5.521 -1.6629  0.2726 -3.4797
  102OSM   C15S10254   0.546   2.405   5.551 -1.0976 -0.0818 -0.0468
  102OSM   H15S10255   0.609   2.362   5.632  2.9036  0.9684 -2.3444
  102OSM   H15T10256   0.527   2.507   5.593  1.1163  0.8240 -1.1393
  102OSM   C16S10257   0.622   2.421   5.418  0.0532 -0.6459 -0.3943
  102OSM   H16S10258   0.579   2.473   5.329  1.7062 -1.4920 -1.7365
  102OSM   H16T10259   0.650   2.318   5.387 -0.3741 -0.6200 -0.8898
  102OSM   C17S10260   0.750   2.501   5.431  0.7794  0.1540 -0.0053
  102OSM   H17S10261   0.779   2.474   5.535  1.4432  2.0153  0.3418
  102OSM   H17T10262   0.720   2.608   5.431  0.1697 -0.0152  0.4997
  102OSM   C18S10263   0.844   2.476   5.317  0.5000  0.7461  1.1230
  102OSM   H18S10264   0.925   2.552   5.323  1.1841  0.3623 -1.6580
  102OSM   H18T10265   0.798   2.498   5.219 -0.2362 -0.3244  1.2078
  102OSM   H18U10266   0.887   2.374   5.317  0.1926  0.6116  0.5093
  102OSM    C1F10267   0.037   2.824   6.605  0.5659  0.9556 -0.3683
  102OSM     OF10268   0.128   2.897   6.641  0.3862 -0.8576 -0.4588
  102OSM    C2F10269  -0.067   2.849   6.492  0.9224 -0.4082  0.5292
  102OSM    H2F10270  -0.144   2.919   6.530  0.1302 -1.1459  0.3106
  102OSM    H2G10271  -0.101   2.749   6.457  2.3207 -0.5216 -0.5699
  102OSM    C3F10272   0.004   2.907   6.368 -0.3713  1.3026  0.5025
  102OSM    H3F10273   0.045   3.008   6.387  2.1976  0.3918  0.1766
  102OSM    H3G10274  -0.065   2.925   6.283  2.1581  2.3093 -1.4586
  102OSM    C4F10275   0.109   2.812   6.303 -0.1555 -0.6974 -0.0412
  102OSM    H4F10276   0.062   2.713   6.282  1.9249 -1.7861  0.2037
  102OSM    H4G10277   0.192   2.799   6.375  0.6645  2.5397 -0.2282
  102OSM    C5F10278   0.161   2.863   6.166  0.2105  0.3037  0.5988
  102OSM    H5F10279   0.208   2.962   6.183  0.1155  0.3869  0.3904
  102OSM    H5G10280   0.078   2.887   6.096  2.2207 -1.9870 -2.9082
  102OSM    C6F10281   0.257   2.775   6.087 -0.0962  0.1946  0.3451
  102OSM    H6F10282   0.266   2.792   5.978 -0.9726 -1.8558 -0.0981
  102OSM    H6G10283   0.208   2.677   6.101 -0.1312  0.1915  0.2009
  102OSM    C7F10284   0.409   2.770   6.137 -0.3033  0.1035 -0.6299
  102OSM    H7F10285   0.409   2.782   6.248 -0.1658 -2.4254 -0.2838
  102OSM    H7G10286   0.466   2.852   6.088 -1.5988  1.9099  0.7459
  102OSM    C8F10287   0.477   2.639   6.086 -0.2022  0.7312 -0.2219
  102OSM    H8F10288   0.488   2.641   5.975  0.3998 -1.1914 -0.2298
  102OSM    H8G10289   0.415   2.547   6.096  1.8803 -1.0086 -2.1423
  102OSM    C9F10290   0.610   2.620   6.147  0.2913 -0.0003 -0.0467
  102OSM    H9F10291   0.605   2.624   6.257  2.0239 -2.8053  0.2475
  102OSM   C10F10292   0.721   2.587   6.087  0.7407  0.4394  0.1225
  102OSM   H10F10293   0.815   2.579   6.145  0.1198 -0.1727  1.0778
  102OSM   C11F10294   0.744   2.557   5.946  0.6150 -0.1247  0.3651
  102OSM   H11F10295   0.681   2.623   5.882 -1.0523  1.3315  3.2883
  102OSM   H11G10296   0.700   2.461   5.911  2.6668 -0.8889 -0.2274
  102OSM   C12F10297   0.892   2.549   5.906 -0.1516 -0.1663  0.0181
  102OSM   H12F10298   0.936   2.475   5.976 -1.7267 -0.1731  1.0652
  102OSM   H12G10299   0.946   2.646   5.914  0.1178 -0.4469  2.2638
  102OSM   C13F10300   0.931   2.483   5.770  0.1034 -0.7117  0.1432
  102OSM   H13F10301   0.915   2.549   5.682  0.9040 -1.2067 -0.3851
  102OSM   H13G10302   0.871   2.390   5.756  2.4226 -2.0070 -2.0705
  102OSM   C14F10303   1.079   2.441   5.774  0.3112 -0.0320  0.1673
  102OSM   H14F10304   1.095   2.379   5.865  1.1792 -1.3265 -0.8191
  102OSM   H14G10305   1.142   2.532   5.783  0.9371 -0.3700 -0.6309
  102OSM   C15F10306   1.112   2.352   5.653  0.0509 -0.3971  0.5964
  102OSM   H15F10307   1.108   2.403   5.555  1.4932 -0.8509  0.2743
  102OSM   H15G10308   1.045   2.263   5.655 -1.2049  0.5009 -0.2857
  102OSM   C16F10309   1.257   2.304   5.665 -0.4982 -0.4120  0.1486
  102OSM   H16F10310   1.265   2.237   5.753 -2.2533 -0.5831  0.2101
  102OSM   H16G10311   1.319   2.391   5.694  1.9948 -1.8871 -0.4854
  102OSM   C17F10312   1.324   2.239   5.548 -0.0529 -0.6851 -0.0467
  102OSM   H17F10313   1.423   2.201   5.583  0.1923  0.4915  0.6193
  102OSM   H17G10314   1.328   2.312   5.464 -2.0793  0.2718  0.6427
  102OSM   C18F10315   1.246   2.124   5.479 -0.4817  0.1020  0.2831
  102OSM   H18F10316   1.301   2.096   5.386  1.1916 -2.1758  1.8437
  102OSM   H18G10317   1.143   2.164   5.464 -0.8139  0.4556  2.9598
  102OSM   H18H10318   1.236   2.038   5.549 -0.2467  0.5205  0.8428
  103OSM      N10319   6.068   6.623   7.176  0.3979 -0.6317  0.8310
  103OSM    C1510320   6.103   6.603   7.317  0.1239  0.2918 -0.2200
  103OSM   H15A10321   6.209   6.603   7.338 -0.4030  2.0041  3.1186
  103OSM   H15B10322   6.065   6.503   7.335 -1.7151  0.6295 -1.8427
  103OSM   H15C10323   6.057   6.675   7.383  0.0255 -1.6218  1.9021
  103OSM    C1410324   5.931   6.578   7.154 -0.1599 -0.1250  0.5390
  103OSM   H14A10325   5.919   6.587   7.047  1.5543  0.4888  0.3606
  103OSM   H14B10326   5.865   6.642   7.211  0.2886  0.5446  0.3266
  103OSM   H14C10327   5.917   6.477   7.188  0.3665  0.1991  1.7848
  103OSM    C1310328   6.075   6.763   7.129  0.1014  0.3359  0.3635
  103OSM   H13A10329   6.180   6.786   7.134 -0.0936  0.9380  2.3363
  103OSM   H13B10330   6.020   6.836   7.186 -1.5058  0.0821 -0.7878
  103OSM   H13C10331   6.041   6.771   7.026 -0.9986 -2.9240  0.3526
  103OSM    C1210332   6.169   6.538   7.106 -0.0419 -0.9465  0.3093
  103OSM   H12A10333   6.160   6.434   7.131 -2.3322 -1.2396 -1.4114
  103OSM   H12B10334   6.269   6.567   7.135  0.4282  0.6658 -2.5097
  103OSM    C1110335   6.157   6.539   6.958  0.2648 -0.3178  0.7208
  103OSM   H11A10336   6.128   6.635   6.910 -2.1412 -2.4908 -2.5390
  103OSM   H11B10337   6.079   6.466   6.930  0.8005 -0.4767 -0.4295
  103OSM      P10338   6.421   6.590   6.909  0.2030 -0.4538 -0.1120
  103OSM    O1310339   6.416   6.666   7.036 -1.0355 -0.8378  0.4762
  103OSM    O1410340   6.532   6.503   6.878  0.3841  0.1283 -0.3707
  103OSM    O1110341   6.403   6.695   6.787 -0.3777 -0.4844  0.3784
  103OSM    O1210342   6.284   6.499   6.907 -0.2143  0.2709 -0.2076
  103OSM    C1S10343   6.275   6.745   6.745  0.0856  0.1254  0.5340
  103OSM    H1S10344   6.223   6.791   6.832  0.0835  0.6445  0.2574
  103OSM    H1T10345   6.206   6.663   6.714 -0.3531  1.1392 -1.2599
  103OSM     NF10346   6.158   6.923   6.612 -0.1547  0.6545  0.1721
  103OSM    HNF10347   6.086   6.908   6.546 -1.3917  4.2630  0.5170
  103OSM    C2S10348   6.280   6.835   6.617 -0.0849 -0.3756 -0.0808
  103OSM    H2S10349   6.363   6.907   6.630 -0.3692 -0.3097  1.5603
  103OSM    C3S10350   6.313   6.746   6.491 -0.3737  0.5628  0.6973
  103OSM    H3S10351   6.228   6.679   6.469 -0.7300  0.6176  1.8471
  103OSM     O310352   6.434   6.667   6.514 -1.2121  0.1968 -0.1315
  103OSM    HO310353   6.440   6.664   6.610  0.8307  0.0938 -0.2234
  103OSM    C4S10354   6.332   6.841   6.372  0.3884  0.3090 -0.3970
  103OSM    H4S10355   6.435   6.864   6.343  1.0567 -0.3213  1.3535
  103OSM    C5S10356   6.227   6.878   6.286 -1.2180  0.3826  0.1868
  103OSM    H5S10357   6.126   6.840   6.306 -1.3419  1.1457  1.0695
  103OSM    C6S10358   6.236   6.964   6.166 -0.1781  0.3771  0.9542
  103OSM    H6S10359   6.335   6.949   6.117 -0.0341  0.4367  1.2248
  103OSM    H6T10360   6.217   7.069   6.199 -0.5786  0.8163 -0.6136
  103OSM    C7S10361   6.140   6.918   6.040  0.6488 -0.5449  0.2282
  103OSM    H7S10362   6.175   6.819   6.003 -1.7209 -1.2129 -0.4453
  103OSM    H7T10363   6.165   6.997   5.966  1.3332 -0.2652  0.7503
  103OSM    C8S10364   5.989   6.908   6.069  0.6490 -0.6084  0.7273
  103OSM    H8S10365   5.958   6.987   6.141  1.4428  0.6336 -0.2609
  103OSM    H8T10366   5.964   6.812   6.120 -0.9493 -0.0439  1.0408
  103OSM    C9S10367   5.898   6.917   5.946 -0.6409 -0.4718  1.3214
  103OSM    H9S10368   5.793   6.923   5.980 -0.9147  0.2979  0.3716
  103OSM    H9T10369   5.900   6.821   5.889  1.2010  0.5144 -0.4196
  103OSM   C10S10370   5.921   7.042   5.862  0.2971 -0.5543 -0.1571
  103OSM   H10S10371   6.027   7.057   5.831 -0.2250 -0.1739 -1.8572
  103OSM   H10T10372   5.916   7.126   5.935 -0.4589  0.3370 -1.2084
  103OSM   C11S10373   5.823   7.063   5.744  0.1058  0.4001 -0.6662
  103OSM   H11S10374   5.721   7.075   5.789  0.3772  1.8268 -0.3732
  103OSM   H11T10375   5.818   6.968   5.688  0.0507 -0.7339  1.1818
  103OSM   C12S10376   5.862   7.186   5.661  0.7796  0.6801 -0.6157
  103OSM   H12S10377   5.953   7.162   5.602  0.1727 -1.3460 -0.7915
  103OSM   H12T10378   5.872   7.265   5.739 -0.2589 -1.0151  1.3228
  103OSM   C13S10379   5.747   7.222   5.566 -0.3279  0.3921 -0.3606
  103OSM   H13S10380   5.744   7.332   5.551 -0.4506  0.7548  1.9392
  103OSM   H13T10381   5.649   7.191   5.609  0.3237  0.1627  1.0093
  103OSM   C14S10382   5.745   7.135   5.435 -0.0228  0.3714  0.2223
  103OSM   H14S10383   5.653   7.163   5.378  0.3140  2.5017  0.6439
  103OSM   H14T10384   5.743   7.028   5.464  0.7370  0.3810  0.3233
  103OSM   C15S10385   5.863   7.154   5.338 -0.1315 -0.4403 -0.3721
  103OSM   H15S10386   5.840   7.096   5.246  1.7270 -1.5249 -0.2094
  103OSM   H15T10387   5.951   7.111   5.391 -0.0881 -0.2540 -0.2945
  103OSM   C16S10388   5.884   7.302   5.299  0.4412 -0.6169 -0.2995
  103OSM   H16S10389   5.937   7.348   5.385  0.3749 -2.7436  0.9479
  103OSM   H16T10390   5.788   7.357   5.283 -0.3338 -2.2040 -1.3797
  103OSM   C17S10391   5.975   7.311   5.179  0.0938 -0.4400  0.3840
  103OSM   H17S10392   6.050   7.229   5.187  1.1817  0.5231  0.2856
  103OSM   H17T10393   6.039   7.400   5.199  0.5092 -0.8611  0.9988
  103OSM   C18S10394   5.913   7.319   5.038 -0.3314  0.0361  0.7001
  103OSM   H18S10395   5.982   7.358   4.960  0.0500  1.0685  1.5285
  103OSM   H18T10396   5.821   7.380   5.036  0.1553  0.8377 -2.6379
  103OSM   H18U10397   5.869   7.221   5.010 -1.9109  1.6333 -3.0675
  103OSM    C1F10398   6.147   7.019   6.699  0.5413 -0.2570  0.5436
  103OSM     OF10399   6.238   7.041   6.784  0.4861  0.3617  0.1545
  103OSM    C2F10400   6.018   7.102   6.682  0.2202  0.6953  0.6147
  103OSM    H2F10401   5.994   7.135   6.786 -1.5632  0.8226  0.1942
  103OSM    H2G10402   5.945   7.029   6.641 -0.2604  0.7431  1.3604
  103OSM    C3F10403   6.042   7.233   6.599 -0.2254 -0.0434  0.1601
  103OSM    H3F10404   6.117   7.300   6.647  0.6722 -0.7344 -0.2625
  103OSM    H3G10405   5.948   7.289   6.616 -0.8026 -1.9944  5.1659
  103OSM    C4F10406   6.059   7.212   6.447 -0.3017 -0.0289  0.2145
  103OSM    H4F10407   5.990   7.129   6.419  0.3238 -0.2604 -0.6768
  103OSM    H4G10408   6.161   7.179   6.417  0.6709  1.0016  2.1795
  103OSM    C5F10409   6.022   7.332   6.369 -0.7896 -0.1132  0.9086
  103OSM    H5F10410   6.075   7.409   6.429  0.4298 -2.7223  3.3663
  103OSM    H5G10411   5.912   7.339   6.385 -0.8863 -0.3497  0.3560
  103OSM    C6F10412   6.078   7.344   6.224 -0.0351  0.1025  0.6595
  103OSM    H6F10413   6.041   7.256   6.168 -0.6670 -0.1819  1.4969
  103OSM    H6G10414   6.189   7.339   6.215 -0.1430 -0.0293 -0.9080
  103OSM    C7F10415   6.034   7.476   6.159  0.1629 -1.2731  0.2425
  103OSM    H7F10416   6.080   7.557   6.220  1.4299 -1.2544 -0.7073
  103OSM    H7G10417   5.924   7.484   6.159  0.0461 -2.6117  0.4837
  103OSM    C8F10418   6.076   7.488   6.010  0.6348  0.5076  0.0815
  103OSM    H8F10419   6.046   7.388   5.973  3.2862 -0.1823 -0.4658
  103OSM    H8G10420   6.187   7.498   6.007  0.4933  1.9121 -1.9366
  103OSM    C9F10421   6.005   7.588   5.929  0.2268  0.2387 -0.1192
  103OSM    H9F10422   5.960   7.671   5.986  1.6087 -0.5809  2.2708
  103OSM   C10F10423   6.002   7.602   5.789 -0.0804 -0.4721  0.7158
  103OSM   H10F10424   5.931   7.675   5.750  0.1547 -0.1049  0.9694
  103OSM   C11F10425   6.059   7.503   5.691  1.0419  0.3632 -0.0086
  103OSM   H11F10426   5.975   7.453   5.639 -0.5010  2.7501  0.0399
  103OSM   H11G10427   6.111   7.421   5.744 -0.5207 -0.5554  0.1672
  103OSM   C12F10428   6.158   7.569   5.600 -0.1233 -0.0065 -0.2584
  103OSM   H12F10429   6.213   7.500   5.533  1.8058 -0.1363  1.3458
  103OSM   H12G10430   6.243   7.612   5.658 -0.8928  2.6463 -0.9706
  103OSM   C13F10431   6.092   7.673   5.502  0.3771  0.1799  0.0198
  103OSM   H13F10432   6.041   7.747   5.568 -3.8629 -1.7391 -0.7913
  103OSM   H13G10433   6.015   7.615   5.446 -0.1305 -0.0616  0.9421
  103OSM   C14F10434   6.197   7.732   5.404 -0.0310 -0.3730  0.3516
  103OSM   H14F10435   6.247   7.653   5.344 -0.6367 -1.1270  0.8105
  103OSM   H14G10436   6.274   7.785   5.464 -0.2354  0.7528 -0.3701
  103OSM   C15F10437   6.137   7.833   5.307 -0.0030 -0.2794  0.0481
  103OSM   H15F10438   6.076   7.904   5.368  3.2535  0.6497  2.5323
  103OSM   H15G10439   6.082   7.785   5.224  0.9408 -1.1555 -0.0881
  103OSM   C16F10440   6.243   7.914   5.244  0.4958 -0.0463 -0.1343
  103OSM   H16F10441   6.314   7.837   5.207  2.0158  1.0257  0.4472
  103OSM   H16G10442   6.293   7.971   5.324 -0.8182  1.4359 -0.3146
  103OSM   C17F10443   6.196   8.016   5.144  0.3462 -0.0194 -0.0965
  103OSM   H17F10444   6.114   8.074   5.193  0.8897  1.2832 -0.6741
  103OSM   H17G10445   6.141   7.975   5.056 -1.3812 -0.3525  1.0894
  103OSM   C18F10446   6.314   8.093   5.094  0.1077 -0.5371  0.4178
  103OSM   H18F10447   6.274   8.171   5.026 -1.8030 -2.0994 -0.3529
  103OSM   H18G10448   6.382   8.024   5.040  0.1806 -1.8827  2.1371
  103OSM   H18H10449   6.362   8.144   5.181 -0.9568 -0.4034  0.9494
  104OSM      N10450   5.234   6.655   7.294  0.4837 -0.2400 -0.0611
  104OSM    C1510451   5.363   6.705   7.227  0.2745  0.5241 -0.6219
  104OSM   H15A10452   5.372   6.664   7.128  0.9561  2.5807 -1.4500
  104OSM   H15B10453   5.451   6.678   7.284  0.6053  0.9064 -0.9532
  104OSM   H15C10454   5.357   6.812   7.224  0.4566  0.6465  1.5228
  104OSM    C1410455   5.242   6.685   7.443 -0.6201 -0.3008 -0.1298
  104OSM   H14A10456   5.220   6.790   7.457  0.3600  0.0962 -1.4167
  104OSM   H14B10457   5.338   6.655   7.480  0.0234 -0.6957 -2.0396
  104OSM   H14C10458   5.157   6.637   7.490 -0.0169 -0.3175  0.9644
  104OSM    C1310459   5.119   6.737   7.241  0.1103 -0.8131  0.1337
  104OSM   H13A10460   5.144   6.841   7.231 -2.0642 -0.1635  0.7749
  104OSM   H13B10461   5.028   6.707   7.293  1.5106 -3.0289  1.5013
  104OSM   H13C10462   5.112   6.694   7.142  0.3973 -2.0079  0.6104
  104OSM    C1210463   5.202   6.510   7.278 -0.8465  1.0953  0.3447
  104OSM   H12A10464   5.116   6.489   7.339  0.6531 -0.8108  1.9329
  104OSM   H12B10465   5.284   6.455   7.323 -1.5163  0.2138  0.5109
  104OSM    C1110466   5.171   6.452   7.139  0.1638 -0.1621  0.4617
  104OSM   H11A10467   5.070   6.483   7.104 -0.1103 -0.1926  1.2062
  104OSM   H11B10468   5.173   6.341   7.132  2.5683 -0.1673  0.2952
  104OSM      P10469   5.394   6.434   6.994  0.2976  0.1289  0.0321
  104OSM    O1310470   5.505   6.509   7.062  0.1081 -0.5369  0.4690
  104OSM    O1410471   5.377   6.288   7.006 -0.3163  0.3808  0.3664
  104OSM    O1110472   5.388   6.486   6.841 -0.0526  0.7510  0.3645
  104OSM    O1210473   5.258   6.508   7.033 -0.1480  0.1103  0.3141
  104OSM    C1S10474   5.296   6.432   6.748 -0.0877  0.3764 -0.4625
  104OSM    H1S10475   5.197   6.477   6.767  0.7739  1.7640  0.8779
  104OSM    H1T10476   5.293   6.322   6.764  1.4721  0.4509  0.6313
  104OSM     NF10477   5.249   6.433   6.510 -0.1642 -0.1653  0.0136
  104OSM    HNF10478   5.276   6.350   6.462  0.4073 -0.1915  0.3624
  104OSM    C2S10479   5.344   6.476   6.608 -0.0770  1.0355  0.0337
  104OSM    H2S10480   5.349   6.587   6.607 -0.7027  1.0748 -1.3044
  104OSM    C3S10481   5.487   6.428   6.576  0.1193  0.4039  0.9211
  104OSM    H3S10482   5.486   6.318   6.585  3.0487  0.2468  0.4172
  104OSM     O310483   5.589   6.463   6.668 -0.3512 -0.1802  0.5587
  104OSM    HO310484   5.541   6.495   6.745  0.4212  0.8441  0.6375
  104OSM    C4S10485   5.531   6.466   6.434  0.1126 -0.1892 -0.8271
  104OSM    H4S10486   5.530   6.397   6.349  2.3103 -0.7191 -0.4808
  104OSM    C5S10487   5.577   6.593   6.412  0.4698 -0.8326 -0.8023
  104OSM    H5S10488   5.582   6.669   6.491 -0.4263  0.7420 -2.1757
  104OSM    C6S10489   5.638   6.645   6.286 -0.6933  0.5631 -0.3078
  104OSM    H6S10490   5.748   6.643   6.303 -0.6109 -1.6760 -0.7027
  104OSM    H6T10491   5.623   6.753   6.270  0.2308  0.4295 -2.4776
  104OSM    C7S10492   5.597   6.569   6.157 -0.0823  0.3387  0.4335
  104OSM    H7S10493   5.487   6.566   6.145 -0.1485  2.9679 -0.2125
  104OSM    H7T10494   5.630   6.463   6.152  0.6631  0.4739  1.7519
  104OSM    C8S10495   5.648   6.648   6.028  0.3418  0.1901  0.0705
  104OSM    H8S10496   5.749   6.616   5.994  0.1956  1.6993 -1.9797
  104OSM    H8T10497   5.654   6.753   6.064  0.7430 -0.0801  0.8049
  104OSM    C9S10498   5.553   6.631   5.916  0.1411  0.1961  0.5834
  104OSM    H9S10499   5.451   6.665   5.944  0.6297  0.4543  2.1205
  104OSM    H9T10500   5.538   6.522   5.897  0.3016 -0.2653  2.8984
  104OSM   C10S10501   5.590   6.715   5.792 -0.1455  0.0104 -0.7986
  104OSM   H10S10502   5.691   6.691   5.752 -0.7292 -0.1374 -2.2603
  104OSM   H10T10503   5.593   6.821   5.824  0.1326 -0.5388  1.0968
  104OSM   C11S10504   5.497   6.696   5.671 -0.0824 -0.1493 -0.6938
  104OSM   H11S10505   5.399   6.732   5.709  0.3499  0.6361 -0.3079
  104OSM   H11T10506   5.477   6.588   5.652  0.0561 -0.3277  0.1370
  104OSM   C12S10507   5.563   6.766   5.547  0.0140  1.2270  0.4334
  104OSM   H12S10508   5.666   6.730   5.525 -1.1373 -0.5499 -2.7428
  104OSM   H12T10509   5.568   6.876   5.564  1.5159  0.9272  2.3194
  104OSM   C13S10510   5.487   6.746   5.412  0.1012 -0.3725  0.7011
  104OSM   H13S10511   5.384   6.784   5.428 -1.2832 -3.7766  0.5473
  104OSM   H13T10512   5.472   6.641   5.381 -2.0725  0.4197 -1.1282
  104OSM   C14S10513   5.532   6.836   5.295 -0.5252 -0.1176  0.3099
  104OSM   H14S10514   5.643   6.829   5.290 -0.5486  0.2276 -1.2833
  104OSM   H14T10515   5.497   6.936   5.330 -1.0095 -0.2327  0.1576
  104OSM   C15S10516   5.477   6.795   5.157 -0.1052  0.2928 -0.5787
  104OSM   H15S10517   5.385   6.733   5.168  0.3667 -0.1362  1.2520
  104OSM   H15T10518   5.553   6.728   5.110 -0.4233 -1.3384  1.1241
  104OSM   C16S10519   5.454   6.926   5.083 -0.2459 -0.1807  0.2393
  104OSM   H16S10520   5.523   6.998   5.133  1.5636 -1.6754 -0.0281
  104OSM   H16T10521   5.348   6.959   5.088 -0.0068  0.7874 -0.8281
  104OSM   C17S10522   5.496   6.915   4.933 -0.6811  0.4207  0.7012
  104OSM   H17S10523   5.469   7.011   4.884 -0.1091 -0.1933 -0.9043
  104OSM   H17T10524   5.431   6.839   4.886  1.5404 -1.3164  0.2322
  104OSM   C18S10525   5.641   6.880   4.903 -0.0648  0.5160  0.0790
  104OSM   H18S10526   5.669   6.779   4.942  4.0011  1.3548 -0.1743
  104OSM   H18T10527   5.708   6.964   4.932 -1.3279  2.2146 -1.6640
  104OSM   H18U10528   5.659   6.877   4.794 -1.8349 -0.0409 -0.2305
  104OSM    C1F10529   5.134   6.496   6.493  0.6020  0.2810 -0.2025
  104OSM     OF10530   5.120   6.612   6.520  0.2336 -0.5990 -0.5419
  104OSM    C2F10531   5.021   6.413   6.430 -0.4598 -0.1526  0.0844
  104OSM    H2F10532   4.932   6.394   6.495  0.7509  0.1284  1.9110
  104OSM    H2G10533   5.065   6.318   6.394 -1.4984 -1.5065  2.1782
  104OSM    C3F10534   4.954   6.489   6.303 -0.1101  0.0749 -0.0507
  104OSM    H3F10535   4.907   6.586   6.331 -2.1268 -1.0932  0.8248
  104OSM    H3G10536   4.868   6.425   6.273  0.9748 -1.8404  0.7513
  104OSM    C4F10537   5.041   6.506   6.182 -0.0616  0.3893  0.3313
  104OSM    H4F10538   5.082   6.404   6.172  1.4612  0.8129  1.7188
  104OSM    H4G10539   5.127   6.571   6.210 -0.1757  0.3818  0.7171
  104OSM    C5F10540   4.980   6.576   6.060 -0.0068 -0.1514 -0.3180
  104OSM    H5F10541   4.974   6.685   6.077  2.0321 -0.0270 -0.1545
  104OSM    H5G10542   4.886   6.523   6.034  0.0074 -0.7696  0.8441
  104OSM    C6F10543   5.073   6.561   5.929  0.6082  0.2288 -0.2022
  104OSM    H6F10544   5.077   6.450   5.918  1.4088  0.3201 -0.8528
  104OSM    H6G10545   5.173   6.602   5.956  0.8365 -0.0247 -0.6589
  104OSM    C7F10546   4.989   6.613   5.813  0.1042  0.1814 -0.5114
  104OSM    H7F10547   4.997   6.723   5.823  1.6646  0.0535 -0.0528
  104OSM    H7G10548   4.882   6.585   5.820 -0.1344  0.9576 -0.8997
  104OSM    C8F10549   5.046   6.572   5.680 -0.2611 -0.1733  0.5947
  104OSM    H8F10550   5.069   6.463   5.680  1.1304  0.0925  0.2167
  104OSM    H8G10551   5.147   6.618   5.667 -0.1242 -0.6867 -0.2216
  104OSM    C9F10552   4.950   6.606   5.571  0.2981  0.2616  0.0257
  104OSM    H9F10553   4.859   6.546   5.576  1.5008 -1.5947  0.4675
  104OSM   C10F10554   4.970   6.686   5.469  0.2556  0.1138 -0.3940
  104OSM   H10F10555   4.889   6.699   5.395 -0.5290 -1.8162  0.0818
  104OSM   C11F10556   5.098   6.754   5.436 -0.1753  0.1206  0.2027
  104OSM   H11F10557   5.161   6.674   5.394 -4.0339 -2.8981 -0.4140
  104OSM   H11G10558   5.144   6.791   5.531  0.2064  0.4101 -0.0930
  104OSM   C12F10559   5.091   6.880   5.342 -0.2849 -0.1233  0.2739
  104OSM   H12F10560   5.195   6.903   5.311 -0.4863 -0.2166 -0.4796
  104OSM   H12G10561   5.060   6.971   5.399  0.6462  0.9403 -0.8413
  104OSM   C13F10562   5.010   6.862   5.213  0.4148  0.8689 -0.2833
  104OSM   H13F10563   4.904   6.848   5.241  0.2387  2.9630  0.2683
  104OSM   H13G10564   5.060   6.771   5.173  1.1838  0.7145  0.9693
  104OSM   C14F10565   5.033   6.975   5.103  0.6807  0.3852 -0.1804
  104OSM   H14F10566   5.143   6.988   5.105  0.6180  0.9319  1.5364
  104OSM   H14G10567   4.981   7.072   5.117 -0.8755 -0.0987 -2.1528
  104OSM   C15F10568   4.982   6.932   4.970  0.3193  0.7148  0.6106
  104OSM   H15F10569   5.031   6.832   4.965 -1.3967 -0.1245  0.0994
  104OSM   H15G10570   5.006   7.010   4.895 -1.1906  1.2738  0.6726
  104OSM   C16F10571   4.827   6.908   4.953 -0.4751 -0.2275 -0.7514
  104OSM   H16F10572   4.786   7.009   4.933 -1.3943 -0.3033  0.6224
  104OSM   H16G10573   4.790   6.875   5.052 -0.4274 -0.0222 -0.6638
  104OSM   C17F10574   4.798   6.807   4.840  0.1227 -0.9349 -0.3428
  104OSM   H17F10575   4.688   6.795   4.843  0.1919 -1.4573  1.9008
  104OSM   H17G10576   4.837   6.707   4.868  2.0519 -0.3295 -0.6622
  104OSM   C18F10577   4.840   6.853   4.705  0.4962  0.2949  0.6915
  104OSM   H18F10578   4.950   6.869   4.708  0.7847 -1.4066  0.2381
  104OSM   H18G10579   4.791   6.947   4.671  1.7406  0.2176 -1.5211
  104OSM   H18H10580   4.830   6.774   4.627  1.1471  0.3085  0.5881
  105OSM      N10581   1.198   6.318   7.252  0.3173  0.0345 -0.1049
  105OSM    C1510582   1.290   6.405   7.174 -0.3436 -0.0063  0.6729
  105OSM   H15A10583   1.229   6.482   7.129  1.0037  0.4400 -0.4723
  105OSM   H15B10584   1.342   6.346   7.101  1.6336  1.3198  0.9209
  105OSM   H15C10585   1.349   6.465   7.242  0.1799  2.4060 -1.7245
  105OSM    C1410586   1.287   6.217   7.316 -0.2300  0.4922  0.8207
  105OSM   H14A10587   1.248   6.186   7.411  2.0490 -0.4000  1.5366
  105OSM   H14B10588   1.388   6.255   7.329  0.2196  0.7768 -2.4152
  105OSM   H14C10589   1.289   6.128   7.254  1.6497  0.5464  0.7269
  105OSM    C1310590   1.132   6.392   7.365  0.3298 -0.6210  0.2492
  105OSM   H13A10591   1.077   6.475   7.322  1.4587 -0.0020 -0.0644
  105OSM   H13B10592   1.199   6.422   7.444 -0.2729  1.2726  0.0979
  105OSM   H13C10593   1.048   6.335   7.401  1.0990 -3.1447 -1.6810
  105OSM    C1210594   1.088   6.250   7.167 -0.0034  0.0577  0.6856
  105OSM   H12A10595   1.027   6.192   7.234  0.4683  0.8876  1.8809
  105OSM   H12B10596   1.137   6.188   7.093  1.6081  1.2831  0.6562
  105OSM    C1110597   1.001   6.351   7.088 -1.3239  0.4661  0.1239
  105OSM   H11A10598   0.937   6.288   7.022 -1.0379 -0.5391  0.7769
  105OSM   H11B10599   1.069   6.414   7.028  1.2782 -2.5176 -0.3676
  105OSM      P10600   0.895   6.580   7.167 -0.1796  0.2454  0.1894
  105OSM    O1310601   0.765   6.614   7.220 -0.6941  0.3448 -0.2836
  105OSM    O1410602   1.013   6.655   7.220  0.4514  0.4790 -0.2405
  105OSM    O1110603   0.888   6.591   7.003 -0.1726  0.0299  0.2372
  105OSM    O1210604   0.926   6.422   7.179 -0.1351 -0.2076  0.2258
  105OSM    C1S10605   0.763   6.547   6.940 -0.2542 -0.6885  0.3102
  105OSM    H1S10606   0.674   6.585   6.994 -0.0014 -0.3562  0.4982
  105OSM    H1T10607   0.765   6.436   6.938 -0.3933 -0.6836 -0.1520
  105OSM     NF10608   0.632   6.563   6.730  0.1181  0.9372  0.4155
  105OSM    HNF10609   0.630   6.480   6.675  1.1743  0.2220  1.4233
  105OSM    C2S10610   0.760   6.595   6.788  0.9356  0.1493  0.3797
  105OSM    H2S10611   0.770   6.706   6.786  2.1650  0.0927 -2.6774
  105OSM    C3S10612   0.883   6.543   6.711  0.2473  0.2459 -0.9528
  105OSM    H3S10613   0.885   6.433   6.729  2.1199  0.5784  1.5527
  105OSM     O310614   1.010   6.574   6.763 -0.2665 -0.4264 -0.0820
  105OSM    HO310615   0.982   6.611   6.846 -2.3201 -0.1330 -0.8474
  105OSM    C4S10616   0.864   6.569   6.570 -0.6099  0.3628  0.3048
  105OSM    H4S10617   0.844   6.672   6.536  0.0071  0.2211 -0.5331
  105OSM    C5S10618   0.859   6.484   6.468 -0.7967  0.3225  0.3136
  105OSM    H5S10619   0.881   6.377   6.480 -0.2042  0.3361 -0.5495
  105OSM    C6S10620   0.820   6.519   6.326 -0.5724  0.1144  0.3340
  105OSM    H6S10621   0.878   6.604   6.286  0.1456 -0.8056 -0.6323
  105OSM    H6T10622   0.713   6.549   6.329 -0.7382 -0.5337  1.4983
  105OSM    C7S10623   0.843   6.390   6.243 -1.2095  1.1755  0.0518
  105OSM    H7S10624   0.785   6.298   6.265 -0.6027  0.5108 -1.0321
  105OSM    H7T10625   0.951   6.363   6.248 -1.1037  1.7154  1.2470
  105OSM    C8S10626   0.801   6.414   6.096  0.5333 -0.3598 -0.3352
  105OSM    H8S10627   0.823   6.522   6.080 -1.2047 -0.2722 -2.5172
  105OSM    H8T10628   0.692   6.396   6.093  0.2646  0.9533  0.4948
  105OSM    C9S10629   0.873   6.329   5.994 -0.2066 -0.0872 -0.4653
  105OSM    H9S10630   0.863   6.224   6.028  2.2387  0.3864  2.0919
  105OSM    H9T10631   0.982   6.349   6.004 -0.3172 -0.3834  2.0103
  105OSM   C10S10632   0.826   6.361   5.852 -0.1487 -0.0155  0.5007
  105OSM   H10S10633   0.847   6.468   5.829 -2.9138  0.0196 -2.5680
  105OSM   H10T10634   0.717   6.344   5.847 -0.3174  1.3273 -1.6350
  105OSM   C11S10635   0.888   6.274   5.747 -0.1290  0.7881  0.2023
  105OSM   H11S10636   0.839   6.174   5.741 -1.3552  1.3955 -0.3977
  105OSM   H11T10637   0.993   6.256   5.777 -0.0729  1.1773  0.2396
  105OSM   C12S10638   0.893   6.346   5.608  0.7720  0.1331 -0.9638
  105OSM   H12S10639   0.936   6.447   5.627  0.5357  0.2343 -0.9564
  105OSM   H12T10640   0.787   6.366   5.582  1.1619  0.2251 -2.5973
  105OSM   C13S10641   0.957   6.273   5.491  0.1475 -0.1462 -0.2099
  105OSM   H13S10642   0.904   6.181   5.457  0.7620 -0.4692 -0.2955
  105OSM   H13T10643   1.045   6.237   5.548  0.8478  3.0815  0.9354
  105OSM   C14S10644   1.005   6.366   5.377  0.2365  0.3920 -0.5251
  105OSM   H14S10645   1.062   6.299   5.309 -0.7753 -1.4494  0.3758
  105OSM   H14T10646   1.075   6.444   5.414  2.2241 -0.5119 -2.1669
  105OSM   C15S10647   0.893   6.411   5.286 -0.1125  0.4780 -0.4144
  105OSM   H15S10648   0.818   6.454   5.356  0.8703 -0.2856  1.1738
  105OSM   H15T10649   0.837   6.323   5.248  0.4365 -0.6388  1.2223
  105OSM   C16S10650   0.950   6.509   5.178  0.7678  1.1358 -0.8780
  105OSM   H16S10651   1.046   6.485   5.128  0.3636  1.6990 -1.9470
  105OSM   H16T10652   0.979   6.606   5.225  1.7481  0.0855  0.7806
  105OSM   C17S10653   0.861   6.544   5.064  0.4245 -0.8814  0.3681
  105OSM   H17S10654   0.861   6.452   5.003 -5.0150 -2.2695  1.9047
  105OSM   H17T10655   0.919   6.622   5.011  1.3915 -0.0201  2.5712
  105OSM   C18S10656   0.711   6.583   5.066  0.1731  0.1180 -0.8465
  105OSM   H18S10657   0.666   6.560   4.967  1.1661  0.7596 -1.4652
  105OSM   H18T10658   0.698   6.693   5.073  1.8854  0.2487  1.6742
  105OSM   H18U10659   0.653   6.525   5.142  0.8152 -1.5382 -1.5791
  105OSM    C1F10660   0.513   6.616   6.752  0.6951  0.1287  0.5062
  105OSM     OF10661   0.492   6.690   6.844  0.1360 -0.4961 -0.0662
  105OSM    C2F10662   0.402   6.578   6.654  0.0142 -0.5833 -0.2162
  105OSM    H2F10663   0.331   6.662   6.643  0.2760 -0.1134  1.4262
  105OSM    H2G10664   0.339   6.493   6.690 -1.9225  0.5782 -0.7362
  105OSM    C3F10665   0.457   6.547   6.513  0.1419  0.1092  0.0878
  105OSM    H3F10666   0.534   6.467   6.519  2.2950  2.1699  3.1077
  105OSM    H3G10667   0.510   6.633   6.468 -0.4085 -1.5389 -4.1674
  105OSM    C4F10668   0.348   6.514   6.410  0.3626 -0.3528 -0.1278
  105OSM    H4F10669   0.267   6.590   6.416 -0.4781 -1.1340 -1.1284
  105OSM    H4G10670   0.310   6.415   6.444  0.9854 -0.8927 -0.9488
  105OSM    C5F10671   0.399   6.492   6.271 -0.2216 -0.0959  0.2154
  105OSM    H5F10672   0.459   6.399   6.279 -0.3684 -0.3809 -1.4457
  105OSM    H5G10673   0.474   6.567   6.237  0.5524 -0.7631  0.4097
  105OSM    C6F10674   0.294   6.468   6.163 -0.5344  0.5193  0.1118
  105OSM    H6F10675   0.216   6.545   6.177  0.0601  0.9778  0.9809
  105OSM    H6G10676   0.251   6.368   6.186  0.2124 -0.0085 -0.6945
  105OSM    C7F10677   0.369   6.464   6.026 -0.0221  0.4936 -0.4089
  105OSM    H7F10678   0.442   6.381   6.023  0.2118  0.7197 -2.4219
  105OSM    H7G10679   0.426   6.559   6.020  0.2294  0.4157  0.5705
  105OSM    C8F10680   0.276   6.449   5.901  0.0277  0.2634  0.3378
  105OSM    H8F10681   0.174   6.488   5.924 -1.5543 -2.6952 -1.1423
  105OSM    H8G10682   0.264   6.344   5.867 -1.5619  0.7069 -0.5476
  105OSM    C9F10683   0.344   6.505   5.784  0.1269 -0.2107  0.0384
  105OSM    H9F10684   0.432   6.448   5.750  2.3167  2.1455  1.4399
  105OSM   C10F10685   0.313   6.615   5.713 -0.0253 -0.3177  0.6249
  105OSM   H10F10686   0.376   6.660   5.635 -0.6651  0.0000  0.2906
  105OSM   C11F10687   0.203   6.704   5.761  0.5486  0.3560 -0.0794
  105OSM   H11F10688   0.229   6.807   5.728  0.9056  0.0553 -0.7683
  105OSM   H11G10689   0.202   6.696   5.872  2.8321 -1.9786 -0.1277
  105OSM   C12F10690   0.071   6.681   5.691 -0.5452 -0.3275 -0.4824
  105OSM   H12F10691   0.007   6.758   5.739  0.7808 -0.5714  1.8160
  105OSM   H12G10692   0.023   6.585   5.722 -0.8370  0.1164  0.4548
  105OSM   C13F10693   0.061   6.702   5.538  0.2545  0.1913 -0.0713
  105OSM   H13F10694   0.125   6.630   5.482 -0.2845  0.2824 -0.8061
  105OSM   H13G10695   0.092   6.801   5.499  2.1366 -0.5012 -0.4221
  105OSM   C14F10696  -0.088   6.685   5.488  0.3064 -0.2930  1.2306
  105OSM   H14F10697  -0.164   6.739   5.548 -0.3091 -0.3515  0.5222
  105OSM   H14G10698  -0.121   6.579   5.484 -1.9707  0.3442  1.9573
  105OSM   C15F10699  -0.104   6.734   5.337  0.2091  0.3165  0.3395
  105OSM   H15F10700  -0.172   6.660   5.289  2.3718 -2.0075  0.6827
  105OSM   H15G10701  -0.008   6.710   5.288  1.5441  1.1628  2.4100
  105OSM   C16F10702  -0.158   6.879   5.331 -0.2672  0.4849 -0.3593
  105OSM   H16F10703  -0.070   6.942   5.307 -0.7647  0.6810 -1.7200
  105OSM   H16G10704  -0.209   6.924   5.419  2.3107  1.7344  0.5760
  105OSM   C17F10705  -0.263   6.886   5.224  0.6098  0.1215  0.0351
  105OSM   H17F10706  -0.328   6.974   5.243  0.9528  1.1368 -2.9817
  105OSM   H17G10707  -0.329   6.797   5.233  0.6003  0.2056  0.9533
  105OSM   C18F10708  -0.201   6.893   5.088 -0.3916 -0.7828 -0.4844
  105OSM   H18F10709  -0.109   6.955   5.089 -0.6562 -0.2609 -2.6926
  105OSM   H18G10710  -0.273   6.931   5.011 -2.0870  1.8131  2.1541
  105OSM   H18H10711  -0.173   6.794   5.047  1.4770 -0.3188 -0.4102
  106OSM      N10712   5.305   2.360   7.535  0.2646 -0.3093 -0.3542
  106OSM    C1510713   5.421   2.301   7.614  1.0800 -0.1111  0.3269
  106OSM   H15A10714   5.439   2.195   7.603  1.5195 -0.3805  2.9231
  106OSM   H15B10715   5.390   2.302   7.717 -0.2547  0.1714 -0.0630
  106OSM   H15C10716   5.510   2.360   7.596 -0.1403  0.8787 -3.3413
  106OSM    C1410717   5.180   2.299   7.587 -0.4993  0.1213  0.7847
  106OSM   H14A10718   5.183   2.197   7.551 -1.1687  0.1553  0.6255
  106OSM   H14B10719   5.089   2.342   7.549  0.2980  2.4255  1.3224
  106OSM   H14C10720   5.184   2.301   7.695  0.2493  3.7990  0.7955
  106OSM    C1310721   5.300   2.508   7.570 -0.0772 -0.0219  0.0273
  106OSM   H13A10722   5.373   2.565   7.515 -1.1882  0.5655 -0.8851
  106OSM   H13B10723   5.317   2.512   7.676 -3.1656 -2.9260  0.8184
  106OSM   H13C10724   5.206   2.559   7.554  0.0887  0.4006  0.3849
  106OSM    C1210725   5.323   2.340   7.394 -0.7206 -0.3291  0.2078
  106OSM   H12A10726   5.255   2.401   7.336  1.2826  0.9221 -0.9608
  106OSM   H12B10727   5.295   2.239   7.367 -0.6314 -0.3382  0.1496
  106OSM    C1110728   5.463   2.374   7.326  0.1484 -0.1391  0.3707
  106OSM   H11A10729   5.482   2.337   7.223 -0.5540 -0.2062  0.2626
  106OSM   H11B10730   5.535   2.306   7.377  0.9419  0.2251 -0.2341
  106OSM      P10731   5.450   2.619   7.222  0.2691  0.3110  0.0215
  106OSM    O1310732   5.304   2.639   7.245 -0.5021  0.1936 -0.4346
  106OSM    O1410733   5.540   2.733   7.249  0.1272  0.0127  0.0729
  106OSM    O1110734   5.480   2.551   7.075  0.4038 -0.6117  0.7388
  106OSM    O1210735   5.496   2.511   7.323 -0.1884  0.4894 -0.5512
  106OSM    C1S10736   5.612   2.532   7.039 -1.1647 -0.2240  1.0301
  106OSM    H1S10737   5.652   2.441   7.089  0.4719  1.6974  3.4510
  106OSM    H1T10738   5.671   2.623   7.063 -1.9135  0.2706  1.0140
  106OSM     NF10739   5.770   2.470   6.855  0.0057 -0.6259 -0.2213
  106OSM    HNF10740   5.819   2.532   6.794  0.6159 -0.4494  0.4316
  106OSM    C2S10741   5.634   2.508   6.880 -0.4595  0.1856 -0.4682
  106OSM    H2S10742   5.578   2.415   6.859  0.0676 -0.2993  0.2170
  106OSM    C3S10743   5.560   2.625   6.798 -0.0737  0.0955 -0.4016
  106OSM    H3S10744   5.620   2.716   6.821 -0.5918 -0.0247  1.6796
  106OSM     O310745   5.427   2.649   6.839 -0.2567  0.3860 -0.0799
  106OSM    HO310746   5.423   2.613   6.928 -1.4343  1.6116  0.4009
  106OSM    C4S10747   5.570   2.607   6.644  0.1162 -0.2048 -0.2773
  106OSM    H4S10748   5.670   2.598   6.599 -0.1454 -2.8426 -0.4999
  106OSM    C5S10749   5.472   2.608   6.549  0.9180 -0.1123 -0.2360
  106OSM    H5S10750   5.366   2.627   6.570  0.8457 -0.3165 -0.4142
  106OSM    C6S10751   5.502   2.579   6.404  0.1780 -0.6612 -0.5293
  106OSM    H6S10752   5.556   2.666   6.362  0.7524  0.4980  2.3927
  106OSM    H6T10753   5.407   2.579   6.347 -0.3753 -0.3060  0.3639
  106OSM    C7S10754   5.567   2.448   6.380 -0.8383  0.4528 -0.5353
  106OSM    H7S10755   5.523   2.364   6.438  1.7020 -1.5611 -1.3232
  106OSM    H7T10756   5.674   2.448   6.409 -1.7862 -0.5494  3.5912
  106OSM    C8S10757   5.567   2.402   6.236  0.4038 -0.1466  0.1226
  106OSM    H8S10758   5.466   2.408   6.190 -0.9941 -0.5815  2.8990
  106OSM    H8T10759   5.585   2.292   6.241 -2.3890 -0.9454 -3.3475
  106OSM    C9S10760   5.679   2.462   6.138  0.0326 -0.5589  0.4255
  106OSM    H9S10761   5.772   2.466   6.198 -0.0675 -3.7015  0.9903
  106OSM    H9T10762   5.641   2.560   6.103 -0.3103 -0.0523  2.1305
  106OSM   C10S10763   5.710   2.367   6.019 -1.1268  0.0441  0.1383
  106OSM   H10S10764   5.741   2.268   6.060 -0.7628 -0.4480 -1.2648
  106OSM   H10T10765   5.796   2.416   5.969 -1.1004  0.3431  0.4788
  106OSM   C11S10766   5.591   2.339   5.924 -0.0783  0.5582  0.8125
  106OSM   H11S10767   5.534   2.435   5.923 -0.8290  0.1363  1.5982
  106OSM   H11T10768   5.532   2.256   5.967  1.5377 -1.3242 -0.4698
  106OSM   C12S10769   5.623   2.295   5.779 -0.0755  0.7645  0.1251
  106OSM   H12S10770   5.528   2.255   5.738 -0.0511  0.3228  0.4946
  106OSM   H12T10771   5.697   2.213   5.774  1.0029  1.6260  1.2648
  106OSM   C13S10772   5.678   2.410   5.688 -0.5987 -0.3272 -0.1172
  106OSM   H13S10773   5.781   2.432   5.723 -0.7597 -0.4493  0.4491
  106OSM   H13T10774   5.619   2.503   5.703  1.1531  1.1598 -1.8586
  106OSM   C14S10775   5.691   2.392   5.543  0.6300 -0.5130  1.1923
  106OSM   H14S10776   5.748   2.299   5.523 -1.9031 -1.9479  0.0313
  106OSM   H14T10777   5.739   2.480   5.496 -1.7926  0.6778  0.7454
  106OSM   C15S10778   5.553   2.376   5.471 -1.2007  0.6678 -0.3918
  106OSM   H15S10779   5.486   2.464   5.485 -2.0574  0.3922 -2.4443
  106OSM   H15T10780   5.517   2.282   5.518  0.0081 -1.1457 -2.8685
  106OSM   C16S10781   5.570   2.354   5.324 -0.5953 -0.2550  0.1503
  106OSM   H16S10782   5.468   2.344   5.279 -1.2028 -0.4674  1.5332
  106OSM   H16T10783   5.622   2.256   5.320 -0.6382 -0.2702 -0.0610
  106OSM   C17S10784   5.645   2.453   5.230 -0.2891 -0.0093 -0.4605
  106OSM   H17S10785   5.755   2.443   5.245 -0.1604  0.1094 -1.2613
  106OSM   H17T10786   5.614   2.551   5.272  0.5170 -0.5258  1.4556
  106OSM   C18S10787   5.617   2.429   5.083  0.7628 -0.0431  0.0480
  106OSM   H18S10788   5.689   2.470   5.009  3.8903  0.8798  3.3057
  106OSM   H18T10789   5.524   2.486   5.061  0.8311 -0.0480 -0.2543
  106OSM   H18U10790   5.596   2.321   5.069  1.8016 -0.3947  1.0130
  106OSM    C1F10791   5.839   2.376   6.904 -0.6178  0.6305 -0.1010
  106OSM     OF10792   5.779   2.281   6.950  0.1027  0.6317 -0.1621
  106OSM    C2F10793   5.993   2.392   6.901  0.3557 -0.4491 -0.2706
  106OSM    H2F10794   6.033   2.372   7.003  1.3328 -2.3059 -0.9662
  106OSM    H2G10795   6.017   2.496   6.870 -0.2895  1.1904  3.9859
  106OSM    C3F10796   6.052   2.291   6.808 -0.6226 -0.4868  0.0284
  106OSM    H3F10797   6.054   2.192   6.858 -1.2713 -0.9095 -0.7446
  106OSM    H3G10798   6.159   2.316   6.799 -0.7187 -0.3392 -0.8865
  106OSM    C4F10799   5.993   2.288   6.661  0.1293  0.5797  0.5888
  106OSM    H4F10800   6.024   2.377   6.602 -1.1590  0.2057 -0.7156
  106OSM    H4G10801   5.883   2.270   6.666  0.2870 -0.1510  1.8258
  106OSM    C5F10802   6.041   2.154   6.593 -0.0210 -0.2719  0.0937
  106OSM    H5F10803   5.995   2.069   6.648  0.8354 -1.2890 -0.7405
  106OSM    H5G10804   6.152   2.149   6.592 -0.0211 -0.5039 -1.1177
  106OSM    C6F10805   5.998   2.139   6.449  0.2818 -0.5934 -1.3819
  106OSM    H6F10806   5.889   2.122   6.444  0.2260 -0.0216 -2.2226
  106OSM    H6G10807   6.050   2.044   6.422 -0.0641 -1.7178  1.5115
  106OSM    C7F10808   6.058   2.245   6.355  0.0576  0.1600 -0.1920
  106OSM    H7F10809   6.169   2.244   6.361  0.0382  0.9713  0.3709
  106OSM    H7G10810   6.011   2.340   6.387 -0.9085  0.0420 -1.1792
  106OSM    C8F10811   6.006   2.227   6.205  0.1507  0.0120  0.2195
  106OSM    H8F10812   6.025   2.328   6.162 -1.6843  0.6003  0.7201
  106OSM    H8G10813   5.897   2.218   6.188  0.0818  1.2736 -0.0955
  106OSM    C9F10814   6.069   2.104   6.141  0.9188  0.2400 -0.2940
  106OSM    H9F10815   6.069   2.015   6.205  0.2646 -0.8649 -1.7674
  106OSM   C10F10816   6.122   2.093   6.018 -0.3838  0.3749 -0.9809
  106OSM   H10F10817   6.159   1.992   5.996  2.0810  1.1637 -0.7824
  106OSM   C11F10818   6.138   2.199   5.911 -0.2575  0.0371 -0.4404
  106OSM   H11F10819   6.236   2.250   5.919 -0.3915  0.0163  3.1063
  106OSM   H11G10820   6.062   2.279   5.924 -0.1553  0.0841 -0.1014
  106OSM   C12F10821   6.121   2.140   5.768 -0.1863 -1.6648  0.4673
  106OSM   H12F10822   6.033   2.073   5.757 -0.8293 -0.8247  0.3474
  106OSM   H12G10823   6.212   2.086   5.733 -0.4948 -3.0681  1.7228
  106OSM   C13F10824   6.069   2.246   5.662  0.2099 -0.0489 -0.0572
  106OSM   H13F10825   6.139   2.332   5.673  0.3461 -0.3755  2.0241
  106OSM   H13G10826   5.968   2.282   5.691 -0.0772 -0.4383 -0.5639
  106OSM   C14F10827   6.070   2.183   5.525  0.1102  0.2616  0.4425
  106OSM   H14F10828   5.978   2.122   5.536 -1.4247  2.4033  0.2774
  106OSM   H14G10829   6.160   2.119   5.513 -0.1820  0.2349 -2.5314
  106OSM   C15F10830   6.064   2.291   5.418 -0.2349  0.3305  0.3797
  106OSM   H15F10831   6.170   2.318   5.397 -0.6470  0.9536 -1.0029
  106OSM   H15G10832   6.006   2.379   5.451 -1.3453 -0.9103  1.8627
  106OSM   C16F10833   6.005   2.231   5.293 -0.4887  0.3739  0.8503
  106OSM   H16F10834   5.999   2.322   5.230 -0.0633 -0.6187 -0.6620
  106OSM   H16G10835   5.902   2.196   5.316 -1.1578  1.5696 -0.2130
  106OSM   C17F10836   6.087   2.116   5.230 -0.2302  0.5713  0.0186
  106OSM   H17F10837   6.081   2.017   5.280  0.0135  0.0446 -0.9738
  106OSM   H17G10838   6.194   2.145   5.242 -0.5471  0.9753  2.4343
  106OSM   C18F10839   6.058   2.071   5.086 -0.7003  0.3459  1.0361
  106OSM   H18F10840   5.953   2.035   5.086  0.0410 -2.0091  1.9925
  106OSM   H18G10841   6.128   1.988   5.062 -2.5961 -1.3066  0.8650
  106OSM   H18H10842   6.091   2.152   5.017  1.2082  1.6588  3.3505
  107OSM      N10843   4.364   2.258   7.516  0.5476 -0.1204 -0.3845
  107OSM    C1510844   4.427   2.145   7.596 -0.8567 -0.1895  0.1423
  107OSM   H15A10845   4.369   2.055   7.586  0.5178 -0.9712 -1.3667
  107OSM   H15B10846   4.431   2.181   7.697  1.1236 -1.2509  0.4929
  107OSM   H15C10847   4.526   2.125   7.557 -1.4574 -1.6244 -0.7216
  107OSM    C1410848   4.303   2.192   7.398  0.0735 -0.2365  0.3096
  107OSM   H14A10849   4.377   2.157   7.327 -0.1857 -3.2253  1.3617
  107OSM   H14B10850   4.232   2.260   7.353  0.1203  1.4427  2.6249
  107OSM   H14C10851   4.237   2.110   7.421 -3.4601  1.6242 -2.1779
  107OSM    C1310852   4.244   2.305   7.597  0.3635  0.5067  0.1922
  107OSM   H13A10853   4.178   2.361   7.532  0.2339 -1.1483 -1.1509
  107OSM   H13B10854   4.278   2.362   7.683  1.1767 -0.4247  0.4959
  107OSM   H13C10855   4.178   2.227   7.631  1.5785  0.7715  3.5102
  107OSM    C1210856   4.458   2.369   7.492  0.2981  0.1446 -0.6974
  107OSM   H12A10857   4.514   2.391   7.582  0.3315 -1.1404 -0.3749
  107OSM   H12B10858   4.402   2.450   7.447 -1.1087  0.1419  0.9184
  107OSM    C1110859   4.576   2.354   7.390  0.5555  0.7855  0.4693
  107OSM   H11A10860   4.625   2.447   7.353  2.4069 -1.4781 -3.4386
  107OSM   H11B10861   4.525   2.324   7.296  3.1517  4.2009 -2.3001
  107OSM      P10862   4.786   2.292   7.516  0.4407 -0.3537  0.2711
  107OSM    O1310863   4.764   2.424   7.585 -0.7355  0.0505  0.0257
  107OSM    O1410864   4.807   2.177   7.603 -0.1894 -0.0303 -0.1112
  107OSM    O1110865   4.905   2.306   7.411  0.3395 -0.3148  0.4141
  107OSM    O1210866   4.670   2.251   7.425 -0.4466  0.5179  0.2804
  107OSM    C1S10867   4.925   2.206   7.306  0.5830  0.2237 -0.2719
  107OSM    H1S10868   4.868   2.112   7.328 -0.5357  0.2457 -2.7185
  107OSM    H1T10869   5.033   2.181   7.312  0.4144 -0.6580 -0.7020
  107OSM     NF10870   4.932   2.154   7.062  0.2187 -0.4165  0.1099
  107OSM    HNF10871   5.023   2.154   7.021 -0.2784  0.2846 -1.0659
  107OSM    C2S10872   4.900   2.256   7.160 -0.0204 -0.8454  0.1255
  107OSM    H2S10873   4.790   2.274   7.154 -0.0430 -0.8626  0.4906
  107OSM    C3S10874   4.965   2.397   7.146 -0.0540  0.6073 -0.1389
  107OSM    H3S10875   5.069   2.378   7.182  0.3673  0.1198 -1.5517
  107OSM     O310876   4.898   2.507   7.214  0.1176 -0.1454 -0.1783
  107OSM    HO310877   4.831   2.472   7.272  0.3849  1.2849  1.0478
  107OSM    C4S10878   4.969   2.434   6.999  0.6112  0.2427 -0.2446
  107OSM    H4S10879   4.873   2.483   6.974  0.2110 -0.9957 -1.2384
  107OSM    C5S10880   5.074   2.429   6.915  0.5131  0.6591  0.0561
  107OSM    H5S10881   5.175   2.402   6.948  1.2905  0.7143 -2.0907
  107OSM    C6S10882   5.075   2.496   6.780  0.2173  0.0267  0.1302
  107OSM    H6S10883   5.086   2.420   6.699  3.4325 -0.1835  0.6082
  107OSM    H6T10884   5.171   2.552   6.772 -0.8687  2.3035  1.8947
  107OSM    C7S10885   4.967   2.617   6.770  0.9388  0.3528  0.0804
  107OSM    H7S10886   4.982   2.683   6.858 -1.6196  2.3760 -0.8493
  107OSM    H7T10887   4.857   2.602   6.761  0.7541  0.6933  1.4739
  107OSM    C8S10888   4.993   2.693   6.635 -0.5379 -0.5791 -1.1409
  107OSM    H8S10889   5.101   2.708   6.613 -0.2052 -1.6414 -0.3038
  107OSM    H8T10890   4.949   2.793   6.660  2.8275  0.0216  3.7497
  107OSM    C9S10891   4.923   2.631   6.516  0.4192  0.3428  0.2157
  107OSM    H9S10892   4.813   2.642   6.526  0.5021  0.4858  0.9585
  107OSM    H9T10893   4.924   2.520   6.524 -1.8601  0.2209 -0.3713
  107OSM   C10S10894   4.977   2.680   6.382  0.0460  0.2143 -0.7180
  107OSM   H10S10895   5.084   2.651   6.379  0.1434 -0.4438  3.3583
  107OSM   H10T10896   4.975   2.791   6.375  1.6499  0.3356  0.3361
  107OSM   C11S10897   4.897   2.624   6.265  0.2975 -0.1941 -0.0658
  107OSM   H11S10898   4.797   2.671   6.272  0.2485 -0.4743  1.2378
  107OSM   H11T10899   4.887   2.514   6.275 -1.4117 -0.1889 -1.3050
  107OSM   C12S10900   4.962   2.664   6.131 -0.4754  0.4475  0.3540
  107OSM   H12S10901   5.060   2.616   6.112 -1.6960 -3.8026  3.4688
  107OSM   H12T10902   4.993   2.771   6.128  0.9799  0.0369 -0.0740
  107OSM   C13S10903   4.873   2.615   6.015  0.1967 -0.3052 -0.1182
  107OSM   H13S10904   4.772   2.654   6.040  0.3811  0.5954 -0.7169
  107OSM   H13T10905   4.867   2.504   6.018  1.1184 -0.3648 -0.1111
  107OSM   C14S10906   4.912   2.655   5.870 -0.4648  0.3612  0.9640
  107OSM   H14S10907   5.013   2.627   5.835 -0.3300  0.6807  1.0912
  107OSM   H14T10908   4.933   2.764   5.868  1.1968  0.0520 -0.6423
  107OSM   C15S10909   4.812   2.606   5.759  0.4037 -0.4637 -0.3434
  107OSM   H15S10910   4.727   2.674   5.781  1.2532  0.8657 -0.9903
  107OSM   H15T10911   4.782   2.500   5.773  3.1332 -1.7826 -3.2811
  107OSM   C16S10912   4.847   2.636   5.614  0.6061  0.7200 -0.0233
  107OSM   H16S10913   4.939   2.576   5.598 -1.5225 -3.4088  1.6702
  107OSM   H16T10914   4.862   2.743   5.589 -4.2476  1.7388  0.3064
  107OSM   C17S10915   4.748   2.583   5.510  0.3055  0.2964 -0.1055
  107OSM   H17S10916   4.653   2.641   5.510 -0.4890 -0.9449 -1.6242
  107OSM   H17T10917   4.711   2.479   5.525  1.9910 -0.6867 -2.2417
  107OSM   C18S10918   4.809   2.572   5.372  0.2255  0.1192  0.1875
  107OSM   H18S10919   4.917   2.544   5.378  0.0415 -1.4241 -2.1696
  107OSM   H18T10920   4.795   2.667   5.317  1.6916  1.2756  1.6997
  107OSM   H18U10921   4.749   2.496   5.317 -1.3013  1.3598  0.0769
  107OSM    C1F10922   4.865   2.044   7.054  0.8378  0.6445 -0.1096
  107OSM     OF10923   4.760   2.036   7.120 -0.1760 -0.3675 -0.1994
  107OSM    C2F10924   4.921   1.933   6.971 -0.3511 -0.2712  0.5360
  107OSM    H2F10925   5.016   1.897   7.014 -0.8688 -2.4340 -0.0270
  107OSM    H2G10926   4.947   1.976   6.872 -1.0111 -1.7303 -0.3009
  107OSM    C3F10927   4.843   1.812   6.940  0.7767  0.0843  0.0848
  107OSM    H3F10928   4.747   1.835   6.890  1.7876  4.5161 -0.2431
  107OSM    H3G10929   4.823   1.762   7.037  0.7080  0.9826  0.5406
  107OSM    C4F10930   4.919   1.714   6.849  0.2672 -0.3826  0.2393
  107OSM    H4F10931   4.843   1.637   6.827  0.3124  0.1071 -1.8030
  107OSM    H4G10932   4.999   1.663   6.908 -0.1132 -2.4956 -0.9729
  107OSM    C5F10933   4.974   1.772   6.720 -0.1310  0.6682 -0.2706
  107OSM    H5F10934   5.029   1.689   6.670  1.9046  0.1023  2.6198
  107OSM    H5G10935   5.062   1.840   6.730  0.9147 -0.6845  0.1121
  107OSM    C6F10936   4.871   1.847   6.631 -0.1032 -0.0977  0.3759
  107OSM    H6F10937   4.935   1.905   6.562  2.0585 -3.0948 -0.3106
  107OSM    H6G10938   4.800   1.907   6.692 -0.3963 -0.8432  0.7828
  107OSM    C7F10939   4.795   1.736   6.547 -0.2596  0.0106 -0.2740
  107OSM    H7F10940   4.754   1.659   6.615  2.6855 -0.9851  0.5209
  107OSM    H7G10941   4.870   1.688   6.480 -0.2060 -0.2674 -0.0148
  107OSM    C8F10942   4.681   1.794   6.457  0.0367  0.6558 -0.6956
  107OSM    H8F10943   4.733   1.872   6.397  1.6675 -0.4012 -0.7016
  107OSM    H8G10944   4.607   1.838   6.527  1.9932  0.6436  1.4894
  107OSM    C9F10945   4.613   1.693   6.370  1.1123  0.1409 -0.5961
  107OSM    H9F10946   4.588   1.595   6.413  0.6963  0.6295  0.2978
  107OSM   C10F10947   4.565   1.714   6.249  0.7213  0.3610 -0.6056
  107OSM   H10F10948   4.504   1.636   6.200 -1.2152  0.4471  1.5233
  107OSM   C11F10949   4.562   1.850   6.180  0.4198  0.4724 -0.3096
  107OSM   H11F10950   4.593   1.934   6.246  3.2559  0.1473 -1.0789
  107OSM   H11G10951   4.457   1.883   6.165  0.1639  1.4298  2.7444
  107OSM   C12F10952   4.643   1.861   6.046  0.2578 -0.1294 -0.7096
  107OSM   H12F10953   4.748   1.830   6.068  0.7181  1.1769 -0.9795
  107OSM   H12G10954   4.640   1.965   6.009  0.6203  1.0488  2.2968
  107OSM   C13F10955   4.586   1.785   5.934 -0.2935  0.1541 -0.3184
  107OSM   H13F10956   4.480   1.818   5.935 -0.0138  1.0623  0.4937
  107OSM   H13G10957   4.591   1.676   5.954 -1.2268  0.0414 -0.6402
  107OSM   C14F10958   4.649   1.808   5.797  0.0443  0.6823 -0.7533
  107OSM   H14F10959   4.750   1.762   5.789  0.9657  2.1657  1.1960
  107OSM   H14G10960   4.667   1.917   5.779 -1.3527  0.4137 -4.9117
  107OSM   C15F10961   4.561   1.761   5.676  0.3387 -0.0628 -0.2531
  107OSM   H15F10962   4.464   1.814   5.688  0.6718  0.6612 -0.6635
  107OSM   H15G10963   4.529   1.655   5.686 -3.0807  0.9834  1.5369
  107OSM   C16F10964   4.640   1.771   5.547  0.2950 -0.3067 -0.0095
  107OSM   H16F10965   4.717   1.691   5.556  2.3009  1.8058  4.4489
  107OSM   H16G10966   4.681   1.874   5.538 -0.4292 -0.1243 -1.5907
  107OSM   C17F10967   4.554   1.747   5.423 -0.4224  0.5344  0.1637
  107OSM   H17F10968   4.472   1.820   5.407  0.1308  1.0065 -0.5427
  107OSM   H17G10969   4.496   1.656   5.446 -0.4517 -0.0619 -2.0580
  107OSM   C18F10970   4.627   1.724   5.288 -0.4791 -0.4299 -0.3776
  107OSM   H18F10971   4.705   1.649   5.313 -0.0273 -0.0651 -0.6697
  107OSM   H18G10972   4.669   1.814   5.238  2.3012 -3.2403 -3.6618
  107OSM   H18H10973   4.556   1.693   5.208 -1.8660  3.0373 -0.6983
  108OSM      N10974   6.314   4.151   6.938 -0.2980 -0.0315  1.1325
  108OSM    C1510975   6.337   4.002   6.924 -0.6397 -0.6922 -0.1489
  108OSM   H15A10976   6.245   3.946   6.926 -0.2863 -1.3031 -0.7280
  108OSM   H15B10977   6.394   3.966   7.008 -1.2426 -0.4534  0.3739
  108OSM   H15C10978   6.388   3.977   6.833  2.7877 -1.7477  1.8800
  108OSM    C1410979   6.305   4.201   6.799  0.1232  0.3274 -0.1556
  108OSM   H14A10980   6.238   4.143   6.737 -1.2806 -0.1756  1.7405
  108OSM   H14B10981   6.401   4.188   6.751 -0.3965  2.7204 -2.0104
  108OSM   H14C10982   6.284   4.306   6.791 -1.1229 -0.0038 -1.7956
  108OSM    C1310983   6.188   4.172   7.006  0.4766 -0.4891 -0.0933
  108OSM   H13A10984   6.109   4.113   6.962  0.4473 -0.3824 -0.1822
  108OSM   H13B10985   6.153   4.273   6.994 -0.6808 -0.8703 -0.0417
  108OSM   H13C10986   6.191   4.151   7.112 -1.4465 -2.9480 -0.4195
  108OSM    C1210987   6.426   4.223   7.015 -0.3859 -0.2669  0.1882
  108OSM   H12A10988   6.524   4.194   6.981 -0.2187  0.1097  0.3336
  108OSM   H12B10989   6.426   4.180   7.114 -1.3185  0.2555  0.4316
  108OSM    C1110990   6.438   4.380   7.030 -0.4994 -0.1544 -0.1525
  108OSM   H11A10991   6.342   4.418   7.071 -0.2334 -0.3151  0.6290
  108OSM   H11B10992   6.468   4.420   6.931  2.1323 -3.7425 -0.9764
  108OSM      P10993   6.691   4.338   7.088  0.1054 -0.2423 -0.3171
  108OSM    O1310994   6.792   4.396   7.181 -0.1569  0.5697 -0.1519
  108OSM    O1410995   6.686   4.192   7.091  0.5174  0.2473  0.0770
  108OSM    O1110996   6.718   4.396   6.947  0.1901  0.0221 -0.0846
  108OSM    O1210997   6.544   4.398   7.122 -0.3526 -0.4058  0.0684
  108OSM    C1S10998   6.719   4.317   6.824  0.0340 -0.0485  0.0992
  108OSM    H1S10999   6.625   4.260   6.812  0.4151 -1.7093  3.7663
  108OSM    H1T11000   6.800   4.241   6.833  0.9610  1.0414  1.5153
  108OSM     NF11001   6.761   4.293   6.595 -0.0219 -0.2076  1.2380
  108OSM    HNF11002   6.847   4.245   6.580  0.3587 -0.0552  2.7960
  108OSM    C2S11003   6.755   4.396   6.695  0.1124  0.0690  0.2217
  108OSM    H2S11004   6.672   4.465   6.670 -0.8396 -1.7275 -1.9394
  108OSM    C3S11005   6.879   4.494   6.713 -0.0511 -0.3969 -0.1890
  108OSM    H3S11006   6.968   4.441   6.754  0.3376  0.8084  0.5762
  108OSM     O311007   6.854   4.596   6.806 -0.7023 -0.0245  0.0831
  108OSM    HO311008   6.777   4.560   6.852  1.5584  0.0094  4.3236
  108OSM    C4S11009   6.912   4.554   6.582 -0.1288 -0.9898  0.3398
  108OSM    H4S11010   6.842   4.630   6.543  1.1475  0.9939  1.7452
  108OSM    C5S11011   7.021   4.534   6.503  0.8323  0.6969  0.1323
  108OSM    H5S11012   7.107   4.470   6.532  0.0905  0.3713  1.7612
  108OSM    C6S11013   7.027   4.617   6.378  0.0693  0.5701 -0.4273
  108OSM    H6S11014   7.133   4.648   6.375  0.2875 -0.0760  0.3273
  108OSM    H6T11015   6.963   4.708   6.374  1.8845  1.9114 -0.1829
  108OSM    C7S11016   6.995   4.524   6.257 -0.4860  0.4799  0.1046
  108OSM    H7S11017   7.012   4.569   6.157 -0.1864 -0.0419 -0.0854
  108OSM    H7T11018   6.888   4.495   6.260 -0.2242 -0.5480  0.0938
  108OSM    C8S11019   7.085   4.406   6.253 -0.2604  0.1560  0.0499
  108OSM    H8S11020   7.057   4.343   6.340 -0.3234 -0.9032 -0.7154
  108OSM    H8T11021   7.189   4.437   6.274 -1.0313  1.7157  1.7992
  108OSM    C9S11022   7.063   4.321   6.129  0.9560  0.0502 -0.2120
  108OSM    H9S11023   6.958   4.285   6.117  1.3469 -1.2894  0.1463
  108OSM    H9T11024   7.101   4.222   6.164 -1.3022 -0.5623  0.7371
  108OSM   C10S11025   7.116   4.372   6.003 -0.3958 -0.2445 -1.1100
  108OSM   H10S11026   7.219   4.406   6.030 -0.2287 -1.9338  0.5716
  108OSM   H10T11027   7.050   4.454   5.967 -2.0447 -1.0507 -0.0460
  108OSM   C11S11028   7.121   4.262   5.905  0.4637 -0.1937 -0.5024
  108OSM   H11S11029   7.017   4.229   5.885  0.3468 -2.9518  3.3271
  108OSM   H11T11030   7.182   4.182   5.953  1.8369 -0.5815 -2.7718
  108OSM   C12S11031   7.191   4.306   5.777  0.2191  1.0263 -0.2281
  108OSM   H12S11032   7.298   4.334   5.790  0.5428  0.0528 -0.7425
  108OSM   H12T11033   7.130   4.388   5.732  0.8536  0.8425 -1.4665
  108OSM   C13S11034   7.199   4.199   5.671  1.1914  0.5570  0.4415
  108OSM   H13S11035   7.096   4.159   5.681  1.2844  0.8873  3.5741
  108OSM   H13T11036   7.260   4.109   5.693 -1.4875 -1.5924 -0.2326
  108OSM   C14S11037   7.221   4.234   5.524 -0.2267 -0.4471 -0.4919
  108OSM   H14S11038   7.315   4.294   5.514 -0.3334 -0.0314  0.7637
  108OSM   H14T11039   7.134   4.300   5.502 -0.7169 -0.1440  2.0314
  108OSM   C15S11040   7.229   4.113   5.435 -0.2493 -0.1612 -0.0130
  108OSM   H15S11041   7.157   4.035   5.469 -1.7839  0.7757 -1.0114
  108OSM   H15T11042   7.326   4.061   5.446 -1.0632 -1.6723  0.3844
  108OSM   C16S11043   7.196   4.129   5.290 -0.0683  0.5875  0.3076
  108OSM   H16S11044   7.261   4.204   5.240  0.5993 -0.4067 -0.3551
  108OSM   H16T11045   7.091   4.163   5.275 -0.1009  0.0032 -0.9573
  108OSM   C17S11046   7.215   3.998   5.204  0.1119  0.3019 -0.3193
  108OSM   H17S11047   7.311   3.949   5.231 -0.3675  0.4880  1.8370
  108OSM   H17T11048   7.212   4.037   5.100 -0.3375  1.7668  0.2200
  108OSM   C18S11049   7.102   3.894   5.234 -0.6345 -0.7614  0.2963
  108OSM   H18S11050   7.096   3.867   5.342 -1.5079 -1.9656 -0.0335
  108OSM   H18T11051   7.137   3.802   5.184 -0.3136 -1.9076  2.4758
  108OSM   H18U11052   7.006   3.927   5.190  0.7247  3.0793 -0.1593
  108OSM    C1F11053   6.650   4.240   6.541  0.7961  0.5006  0.7000
  108OSM     OF11054   6.542   4.270   6.591  0.6096 -0.1895  0.1252
  108OSM    C2F11055   6.662   4.134   6.431  0.7980  1.2167  0.4547
  108OSM    H2F11056   6.588   4.057   6.460 -0.9479  3.0610  1.1211
  108OSM    H2G11057   6.761   4.084   6.430 -0.0988 -0.9337 -3.9275
  108OSM    C3F11058   6.625   4.190   6.294 -0.3577  0.0116  0.0071
  108OSM    H3F11059   6.687   4.277   6.262 -1.3839  1.7653  2.4955
  108OSM    H3G11060   6.520   4.225   6.284 -0.2373 -0.0663 -1.9971
  108OSM    C4F11061   6.624   4.083   6.184 -0.1308 -1.1679 -0.5694
  108OSM    H4F11062   6.557   3.998   6.211 -0.0491 -1.4316 -1.1837
  108OSM    H4G11063   6.730   4.051   6.191  0.9713  2.1626 -0.0226
  108OSM    C5F11064   6.574   4.129   6.046  0.4251 -0.8267  0.0246
  108OSM    H5F11065   6.653   4.197   6.007 -2.3937  2.5328 -0.3269
  108OSM    H5G11066   6.478   4.181   6.065 -0.5859 -2.4907 -0.2920
  108OSM    C6F11067   6.551   4.004   5.956 -0.1903  0.5214 -0.3503
  108OSM    H6F11068   6.501   3.918   6.006  4.1246 -2.6512 -0.9098
  108OSM    H6G11069   6.647   3.951   5.936 -0.3531 -0.3936  1.1291
  108OSM    C7F11070   6.494   4.038   5.820 -0.6124  0.6257 -0.0356
  108OSM    H7F11071   6.399   4.090   5.847 -1.4338 -0.1992 -1.2612
  108OSM    H7G11072   6.476   3.947   5.760  1.2988 -0.2509  0.6537
  108OSM    C8F11073   6.576   4.142   5.743  0.1725  0.4306 -0.3871
  108OSM    H8F11074   6.576   4.246   5.783  0.0517  0.7346 -1.1461
  108OSM    H8G11075   6.535   4.154   5.640  1.1991 -0.8099 -0.9727
  108OSM    C9F11076   6.718   4.107   5.717 -0.0695 -0.3603  0.0958
  108OSM    H9F11077   6.760   4.031   5.786  0.8136  0.4112  0.4289
  108OSM   C10F11078   6.790   4.144   5.611  0.2577 -0.4466 -0.6216
  108OSM   H10F11079   6.895   4.112   5.604  0.9860  1.8922 -1.2823
  108OSM   C11F11080   6.736   4.248   5.519  0.0971  0.1253  1.0193
  108OSM   H11F11081   6.817   4.320   5.499  0.1862 -0.3204 -0.3597
  108OSM   H11G11082   6.643   4.300   5.550  0.0476 -1.3854  3.6642
  108OSM   C12F11083   6.693   4.194   5.372  0.4061 -0.0831 -0.9282
  108OSM   H12F11084   6.598   4.139   5.389  1.5650 -1.4094  1.9598
  108OSM   H12G11085   6.766   4.122   5.330  1.9556  0.0594  1.3709
  108OSM   C13F11086   6.669   4.310   5.272  0.2153  0.2807  0.3755
  108OSM   H13F11087   6.619   4.385   5.337  0.5658 -0.2234  1.2423
  108OSM   H13G11088   6.597   4.273   5.196 -1.0531  0.3117  1.5248
  108OSM   C14F11089   6.797   4.362   5.205  0.6603 -0.0108 -0.2415
  108OSM   H14F11090   6.885   4.376   5.271  1.1194  0.4921 -0.9412
  108OSM   H14G11091   6.775   4.466   5.173 -0.4924  0.0692  0.7471
  108OSM   C15F11092   6.829   4.279   5.082  0.0660 -0.0795  0.2284
  108OSM   H15F11093   6.744   4.249   5.018 -0.1156  1.1696 -0.1447
  108OSM   H15G11094   6.856   4.182   5.129 -1.8708  0.5672  2.8974
  108OSM   C16F11095   6.950   4.337   5.001  0.0543  0.0536  0.2128
  108OSM   H16F11096   7.035   4.354   5.070  0.3725  1.1546 -0.4266
  108OSM   H16G11097   6.916   4.434   4.960 -0.3101 -0.1834 -0.0582
  108OSM   C17F11098   6.992   4.240   4.888  0.3515  0.4513 -0.5315
  108OSM   H17F11099   6.906   4.217   4.821 -1.4372  1.8079  1.1791
  108OSM   H17G11100   7.023   4.146   4.937 -3.1698  0.1909  1.4777
  108OSM   C18F11101   7.111   4.300   4.808 -0.1424 -0.0446  0.4842
  108OSM   H18F11102   7.208   4.298   4.862 -0.1793  0.4902  0.5700
  108OSM   H18G11103   7.085   4.401   4.772  1.0755 -0.6756 -2.4288
  108OSM   H18H11104   7.128   4.234   4.721  2.0695  0.0829  0.7583
  109OSM      N11105   5.208   2.953   7.058 -0.5410 -0.0790 -0.9073
  109OSM    C1511106   5.267   2.907   6.931 -0.5084 -0.0949 -0.0681
  109OSM   H15A11107   5.187   2.891   6.860  1.3025 -2.1447 -1.7965
  109OSM   H15B11108   5.319   2.815   6.952 -1.8776 -0.4883  1.9332
  109OSM   H15C11109   5.332   2.982   6.891 -1.6172  0.1089 -1.5687
  109OSM    C1411110   5.114   2.856   7.121 -0.0686 -0.9176  0.0056
  109OSM   H14A11111   5.027   2.859   7.056  0.7480  2.1583 -1.1302
  109OSM   H14B11112   5.087   2.892   7.219  0.9750 -0.0054 -0.0248
  109OSM   H14C11113   5.153   2.755   7.127  0.6454 -0.5738  1.5245
  109OSM    C1311114   5.306   2.980   7.163  0.3753 -0.2244  0.4544
  109OSM   H13A11115   5.274   3.033   7.252  1.3618  0.2293  0.5603
  109OSM   H13B11116   5.398   3.025   7.128  0.0651 -0.2236 -0.3888
  109OSM   H13C11117   5.344   2.882   7.188 -1.8933 -1.9927 -2.5074
  109OSM    C1211118   5.149   3.089   7.032 -0.4001 -0.0720  0.1622
  109OSM   H12A11119   5.231   3.151   6.999  0.3132 -1.6609 -1.1843
  109OSM   H12B11120   5.117   3.121   7.131 -1.1654  2.4662 -0.8161
  109OSM    C1111121   5.025   3.110   6.940 -0.3682 -0.2181 -0.2211
  109OSM   H11A11122   5.041   3.085   6.833 -2.2637 -1.2601 -0.2947
  109OSM   H11B11123   4.995   3.216   6.951  0.0105 -0.2974  2.2285
  109OSM      P11124   4.803   3.090   7.074  0.2564 -0.1284  0.0107
  109OSM    O1311125   4.759   2.987   7.166  0.2701  0.2688  0.0567
  109OSM    O1411126   4.839   3.216   7.137 -0.4018 -0.1546  0.0859
  109OSM    O1111127   4.694   3.120   6.963 -0.6525  0.1289 -0.0378
  109OSM    O1211128   4.922   3.028   6.988  0.8839 -0.5442  0.4518
  109OSM    C1S11129   4.716   3.123   6.824 -0.1033  0.6472  0.0317
  109OSM    H1S11130   4.815   3.165   6.797 -0.6300  0.4154 -2.5044
  109OSM    H1T11131   4.655   3.207   6.784 -1.7453 -0.7416 -0.5047
  109OSM     NF11132   4.662   3.010   6.612 -0.4518 -0.0086 -0.4705
  109OSM    HNF11133   4.565   3.025   6.594 -0.0537  2.4753 -0.8629
  109OSM    C2S11134   4.686   2.987   6.749  0.0375  0.2336 -0.2683
  109OSM    H2S11135   4.771   2.916   6.758 -1.0388 -0.9408  1.1012
  109OSM    C3S11136   4.576   2.911   6.830 -0.2127  0.3654 -0.4440
  109OSM    H3S11137   4.488   2.978   6.843  0.6420  1.3920  0.2476
  109OSM     O311138   4.607   2.857   6.961 -0.0707  0.1428  0.8008
  109OSM    HO311139   4.682   2.914   6.976  1.8696 -1.5174 -1.6569
  109OSM    C4S11140   4.550   2.788   6.760  0.6409 -0.5686  0.0293
  109OSM    H4S11141   4.638   2.724   6.744  0.2625 -0.5242 -2.7979
  109OSM    C5S11142   4.441   2.755   6.692 -0.5468 -0.1693  0.0633
  109OSM    H5S11143   4.361   2.831   6.692 -0.8061 -0.4379 -0.3050
  109OSM    C6S11144   4.430   2.639   6.590 -0.0170 -0.3928  0.2588
  109OSM    H6S11145   4.336   2.580   6.602 -0.7376  0.7431  0.3003
  109OSM    H6T11146   4.524   2.580   6.594  0.9311  0.5210 -3.8968
  109OSM    C7S11147   4.421   2.704   6.450 -0.9222  0.1371 -0.3626
  109OSM    H7S11148   4.500   2.781   6.446 -0.8000  0.5059  3.9165
  109OSM    H7T11149   4.323   2.756   6.459  0.2798  2.7230 -1.3238
  109OSM    C8S11150   4.431   2.601   6.337 -0.6632  0.8882 -0.1611
  109OSM    H8S11151   4.330   2.555   6.332 -0.5875  0.5059  1.4529
  109OSM    H8T11152   4.500   2.515   6.349 -1.0638  0.2875 -1.7510
  109OSM    C9S11153   4.459   2.677   6.214  0.0828  0.4661 -0.7515
  109OSM    H9S11154   4.554   2.735   6.222  0.1545  0.0410  2.4755
  109OSM    H9T11155   4.387   2.761   6.206  0.6278  1.1192  0.8865
  109OSM   C10S11156   4.466   2.588   6.089 -0.0451 -0.4373 -0.7559
  109OSM   H10S11157   4.517   2.493   6.118 -0.8112 -0.1199  1.9668
  109OSM   H10T11158   4.540   2.638   6.023 -0.5671 -0.0684 -1.0717
  109OSM   C11S11159   4.338   2.559   6.014 -0.4438 -0.5938 -1.2295
  109OSM   H11S11160   4.276   2.650   5.999 -1.9869 -0.6163  3.4327
  109OSM   H11T11161   4.285   2.500   6.092  1.8044  1.3819  2.0586
  109OSM   C12S11162   4.362   2.484   5.886  0.4249  0.0372 -0.4174
  109OSM   H12S11163   4.276   2.418   5.865 -0.5859  1.4256 -0.8255
  109OSM   H12T11164   4.461   2.435   5.894  1.3866  2.0531  0.9262
  109OSM   C13S11165   4.364   2.580   5.764 -0.3460 -0.7507 -0.0632
  109OSM   H13S11166   4.446   2.655   5.771  0.1019 -1.2280 -0.1382
  109OSM   H13T11167   4.268   2.635   5.778 -0.6079 -1.3584  0.5755
  109OSM   C14S11168   4.364   2.505   5.630 -0.8539  0.2627  0.0896
  109OSM   H14S11169   4.310   2.408   5.637 -0.2814 -0.0605  0.0931
  109OSM   H14T11170   4.464   2.463   5.606 -0.9162  0.0699  0.1699
  109OSM   C15S11171   4.322   2.589   5.511  0.5676  0.3516  0.1033
  109OSM   H15S11172   4.378   2.684   5.503  1.0766  0.0163 -0.3879
  109OSM   H15T11173   4.213   2.608   5.523  0.7276  3.2140 -2.0153
  109OSM   C16S11174   4.345   2.515   5.374 -0.0271  0.1155 -0.4762
  109OSM   H16S11175   4.292   2.418   5.375 -1.4911  0.8637 -1.4115
  109OSM   H16T11176   4.452   2.488   5.364  0.0650  0.1315  0.4129
  109OSM   C17S11177   4.308   2.598   5.258  0.2845  0.2087  0.7226
  109OSM   H17S11178   4.357   2.696   5.278  1.1449 -0.2279  0.8035
  109OSM   H17T11179   4.199   2.617   5.263 -0.6245 -4.2752  1.5933
  109OSM   C18S11180   4.356   2.546   5.124 -0.2562  0.7200 -0.0076
  109OSM   H18S11181   4.466   2.538   5.116 -0.0761  0.2434  2.2827
  109OSM   H18T11182   4.332   2.617   5.042 -2.7205 -0.6206 -0.5376
  109OSM   H18U11183   4.305   2.451   5.096  0.1238  0.0134  1.6160
  109OSM    C1F11184   4.750   3.038   6.515 -0.7426  0.5544  0.1039
  109OSM     OF11185   4.869   3.029   6.532 -0.1900  0.1022 -0.5397
  109OSM    C2F11186   4.698   3.073   6.372 -0.2595  0.1924  0.5674
  109OSM    H2F11187   4.687   3.183   6.379 -0.5327  0.1871  0.2526
  109OSM    H2G11188   4.597   3.027   6.365 -0.0479 -0.2626  0.4521
  109OSM    C3F11189   4.810   3.054   6.264 -0.1449 -0.6019 -0.2985
  109OSM    H3F11190   4.861   2.956   6.271  1.7040  0.3589  0.3947
  109OSM    H3G11191   4.889   3.126   6.295 -0.3624 -1.0000  1.2812
  109OSM    C4F11192   4.770   3.082   6.111 -0.6689 -0.0229 -0.4168
  109OSM    H4F11193   4.732   3.186   6.112  0.0119  0.2309  1.3524
  109OSM    H4G11194   4.683   3.017   6.086 -1.0196  0.6935 -1.1024
  109OSM    C5F11195   4.890   3.071   6.020  0.2127  0.0437  0.7937
  109OSM    H5F11196   4.951   2.983   6.048  0.0711 -0.5550 -0.6583
  109OSM    H5G11197   4.944   3.168   6.032  0.2217  0.3331 -1.2267
  109OSM    C6F11198   4.862   3.082   5.866 -0.2506  0.3903 -0.8002
  109OSM    H6F11199   4.951   3.048   5.809 -0.5712 -2.4476  0.2353
  109OSM    H6G11200   4.838   3.184   5.829 -2.4800  0.2158 -0.0278
  109OSM    C7F11201   4.742   3.009   5.812  0.1748  0.1932 -0.5369
  109OSM    H7F11202   4.651   3.068   5.836  0.5512  0.5833 -0.0288
  109OSM    H7G11203   4.734   2.914   5.870  2.8255 -0.9973 -1.9421
  109OSM    C8F11204   4.756   2.983   5.664  0.6038 -0.3965  0.8001
  109OSM    H8F11205   4.844   2.918   5.644  0.3790 -0.5799  0.3972
  109OSM    H8G11206   4.774   3.078   5.609 -1.9654  0.0291  0.5500
  109OSM    C9F11207   4.636   2.911   5.624 -0.1505 -0.0293 -0.2515
  109OSM    H9F11208   4.626   2.815   5.678 -0.5628  0.5348  0.6957
  109OSM   C10F11209   4.554   2.936   5.518 -0.4868 -0.6469 -0.1134
  109OSM   H10F11210   4.465   2.870   5.519 -1.6528  0.8348  2.3220
  109OSM   C11F11211   4.547   3.055   5.430 -0.4929  0.6692  0.0905
  109OSM   H11F11212   4.590   3.144   5.481 -0.5316  0.8010 -0.1071
  109OSM   H11G11213   4.443   3.093   5.415 -0.1258  1.6212 -0.0933
  109OSM   C12F11214   4.623   3.038   5.299 -0.2782 -0.2593 -0.2507
  109OSM   H12F11215   4.730   3.017   5.319  0.5904  0.2690 -3.6536
  109OSM   H12G11216   4.620   3.136   5.247  1.0186 -0.5021 -0.8328
  109OSM   C13F11217   4.574   2.919   5.217  0.6300  0.5079 -0.2412
  109OSM   H13F11218   4.467   2.929   5.189  1.0983  0.9253 -2.0487
  109OSM   H13G11219   4.571   2.824   5.274  0.6717  1.7456  1.9291
  109OSM   C14F11220   4.656   2.901   5.092 -0.2526 -0.8589  0.6602
  109OSM   H14F11221   4.615   2.822   5.026 -0.1427  1.0449 -1.8276
  109OSM   H14G11222   4.759   2.863   5.105  0.0707  0.3932  2.1320
  109OSM   C15F11223   4.664   3.031   5.008  0.8576  0.2854  0.1591
  109OSM   H15F11224   4.700   2.996   4.909  0.7765  0.2891  0.1284
  109OSM   H15G11225   4.742   3.099   5.050 -0.1468  1.3842  0.2957
  109OSM   C16F11226   4.532   3.092   4.967 -0.0186  0.5262  0.2054
  109OSM   H16F11227   4.484   3.169   5.031 -2.7886 -0.5693 -0.4007
  109OSM   H16G11228   4.463   3.005   4.965 -1.3695  1.5218  1.5470
  109OSM   C17F11229   4.537   3.155   4.826  0.7043  0.4331 -0.7252
  109OSM   H17F11230   4.569   3.082   4.749  2.7471 -0.5868  1.0114
  109OSM   H17G11231   4.617   3.232   4.824 -0.5487  1.9002  1.2427
  109OSM   C18F11232   4.414   3.232   4.786  0.2980  0.2370  0.1732
  109OSM   H18F11233   4.366   3.289   4.868 -0.1573  0.5371 -0.2933
  109OSM   H18G11234   4.344   3.160   4.738  1.0925  0.2750 -1.0931
  109OSM   H18H11235   4.440   3.309   4.711  1.2286 -1.0555 -0.8838
  110OSM      N11236   1.980   6.135   6.903  0.4320 -0.0735 -0.4039
  110OSM    C1511237   2.106   6.074   6.867 -0.2109  0.1315  0.2162
  110OSM   H15A11238   2.134   6.114   6.771  1.3442 -0.6568  0.3137
  110OSM   H15B11239   2.104   5.966   6.859 -1.0371  0.0737  0.9787
  110OSM   H15C11240   2.192   6.096   6.928 -0.6277  0.7929  0.5770
  110OSM    C1411241   1.944   6.100   7.042  0.1047  0.0646  0.1031
  110OSM   H14A11242   2.031   6.106   7.106 -0.4283  0.5218  0.7886
  110OSM   H14B11243   1.898   6.002   7.041  0.6443 -0.2027 -1.5566
  110OSM   H14C11244   1.868   6.166   7.079 -2.2777 -2.9508  0.9967
  110OSM    C1311245   2.001   6.282   6.889  0.5146  0.1169  0.7333
  110OSM   H13A11246   1.903   6.324   6.909  0.5691 -0.2816  1.9014
  110OSM   H13B11247   2.020   6.298   6.783  0.2950 -3.2378  0.0689
  110OSM   H13C11248   2.079   6.324   6.951  0.9044 -2.4352  2.1215
  110OSM    C1211249   1.868   6.084   6.804  0.4356  0.5396  0.0337
  110OSM   H12A11250   1.773   6.127   6.829 -1.9171 -2.7688 -2.3233
  110OSM   H12B11251   1.849   5.980   6.821 -0.0342  1.0066  2.7353
  110OSM    C1111252   1.891   6.088   6.645  1.1362 -0.6659 -0.0340
  110OSM   H11A11253   1.801   6.030   6.612  0.8976 -1.4034  1.8014
  110OSM   H11B11254   1.979   6.028   6.615  0.1469 -2.5654  0.6587
  110OSM      P11255   1.750   6.295   6.578 -0.0300  0.3511  0.2339
  110OSM    O1311256   1.649   6.197   6.531  0.2246 -0.5524 -0.1688
  110OSM    O1411257   1.722   6.360   6.711 -0.4410  0.0635  1.0697
  110OSM    O1111258   1.774   6.401   6.470  0.0291 -0.1257 -0.7032
  110OSM    O1211259   1.891   6.224   6.597 -0.2320  0.0258 -0.0524
  110OSM    C1S11260   1.891   6.493   6.466 -0.1241  0.0210 -0.7194
  110OSM    H1S11261   1.980   6.456   6.522 -1.2934  0.0853  1.2593
  110OSM    H1T11262   1.859   6.586   6.516  0.7439 -1.0048  1.9001
  110OSM     NF11263   2.067   6.607   6.326  0.3128 -1.0175 -0.9709
  110OSM    HNF11264   2.040   6.697   6.361  0.2056 -2.0632  1.9180
  110OSM    C2S11265   1.952   6.513   6.317 -0.0394  0.3626  0.1827
  110OSM    H2S11266   1.992   6.413   6.292 -0.1209  0.2351  0.5474
  110OSM    C3S11267   1.837   6.553   6.220 -0.8909 -0.2079  0.1709
  110OSM    H3S11268   1.812   6.654   6.259 -0.6632  0.0668 -0.3829
  110OSM     O311269   1.719   6.473   6.225 -0.1560 -0.5098  0.5316
  110OSM    HO311270   1.730   6.424   6.307  0.8867 -1.2280 -0.0045
  110OSM    C4S11271   1.886   6.571   6.073  0.3870  0.1416  0.2265
  110OSM    H4S11272   1.934   6.480   6.036  1.5716  0.4488  0.9686
  110OSM    C5S11273   1.863   6.678   5.992  0.1159  0.0948  0.3584
  110OSM    H5S11274   1.805   6.763   6.029  1.3737  0.7964  0.7660
  110OSM    C6S11275   1.926   6.670   5.850  0.1735  0.4944  1.0781
  110OSM    H6S11276   1.965   6.570   5.822  1.1892  1.3541 -0.7466
  110OSM    H6T11277   2.010   6.742   5.847 -0.0646  0.8483  2.4807
  110OSM    C7S11278   1.811   6.694   5.746 -0.4759 -0.3123  0.2540
  110OSM    H7S11279   1.863   6.689   5.648 -0.4141 -3.1058  0.3261
  110OSM    H7T11280   1.769   6.797   5.752 -3.3043 -1.3569  0.1250
  110OSM    C8S11281   1.704   6.585   5.730  0.2237 -0.4888 -0.0296
  110OSM    H8S11282   1.643   6.579   5.823 -2.3873  2.3856 -1.3768
  110OSM    H8T11283   1.758   6.488   5.727  0.1953 -0.5286  0.6391
  110OSM    C9S11284   1.612   6.591   5.609  0.6435  0.5780 -0.6086
  110OSM    H9S11285   1.540   6.675   5.622  1.2184  0.9945 -0.0143
  110OSM    H9T11286   1.555   6.496   5.600  2.2993 -0.5994  0.6355
  110OSM   C10S11287   1.680   6.608   5.469  0.2850  0.6947  0.2236
  110OSM   H10S11288   1.755   6.525   5.466 -0.2352  0.2653 -1.5886
  110OSM   H10T11289   1.732   6.705   5.453 -0.0089  0.6970 -0.7796
  110OSM   C11S11290   1.578   6.574   5.357 -0.3700 -0.0649 -0.7276
  110OSM   H11S11291   1.492   6.642   5.373 -0.4030 -0.0156 -1.1032
  110OSM   H11T11292   1.547   6.471   5.382  0.6459 -0.9223 -2.7571
  110OSM   C12S11293   1.616   6.577   5.210 -0.3188 -0.4563 -0.4401
  110OSM   H12S11294   1.684   6.496   5.177  0.3876 -0.5898  1.2151
  110OSM   H12T11295   1.674   6.670   5.191 -2.3699  1.0723  0.4177
  110OSM   C13S11296   1.485   6.574   5.126 -0.1054  0.3043 -0.2769
  110OSM   H13S11297   1.434   6.672   5.131  2.9086  2.0859 -1.7390
  110OSM   H13T11298   1.424   6.489   5.165 -0.2917  2.2173  4.1239
  110OSM   C14S11299   1.517   6.540   4.975  0.9003 -0.5422 -0.2723
  110OSM   H14S11300   1.566   6.441   4.961 -1.2408 -1.7066 -0.0826
  110OSM   H14T11301   1.583   6.620   4.938  1.2674 -0.5441  0.3624
  110OSM   C15S11302   1.400   6.535   4.875 -0.9313  0.4579 -0.3343
  110OSM   H15S11303   1.332   6.456   4.913  0.9046 -0.2498  1.7446
  110OSM   H15T11304   1.448   6.497   4.782  0.0663 -0.9860  0.7154
  110OSM   C16S11305   1.324   6.668   4.850  0.0841  0.1064 -0.3193
  110OSM   H16S11306   1.386   6.752   4.812 -0.8559  2.8028  3.4403
  110OSM   H16T11307   1.306   6.715   4.949  2.3370 -0.7867  0.5772
  110OSM   C17S11308   1.196   6.641   4.762 -0.4279  0.1888  0.1186
  110OSM   H17S11309   1.139   6.737   4.765 -0.7112  0.0308 -0.1562
  110OSM   H17T11310   1.131   6.570   4.817  0.5626 -0.8781 -0.0531
  110OSM   C18S11311   1.212   6.606   4.616  0.1853  0.1989 -0.6156
  110OSM   H18S11312   1.270   6.515   4.593 -1.1365 -0.5475 -1.1425
  110OSM   H18T11313   1.258   6.688   4.558  0.5424  0.2868 -0.2148
  110OSM   H18U11314   1.110   6.595   4.573 -0.5334  2.5815  0.3120
  110OSM    C1F11315   2.187   6.565   6.351  0.8711 -0.4616 -0.3697
  110OSM     OF11316   2.219   6.450   6.341 -0.4244 -0.3409  0.1372
  110OSM    C2F11317   2.282   6.664   6.404 -0.7481 -0.1868  0.0725
  110OSM    H2F11318   2.296   6.646   6.513 -1.5395  0.1662  0.2406
  110OSM    H2G11319   2.234   6.762   6.384  0.2712 -0.0122 -1.6631
  110OSM    C3F11320   2.419   6.660   6.346 -0.8949 -0.1932  0.0399
  110OSM    H3F11321   2.469   6.564   6.370 -0.9167 -0.7539 -1.9662
  110OSM    H3G11322   2.488   6.740   6.382  0.5543 -0.3629 -2.1333
  110OSM    C4F11323   2.429   6.659   6.187  0.0970 -0.1189  0.1605
  110OSM    H4F11324   2.367   6.572   6.157 -0.1631  0.0358  0.2481
  110OSM    H4G11325   2.534   6.632   6.161 -0.3061 -0.1543 -1.5353
  110OSM    C5F11326   2.385   6.786   6.114  0.5408 -0.6366 -0.4861
  110OSM    H5F11327   2.443   6.870   6.157  0.2342 -0.7348  0.1327
  110OSM    H5G11328   2.279   6.816   6.130  0.5790 -0.0739 -1.2448
  110OSM    C6F11329   2.412   6.780   5.966  0.0624  0.1654  0.2548
  110OSM    H6F11330   2.518   6.780   5.934  0.0632  1.8094  0.1984
  110OSM    H6G11331   2.374   6.870   5.913  0.8610 -0.4564 -1.4331
  110OSM    C7F11332   2.348   6.656   5.895 -0.2571  0.2587  0.1305
  110OSM    H7F11333   2.237   6.652   5.908 -0.6337  0.2480 -2.4421
  110OSM    H7G11334   2.397   6.572   5.948  2.4770  2.8335  2.0248
  110OSM    C8F11335   2.353   6.654   5.740  0.1244 -0.1228 -0.2018
  110OSM    H8F11336   2.338   6.553   5.696  2.7190 -0.4645 -0.4651
  110OSM    H8G11337   2.455   6.687   5.710 -0.3143  0.7842 -0.7266
  110OSM    C9F11338   2.264   6.755   5.681 -0.4013 -0.2070  0.6853
  110OSM    H9F11339   2.230   6.839   5.743  0.8545  0.6007  0.3157
  110OSM   C10F11340   2.205   6.745   5.562 -0.1664  0.1991 -0.0393
  110OSM   H10F11341   2.137   6.826   5.533  0.9027  1.6344  1.2970
  110OSM   C11F11342   2.228   6.643   5.446 -0.7485  0.2436  0.5463
  110OSM   H11F11343   2.184   6.545   5.475 -1.1428  0.6595  1.3728
  110OSM   H11G11344   2.338   6.630   5.437 -0.8715 -0.3661 -0.1842
  110OSM   C12F11345   2.172   6.696   5.316 -0.4281 -0.4361  0.3923
  110OSM   H12F11346   2.213   6.800   5.308  1.1877 -1.1847 -2.3977
  110OSM   H12G11347   2.065   6.707   5.343 -0.1014  0.6659  1.3883
  110OSM   C13F11348   2.201   6.613   5.186  0.7543 -0.3139  0.3281
  110OSM   H13F11349   2.168   6.507   5.193 -1.7495  0.2187 -1.6069
  110OSM   H13G11350   2.311   6.620   5.177  0.5153  2.8532 -1.8409
  110OSM   C14F11351   2.130   6.680   5.070 -0.0482 -0.3255  0.0341
  110OSM   H14F11352   2.187   6.670   4.975 -1.9628  0.8825 -1.3217
  110OSM   H14G11353   2.120   6.790   5.085  0.7053 -0.3783  1.0357
  110OSM   C15F11354   1.986   6.626   5.053  0.5017  0.0810  0.4364
  110OSM   H15F11355   1.939   6.654   5.150 -2.2935 -2.8372  0.0956
  110OSM   H15G11356   1.981   6.516   5.039  0.2323  0.3518 -2.0115
  110OSM   C16F11357   1.901   6.699   4.948  0.4898  0.0341 -0.0882
  110OSM   H16F11358   1.926   6.806   4.931  1.1161 -0.2949 -1.4276
  110OSM   H16G11359   1.798   6.693   4.987  1.3930  1.6999  2.8543
  110OSM   C17F11360   1.911   6.629   4.815 -0.7609  0.0575 -0.1467
  110OSM   H17F11361   1.893   6.520   4.820 -0.8846 -0.1230 -2.9993
  110OSM   H17G11362   2.015   6.640   4.777  0.6705  2.7264  3.8394
  110OSM   C18F11363   1.824   6.686   4.705 -0.3085  0.9904  0.7722
  110OSM   H18F11364   1.793   6.789   4.732 -0.3792  1.0411  0.5017
  110OSM   H18G11365   1.734   6.624   4.684 -0.3449  0.7380  1.6351
  110OSM   H18H11366   1.878   6.699   4.609 -2.2531  0.6156 -0.4382
  111OSM      N11367   3.036   0.241   7.244 -0.4229  0.2984  0.6167
  111OSM    C1511368   2.977   0.161   7.357  0.1768  0.3560 -0.4595
  111OSM   H15A11369   2.969   0.227   7.442 -0.6766 -0.5344  0.1720
  111OSM   H15B11370   3.034   0.073   7.382  1.6356  1.0725 -1.1159
  111OSM   H15C11371   2.877   0.129   7.332 -0.3248  2.5162 -1.4411
  111OSM    C1411372   3.174   0.279   7.281 -0.0170  0.0412 -0.1460
  111OSM   H14A11373   3.240   0.194   7.282 -0.9069 -0.6674  0.1499
  111OSM   H14B11374   3.185   0.320   7.380  1.2826  1.3779 -0.8070
  111OSM   H14C11375   3.214   0.355   7.215 -1.0610  1.6221  0.9729
  111OSM    C1311376   3.050   0.144   7.129 -0.6096  0.6762 -1.0776
  111OSM   H13A11377   3.110   0.195   7.055  0.2091  1.2888 -0.0160
  111OSM   H13B11378   2.953   0.119   7.089 -0.7863  0.2721 -0.4109
  111OSM   H13C11379   3.107   0.053   7.146  0.5872  1.6938  0.6956
  111OSM    C1211380   2.947   0.359   7.202 -0.3279 -0.3954 -0.1230
  111OSM   H12A11381   2.996   0.414   7.123 -0.4267 -1.3990 -0.8936
  111OSM   H12B11382   2.925   0.432   7.279  1.8906  0.6518 -0.4075
  111OSM    C1111383   2.813   0.314   7.135 -0.6943  0.1738  0.2615
  111OSM   H11A11384   2.837   0.255   7.044 -0.8482  1.0120 -0.3363
  111OSM   H11B11385   2.769   0.414   7.114  0.1688  0.6087  0.4455
  111OSM      P11386   2.601   0.179   7.206  0.2074 -0.2882  0.1817
  111OSM    O1311387   2.629   0.041   7.190 -0.1585  0.9714 -0.0602
  111OSM    O1411388   2.510   0.221   7.315  0.2423 -0.0258  0.2179
  111OSM    O1111389   2.564   0.240   7.068  0.3774  0.0594 -0.3231
  111OSM    O1211390   2.742   0.249   7.237 -0.0780  0.1326 -0.4166
  111OSM    C1S11391   2.492   0.363   7.051  0.4612  0.1458 -0.0261
  111OSM    H1S11392   2.547   0.443   7.106 -0.4989  1.0605 -0.3697
  111OSM    H1T11393   2.390   0.343   7.091  0.8001 -2.0841 -0.1227
  111OSM     NF11394   2.462   0.543   6.871  0.2986 -0.3124 -0.0093
  111OSM    HNF11395   2.366   0.570   6.875  0.1676 -0.8625  1.2382
  111OSM    C2S11396   2.504   0.407   6.898  0.1844  0.7866  0.2365
  111OSM    H2S11397   2.612   0.396   6.874  0.1263 -2.0557  0.9175
  111OSM    C3S11398   2.428   0.305   6.802  0.3814 -0.1373 -0.1578
  111OSM    H3S11399   2.330   0.307   6.853  0.8687  0.4036  0.8002
  111OSM     O311400   2.471   0.173   6.803 -0.5297 -0.6832  0.3057
  111OSM    HO311401   2.519   0.173   6.886 -1.2776  5.6006  1.2330
  111OSM    C4S11402   2.406   0.355   6.655 -0.2301 -0.1392 -0.0665
  111OSM    H4S11403   2.321   0.421   6.631 -1.5948 -2.1213 -1.0130
  111OSM    C5S11404   2.484   0.327   6.553 -0.5508  0.4240  0.1432
  111OSM    H5S11405   2.575   0.270   6.576 -0.3268  0.7537  0.0841
  111OSM    C6S11406   2.481   0.379   6.408  0.3569 -0.3425  0.1240
  111OSM    H6S11407   2.445   0.299   6.339 -1.7959  0.7648 -0.1434
  111OSM    H6T11408   2.581   0.405   6.370  0.4911 -0.8210  0.1445
  111OSM    C7S11409   2.371   0.484   6.379 -1.0076  0.5432 -0.1375
  111OSM    H7S11410   2.369   0.555   6.464 -1.8781 -0.0066  0.3191
  111OSM    H7T11411   2.268   0.443   6.383 -0.6136 -0.4011  1.4416
  111OSM    C8S11412   2.402   0.570   6.258 -0.7047 -0.4521 -0.4507
  111OSM    H8S11413   2.509   0.602   6.257 -0.6344 -0.5052  1.2923
  111OSM    H8T11414   2.334   0.656   6.272 -0.8100 -0.7466  1.0633
  111OSM    C9S11415   2.383   0.494   6.131 -0.1581  0.2124  0.0612
  111OSM    H9S11416   2.274   0.473   6.124 -0.5046  1.2486  1.7620
  111OSM    H9T11417   2.446   0.403   6.137  2.1606  1.8023  1.2962
  111OSM   C10S11418   2.422   0.568   6.005  0.8669  0.5988  0.5512
  111OSM   H10S11419   2.533   0.572   5.999  0.9077  0.8871  1.4209
  111OSM   H10T11420   2.380   0.670   6.021 -1.5586  0.0453 -1.5673
  111OSM   C11S11421   2.359   0.510   5.878 -1.0159 -0.5357 -0.4082
  111OSM   H11S11422   2.251   0.534   5.884 -0.5209  2.0349 -0.6048
  111OSM   H11T11423   2.376   0.400   5.886  1.6527 -0.1069  0.9635
  111OSM   C12S11424   2.433   0.547   5.747  0.6355 -0.0330 -0.0886
  111OSM   H12S11425   2.540   0.540   5.778  0.0411 -1.1071  1.8679
  111OSM   H12T11426   2.411   0.652   5.720 -0.1952  0.0627  0.8976
  111OSM   C13S11427   2.390   0.457   5.632  0.2577  0.0790 -0.0971
  111OSM   H13S11428   2.280   0.470   5.627  0.0604  0.0329  2.6862
  111OSM   H13T11429   2.396   0.351   5.664 -0.5071 -0.2764 -1.0773
  111OSM   C14S11430   2.465   0.478   5.499  0.3829  0.1689  0.6317
  111OSM   H14S11431   2.435   0.386   5.445 -0.1228 -0.9718  2.7776
  111OSM   H14T11432   2.575   0.472   5.516  0.5979  3.8821  1.4400
  111OSM   C15S11433   2.430   0.606   5.424 -0.0839 -0.8141  0.6098
  111OSM   H15S11434   2.462   0.688   5.492  2.1372 -1.7087  0.7390
  111OSM   H15T11435   2.322   0.618   5.400  0.1399  3.1766  0.9134
  111OSM   C16S11436   2.512   0.626   5.300 -0.4347  0.1042  0.9312
  111OSM   H16S11437   2.488   0.544   5.230  1.0754 -2.7274  3.4552
  111OSM   H16T11438   2.622   0.616   5.313 -0.1787 -0.3235 -1.2236
  111OSM   C17S11439   2.488   0.759   5.231 -0.1773  0.3727 -0.1619
  111OSM   H17S11440   2.531   0.832   5.303 -0.8295  0.0772  0.5522
  111OSM   H17T11441   2.379   0.780   5.224 -0.1769  1.4579  2.0940
  111OSM   C18S11442   2.548   0.782   5.086 -0.1676 -0.5086  0.7329
  111OSM   H18S11443   2.652   0.745   5.083  0.0815  0.2597 -1.3574
  111OSM   H18T11444   2.562   0.889   5.060  0.7309 -0.9988 -0.8876
  111OSM   H18U11445   2.489   0.735   5.004  0.7795  0.7314 -0.6921
  111OSM    C1F11446   2.546   0.644   6.906  0.5379 -0.4318 -0.4008
  111OSM     OF11447   2.650   0.626   6.972 -0.1778  0.0881 -0.4007
  111OSM    C2F11448   2.489   0.778   6.885 -0.0660 -0.0591 -0.6661
  111OSM    H2F11449   2.512   0.830   6.981 -0.2026  3.2083 -2.2587
  111OSM    H2G11450   2.379   0.777   6.871 -0.0810 -0.8612 -0.5217
  111OSM    C3F11451   2.570   0.852   6.778  0.8199  0.8464 -0.7718
  111OSM    H3F11452   2.678   0.841   6.803  0.8752  0.0748 -1.3132
  111OSM    H3G11453   2.540   0.959   6.784 -1.2157  0.2496  1.2560
  111OSM    C4F11454   2.544   0.798   6.640  0.2560 -0.6182 -0.1311
  111OSM    H4F11455   2.435   0.793   6.619 -0.0267 -1.1581  1.3515
  111OSM    H4G11456   2.583   0.695   6.628  0.2469 -0.6255 -0.0975
  111OSM    C5F11457   2.616   0.891   6.541 -0.5080  0.7736  0.3483
  111OSM    H5F11458   2.724   0.890   6.567  0.0008 -0.9366 -1.5447
  111OSM    H5G11459   2.578   0.995   6.548 -2.3374  0.3063 -1.4449
  111OSM    C6F11460   2.618   0.849   6.387  0.5941 -0.1828  0.1124
  111OSM    H6F11461   2.519   0.873   6.342  1.2155  0.4958 -0.9383
  111OSM    H6G11462   2.629   0.740   6.370 -1.3757 -0.4611  0.3641
  111OSM    C7F11463   2.730   0.914   6.304 -0.7040 -0.0323  0.5562
  111OSM    H7F11464   2.828   0.870   6.332  0.3819  2.6925  1.3040
  111OSM    H7G11465   2.735   1.020   6.336 -0.2900  0.4759 -1.0708
  111OSM    C8F11466   2.719   0.914   6.151 -0.4124  0.5286  0.9585
  111OSM    H8F11467   2.696   0.807   6.127  0.4349  0.4104  0.6616
  111OSM    H8G11468   2.821   0.941   6.118 -0.6004  2.8906  2.1099
  111OSM    C9F11469   2.624   1.016   6.096  0.1296  0.3220  0.0371
  111OSM    H9F11470   2.598   1.099   6.163  0.2437 -1.5039  2.4985
  111OSM   C10F11471   2.567   1.015   5.976  0.5795 -0.8786 -0.2670
  111OSM   H10F11472   2.486   1.087   5.957  0.3211 -1.4194 -1.3051
  111OSM   C11F11473   2.588   0.922   5.858  0.4017  0.3400 -0.3952
  111OSM   H11F11474   2.495   0.867   5.832  0.7441  0.6425 -2.4373
  111OSM   H11G11475   2.664   0.847   5.887 -0.5701 -0.1888  0.9064
  111OSM   C12F11476   2.636   0.989   5.727 -0.0385  0.9233 -0.2710
  111OSM   H12F11477   2.741   1.018   5.753  0.0417  0.4888 -0.0976
  111OSM   H12G11478   2.571   1.074   5.699 -1.1702 -0.0047 -0.5158
  111OSM   C13F11479   2.643   0.899   5.601 -0.2633 -0.4078  0.2106
  111OSM   H13F11480   2.547   0.911   5.546  0.6401 -2.9700 -2.1441
  111OSM   H13G11481   2.646   0.791   5.627  2.9700 -0.6646 -0.7826
  111OSM   C14F11482   2.756   0.928   5.507  0.0768 -0.7302 -0.3782
  111OSM   H14F11483   2.778   0.850   5.432  0.3228 -0.6655 -0.3726
  111OSM   H14G11484   2.840   0.954   5.574 -2.6802  2.3328  2.2769
  111OSM   C15F11485   2.717   1.053   5.424 -0.2383  0.3841  0.3584
  111OSM   H15F11486   2.713   1.147   5.483 -2.6484  0.0709  0.8053
  111OSM   H15G11487   2.624   1.030   5.369  1.1496  0.9097 -2.3843
  111OSM   C16F11488   2.813   1.087   5.305 -0.5676  0.1000 -0.4166
  111OSM   H16F11489   2.813   0.998   5.239 -0.6993 -0.9261  0.9377
  111OSM   H16G11490   2.916   1.105   5.344 -1.5008  2.8483  1.0329
  111OSM   C17F11491   2.782   1.216   5.233 -0.1131 -0.3084 -0.0185
  111OSM   H17F11492   2.786   1.300   5.307  2.1727 -0.8379  0.5292
  111OSM   H17G11493   2.679   1.206   5.192 -1.1465  3.5182  1.1270
  111OSM   C18F11494   2.864   1.236   5.108  0.2040  0.4208 -0.1463
  111OSM   H18F11495   2.818   1.315   5.045 -0.6070  0.0450 -0.0319
  111OSM   H18G11496   2.852   1.142   5.050 -1.0370 -0.6690  1.7572
  111OSM   H18H11497   2.972   1.251   5.132  0.9374 -1.5432 -1.9032
  112OSM      N11498   4.250   2.922   7.244  0.5742 -0.3037 -0.0195
  112OSM    C1511499   4.219   3.069   7.251  0.5076  0.1015  0.2195
  112OSM   H15A11500   4.226   3.104   7.353  0.6031  0.9320 -0.0668
  112OSM   H15B11501   4.120   3.095   7.217  1.1381  1.2275 -0.8484
  112OSM   H15C11502   4.290   3.116   7.184  1.5989 -0.1674  1.1598
  112OSM    C1411503   4.387   2.895   7.286  0.0321 -0.8013  0.2133
  112OSM   H14A11504   4.387   2.789   7.305 -0.7430 -0.7176  0.7522
  112OSM   H14B11505   4.410   2.950   7.377 -1.3539 -2.0333  1.3497
  112OSM   H14C11506   4.456   2.923   7.208  0.9851 -1.2755  0.8592
  112OSM    C1311507   4.146   2.856   7.339 -0.3743 -0.2254  0.4179
  112OSM   H13A11508   4.050   2.890   7.304  0.3839  2.5448  0.7533
  112OSM   H13B11509   4.166   2.875   7.444 -0.5515  1.0198  0.2422
  112OSM   H13C11510   4.153   2.749   7.328 -1.5474 -0.3909  1.0938
  112OSM    C1211511   4.234   2.874   7.108 -0.1854  0.1202  0.0820
  112OSM   H12A11512   4.276   2.940   7.034 -1.7084  1.7223  0.5709
  112OSM   H12B11513   4.131   2.889   7.078 -0.2960  1.5623  1.0907
  112OSM    C1111514   4.267   2.722   7.078 -0.4767  0.2623  0.0292
  112OSM   H11A11515   4.371   2.704   7.112 -0.7078  2.5806  2.3368
  112OSM   H11B11516   4.273   2.712   6.967  2.5545 -0.1281  0.1550
  112OSM      P11517   4.228   2.520   7.241 -0.0285 -0.2214  0.1807
  112OSM    O1311518   4.296   2.589   7.348  0.1999 -0.4148  0.1699
  112OSM    O1411519   4.119   2.425   7.274  0.0925  0.2680 -0.2432
  112OSM    O1111520   4.349   2.448   7.157 -0.1301 -0.3573 -0.0236
  112OSM    O1211521   4.179   2.631   7.142  0.6515 -0.4203 -0.1620
  112OSM    C1S11522   4.303   2.374   7.039 -0.2334  0.4145 -0.3591
  112OSM    H1S11523   4.197   2.399   7.016 -0.8682  0.0599  1.8973
  112OSM    H1T11524   4.305   2.268   7.071 -0.7745 -0.0085 -1.6856
  112OSM     NF11525   4.333   2.300   6.816 -0.0912  0.4373 -0.1171
  112OSM    HNF11526   4.375   2.212   6.797  0.8630  0.2859  2.4282
  112OSM    C2S11527   4.402   2.376   6.920  0.0703 -0.5458 -0.0099
  112OSM    H2S11528   4.415   2.481   6.885  1.1696 -1.0157 -1.0713
  112OSM    C3S11529   4.536   2.317   6.962  0.2565  0.0092  1.2702
  112OSM    H3S11530   4.520   2.214   7.000  2.2310 -0.9946 -0.4628
  112OSM     O311531   4.595   2.400   7.057 -0.0194 -0.0345  0.5529
  112OSM    HO311532   4.519   2.444   7.094  0.6373  1.6961 -0.0677
  112OSM    C4S11533   4.630   2.321   6.846 -0.3682  0.4694  0.0945
  112OSM    H4S11534   4.668   2.423   6.829 -3.0881  1.6489  0.7050
  112OSM    C5S11535   4.682   2.215   6.773  1.1125 -0.3820 -0.2076
  112OSM    H5S11536   4.650   2.111   6.791  0.4356 -0.4840 -1.8153
  112OSM    C6S11537   4.781   2.235   6.662 -0.2984 -0.8932 -0.2881
  112OSM    H6S11538   4.825   2.136   6.641 -1.3714 -1.0139 -2.1828
  112OSM    H6T11539   4.860   2.308   6.690  0.3884 -1.4745 -0.6757
  112OSM    C7S11540   4.703   2.275   6.532 -0.0754  0.8670  0.5790
  112OSM    H7S11541   4.689   2.385   6.529  2.1922  1.1723 -0.9114
  112OSM    H7T11542   4.609   2.219   6.511  1.3054 -1.0588 -0.8264
  112OSM    C8S11543   4.782   2.249   6.401 -0.0107  0.9037  0.4197
  112OSM    H8S11544   4.803   2.140   6.400  0.0650  0.8566 -2.6012
  112OSM    H8T11545   4.880   2.300   6.407  1.1703 -0.9554 -1.6380
  112OSM    C9S11546   4.702   2.263   6.272 -0.3440  0.3372 -0.1933
  112OSM    H9S11547   4.669   2.369   6.275 -0.5359  0.2654  0.5279
  112OSM    H9T11548   4.616   2.192   6.281  0.5711 -0.6657  0.9978
  112OSM   C10S11549   4.778   2.232   6.141  0.2080 -0.0348  0.2091
  112OSM   H10S11550   4.821   2.130   6.146  0.4979  0.0968  0.3683
  112OSM   H10T11551   4.857   2.309   6.131 -0.2525  0.5454  0.9700
  112OSM   C11S11552   4.694   2.264   6.017 -0.2280 -0.6839 -1.2500
  112OSM   H11S11553   4.671   2.372   6.020  1.7618 -0.2462  0.3364
  112OSM   H11T11554   4.598   2.209   6.024 -0.7227  0.3830  1.4150
  112OSM   C12S11555   4.761   2.228   5.885  0.7510 -0.9224 -0.6859
  112OSM   H12S11556   4.806   2.127   5.899  1.2743 -0.4409  1.3607
  112OSM   H12T11557   4.844   2.299   5.866 -0.6695  1.0784  0.1848
  112OSM   C13S11558   4.663   2.239   5.771 -0.5775  0.5009 -0.7592
  112OSM   H13S11559   4.612   2.337   5.775 -2.4023 -0.4397  0.0315
  112OSM   H13T11560   4.584   2.163   5.788  0.9364 -0.8669  0.4398
  112OSM   C14S11561   4.727   2.201   5.630 -0.6279 -0.1963  0.0195
  112OSM   H14S11562   4.784   2.106   5.622  0.4550  0.4123  0.2878
  112OSM   H14T11563   4.796   2.284   5.605  0.7527 -1.4256 -0.3930
  112OSM   C15S11564   4.628   2.185   5.511  0.4155 -0.4050 -0.3883
  112OSM   H15S11565   4.557   2.270   5.517  1.4418  0.4853 -0.7097
  112OSM   H15T11566   4.561   2.100   5.539  0.3195  0.0106  0.6889
  112OSM   C16S11567   4.689   2.184   5.372 -1.1525 -0.4125  0.3427
  112OSM   H16S11568   4.750   2.092   5.355 -0.7231  0.1188 -1.1835
  112OSM   H16T11569   4.764   2.264   5.354 -1.6614  0.6140  2.4800
  112OSM   C17S11570   4.591   2.174   5.251  0.4727 -0.4428 -0.1466
  112OSM   H17S11571   4.532   2.265   5.230  0.0787 -0.5236  0.5744
  112OSM   H17T11572   4.506   2.105   5.270  0.3761 -0.8035 -1.7067
  112OSM   C18S11573   4.657   2.120   5.119  0.4090  0.4069  0.0302
  112OSM   H18S11574   4.567   2.081   5.065  0.6193  0.1425 -0.1336
  112OSM   H18T11575   4.726   2.035   5.138  0.7964  0.1673 -2.1445
  112OSM   H18U11576   4.707   2.199   5.058  0.2635  1.7758  1.6268
  112OSM    C1F11577   4.227   2.353   6.756 -0.1538  0.5721 -0.2730
  112OSM     OF11578   4.195   2.472   6.774 -0.2363 -0.5241  0.3103
  112OSM    C2F11579   4.145   2.258   6.659 -0.5976  0.1781 -0.5118
  112OSM    H2F11580   4.040   2.253   6.693 -0.6629 -0.7538 -0.8285
  112OSM    H2G11581   4.186   2.155   6.673 -1.7736 -0.1195  0.8848
  112OSM    C3F11582   4.151   2.312   6.509 -0.5046  0.2508 -0.4798
  112OSM    H3F11583   4.255   2.347   6.493 -0.7362  1.1913 -0.0208
  112OSM    H3G11584   4.092   2.406   6.497 -2.3612 -1.0927 -2.6307
  112OSM    C4F11585   4.111   2.208   6.411 -0.7121  0.2663  0.8266
  112OSM    H4F11586   4.011   2.162   6.428 -0.3578 -0.7609  0.2552
  112OSM    H4G11587   4.181   2.122   6.419 -1.0408 -0.2114 -1.0125
  112OSM    C5F11588   4.102   2.257   6.265  0.2560 -0.7704 -0.2143
  112OSM    H5F11589   4.184   2.327   6.237 -0.5875  0.0875 -0.5726
  112OSM    H5G11590   4.010   2.317   6.251 -0.4498 -0.9537  2.9459
  112OSM    C6F11591   4.116   2.146   6.165  0.1036 -0.4326  1.0457
  112OSM    H6F11592   4.037   2.073   6.194 -0.4984 -0.0097  0.5053
  112OSM    H6G11593   4.219   2.109   6.180  0.3165  0.5669  2.1661
  112OSM    C7F11594   4.104   2.186   6.017  0.6409 -0.1155  1.4983
  112OSM    H7F11595   4.186   2.258   5.998  0.1826 -0.0949 -0.6210
  112OSM    H7G11596   4.010   2.244   6.005 -0.0336 -1.6942 -2.0149
  112OSM    C8F11597   4.103   2.066   5.921 -0.1058 -0.2938  0.4220
  112OSM    H8F11598   4.024   2.083   5.844 -0.1032 -0.3383  0.4095
  112OSM    H8G11599   4.070   1.977   5.979  0.0352 -1.3276 -1.0174
  112OSM    C9F11600   4.236   2.027   5.873  0.2461 -0.4845 -0.4533
  112OSM    H9F11601   4.283   1.962   5.948 -0.3004  0.2504  0.5499
  112OSM   C10F11602   4.290   2.050   5.757  0.0296  0.1905  0.3795
  112OSM   H10F11603   4.390   2.006   5.741  0.5435  1.1123  0.9222
  112OSM   C11F11604   4.238   2.117   5.641  0.5222  0.2061  0.5461
  112OSM   H11F11605   4.311   2.189   5.599 -0.2724  0.5360 -0.2737
  112OSM   H11G11606   4.142   2.167   5.664  1.5526  2.3992  0.3325
  112OSM   C12F11607   4.194   2.024   5.523 -0.2208 -0.1125  0.2556
  112OSM   H12F11608   4.106   1.964   5.551 -0.9936  1.2661  0.9053
  112OSM   H12G11609   4.277   1.958   5.490 -0.8490 -0.1461 -1.3294
  112OSM   C13F11610   4.165   2.113   5.402  0.1194  0.0865 -0.5502
  112OSM   H13F11611   4.250   2.179   5.372  0.3187 -0.7174 -1.8041
  112OSM   H13G11612   4.073   2.171   5.424  0.3529  0.3703 -0.3128
  112OSM   C14F11613   4.135   2.032   5.272 -0.4923  0.3452  0.0428
  112OSM   H14F11614   4.098   2.100   5.193 -1.1061 -0.2136 -0.1583
  112OSM   H14G11615   4.055   1.955   5.280 -1.1698  0.7274 -2.3695
  112OSM   C15F11616   4.252   1.949   5.214  0.2177 -0.3714  0.2871
  112OSM   H15F11617   4.283   1.875   5.291  0.5170  0.3028  0.8190
  112OSM   H15G11618   4.333   2.019   5.184  1.0777 -1.6229 -0.4334
  112OSM   C16F11619   4.200   1.868   5.091 -0.4689 -0.1307 -0.0985
  112OSM   H16F11620   4.173   1.933   5.005 -0.4610 -2.4608 -1.9665
  112OSM   H16G11621   4.111   1.808   5.121 -0.0862 -0.6136  0.0716
  112OSM   C17F11622   4.316   1.781   5.036  0.1073 -0.1512  0.6709
  112OSM   H17F11623   4.349   1.715   5.119  2.3264  2.1199  1.7336
  112OSM   H17G11624   4.406   1.845   5.025 -1.1978  1.4417 -1.3680
  112OSM   C18F11625   4.275   1.708   4.901  0.1992  0.0270 -0.3034
  112OSM   H18F11626   4.233   1.786   4.834  1.8172  0.2781 -1.0606
  112OSM   H18G11627   4.201   1.629   4.926 -0.1729  0.2754 -0.6118
  112OSM   H18H11628   4.361   1.666   4.845 -0.6197 -0.6311 -1.1138
  113OSM      N11629   3.540   6.152   6.809 -0.4372 -0.7051  0.0170
  113OSM    C1511630   3.675   6.220   6.797  0.7542  0.5076 -0.2335
  113OSM   H15A11631   3.741   6.191   6.716  2.7727  2.0544  0.7674
  113OSM   H15B11632   3.731   6.208   6.889  0.7605  1.9108 -0.0288
  113OSM   H15C11633   3.663   6.327   6.790  2.3218  0.6947 -0.3954
  113OSM    C1411634   3.466   6.219   6.919 -0.1591  0.0177 -0.6425
  113OSM   H14A11635   3.378   6.163   6.946 -0.4488  0.7391 -0.0623
  113OSM   H14B11636   3.432   6.315   6.884  0.4518  0.4107 -0.1753
  113OSM   H14C11637   3.527   6.230   7.007  0.3894 -0.8554 -0.8996
  113OSM    C1311638   3.462   6.179   6.687 -0.4877  0.0732 -0.2779
  113OSM   H13A11639   3.515   6.141   6.601  0.1316 -2.3904  1.0997
  113OSM   H13B11640   3.462   6.286   6.675  0.0998  0.3088  1.4664
  113OSM   H13C11641   3.357   6.152   6.694 -0.7496  1.1158  0.0136
  113OSM    C1211642   3.561   6.004   6.841  0.7145  0.1036  0.6465
  113OSM   H12A11643   3.600   5.957   6.752  0.3742  1.5454 -0.3080
  113OSM   H12B11644   3.470   5.949   6.859  1.5499 -2.1467 -1.4786
  113OSM    C1111645   3.654   5.973   6.959 -0.1264 -0.2241  0.4009
  113OSM   H11A11646   3.617   6.034   7.044 -0.5970  0.8494 -0.5498
  113OSM   H11B11647   3.758   6.006   6.936 -0.5021  0.6997 -0.0031
  113OSM      P11648   3.755   5.729   6.962  0.3350 -0.2974  0.1576
  113OSM    O1311649   3.880   5.767   7.034  0.6169  0.1703  0.3549
  113OSM    O1411650   3.709   5.593   6.993  0.6031  0.2460 -0.1633
  113OSM    O1111651   3.783   5.737   6.809 -0.2304 -0.1589 -0.2716
  113OSM    O1211652   3.639   5.834   6.980  0.1282  0.0102  0.4225
  113OSM    C1S11653   3.701   5.702   6.699  0.3780  0.1557  0.3743
  113OSM    H1S11654   3.604   5.755   6.702 -0.5806 -1.5595  0.7279
  113OSM    H1T11655   3.678   5.594   6.690 -0.7369  0.5712 -2.6605
  113OSM     NF11656   3.673   5.734   6.465  0.1633  0.2737 -0.1036
  113OSM    HNF11657   3.687   5.653   6.408  0.0626  1.1093 -1.3401
  113OSM    C2S11658   3.769   5.742   6.572  0.7711  0.0957 -0.3888
  113OSM    H2S11659   3.798   5.848   6.587 -0.0959  0.2240  0.4660
  113OSM    C3S11660   3.890   5.652   6.551  0.0824  0.1363  0.1956
  113OSM    H3S11661   3.845   5.552   6.539  1.0517 -0.2050 -0.6482
  113OSM     O311662   3.979   5.638   6.663 -0.1311  0.3274 -0.3280
  113OSM    HO311663   3.925   5.672   6.735 -1.0770 -0.1526 -0.7966
  113OSM    C4S11664   3.967   5.689   6.429  0.3076 -0.3351 -0.3867
  113OSM    H4S11665   3.918   5.645   6.340 -3.7855 -1.3588  2.0929
  113OSM    C5S11666   4.076   5.767   6.409  0.7751 -0.3527  0.1242
  113OSM    H5S11667   4.119   5.821   6.495  0.2363 -1.6907  1.2722
  113OSM    C6S11668   4.134   5.803   6.282  0.2149  0.0991  0.8987
  113OSM    H6S11669   4.236   5.761   6.288 -0.2976 -1.7799 -1.6646
  113OSM    H6T11670   4.136   5.910   6.253 -0.7988 -0.5658 -1.9275
  113OSM    C7S11671   4.079   5.747   6.154  0.6242 -0.1868 -0.5378
  113OSM    H7S11672   3.984   5.800   6.131 -1.3614 -3.2302  0.0436
  113OSM    H7T11673   4.051   5.640   6.160  3.3354 -0.8989  1.2048
  113OSM    C8S11674   4.173   5.761   6.029  0.1659 -0.3634  0.3183
  113OSM    H8S11675   4.274   5.714   6.039  0.6171  0.5773  0.3231
  113OSM    H8T11676   4.195   5.869   6.010 -0.3517 -0.5146 -1.2382
  113OSM    C9S11677   4.092   5.710   5.908 -0.7632  0.6044  0.0410
  113OSM    H9S11678   3.986   5.741   5.906 -0.8593  0.2946 -2.4260
  113OSM    H9T11679   4.093   5.599   5.911 -0.3851  0.5843  3.0955
  113OSM   C10S11680   4.139   5.773   5.770  0.6903 -0.2763  0.1027
  113OSM   H10S11681   4.244   5.748   5.747  1.1935  0.4064  1.5231
  113OSM   H10T11682   4.122   5.883   5.771  0.2117 -0.3483  0.3821
  113OSM   C11S11683   4.053   5.706   5.658 -1.0046  0.2885 -0.9974
  113OSM   H11S11684   3.951   5.748   5.668 -0.8089  0.2167  2.3341
  113OSM   H11T11685   4.051   5.596   5.670  1.7615  0.0749 -1.7292
  113OSM   C12S11686   4.106   5.746   5.525 -0.4177 -0.0177  0.0009
  113OSM   H12S11687   4.208   5.701   5.522 -0.8949 -1.3379  1.9896
  113OSM   H12T11688   4.112   5.856   5.515  0.5508 -0.2241 -2.4707
  113OSM   C13S11689   4.019   5.688   5.417  0.8339  0.5036 -0.0270
  113OSM   H13S11690   3.919   5.737   5.423  0.8927  0.8717 -1.6439
  113OSM   H13T11691   4.004   5.580   5.437  0.1866  0.4710 -0.6071
  113OSM   C14S11692   4.068   5.710   5.275 -0.0314  0.2400 -0.5098
  113OSM   H14S11693   4.169   5.757   5.274 -0.6946  1.8602  1.5841
  113OSM   H14T11694   3.997   5.776   5.220 -0.5383  1.7087  1.7963
  113OSM   C15S11695   4.080   5.580   5.189 -0.5732  0.4923  0.4191
  113OSM   H15S11696   3.983   5.526   5.201  0.2240 -0.6272  2.5063
  113OSM   H15T11697   4.155   5.521   5.246 -1.7833 -0.3401  1.1957
  113OSM   C16S11698   4.120   5.594   5.037  0.0167  0.2935  0.3128
  113OSM   H16S11699   4.213   5.653   5.024  1.0882 -1.6167 -1.2632
  113OSM   H16T11700   4.048   5.657   4.981  1.7613  0.0003 -2.4020
  113OSM   C17S11701   4.118   5.463   4.958 -0.2036  0.4562  0.3790
  113OSM   H17S11702   4.014   5.424   4.954  0.2817 -1.1416  1.9895
  113OSM   H17T11703   4.177   5.387   5.013 -0.8896 -1.4726 -1.4206
  113OSM   C18S11704   4.158   5.464   4.810 -0.2255 -0.8339 -0.5358
  113OSM   H18S11705   4.249   5.527   4.799 -0.3050 -0.2737  1.4751
  113OSM   H18T11706   4.069   5.494   4.750  0.6081 -0.9596 -1.8766
  113OSM   H18U11707   4.171   5.356   4.789 -1.9843 -1.7722  2.5250
  113OSM    C1F11708   3.559   5.802   6.464  0.4302 -0.2657 -0.4713
  113OSM     OF11709   3.542   5.892   6.548  0.4181  0.2117  0.0884
  113OSM    C2F11710   3.450   5.762   6.369 -0.0694 -0.0269 -1.2097
  113OSM    H2F11711   3.359   5.723   6.421  0.2542 -1.6783 -1.8060
  113OSM    H2G11712   3.491   5.685   6.300  1.2284  0.1568 -0.6759
  113OSM    C3F11713   3.396   5.887   6.296 -0.2471 -0.1888  0.0520
  113OSM    H3F11714   3.477   5.948   6.249 -0.0484  1.0270  1.8719
  113OSM    H3G11715   3.354   5.957   6.372  1.2382  0.5458  0.2424
  113OSM    C4F11716   3.292   5.837   6.185 -0.3518  0.5283 -0.2220
  113OSM    H4F11717   3.205   5.906   6.178 -2.2323 -1.8202 -2.2144
  113OSM    H4G11718   3.241   5.744   6.217 -0.3707  0.9654  1.0845
  113OSM    C5F11719   3.349   5.830   6.040 -0.0705  0.3714 -1.0138
  113OSM    H5F11720   3.428   5.752   6.033 -1.3367 -1.2188  1.2873
  113OSM    H5G11721   3.393   5.930   6.022  0.4053  0.8993  2.4691
  113OSM    C6F11722   3.241   5.787   5.941 -0.2318  0.1942 -0.0005
  113OSM    H6F11723   3.178   5.877   5.928  1.5620  1.3821 -1.0745
  113OSM    H6G11724   3.184   5.697   5.973 -0.0690 -0.8933 -2.4596
  113OSM    C7F11725   3.302   5.762   5.803 -0.0460 -0.0530 -0.1640
  113OSM    H7F11726   3.366   5.672   5.805  1.1349  0.7723  1.0863
  113OSM    H7G11727   3.381   5.838   5.783  1.1191 -0.6014  1.9630
  113OSM    C8F11728   3.201   5.761   5.693  0.3156  0.5982  0.2564
  113OSM    H8F11729   3.258   5.763   5.598 -0.9142  1.9673 -0.4982
  113OSM    H8G11730   3.141   5.853   5.710 -0.3420  0.0843  0.7879
  113OSM    C9F11731   3.107   5.646   5.729 -0.0254 -0.4232 -0.0336
  113OSM    H9F11732   3.041   5.672   5.813  0.8639  2.0545 -0.0051
  113OSM   C10F11733   3.100   5.522   5.678  0.3227 -0.0263 -0.1874
  113OSM   H10F11734   3.019   5.454   5.707  0.4593 -0.8740 -1.7238
  113OSM   C11F11735   3.170   5.470   5.560  0.1115  0.7905  0.2229
  113OSM   H11F11736   3.260   5.535   5.556 -0.8432  2.1704  0.4139
  113OSM   H11G11737   3.107   5.478   5.469  0.7950  0.6680 -0.2600
  113OSM   C12F11738   3.228   5.335   5.578  0.3579  0.6095  0.2188
  113OSM   H12F11739   3.150   5.260   5.604  1.6322  0.0610  2.6900
  113OSM   H12G11740   3.312   5.327   5.650  0.2613  1.9914  0.5077
  113OSM   C13F11741   3.295   5.308   5.441 -0.5526 -0.2533 -0.2635
  113OSM   H13F11742   3.367   5.389   5.414  0.2025 -0.3218  1.4419
  113OSM   H13G11743   3.218   5.304   5.361  0.0594 -0.3106 -0.8720
  113OSM   C14F11744   3.362   5.177   5.451  0.0299  1.2717  0.2743
  113OSM   H14F11745   3.293   5.097   5.486  1.6544 -1.1437 -1.6596
  113OSM   H14G11746   3.431   5.175   5.538  1.7108 -2.2346 -0.9594
  113OSM   C15F11747   3.435   5.132   5.326  0.1663 -0.5156  0.0699
  113OSM   H15F11748   3.365   5.118   5.242 -0.5782  2.2118  0.1310
  113OSM   H15G11749   3.487   5.036   5.346  0.0857 -0.2330  1.8028
  113OSM   C16F11750   3.544   5.238   5.282  0.7275  0.5700 -0.4863
  113OSM   H16F11751   3.592   5.278   5.374  0.9438 -0.8274  0.0279
  113OSM   H16G11752   3.500   5.327   5.232 -1.1127  1.2223  2.1123
  113OSM   C17F11753   3.654   5.185   5.198  0.0379 -0.2512 -0.0753
  113OSM   H17F11754   3.605   5.158   5.102 -3.6559 -0.3236  1.6401
  113OSM   H17G11755   3.696   5.097   5.251  1.4350  1.5074  1.9156
  113OSM   C18F11756   3.769   5.279   5.163  0.3648  0.2569  0.0805
  113OSM   H18F11757   3.744   5.387   5.154  2.2433  0.7761  0.5493
  113OSM   H18G11758   3.816   5.253   5.066  0.9702  1.5454  0.0011
  113OSM   H18H11759   3.845   5.277   5.244 -0.3979 -0.4472  0.7964
  114OSM      N11760   3.089   4.277   7.277 -0.0413  0.2959 -0.2218
  114OSM    C1511761   2.954   4.336   7.257 -0.3758 -0.2801  0.4014
  114OSM   H15A11762   2.902   4.383   7.339 -5.0973 -1.0418 -1.8509
  114OSM   H15B11763   2.896   4.256   7.213  0.5699 -0.7239 -0.0819
  114OSM   H15C11764   2.968   4.421   7.193 -0.1536 -0.5566  0.0735
  114OSM    C1411765   3.176   4.380   7.345 -0.7040  0.0001  0.1855
  114OSM   H14A11766   3.126   4.417   7.434  0.0467 -0.5130  0.8286
  114OSM   H14B11767   3.177   4.458   7.271  2.6612 -0.6350 -0.5991
  114OSM   H14C11768   3.277   4.347   7.364  0.0869  1.6435 -0.9280
  114OSM    C1311769   3.067   4.159   7.361  0.0350  0.7161  0.8649
  114OSM   H13A11770   3.160   4.117   7.396  0.1769 -0.4664 -0.8050
  114OSM   H13B11771   3.001   4.087   7.313  0.5651  1.1843 -0.6333
  114OSM   H13C11772   3.013   4.186   7.450 -2.0137  1.6920 -0.6002
  114OSM    C1211773   3.152   4.245   7.138 -0.2401  0.6220  0.1115
  114OSM   H12A11774   3.119   4.146   7.112  0.7933  0.8766 -2.4393
  114OSM   H12B11775   3.259   4.236   7.139 -0.3299 -0.4457  0.4542
  114OSM    C1111776   3.128   4.335   7.027  0.5366 -0.2417 -0.0749
  114OSM   H11A11777   3.020   4.352   7.006  0.4108  0.9082  1.3257
  114OSM   H11B11778   3.163   4.289   6.933  2.1114  3.3135 -1.4019
  114OSM      P11779   3.336   4.494   6.999  0.0552  0.0663 -0.3071
  114OSM    O1311780   3.338   4.638   6.970 -0.6151  0.1869  0.7290
  114OSM    O1411781   3.437   4.443   7.092 -0.0140  0.2672  0.5386
  114OSM    O1111782   3.344   4.406   6.867  0.2278  0.5667 -0.3217
  114OSM    O1211783   3.189   4.458   7.061  0.0543 -0.0134 -0.0075
  114OSM    C1S11784   3.470   4.373   6.802 -0.3152  1.0422  0.2208
  114OSM    H1S11785   3.500   4.273   6.840 -2.9992 -0.0973 -0.4391
  114OSM    H1T11786   3.552   4.445   6.820  2.6999 -1.4279 -2.4581
  114OSM     NF11787   3.576   4.312   6.585  0.2849  0.2393 -0.3915
  114OSM    HNF11788   3.639   4.381   6.550 -0.6459  1.3983  0.1553
  114OSM    C2S11789   3.451   4.358   6.648  0.7775 -0.1657  0.1210
  114OSM    H2S11790   3.377   4.279   6.622  1.9339 -1.5946  1.0124
  114OSM    C3S11791   3.406   4.493   6.595  0.3756 -0.1698  0.9371
  114OSM    H3S11792   3.478   4.569   6.632 -2.2642  2.6367  0.6835
  114OSM     O311793   3.287   4.541   6.649  0.3695  0.1581  0.0831
  114OSM    HO311794   3.282   4.497   6.734  0.3426  0.2023  0.1047
  114OSM    C4S11795   3.397   4.490   6.442 -0.2980  0.1163 -0.6508
  114OSM    H4S11796   3.324   4.417   6.405  1.2028 -2.2046  0.6853
  114OSM    C5S11797   3.457   4.578   6.355  0.1939  0.3185  0.0997
  114OSM    H5S11798   3.536   4.651   6.382  2.4747 -0.4789 -3.7499
  114OSM    C6S11799   3.424   4.564   6.209  0.6710 -0.5576  0.4600
  114OSM    H6S11800   3.370   4.654   6.171 -0.3113 -0.2578  2.4692
  114OSM    H6T11801   3.352   4.481   6.190  0.9366 -0.6423 -0.2076
  114OSM    C7S11802   3.542   4.540   6.119 -0.1746 -0.2282  0.1040
  114OSM    H7S11803   3.600   4.447   6.139  1.3119  0.6514  0.0429
  114OSM    H7T11804   3.608   4.629   6.128  0.2864 -0.4837 -0.5924
  114OSM    C8S11805   3.513   4.541   5.966  0.6843  0.3486 -0.1134
  114OSM    H8S11806   3.608   4.557   5.911  0.6371 -0.3244 -0.4025
  114OSM    H8T11807   3.450   4.628   5.939 -0.8576 -0.5895  0.3153
  114OSM    C9S11808   3.443   4.407   5.924 -0.6199 -0.1253 -0.4782
  114OSM    H9S11809   3.365   4.370   5.993 -0.0553  0.3158  0.4172
  114OSM    H9T11810   3.517   4.327   5.942  0.1417  0.8109  0.6615
  114OSM   C10S11811   3.400   4.430   5.777 -0.5617 -0.4162  0.0565
  114OSM   H10S11812   3.475   4.485   5.716 -0.3123 -1.7520 -0.8864
  114OSM   H10T11813   3.302   4.482   5.771 -0.3927  0.1095  1.4972
  114OSM   C11S11814   3.390   4.300   5.704  0.2706  0.9621  0.4476
  114OSM   H11S11815   3.323   4.224   5.748 -0.8868  0.8437 -1.4033
  114OSM   H11T11816   3.491   4.253   5.704  0.8936  2.1564  2.5079
  114OSM   C12S11817   3.342   4.310   5.555  0.1601 -0.5703 -1.1656
  114OSM   H12S11818   3.375   4.229   5.487 -0.7923 -0.6764 -1.5193
  114OSM   H12T11819   3.389   4.401   5.511  0.9867  0.3247  1.3715
  114OSM   C13S11820   3.188   4.323   5.538  0.1505 -0.3268 -0.8972
  114OSM   H13S11821   3.157   4.429   5.548 -0.5530 -0.5577 -0.5430
  114OSM   H13T11822   3.134   4.283   5.626 -1.8794  1.7303 -1.1107
  114OSM   C14S11823   3.143   4.261   5.403  0.3663  0.2874  0.4968
  114OSM   H14S11824   3.033   4.264   5.387  0.3127 -4.2212 -1.4319
  114OSM   H14T11825   3.179   4.156   5.410 -1.9271 -0.6433 -0.7681
  114OSM   C15S11826   3.197   4.334   5.278 -0.4146 -0.2628  0.3582
  114OSM   H15S11827   3.298   4.295   5.253 -1.2119 -3.9030  2.1481
  114OSM   H15T11828   3.212   4.442   5.298  0.2458 -0.4795  1.0675
  114OSM   C16S11829   3.106   4.334   5.158 -0.2721 -0.3997 -0.1352
  114OSM   H16S11830   3.153   4.390   5.074  0.5379 -0.5734  0.1886
  114OSM   H16T11831   3.015   4.391   5.184  1.6263  2.1331  1.4014
  114OSM   C17S11832   3.060   4.194   5.112  0.2757 -0.8998 -0.2983
  114OSM   H17S11833   2.978   4.153   5.175  0.1735 -2.9961 -1.6904
  114OSM   H17T11834   3.141   4.119   5.117  1.1352  0.0198  0.0482
  114OSM   C18S11835   3.028   4.189   4.961  0.6807 -0.6765 -0.1968
  114OSM   H18S11836   3.103   4.245   4.902  1.3590  0.9319  2.0861
  114OSM   H18T11837   2.940   4.256   4.949  0.9203 -0.0642  1.2506
  114OSM   H18U11838   3.005   4.088   4.921 -1.3945  0.1812 -1.3508
  114OSM    C1F11839   3.601   4.182   6.590  0.4337  0.1200  0.3303
  114OSM     OF11840   3.525   4.106   6.660 -0.1335 -0.3196 -0.2817
  114OSM    C2F11841   3.724   4.135   6.512 -0.2010  0.2894  0.0157
  114OSM    H2F11842   3.742   4.027   6.532 -2.7936 -0.0667  0.7692
  114OSM    H2G11843   3.812   4.193   6.547  0.3619  2.7499 -4.6715
  114OSM    C3F11844   3.720   4.158   6.357 -0.1314  0.3467  0.2829
  114OSM    H3F11845   3.826   4.144   6.326 -0.6324  1.5908 -2.3229
  114OSM    H3G11846   3.689   4.264   6.344 -1.1111  0.0969  0.5009
  114OSM    C4F11847   3.618   4.068   6.284 -0.2795 -0.5774 -0.0095
  114OSM    H4F11848   3.524   4.062   6.342 -0.3823 -2.1577 -0.3021
  114OSM    H4G11849   3.664   3.967   6.280 -1.0555 -0.9052 -1.3662
  114OSM    C5F11850   3.605   4.127   6.143 -0.3605 -0.1468  0.8582
  114OSM    H5F11851   3.707   4.141   6.100 -0.1293 -1.6831  0.8286
  114OSM    H5G11852   3.555   4.225   6.152  2.3482  1.5541 -1.1731
  114OSM    C6F11853   3.535   4.034   6.041  0.0793 -0.4242  0.1490
  114OSM    H6F11854   3.614   3.958   6.029  0.7454  0.3948 -0.7961
  114OSM    H6G11855   3.516   4.092   5.948 -0.8198  0.9957  1.1776
  114OSM    C7F11856   3.408   3.970   6.099 -0.0090 -0.6176  0.2271
  114OSM    H7F11857   3.349   4.050   6.148  1.0981  0.1083  0.4015
  114OSM    H7G11858   3.437   3.902   6.182 -0.6014 -1.1062  0.0407
  114OSM    C8F11859   3.319   3.904   5.996  0.6148 -0.1554 -0.5436
  114OSM    H8F11860   3.308   3.979   5.916  0.2391 -0.8136 -1.1183
  114OSM    H8G11861   3.218   3.884   6.039  0.8195  0.5617  0.3194
  114OSM    C9F11862   3.384   3.774   5.953  0.5173 -0.2316  0.5921
  114OSM    H9F11863   3.376   3.690   6.023  2.2565 -2.2826 -1.5038
  114OSM   C10F11864   3.463   3.752   5.843  0.6477 -0.6907 -0.1074
  114OSM   H10F11865   3.524   3.660   5.845 -0.3877 -1.3936  0.1943
  114OSM   C11F11866   3.499   3.852   5.734 -0.1859 -0.5094 -0.4834
  114OSM   H11F11867   3.592   3.901   5.769 -0.8529 -1.6425  3.3774
  114OSM   H11G11868   3.427   3.934   5.712 -1.3346 -0.0469  3.9924
  114OSM   C12F11869   3.550   3.788   5.597  0.2264  0.1024 -0.2631
  114OSM   H12F11870   3.469   3.718   5.566 -0.4585  1.1642 -0.9383
  114OSM   H12G11871   3.648   3.738   5.605  0.2937  0.4070  1.0361
  114OSM   C13F11872   3.550   3.889   5.486 -1.2479  0.1748 -0.7742
  114OSM   H13F11873   3.631   3.869   5.413 -2.5290 -1.1129 -1.8865
  114OSM   H13G11874   3.576   3.992   5.520  1.3843 -0.4376 -0.7196
  114OSM   C14F11875   3.409   3.904   5.423  0.3258  0.6232  0.2653
  114OSM   H14F11876   3.340   3.940   5.503 -2.2054  0.7430 -1.8214
  114OSM   H14G11877   3.369   3.806   5.391 -0.3857  1.0315 -0.1356
  114OSM   C15F11878   3.407   3.992   5.296  0.1782 -0.5901  0.3600
  114OSM   H15F11879   3.461   4.087   5.317  1.9179 -1.3474 -0.4298
  114OSM   H15G11880   3.299   4.009   5.279  0.0705 -1.8547 -0.3055
  114OSM   C16F11881   3.470   3.918   5.176 -0.4993 -0.3612  0.3341
  114OSM   H16F11882   3.442   3.810   5.176  1.4061 -0.8897  0.4715
  114OSM   H16G11883   3.580   3.921   5.192 -0.1746 -0.4786 -1.6526
  114OSM   C17F11884   3.435   3.992   5.043  0.1061  0.5125  0.0840
  114OSM   H17F11885   3.476   4.095   5.057 -0.8869  0.8024  0.9794
  114OSM   H17G11886   3.327   4.016   5.030 -0.1298 -0.4791  0.2072
  114OSM   C18F11887   3.506   3.929   4.927 -0.4459 -0.0058 -0.4155
  114OSM   H18F11888   3.512   3.996   4.839  0.0949  0.2011 -0.2259
  114OSM   H18G11889   3.474   3.828   4.896  1.1438 -0.7945  0.3597
  114OSM   H18H11890   3.612   3.911   4.956 -0.3233  1.6163  0.2577
  115OSM      N11891   6.616   5.682   6.786 -0.5476 -0.2770  0.2518
  115OSM    C1511892   6.568   5.554   6.839  0.9739  1.1061  0.1569
  115OSM   H15A11893   6.610   5.467   6.789 -0.7813  0.3218 -0.0312
  115OSM   H15B11894   6.466   5.540   6.806  1.5230 -0.2818 -1.1043
  115OSM   H15C11895   6.584   5.535   6.944 -2.1073 -1.4019  0.3312
  115OSM    C1411896   6.768   5.684   6.823  0.3901  0.0327 -0.2208
  115OSM   H14A11897   6.802   5.787   6.822  2.1251 -0.5079 -0.4812
  115OSM   H14B11898   6.831   5.624   6.759 -0.1467 -1.2172  0.4025
  115OSM   H14C11899   6.797   5.643   6.918  4.5018 -0.1349 -1.3386
  115OSM    C1311900   6.601   5.686   6.642 -0.3298 -0.4542 -0.3660
  115OSM   H13A11901   6.654   5.773   6.607  1.8397 -0.2740  2.9995
  115OSM   H13B11902   6.496   5.698   6.621 -0.7772 -2.5116  0.4500
  115OSM   H13C11903   6.648   5.604   6.588 -0.5413 -1.0435  0.3327
  115OSM    C1211904   6.553   5.798   6.853  0.1714  0.2425  0.0982
  115OSM   H12A11905   6.589   5.782   6.953  2.8625 -0.8000 -0.9282
  115OSM   H12B11906   6.445   5.797   6.843  0.1802  0.5321 -0.0334
  115OSM    C1111907   6.597   5.941   6.806 -0.0770  0.7101  0.3219
  115OSM   H11A11908   6.521   6.006   6.855  0.3538  0.8381  0.8189
  115OSM   H11B11909   6.577   5.945   6.696 -1.3005  0.4150  0.5165
  115OSM      P11910   6.815   6.093   6.784  0.0457 -0.0332  0.2372
  115OSM    O1311911   6.840   6.184   6.894 -0.3250  0.0603  0.0695
  115OSM    O1411912   6.934   6.047   6.705 -0.1155 -0.7487  0.1472
  115OSM    O1111913   6.712   6.170   6.681  0.4501 -0.1325 -0.3118
  115OSM    O1211914   6.738   5.966   6.840  0.0544  0.0591 -0.7190
  115OSM    C1S11915   6.724   6.306   6.647  1.0897  0.0296  0.0390
  115OSM    H1S11916   6.830   6.328   6.623  0.8687  0.2049 -0.7940
  115OSM    H1T11917   6.680   6.361   6.733 -0.1800 -0.8547 -0.0147
  115OSM     NF11918   6.667   6.476   6.479  0.1775 -0.7861 -0.4539
  115OSM    HNF11919   6.587   6.536   6.479  1.7212  1.4219 -1.4073
  115OSM    C2S11920   6.637   6.341   6.526  0.1887 -1.0192 -0.2460
  115OSM    H2S11921   6.688   6.284   6.445  0.3022  0.3096 -1.1280
  115OSM    C3S11922   6.487   6.297   6.537 -0.0128  0.1321  0.0316
  115OSM    H3S11923   6.431   6.341   6.622 -0.5493  0.0749 -0.2861
  115OSM     O311924   6.472   6.157   6.553  0.5939  0.6073  0.0482
  115OSM    HO311925   6.556   6.117   6.577 -1.1783 -2.7671  1.2731
  115OSM    C4S11926   6.409   6.338   6.414  0.1119  0.4256 -0.1683
  115OSM    H4S11927   6.327   6.409   6.434  1.6612  1.7574  2.0572
  115OSM    C5S11928   6.424   6.285   6.290  0.1680 -0.4583  0.0757
  115OSM    H5S11929   6.479   6.191   6.284  0.3786 -0.3940  0.9334
  115OSM    C6S11930   6.338   6.316   6.170 -0.0343 -0.8291 -0.3009
  115OSM    H6S11931   6.271   6.228   6.154  1.2888 -2.5353  2.6539
  115OSM    H6T11932   6.393   6.335   6.076 -1.7269  1.0496 -1.0017
  115OSM    C7S11933   6.247   6.443   6.181 -0.0314 -0.4411  0.8730
  115OSM    H7S11934   6.315   6.526   6.210  1.9906 -1.5661 -0.4324
  115OSM    H7T11935   6.171   6.420   6.260 -0.1490 -0.2275  0.8219
  115OSM    C8S11936   6.177   6.475   6.049  0.8592 -0.7344  0.2241
  115OSM    H8S11937   6.248   6.465   5.965  0.2855  0.5347 -0.4391
  115OSM    H8T11938   6.137   6.579   6.052 -0.4638 -1.2166 -0.0721
  115OSM    C9S11939   6.055   6.382   6.025  0.9046  0.3924  0.3604
  115OSM    H9S11940   5.964   6.432   6.066  1.7119  1.2196  1.1772
  115OSM    H9T11941   6.062   6.288   6.083 -0.1634  1.4336  2.2957
  115OSM   C10S11942   6.024   6.340   5.868  0.2706  0.3106 -0.3322
  115OSM   H10S11943   6.107   6.287   5.816  0.1259  0.1283 -0.3768
  115OSM   H10T11944   5.996   6.431   5.812 -2.6822  0.4642  1.2208
  115OSM   C11S11945   5.905   6.253   5.845 -0.0479  0.5610 -0.1475
  115OSM   H11S11946   5.815   6.282   5.905  0.3614  2.0836 -0.2314
  115OSM   H11T11947   5.931   6.154   5.886 -0.0416  1.4779  2.2075
  115OSM   C12S11948   5.877   6.231   5.691  0.6125  1.0971  0.3451
  115OSM   H12S11949   5.807   6.145   5.689  2.0831 -0.1232 -2.1327
  115OSM   H12T11950   5.971   6.204   5.638  0.9794 -1.0336  1.9568
  115OSM   C13S11951   5.832   6.357   5.624  0.0523 -0.1485 -0.5415
  115OSM   H13S11952   5.924   6.410   5.591  0.9023 -0.7214  0.8633
  115OSM   H13T11953   5.769   6.413   5.697  1.0945  0.0551  0.2170
  115OSM   C14S11954   5.771   6.325   5.488 -0.6282 -0.0244  0.5730
  115OSM   H14S11955   5.680   6.263   5.504 -0.8569  0.7455  2.5020
  115OSM   H14T11956   5.855   6.267   5.443 -0.2977  1.1006 -0.3202
  115OSM   C15S11957   5.752   6.447   5.404 -1.1802 -0.4795 -0.8931
  115OSM   H15S11958   5.847   6.496   5.373  0.0432 -1.2198  1.4666
  115OSM   H15T11959   5.704   6.532   5.456  0.5739 -0.2719  0.4964
  115OSM   C16S11960   5.679   6.412   5.274 -0.1285 -0.5192  0.8373
  115OSM   H16S11961   5.599   6.488   5.259 -0.2300 -0.6638  0.6356
  115OSM   H16T11962   5.622   6.317   5.288 -0.8755 -0.5448 -1.8179
  115OSM   C17S11963   5.766   6.443   5.151 -1.0386  0.3522 -0.1844
  115OSM   H17S11964   5.845   6.366   5.144 -1.0100  0.5126 -2.1066
  115OSM   H17T11965   5.811   6.544   5.160  0.4713 -0.3014 -0.1566
  115OSM   C18S11966   5.679   6.446   5.026  0.4514 -0.4839 -0.5815
  115OSM   H18S11967   5.638   6.343   5.020 -0.1941 -0.2589 -0.0845
  115OSM   H18T11968   5.735   6.467   4.932  2.2438 -0.2805  0.4810
  115OSM   H18U11969   5.597   6.520   5.035  0.1393 -0.6592 -1.8404
  115OSM    C1F11970   6.782   6.530   6.436 -0.1520  0.2932 -0.0535
  115OSM     OF11971   6.881   6.461   6.435 -0.8968  0.4025 -0.2552
  115OSM    C2F11972   6.778   6.681   6.406 -0.1839  0.4338  0.4978
  115OSM    H2F11973   6.857   6.731   6.466 -0.2332  2.2202 -0.8454
  115OSM    H2G11974   6.676   6.725   6.416 -0.0370  0.8493  0.1856
  115OSM    C3F11975   6.830   6.714   6.267 -0.5990  0.4187 -0.0142
  115OSM    H3F11976   6.934   6.677   6.259 -0.7321 -0.2096  0.9722
  115OSM    H3G11977   6.829   6.825   6.261  2.6069  0.4478 -2.0143
  115OSM    C4F11978   6.739   6.649   6.162 -0.6947 -0.1636 -0.0218
  115OSM    H4F11979   6.739   6.538   6.164 -0.4705 -0.1645 -0.0639
  115OSM    H4G11980   6.784   6.676   6.064  0.2055  0.4507  0.5413
  115OSM    C5F11981   6.589   6.692   6.167  1.1359 -0.4116  0.1840
  115OSM    H5F11982   6.590   6.803   6.169 -2.2984 -0.2219 -1.8773
  115OSM    H5G11983   6.544   6.658   6.263 -0.6805 -1.5527 -1.0187
  115OSM    C6F11984   6.501   6.649   6.040  0.1635  0.3019 -0.2686
  115OSM    H6F11985   6.398   6.659   6.079  0.2940  0.3062  0.0793
  115OSM    H6G11986   6.527   6.547   6.003 -0.5277 -0.2556  0.7513
  115OSM    C7F11987   6.518   6.744   5.919  1.0234  0.3020  0.1849
  115OSM    H7F11988   6.625   6.761   5.897  0.9060  0.8627  0.0284
  115OSM    H7G11989   6.474   6.843   5.941 -2.8288 -0.7432 -1.8131
  115OSM    C8F11990   6.445   6.705   5.782  0.2573 -0.3293 -0.2370
  115OSM    H8F11991   6.450   6.788   5.708 -0.7038 -0.7950 -0.8451
  115OSM    H8G11992   6.337   6.686   5.799  0.2362  0.1764  0.2040
  115OSM    C9F11993   6.512   6.585   5.718  0.3020 -0.2661 -0.6281
  115OSM    H9F11994   6.621   6.585   5.725  0.2072 -0.3108  1.2852
  115OSM   C10F11995   6.440   6.492   5.648  0.1615  0.8359 -0.9608
  115OSM   H10F11996   6.495   6.411   5.598  0.6401 -0.8436  2.0252
  115OSM   C11F11997   6.292   6.492   5.622 -0.8191  0.0202 -0.3342
  115OSM   H11F11998   6.246   6.591   5.603  0.4249  0.4416 -1.2499
  115OSM   H11G11999   6.243   6.446   5.710  0.3606 -0.0459  0.2961
  115OSM   C12F12000   6.264   6.422   5.495  0.4414  0.1759  0.8507
  115OSM   H12F12001   6.157   6.411   5.469  0.8165  1.5653 -1.6455
  115OSM   H12G12002   6.307   6.320   5.503  0.2851  0.1342  1.1413
  115OSM   C13F12003   6.328   6.491   5.371  0.7936  0.0859  0.7817
  115OSM   H13F12004   6.439   6.500   5.370  0.8051  0.0079 -0.8132
  115OSM   H13G12005   6.286   6.594   5.370  1.3924  0.3512 -1.4784
  115OSM   C14F12006   6.287   6.424   5.240  0.0040 -0.2663 -0.0472
  115OSM   H14F12007   6.186   6.459   5.209  1.0543  0.7187 -2.6324
  115OSM   H14G12008   6.268   6.319   5.272  1.0940 -0.6168 -0.5208
  115OSM   C15F12009   6.386   6.422   5.126  0.4669  0.6809  0.1412
  115OSM   H15F12010   6.353   6.360   5.040 -0.0415  0.8583  0.2105
  115OSM   H15G12011   6.486   6.379   5.150  0.8880  1.1144 -0.7721
  115OSM   C16F12012   6.408   6.564   5.065  0.3008  0.0378 -0.1542
  115OSM   H16F12013   6.490   6.615   5.120  3.0830 -2.6345 -1.5650
  115OSM   H16G12014   6.318   6.623   5.095  1.5038  0.6279  2.6572
  115OSM   C17F12015   6.442   6.570   4.916 -0.2000 -0.0420 -0.0903
  115OSM   H17F12016   6.546   6.536   4.897  0.3893  2.2251 -1.1579
  115OSM   H17G12017   6.446   6.677   4.889  1.3728  0.1204  0.6589
  115OSM   C18F12018   6.342   6.497   4.824 -0.5223  0.8734  0.1891
  115OSM   H18F12019   6.236   6.530   4.836 -1.3991 -1.8864  0.7550
  115OSM   H18G12020   6.342   6.387   4.830 -1.1185  0.8930  0.7282
  115OSM   H18H12021   6.360   6.511   4.715 -4.1013 -0.1575 -0.6627
  116OSM      N12022   3.326   3.281   7.613 -0.1241  0.5045 -0.9903
  116OSM    C1512023   3.199   3.210   7.607  0.0043  0.2050 -0.0249
  116OSM   H15A12024   3.169   3.184   7.507  1.5789 -1.1070 -0.2098
  116OSM   H15B12025   3.116   3.268   7.644 -0.5318  0.1817 -1.1489
  116OSM   H15C12026   3.199   3.124   7.672 -2.0906 -0.0200 -0.2643
  116OSM    C1412027   3.338   3.380   7.501  0.0675 -0.5097 -0.1526
  116OSM   H14A12028   3.263   3.457   7.511  0.8426 -0.0738  3.2617
  116OSM   H14B12029   3.347   3.315   7.415  3.1725  0.7394 -0.8768
  116OSM   H14C12030   3.428   3.438   7.505 -0.0504 -0.0051 -2.7055
  116OSM    C1312031   3.340   3.347   7.744 -0.4326 -0.1821 -0.7529
  116OSM   H13A12032   3.436   3.398   7.747 -1.4428  1.8609 -1.1365
  116OSM   H13B12033   3.343   3.282   7.830  0.4297  1.8421  0.8333
  116OSM   H13C12034   3.278   3.435   7.756  1.0205  0.7746  0.1138
  116OSM    C1212035   3.447   3.192   7.589 -0.1903 -0.2308 -0.0655
  116OSM   H12A12036   3.486   3.148   7.679  0.4945  0.4207 -0.0317
  116OSM   H12B12037   3.524   3.253   7.543 -0.1893  0.1401  0.4169
  116OSM    C1112038   3.427   3.068   7.487 -0.3566 -0.5031 -0.5869
  116OSM   H11A12039   3.362   2.996   7.541 -2.2482  1.2532 -0.4298
  116OSM   H11B12040   3.524   3.014   7.477  0.7667  1.5650 -1.6129
  116OSM      P12041   3.283   2.998   7.283  0.0620 -0.4725 -0.3040
  116OSM    O1312042   3.363   2.898   7.210 -0.2327 -0.0590  0.1899
  116OSM    O1412043   3.181   2.939   7.372 -0.6901 -0.2041  0.8623
  116OSM    O1112044   3.206   3.095   7.187  0.4319 -0.0955  0.2532
  116OSM    O1212045   3.376   3.106   7.363  0.0677  0.0443 -0.4955
  116OSM    C1S12046   3.265   3.169   7.088 -0.0958  0.0038  0.0081
  116OSM    H1S12047   3.370   3.192   7.117 -0.2694 -0.3705  0.9712
  116OSM    H1T12048   3.207   3.264   7.080 -1.6526 -0.6922  2.1615
  116OSM     NF12049   3.352   3.167   6.862 -0.6589 -0.1977  0.7253
  116OSM    HNF12050   3.319   3.212   6.779 -0.3647 -2.7163 -0.8682
  116OSM    C2S12051   3.269   3.094   6.954 -0.4520 -0.5728  0.9630
  116OSM    H2S12052   3.323   2.998   6.969 -0.9896 -1.3406 -1.4580
  116OSM    C3S12053   3.128   3.064   6.901 -0.9427 -0.3118 -0.1979
  116OSM    H3S12054   3.090   3.162   6.864  0.9443  0.1293 -1.0852
  116OSM     O312055   3.028   3.011   6.988  0.2623 -0.3710  0.5253
  116OSM    HO312056   3.069   3.021   7.075  0.9047  1.6010  0.0507
  116OSM    C4S12057   3.139   2.975   6.774  0.2310 -0.0399 -0.6313
  116OSM    H4S12058   3.173   3.027   6.683 -0.9811 -1.3087 -1.8593
  116OSM    C5S12059   3.102   2.844   6.764  0.1314  0.4907 -0.1741
  116OSM    H5S12060   3.054   2.799   6.852  0.4730 -0.8598 -0.6552
  116OSM    C6S12061   3.099   2.754   6.639  0.6444 -0.6064  0.6147
  116OSM    H6S12062   2.994   2.718   6.632  0.8482 -1.1069  0.0501
  116OSM    H6T12063   3.164   2.665   6.650  4.3943  2.0414  2.0083
  116OSM    C7S12064   3.136   2.816   6.503  0.2049 -0.6208  0.2376
  116OSM    H7S12065   3.234   2.866   6.520 -0.0244  0.2279 -0.7959
  116OSM    H7T12066   3.062   2.899   6.495  1.1186  0.2543  0.5698
  116OSM    C8S12067   3.144   2.723   6.382  0.1641 -0.5673  0.1405
  116OSM    H8S12068   3.047   2.668   6.382 -1.0741  1.4830 -1.2549
  116OSM    H8T12069   3.226   2.649   6.394 -0.7076 -1.2851  2.0078
  116OSM    C9S12070   3.151   2.805   6.255 -0.4240  0.0217  0.7363
  116OSM    H9S12071   3.256   2.837   6.236 -0.1806 -0.4420  1.2853
  116OSM    H9T12072   3.087   2.895   6.263  0.8902  0.9150  1.6282
  116OSM   C10S12073   3.103   2.723   6.142 -0.3761 -0.2085  0.3162
  116OSM   H10S12074   2.993   2.710   6.150 -0.5320 -1.2779 -2.3735
  116OSM   H10T12075   3.159   2.628   6.154 -0.7809 -0.5509 -0.4478
  116OSM   C11S12076   3.121   2.791   5.995 -0.1820  0.1809 -0.3294
  116OSM   H11S12077   3.231   2.802   5.979 -0.1945 -0.7219 -1.1133
  116OSM   H11T12078   3.079   2.893   5.991 -1.5946 -0.3233  0.8399
  116OSM   C12S12079   3.066   2.711   5.879 -0.3331  0.2582  0.4872
  116OSM   H12S12080   2.963   2.673   5.893 -1.0263  0.3439 -3.3292
  116OSM   H12T12081   3.129   2.621   5.861 -1.3692 -0.8831  2.2258
  116OSM   C13S12082   3.051   2.791   5.751 -0.1084 -0.0403 -0.4699
  116OSM   H13S12083   3.130   2.869   5.739  0.3251  0.0730  2.3483
  116OSM   H13T12084   2.961   2.856   5.762  1.3988  1.9773  0.7094
  116OSM   C14S12085   3.050   2.707   5.627  0.0789  0.4654 -0.2558
  116OSM   H14S12086   2.963   2.638   5.629  0.3953  0.0664  0.3249
  116OSM   H14T12087   3.140   2.641   5.630 -0.9769 -1.0073  1.5163
  116OSM   C15S12088   3.063   2.789   5.499  0.0943  0.1906 -0.8503
  116OSM   H15S12089   3.108   2.888   5.521 -1.3105  0.8192 -0.7202
  116OSM   H15T12090   2.964   2.828   5.466 -1.4977  0.9666  3.9914
  116OSM   C16S12091   3.117   2.710   5.379 -0.1811  0.2441 -0.9974
  116OSM   H16S12092   3.054   2.621   5.359  1.5550 -1.0479 -0.9291
  116OSM   H16T12093   3.213   2.669   5.417  0.2945  2.2054  0.1076
  116OSM   C17S12094   3.120   2.809   5.263 -0.4551  0.3719 -0.0034
  116OSM   H17S12095   3.191   2.895   5.270  0.0783 -0.1017  0.5569
  116OSM   H17T12096   3.022   2.859   5.251 -0.1336  0.7504 -1.2953
  116OSM   C18S12097   3.149   2.728   5.132  0.4614  0.4115  0.2820
  116OSM   H18S12098   3.062   2.672   5.094  0.1879 -1.0906  2.9103
  116OSM   H18T12099   3.215   2.640   5.145  1.4108  0.9150 -0.8309
  116OSM   H18U12100   3.194   2.778   5.043  1.6850 -1.6192 -0.2874
  116OSM    C1F12101   3.483   3.186   6.881 -0.3083  0.1320  0.1225
  116OSM     OF12102   3.548   3.114   6.953 -0.1534  0.0399  0.4990
  116OSM    C2F12103   3.540   3.299   6.800  0.8191 -0.0276  0.6604
  116OSM    H2F12104   3.600   3.366   6.865  3.2323  0.5306 -1.9548
  116OSM    H2G12105   3.454   3.364   6.773 -0.9969 -3.0879 -1.5841
  116OSM    C3F12106   3.637   3.253   6.684 -0.3067 -0.1679 -0.4432
  116OSM    H3F12107   3.723   3.195   6.726 -1.2845  1.6100  4.7970
  116OSM    H3G12108   3.672   3.346   6.633  2.9987 -1.0306 -0.0192
  116OSM    C4F12109   3.565   3.156   6.587  0.3543 -0.6133  0.1376
  116OSM    H4F12110   3.485   3.212   6.534 -1.2068  0.3277  3.2371
  116OSM    H4G12111   3.525   3.065   6.637 -1.2662 -0.2548 -0.4319
  116OSM    C5F12112   3.660   3.094   6.486  0.0158  0.8700 -0.0390
  116OSM    H5F12113   3.718   3.021   6.547 -0.3790  1.0676  0.5774
  116OSM    H5G12114   3.725   3.171   6.440  0.5580 -0.1558 -1.0467
  116OSM    C6F12115   3.590   3.026   6.372 -0.6664  0.9906 -0.3128
  116OSM    H6F12116   3.522   3.087   6.309 -4.6386 -1.5400  1.1449
  116OSM    H6G12117   3.528   2.950   6.425  0.9956 -0.1284  0.1279
  116OSM    C7F12118   3.694   2.961   6.275  0.0741 -0.7666  0.0941
  116OSM    H7F12119   3.762   2.894   6.331  0.9790  1.0560  1.2818
  116OSM    H7G12120   3.763   3.038   6.235  0.6795 -0.9413  0.7904
  116OSM    C8F12121   3.628   2.886   6.153  0.7311 -0.2759 -0.0864
  116OSM    H8F12122   3.575   2.796   6.191 -0.3219  1.4840  2.9269
  116OSM    H8G12123   3.709   2.848   6.087 -0.0676 -1.3143 -0.4994
  116OSM    C9F12124   3.534   2.965   6.061 -0.0516 -0.2894 -0.5461
  116OSM    H9F12125   3.501   3.066   6.088 -1.1885 -0.2617 -1.9181
  116OSM   C10F12126   3.480   2.921   5.948  0.9162  0.2595  0.1366
  116OSM   H10F12127   3.411   2.985   5.891  0.0227  0.8925  1.8405
  116OSM   C11F12128   3.484   2.791   5.879  0.2273  0.0430 -0.4301
  116OSM   H11F12129   3.382   2.763   5.846  1.1676  0.5125 -4.2508
  116OSM   H11G12130   3.525   2.709   5.941 -0.1859  1.4271  1.8062
  116OSM   C12F12131   3.558   2.797   5.742  0.1637 -0.3823 -0.0417
  116OSM   H12F12132   3.585   2.697   5.704 -1.9123 -0.6407 -1.0112
  116OSM   H12G12133   3.653   2.852   5.758  0.4574 -0.5011 -1.2478
  116OSM   C13F12134   3.467   2.870   5.640 -0.0106  0.0020  0.1304
  116OSM   H13F12135   3.471   2.980   5.647 -0.6084  0.0718 -0.5512
  116OSM   H13G12136   3.364   2.828   5.644  0.1415 -0.3112  1.9159
  116OSM   C14F12137   3.525   2.847   5.499 -0.8792 -1.0057 -1.0152
  116OSM   H14F12138   3.508   2.744   5.461 -1.7228 -1.2206 -0.0958
  116OSM   H14G12139   3.634   2.869   5.502 -0.6228 -1.9424 -2.3332
  116OSM   C15F12140   3.470   2.948   5.395 -0.6063 -1.0529  0.2656
  116OSM   H15F12141   3.517   3.046   5.420  0.1029 -1.1747 -0.5143
  116OSM   H15G12142   3.360   2.948   5.410 -0.4730 -1.7584  1.2828
  116OSM   C16F12143   3.528   2.900   5.263 -0.2393 -0.1420 -0.5169
  116OSM   H16F12144   3.491   2.797   5.241  0.9517 -0.5169 -0.8941
  116OSM   H16G12145   3.637   2.894   5.284 -0.0360 -0.8203 -1.6491
  116OSM   C17F12146   3.521   2.990   5.141 -0.5495 -0.8973 -0.3037
  116OSM   H17F12147   3.425   3.046   5.131  0.9594  1.9986  0.1293
  116OSM   H17G12148   3.528   2.919   5.056 -0.7180 -2.3790  0.8770
  116OSM   C18F12149   3.646   3.085   5.145  0.1159 -0.4066 -0.2227
  116OSM   H18F12150   3.641   3.144   5.051 -0.4964 -1.8460 -1.1301
  116OSM   H18G12151   3.746   3.036   5.143  0.2641 -0.0956 -0.6202
  116OSM   H18H12152   3.642   3.152   5.233 -2.1122  0.5873 -1.0205
  117OSM      N12153   1.299   1.911   7.495 -0.5481 -0.2806 -0.0152
  117OSM    C1512154   1.375   1.923   7.367  0.1892  0.6342 -0.5276
  117OSM   H15A12155   1.376   1.829   7.315 -0.9919  0.2523  0.0963
  117OSM   H15B12156   1.478   1.953   7.375  0.1583  0.2428  2.2231
  117OSM   H15C12157   1.327   1.992   7.299 -2.4151 -0.1179  0.4374
  117OSM    C1412158   1.359   1.807   7.593 -0.6127 -0.3393  0.5597
  117OSM   H14A12159   1.453   1.848   7.627 -1.0227  1.1049  0.0204
  117OSM   H14B12160   1.388   1.718   7.538 -0.4085  1.2578 -2.1162
  117OSM   H14C12161   1.280   1.793   7.664 -1.4839  1.1889 -0.0618
  117OSM    C1312162   1.321   2.039   7.572 -0.3486  0.9788  0.6898
  117OSM   H13A12163   1.428   2.048   7.579  0.3214 -2.0865 -2.5968
  117OSM   H13B12164   1.279   2.036   7.671  0.9238 -2.3824  1.2756
  117OSM   H13C12165   1.288   2.123   7.513  1.7414  1.5281  0.2146
  117OSM    C1212166   1.155   1.885   7.463 -0.3532 -0.1781 -0.1274
  117OSM   H12A12167   1.147   1.790   7.411  3.2173 -0.1772 -0.9557
  117OSM   H12B12168   1.128   1.976   7.413 -1.7458  1.6400  3.5436
  117OSM    C1112169   1.059   1.873   7.581 -0.1129 -0.5047  0.0120
  117OSM   H11A12170   1.068   1.966   7.641  1.4638 -0.2518 -0.5616
  117OSM   H11B12171   1.091   1.793   7.652 -4.4557 -0.4469  2.3577
  117OSM      P12172   0.815   1.952   7.531 -0.2697  0.2966 -0.5659
  117OSM    O1312173   0.748   1.957   7.661 -0.3893 -0.1123  0.8596
  117OSM    O1412174   0.868   2.083   7.485  0.5023 -0.8710  0.6591
  117OSM    O1112175   0.725   1.891   7.412 -0.5771  0.1644  0.1516
  117OSM    O1212176   0.932   1.859   7.531  0.2767  0.5152 -0.3135
  117OSM    C1S12177   0.765   1.901   7.278 -1.0165 -0.1128  0.6066
  117OSM    H1S12178   0.857   1.841   7.259  0.0362  1.1945  1.4050
  117OSM    H1T12179   0.802   2.000   7.245  1.4127 -1.2287 -0.2967
  117OSM     NF12180   0.705   1.876   7.027  0.2906  0.5562  0.2646
  117OSM    HNF12181   0.675   1.942   6.960  1.3648 -0.6084 -1.4576
  117OSM    C2S12182   0.653   1.865   7.163  0.2099  0.2275  0.3978
  117OSM    H2S12183   0.628   1.759   7.183  0.5112  0.2335  0.8065
  117OSM    C3S12184   0.530   1.953   7.187  0.1173 -0.0335  0.2682
  117OSM    H3S12185   0.570   2.056   7.183  2.9115 -0.9396  1.9893
  117OSM     O312186   0.474   1.932   7.318  0.0547 -0.3848 -0.1565
  117OSM    HO312187   0.548   1.902   7.370  0.0677 -0.3911 -0.1789
  117OSM    C4S12188   0.423   1.933   7.073 -0.2396  0.7424  0.0154
  117OSM    H4S12189   0.442   2.018   7.006  0.1141  3.1044  2.8942
  117OSM    C5S12190   0.333   1.833   7.054 -0.1369  0.5615  0.3356
  117OSM    H5S12191   0.320   1.750   7.126  0.4563  0.7447  0.6649
  117OSM    C6S12192   0.248   1.828   6.931  0.2335 -0.4377 -0.8488
  117OSM    H6S12193   0.148   1.863   6.963  1.1012  0.2357  1.3574
  117OSM    H6T12194   0.239   1.722   6.899 -0.8330  0.1015 -2.4260
  117OSM    C7S12195   0.275   1.908   6.799  0.0053 -0.2494 -0.4811
  117OSM    H7S12196   0.356   1.868   6.735 -0.5614 -1.6998 -0.3229
  117OSM    H7T12197   0.273   2.015   6.829 -1.9221 -0.7009  1.2617
  117OSM    C8S12198   0.156   1.886   6.706  0.2474 -1.0665 -0.4844
  117OSM    H8S12199   0.071   1.943   6.749 -1.1164 -1.7440 -2.1686
  117OSM    H8T12200   0.131   1.778   6.705 -0.8671 -0.8561  1.1985
  117OSM    C9S12201   0.172   1.946   6.565  0.4949  0.0231  0.5338
  117OSM    H9S12202   0.183   2.056   6.574  1.8741 -0.1715  1.5333
  117OSM    H9T12203   0.080   1.919   6.510  1.1458  1.9159 -1.6460
  117OSM   C10S12204   0.292   1.889   6.491 -0.2478  0.8333 -0.4495
  117OSM   H10S12205   0.308   1.781   6.510  0.3239  1.0605  0.3622
  117OSM   H10T12206   0.377   1.944   6.534 -1.4183  2.5071 -0.1681
  117OSM   C11S12207   0.309   1.911   6.337 -0.1445  0.6597  0.5679
  117OSM   H11S12208   0.404   1.863   6.306  0.3730  2.2436 -0.4174
  117OSM   H11T12209   0.312   2.020   6.317 -0.3207  0.1737 -2.5385
  117OSM   C12S12210   0.185   1.860   6.255  0.3479 -0.5559 -0.0078
  117OSM   H12S12211   0.092   1.918   6.275 -0.6422 -1.6655 -1.2308
  117OSM   H12T12212   0.160   1.756   6.282  2.5580 -1.1250  0.0502
  117OSM   C13S12213   0.208   1.873   6.104 -0.1101  1.0888  0.0769
  117OSM   H13S12214   0.308   1.832   6.075  0.0214  0.4007  1.4140
  117OSM   H13T12215   0.215   1.979   6.072  2.2363  0.5454 -1.5112
  117OSM   C14S12216   0.089   1.802   6.027  0.2535  0.1970 -0.0572
  117OSM   H14S12217   0.004   1.839   6.089 -0.2281  0.7204 -1.0139
  117OSM   H14T12218   0.103   1.692   6.030 -1.5526 -0.0702 -0.1975
  117OSM   C15S12219   0.069   1.849   5.877 -0.4534 -0.3408  0.1105
  117OSM   H15S12220   0.066   1.960   5.888 -2.1519 -0.0366 -2.5611
  117OSM   H15T12221  -0.029   1.809   5.843 -0.2327 -1.5307  0.8149
  117OSM   C16S12222   0.186   1.809   5.784 -0.4805  0.0003 -0.3235
  117OSM   H16S12223   0.196   1.699   5.801  1.8509  0.6749  3.9062
  117OSM   H16T12224   0.280   1.856   5.820 -0.5556  1.2614 -1.6902
  117OSM   C17S12225   0.165   1.847   5.641 -0.8399  0.2793 -0.0198
  117OSM   H17S12226   0.149   1.954   5.615  0.2759 -0.3368 -3.9193
  117OSM   H17T12227   0.079   1.788   5.603  0.0831 -1.0343 -0.1186
  117OSM   C18S12228   0.279   1.811   5.555  0.2158 -0.3682 -0.6401
  117OSM   H18S12229   0.358   1.884   5.583  0.6552 -0.6887 -1.0181
  117OSM   H18T12230   0.268   1.833   5.447  0.6886 -0.5150 -0.7215
  117OSM   H18U12231   0.336   1.716   5.564  0.6951 -0.1923 -1.6605
  117OSM    C1F12232   0.802   1.798   6.985  0.4560 -0.6761  0.6887
  117OSM     OF12233   0.834   1.704   7.051  0.0469 -0.0835 -0.2456
  117OSM    C2F12234   0.871   1.844   6.860 -0.5619  0.1563  0.1558
  117OSM    H2F12235   0.973   1.801   6.871 -0.2304  0.5658 -1.1430
  117OSM    H2G12236   0.873   1.955   6.859 -1.7940  0.2264 -1.8449
  117OSM    C3F12237   0.810   1.787   6.728  0.2741  0.2589 -0.8198
  117OSM    H3F12238   0.701   1.785   6.747  0.4449 -0.5900  0.1747
  117OSM    H3G12239   0.844   1.681   6.724 -0.4288  0.0393 -1.0837
  117OSM    C4F12240   0.839   1.870   6.603 -0.1417 -0.0162 -0.0710
  117OSM    H4F12241   0.946   1.856   6.574 -0.2014  1.6917 -1.3298
  117OSM    H4G12242   0.821   1.979   6.611 -0.0782  0.0039 -0.1880
  117OSM    C5F12243   0.747   1.832   6.490  0.3562  0.3231 -0.3580
  117OSM    H5F12244   0.639   1.853   6.506  0.0943  0.5775 -2.2579
  117OSM    H5G12245   0.758   1.722   6.484  1.4261  0.0752  3.6058
  117OSM    C6F12246   0.775   1.886   6.352  0.5952 -0.4627 -0.4298
  117OSM    H6F12247   0.797   1.995   6.350 -0.8356 -0.1457 -0.4275
  117OSM    H6G12248   0.681   1.873   6.294  1.0369 -2.8869 -0.7049
  117OSM    C7F12249   0.886   1.813   6.266  0.0791  0.0530 -0.6501
  117OSM    H7F12250   0.859   1.706   6.254 -1.3424  0.2249  0.6720
  117OSM    H7G12251   0.985   1.806   6.316  0.0362 -2.4937 -0.7936
  117OSM    C8F12252   0.888   1.866   6.117  0.0690 -0.6131 -0.3571
  117OSM    H8F12253   0.798   1.932   6.110 -0.3664 -0.7722  2.5987
  117OSM    H8G12254   0.887   1.782   6.045  2.0062  0.5913 -1.9016
  117OSM    C9F12255   1.008   1.953   6.088  0.0651 -0.4975  1.2089
  117OSM    H9F12256   1.034   2.020   6.171 -0.5555  1.9283 -0.4356
  117OSM   C10F12257   1.090   1.950   5.977 -0.3280  0.8005 -0.0354
  117OSM   H10F12258   1.170   2.025   5.971  0.1686  0.2190 -1.0026
  117OSM   C11F12259   1.083   1.861   5.862  0.4375  0.7273  0.2906
  117OSM   H11F12260   1.114   1.910   5.767 -0.0034  0.4754  0.0127
  117OSM   H11G12261   0.984   1.814   5.841 -0.2678  1.9919  0.6911
  117OSM   C12F12262   1.187   1.749   5.880 -0.1065  0.6107 -0.0132
  117OSM   H12F12263   1.190   1.675   5.798  0.1782  1.0057 -0.3631
  117OSM   H12G12264   1.158   1.689   5.969 -0.0005 -2.1394 -1.7395
  117OSM   C13F12265   1.334   1.793   5.911  0.5241  0.2493  0.2587
  117OSM   H13F12266   1.390   1.697   5.916  1.4672  0.5894 -2.2637
  117OSM   H13G12267   1.335   1.832   6.015 -0.0683  1.1052 -0.0474
  117OSM   C14F12268   1.388   1.887   5.809 -0.0231 -0.0519 -0.6539
  117OSM   H14F12269   1.330   1.982   5.804  1.5685  1.0819  0.9220
  117OSM   H14G12270   1.369   1.845   5.708  3.1470  0.6779 -1.6644
  117OSM   C15F12271   1.539   1.929   5.826  0.3132  0.7290  0.1358
  117OSM   H15F12272   1.549   1.963   5.931 -0.1452  0.5558  0.2412
  117OSM   H15G12273   1.569   2.015   5.762 -1.8481 -0.1381 -2.2339
  117OSM   C16F12274   1.633   1.814   5.789 -0.7148  0.0721 -0.2378
  117OSM   H16F12275   1.629   1.795   5.680 -2.1281  1.4499 -0.4574
  117OSM   H16G12276   1.606   1.724   5.848 -0.6043  0.0435 -0.2298
  117OSM   C17F12277   1.771   1.852   5.819 -0.1797  0.4901  0.1030
  117OSM   H17F12278   1.784   1.855   5.929 -0.4182  0.1153  0.1419
  117OSM   H17G12279   1.789   1.958   5.791  0.3449  0.4958  0.4594
  117OSM   C18F12280   1.885   1.767   5.747 -0.2764 -0.4914 -0.4215
  117OSM   H18F12281   1.987   1.805   5.768 -0.5896  0.0437  0.1599
  117OSM   H18G12282   1.869   1.772   5.637  1.5539  1.6652 -0.6599
  117OSM   H18H12283   1.878   1.662   5.783 -1.1422  0.6553  3.0563
  118OSM      N12284   3.087   5.630   6.806 -0.1898 -0.1162 -0.0513
  118OSM    C1512285   3.185   5.524   6.774 -0.0565  1.3368 -0.1921
  118OSM   H15A12286   3.153   5.424   6.797  2.4655  0.1372 -1.4739
  118OSM   H15B12287   3.279   5.543   6.824  0.4195 -0.0746 -0.5214
  118OSM   H15C12288   3.213   5.527   6.669 -0.4624  0.2063 -0.3371
  118OSM    C1412289   2.958   5.561   6.771  0.7655  0.3004  0.1385
  118OSM   H14A12290   2.874   5.626   6.788 -0.3388 -0.3143 -2.4922
  118OSM   H14B12291   2.945   5.465   6.817 -0.4345  1.0145  1.3314
  118OSM   H14C12292   2.964   5.543   6.664 -0.9653  0.5641 -0.0202
  118OSM    C1312293   3.099   5.655   6.953 -0.0046  0.2268 -0.1022
  118OSM   H13A12294   3.088   5.566   7.012 -0.2513  0.3800  0.0801
  118OSM   H13B12295   3.010   5.710   6.981  0.0512  0.3256 -0.1176
  118OSM   H13C12296   3.191   5.706   6.979  0.1045  1.0537 -1.9143
  118OSM    C1212297   3.108   5.749   6.716  0.0702  0.1030  0.2529
  118OSM   H12A12298   3.028   5.814   6.746 -1.4954 -2.8219  2.9550
  118OSM   H12B12299   3.087   5.716   6.615 -0.3200 -0.3162  0.4725
  118OSM    C1112300   3.235   5.837   6.715 -0.9582 -0.5502 -0.8043
  118OSM   H11A12301   3.256   5.897   6.624 -1.4674 -0.3224 -0.7752
  118OSM   H11B12302   3.322   5.769   6.728  0.3543  0.5405 -3.2554
  118OSM      P12303   3.117   6.031   6.842 -0.0189 -0.1672  0.2269
  118OSM    O1312304   2.988   5.959   6.875 -0.5621 -0.6659  0.5874
  118OSM    O1412305   3.160   6.147   6.930 -0.2569  0.0492 -0.3366
  118OSM    O1112306   3.108   6.079   6.696 -0.3770  0.0429 -0.1967
  118OSM    O1212307   3.230   5.922   6.832  0.8942 -0.3057  0.5356
  118OSM    C1S12308   2.988   6.140   6.651  0.4471 -0.3157  0.8227
  118OSM    H1S12309   2.984   6.245   6.685  2.7629  0.3948 -0.8178
  118OSM    H1T12310   2.895   6.087   6.678  0.4561 -0.7170  0.1027
  118OSM     NF12311   2.883   6.254   6.454 -0.3481  0.0568  0.3148
  118OSM    HNF12312   2.804   6.205   6.417  0.6210 -1.4347  0.1032
  118OSM    C2S12313   2.984   6.163   6.496  0.4753  0.5199  0.2871
  118OSM    H2S12314   3.081   6.209   6.470 -0.3369  0.3729 -3.6933
  118OSM    C3S12315   2.976   6.029   6.416 -0.2664  0.2408 -0.3543
  118OSM    H3S12316   2.889   5.972   6.455 -1.2879  2.1201  0.2249
  118OSM     O312317   3.087   5.946   6.428 -0.5160  0.3057  0.2063
  118OSM    HO312318   3.116   5.969   6.517 -0.2774 -0.8345  0.4385
  118OSM    C4S12319   2.961   6.051   6.270  0.0450 -0.2245 -0.0370
  118OSM    H4S12320   3.058   6.088   6.233  0.0693 -1.1978 -1.0266
  118OSM    C5S12321   2.852   6.040   6.196 -0.0929  0.3420 -0.0708
  118OSM    H5S12322   2.760   6.014   6.250 -0.3492  2.9083  0.8340
  118OSM    C6S12323   2.844   6.076   6.049 -0.4222 -0.2498  0.1921
  118OSM    H6S12324   2.933   6.133   6.016  0.4916 -0.5882  1.9706
  118OSM    H6T12325   2.754   6.138   6.030 -0.0367  0.0431 -0.7476
  118OSM    C7S12326   2.820   5.955   5.956  0.2339  0.3930 -0.1600
  118OSM    H7S12327   2.734   5.897   5.995 -0.2295  0.2362 -1.3643
  118OSM    H7T12328   2.908   5.888   5.957  0.3828  0.5782 -0.4652
  118OSM    C8S12329   2.792   5.990   5.809 -0.2093 -0.4903  1.1158
  118OSM    H8S12330   2.874   6.051   5.765  0.0174 -0.6921  1.2549
  118OSM    H8T12331   2.707   6.060   5.801  2.1390  2.4368  0.0731
  118OSM    C9S12332   2.765   5.870   5.721  0.5355  0.9127 -0.2204
  118OSM    H9S12333   2.684   5.808   5.767  2.0296 -0.0513  1.2249
  118OSM    H9T12334   2.851   5.802   5.705  1.3252  2.0990 -1.1400
  118OSM   C10S12335   2.721   5.910   5.575 -0.0070 -0.3982  0.2304
  118OSM   H10S12336   2.649   5.994   5.581 -0.8522 -1.2080  3.5132
  118OSM   H10T12337   2.669   5.824   5.526  2.0903 -1.2591 -0.6259
  118OSM   C11S12338   2.834   5.942   5.469  0.1155  0.8938 -0.2666
  118OSM   H11S12339   2.916   5.872   5.497 -0.6416  0.7145  1.6383
  118OSM   H11T12340   2.869   6.046   5.483 -1.6980  1.4947  0.0617
  118OSM   C12S12341   2.791   5.914   5.323  0.2543  0.2394 -0.1523
  118OSM   H12S12342   2.756   5.809   5.318  1.6009 -0.2168 -0.1779
  118OSM   H12T12343   2.878   5.922   5.254  0.6543  0.0524  0.3313
  118OSM   C13S12344   2.694   6.026   5.283 -0.5564 -0.3007  0.3016
  118OSM   H13S12345   2.760   6.115   5.273 -1.6720  0.5899  0.6877
  118OSM   H13T12346   2.620   6.048   5.363  1.1220  3.9078  0.9896
  118OSM   C14S12347   2.620   5.996   5.156  0.2055  0.1195 -0.0264
  118OSM   H14S12348   2.526   5.942   5.181 -0.5840  1.0900 -0.7946
  118OSM   H14T12349   2.679   5.927   5.091 -2.3531  0.1256 -2.5582
  118OSM   C15S12350   2.593   6.117   5.067  0.0592 -0.4654  0.5155
  118OSM   H15S12351   2.680   6.186   5.066  0.9352 -1.5158 -0.7816
  118OSM   H15T12352   2.509   6.173   5.113  0.7515  1.2041 -0.1866
  118OSM   C16S12353   2.572   6.078   4.920 -0.6370  0.0503  0.1674
  118OSM   H16S12354   2.508   5.987   4.916 -0.6499 -0.0600  1.9892
  118OSM   H16T12355   2.669   6.047   4.876 -1.2061 -0.3943 -0.8266
  118OSM   C17S12356   2.510   6.189   4.832 -0.4033 -0.1523  0.0462
  118OSM   H17S12357   2.578   6.277   4.837 -0.6754  0.1329 -0.9854
  118OSM   H17T12358   2.413   6.225   4.872 -0.0683 -0.2559  0.9946
  118OSM   C18S12359   2.499   6.150   4.684  0.6384  0.1595 -0.1264
  118OSM   H18S12360   2.449   6.235   4.634  2.0188  1.3748  0.4684
  118OSM   H18T12361   2.458   6.048   4.671  1.0021 -0.5134  3.1763
  118OSM   H18U12362   2.600   6.136   4.640  0.5336 -0.1164 -0.2857
  118OSM    C1F12363   2.896   6.384   6.477 -0.0686 -0.2000 -0.7185
  118OSM     OF12364   2.992   6.431   6.534  0.3232 -0.0494 -0.4001
  118OSM    C2F12365   2.776   6.472   6.439 -0.8030 -0.0638  0.0267
  118OSM    H2F12366   2.752   6.554   6.511 -1.8008 -0.0244 -0.3311
  118OSM    H2G12367   2.681   6.415   6.432 -1.0059  0.0908  1.2867
  118OSM    C3F12368   2.801   6.545   6.303  0.3034 -0.3683  1.1062
  118OSM    H3F12369   2.903   6.588   6.300  0.4276 -0.5641 -2.5137
  118OSM    H3G12370   2.728   6.626   6.281  0.2693 -0.3214  1.3963
  118OSM    C4F12371   2.788   6.438   6.184  0.6239  0.1046  0.0562
  118OSM    H4F12372   2.690   6.386   6.175  0.7870 -0.2932  0.5262
  118OSM    H4G12373   2.856   6.354   6.210 -1.6397 -1.4397  1.4413
  118OSM    C5F12374   2.815   6.497   6.045 -0.3189  0.8498 -0.4011
  118OSM    H5F12375   2.925   6.514   6.041 -0.0366 -0.9175 -1.6319
  118OSM    H5G12376   2.772   6.599   6.046 -1.7239  0.2942 -1.6403
  118OSM    C6F12377   2.782   6.419   5.922 -0.3767  0.2388 -0.5872
  118OSM    H6F12378   2.675   6.391   5.936 -0.9405  2.5421  0.0853
  118OSM    H6G12379   2.841   6.325   5.910 -1.1160 -0.1881 -0.9232
  118OSM    C7F12380   2.782   6.504   5.798 -0.9769 -0.3604  0.0462
  118OSM    H7F12381   2.887   6.520   5.765 -0.5735 -2.9388 -0.1035
  118OSM    H7G12382   2.736   6.600   5.830  1.4953  0.6111  0.9174
  118OSM    C8F12383   2.695   6.450   5.688 -0.3496 -0.4030  0.4100
  118OSM    H8F12384   2.692   6.534   5.615  0.9512 -1.7019 -1.2449
  118OSM    H8G12385   2.592   6.431   5.723 -0.7880 -2.3538 -1.6878
  118OSM    C9F12386   2.756   6.339   5.613  0.1117 -0.1410  0.6569
  118OSM    H9F12387   2.801   6.261   5.677 -2.3103 -1.1431  1.2408
  118OSM   C10F12388   2.795   6.335   5.479 -0.2624 -0.2151  0.6518
  118OSM   H10F12389   2.863   6.256   5.442 -1.0247 -0.6905  0.2443
  118OSM   C11F12390   2.749   6.433   5.372  1.2750  0.0599  0.0430
  118OSM   H11F12391   2.653   6.481   5.399  1.9932  1.5464  0.0759
  118OSM   H11G12392   2.723   6.372   5.284 -1.3718  1.1541 -0.0266
  118OSM   C12F12393   2.850   6.542   5.326  0.1754  0.6338  0.1293
  118OSM   H12F12394   2.944   6.484   5.318 -1.2383 -1.7130 -0.6180
  118OSM   H12G12395   2.855   6.631   5.391  0.1872  0.7435 -0.0226
  118OSM   C13F12396   2.824   6.577   5.183  0.5948 -0.1485 -0.3392
  118OSM   H13F12397   2.721   6.619   5.173 -0.4972 -2.6222 -0.0356
  118OSM   H13G12398   2.821   6.481   5.128 -4.5087 -0.9644  0.8420
  118OSM   C14F12399   2.924   6.673   5.130 -0.0345 -0.1257  0.0700
  118OSM   H14F12400   3.023   6.641   5.170 -0.2677 -0.7108  0.1852
  118OSM   H14G12401   2.900   6.778   5.157 -0.5490 -0.1983 -0.0976
  118OSM   C15F12402   2.937   6.663   4.978 -0.0720  0.1217  0.4568
  118OSM   H15F12403   2.849   6.706   4.925  1.6096 -0.6306 -3.2539
  118OSM   H15G12404   2.955   6.556   4.956 -0.3123  0.0537  0.5848
  118OSM   C16F12405   3.055   6.745   4.923 -0.5413  0.9636  0.2676
  118OSM   H16F12406   3.148   6.692   4.953 -0.7037  1.0653  0.9698
  118OSM   H16G12407   3.070   6.843   4.973  0.2300  0.0479  1.9279
  118OSM   C17F12408   3.056   6.769   4.769 -0.7739  0.1840 -0.4604
  118OSM   H17F12409   3.128   6.852   4.751 -3.1811  2.2282 -1.2289
  118OSM   H17G12410   2.953   6.801   4.744 -1.4702 -0.6190  1.2351
  118OSM   C18F12411   3.112   6.650   4.686 -0.0627 -0.0763 -0.1929
  118OSM   H18F12412   3.109   6.684   4.581 -1.8117  0.3989 -0.0298
  118OSM   H18G12413   3.042   6.564   4.696 -0.4730  0.3618  0.9666
  118OSM   H18H12414   3.216   6.621   4.711  0.1527  1.7312  1.2054
  119OSM      N12415   3.138   2.093   6.997  0.0597  0.2713 -0.6872
  119OSM    C1512416   3.206   2.007   7.094 -0.4715 -0.6210 -0.4009
  119OSM   H15A12417   3.311   2.025   7.115 -0.7114  0.5510 -0.1715
  119OSM   H15B12418   3.199   1.905   7.057 -0.1152  0.0282 -2.3532
  119OSM   H15C12419   3.151   2.020   7.186 -1.2876  1.0573 -1.0935
  119OSM    C1412420   3.186   2.233   7.027 -0.4490 -0.3367 -0.2318
  119OSM   H14A12421   3.288   2.223   7.059 -0.7355 -5.3411 -0.1414
  119OSM   H14B12422   3.127   2.280   7.105  0.1265  0.9468 -0.5445
  119OSM   H14C12423   3.178   2.294   6.938 -1.3736 -2.2581 -1.5574
  119OSM    C1312424   3.187   2.066   6.859  1.2244 -0.0382 -0.6117
  119OSM   H13A12425   3.289   2.100   6.854  1.0124  0.8933  0.8512
  119OSM   H13B12426   3.111   2.117   6.802 -0.3189  0.1081  1.4612
  119OSM   H13C12427   3.170   1.963   6.830 -2.2126  1.1291 -3.6298
  119OSM    C1212428   2.989   2.083   7.005  0.4152 -0.0225 -0.3072
  119OSM   H12A12429   2.955   1.981   6.992  3.3416 -1.4677  2.1936
  119OSM   H12B12430   2.956   2.136   6.917  1.1576  1.0437  0.0367
  119OSM    C1112431   2.909   2.131   7.128  0.3077  0.7222 -0.2133
  119OSM   H11A12432   2.800   2.121   7.107  0.4836 -0.8640 -0.4993
  119OSM   H11B12433   2.920   2.239   7.150  3.7594  0.0692  2.0199
  119OSM      P12434   2.892   1.911   7.262  0.0055 -0.3731 -0.1233
  119OSM    O1312435   3.016   1.838   7.305 -0.0980 -0.0215  1.1134
  119OSM    O1412436   2.778   1.918   7.354 -0.6007 -0.1254  0.1433
  119OSM    O1112437   2.850   1.849   7.125 -0.1955  0.2823  0.2334
  119OSM    O1212438   2.953   2.058   7.243  0.7162 -0.4183 -0.7367
  119OSM    C1S12439   2.730   1.871   7.051  0.6746  0.3484  0.5201
  119OSM    H1S12440   2.751   1.936   6.963 -0.2011  1.9845  1.4786
  119OSM    H1T12441   2.640   1.908   7.104 -1.4946 -1.6918 -1.4777
  119OSM     NF12442   2.585   1.756   6.902  0.0679 -0.6976 -0.2801
  119OSM    HNF12443   2.490   1.751   6.931  0.1310 -0.6397 -0.0590
  119OSM    C2S12444   2.685   1.737   6.999 -0.0779 -0.3825 -0.2148
  119OSM    H2S12445   2.774   1.692   6.950  0.4374  0.3236  0.0553
  119OSM    C3S12446   2.636   1.647   7.114  0.2822 -0.3995 -0.1241
  119OSM    H3S12447   2.550   1.684   7.172  1.1902 -0.7967  1.5341
  119OSM     O312448   2.738   1.634   7.207 -0.2299 -0.3420  0.0538
  119OSM    HO312449   2.789   1.714   7.189  0.6179 -0.4634  1.7152
  119OSM    C4S12450   2.590   1.516   7.045  0.2414 -0.4774 -0.4191
  119OSM    H4S12451   2.663   1.470   6.977  1.6074  0.3870  0.4108
  119OSM    C5S12452   2.467   1.469   7.055 -0.3340  0.2411  0.1037
  119OSM    H5S12453   2.393   1.512   7.125 -0.9997 -0.2696 -0.2769
  119OSM    C6S12454   2.425   1.354   6.971  0.8768  0.2443 -0.3763
  119OSM    H6S12455   2.338   1.385   6.909 -1.8830 -2.3416  1.8649
  119OSM    H6T12456   2.367   1.277   7.026  0.0855 -0.3806 -1.9905
  119OSM    C7S12457   2.527   1.282   6.875 -0.2271 -0.3673 -0.2035
  119OSM    H7S12458   2.483   1.187   6.838 -2.3389  0.9284 -1.2055
  119OSM    H7T12459   2.620   1.257   6.930  1.6023  1.2689 -2.3470
  119OSM    C8S12460   2.555   1.365   6.746 -0.2297  0.6298 -0.3246
  119OSM    H8S12461   2.630   1.438   6.783 -1.0429  0.6143  1.4505
  119OSM    H8T12462   2.464   1.417   6.710 -2.2850 -1.1368  1.9452
  119OSM    C9S12463   2.613   1.290   6.628  0.5139  0.0899  0.4075
  119OSM    H9S12464   2.536   1.218   6.592  1.1517  0.7550 -2.5919
  119OSM    H9T12465   2.704   1.236   6.661  0.0573 -0.6615  0.4653
  119OSM   C10S12466   2.644   1.388   6.515 -0.0020 -1.1370  0.5559
  119OSM   H10S12467   2.697   1.479   6.549 -1.6425  1.5118 -3.2451
  119OSM   H10T12468   2.547   1.434   6.487 -0.3856 -0.7466  2.3914
  119OSM   C11S12469   2.719   1.332   6.399  0.7109  0.4675  0.0586
  119OSM   H11S12470   2.682   1.231   6.373  0.2391  0.9609 -1.3184
  119OSM   H11T12471   2.825   1.325   6.431  0.3581 -2.1255  0.8343
  119OSM   C12S12472   2.717   1.410   6.262 -0.0441  0.3360  0.7041
  119OSM   H12S12473   2.757   1.513   6.269  0.8439  0.1241 -0.7507
  119OSM   H12T12474   2.614   1.428   6.224  0.6971  0.5838 -1.3658
  119OSM   C13S12475   2.802   1.337   6.159  0.0496 -0.6813 -0.1859
  119OSM   H13S12476   2.807   1.226   6.161 -1.1094 -0.7577 -0.7052
  119OSM   H13T12477   2.907   1.371   6.169  0.1124 -0.5553 -1.2649
  119OSM   C14S12478   2.758   1.389   6.019 -0.2366 -0.1712  0.2963
  119OSM   H14S12479   2.751   1.499   6.011  3.1236  0.0510 -1.0530
  119OSM   H14T12480   2.656   1.352   5.994  0.4579 -1.4992 -0.7238
  119OSM   C15S12481   2.855   1.341   5.915 -0.4332  0.5732  0.3769
  119OSM   H15S12482   2.841   1.231   5.906 -0.6771  0.5249  1.2501
  119OSM   H15T12483   2.958   1.366   5.950 -0.7626  2.2161  0.2656
  119OSM   C16S12484   2.831   1.410   5.776  0.4175  0.0975  0.2071
  119OSM   H16S12485   2.825   1.520   5.788 -1.9063 -0.0530  0.9944
  119OSM   H16T12486   2.737   1.368   5.733 -0.2493  1.9746 -0.2739
  119OSM   C17S12487   2.932   1.375   5.668 -1.1301  0.7483  0.4773
  119OSM   H17S12488   2.936   1.264   5.662  1.4573  0.8509 -1.2941
  119OSM   H17T12489   3.031   1.407   5.706 -0.8324 -0.0502  0.4049
  119OSM   C18S12490   2.901   1.438   5.530 -0.5320  0.3255  0.4919
  119OSM   H18S12491   2.885   1.548   5.536  0.1019  0.5619 -1.4818
  119OSM   H18T12492   2.813   1.390   5.481  1.2879  0.4390 -3.2239
  119OSM   H18U12493   2.986   1.427   5.460 -0.4759  1.4678  0.3577
  119OSM    C1F12494   2.613   1.786   6.774  0.2610  0.1973 -0.2236
  119OSM     OF12495   2.729   1.800   6.743  1.0198  0.6418  0.2627
  119OSM    C2F12496   2.495   1.800   6.679 -0.6390  0.2937  0.6171
  119OSM    H2F12497   2.402   1.793   6.740 -0.7818  1.6406  0.5936
  119OSM    H2G12498   2.495   1.705   6.622 -0.4602 -0.7368  2.2790
  119OSM    C3F12499   2.508   1.921   6.580  0.6755 -0.1965  0.6266
  119OSM    H3F12500   2.597   1.912   6.514 -0.5271  1.7404 -1.3885
  119OSM    H3G12501   2.521   2.011   6.643 -0.0926 -0.5507  1.3030
  119OSM    C4F12502   2.374   1.936   6.498 -0.2088  0.3254  0.1608
  119OSM    H4F12503   2.389   2.012   6.418  1.8092 -1.5830 -1.3917
  119OSM    H4G12504   2.295   1.976   6.566 -1.2154 -0.4540 -0.5101
  119OSM    C5F12505   2.331   1.812   6.418  0.2558 -0.2785  0.0492
  119OSM    H5F12506   2.299   1.727   6.483 -0.8407  0.4446  0.4837
  119OSM    H5G12507   2.423   1.780   6.363  0.7386  0.8154  0.2023
  119OSM    C6F12508   2.221   1.840   6.317  0.3063  0.1131  0.2935
  119OSM    H6F12509   2.131   1.855   6.381 -0.8831 -0.0791 -1.2714
  119OSM    H6G12510   2.208   1.746   6.260  1.6325  0.0381  0.0808
  119OSM    C7F12511   2.218   1.953   6.213 -0.1695 -0.1346 -0.5919
  119OSM    H7F12512   2.229   2.055   6.256 -2.1024 -0.4444  0.7875
  119OSM    H7G12513   2.111   1.954   6.183 -0.4599  0.4923  0.4092
  119OSM    C8F12514   2.310   1.933   6.093  0.4662  0.0226  0.1116
  119OSM    H8F12515   2.297   2.012   6.016  0.3122  1.2549  1.3594
  119OSM    H8G12516   2.291   1.834   6.048 -0.4993  0.2927 -0.1008
  119OSM    C9F12517   2.454   1.952   6.128 -0.9848  0.0157  0.6744
  119OSM    H9F12518   2.473   2.054   6.166 -0.4284  0.7039 -1.3349
  119OSM   C10F12519   2.558   1.867   6.105  0.4526 -0.7048  0.0517
  119OSM   H10F12520   2.657   1.902   6.135  1.4862 -2.8523 -0.6607
  119OSM   C11F12521   2.553   1.732   6.051 -0.6945  0.4997 -0.3233
  119OSM   H11F12522   2.448   1.695   6.045 -1.0519  1.5003 -0.4346
  119OSM   H11G12523   2.606   1.668   6.125 -0.1053  0.6108 -0.6440
  119OSM   C12F12524   2.604   1.718   5.902  0.0694  0.7389  0.2392
  119OSM   H12F12525   2.603   1.611   5.872  1.1193  0.7689  0.0601
  119OSM   H12G12526   2.708   1.755   5.894  0.7999 -1.3471 -0.5395
  119OSM   C13F12527   2.517   1.795   5.798  0.1744 -0.1027  0.5412
  119OSM   H13F12528   2.516   1.903   5.825  1.3135 -0.5468  2.5470
  119OSM   H13G12529   2.412   1.761   5.812 -0.0007  0.4169  0.5289
  119OSM   C14F12530   2.550   1.781   5.657 -0.5595 -0.1747  1.0224
  119OSM   H14F12531   2.475   1.843   5.603 -1.0025 -1.5147  0.0284
  119OSM   H14G12532   2.540   1.678   5.616  1.3309  1.1833 -3.5531
  119OSM   C15F12533   2.696   1.828   5.625  0.5862 -0.6516 -0.2615
  119OSM   H15F12534   2.763   1.764   5.686 -1.2146 -2.0679  0.3155
  119OSM   H15G12535   2.704   1.932   5.664 -0.9238 -1.0410  1.1990
  119OSM   C16F12536   2.722   1.809   5.482  0.3571  0.2486  0.3453
  119OSM   H16F12537   2.647   1.861   5.418  1.0959 -1.8322 -2.3833
  119OSM   H16G12538   2.718   1.699   5.470  0.2481  0.4466 -1.8665
  119OSM   C17F12539   2.864   1.845   5.435  0.2659  0.1314 -0.1820
  119OSM   H17F12540   2.934   1.781   5.493 -0.7872 -2.5421 -1.6642
  119OSM   H17G12541   2.889   1.950   5.461  4.1778 -0.9750  1.2540
  119OSM   C18F12542   2.899   1.822   5.283  0.4133 -0.4765 -0.0052
  119OSM   H18F12543   3.005   1.851   5.268  1.3616 -2.4484  2.1875
  119OSM   H18G12544   2.821   1.863   5.215 -0.5511 -0.9426  0.7917
  119OSM   H18H12545   2.905   1.711   5.272  0.5301 -0.3143 -1.9740
  120OSM      N12546   6.713   0.493   7.224 -0.3670 -0.0380 -0.7531
  120OSM    C1512547   6.749   0.568   7.102 -0.8336  0.5174  0.6766
  120OSM   H15A12548   6.803   0.507   7.031 -2.9980 -0.9149  0.1594
  120OSM   H15B12549   6.814   0.649   7.132  0.5193 -1.6423  4.3622
  120OSM   H15C12550   6.654   0.596   7.060  0.2823  3.0148 -0.3828
  120OSM    C1412551   6.675   0.584   7.334  0.0381 -0.1868 -0.5515
  120OSM   H14A12552   6.640   0.526   7.418  0.8354 -2.1683 -1.5139
  120OSM   H14B12553   6.585   0.637   7.305 -1.0724 -2.3957 -1.3917
  120OSM   H14C12554   6.758   0.649   7.353 -0.3498  0.3641 -0.7153
  120OSM    C1312555   6.596   0.395   7.206  0.6454  0.0450 -0.2120
  120OSM   H13A12556   6.501   0.435   7.173  0.9499  0.4944 -0.5528
  120OSM   H13B12557   6.573   0.362   7.306 -0.3082  1.6634  0.1366
  120OSM   H13C12558   6.620   0.314   7.138  0.2280 -0.1541 -0.1253
  120OSM    C1212559   6.831   0.413   7.261 -0.6249  0.2413  0.3063
  120OSM   H12A12560   6.921   0.472   7.262  0.2361 -1.0367 -0.0536
  120OSM   H12B12561   6.844   0.337   7.186 -1.4754  0.1991  0.1899
  120OSM    C1112562   6.828   0.334   7.397  0.2494 -0.6163 -0.0356
  120OSM   H11A12563   6.802   0.408   7.475  0.1849 -0.6829  0.0066
  120OSM   H11B12564   6.930   0.297   7.420  0.2354 -0.7689 -0.2174
  120OSM      P12565   6.766   0.087   7.330 -0.2618 -0.6127  0.3324
  120OSM    O1312566   6.874   0.019   7.410 -0.1425  0.0822  0.0725
  120OSM    O1412567   6.640   0.013   7.322 -0.5389  0.2425  0.5461
  120OSM    O1112568   6.828   0.128   7.197  0.1062 -0.4744  0.6205
  120OSM    O1212569   6.736   0.228   7.404  0.4769  0.1853  0.0189
  120OSM    C1S12570   6.756   0.101   7.072 -0.3477  1.0936 -0.4149
  120OSM    H1S12571   6.673   0.175   7.070 -0.3527  1.3731  3.2022
  120OSM    H1T12572   6.718  -0.003   7.074 -1.6259  1.5512  1.1352
  120OSM     NF12573   6.758   0.133   6.826 -0.5222 -0.1494 -0.2649
  120OSM    HNF12574   6.758   0.047   6.776  1.8930 -0.5978  0.3789
  120OSM    C2S12575   6.835   0.140   6.949  0.3207  0.0353 -0.5292
  120OSM    H2S12576   6.856   0.247   6.971  1.9211 -0.5135  0.8413
  120OSM    C3S12577   6.960   0.056   6.933  0.4362 -0.1681  0.1933
  120OSM    H3S12578   6.922  -0.048   6.927 -0.5979  0.2005  0.1687
  120OSM     O312579   7.047   0.055   7.044  0.0829 -0.0057 -1.3742
  120OSM    HO312580   6.992   0.083   7.117 -0.0099 -0.1638 -1.3811
  120OSM    C4S12581   7.042   0.106   6.815  0.3672  0.5364 -0.3702
  120OSM    H4S12582   7.052   0.215   6.810  0.3759  0.5035 -1.0525
  120OSM    C5S12583   7.080   0.029   6.716 -0.0522  0.7226 -0.1312
  120OSM    H5S12584   7.051  -0.077   6.717  1.9604  0.1387 -0.0522
  120OSM    C6S12585   7.159   0.082   6.600 -0.3249 -0.0167 -0.2213
  120OSM    H6S12586   7.264   0.052   6.620 -0.5267  1.2704  3.7864
  120OSM    H6T12587   7.156   0.193   6.595 -0.5615 -0.0504 -0.8994
  120OSM    C7S12588   7.101   0.021   6.469 -0.8252  0.1585  0.2670
  120OSM    H7S12589   6.994   0.047   6.459 -0.6452  0.5291 -0.8047
  120OSM    H7T12590   7.112  -0.090   6.470  0.4236  0.2622  1.2241
  120OSM    C8S12591   7.173   0.076   6.345  0.9407 -0.3994 -0.4735
  120OSM    H8S12592   7.281   0.050   6.348  0.4980 -2.2402  0.3309
  120OSM    H8T12593   7.175   0.187   6.350 -0.2657 -0.2902 -1.8709
  120OSM    C9S12594   7.107   0.036   6.214 -0.1959  0.4563  0.7107
  120OSM    H9S12595   7.008   0.086   6.208 -0.0820  0.5179 -2.5229
  120OSM    H9T12596   7.103  -0.075   6.214 -0.0477  0.4267 -1.1645
  120OSM   C10S12597   7.177   0.079   6.085  0.1754 -0.1344 -0.5129
  120OSM   H10S12598   7.108   0.036   6.009 -1.4195  0.5072  0.5113
  120OSM   H10T12599   7.282   0.048   6.068 -0.0563 -0.6231 -1.1189
  120OSM   C11S12600   7.168   0.238   6.063 -0.5839  0.2888 -0.2674
  120OSM   H11S12601   7.215   0.282   6.154 -0.1842 -1.5688  0.4697
  120OSM   H11T12602   7.062   0.269   6.072 -0.5937  0.7037 -1.5513
  120OSM   C12S12603   7.246   0.277   5.936  0.7847 -0.2646 -0.1663
  120OSM   H12S12604   7.345   0.227   5.933  0.8722 -0.1480 -3.7717
  120OSM   H12T12605   7.257   0.387   5.939 -0.8393 -0.0981  0.8915
  120OSM   C13S12606   7.180   0.230   5.802  0.0772  0.1083 -0.2714
  120OSM   H13S12607   7.196   0.120   5.795 -0.7513 -0.3528  3.1221
  120OSM   H13T12608   7.238   0.274   5.718  1.6331 -0.7115  0.3234
  120OSM   C14S12609   7.035   0.268   5.795 -0.4683 -0.3454  0.6759
  120OSM   H14S12610   7.015   0.373   5.824  1.4922  0.0895  0.5766
  120OSM   H14T12611   6.977   0.209   5.870  0.1488 -0.2071  1.2702
  120OSM   C15S12612   6.971   0.235   5.655  0.5847  0.1435 -0.5564
  120OSM   H15S12613   6.989   0.130   5.622  1.9370 -0.1505  0.9746
  120OSM   H15T12614   7.028   0.304   5.588  2.3191  1.0413  1.6946
  120OSM   C16S12615   6.820   0.252   5.639 -0.9240 -0.5547  0.1770
  120OSM   H16S12616   6.766   0.202   5.722 -3.1910 -0.0256 -0.9152
  120OSM   H16T12617   6.790   0.202   5.544  0.2614  0.4448 -0.7656
  120OSM   C17S12618   6.781   0.400   5.626  0.2119  0.5960  0.4253
  120OSM   H17S12619   6.877   0.456   5.618  1.4803 -1.6245 -0.9195
  120OSM   H17T12620   6.730   0.430   5.720  1.9117  0.0277  1.5720
  120OSM   C18S12621   6.684   0.437   5.511 -0.3797 -0.0744  0.0680
  120OSM   H18S12622   6.703   0.386   5.414 -1.4143 -0.1129 -0.1319
  120OSM   H18T12623   6.674   0.545   5.489 -0.3304  0.3327  1.9425
  120OSM   H18U12624   6.578   0.409   5.531 -0.7109  1.7548  1.1206
  120OSM    C1F12625   6.672   0.233   6.793 -0.2143  0.0940 -0.3506
  120OSM     OF12626   6.679   0.343   6.849  0.0520  0.5273  0.1507
  120OSM    C2F12627   6.570   0.208   6.691 -0.1046  0.3015  0.5516
  120OSM    H2F12628   6.470   0.239   6.728 -0.6822 -0.3841 -0.3783
  120OSM    H2G12629   6.573   0.103   6.656 -0.0239  1.3035 -2.8821
  120OSM    C3F12630   6.604   0.295   6.561 -0.0778 -0.1281  0.4943
  120OSM    H3F12631   6.616   0.402   6.586 -0.7191 -0.0246  0.3695
  120OSM    H3G12632   6.515   0.283   6.496 -0.4673 -1.5301  1.2368
  120OSM    C4F12633   6.735   0.256   6.487 -0.0362 -0.1508 -0.6427
  120OSM    H4F12634   6.739   0.145   6.478 -0.4297 -0.1101 -1.4066
  120OSM    H4G12635   6.816   0.302   6.547 -0.6016  0.8414 -0.6085
  120OSM    C5F12636   6.746   0.313   6.343 -0.3154  0.5386  0.6669
  120OSM    H5F12637   6.848   0.282   6.315 -1.9874 -2.7519 -2.6023
  120OSM    H5G12638   6.757   0.423   6.340  2.1910  0.3565  1.3454
  120OSM    C6F12639   6.659   0.254   6.239 -0.2629  0.4515  0.6542
  120OSM    H6F12640   6.554   0.273   6.270 -0.0517  3.0638  0.0060
  120OSM    H6G12641   6.689   0.147   6.235 -0.9017  0.2954 -1.6362
  120OSM    C7F12642   6.687   0.324   6.099 -0.5507 -0.8349 -0.7366
  120OSM    H7F12643   6.785   0.305   6.051  0.2756  1.5031 -0.1325
  120OSM    H7G12644   6.679   0.435   6.104  1.0276 -0.5493 -2.9287
  120OSM    C8F12645   6.588   0.280   5.990 -0.5808  0.4044 -0.4465
  120OSM    H8F12646   6.598   0.169   5.998 -1.2836  0.3820  0.2341
  120OSM    H8G12647   6.633   0.330   5.902  0.8482 -1.2532 -0.7153
  120OSM    C9F12648   6.442   0.313   6.006  0.0794  0.0886 -0.5423
  120OSM    H9F12649   6.405   0.303   6.109 -0.2578  4.5755 -0.0321
  120OSM   C10F12650   6.364   0.382   5.920 -1.1477 -0.0685  0.1718
  120OSM   H10F12651   6.257   0.393   5.944 -1.5862 -0.7126 -1.3419
  120OSM   C11F12652   6.404   0.436   5.783 -0.0991 -0.3319  0.4253
  120OSM   H11F12653   6.514   0.444   5.766  1.2614 -0.1279  6.8618
  120OSM   H11G12654   6.360   0.537   5.773 -0.5341 -0.4209  1.3397
  120OSM   C12F12655   6.334   0.355   5.669  0.2055  0.2833 -0.1658
  120OSM   H12F12656   6.340   0.410   5.573  0.1629  3.7816  1.6232
  120OSM   H12G12657   6.224   0.370   5.681  0.3696  0.5727  1.1325
  120OSM   C13F12658   6.388   0.212   5.651 -0.4101 -0.1467 -0.3871
  120OSM   H13F12659   6.373   0.165   5.750  0.1057 -1.2701 -0.8244
  120OSM   H13G12660   6.495   0.232   5.631 -0.3682  1.1815  1.0030
  120OSM   C14F12661   6.320   0.126   5.543 -0.4404 -0.3596 -0.1240
  120OSM   H14F12662   6.391   0.052   5.500  0.9900  1.1184 -0.3719
  120OSM   H14G12663   6.301   0.196   5.459 -1.1480  0.0176  0.3396
  120OSM   C15F12664   6.187   0.052   5.575 -0.0730 -0.5701 -0.0887
  120OSM   H15F12665   6.108   0.127   5.597  0.4159  0.4684 -1.6625
  120OSM   H15G12666   6.207  -0.018   5.659 -3.0603  0.5491  1.6996
  120OSM   C16F12667   6.119  -0.028   5.457  0.4408  0.4890 -0.6720
  120OSM   H16F12668   6.160  -0.131   5.466 -2.3503 -0.5685  2.4392
  120OSM   H16G12669   6.144   0.028   5.365  2.2411 -0.1081 -0.5775
  120OSM   C17F12670   5.969  -0.061   5.487 -0.5869  0.4189  0.2894
  120OSM   H17F12671   5.921  -0.105   5.397  1.2475 -2.9047  0.7773
  120OSM   H17G12672   5.913   0.031   5.512 -0.1472  0.2341  2.0863
  120OSM   C18F12673   5.955  -0.150   5.608  0.8268 -0.4496  0.2045
  120OSM   H18F12674   5.849  -0.140   5.638  0.8700 -1.0336  0.5656
  120OSM   H18G12675   6.027  -0.113   5.685 -0.4741 -0.5040  1.4986
  120OSM   H18H12676   5.977  -0.253   5.574 -1.1592 -0.5326 -0.9945
  121OSM      N12677   2.264   5.744   6.992  0.5849 -0.4004 -0.2995
  121OSM    C1512678   2.179   5.833   7.068 -0.2447  0.4792 -0.5114
  121OSM   H15A12679   2.140   5.778   7.152  3.1325 -1.6208 -0.1284
  121OSM   H15B12680   2.096   5.867   7.007  0.2236  2.7892  0.0214
  121OSM   H15C12681   2.232   5.923   7.095  0.0586  0.8184 -2.1068
  121OSM    C1412682   2.385   5.809   6.935 -0.5418  0.2249 -0.5003
  121OSM   H14A12683   2.362   5.900   6.881 -0.6231  0.7730  0.4310
  121OSM   H14B12684   2.438   5.733   6.880  1.2303  0.2791  1.0195
  121OSM   H14C12685   2.457   5.838   7.010 -0.2088 -0.2478 -0.6291
  121OSM    C1312686   2.322   5.646   7.089 -0.7451 -0.4238  0.2205
  121OSM   H13A12687   2.395   5.699   7.147 -2.8284  1.9115  0.8981
  121OSM   H13B12688   2.369   5.565   7.036 -1.8253 -0.3556 -0.8823
  121OSM   H13C12689   2.250   5.605   7.159 -1.9282 -0.4239 -0.9450
  121OSM    C1212690   2.198   5.661   6.884 -0.2077  0.0435 -0.2485
  121OSM   H12A12691   2.123   5.597   6.928 -1.7178  0.3637 -2.1999
  121OSM   H12B12692   2.274   5.591   6.850 -0.5013 -0.9109  0.9829
  121OSM    C1112693   2.119   5.730   6.766 -0.8383  0.0366  0.3903
  121OSM   H11A12694   2.095   5.656   6.687 -1.3819 -0.2286  0.7936
  121OSM   H11B12695   2.196   5.801   6.729 -1.1339  0.9770  1.4890
  121OSM      P12696   1.882   5.706   6.852  0.4718  0.5117 -0.0322
  121OSM    O1312697   1.911   5.597   6.941 -0.2615 -0.0585 -0.2901
  121OSM    O1412698   1.776   5.805   6.881  0.0542  0.2682  0.0425
  121OSM    O1112699   1.842   5.634   6.711 -0.3308 -0.1384  0.0900
  121OSM    O1212700   2.005   5.800   6.817  0.1336  0.6527 -0.0368
  121OSM    C1S12701   1.835   5.728   6.599 -0.1497  0.8741 -0.0781
  121OSM    H1S12702   1.940   5.755   6.574  0.2389 -1.9269 -1.8842
  121OSM    H1T12703   1.785   5.824   6.626  0.1925  1.1634 -0.4570
  121OSM     NF12704   1.768   5.789   6.361 -0.1919  0.0946 -0.7217
  121OSM    HNF12705   1.677   5.819   6.334 -0.5403 -0.9364 -0.7346
  121OSM    C2S12706   1.770   5.680   6.469  0.0678 -0.4928 -0.0916
  121OSM    H2S12707   1.831   5.596   6.431  0.0220 -0.9918  0.9025
  121OSM    C3S12708   1.628   5.618   6.496 -0.0453  0.1786  0.9685
  121OSM    H3S12709   1.557   5.703   6.500 -1.0202 -0.3004 -2.6646
  121OSM     O312710   1.607   5.530   6.607  0.0337 -0.1249 -0.1318
  121OSM    HO312711   1.683   5.546   6.664  0.9836 -0.4108 -1.2778
  121OSM    C4S12712   1.586   5.536   6.373  0.2703  0.0395 -0.0545
  121OSM    H4S12713   1.674   5.508   6.313  0.8019  0.5125  0.4899
  121OSM    C5S12714   1.464   5.533   6.312  0.0363  0.7956  0.0758
  121OSM    H5S12715   1.376   5.587   6.349 -0.1786  1.3418 -1.1812
  121OSM    C6S12716   1.451   5.464   6.173 -0.2386 -0.0403 -0.5631
  121OSM    H6S12717   1.365   5.394   6.173 -0.2834 -0.0622  1.6914
  121OSM    H6T12718   1.542   5.405   6.147  1.7204  1.9590  1.2972
  121OSM    C7S12719   1.425   5.562   6.058  0.4975 -0.3267  0.4172
  121OSM    H7S12720   1.499   5.645   6.065 -0.9407  1.0108  0.4650
  121OSM    H7T12721   1.323   5.603   6.075  1.3713  1.9895  0.4580
  121OSM    C8S12722   1.426   5.495   5.918 -0.7510 -0.1335  0.1354
  121OSM    H8S12723   1.338   5.427   5.911  0.0979 -1.1195 -1.3554
  121OSM    H8T12724   1.521   5.437   5.925 -1.5218 -1.3162  1.3240
  121OSM    C9S12725   1.445   5.589   5.802 -0.1454  0.4983  0.4055
  121OSM    H9S12726   1.527   5.659   5.827  0.4868  0.0084 -0.2436
  121OSM    H9T12727   1.348   5.640   5.786 -1.4735 -2.3971 -1.7978
  121OSM   C10S12728   1.481   5.509   5.678 -0.7460 -0.2652 -0.6122
  121OSM   H10S12729   1.412   5.425   5.656 -1.7987  0.4735 -0.2312
  121OSM   H10T12730   1.587   5.482   5.695 -0.1449  2.6314  0.9944
  121OSM   C11S12731   1.480   5.598   5.546 -0.1150 -0.4715 -0.0120
  121OSM   H11S12732   1.520   5.700   5.563  1.8593 -1.0423 -0.9218
  121OSM   H11T12733   1.373   5.617   5.523 -1.1453 -2.5119  2.5506
  121OSM   C12S12734   1.544   5.540   5.421 -0.1223 -0.6321 -0.6722
  121OSM   H12S12735   1.655   5.533   5.421  0.0096  0.7203  1.0634
  121OSM   H12T12736   1.513   5.589   5.326  0.6803 -1.6411 -1.4738
  121OSM   C13S12737   1.492   5.399   5.404 -0.4497  0.2362 -0.0648
  121OSM   H13S12738   1.383   5.398   5.425 -0.5780 -1.3286 -0.6608
  121OSM   H13T12739   1.543   5.335   5.479  0.5057 -0.3875 -1.2114
  121OSM   C14S12740   1.517   5.349   5.259  0.3444 -0.6340 -0.0249
  121OSM   H14S12741   1.622   5.367   5.229  0.0404  0.6322 -0.3688
  121OSM   H14T12742   1.442   5.384   5.184 -2.4878  1.0407  3.2756
  121OSM   C15S12743   1.485   5.200   5.255 -0.2136  0.4644 -0.6268
  121OSM   H15S12744   1.379   5.196   5.289  0.3379 -0.2315  1.0793
  121OSM   H15T12745   1.542   5.149   5.335 -0.4839  1.5253  0.2703
  121OSM   C16S12746   1.511   5.120   5.129 -0.9153  0.8175 -0.0262
  121OSM   H16S12747   1.470   5.183   5.046 -0.8478  1.2811  0.2851
  121OSM   H16T12748   1.445   5.031   5.128  0.1976 -0.0378  0.4727
  121OSM   C17S12749   1.655   5.072   5.109 -0.2392 -0.4180 -0.3899
  121OSM   H17S12750   1.688   5.016   5.199  3.2716  0.1239 -1.2197
  121OSM   H17T12751   1.726   5.156   5.101 -0.4248 -0.4096 -2.3136
  121OSM   C18S12752   1.681   4.973   4.992  0.5568 -0.0820 -0.5338
  121OSM   H18S12753   1.782   4.926   4.998  0.2633 -0.6691 -0.1152
  121OSM   H18T12754   1.672   5.020   4.892 -1.1504 -0.8159 -0.7613
  121OSM   H18U12755   1.607   4.891   4.999  0.8649 -0.2951  0.5046
  121OSM    C1F12756   1.874   5.859   6.331 -0.2179 -0.1034 -0.3008
  121OSM     OF12757   1.992   5.813   6.349  0.1206 -0.2804  0.0675
  121OSM    C2F12758   1.844   5.991   6.276 -0.2523 -0.5427  0.3110
  121OSM    H2F12759   1.896   6.062   6.344  0.2844 -1.7749  1.2337
  121OSM    H2G12760   1.737   6.016   6.262  0.5488  4.9030  1.7391
  121OSM    C3F12761   1.917   6.015   6.141 -1.2872  0.2137 -1.3529
  121OSM    H3F12762   2.025   6.008   6.168 -1.6637 -1.6166 -0.1267
  121OSM    H3G12763   1.898   6.117   6.102  0.1220 -0.2089 -3.2794
  121OSM    C4F12764   1.872   5.904   6.041 -0.7575  0.0036 -0.1361
  121OSM    H4F12765   1.761   5.903   6.033 -0.8298  0.0830  0.8372
  121OSM    H4G12766   1.910   5.812   6.091  1.3603  1.2133  0.5728
  121OSM    C5F12767   1.936   5.890   5.898  0.3576  0.3085 -0.3786
  121OSM    H5F12768   2.042   5.862   5.915  0.1309  0.2388  0.9967
  121OSM    H5G12769   1.945   5.993   5.856  2.9706 -0.1327 -1.0319
  121OSM    C6F12770   1.857   5.798   5.802  0.1416  0.1374  0.0663
  121OSM    H6F12771   1.752   5.828   5.782 -0.4758 -2.2030 -0.5130
  121OSM    H6G12772   1.851   5.697   5.847  0.0856  0.8724  1.7694
  121OSM    C7F12773   1.932   5.780   5.662 -0.0720 -0.4832 -0.1293
  121OSM    H7F12774   2.042   5.770   5.674  0.2117 -0.7807 -2.4768
  121OSM    H7G12775   1.916   5.882   5.621 -2.7262 -0.9256 -0.3895
  121OSM    C8F12776   1.861   5.690   5.569 -0.0110  0.3911  0.4565
  121OSM    H8F12777   1.815   5.744   5.483  0.6728  0.1971 -0.0343
  121OSM    H8G12778   1.774   5.655   5.628 -0.3104  0.2736 -0.0437
  121OSM    C9F12779   1.933   5.569   5.518 -0.5489 -0.0623  0.8753
  121OSM    H9F12780   1.949   5.493   5.597  0.9115 -1.2096 -0.4481
  121OSM   C10F12781   2.011   5.570   5.405 -0.2107 -0.0486  0.0445
  121OSM   H10F12782   2.049   5.474   5.369  2.1538  1.4208 -1.6685
  121OSM   C11F12783   2.022   5.681   5.298  0.4862 -0.0400  0.6664
  121OSM   H11F12784   2.119   5.680   5.244 -0.1092 -3.1915 -0.5768
  121OSM   H11G12785   2.007   5.778   5.350  0.1347  0.0687  0.3706
  121OSM   C12F12786   1.913   5.661   5.184 -0.7574  0.1923 -0.5566
  121OSM   H12F12787   1.924   5.751   5.119 -3.1387  1.4060  0.6064
  121OSM   H12G12788   1.814   5.660   5.234 -1.2488  0.8720 -1.5038
  121OSM   C13F12789   1.925   5.536   5.092 -0.6338  0.1174 -0.1818
  121OSM   H13F12790   1.949   5.447   5.155  1.4641 -0.5213 -1.7763
  121OSM   H13G12791   2.016   5.548   5.031  0.3707 -1.7325  0.8535
  121OSM   C14F12792   1.803   5.503   5.010  0.1484  0.0071 -0.2658
  121OSM   H14F12793   1.771   5.596   4.958 -0.1582 -0.4113 -0.8366
  121OSM   H14G12794   1.714   5.465   5.066  0.3137 -0.2087 -0.1486
  121OSM   C15F12795   1.816   5.394   4.908  0.2306  1.1207  0.5196
  121OSM   H15F12796   1.841   5.301   4.964 -0.5174 -0.3510 -1.4680
  121OSM   H15G12797   1.902   5.411   4.840  0.5329 -0.3452  0.5084
  121OSM   C16F12798   1.683   5.365   4.826 -1.0852  0.0189  0.0067
  121OSM   H16F12799   1.601   5.320   4.886 -0.2749 -0.8489  0.4835
  121OSM   H16G12800   1.712   5.289   4.750 -2.2322  1.1066 -1.6195
  121OSM   C17F12801   1.621   5.494   4.758 -0.2363  0.5870  0.0632
  121OSM   H17F12802   1.612   5.573   4.836  0.8092 -0.8611  1.7328
  121OSM   H17G12803   1.520   5.478   4.715  0.2545  0.7088 -1.1738
  121OSM   C18F12804   1.714   5.539   4.650 -0.3163  0.3817 -0.6281
  121OSM   H18F12805   1.690   5.637   4.606  0.2350  0.6407 -0.3687
  121OSM   H18G12806   1.717   5.461   4.570 -0.0639 -2.0561  1.5902
  121OSM   H18H12807   1.817   5.550   4.692 -1.0705 -0.1385  1.4826
  122OSM      N12808   1.429   5.585   6.871 -0.2254 -0.1635 -0.1245
  122OSM    C1512809   1.372   5.462   6.806  0.2895  0.4544  0.0937
  122OSM   H15A12810   1.360   5.385   6.880  0.1808  0.8291  0.4673
  122OSM   H15B12811   1.439   5.413   6.737 -1.5036 -1.0370 -0.6894
  122OSM   H15C12812   1.273   5.474   6.765  1.1152  0.8468 -1.9393
  122OSM    C1412813   1.368   5.614   7.003 -0.1299  0.3949 -0.1065
  122OSM   H14A12814   1.409   5.701   7.052  1.8488  0.7377 -2.2439
  122OSM   H14B12815   1.377   5.527   7.066  0.8417  1.2666  0.9918
  122OSM   H14C12816   1.264   5.635   6.982 -0.1432  1.8477  1.2217
  122OSM    C1312817   1.569   5.551   6.906  0.0029 -0.1317  0.3481
  122OSM   H13A12818   1.622   5.514   6.820  1.7850  2.1088  0.3678
  122OSM   H13B12819   1.582   5.503   7.002  1.1203  1.5977  1.1208
  122OSM   H13C12820   1.617   5.648   6.915 -1.6204  0.7263  0.2080
  122OSM    C1212821   1.424   5.704   6.780 -0.6249  1.0032  0.6494
  122OSM   H12A12822   1.474   5.671   6.690 -0.2891  1.5096  0.6457
  122OSM   H12B12823   1.488   5.783   6.816 -0.7031  0.1571  2.7737
  122OSM    C1112824   1.286   5.769   6.744  0.1934 -0.3127 -0.5052
  122OSM   H11A12825   1.205   5.696   6.725 -1.8554  1.4546  0.9520
  122OSM   H11B12826   1.287   5.840   6.659  0.7475  0.9635  0.5257
  122OSM      P12827   1.297   5.986   6.890  0.1457  0.2431  0.0443
  122OSM    O1312828   1.277   6.015   7.031  0.3493 -0.0798 -0.1970
  122OSM    O1412829   1.436   5.999   6.841  0.0592 -0.0976 -0.1620
  122OSM    O1112830   1.206   6.070   6.802 -0.2034  0.1171  0.0185
  122OSM    O1212831   1.242   5.842   6.859 -0.1549 -0.5637  0.0268
  122OSM    C1S12832   1.206   6.082   6.662  0.7540  0.1388  0.2775
  122OSM    H1S12833   1.115   6.020   6.643  1.6785 -2.1946  2.8458
  122OSM    H1T12834   1.300   6.046   6.614  0.8307  0.2409  0.3525
  122OSM     NF12835   1.209   6.214   6.450 -0.0642  0.9199 -0.1810
  122OSM    HNF12836   1.300   6.212   6.410 -0.3116 -0.5130 -0.7362
  122OSM    C2S12837   1.193   6.221   6.595  0.1278  0.6737 -0.8594
  122OSM    H2S12838   1.088   6.244   6.622  0.6657  0.8912  1.2047
  122OSM    C3S12839   1.287   6.318   6.667  0.1156  0.1531  0.0701
  122OSM    H3S12840   1.393   6.287   6.655 -0.4962 -1.8915 -0.4423
  122OSM     O312841   1.272   6.345   6.803 -0.0942 -0.3769  0.2795
  122OSM    HO312842   1.202   6.288   6.833 -0.5732 -0.0471 -0.2026
  122OSM    C4S12843   1.264   6.454   6.605  0.0008  0.4575 -0.4115
  122OSM    H4S12844   1.159   6.486   6.594 -0.3047  1.8464  4.2142
  122OSM    C5S12845   1.358   6.531   6.547  0.6871 -0.4737 -0.5287
  122OSM    H5S12846   1.461   6.496   6.538  0.7823  0.0214 -1.3745
  122OSM    C6S12847   1.313   6.649   6.463 -0.5367 -0.2102 -0.9959
  122OSM    H6S12848   1.359   6.745   6.494  0.4290 -1.3814  1.4381
  122OSM    H6T12849   1.206   6.679   6.474 -0.4025  0.1226 -0.5700
  122OSM    C7S12850   1.324   6.627   6.316 -1.0822 -0.3808  0.0298
  122OSM    H7S12851   1.423   6.582   6.294 -0.3317  2.2055 -2.3503
  122OSM    H7T12852   1.317   6.723   6.261 -0.2045 -0.8272 -0.8914
  122OSM    C8S12853   1.211   6.539   6.252  0.0728 -0.4782 -0.1843
  122OSM    H8S12854   1.110   6.583   6.266  0.8632  1.6144 -0.6350
  122OSM    H8T12855   1.216   6.437   6.295  1.3367 -0.3376  0.0526
  122OSM    C9S12856   1.227   6.525   6.094  0.6960 -0.5430  0.4172
  122OSM    H9S12857   1.158   6.455   6.041 -0.5999  0.2401  1.0339
  122OSM    H9T12858   1.329   6.491   6.065 -0.4985 -1.6238 -3.0917
  122OSM   C10S12859   1.209   6.657   6.022 -0.5357 -0.6485 -0.3735
  122OSM   H10S12860   1.260   6.744   6.068  1.0648 -0.7018 -1.9072
  122OSM   H10T12861   1.104   6.692   6.019 -0.1450  0.5117 -1.3536
  122OSM   C11S12862   1.264   6.662   5.887 -0.5617  0.0432 -0.2569
  122OSM   H11S12863   1.224   6.578   5.827 -0.0740  0.2058 -0.8230
  122OSM   H11T12864   1.374   6.648   5.887 -0.2215  2.1576 -1.6644
  122OSM   C12S12865   1.218   6.792   5.824  0.2064 -1.0085 -0.5602
  122OSM   H12S12866   1.268   6.869   5.886 -0.0714 -0.6566 -0.7711
  122OSM   H12T12867   1.110   6.809   5.841  0.6283  2.2269 -0.4801
  122OSM   C13S12868   1.256   6.798   5.677 -0.4651 -0.7831 -0.3062
  122OSM   H13S12869   1.359   6.761   5.656 -1.0322 -0.9362 -3.3125
  122OSM   H13T12870   1.260   6.908   5.657  0.8747 -0.6202  0.7154
  122OSM   C14S12871   1.169   6.715   5.589  0.3998 -1.4584  0.8099
  122OSM   H14S12872   1.107   6.643   5.647 -0.3077 -0.7279  0.9671
  122OSM   H14T12873   1.230   6.666   5.510 -1.5099 -0.1432 -1.6057
  122OSM   C15S12874   1.072   6.804   5.500 -0.4207 -0.1991  0.0928
  122OSM   H15S12875   1.021   6.882   5.561  2.4163  0.1912  2.1958
  122OSM   H15T12876   0.996   6.741   5.450  0.4704 -0.0199 -1.5446
  122OSM   C16S12877   1.144   6.878   5.390 -0.2112  0.6443 -0.6320
  122OSM   H16S12878   1.192   6.797   5.331 -2.6634 -0.9581 -0.5774
  122OSM   H16T12879   1.225   6.938   5.436 -0.9113  1.6311 -0.6599
  122OSM   C17S12880   1.046   6.969   5.307  0.8114  0.0848  0.2902
  122OSM   H17S12881   1.113   7.029   5.242  0.3293  1.6736  1.1879
  122OSM   H17T12882   1.007   7.031   5.391  0.3784  0.4092 -0.1396
  122OSM   C18S12883   0.927   6.899   5.236  0.0341 -0.2730 -0.2417
  122OSM   H18S12884   0.964   6.847   5.146 -0.1041 -1.1413  0.1940
  122OSM   H18T12885   0.848   6.975   5.217 -1.2674 -1.6286 -0.3664
  122OSM   H18U12886   0.884   6.819   5.300  1.5597 -2.0242 -1.3115
  122OSM    C1F12887   1.111   6.163   6.375 -0.3590  0.3222 -0.0703
  122OSM     OF12888   1.001   6.122   6.419  0.0534 -0.0626 -0.0973
  122OSM    C2F12889   1.141   6.145   6.230  0.4977 -0.0495 -0.1378
  122OSM    H2F12890   1.237   6.089   6.218  0.3206 -0.3577 -0.1141
  122OSM    H2G12891   1.153   6.250   6.196 -0.0049  0.7807  2.0703
  122OSM    C3F12892   1.034   6.053   6.166 -0.2695 -0.0273 -0.3480
  122OSM    H3F12893   0.936   6.105   6.175  0.0492  0.4120  0.6967
  122OSM    H3G12894   1.019   5.959   6.223  3.0173  0.3451  1.3838
  122OSM    C4F12895   1.067   6.016   6.019  0.0461 -0.5763  0.9635
  122OSM    H4F12896   1.171   5.978   6.010 -0.3764 -1.4799 -0.2970
  122OSM    H4G12897   1.067   6.103   5.950 -0.8288 -1.3695 -0.0685
  122OSM    C5F12898   0.960   5.930   5.965  0.7529  0.5890  0.1942
  122OSM    H5F12899   0.867   5.984   5.993 -0.6752 -1.8381  0.4974
  122OSM    H5G12900   0.959   5.832   6.017 -0.8314  0.1692 -0.5594
  122OSM    C6F12901   0.971   5.905   5.814 -0.5038 -0.1613 -0.3130
  122OSM    H6F12902   0.972   5.997   5.752 -1.5312 -1.1797 -1.9092
  122OSM    H6G12903   0.880   5.853   5.778 -0.3422 -0.3845 -0.4042
  122OSM    C7F12904   1.099   5.821   5.801  0.7554  0.3261 -0.4729
  122OSM    H7F12905   1.084   5.736   5.870  0.5876 -0.3740 -1.3487
  122OSM    H7G12906   1.189   5.879   5.831  1.1686  0.6839 -2.2921
  122OSM    C8F12907   1.109   5.743   5.668  0.9526 -0.7510 -0.1324
  122OSM    H8F12908   1.030   5.665   5.661  2.5613 -2.4334 -0.2971
  122OSM    H8G12909   1.203   5.684   5.672  1.9837  0.6939 -1.6513
  122OSM    C9F12910   1.115   5.826   5.545 -0.1108  0.1026  0.0464
  122OSM    H9F12911   1.108   5.935   5.557  0.1589  0.0070  1.1504
  122OSM   C10F12912   1.107   5.771   5.421 -0.8716  0.2525 -0.3232
  122OSM   H10F12913   1.121   5.838   5.334  1.8211  1.3053  0.8179
  122OSM   C11F12914   1.107   5.617   5.401  0.0771 -0.3097  0.3723
  122OSM   H11F12915   1.006   5.577   5.425 -0.8770  2.3444  1.1607
  122OSM   H11G12916   1.170   5.571   5.480  0.6328  0.7488  0.5641
  122OSM   C12F12917   1.169   5.574   5.259  0.4167  0.4731  0.1468
  122OSM   H12F12918   1.204   5.469   5.265  0.3836  0.5187  1.2488
  122OSM   H12G12919   1.259   5.636   5.242  2.0933 -1.6893  0.6462
  122OSM   C13F12920   1.075   5.582   5.135 -0.5205 -0.1355  0.8239
  122OSM   H13F12921   1.032   5.685   5.134 -1.3718 -0.4551  2.2596
  122OSM   H13G12922   0.994   5.506   5.139  0.2525 -1.2520 -2.2209
  122OSM   C14F12923   1.153   5.564   5.006  0.2245 -0.3868  0.6368
  122OSM   H14F12924   1.165   5.454   4.992  2.4954 -0.2304  0.9556
  122OSM   H14G12925   1.256   5.604   5.017 -0.0449  0.5089  0.0338
  122OSM   C15F12926   1.093   5.644   4.885 -0.2367  0.1119  1.1156
  122OSM   H15F12927   1.080   5.751   4.908  1.1926  1.1455 -2.1979
  122OSM   H15G12928   0.993   5.598   4.868  0.1722  0.2188 -2.4344
  122OSM   C16F12929   1.177   5.635   4.753  0.5918  0.4728 -0.2565
  122OSM   H16F12930   1.118   5.686   4.674  2.2591 -0.6104 -2.3118
  122OSM   H16G12931   1.197   5.527   4.734 -1.2248  0.0283  0.1776
  122OSM   C17F12932   1.308   5.702   4.767 -0.2125  0.1889  0.5199
  122OSM   H17F12933   1.380   5.642   4.826  0.1647  0.3410  0.2200
  122OSM   H17G12934   1.286   5.804   4.806  0.7402  0.7238 -0.2694
  122OSM   C18F12935   1.366   5.732   4.628 -0.4067 -0.0531  0.7274
  122OSM   H18F12936   1.467   5.777   4.638 -0.6289  0.3190  1.3491
  122OSM   H18G12937   1.298   5.802   4.575 -0.0075 -0.9500 -1.0658
  122OSM   H18H12938   1.378   5.654   4.549  0.2329 -0.8646  1.6040
  123OSM      N12939   1.727   4.921   2.283 -0.0637 -0.4819  0.7928
  123OSM    C1512940   1.667   5.043   2.227  0.8390  0.1255 -0.2885
  123OSM   H15A12941   1.678   5.126   2.295  0.7839  0.6478 -0.9140
  123OSM   H15B12942   1.563   5.027   2.202  0.9273 -0.1732 -0.4655
  123OSM   H15C12943   1.727   5.075   2.144  3.2793  0.3192  1.4371
  123OSM    C1412944   1.711   4.807   2.188 -0.1672 -0.0729 -0.2932
  123OSM   H14A12945   1.773   4.725   2.220  0.8056  0.6457 -0.2751
  123OSM   H14B12946   1.754   4.835   2.092  1.2582  0.8061  0.5636
  123OSM   H14C12947   1.609   4.771   2.179  0.3697 -1.4008 -1.5799
  123OSM    C1312948   1.861   4.956   2.317 -0.5212  0.0882  0.2505
  123OSM   H13A12949   1.874   5.043   2.379  0.2663  0.8836 -0.9787
  123OSM   H13B12950   1.927   4.963   2.232 -0.3641 -3.0198 -0.0130
  123OSM   H13C12951   1.912   4.876   2.369  2.2021  1.1616 -0.5629
  123OSM    C1212952   1.652   4.895   2.417  0.1779 -0.6049 -0.3499
  123OSM   H12A12953   1.552   4.862   2.394  0.7986 -2.5981 -0.4212
  123OSM   H12B12954   1.631   4.989   2.465 -1.8636 -0.7776 -0.8430
  123OSM    C1112955   1.711   4.803   2.520  0.1386  0.2373 -0.1318
  123OSM   H11A12956   1.640   4.797   2.605  0.7751 -0.3512  0.3770
  123OSM   H11B12957   1.800   4.848   2.570 -0.5359  2.9414 -1.2303
  123OSM      P12958   1.629   4.569   2.457 -0.1620  0.3514  0.0513
  123OSM    O1312959   1.494   4.632   2.442  0.2917  0.1296  0.1842
  123OSM    O1412960   1.655   4.454   2.370  0.2065  0.2717  0.6869
  123OSM    O1112961   1.647   4.517   2.608  1.0520  0.0635 -0.0148
  123OSM    O1212962   1.742   4.678   2.461 -0.4147  0.1868 -0.1043
  123OSM    C1S12963   1.759   4.446   2.655 -0.4395  0.2905 -0.0072
  123OSM    H1S12964   1.845   4.447   2.584  0.0451  1.0527  0.5700
  123OSM    H1T12965   1.724   4.342   2.672 -1.2328  0.7535  1.4409
  123OSM     NF12966   1.916   4.397   2.826 -0.4081  0.8791 -0.0427
  123OSM    HNF12967   1.877   4.324   2.882 -0.4258  1.5364  0.8363
  123OSM    C2S12968   1.821   4.494   2.786 -0.4699 -1.2849  0.7476
  123OSM    H2S12969   1.865   4.593   2.762 -0.6572 -1.5688 -0.8934
  123OSM    C3S12970   1.717   4.531   2.893 -0.1892  0.2312 -0.5061
  123OSM    H3S12971   1.669   4.439   2.933  0.9021  0.3125  1.0718
  123OSM     O312972   1.614   4.616   2.846 -1.0977 -0.6604  0.5846
  123OSM    HO312973   1.625   4.612   2.751  2.9793 -0.7329  0.8919
  123OSM    C4S12974   1.785   4.589   3.012  0.8308 -0.2462 -0.1008
  123OSM    H4S12975   1.853   4.667   2.975  0.3864  1.4964  2.4617
  123OSM    C5S12976   1.765   4.563   3.138 -0.3361  0.2256 -0.8459
  123OSM    H5S12977   1.693   4.489   3.176  1.7546 -2.7081 -2.1762
  123OSM    C6S12978   1.833   4.638   3.252 -0.6933 -0.9239  0.6927
  123OSM    H6S12979   1.869   4.734   3.210 -1.2754 -1.0105 -0.0215
  123OSM    H6T12980   1.917   4.579   3.294  0.6316 -0.4141 -1.1412
  123OSM    C7S12981   1.746   4.665   3.377  0.5097  0.1886  0.3202
  123OSM    H7S12982   1.720   4.567   3.421 -0.9196 -0.6053 -2.1385
  123OSM    H7T12983   1.646   4.703   3.347 -0.8341 -2.7415  0.7695
  123OSM    C8S12984   1.818   4.738   3.490 -0.6314 -0.3208  0.2493
  123OSM    H8S12985   1.816   4.846   3.466  1.0660 -0.3732 -0.2331
  123OSM    H8T12986   1.924   4.707   3.501 -0.5644 -0.9600 -1.7401
  123OSM    C9S12987   1.738   4.716   3.618  0.0238 -0.1513 -0.6161
  123OSM    H9S12988   1.776   4.614   3.643  1.0438  0.7887  2.1192
  123OSM    H9T12989   1.628   4.725   3.606  0.0398  0.8550 -0.1423
  123OSM   C10S12990   1.786   4.819   3.724 -0.4814 -0.2116  0.4414
  123OSM   H10S12991   1.749   4.917   3.688  0.2822 -0.5715 -1.4520
  123OSM   H10T12992   1.897   4.825   3.715 -0.5653 -0.3870 -0.8076
  123OSM   C11S12993   1.757   4.792   3.868  0.3492 -0.6103 -0.6976
  123OSM   H11S12994   1.781   4.876   3.936 -1.9446 -0.9217  0.6142
  123OSM   H11T12995   1.832   4.716   3.899  1.2160  0.4308 -0.2133
  123OSM   C12S12996   1.605   4.756   3.896  0.2505 -0.6863  0.7851
  123OSM   H12S12997   1.582   4.679   3.819 -0.6434  0.5969 -0.2606
  123OSM   H12T12998   1.547   4.847   3.872 -1.2470 -2.2757 -2.1090
  123OSM   C13S12999   1.598   4.687   4.030 -0.0360  0.4539  0.6519
  123OSM   H13S13000   1.642   4.584   4.027 -1.3069 -0.0908 -2.2094
  123OSM   H13T13001   1.495   4.660   4.060  0.3592 -1.3038  0.5955
  123OSM   C14S13002   1.639   4.760   4.156  0.6903 -0.3296  0.3258
  123OSM   H14S13003   1.745   4.792   4.147  0.4992 -0.1044 -1.3504
  123OSM   H14T13004   1.641   4.682   4.236  0.7980  0.5784  1.2386
  123OSM   C15S13005   1.545   4.880   4.188 -0.1329 -0.0709 -0.3583
  123OSM   H15S13006   1.437   4.854   4.198  0.1325 -1.4280 -0.8638
  123OSM   H15T13007   1.557   4.952   4.104 -1.3579  1.6354  0.8428
  123OSM   C16S13008   1.586   4.949   4.314  0.1903 -0.2696  0.3310
  123OSM   H16S13009   1.510   5.028   4.332 -1.2546 -1.5665  0.1374
  123OSM   H16T13010   1.689   4.991   4.308  0.3361 -0.6026  0.4505
  123OSM   C17S13011   1.577   4.856   4.445 -0.0249 -0.6148  0.3606
  123OSM   H17S13012   1.631   4.761   4.423 -1.5175 -0.8399 -2.8514
  123OSM   H17T13013   1.470   4.826   4.454 -0.5230  0.9685 -0.0573
  123OSM   C18S13014   1.614   4.924   4.579 -0.4943  0.0020 -0.4084
  123OSM   H18S13015   1.590   5.032   4.581 -3.7971 -0.6267 -0.3869
  123OSM   H18T13016   1.725   4.917   4.587 -0.5871  0.1595  1.4187
  123OSM   H18U13017   1.568   4.883   4.672 -1.1977  2.3859  0.3726
  123OSM    C1F13018   2.040   4.384   2.773 -0.4455  0.1122  1.0005
  123OSM     OF13019   2.085   4.466   2.693  0.5950 -0.1324  0.0255
  123OSM    C2F13020   2.126   4.268   2.806  0.0255 -0.1785 -0.2918
  123OSM    H2F13021   2.231   4.305   2.810  0.6615 -1.9810  2.7314
  123OSM    H2G13022   2.111   4.194   2.725 -0.1764  0.3514 -0.7466
  123OSM    C3F13023   2.096   4.205   2.946 -0.2818  0.1547  0.2647
  123OSM    H3F13024   2.150   4.109   2.954 -1.3175 -0.3443  1.4840
  123OSM    H3G13025   1.988   4.182   2.950 -0.4923  1.2046  1.2278
  123OSM    C4F13026   2.128   4.303   3.060 -0.3145  0.1308 -0.3283
  123OSM    H4F13027   2.060   4.390   3.074  0.4332  0.2958  3.5685
  123OSM    H4G13028   2.226   4.345   3.030 -0.6382  3.2776  2.3396
  123OSM    C5F13029   2.154   4.230   3.198 -0.5091  0.4327  0.1454
  123OSM    H5F13030   2.225   4.145   3.201 -1.6133 -0.5021  1.5487
  123OSM    H5G13031   2.062   4.179   3.233 -0.8118  1.0026  0.1969
  123OSM    C6F13032   2.205   4.327   3.307  0.3203 -0.5327 -0.3528
  123OSM    H6F13033   2.208   4.279   3.407 -0.7717 -2.0448 -0.9939
  123OSM    H6G13034   2.129   4.407   3.319  1.1738  0.1141  0.8791
  123OSM    C7F13035   2.350   4.386   3.286 -0.2313  0.1133  0.4505
  123OSM    H7F13036   2.361   4.438   3.188  1.8410  0.2560  0.7015
  123OSM    H7G13037   2.426   4.305   3.280  0.5911  0.8609  0.4327
  123OSM    C8F13038   2.395   4.469   3.403  0.6327 -0.4555  0.1728
  123OSM    H8F13039   2.504   4.479   3.385  0.5710  0.8337  0.3835
  123OSM    H8G13040   2.378   4.415   3.498  1.1271  0.7060  0.9380
  123OSM    C9F13041   2.318   4.597   3.423 -0.5131  0.4926 -0.1556
  123OSM    H9F13042   2.340   4.679   3.353 -2.6585  1.2361 -0.0346
  123OSM   C10F13043   2.232   4.640   3.517  0.4846  0.0262  0.1985
  123OSM   H10F13044   2.218   4.747   3.498 -0.1328 -0.4501 -2.4063
  123OSM   C11F13045   2.186   4.568   3.638 -0.1724  0.2537  0.1300
  123OSM   H11F13046   2.232   4.467   3.645  1.3471  1.0045  2.2516
  123OSM   H11G13047   2.078   4.545   3.633 -0.4755  1.5175  0.3938
  123OSM   C12F13048   2.212   4.646   3.764  0.1116  0.7589  0.2579
  123OSM   H12F13049   2.169   4.746   3.741 -0.0508  0.5675 -0.2851
  123OSM   H12G13050   2.321   4.657   3.782  0.4513 -1.7540  0.1327
  123OSM   C13F13051   2.143   4.580   3.884  0.2763 -0.7010 -0.5117
  123OSM   H13F13052   2.199   4.488   3.914 -1.3400 -0.4892  3.8962
  123OSM   H13G13053   2.038   4.557   3.857 -0.3966  0.1714  1.1688
  123OSM   C14F13054   2.125   4.681   3.996  0.0340 -0.1438 -0.4355
  123OSM   H14F13055   2.066   4.765   3.952  1.0869 -0.3051 -2.2635
  123OSM   H14G13056   2.225   4.727   4.011 -1.3316  2.0780  3.6376
  123OSM   C15F13057   2.055   4.631   4.120  0.2975  0.1611  1.2449
  123OSM   H15F13058   1.946   4.614   4.110  0.0956  0.6445  2.4122
  123OSM   H15G13059   2.074   4.699   4.206 -0.1926 -1.0712  2.3639
  123OSM   C16F13060   2.115   4.495   4.173  0.4085  0.2406  0.1484
  123OSM   H16F13061   2.225   4.510   4.168  0.0764  3.8225  0.8845
  123OSM   H16G13062   2.085   4.413   4.104 -0.6819 -0.9842  2.0068
  123OSM   C17F13063   2.064   4.449   4.316  0.6169  0.2651  0.7619
  123OSM   H17F13064   1.954   4.461   4.317  0.2682 -2.0343 -0.4782
  123OSM   H17G13065   2.111   4.511   4.395 -0.6051  0.1250  1.6253
  123OSM   C18F13066   2.091   4.301   4.345  0.4210  0.9190  1.0510
  123OSM   H18F13067   2.047   4.273   4.443 -0.2232 -1.2398  0.1862
  123OSM   H18G13068   2.198   4.277   4.326 -0.0860 -0.2423 -0.4711
  123OSM   H18H13069   2.034   4.233   4.279  2.4680  0.4355 -0.2988
  124OSM      N13070   2.838   4.718   2.116 -0.3786 -0.1047 -0.2069
  124OSM    C1513071   2.971   4.779   2.078  0.1042  0.3058 -0.0945
  124OSM   H15A13072   2.980   4.810   1.975  0.3309  1.6647  0.3144
  124OSM   H15B13073   3.059   4.731   2.118 -0.2572  0.6270  1.1219
  124OSM   H15C13074   2.989   4.873   2.128 -0.6975  0.2971  0.2272
  124OSM    C1413075   2.737   4.801   2.055  0.4690 -0.1748  0.5787
  124OSM   H14A13076   2.750   4.806   1.948 -0.1262 -1.5815  0.4228
  124OSM   H14B13077   2.757   4.898   2.098  0.2363  0.0861  0.1125
  124OSM   H14C13078   2.636   4.783   2.088  0.0078 -0.0021 -0.6866
  124OSM    C1313079   2.823   4.570   2.083 -0.4531 -0.2257 -0.9187
  124OSM   H13A13080   2.719   4.540   2.086 -0.7742  0.9034  2.1169
  124OSM   H13B13081   2.886   4.510   2.146  1.1658  2.2362 -0.0617
  124OSM   H13C13082   2.854   4.554   1.981  1.2857  0.3147 -0.4950
  124OSM    C1213083   2.832   4.728   2.268 -0.0348 -0.1373  0.2438
  124OSM   H12A13084   2.933   4.700   2.294  0.6427  1.3106 -0.6720
  124OSM   H12B13085   2.764   4.656   2.311  0.7946 -1.0971 -0.0318
  124OSM    C1113086   2.807   4.867   2.341 -0.3982  0.2248  0.2114
  124OSM   H11A13087   2.892   4.938   2.332  1.2103 -1.6137  0.2315
  124OSM   H11B13088   2.805   4.839   2.448  4.6460  2.4700  1.2250
  124OSM      P13089   2.638   5.069   2.341  0.2833  0.3151  0.2015
  124OSM    O1313090   2.727   5.152   2.258 -0.5363  0.8773  0.0097
  124OSM    O1413091   2.490   5.087   2.328 -0.6222 -0.4413  0.4419
  124OSM    O1113092   2.684   5.075   2.493  0.0828  0.4930  0.3177
  124OSM    O1213093   2.681   4.922   2.307  0.2909  0.3353 -0.1749
  124OSM    C1S13094   2.694   5.203   2.550 -0.3906 -0.2749 -0.4623
  124OSM    H1S13095   2.602   5.264   2.538  0.3577  0.4939 -3.2534
  124OSM    H1T13096   2.765   5.265   2.491  1.1692  0.1849  1.7551
  124OSM     NF13097   2.733   5.341   2.767  0.3855 -0.3194 -0.5929
  124OSM    HNF13098   2.819   5.388   2.784  0.7025 -0.2879 -2.2173
  124OSM    C2S13099   2.742   5.208   2.703 -0.0114  0.6645  0.6069
  124OSM    H2S13100   2.663   5.152   2.757 -2.2443  0.7485 -2.3248
  124OSM    C3S13101   2.880   5.137   2.725  0.4957  0.0082  0.4166
  124OSM    H3S13102   2.956   5.210   2.690  0.6221 -0.4448 -0.2693
  124OSM     O313103   2.897   5.016   2.651 -0.4126  0.1457 -0.1959
  124OSM    HO313104   2.820   5.012   2.593 -0.0348 -0.7372 -0.6396
  124OSM    C4S13105   2.894   5.104   2.867 -0.2650 -0.0176  0.3426
  124OSM    H4S13106   2.805   5.053   2.906 -0.4605  1.1693  1.5278
  124OSM    C5S13107   2.998   5.134   2.947  1.1637 -0.1042  0.2485
  124OSM    H5S13108   3.087   5.187   2.910  0.6064  1.2945  0.8383
  124OSM    C6S13109   3.007   5.074   3.087  0.3746 -0.4832  0.4269
  124OSM    H6S13110   2.929   4.996   3.104  1.0541 -1.1821  0.4224
  124OSM    H6T13111   3.001   5.152   3.165  1.2927  0.1422 -0.1058
  124OSM    C7S13112   3.135   4.994   3.110  0.6027 -0.0211 -0.9280
  124OSM    H7S13113   3.216   5.056   3.154 -0.9970  0.2516  1.8345
  124OSM    H7T13114   3.162   4.945   3.014 -0.1761 -2.0099 -0.1878
  124OSM    C8S13115   3.120   4.877   3.208 -0.0042  0.7209 -0.4954
  124OSM    H8S13116   3.215   4.820   3.201 -0.0729  0.3758  1.0571
  124OSM    H8T13117   3.033   4.813   3.184 -1.4582  1.2214  2.9006
  124OSM    C9S13118   3.128   4.910   3.353  0.2294 -0.3514  0.1836
  124OSM    H9S13119   3.037   4.965   3.386 -0.7183  0.1856 -2.9898
  124OSM    H9T13120   3.213   4.978   3.374 -0.8998 -0.0594  4.9061
  124OSM   C10S13121   3.134   4.787   3.431 -0.2293  0.1942 -0.6738
  124OSM   H10S13122   3.232   4.741   3.406 -0.1801  0.3750 -0.8155
  124OSM   H10T13123   3.057   4.714   3.397 -0.7611  0.0274  0.7960
  124OSM   C11S13124   3.131   4.817   3.583  0.0180  0.1541  0.1074
  124OSM   H11S13125   3.027   4.839   3.615 -0.0579  2.1889 -1.3461
  124OSM   H11T13126   3.203   4.901   3.594 -0.5087  0.3518  2.3806
  124OSM   C12S13127   3.195   4.702   3.670 -0.2714 -0.1783  0.3805
  124OSM   H12S13128   3.292   4.692   3.618  2.5051 -0.9289  5.1273
  124OSM   H12T13129   3.125   4.617   3.656 -0.1719 -0.4438  1.3960
  124OSM   C13S13130   3.214   4.733   3.817 -0.3924  0.3622 -0.2439
  124OSM   H13S13131   3.252   4.836   3.829 -1.4227  0.4850  3.1523
  124OSM   H13T13132   3.294   4.668   3.859 -0.3639  0.3867 -0.2607
  124OSM   C14S13133   3.081   4.709   3.902 -0.2631 -0.1520 -0.0435
  124OSM   H14S13134   2.996   4.770   3.865  1.1899  1.2833 -1.1626
  124OSM   H14T13135   3.111   4.732   4.007 -0.9110 -0.3472  0.1859
  124OSM   C15S13136   3.032   4.566   3.909  0.0432 -0.2653 -0.0106
  124OSM   H15S13137   3.124   4.504   3.916  0.8512  1.0423  1.8828
  124OSM   H15T13138   2.991   4.541   3.809  0.5636  1.1309 -0.5993
  124OSM   C16S13139   2.922   4.550   4.011 -0.1367 -0.1390  0.3427
  124OSM   H16S13140   2.836   4.614   3.982  0.3895  0.0872 -0.7484
  124OSM   H16T13141   2.967   4.580   4.108  2.8812 -0.4714 -0.8602
  124OSM   C17S13142   2.879   4.403   4.029 -0.2937 -0.1782  0.3444
  124OSM   H17S13143   2.963   4.337   4.060 -1.0981 -0.1475  2.8586
  124OSM   H17T13144   2.836   4.362   3.936  0.8266 -0.4849 -0.0537
  124OSM   C18S13145   2.763   4.383   4.127 -0.1431 -0.0751 -0.4398
  124OSM   H18S13146   2.783   4.423   4.229  2.0616  2.3264 -1.6809
  124OSM   H18T13147   2.750   4.273   4.126  3.4106 -0.6173  0.4389
  124OSM   H18U13148   2.673   4.438   4.091 -1.2814 -2.9819 -2.3470
  124OSM    C1F13149   2.622   5.398   2.808 -0.3374  0.9447 -0.0132
  124OSM     OF13150   2.518   5.338   2.809  1.1203 -0.4877  0.6648
  124OSM    C2F13151   2.636   5.540   2.851 -0.5730 -0.6867 -1.3511
  124OSM    H2F13152   2.638   5.612   2.767 -0.5488 -1.8316 -2.3583
  124OSM    H2G13153   2.737   5.552   2.896 -0.5641 -0.4219 -1.4424
  124OSM    C3F13154   2.544   5.583   2.966 -0.1013  0.2602  0.4983
  124OSM    H3F13155   2.440   5.576   2.926 -0.4788  1.3508  1.2482
  124OSM    H3G13156   2.564   5.692   2.981  2.5504 -0.1637  0.5553
  124OSM    C4F13157   2.561   5.509   3.100 -0.2811 -0.7372  0.0057
  124OSM    H4F13158   2.651   5.554   3.147 -0.1367 -2.1345  1.1474
  124OSM    H4G13159   2.588   5.403   3.077  2.0919  0.0693 -1.2892
  124OSM    C5F13160   2.447   5.536   3.200 -0.1120 -0.0940  0.3302
  124OSM    H5F13161   2.351   5.498   3.158  0.1671  1.5059 -1.8888
  124OSM    H5G13162   2.431   5.646   3.204 -0.8119 -0.2254  1.6243
  124OSM    C6F13163   2.480   5.467   3.333 -0.0389  0.5200  0.6262
  124OSM    H6F13164   2.584   5.478   3.372  1.0640 -0.5567 -1.7752
  124OSM    H6G13165   2.466   5.357   3.332  0.9183  0.3892  0.6072
  124OSM    C7F13166   2.381   5.503   3.447 -0.4306 -0.1913 -0.1423
  124OSM    H7F13167   2.283   5.451   3.436 -0.5487  0.2943 -1.6468
  124OSM    H7G13168   2.361   5.612   3.447 -0.9596 -0.2296 -2.3539
  124OSM    C8F13169   2.424   5.467   3.592  0.1181  0.3523  0.4573
  124OSM    H8F13170   2.468   5.365   3.593 -1.5777 -0.4456 -0.8470
  124OSM    H8G13171   2.338   5.457   3.662  0.7694 -0.3218  1.1764
  124OSM    C9F13172   2.525   5.562   3.644 -0.8341 -0.2851  0.2867
  124OSM    H9F13173   2.599   5.586   3.567 -0.6044  0.9538  0.8757
  124OSM   C10F13174   2.529   5.620   3.762 -0.6067 -0.1266  0.3860
  124OSM   H10F13175   2.607   5.694   3.786 -0.1908 -0.9245  1.5780
  124OSM   C11F13176   2.435   5.600   3.871  0.2923 -0.0018  0.1417
  124OSM   H11F13177   2.380   5.505   3.856 -0.2944  0.1079  1.5016
  124OSM   H11G13178   2.358   5.680   3.878  0.8058  0.5566 -0.3554
  124OSM   C12F13179   2.502   5.579   4.003  0.3494 -0.8697  0.1926
  124OSM   H12F13180   2.524   5.679   4.046  3.4392 -0.6339 -1.6755
  124OSM   H12G13181   2.605   5.540   3.995  0.5061 -0.2307 -1.3148
  124OSM   C13F13182   2.419   5.515   4.111 -0.1480  0.2443 -0.0307
  124OSM   H13F13183   2.399   5.411   4.078 -1.3135  0.3445  0.3040
  124OSM   H13G13184   2.317   5.559   4.122 -0.6532 -1.2394  1.6794
  124OSM   C14F13185   2.483   5.508   4.252  0.5723  0.4176  0.3139
  124OSM   H14F13186   2.521   5.609   4.280 -0.4955  1.1190 -0.6554
  124OSM   H14G13187   2.571   5.445   4.227  1.4165  1.2330  1.0963
  124OSM   C15F13188   2.389   5.438   4.353 -0.3835 -0.0045  0.0206
  124OSM   H15F13189   2.344   5.347   4.307 -2.8652  1.1379  0.0752
  124OSM   H15G13190   2.296   5.495   4.369 -0.9232 -0.6503 -0.7455
  124OSM   C16F13191   2.467   5.409   4.480 -0.7733  0.4154 -0.1091
  124OSM   H16F13192   2.481   5.506   4.532 -3.2494  1.7726 -1.7685
  124OSM   H16G13193   2.563   5.363   4.447 -0.7281  0.6862 -0.3567
  124OSM   C17F13194   2.396   5.304   4.571 -0.5907 -0.4737  0.3049
  124OSM   H17F13195   2.407   5.209   4.515 -1.4687  0.4367 -1.4984
  124OSM   H17G13196   2.288   5.330   4.580 -0.6771 -1.1776  1.4240
  124OSM   C18F13197   2.460   5.273   4.708 -0.7000 -0.4146 -0.0817
  124OSM   H18F13198   2.438   5.172   4.746  0.9064 -0.7137  0.1319
  124OSM   H18G13199   2.423   5.342   4.787 -1.9380 -0.5878 -0.4796
  124OSM   H18H13200   2.571   5.271   4.700 -0.7569 -3.0585 -0.9279
  125OSM      N13201   4.493   1.988   2.031  0.1711 -0.4017  0.4241
  125OSM    C1513202   4.431   2.118   1.987  0.3646  0.0271  0.3873
  125OSM   H15A13203   4.350   2.146   2.053  0.2298 -1.0649  0.7171
  125OSM   H15B13204   4.392   2.112   1.887  0.8608 -1.9765  0.2730
  125OSM   H15C13205   4.511   2.190   1.980  1.0181 -0.8505 -2.0671
  125OSM    C1413206   4.388   1.884   2.018  0.4388  0.5435  0.6126
  125OSM   H14A13207   4.427   1.792   2.059 -1.7987 -0.2127  1.1938
  125OSM   H14B13208   4.378   1.863   1.913 -0.1682 -3.1335  1.2558
  125OSM   H14C13209   4.293   1.889   2.069  0.8460 -4.4151  2.4814
  125OSM    C1313210   4.607   1.954   1.944 -0.0701 -0.2489  0.0888
  125OSM   H13A13211   4.672   2.040   1.937 -0.1531 -0.2274 -0.5741
  125OSM   H13B13212   4.572   1.927   1.845 -0.4899 -0.6754  0.3488
  125OSM   H13C13213   4.674   1.878   1.981  2.3532  1.7895  0.1314
  125OSM    C1213214   4.538   2.001   2.179 -0.2928 -0.3004 -0.1168
  125OSM   H12A13215   4.582   2.100   2.180 -0.4225 -0.2473  0.2388
  125OSM   H12B13216   4.613   1.923   2.184 -0.7581 -0.6735  1.2598
  125OSM    C1113217   4.442   1.993   2.297  0.8010 -0.3003 -0.2569
  125OSM   H11A13218   4.502   2.001   2.390  1.1774  2.5066 -0.6555
  125OSM   H11B13219   4.396   1.894   2.319 -0.4651  1.0808  4.4720
  125OSM      P13220   4.398   2.246   2.331 -0.1439 -0.3934 -0.2237
  125OSM    O1313221   4.546   2.250   2.366  0.0401  0.7216 -0.6642
  125OSM    O1413222   4.348   2.342   2.235 -0.5965  0.3516  0.2127
  125OSM    O1113223   4.317   2.268   2.465 -0.2398  0.4719  0.0925
  125OSM    O1213224   4.347   2.098   2.292 -0.0899  0.1899  0.2866
  125OSM    C1S13225   4.342   2.183   2.578  0.2117  0.6074 -0.3664
  125OSM    H1S13226   4.418   2.105   2.556 -0.1991  0.4037 -1.0854
  125OSM    H1T13227   4.254   2.121   2.604  2.3716 -2.2295  0.7181
  125OSM     NF13228   4.388   2.157   2.827 -0.6063 -0.1778 -0.2710
  125OSM    HNF13229   4.310   2.149   2.889 -1.9835 -0.1252 -1.9358
  125OSM    C2S13230   4.378   2.249   2.718  0.4581 -0.7115  1.0378
  125OSM    H2S13231   4.474   2.304   2.706 -0.0528  0.2783  1.3408
  125OSM    C3S13232   4.290   2.368   2.760  0.4281 -0.1685  0.6533
  125OSM    H3S13233   4.188   2.325   2.762  0.2158  0.1180 -1.7554
  125OSM     O313234   4.281   2.471   2.655 -0.0410 -0.3224  0.1573
  125OSM    HO313235   4.315   2.429   2.576  0.7504  0.3020  0.1584
  125OSM    C4S13236   4.302   2.431   2.897  0.3951  0.7369  0.2334
  125OSM    H4S13237   4.225   2.391   2.965 -1.9496 -1.4653 -3.3782
  125OSM    C5S13238   4.384   2.530   2.936 -0.1868  0.4237  0.0824
  125OSM    H5S13239   4.455   2.579   2.868  1.5724 -0.4165  1.2492
  125OSM    C6S13240   4.397   2.593   3.075  0.4534  0.2439  0.2267
  125OSM    H6S13241   4.346   2.691   3.080  0.9354  0.5083  0.0359
  125OSM    H6T13242   4.503   2.612   3.102  0.4092  0.8035  0.0271
  125OSM    C7S13243   4.348   2.498   3.190 -0.0726 -0.2641  0.4227
  125OSM    H7S13244   4.386   2.397   3.165 -0.2802 -0.1453 -0.4014
  125OSM    H7T13245   4.237   2.491   3.180 -0.1984  2.5716 -1.5915
  125OSM    C8S13246   4.388   2.534   3.336  0.5020  0.5272 -0.6520
  125OSM    H8S13247   4.317   2.613   3.368 -1.6378  0.0795 -3.8158
  125OSM    H8T13248   4.487   2.583   3.324  1.5934 -1.2917  0.5005
  125OSM    C9S13249   4.383   2.414   3.428  0.0336 -0.3849  0.3462
  125OSM    H9S13250   4.448   2.328   3.401 -0.8742 -1.3229  1.0145
  125OSM    H9T13251   4.280   2.373   3.431 -0.1692  0.1317  0.5878
  125OSM   C10S13252   4.434   2.445   3.569 -0.1160  0.3805  0.2276
  125OSM   H10S13253   4.364   2.517   3.618  0.2288  0.9140 -0.0540
  125OSM   H10T13254   4.540   2.475   3.558  0.6547 -1.6529  1.6067
  125OSM   C11S13255   4.448   2.312   3.646 -0.5512 -0.4027 -0.0888
  125OSM   H11S13256   4.532   2.254   3.603 -0.5930 -0.9351  0.5294
  125OSM   H11T13257   4.354   2.255   3.635 -1.0195  0.2462  0.4784
  125OSM   C12S13258   4.484   2.334   3.799 -0.2667  0.2996 -0.0369
  125OSM   H12S13259   4.387   2.352   3.849 -1.2910 -0.4395 -1.6902
  125OSM   H12T13260   4.547   2.422   3.827 -0.2000 -0.0204  0.8343
  125OSM   C13S13261   4.545   2.217   3.871 -0.5291  0.4683 -0.0874
  125OSM   H13S13262   4.638   2.179   3.823 -0.6511 -0.2665  0.2479
  125OSM   H13T13263   4.468   2.138   3.880  1.4099 -1.4223  0.6042
  125OSM   C14S13264   4.592   2.284   4.007 -0.4192  0.6566  0.1081
  125OSM   H14S13265   4.508   2.336   4.058 -0.5314 -1.3491  2.1337
  125OSM   H14T13266   4.665   2.361   3.976 -0.0552  0.7541  1.1626
  125OSM   C15S13267   4.643   2.195   4.122 -0.4411  0.4714  0.0902
  125OSM   H15S13268   4.752   2.174   4.117 -0.6527 -0.6613 -0.1828
  125OSM   H15T13269   4.602   2.093   4.108 -0.2952  0.6567 -1.9637
  125OSM   C16S13270   4.620   2.250   4.266  0.0345 -0.7012  0.1909
  125OSM   H16S13271   4.510   2.245   4.281 -0.0300  3.1239  2.0432
  125OSM   H16T13272   4.654   2.355   4.272 -1.4711 -0.1424 -0.5231
  125OSM   C17S13273   4.685   2.157   4.372  0.3180 -0.0225  0.3699
  125OSM   H17S13274   4.795   2.157   4.358  0.3351 -1.6100  0.2621
  125OSM   H17T13275   4.664   2.051   4.346  1.1771 -0.3506  0.9869
  125OSM   C18S13276   4.651   2.187   4.511  0.0748 -0.4570 -0.9845
  125OSM   H18S13277   4.738   2.164   4.576 -1.0006 -1.5331  0.1287
  125OSM   H18T13278   4.561   2.141   4.556  0.9124 -1.6355 -0.4589
  125OSM   H18U13279   4.639   2.297   4.523  0.8797 -0.4617 -0.0865
  125OSM    C1F13280   4.482   2.065   2.844 -0.5598  0.0011  0.3019
  125OSM     OF13281   4.573   2.059   2.761  0.4322 -0.5640 -0.3385
  125OSM    C2F13282   4.476   1.964   2.962  0.4970 -0.0966 -0.2836
  125OSM    H2F13283   4.438   1.863   2.934 -0.0641 -0.1634  0.6827
  125OSM    H2G13284   4.406   2.008   3.037  1.5256  0.6876  0.2383
  125OSM    C3F13285   4.614   1.953   3.019 -0.2990  0.0630 -0.0262
  125OSM    H3F13286   4.642   2.057   3.048  1.0847  0.1012 -1.3863
  125OSM    H3G13287   4.689   1.910   2.950 -0.5872 -0.4047 -0.0541
  125OSM    C4F13288   4.627   1.856   3.140  0.1093  0.4193 -0.7415
  125OSM    H4F13289   4.586   1.916   3.224  0.7577  1.9052 -1.4483
  125OSM    H4G13290   4.733   1.829   3.160  0.1011  0.9189 -0.0068
  125OSM    C5F13291   4.558   1.728   3.121 -0.3552  0.0012  0.0226
  125OSM    H5F13292   4.586   1.683   3.024 -0.4783  2.2580 -1.1134
  125OSM    H5G13293   4.448   1.740   3.130 -0.4727 -0.7383 -0.3754
  125OSM    C6F13294   4.588   1.624   3.229 -0.3996  0.5096 -0.5957
  125OSM    H6F13295   4.696   1.598   3.223 -0.5697 -0.1470 -0.9718
  125OSM    H6G13296   4.537   1.530   3.197 -0.8449  0.2127  0.8596
  125OSM    C7F13297   4.539   1.655   3.370  0.4038 -0.4074 -0.3144
  125OSM    H7F13298   4.428   1.655   3.372  0.3692 -0.6431  2.7393
  125OSM    H7G13299   4.579   1.754   3.401  0.7665 -0.4339 -0.6926
  125OSM    C8F13300   4.594   1.564   3.480 -0.4598  0.6667  0.2510
  125OSM    H8F13301   4.536   1.575   3.574  1.7154 -0.5676  1.8281
  125OSM    H8G13302   4.697   1.601   3.499 -0.3145  2.4539 -3.2855
  125OSM    C9F13303   4.608   1.419   3.444 -0.0741  0.1214 -0.2647
  125OSM    H9F13304   4.556   1.388   3.352  2.4207  0.5042 -1.8976
  125OSM   C10F13305   4.687   1.334   3.516  0.1132 -0.5943  0.3524
  125OSM   H10F13306   4.694   1.230   3.481 -0.1184 -0.2101 -0.8652
  125OSM   C11F13307   4.773   1.375   3.637  0.8936 -0.0137 -0.4309
  125OSM   H11F13308   4.788   1.485   3.652  1.7064 -0.3540  1.5435
  125OSM   H11G13309   4.877   1.339   3.626  0.3430 -2.2228  1.0387
  125OSM   C12F13310   4.722   1.309   3.765 -0.0203 -0.5334 -0.3864
  125OSM   H12F13311   4.788   1.222   3.786 -0.7647 -1.0156  0.0161
  125OSM   H12G13312   4.613   1.287   3.771 -0.5246  1.7230 -0.1911
  125OSM   C13F13313   4.744   1.405   3.885  0.3626  0.7594 -0.1839
  125OSM   H13F13314   4.676   1.491   3.868 -0.2679  0.5048  1.0081
  125OSM   H13G13315   4.850   1.440   3.881  0.7316 -0.3150 -0.2508
  125OSM   C14F13316   4.721   1.327   4.014 -0.1545  0.6476 -0.7150
  125OSM   H14F13317   4.783   1.235   4.027 -1.4609 -0.0093  1.3810
  125OSM   H14G13318   4.614   1.299   4.013  0.6074 -2.6892 -0.5959
  125OSM   C15F13319   4.744   1.407   4.150 -0.6401 -0.6400  0.5271
  125OSM   H15F13320   4.696   1.507   4.141 -2.6510 -1.6491 -0.4405
  125OSM   H15G13321   4.854   1.424   4.152 -0.5456 -0.8497 -1.4207
  125OSM   C16F13322   4.699   1.323   4.272 -0.1136 -0.0344  0.1070
  125OSM   H16F13323   4.717   1.215   4.255  1.2988  0.4139 -1.6003
  125OSM   H16G13324   4.588   1.329   4.269 -0.1888 -1.1603  0.2035
  125OSM   C17F13325   4.759   1.351   4.409  0.5554 -0.5168 -0.3588
  125OSM   H17F13326   4.742   1.458   4.433 -0.0667 -0.7493  0.2680
  125OSM   H17G13327   4.869   1.334   4.410  0.8112  1.0102 -0.8697
  125OSM   C18F13328   4.687   1.271   4.520 -0.7141 -0.8303 -0.3115
  125OSM   H18F13329   4.581   1.301   4.537 -0.2945  1.1139 -0.8434
  125OSM   H18G13330   4.744   1.301   4.610  2.4814  0.5230 -2.5943
  125OSM   H18H13331   4.688   1.163   4.495  2.1805 -0.7108 -1.0997
  126OSM      N13332   2.783   3.848   2.447 -0.4635 -0.0258  0.0425
  126OSM    C1513333   2.680   3.952   2.482  0.0241 -0.6070 -0.0099
  126OSM   H15A13334   2.605   3.964   2.404 -2.3040  3.5231  2.5255
  126OSM   H15B13335   2.715   4.051   2.503  0.5493 -1.0073  1.0426
  126OSM   H15C13336   2.624   3.922   2.569 -1.1797 -1.1086 -0.9075
  126OSM    C1413337   2.880   3.849   2.564 -0.3878 -0.4991  0.6661
  126OSM   H14A13338   2.952   3.769   2.552 -0.2167 -0.2200 -0.2397
  126OSM   H14B13339   2.835   3.840   2.662 -1.2429 -2.8724  0.1286
  126OSM   H14C13340   2.948   3.932   2.552 -0.6838 -0.1943  1.0814
  126OSM    C1313341   2.720   3.710   2.446  0.4308 -0.1269 -0.3680
  126OSM   H13A13342   2.692   3.679   2.545 -1.6174 -2.2464 -1.5147
  126OSM   H13B13343   2.790   3.644   2.398  1.3208  0.8727 -0.4721
  126OSM   H13C13344   2.627   3.718   2.390  0.1391  2.0243  0.3107
  126OSM    C1213345   2.863   3.867   2.321 -0.4579 -0.4906  0.3671
  126OSM   H12A13346   2.921   3.958   2.331 -1.8272  0.5260 -0.4599
  126OSM   H12B13347   2.790   3.880   2.242  0.0362  1.2121  0.1456
  126OSM    C1113348   2.967   3.750   2.290 -0.7924  0.0056  0.0301
  126OSM   H11A13349   3.032   3.788   2.209 -0.5051  0.5987  0.5325
  126OSM   H11B13350   2.899   3.676   2.243 -2.6878  0.7567  1.4573
  126OSM      P13351   3.124   3.565   2.403 -0.2198 -0.2329  0.0186
  126OSM    O1313352   3.048   3.466   2.324 -0.7285 -0.4207 -0.4426
  126OSM    O1413353   3.269   3.583   2.369 -0.8782 -0.1693 -0.0925
  126OSM    O1113354   3.116   3.530   2.554  0.3013  0.2126 -0.2057
  126OSM    O1213355   3.050   3.706   2.404  0.2699 -0.3820  0.0869
  126OSM    C1S13356   3.155   3.631   2.650  0.1766 -0.5737 -0.2197
  126OSM    H1S13357   3.072   3.704   2.660 -0.1422 -0.9392 -0.1651
  126OSM    H1T13358   3.249   3.681   2.620 -0.3779  1.0665  0.6260
  126OSM     NF13359   3.155   3.687   2.880  0.0985 -0.1169 -0.4416
  126OSM    HNF13360   3.234   3.740   2.911 -0.8250 -0.8234  3.7316
  126OSM    C2S13361   3.172   3.579   2.792 -0.1575  0.0572  0.6211
  126OSM    H2S13362   3.094   3.506   2.821  0.7345 -0.2191  2.4691
  126OSM    C3S13363   3.312   3.512   2.798  0.6099 -0.7348  1.2570
  126OSM    H3S13364   3.393   3.579   2.763  2.0138 -3.1500 -0.3936
  126OSM     O313365   3.318   3.396   2.715 -0.3717 -0.1353 -0.3132
  126OSM    HO313366   3.236   3.402   2.666 -1.1250  1.7260  1.0805
  126OSM    C4S13367   3.348   3.468   2.937  0.0549 -0.7075 -0.1761
  126OSM    H4S13368   3.310   3.369   2.966  0.7805 -0.4414  1.8886
  126OSM    C5S13369   3.421   3.547   3.020 -0.1547 -0.3859 -0.5325
  126OSM    H5S13370   3.454   3.649   2.998  0.1940 -0.4736 -0.4308
  126OSM    C6S13371   3.473   3.512   3.156 -0.0368 -0.9325 -0.3922
  126OSM    H6S13372   3.499   3.608   3.207  0.6128 -0.5814 -1.3421
  126OSM    H6T13373   3.571   3.459   3.149  0.3449 -0.2569 -0.3449
  126OSM    C7S13374   3.378   3.433   3.237  0.3746 -0.2501 -0.8501
  126OSM    H7S13375   3.365   3.330   3.196 -1.7189 -1.1530  1.7415
  126OSM    H7T13376   3.282   3.488   3.254  0.8863  0.0838  1.1990
  126OSM    C8S13377   3.439   3.414   3.379  0.2812  0.3449  1.2413
  126OSM    H8S13378   3.496   3.507   3.399  0.4867  0.7839 -1.1203
  126OSM    H8T13379   3.517   3.336   3.385  2.9575  2.8333  0.6876
  126OSM    C9S13380   3.330   3.401   3.486 -0.5969  0.0491 -0.5054
  126OSM    H9S13381   3.280   3.301   3.481  0.1281 -0.4871  1.8600
  126OSM    H9T13382   3.255   3.482   3.476 -0.3021  0.0579 -3.7944
  126OSM   C10S13383   3.381   3.402   3.632 -1.1514 -0.1033 -0.7560
  126OSM   H10S13384   3.427   3.502   3.649  1.6280 -1.2595 -0.9287
  126OSM   H10T13385   3.463   3.328   3.644 -0.3356  0.9447  0.4632
  126OSM   C11S13386   3.265   3.372   3.731 -0.5053 -0.9530 -0.0429
  126OSM   H11S13387   3.217   3.281   3.691  1.0389 -0.8835 -2.2225
  126OSM   H11T13388   3.199   3.461   3.736 -1.3374 -1.5328 -0.5471
  126OSM   C12S13389   3.319   3.348   3.880  0.1632 -0.3900  0.5172
  126OSM   H12S13390   3.233   3.341   3.951 -0.1436  3.0535  0.6682
  126OSM   H12T13391   3.376   3.432   3.925  1.2749 -1.3549  0.9363
  126OSM   C13S13392   3.392   3.214   3.903 -0.3457 -0.5185 -0.7670
  126OSM   H13S13393   3.496   3.231   3.868  0.4754 -1.3818  1.1055
  126OSM   H13T13394   3.351   3.128   3.846 -1.6677 -0.8764  0.6542
  126OSM   C14S13395   3.396   3.168   4.053  0.8586 -0.2403 -0.3273
  126OSM   H14S13396   3.399   3.058   4.063 -1.7744 -0.2727  0.7948
  126OSM   H14T13397   3.303   3.192   4.109  1.1437 -3.7337  1.9038
  126OSM   C15S13398   3.511   3.218   4.138 -0.9919  0.0640  0.2632
  126OSM   H15S13399   3.522   3.329   4.134  1.0837 -0.0372  1.7185
  126OSM   H15T13400   3.602   3.182   4.084 -1.8396  0.3122 -1.3930
  126OSM   C16S13401   3.524   3.160   4.281  0.7000  0.7470 -1.2789
  126OSM   H16S13402   3.629   3.168   4.314  0.6093 -0.9780 -0.4926
  126OSM   H16T13403   3.508   3.050   4.276 -0.6362  0.9431 -1.7362
  126OSM   C17S13404   3.432   3.226   4.388  0.3169 -0.3566  0.4441
  126OSM   H17S13405   3.332   3.217   4.340  0.9686 -1.1830 -0.7887
  126OSM   H17T13406   3.458   3.333   4.401  0.2144 -0.3538  0.6445
  126OSM   C18S13407   3.443   3.166   4.523  0.0521 -0.3240 -0.0968
  126OSM   H18S13408   3.548   3.152   4.555 -0.4783 -2.6397  0.8233
  126OSM   H18T13409   3.408   3.060   4.524 -2.3150  0.3832  0.5902
  126OSM   H18U13410   3.394   3.230   4.600  1.7059 -0.1864  0.8789
  126OSM    C1F13411   3.034   3.728   2.909 -1.1138 -0.3200 -0.4240
  126OSM     OF13412   2.936   3.675   2.856 -0.3049  0.0772 -0.1938
  126OSM    C2F13413   3.011   3.840   3.009  0.2969  0.0371  0.0324
  126OSM    H2F13414   2.987   3.927   2.945  0.0746 -0.4472 -0.5571
  126OSM    H2G13415   3.101   3.852   3.074  0.3380 -0.7971  0.1442
  126OSM    C3F13416   2.890   3.804   3.096 -0.8040 -0.0629  0.5896
  126OSM    H3F13417   2.801   3.788   3.031 -0.3111 -2.6483  0.4633
  126OSM    H3G13418   2.870   3.891   3.162 -0.0718  0.8299 -0.3347
  126OSM    C4F13419   2.894   3.687   3.192 -0.3968  0.2607  0.2893
  126OSM    H4F13420   2.889   3.589   3.141 -2.2089  0.6326 -0.3367
  126OSM    H4G13421   2.800   3.683   3.251 -0.3363 -0.8746  0.3143
  126OSM    C5F13422   3.003   3.703   3.301 -0.0114  0.5798 -0.1717
  126OSM    H5F13423   2.988   3.796   3.359  2.6984  0.0665  1.5286
  126OSM    H5G13424   3.105   3.700   3.257 -0.0877  0.6880 -0.3551
  126OSM    C6F13425   2.983   3.590   3.411  0.0260  0.1639 -0.3678
  126OSM    H6F13426   3.077   3.568   3.466  0.1245 -2.2525 -1.3889
  126OSM    H6G13427   2.956   3.501   3.350  2.2234 -1.7258  1.2521
  126OSM    C7F13428   2.867   3.603   3.505  0.5138 -0.4729  0.2679
  126OSM    H7F13429   2.766   3.606   3.459  0.5442 -1.3304  0.1156
  126OSM    H7G13430   2.874   3.710   3.532 -0.5973 -0.3002 -0.0786
  126OSM    C8F13431   2.871   3.516   3.626 -0.0718 -0.6916 -0.4919
  126OSM    H8F13432   2.796   3.559   3.696  1.6152  0.0617  0.9375
  126OSM    H8G13433   2.961   3.537   3.689 -1.1157 -1.1980  1.2259
  126OSM    C9F13434   2.851   3.367   3.600 -0.0347  0.3730  0.2687
  126OSM    H9F13435   2.830   3.345   3.494  0.1227  1.7320 -0.0573
  126OSM   C10F13436   2.861   3.267   3.693 -0.0189  0.1153  0.1343
  126OSM   H10F13437   2.837   3.165   3.660 -1.7138  0.4400  0.3009
  126OSM   C11F13438   2.891   3.297   3.837 -0.1882  0.5529  0.0235
  126OSM   H11F13439   2.970   3.375   3.849  0.5874 -0.1035 -0.6264
  126OSM   H11G13440   2.927   3.205   3.888 -0.1050 -0.3705 -1.6439
  126OSM   C12F13441   2.758   3.345   3.902 -0.3144 -0.1981  0.5812
  126OSM   H12F13442   2.695   3.254   3.909 -1.9895  0.6677 -1.9426
  126OSM   H12G13443   2.696   3.418   3.847  1.1198  0.3819 -0.3308
  126OSM   C13F13444   2.781   3.401   4.040  0.3471  0.3246 -0.4343
  126OSM   H13F13445   2.679   3.419   4.080  1.1774  1.7663  1.1921
  126OSM   H13G13446   2.835   3.498   4.039  1.4635 -0.2733  0.2338
  126OSM   C14F13447   2.855   3.298   4.129  0.0492 -0.4374 -0.0397
  126OSM   H14F13448   2.964   3.300   4.107  0.0291  0.7148 -0.1117
  126OSM   H14G13449   2.804   3.200   4.120  0.4578 -0.7655  1.0405
  126OSM   C15F13450   2.834   3.334   4.279  0.7102 -0.3335  0.0049
  126OSM   H15F13451   2.734   3.371   4.310  2.0358  1.8261  2.0951
  126OSM   H15G13452   2.889   3.429   4.300  2.5386 -1.5399  0.9338
  126OSM   C16F13453   2.891   3.234   4.377 -0.6136  0.0684  0.7419
  126OSM   H16F13454   3.001   3.221   4.368 -0.6874  0.1385 -0.4367
  126OSM   H16G13455   2.866   3.134   4.335  2.1731  0.5436 -2.6149
  126OSM   C17F13456   2.850   3.244   4.522  0.3568 -0.0732  0.7931
  126OSM   H17F13457   2.887   3.152   4.571 -2.0453 -2.7052 -1.9454
  126OSM   H17G13458   2.739   3.235   4.524  0.1931 -0.5053 -3.1208
  126OSM   C18F13459   2.891   3.382   4.584  0.5678  0.7398  0.2061
  126OSM   H18F13460   2.879   3.464   4.510  0.3491 -0.9011 -1.6523
  126OSM   H18G13461   2.999   3.369   4.607  0.4717  2.4387  1.9285
  126OSM   H18H13462   2.836   3.409   4.677 -0.4377 -0.8910  0.1154
  127OSM      N13463   1.307   5.653   2.407  0.2171 -0.6758 -0.1771
  127OSM    C1513464   1.209   5.550   2.382  0.1233  1.0653 -0.0380
  127OSM   H15A13465   1.126   5.588   2.325 -1.5847 -2.4496 -0.1332
  127OSM   H15B13466   1.181   5.513   2.480  0.4272 -0.8396 -0.6305
  127OSM   H15C13467   1.255   5.464   2.336  1.3468  1.3009  0.6965
  127OSM    C1413468   1.356   5.695   2.269  0.0816  0.2667 -0.9301
  127OSM   H14A13469   1.421   5.782   2.273 -2.1229  1.9541  1.3422
  127OSM   H14B13470   1.275   5.723   2.202 -0.8721 -0.0496  0.0592
  127OSM   H14C13471   1.411   5.614   2.223  1.1870  1.3834 -1.6519
  127OSM    C1313472   1.228   5.766   2.474 -0.6089 -1.0731 -0.7004
  127OSM   H13A13473   1.171   5.729   2.558 -0.6648  0.9041  0.1977
  127OSM   H13B13474   1.165   5.817   2.403  1.5662 -0.5909 -2.4205
  127OSM   H13C13475   1.305   5.832   2.513  1.6467 -4.2409  0.7058
  127OSM    C1213476   1.409   5.604   2.510  0.2823 -0.1940 -0.1688
  127OSM   H12A13477   1.361   5.553   2.593  0.4099 -2.3752 -1.3437
  127OSM   H12B13478   1.459   5.687   2.557  1.9740 -1.5003  0.4363
  127OSM    C1113479   1.513   5.506   2.467 -0.3307 -0.0433  0.2426
  127OSM   H11A13480   1.580   5.498   2.555  0.7145  0.3025 -0.4876
  127OSM   H11B13481   1.567   5.544   2.377 -0.8236  0.0260 -0.0306
  127OSM      P13482   1.441   5.259   2.524 -0.2758 -0.0852 -0.4433
  127OSM    O1313483   1.324   5.178   2.491 -0.8572 -0.1334 -0.1983
  127OSM    O1413484   1.573   5.204   2.508  0.0467 -0.5695  0.0703
  127OSM    O1113485   1.418   5.319   2.672  0.7970  0.5820  0.1836
  127OSM    O1213486   1.450   5.382   2.432 -1.0322 -0.3243  0.1424
  127OSM    C1S13487   1.486   5.244   2.777  0.3335  0.7938 -0.2122
  127OSM    H1S13488   1.595   5.263   2.775  0.4304  0.6671  1.6497
  127OSM    H1T13489   1.458   5.137   2.768 -2.4015  1.2827  1.2269
  127OSM     NF13490   1.505   5.200   3.018 -0.4086 -0.5396 -0.4424
  127OSM    HNF13491   1.453   5.131   3.068  1.2257 -1.2711  0.3140
  127OSM    C2S13492   1.442   5.288   2.923 -0.4770  0.0710  0.4436
  127OSM    H2S13493   1.474   5.394   2.933 -0.7320  0.0781  1.3164
  127OSM    C3S13494   1.288   5.277   2.940  0.3705 -0.5501  0.4937
  127OSM    H3S13495   1.259   5.170   2.929  0.8952 -0.5740 -0.8995
  127OSM     O313496   1.221   5.335   2.829 -0.0838  0.6600  0.5392
  127OSM    HO313497   1.296   5.358   2.774  1.6601 -0.6754  2.2114
  127OSM    C4S13498   1.248   5.329   3.075  0.3727 -0.7353 -0.5214
  127OSM    H4S13499   1.261   5.256   3.156  3.0107  0.4182  0.1864
  127OSM    C5S13500   1.210   5.453   3.106  0.2058  0.6306  0.4731
  127OSM    H5S13501   1.207   5.527   3.025  1.5742 -1.3089 -1.4540
  127OSM    C6S13502   1.183   5.493   3.248  0.4906 -0.1612  0.1204
  127OSM    H6S13503   1.187   5.404   3.314 -0.7557 -0.2044  0.1489
  127OSM    H6T13504   1.081   5.532   3.265  0.3656 -1.4777  2.7815
  127OSM    C7S13505   1.291   5.593   3.298  0.0194 -0.2948  0.5015
  127OSM    H7S13506   1.289   5.690   3.244  0.4731 -1.8031 -2.4135
  127OSM    H7T13507   1.392   5.551   3.279  0.9584  1.6761  0.9446
  127OSM    C8S13508   1.281   5.605   3.454  0.1595 -0.2327  0.3867
  127OSM    H8S13509   1.303   5.505   3.497  1.4094 -0.3029 -0.3639
  127OSM    H8T13510   1.175   5.621   3.483  0.3587  1.4177  0.2924
  127OSM    C9S13511   1.374   5.709   3.509 -0.7747  0.4918 -0.7665
  127OSM    H9S13512   1.347   5.814   3.483  1.4168  1.0864 -0.8457
  127OSM    H9T13513   1.477   5.684   3.476 -0.0388  0.0147  1.7104
  127OSM   C10S13514   1.376   5.715   3.666 -0.0428 -0.1017 -0.1305
  127OSM   H10S13515   1.429   5.624   3.702  0.6181  0.4205  0.2628
  127OSM   H10T13516   1.271   5.701   3.698 -0.1236 -0.2038 -0.4469
  127OSM   C11S13517   1.432   5.849   3.719 -0.2380 -0.6038  0.4143
  127OSM   H11S13518   1.359   5.932   3.716 -0.6841 -1.0050 -1.4710
  127OSM   H11T13519   1.518   5.892   3.663 -1.8266 -0.2039 -1.8533
  127OSM   C12S13520   1.465   5.835   3.871 -0.2656 -0.3722 -0.4047
  127OSM   H12S13521   1.518   5.739   3.893  1.1244  0.2386 -0.9243
  127OSM   H12T13522   1.368   5.824   3.923 -0.6926 -0.3049 -1.1743
  127OSM   C13S13523   1.553   5.949   3.916  0.6201  0.1350 -0.0857
  127OSM   H13S13524   1.516   6.041   3.867 -2.9253 -1.5186 -0.8359
  127OSM   H13T13525   1.653   5.925   3.874  0.7643 -1.6080  1.1139
  127OSM   C14S13526   1.548   5.964   4.074  0.3115  0.2635  0.4159
  127OSM   H14S13527   1.598   5.879   4.124 -2.0047  0.8331  4.1103
  127OSM   H14T13528   1.441   5.963   4.104  0.3003  0.8982  0.4225
  127OSM   C15S13529   1.618   6.094   4.117 -0.4129  0.2033  0.1211
  127OSM   H15S13530   1.632   6.089   4.227 -0.5963 -0.3157  0.1241
  127OSM   H15T13531   1.556   6.181   4.087 -0.4766 -0.3626 -1.5007
  127OSM   C16S13532   1.769   6.115   4.064  0.2876  0.0681 -0.0535
  127OSM   H16S13533   1.777   6.134   3.955 -1.3679 -0.0199 -0.2222
  127OSM   H16T13534   1.820   6.017   4.079 -0.5978 -0.5561 -0.9856
  127OSM   C17S13535   1.855   6.226   4.134  0.1805 -0.1688  0.1249
  127OSM   H17S13536   1.899   6.195   4.231 -1.9314 -0.2253  1.1089
  127OSM   H17T13537   1.803   6.323   4.150  1.3793  0.8521 -1.8172
  127OSM   C18S13538   1.978   6.264   4.039 -0.0726 -0.2508  0.3042
  127OSM   H18S13539   2.041   6.173   4.034  0.1949 -0.1463  1.4345
  127OSM   H18T13540   2.041   6.342   4.087 -1.4398  1.1531 -0.1054
  127OSM   H18U13541   1.947   6.303   3.940  1.3962  2.1784  0.7244
  127OSM    C1F13542   1.636   5.215   3.052  0.0651  0.3227  0.3039
  127OSM     OF13543   1.702   5.313   3.015  0.0823  0.2593  0.1344
  127OSM    C2F13544   1.687   5.096   3.135 -0.3740 -0.4323  0.4749
  127OSM    H2F13545   1.797   5.087   3.124 -0.4098 -0.7885  0.4209
  127OSM    H2G13546   1.639   4.998   3.115 -1.3082 -0.8825  4.1947
  127OSM    C3F13547   1.665   5.122   3.292  0.1696  0.3255  0.0294
  127OSM    H3F13548   1.689   5.230   3.305 -0.8017  0.3475  1.9618
  127OSM    H3G13549   1.747   5.071   3.347  0.3491 -1.1047 -1.4675
  127OSM    C4F13550   1.522   5.100   3.329  1.2448  0.1078 -0.1557
  127OSM    H4F13551   1.495   4.993   3.330  0.1735  0.3536  2.1223
  127OSM    H4G13552   1.464   5.148   3.246  0.4586  1.1190  0.9481
  127OSM    C5F13553   1.486   5.170   3.460 -0.1844 -0.7525 -0.0222
  127OSM    H5F13554   1.531   5.271   3.471 -0.8889 -0.0865 -2.5607
  127OSM    H5G13555   1.523   5.108   3.544  1.2349 -0.3163 -0.3037
  127OSM    C6F13556   1.338   5.184   3.481 -0.3293 -0.2986  0.1401
  127OSM    H6F13557   1.285   5.086   3.480 -2.2729  0.6770  1.0565
  127OSM    H6G13558   1.298   5.253   3.404  1.0169 -0.3263 -0.6187
  127OSM    C7F13559   1.308   5.244   3.621 -0.0621 -0.2633  0.4390
  127OSM    H7F13560   1.340   5.350   3.613 -2.4920  0.4222 -1.0896
  127OSM    H7G13561   1.366   5.198   3.704 -1.0286  1.0037  1.8513
  127OSM    C8F13562   1.159   5.253   3.656 -0.1230  0.3591  0.7330
  127OSM    H8F13563   1.115   5.331   3.590  2.0624 -0.0575 -1.3744
  127OSM    H8G13564   1.166   5.310   3.751  1.4826  0.0778  0.8095
  127OSM    C9F13565   1.076   5.124   3.657  0.0805  0.3342 -0.3753
  127OSM    H9F13566   1.038   5.094   3.558  0.1920 -0.4360 -0.1962
  127OSM   C10F13567   1.051   5.046   3.765  0.0192 -0.3298 -0.2382
  127OSM   H10F13568   0.987   4.957   3.752  2.6207 -2.4611  0.5665
  127OSM   C11F13569   1.093   5.059   3.904  0.1292  0.4319  0.0645
  127OSM   H11F13570   1.058   5.156   3.946  0.0349  1.3215 -1.9220
  127OSM   H11G13571   1.204   5.064   3.899  0.3812  0.6491  3.4300
  127OSM   C12F13572   1.059   4.925   3.980 -0.1447 -0.2543  0.8917
  127OSM   H12F13573   1.096   4.841   3.918 -1.0274  0.5596 -0.8201
  127OSM   H12G13574   0.950   4.912   3.968 -0.3952  2.9635 -1.8056
  127OSM   C13F13575   1.100   4.910   4.130  0.2250 -0.0284 -0.2120
  127OSM   H13F13576   1.200   4.874   4.159 -0.1696 -1.4595 -0.5570
  127OSM   H13G13577   1.029   4.840   4.178 -1.4119  1.5207 -0.2516
  127OSM   C14F13578   1.079   5.045   4.202 -0.9595 -0.7780  0.3399
  127OSM   H14F13579   0.982   5.091   4.171 -1.5121 -2.6629 -0.9520
  127OSM   H14G13580   1.159   5.120   4.188 -0.9323  0.0051  3.8419
  127OSM   C15F13581   1.064   5.039   4.355  0.3010 -0.1391  0.4510
  127OSM   H15F13582   1.008   4.946   4.375 -0.0411  0.4469  2.4053
  127OSM   H15G13583   0.992   5.117   4.387 -0.7709 -0.8450 -0.2006
  127OSM   C16F13584   1.197   5.052   4.443  0.7114  0.5002  0.4438
  127OSM   H16F13585   1.273   4.981   4.405  0.5901  1.5583 -1.9658
  127OSM   H16G13586   1.162   5.017   4.542 -1.8800  0.4308 -0.4101
  127OSM   C17F13587   1.249   5.192   4.437  0.7362  0.6655  0.5509
  127OSM   H17F13588   1.167   5.261   4.467 -0.3112  0.1832 -1.0568
  127OSM   H17G13589   1.278   5.210   4.332  1.0046 -0.5052  0.4107
  127OSM   C18F13590   1.370   5.206   4.526 -0.1500  0.1868  0.5492
  127OSM   H18F13591   1.395   5.311   4.551  1.5401 -0.0226 -0.1412
  127OSM   H18G13592   1.447   5.167   4.457 -1.3704  0.6969 -1.1597
  127OSM   H18H13593   1.358   5.130   4.607 -1.3574  1.0829  1.2443
  128OSM      N13594   1.619   3.442   2.586  0.6513  0.0246  0.0975
  128OSM    C1513595   1.606   3.300   2.630 -0.1893 -0.0964 -0.0485
  128OSM   H15A13596   1.686   3.275   2.699  1.2090  1.0973 -1.1573
  128OSM   H15B13597   1.591   3.228   2.552  1.6832  0.5387 -1.0769
  128OSM   H15C13598   1.517   3.295   2.690 -1.4805  2.7573 -1.5290
  128OSM    C1413599   1.648   3.531   2.705  0.2715  1.0611 -0.2509
  128OSM   H14A13600   1.564   3.547   2.771  1.6668  2.2411  1.3237
  128OSM   H14B13601   1.663   3.630   2.665  1.7467  0.6000 -0.8934
  128OSM   H14C13602   1.733   3.498   2.762 -1.0552  0.5086  1.4931
  128OSM    C1313603   1.734   3.465   2.493 -0.4817  0.0986  0.2234
  128OSM   H13A13604   1.737   3.570   2.469 -1.4292 -0.0734 -0.7650
  128OSM   H13B13605   1.712   3.406   2.405 -2.4899  0.6268  0.3179
  128OSM   H13C13606   1.825   3.446   2.547  0.5239  3.7573  0.0998
  128OSM    C1213607   1.486   3.484   2.519  0.2221  0.2121  0.4920
  128OSM   H12A13608   1.403   3.466   2.586  0.4182 -1.0317  0.4140
  128OSM   H12B13609   1.477   3.407   2.444  0.4327  2.6271 -2.1776
  128OSM    C1113610   1.471   3.626   2.454 -0.2478  0.2102  1.2318
  128OSM   H11A13611   1.366   3.635   2.418  0.0352 -1.6718 -0.1855
  128OSM   H11B13612   1.525   3.636   2.357 -0.9944 -2.5404  0.4352
  128OSM      P13613   1.596   3.845   2.517 -0.1126  0.2246 -0.0382
  128OSM    O1313614   1.728   3.783   2.488  0.1803 -0.5861  0.0279
  128OSM    O1413615   1.534   3.935   2.415  0.1673  0.5505  0.9772
  128OSM    O1113616   1.598   3.926   2.646  0.4974 -1.0930  0.0831
  128OSM    O1213617   1.495   3.726   2.549  0.0784 -0.4682 -0.4401
  128OSM    C1S13618   1.498   3.917   2.751 -0.3440  0.4262  0.5190
  128OSM    H1S13619   1.442   3.821   2.751  1.8811 -0.9316  0.4250
  128OSM    H1T13620   1.421   3.997   2.737  0.3239  1.3636  1.8952
  128OSM     NF13621   1.479   3.898   2.994 -0.1237  0.1869 -0.4555
  128OSM    HNF13622   1.482   3.957   3.074  3.5701 -1.8730  1.2029
  128OSM    C2S13623   1.571   3.931   2.891 -0.0645 -0.4723  0.4267
  128OSM    H2S13624   1.655   3.858   2.891  1.8806  1.5545 -2.0762
  128OSM    C3S13625   1.639   4.069   2.905  0.1194 -0.0371 -0.4271
  128OSM    H3S13626   1.571   4.156   2.897 -1.1293 -0.4977  3.1416
  128OSM     O313627   1.737   4.097   2.808 -0.2013 -0.0479 -0.7108
  128OSM    HO313628   1.711   4.056   2.725 -0.1203  0.2516 -0.8849
  128OSM    C4S13629   1.718   4.071   3.039 -0.3526  0.0542  0.0719
  128OSM    H4S13630   1.807   4.006   3.042 -1.4476 -1.5777 -0.8845
  128OSM    C5S13631   1.682   4.147   3.152 -0.3438 -0.1519  0.1789
  128OSM    H5S13632   1.594   4.214   3.156  1.5215  2.4413  0.5027
  128OSM    C6S13633   1.760   4.145   3.281 -0.2657  0.0026 -0.2157
  128OSM    H6S13634   1.859   4.095   3.279 -0.1003  0.1294  2.0771
  128OSM    H6T13635   1.711   4.083   3.360  2.1764 -2.1910 -0.3035
  128OSM    C7S13636   1.777   4.287   3.344  0.0645  0.1100  0.9789
  128OSM    H7S13637   1.685   4.350   3.348  0.0339  0.3357 -1.7431
  128OSM    H7T13638   1.838   4.346   3.272 -0.3661 -0.3780  0.2008
  128OSM    C8S13639   1.853   4.300   3.479  0.6286  0.2741  0.5723
  128OSM    H8S13640   1.895   4.403   3.481  0.1924  0.4624  0.1252
  128OSM    H8T13641   1.937   4.228   3.469 -2.1213 -3.0052 -0.7935
  128OSM    C9S13642   1.776   4.273   3.608 -0.3692 -0.3414  0.1677
  128OSM    H9S13643   1.740   4.169   3.609 -1.6449  0.0852  0.1115
  128OSM    H9T13644   1.687   4.340   3.608  0.3087  0.5907  0.3722
  128OSM   C10S13645   1.854   4.316   3.731 -0.6242 -0.6867 -0.2387
  128OSM   H10S13646   1.899   4.417   3.720  0.3352 -0.6254  3.0641
  128OSM   H10T13647   1.949   4.259   3.743  1.3199  1.9026 -2.1055
  128OSM   C11S13648   1.771   4.335   3.859 -0.0236 -0.2823 -1.0981
  128OSM   H11S13649   1.665   4.360   3.838 -0.1677  0.5083  0.4221
  128OSM   H11T13650   1.813   4.417   3.921  1.7710 -1.8578 -0.1100
  128OSM   C12S13651   1.760   4.212   3.953  0.1537  0.0300  0.3409
  128OSM   H12S13652   1.857   4.159   3.960 -0.7660 -1.7123  0.5419
  128OSM   H12T13653   1.693   4.139   3.901  2.5126 -2.3961  0.4929
  128OSM   C13S13654   1.694   4.246   4.089  0.4537  0.6576 -0.8547
  128OSM   H13S13655   1.587   4.270   4.077 -0.3361 -1.5955  0.9908
  128OSM   H13T13656   1.737   4.337   4.137 -0.0190  2.0494 -2.9254
  128OSM   C14S13657   1.720   4.136   4.195  0.3858  0.0246  0.3978
  128OSM   H14S13658   1.829   4.119   4.209  0.5345  0.7461  0.1394
  128OSM   H14T13659   1.680   4.035   4.169  2.4134 -0.3812 -1.5176
  128OSM   C15S13660   1.666   4.186   4.332  0.2652  0.4506 -0.0373
  128OSM   H15S13661   1.555   4.177   4.331 -0.0028  2.8927 -1.6015
  128OSM   H15T13662   1.683   4.295   4.343  0.4595  0.1954  2.9360
  128OSM   C16S13663   1.742   4.135   4.447  0.3853  0.4458 -0.5696
  128OSM   H16S13664   1.851   4.145   4.431  0.5624 -2.0224 -1.4242
  128OSM   H16T13665   1.728   4.026   4.466 -0.5076  0.8306  1.2044
  128OSM   C17S13666   1.710   4.201   4.585  0.1197  0.0306  0.3978
  128OSM   H17S13667   1.601   4.208   4.604  0.4237  2.3978  1.5684
  128OSM   H17T13668   1.752   4.304   4.585  0.1697  0.1324 -2.7363
  128OSM   C18S13669   1.766   4.112   4.698 -0.2758  0.4381 -0.5240
  128OSM   H18S13670   1.876   4.101   4.688 -0.4156  0.5065 -2.4426
  128OSM   H18T13671   1.708   4.017   4.689 -2.8823  2.0346 -1.5328
  128OSM   H18U13672   1.753   4.153   4.800  1.0155  0.5769 -0.4026
  128OSM    C1F13673   1.415   3.784   3.009 -0.3268  0.9267 -0.1173
  128OSM     OF13674   1.460   3.683   2.953  0.3593 -0.6486 -0.2588
  128OSM    C2F13675   1.289   3.777   3.091  0.2756 -1.0237  0.9059
  128OSM    H2F13676   1.221   3.696   3.056  3.3453 -4.1883  1.6605
  128OSM    H2G13677   1.232   3.872   3.083 -0.4426 -1.4493  0.8621
  128OSM    C3F13678   1.321   3.756   3.236  0.2434  0.3172 -0.0485
  128OSM    H3F13679   1.383   3.835   3.284 -0.2806 -0.3024  1.7155
  128OSM    H3G13680   1.377   3.661   3.247 -0.2545 -0.1867 -1.5700
  128OSM    C4F13681   1.195   3.759   3.319  0.3492  0.2085 -0.6104
  128OSM    H4F13682   1.119   3.692   3.274  0.8987  0.4030 -1.8672
  128OSM    H4G13683   1.155   3.863   3.327  0.5017  0.1644  1.1692
  128OSM    C5F13684   1.221   3.710   3.466  0.5321  0.3573  0.3079
  128OSM    H5F13685   1.288   3.784   3.514 -0.9975  1.1145  1.3772
  128OSM    H5G13686   1.277   3.615   3.451 -2.3088 -1.0409 -2.7529
  128OSM    C6F13687   1.101   3.697   3.560  0.3803 -0.3799 -0.9662
  128OSM    H6F13688   1.025   3.628   3.518  0.8658 -1.9462  0.6425
  128OSM    H6G13689   1.047   3.793   3.570 -1.7687 -1.7776  2.7336
  128OSM    C7F13690   1.154   3.655   3.703  0.4808 -0.1607  0.4237
  128OSM    H7F13691   1.232   3.727   3.734  1.2951 -0.8695  0.0557
  128OSM    H7G13692   1.189   3.550   3.700 -1.4856 -0.9287  1.8353
  128OSM    C8F13693   1.033   3.657   3.808 -0.2477 -0.3362 -0.3987
  128OSM    H8F13694   0.946   3.604   3.761 -1.8350  2.2478 -0.5353
  128OSM    H8G13695   0.995   3.761   3.818 -1.0128 -0.7602  1.5984
  128OSM    C9F13696   1.071   3.606   3.942  0.6455 -0.6952 -0.1861
  128OSM    H9F13697   1.099   3.685   4.013 -3.6532 -0.3086  1.3941
  128OSM   C10F13698   1.076   3.477   3.986  0.4553  0.4418  0.0437
  128OSM   H10F13699   1.088   3.455   4.093  1.8809 -0.0874 -0.2017
  128OSM   C11F13700   1.044   3.351   3.903  0.2594 -0.1609 -0.0296
  128OSM   H11F13701   1.029   3.384   3.798 -0.4531  2.7658  0.9167
  128OSM   H11G13702   0.945   3.314   3.938 -0.3893 -0.8356 -2.4150
  128OSM   C12F13703   1.155   3.246   3.904  0.4902 -0.2695 -1.3646
  128OSM   H12F13704   1.166   3.212   4.009  0.8664  1.1532 -0.9269
  128OSM   H12G13705   1.252   3.291   3.872  1.1579 -0.2206  0.5593
  128OSM   C13F13706   1.120   3.121   3.820 -0.7674 -0.5232  0.2004
  128OSM   H13F13707   1.016   3.092   3.844 -0.9985 -0.2769 -0.4725
  128OSM   H13G13708   1.174   3.032   3.858 -0.7712  0.5933  3.0303
  128OSM   C14F13709   1.135   3.158   3.671  0.1229  0.2020 -0.5557
  128OSM   H14F13710   1.245   3.151   3.658 -0.1533 -1.0532 -2.5767
  128OSM   H14G13711   1.100   3.260   3.647 -1.2925 -0.0700  0.2674
  128OSM   C15F13712   1.068   3.057   3.583  0.4703  0.4073  0.0655
  128OSM   H15F13713   1.060   2.956   3.631 -1.9003  0.6209  0.2489
  128OSM   H15G13714   1.117   3.053   3.484 -0.6975  0.3432 -0.5289
  128OSM   C16F13715   0.926   3.099   3.547 -0.4602  0.1637  0.4230
  128OSM   H16F13716   0.932   3.206   3.519 -1.3300 -0.0144 -0.5083
  128OSM   H16G13717   0.876   3.104   3.646  1.2311  6.1460  1.4066
  128OSM   C17F13718   0.858   3.008   3.441  0.5474  0.4789 -0.1247
  128OSM   H17F13719   0.935   2.963   3.375 -0.2211 -1.0117 -0.0397
  128OSM   H17G13720   0.799   3.073   3.372  0.2901 -0.0148 -0.3722
  128OSM   C18F13721   0.774   2.910   3.520  0.1394  0.7583  0.1600
  128OSM   H18F13722   0.710   2.849   3.453  0.1913  0.0931  0.7104
  128OSM   H18G13723   0.709   2.966   3.591  0.0822 -1.3685  1.8764
  128OSM   H18H13724   0.851   2.856   3.579  0.9787  1.6086 -0.1380
  129OSM      N13725   2.337   3.151   2.202  0.0606 -0.7525  0.1000
  129OSM    C1513726   2.406   3.030   2.158 -0.6121  0.4694 -0.5333
  129OSM   H15A13727   2.365   2.944   2.210 -2.3809  1.0142 -0.9395
  129OSM   H15B13728   2.510   3.032   2.186 -0.1886 -0.2320 -1.9651
  129OSM   H15C13729   2.403   3.002   2.054  0.4319 -0.9067 -0.2164
  129OSM    C1413730   2.360   3.170   2.354 -0.0413  0.2348  0.1722
  129OSM   H14A13731   2.305   3.260   2.378 -0.5711  0.7283 -2.5296
  129OSM   H14B13732   2.460   3.188   2.391 -0.6520  1.2496  1.3961
  129OSM   H14C13733   2.331   3.085   2.413  0.2395  0.8319  1.1925
  129OSM    C1313734   2.411   3.264   2.131  0.1450 -0.0667  0.3488
  129OSM   H13A13735   2.368   3.361   2.150 -2.2878 -0.6484 -1.7309
  129OSM   H13B13736   2.387   3.239   2.028 -2.1019 -0.1179  0.8350
  129OSM   H13C13737   2.516   3.254   2.154  0.2712  2.7084  1.3414
  129OSM    C1213738   2.194   3.132   2.159  0.0932 -0.0322 -0.1574
  129OSM   H12A13739   2.159   3.057   2.230  0.2022  0.3234  0.2722
  129OSM   H12B13740   2.206   3.075   2.068  2.2057  0.1441 -0.0238
  129OSM    C1113741   2.115   3.257   2.147  0.3887 -0.5834 -0.1178
  129OSM   H11A13742   2.045   3.243   2.062  1.1557 -2.6525 -0.4728
  129OSM   H11B13743   2.171   3.348   2.115  0.1456 -0.3567  0.0980
  129OSM      P13744   1.928   3.189   2.322  0.4608 -0.0089 -0.0002
  129OSM    O1313745   1.799   3.242   2.269 -0.2873 -0.5316  0.4727
  129OSM    O1413746   1.957   3.042   2.300 -0.3767  0.0029 -0.7792
  129OSM    O1113747   1.943   3.219   2.479  0.2996  0.0371  0.3786
  129OSM    O1213748   2.044   3.287   2.267  0.4494 -0.6146 -0.7695
  129OSM    C1S13749   2.076   3.193   2.543 -0.0887  0.9372 -0.3592
  129OSM    H1S13750   2.155   3.264   2.511 -0.2656  1.2117 -0.1863
  129OSM    H1T13751   2.104   3.087   2.527  0.9720  0.8285  1.8392
  129OSM     NF13752   2.207   3.218   2.758  0.8164 -0.0751 -0.1594
  129OSM    HNF13753   2.228   3.129   2.798  1.2473 -0.6402 -1.5750
  129OSM    C2S13754   2.073   3.221   2.697 -0.5667  0.2636 -0.1396
  129OSM    H2S13755   2.030   3.321   2.718 -0.9690  0.2605 -0.8963
  129OSM    C3S13756   1.970   3.121   2.759  0.1938 -0.4278  0.2447
  129OSM    H3S13757   2.004   3.016   2.744 -1.5563 -1.0497  0.4220
  129OSM     O313758   1.839   3.137   2.715  0.9091  0.7613 -0.2043
  129OSM    HO313759   1.862   3.172   2.629  2.4224  2.7986  0.9219
  129OSM    C4S13760   1.965   3.150   2.902 -0.3169 -0.7918 -0.7965
  129OSM    H4S13761   1.911   3.242   2.930  1.0403  0.6156 -2.6037
  129OSM    C5S13762   2.012   3.053   2.990  0.8397  0.4323 -0.1152
  129OSM    H5S13763   2.032   2.956   2.942  2.3457  0.8486 -0.3619
  129OSM    C6S13764   2.008   3.031   3.138 -0.4068 -0.2474  0.0061
  129OSM    H6S13765   2.116   3.038   3.160 -0.2922  0.5216 -0.7393
  129OSM    H6T13766   1.963   2.931   3.154 -1.8758  0.1193 -1.4262
  129OSM    C7S13767   1.948   3.143   3.220  0.1493 -0.3001 -0.9261
  129OSM    H7S13768   1.840   3.152   3.196 -0.2446  0.4482  0.9439
  129OSM    H7T13769   1.997   3.241   3.205  0.7848 -0.2735  1.0376
  129OSM    C8S13770   1.956   3.113   3.372 -0.7371 -0.0097 -0.1072
  129OSM    H8S13771   2.059   3.084   3.402 -0.6421 -0.2348 -0.6423
  129OSM    H8T13772   1.897   3.021   3.396  0.3211 -0.1650  2.0836
  129OSM    C9S13773   1.919   3.221   3.469 -0.5462 -0.2085 -0.5347
  129OSM    H9S13774   1.818   3.264   3.453 -0.5116  0.6355  1.2223
  129OSM    H9T13775   1.985   3.308   3.449 -2.5362  2.2586  2.5869
  129OSM   C10S13776   1.938   3.168   3.613 -0.2867  0.0570 -0.7651
  129OSM   H10S13777   2.014   3.087   3.614 -0.8481 -0.4824 -0.6265
  129OSM   H10T13778   1.840   3.130   3.651 -0.9588  1.6176 -0.8548
  129OSM   C11S13779   1.988   3.270   3.720  0.0597 -0.1090  0.1831
  129OSM   H11S13780   1.932   3.365   3.707 -2.3698 -1.3938  0.6770
  129OSM   H11T13781   2.094   3.303   3.713  0.3386 -1.0119 -0.0181
  129OSM   C12S13782   1.953   3.238   3.871 -0.7315 -0.4143  0.2892
  129OSM   H12S13783   1.843   3.241   3.885 -0.6236 -1.4259  1.5276
  129OSM   H12T13784   1.999   3.318   3.932  0.6335  0.0794 -1.3153
  129OSM   C13S13785   2.005   3.106   3.926 -0.4844 -0.5595  0.2333
  129OSM   H13S13786   2.116   3.118   3.935 -0.3550 -1.4248 -0.1873
  129OSM   H13T13787   1.993   3.025   3.852  1.0849 -1.0267  0.4440
  129OSM   C14S13788   1.936   3.084   4.061  0.3696  0.1697  0.2987
  129OSM   H14S13789   1.834   3.051   4.029  0.8962 -0.7848 -0.4254
  129OSM   H14T13790   1.928   3.174   4.126  0.4857  0.3552  0.0582
  129OSM   C15S13791   1.988   2.966   4.135  0.2717 -0.4968  0.2679
  129OSM   H15S13792   2.092   2.986   4.170  0.3882 -0.7997  0.1085
  129OSM   H15T13793   1.987   2.879   4.065 -0.7893 -0.9578  0.8319
  129OSM   C16S13794   1.914   2.926   4.272 -0.4307 -0.4719 -0.0949
  129OSM   H16S13795   1.879   3.015   4.329  0.6127  0.8595 -1.4585
  129OSM   H16T13796   1.985   2.872   4.338 -0.5972  1.2535  1.5803
  129OSM   C17S13797   1.787   2.847   4.261  0.4039 -0.3543  0.3996
  129OSM   H17S13798   1.808   2.750   4.211  0.0224  0.4024 -1.3155
  129OSM   H17T13799   1.712   2.898   4.196 -1.6280 -1.1771  1.9973
  129OSM   C18S13800   1.719   2.820   4.392  0.4823 -0.2562  0.2082
  129OSM   H18S13801   1.640   2.744   4.372 -0.1237  0.2405  0.7000
  129OSM   H18T13802   1.677   2.914   4.434 -0.6399 -0.0878 -1.2022
  129OSM   H18U13803   1.790   2.778   4.466  2.7723 -1.9011 -2.6699
  129OSM    C1F13804   2.303   3.302   2.741  0.6011 -0.5016 -0.1693
  129OSM     OF13805   2.286   3.388   2.652 -0.4886  0.5235  0.0176
  129OSM    C2F13806   2.424   3.284   2.821  0.2836  0.4646 -0.3184
  129OSM    H2F13807   2.495   3.232   2.753 -0.7294 -1.2437 -0.1274
  129OSM    H2G13808   2.399   3.224   2.911  0.8483  0.6929  0.0018
  129OSM    C3F13809   2.481   3.424   2.858 -0.2288 -0.2697  0.2036
  129OSM    H3F13810   2.498   3.484   2.766 -0.0849  0.1364  0.4907
  129OSM    H3G13811   2.579   3.408   2.909 -0.8233  2.0428  2.2735
  129OSM    C4F13812   2.393   3.519   2.949  0.1580 -0.5572 -0.0766
  129OSM    H4F13813   2.376   3.464   3.045 -0.2246  0.1983  0.2945
  129OSM    H4G13814   2.293   3.544   2.908 -0.3136  0.0742  1.3850
  129OSM    C5F13815   2.461   3.649   2.989  0.1139 -0.1094 -0.2207
  129OSM    H5F13816   2.489   3.693   2.890  0.1231 -2.5148 -1.3592
  129OSM    H5G13817   2.549   3.629   3.053  1.3384  0.2212 -1.7403
  129OSM    C6F13818   2.364   3.733   3.074  0.3574 -0.3926  0.8634
  129OSM    H6F13819   2.329   3.673   3.160  1.4772 -0.5475  1.2223
  129OSM    H6G13820   2.271   3.759   3.018  0.5856  0.2332  0.7658
  129OSM    C7F13821   2.435   3.862   3.125  0.3121  0.1535 -0.5951
  129OSM    H7F13822   2.358   3.942   3.138 -0.3572 -0.5909  0.1616
  129OSM    H7G13823   2.507   3.900   3.049  1.7407 -0.6851  0.2979
  129OSM    C8F13824   2.511   3.853   3.257 -0.3544  0.3589 -0.8958
  129OSM    H8F13825   2.608   3.800   3.246 -0.7382 -0.1201 -2.2004
  129OSM    H8G13826   2.453   3.802   3.337 -1.1902 -0.0270 -1.7274
  129OSM    C9F13827   2.544   3.990   3.315 -0.1586  0.0852  0.3821
  129OSM    H9F13828   2.635   4.037   3.275  1.1388 -0.4953  2.5139
  129OSM   C10F13829   2.478   4.052   3.412  0.1701 -0.4993 -0.7472
  129OSM   H10F13830   2.500   4.155   3.444  0.7003 -0.7648 -0.2502
  129OSM   C11F13831   2.350   4.011   3.480  0.4176 -0.3386 -0.3935
  129OSM   H11F13832   2.343   3.901   3.487  0.2388 -0.3387 -0.5786
  129OSM   H11G13833   2.264   4.050   3.421  0.7951  1.2856  0.0824
  129OSM   C12F13834   2.326   4.062   3.624 -0.2937 -0.1633 -0.2076
  129OSM   H12F13835   2.218   4.046   3.645 -0.2900 -1.1760 -0.9276
  129OSM   H12G13836   2.344   4.172   3.620  1.2437 -0.4148 -0.6374
  129OSM   C13F13837   2.407   4.003   3.733 -0.9694 -0.0002  0.4956
  129OSM   H13F13838   2.511   3.989   3.697 -0.8987  1.6772 -0.0292
  129OSM   H13G13839   2.369   3.899   3.750 -0.3037 -0.1033  1.4637
  129OSM   C14F13840   2.402   4.082   3.867  0.0901 -0.4403 -0.2618
  129OSM   H14F13841   2.466   4.030   3.941  1.1958 -0.7571 -1.4251
  129OSM   H14G13842   2.297   4.078   3.904 -0.1231  0.7715 -0.6977
  129OSM   C15F13843   2.437   4.235   3.861  0.0893 -0.0244  0.4122
  129OSM   H15F13844   2.432   4.280   3.963  1.5453 -0.9254  0.9137
  129OSM   H15G13845   2.369   4.283   3.788  1.1159 -1.6934 -1.7369
  129OSM   C16F13846   2.568   4.264   3.789  0.1925 -0.4806 -0.4217
  129OSM   H16F13847   2.577   4.195   3.702 -0.6638  0.9991 -1.7323
  129OSM   H16G13848   2.658   4.245   3.852 -0.2308 -1.8574 -0.1897
  129OSM   C17F13849   2.589   4.416   3.758 -0.9370  0.0804 -0.0927
  129OSM   H17F13850   2.594   4.472   3.854 -0.0992 -0.9691  0.4849
  129OSM   H17G13851   2.500   4.457   3.705 -1.6481  0.8008  1.5884
  129OSM   C18F13852   2.717   4.452   3.674  0.1131  0.6349 -0.4217
  129OSM   H18F13853   2.804   4.428   3.739 -0.8895  3.0744  2.0195
  129OSM   H18G13854   2.736   4.556   3.643 -0.6580  0.2042 -2.5316
  129OSM   H18H13855   2.724   4.391   3.581  1.6860 -0.5316  0.4124
  130OSM      N13856   1.925   0.003   2.525  0.4448 -0.3244 -0.2412
  130OSM    C1513857   1.891   0.143   2.497 -0.4445 -0.2529  0.1785
  130OSM   H15A13858   1.975   0.202   2.529 -0.3057 -0.5635  0.3753
  130OSM   H15B13859   1.805   0.170   2.556 -0.2426 -1.4911  1.0626
  130OSM   H15C13860   1.867   0.160   2.393 -1.9408  0.3379  0.5897
  130OSM    C1413861   1.944  -0.006   2.669  0.4334  0.0534 -0.7145
  130OSM   H14A13862   1.967  -0.106   2.703 -0.3396 -0.7622 -2.4726
  130OSM   H14B13863   1.850   0.018   2.716 -0.4123  1.8373 -3.1170
  130OSM   H14C13864   2.019   0.061   2.709 -1.2709  1.9565 -0.5225
  130OSM    C1313865   1.825  -0.095   2.483 -0.2704 -0.0075  1.0569
  130OSM   H13A13866   1.839  -0.183   2.544 -2.2426 -0.5264  0.8143
  130OSM   H13B13867   1.815  -0.124   2.379 -2.5137  3.6100  0.0814
  130OSM   H13C13868   1.724  -0.062   2.501 -1.5048 -0.8566 -3.0843
  130OSM    C1213869   2.062  -0.035   2.463 -0.3883 -1.0745 -0.5750
  130OSM   H12A13870   2.055  -0.044   2.355  1.1631 -0.1482 -0.7763
  130OSM   H12B13871   2.078  -0.135   2.500  0.7688 -0.6698  0.0502
  130OSM    C1113872   2.191   0.046   2.492 -0.1578 -0.0846 -0.0494
  130OSM   H11A13873   2.176   0.151   2.457 -0.8170 -0.3556 -0.6065
  130OSM   H11B13874   2.267  -0.006   2.429 -1.0723 -0.9402 -0.4625
  130OSM      P13875   2.338   0.155   2.665  0.3284  0.0567 -0.2275
  130OSM    O1313876   2.472   0.123   2.617  0.3250  0.3265  0.0712
  130OSM    O1413877   2.284   0.287   2.635 -0.0501  0.2011 -0.2087
  130OSM    O1113878   2.346   0.143   2.821 -0.4108 -0.1438 -0.3046
  130OSM    O1213879   2.236   0.038   2.623  0.6659  0.0691 -0.1637
  130OSM    C1S13880   2.329   0.018   2.882  0.4767  0.7164 -0.2862
  130OSM    H1S13881   2.426  -0.034   2.867  1.0404  1.1656  1.5071
  130OSM    H1T13882   2.248  -0.038   2.831  0.3986  2.0613 -1.6830
  130OSM     NF13883   2.299  -0.103   3.106  0.3275  0.2084 -0.2036
  130OSM    HNF13884   2.207  -0.138   3.118  0.0559 -0.1727 -2.8154
  130OSM    C2S13885   2.294   0.025   3.043 -0.2144 -0.5442  0.1881
  130OSM    H2S13886   2.374   0.090   3.082 -0.2388  0.7274 -1.7151
  130OSM    C3S13887   2.155   0.102   3.063 -0.8144 -0.0700  0.1582
  130OSM    H3S13888   2.079   0.032   3.023  1.9869 -0.7544 -4.8299
  130OSM     O313889   2.148   0.223   2.983  0.0177 -0.4248  0.1852
  130OSM    HO313890   2.219   0.212   2.919 -0.7183 -0.4973 -0.6382
  130OSM    C4S13891   2.116   0.117   3.212 -1.5489  0.4501 -0.0737
  130OSM    H4S13892   2.186   0.178   3.271 -0.7582 -3.4591  3.4410
  130OSM    C5S13893   2.021   0.044   3.279 -0.1895  0.6162 -0.3921
  130OSM    H5S13894   1.955  -0.021   3.219 -0.6822 -0.3379  1.1224
  130OSM    C6S13895   2.002   0.041   3.430  0.6294 -0.6481 -0.1903
  130OSM    H6S13896   1.987  -0.061   3.472 -0.4966 -0.5176 -0.2516
  130OSM    H6T13897   1.907   0.086   3.465  1.8023  0.8332  1.2076
  130OSM    C7S13898   2.105   0.105   3.517  0.3375 -0.2967  0.1204
  130OSM    H7S13899   2.106   0.214   3.496  1.6501 -0.1942  0.6245
  130OSM    H7T13900   2.205   0.068   3.484  1.0006  0.2308  1.4724
  130OSM    C8S13901   2.083   0.077   3.659  0.7043 -0.6500  0.7630
  130OSM    H8S13902   2.036  -0.021   3.681  1.1951 -1.0092  0.2331
  130OSM    H8T13903   2.012   0.157   3.689  0.9048  0.4169 -1.3986
  130OSM    C9S13904   2.202   0.102   3.744  0.0349 -0.6293 -0.0586
  130OSM    H9S13905   2.250   0.197   3.713  0.5554 -1.1261 -0.8028
  130OSM    H9T13906   2.277   0.024   3.720 -2.5460 -2.9681 -1.1633
  130OSM   C10S13907   2.171   0.089   3.893  0.2009 -0.6455 -0.2578
  130OSM   H10S13908   2.122  -0.009   3.913  1.8860 -1.4167  0.2957
  130OSM   H10T13909   2.096   0.162   3.930 -1.1624 -0.8804 -2.4252
  130OSM   C11S13910   2.299   0.103   3.968  0.4879  0.1806  0.0184
  130OSM   H11S13911   2.346   0.197   3.934  1.8427 -1.0292 -1.6594
  130OSM   H11T13912   2.366   0.019   3.940 -1.1242 -1.9501  2.1000
  130OSM   C12S13913   2.270   0.105   4.119  0.0432 -0.2868 -0.1981
  130OSM   H12S13914   2.192   0.180   4.145 -1.1062 -1.8784  1.1989
  130OSM   H12T13915   2.363   0.141   4.168  0.0265 -0.7387  0.1699
  130OSM   C13S13916   2.244  -0.034   4.189  0.4548 -0.0860  0.2505
  130OSM   H13S13917   2.334  -0.095   4.166  1.2444  0.7669  1.0073
  130OSM   H13T13918   2.166  -0.084   4.128  1.1510 -1.3408  0.3352
  130OSM   C14S13919   2.226  -0.020   4.341  0.5620  0.1844 -0.7538
  130OSM   H14S13920   2.123   0.013   4.367 -0.3180 -2.6353 -0.2684
  130OSM   H14T13921   2.305   0.047   4.380 -0.2539  0.9721 -0.4238
  130OSM   C15S13922   2.254  -0.158   4.414 -0.8377 -0.6097  0.3608
  130OSM   H15S13923   2.238  -0.157   4.524 -1.6847 -1.5606  0.2659
  130OSM   H15T13924   2.358  -0.181   4.383 -0.7004  0.1494  0.2428
  130OSM   C16S13925   2.174  -0.270   4.359 -0.1227  0.3323 -0.2395
  130OSM   H16S13926   2.193  -0.288   4.251  0.5253 -4.7385  0.4532
  130OSM   H16T13927   2.066  -0.248   4.379 -0.1132  0.8144 -0.7076
  130OSM   C17S13928   2.198  -0.410   4.424  0.2789 -0.7169 -0.6522
  130OSM   H17S13929   2.297  -0.451   4.395  0.0539 -1.4582 -0.3741
  130OSM   H17T13930   2.118  -0.482   4.397 -1.8504  0.5987  1.7278
  130OSM   C18S13931   2.200  -0.413   4.575 -0.0372 -0.1912  0.4062
  130OSM   H18S13932   2.176  -0.511   4.621  0.3414 -0.1006  0.8088
  130OSM   H18T13933   2.123  -0.345   4.619 -1.0846 -0.5920 -0.7400
  130OSM   H18U13934   2.293  -0.369   4.617  0.9272  1.0236 -2.7010
  130OSM    C1F13935   2.404  -0.184   3.113  0.5508  0.2917  0.8596
  130OSM     OF13936   2.514  -0.144   3.077 -0.8564  0.0222 -0.1178
  130OSM    C2F13937   2.374  -0.326   3.147  0.3738 -0.8957 -0.1049
  130OSM    H2F13938   2.395  -0.382   3.053 -1.6681  0.5766 -1.5237
  130OSM    H2G13939   2.267  -0.343   3.172  0.5373 -1.8926 -0.0490
  130OSM    C3F13940   2.462  -0.367   3.272 -0.0976  0.3888 -0.6013
  130OSM    H3F13941   2.569  -0.349   3.248  0.3491  2.0603  2.1014
  130OSM    H3G13942   2.445  -0.475   3.287  2.4988 -0.2092 -1.5593
  130OSM    C4F13943   2.450  -0.286   3.403 -0.2450  0.3292 -0.5797
  130OSM    H4F13944   2.442  -0.176   3.387 -2.3251  0.6481  1.9362
  130OSM    H4G13945   2.541  -0.300   3.464  0.3324  0.5863 -1.3710
  130OSM    C5F13946   2.324  -0.319   3.479  0.3358 -0.5862 -0.5840
  130OSM    H5F13947   2.313  -0.426   3.507 -1.4540 -0.0727  0.9525
  130OSM    H5G13948   2.236  -0.296   3.414  0.8132  0.8111 -0.7666
  130OSM    C6F13949   2.316  -0.238   3.608 -0.1533 -0.1256  0.1301
  130OSM    H6F13950   2.323  -0.132   3.577  4.5819 -1.0976 -3.1859
  130OSM    H6G13951   2.399  -0.252   3.681 -2.4734 -1.4128  2.7238
  130OSM    C7F13952   2.190  -0.256   3.687 -0.1242  0.4245 -0.6435
  130OSM    H7F13953   2.105  -0.221   3.624  0.6270  1.1558 -1.2665
  130OSM    H7G13954   2.190  -0.191   3.777  0.3996  0.0925 -0.4009
  130OSM    C8F13955   2.160  -0.396   3.744 -0.9117 -0.9525 -0.3084
  130OSM    H8F13956   2.174  -0.470   3.662  0.8900 -1.6640  0.5821
  130OSM    H8G13957   2.055  -0.401   3.782 -1.1667  2.5172 -0.3103
  130OSM    C9F13958   2.252  -0.429   3.859 -0.5659 -0.4507 -0.2702
  130OSM    H9F13959   2.228  -0.369   3.948  0.6419  0.2391 -0.3849
  130OSM   C10F13960   2.358  -0.515   3.865  0.2726 -0.3024 -0.5907
  130OSM   H10F13961   2.399  -0.533   3.966 -0.7476  4.0747  0.8325
  130OSM   C11F13962   2.399  -0.601   3.757  0.0262 -0.5929 -0.5567
  130OSM   H11F13963   2.320  -0.602   3.679 -1.4908 -0.8715  0.9291
  130OSM   H11G13964   2.403  -0.709   3.784 -1.2477 -0.6960 -0.7239
  130OSM   C12F13965   2.524  -0.549   3.681 -0.2120  0.2085  0.5286
  130OSM   H12F13966   2.610  -0.583   3.743 -2.1501 -1.8033  2.3132
  130OSM   H12G13967   2.512  -0.442   3.654  1.8264  0.4838  0.5591
  130OSM   C13F13968   2.543  -0.618   3.539  0.2539  0.0868 -0.3562
  130OSM   H13F13969   2.448  -0.602   3.485 -1.1440  0.6687  2.1498
  130OSM   H13G13970   2.537  -0.728   3.551  1.1189 -0.2285 -2.3380
  130OSM   C14F13971   2.671  -0.584   3.461 -0.8758  0.0162  0.6620
  130OSM   H14F13972   2.763  -0.590   3.524 -0.2119  0.7321 -0.2214
  130OSM   H14G13973   2.662  -0.478   3.430 -2.3894 -0.5322 -0.9132
  130OSM   C15F13974   2.689  -0.671   3.335  0.2311  0.6141  0.1674
  130OSM   H15F13975   2.603  -0.656   3.267  0.5272  1.8474  0.0439
  130OSM   H15G13976   2.690  -0.774   3.376 -1.5913 -0.5246 -2.4576
  130OSM   C16F13977   2.827  -0.645   3.252  0.3640 -0.6130 -0.0370
  130OSM   H16F13978   2.865  -0.742   3.213 -0.6321 -0.6424 -1.0069
  130OSM   H16G13979   2.900  -0.607   3.326 -0.9311 -0.5394  1.2354
  130OSM   C17F13980   2.822  -0.538   3.144 -0.0828  0.2310 -0.2756
  130OSM   H17F13981   2.917  -0.521   3.088 -0.3066  0.8302 -0.4850
  130OSM   H17G13982   2.799  -0.445   3.200  1.4238  0.3190  0.2601
  130OSM   C18F13983   2.709  -0.570   3.044  0.0434  0.2989 -0.0763
  130OSM   H18F13984   2.706  -0.496   2.960 -0.5357 -0.2977 -0.5954
  130OSM   H18G13985   2.617  -0.566   3.106  0.3429 -1.2176  0.4851
  130OSM   H18H13986   2.710  -0.672   2.999  1.9613  0.7767 -1.2490
  131OSM      N13987   6.543   2.648   2.724  0.0727 -0.3447 -0.1249
  131OSM    C1513988   6.638   2.535   2.746  0.4707 -0.8370 -0.8279
  131OSM   H15A13989   6.606   2.481   2.834 -0.4813 -1.2633 -1.4173
  131OSM   H15B13990   6.734   2.579   2.770  0.0909 -0.7565  0.6457
  131OSM   H15C13991   6.646   2.462   2.666  0.4009 -0.6753 -0.9824
  131OSM    C1413992   6.599   2.723   2.605 -0.1460  0.4407 -0.3844
  131OSM   H14A13993   6.701   2.759   2.614 -0.4789  1.0195  1.7164
  131OSM   H14B13994   6.536   2.805   2.575  2.2428  1.3017 -3.6192
  131OSM   H14C13995   6.590   2.652   2.525  1.5488  0.3856 -0.5557
  131OSM    C1313996   6.410   2.588   2.681 -0.0392 -0.2150  0.5224
  131OSM   H13A13997   6.361   2.531   2.758 -0.7101 -0.2813  0.0564
  131OSM   H13B13998   6.417   2.510   2.607 -1.6833  1.1644 -1.1844
  131OSM   H13C13999   6.345   2.659   2.631  0.1330  1.0672  2.0120
  131OSM    C1214000   6.515   2.736   2.851  1.3817  0.3033  0.0537
  131OSM   H12A14001   6.465   2.684   2.931 -2.1934 -0.4235 -2.3913
  131OSM   H12B14002   6.436   2.805   2.828  0.5733 -0.1590  1.3464
  131OSM    C1114003   6.628   2.811   2.916 -0.5673 -0.8446 -0.2400
  131OSM   H11A14004   6.700   2.728   2.933 -0.6339 -1.0320 -0.8593
  131OSM   H11B14005   6.592   2.849   3.014 -1.2589 -1.0884 -0.3935
  131OSM      P14006   6.804   2.993   2.830  0.0210  0.0757 -0.0594
  131OSM    O1314007   6.925   2.911   2.799  0.6041 -0.2058 -0.2028
  131OSM    O1414008   6.779   3.109   2.741  0.0034  0.1317  0.1993
  131OSM    O1114009   6.807   3.051   2.980 -0.0487 -0.0914 -0.2131
  131OSM    O1214010   6.670   2.917   2.832  0.3930  0.4287 -0.3442
  131OSM    C1S14011   6.925   3.120   3.029 -0.1120 -0.7235 -0.0136
  131OSM    H1S14012   6.952   3.204   2.962 -0.0911 -1.1232 -0.5172
  131OSM    H1T14013   7.014   3.054   3.022  2.4075  2.4294  0.1454
  131OSM     NF14014   7.025   3.242   3.235  0.2307 -0.0795  0.2238
  131OSM    HNF14015   7.074   3.221   3.319 -2.5195  1.8488  2.5301
  131OSM    C2S14016   6.916   3.163   3.186  0.6130  0.6115 -0.3814
  131OSM    H2S14017   6.825   3.225   3.200 -0.6038 -1.3620  0.8024
  131OSM    C3S14018   6.890   3.035   3.273 -0.1155  0.1298  0.1461
  131OSM    H3S14019   6.983   2.975   3.261  0.1119 -0.3199  3.3024
  131OSM     O314020   6.795   2.951   3.214  0.0640 -0.3772  0.9374
  131OSM    HO314021   6.808   2.968   3.121 -0.4385 -1.2831  0.6865
  131OSM    C4S14022   6.874   3.066   3.418 -0.5186 -0.5323  0.3135
  131OSM    H4S14023   6.968   3.093   3.469 -1.0496  0.9502  0.5532
  131OSM    C5S14024   6.761   3.061   3.488 -0.0012  0.7718  0.0042
  131OSM    H5S14025   6.670   3.026   3.438  0.9604  0.2099 -1.4105
  131OSM    C6S14026   6.757   3.083   3.638  0.3034  0.2284  0.7012
  131OSM    H6S14027   6.854   3.053   3.682  0.8444 -0.1975 -0.7410
  131OSM    H6T14028   6.667   3.033   3.681 -0.3591  0.7975  0.0058
  131OSM    C7S14029   6.731   3.228   3.674 -0.2568  0.3314  0.1703
  131OSM    H7S14030   6.634   3.259   3.631  0.0076  0.2957 -0.4559
  131OSM    H7T14031   6.814   3.296   3.643 -0.3736  0.6408  0.5185
  131OSM    C8S14032   6.721   3.257   3.826  0.2573  0.2160  0.0150
  131OSM    H8S14033   6.640   3.187   3.856 -0.0701 -1.4314 -4.0546
  131OSM    H8T14034   6.696   3.363   3.848 -1.4528 -0.4657  1.6862
  131OSM    C9S14035   6.843   3.211   3.907 -0.1618 -0.0538 -0.1883
  131OSM    H9S14036   6.944   3.245   3.876  1.0329 -1.2745  2.1660
  131OSM    H9T14037   6.851   3.101   3.897 -0.1840 -0.0875  0.1736
  131OSM   C10S14038   6.829   3.230   4.061  0.5071  0.0334  0.5671
  131OSM   H10S14039   6.751   3.159   4.095  0.3263  0.9799  2.2634
  131OSM   H10T14040   6.785   3.333   4.064 -1.3055 -0.6746 -0.1599
  131OSM   C11S14041   6.959   3.201   4.134 -0.1593  0.1096 -0.4906
  131OSM   H11S14042   7.046   3.264   4.107 -2.1157  2.7782 -0.9562
  131OSM   H11T14043   6.989   3.096   4.112  2.7954  0.0100  3.0072
  131OSM   C12S14044   6.956   3.204   4.284 -0.3732 -0.4497  0.6936
  131OSM   H12S14045   6.872   3.142   4.323 -0.3004 -0.5699  0.6576
  131OSM   H12T14046   6.938   3.307   4.324  0.4656 -0.4238  1.0174
  131OSM   C13S14047   7.087   3.152   4.345  0.4431 -0.0183  0.7785
  131OSM   H13S14048   7.165   3.217   4.299 -0.5303 -0.6862 -2.0472
  131OSM   H13T14049   7.110   3.052   4.302 -0.8461  0.7182 -1.8735
  131OSM   C14S14050   7.090   3.153   4.492 -0.2703 -0.4304  0.4721
  131OSM   H14S14051   6.998   3.100   4.526  0.8730 -0.6843  3.5173
  131OSM   H14T14052   7.076   3.254   4.537 -2.7591  0.6421 -2.3579
  131OSM   C15S14053   7.205   3.079   4.555 -0.1909  1.3051  0.6683
  131OSM   H15S14054   7.210   2.981   4.502 -1.3462  0.8283  1.4136
  131OSM   H15T14055   7.188   3.061   4.663  2.3886 -0.3422  0.8959
  131OSM   C16S14056   7.339   3.139   4.517  0.7547 -0.9410 -0.4135
  131OSM   H16S14057   7.322   3.246   4.542 -0.3080 -1.4145  1.0538
  131OSM   H16T14058   7.348   3.126   4.407  1.3750 -3.0795 -0.1430
  131OSM   C17S14059   7.463   3.094   4.592 -0.0888 -0.8585 -0.0520
  131OSM   H17S14060   7.549   3.115   4.525 -0.3352  1.5539  0.3080
  131OSM   H17T14061   7.468   2.984   4.606 -3.1478 -1.2430 -1.1663
  131OSM   C18S14062   7.492   3.171   4.721  0.2509 -0.1349  0.0832
  131OSM   H18S14063   7.474   3.279   4.705  0.9601 -0.4348 -3.5900
  131OSM   H18T14064   7.595   3.147   4.755  0.4296 -0.4505 -0.6607
  131OSM   H18U14065   7.418   3.142   4.799  1.0891  0.2215  1.0283
  131OSM    C1F14066   7.063   3.358   3.176 -0.0795  0.3329  0.0417
  131OSM     OF14067   6.986   3.424   3.107 -0.3386 -0.3439 -0.5510
  131OSM    C2F14068   7.208   3.408   3.204  0.3098 -0.5800 -0.1831
  131OSM    H2F14069   7.238   3.459   3.110 -1.0734  0.1051 -0.2855
  131OSM    H2G14070   7.274   3.322   3.225 -0.8677 -1.5677 -0.4269
  131OSM    C3F14071   7.211   3.505   3.319 -0.2296 -0.1029 -0.7948
  131OSM    H3F14072   7.140   3.589   3.300 -1.8024 -0.9568  1.0367
  131OSM    H3G14073   7.312   3.550   3.321 -0.0910 -0.4442 -0.0579
  131OSM    C4F14074   7.171   3.456   3.458 -0.6117  0.4812 -0.3076
  131OSM    H4F14075   7.248   3.384   3.493 -1.2818 -2.1129 -3.7125
  131OSM    H4G14076   7.079   3.394   3.465  0.1403 -0.7735 -1.1994
  131OSM    C5F14077   7.172   3.572   3.563 -0.4201 -0.3478  0.8174
  131OSM    H5F14078   7.098   3.636   3.509 -1.8218 -2.4765  0.0876
  131OSM    H5G14079   7.272   3.620   3.566 -0.8862  1.0132 -1.9641
  131OSM    C6F14080   7.127   3.523   3.700 -0.7681  0.2256 -0.4618
  131OSM    H6F14081   7.218   3.475   3.744 -1.7558 -0.6585  0.6717
  131OSM    H6G14082   7.054   3.444   3.675  0.6227 -0.8861 -1.1936
  131OSM    C7F14083   7.073   3.629   3.791  0.6008  0.1233 -0.1372
  131OSM    H7F14084   7.003   3.692   3.732  1.7566 -0.0749 -1.8181
  131OSM    H7G14085   7.163   3.691   3.809  1.9348 -1.0695 -2.2313
  131OSM    C8F14086   7.016   3.568   3.918  0.6791 -0.5435 -0.1818
  131OSM    H8F14087   7.094   3.498   3.954  1.1977  0.2517  0.2643
  131OSM    H8G14088   6.932   3.500   3.895  1.5577 -1.2452 -1.4045
  131OSM    C9F14089   6.979   3.670   4.023  0.8414  0.1686  0.0770
  131OSM    H9F14090   6.904   3.743   3.992 -0.7533 -1.0202  0.9778
  131OSM   C10F14091   7.028   3.682   4.152  0.3513  0.7551 -0.0296
  131OSM   H10F14092   6.970   3.747   4.220 -0.1900 -0.2216  0.4632
  131OSM   C11F14093   7.124   3.586   4.224 -0.3340 -0.5320  0.1096
  131OSM   H11F14094   7.213   3.565   4.161 -0.8940 -0.9252 -0.5588
  131OSM   H11G14095   7.080   3.485   4.238  0.0344 -0.3674  2.9074
  131OSM   C12F14096   7.151   3.628   4.372 -0.3477 -0.5399 -0.5714
  131OSM   H12F14097   7.066   3.684   4.417  1.3105  0.9568  0.8148
  131OSM   H12G14098   7.231   3.705   4.368 -0.9875  0.2703  1.1384
  131OSM   C13F14099   7.168   3.510   4.469 -0.5343  0.4366  0.2704
  131OSM   H13F14100   7.248   3.439   4.439  0.7208  2.0348 -0.3164
  131OSM   H13G14101   7.071   3.457   4.485 -0.8514  0.7819 -0.4367
  131OSM   C14F14102   7.232   3.555   4.607  0.8119  0.3669  0.4844
  131OSM   H14F14103   7.333   3.590   4.578  1.5934 -1.6100  0.6226
  131OSM   H14G14104   7.242   3.459   4.663  0.3898 -1.7565 -2.7999
  131OSM   C15F14105   7.152   3.676   4.663  0.5576 -0.6981  0.0959
  131OSM   H15F14106   7.054   3.631   4.688  0.5699 -0.4046  0.6660
  131OSM   H15G14107   7.137   3.755   4.586 -0.1149  0.5827  1.5081
  131OSM   C16F14108   7.208   3.719   4.803 -0.1826 -0.1368  0.6334
  131OSM   H16F14109   7.231   3.623   4.854  0.3977 -0.0871  0.4695
  131OSM   H16G14110   7.132   3.777   4.860 -2.8344 -0.4233 -2.2792
  131OSM   C17F14111   7.340   3.798   4.790 -0.6005 -0.0865  0.1414
  131OSM   H17F14112   7.427   3.762   4.730 -0.4390  0.1887  0.2101
  131OSM   H17G14113   7.383   3.804   4.892 -1.0837 -2.0091  0.5113
  131OSM   C18F14114   7.320   3.937   4.739 -0.0656  0.3292  0.4700
  131OSM   H18F14115   7.307   3.948   4.629 -0.2044  2.4433  0.6613
  131OSM   H18G14116   7.405   3.999   4.775 -0.4242  0.8052  0.5114
  131OSM   H18H14117   7.233   3.982   4.791 -0.1174  1.8058 -0.8137
  132OSM      N14118   0.727   4.139   2.629 -0.1919  0.3968 -0.6494
  132OSM    C1514119   0.752   4.195   2.493  0.1451 -0.3719  0.3091
  132OSM   H15A14120   0.681   4.273   2.467 -0.6434 -0.0084  3.1784
  132OSM   H15B14121   0.746   4.118   2.418 -1.3124  0.1528 -0.1477
  132OSM   H15C14122   0.854   4.231   2.494  0.3974 -1.0582 -0.2076
  132OSM    C1414123   0.766   4.239   2.728 -0.4532  0.5657 -0.2532
  132OSM   H14A14124   0.756   4.196   2.827 -3.7666  1.4320 -0.0842
  132OSM   H14B14125   0.694   4.320   2.731 -1.4610 -0.3308  0.3433
  132OSM   H14C14126   0.865   4.283   2.720 -0.9118  3.1278  4.3138
  132OSM    C1314127   0.585   4.107   2.635  0.5006 -0.9358 -0.0277
  132OSM   H13A14128   0.566   4.095   2.741  1.1478  0.3762  0.2583
  132OSM   H13B14129   0.577   4.014   2.580  2.3406 -0.7452 -0.7123
  132OSM   H13C14130   0.525   4.183   2.588  3.7678  2.6190  1.0536
  132OSM    C1214131   0.809   4.014   2.645  0.4639  0.1863 -0.8159
  132OSM   H12A14132   0.799   3.978   2.746 -1.5427  2.6384 -0.0426
  132OSM   H12B14133   0.913   4.043   2.642  0.0269  1.9129 -0.1183
  132OSM    C1114134   0.797   3.893   2.560  0.0524  0.2148  0.0605
  132OSM   H11A14135   0.886   3.827   2.562 -0.1844 -0.2356 -1.8024
  132OSM   H11B14136   0.802   3.940   2.459  2.5356 -0.9814 -0.4650
  132OSM      P14137   0.666   3.700   2.657  0.4543  0.0867 -0.1081
  132OSM    O1314138   0.522   3.673   2.684 -0.3181  0.1894 -0.1433
  132OSM    O1414139   0.743   3.596   2.582 -0.2790 -0.3975 -0.0702
  132OSM    O1114140   0.737   3.728   2.795 -0.4175  0.1531 -0.2359
  132OSM    O1214141   0.678   3.825   2.573  0.2557  0.0987 -0.2556
  132OSM    C1S14142   0.682   3.792   2.905 -0.5229 -0.0804 -0.7539
  132OSM    H1S14143   0.594   3.854   2.878  0.0316  1.0117 -0.1274
  132OSM    H1T14144   0.757   3.865   2.943  0.5660 -1.4704 -0.1552
  132OSM     NF14145   0.596   3.777   3.136  0.6678 -0.1453 -0.6214
  132OSM    HNF14146   0.658   3.813   3.205 -1.5563 -0.7469  1.9146
  132OSM    C2S14147   0.644   3.694   3.029 -0.0287 -0.2135  0.4023
  132OSM    H2S14148   0.571   3.622   2.988  1.6314 -1.1879 -1.0180
  132OSM    C3S14149   0.770   3.604   3.066  0.4521 -0.2157  0.0184
  132OSM    H3S14150   0.866   3.658   3.083 -0.0950  0.2900  1.6945
  132OSM     O314151   0.794   3.518   2.951 -0.2590 -0.2913  0.1866
  132OSM    HO314152   0.759   3.578   2.884 -1.1305  1.3365  1.9936
  132OSM    C4S14153   0.735   3.519   3.178  0.2924 -0.3660 -0.6799
  132OSM    H4S14154   0.666   3.436   3.157 -0.1369 -0.4651  0.9807
  132OSM    C5S14155   0.774   3.539   3.303 -1.3674 -0.0843  0.0068
  132OSM    H5S14156   0.824   3.632   3.335 -0.9593 -0.0369 -0.7400
  132OSM    C6S14157   0.742   3.434   3.405 -0.4382  0.0790 -0.1717
  132OSM    H6S14158   0.825   3.365   3.429 -0.3949  0.1704 -0.0607
  132OSM    H6T14159   0.662   3.363   3.373  1.0957 -1.3845 -0.8790
  132OSM    C7S14160   0.695   3.511   3.535  1.1553 -0.2107  0.8547
  132OSM    H7S14161   0.610   3.579   3.511  0.6725 -1.1044 -0.0727
  132OSM    H7T14162   0.776   3.581   3.566 -1.6511  3.6271  0.2220
  132OSM    C8S14163   0.656   3.422   3.651  0.3679  0.5072  0.4023
  132OSM    H8S14164   0.733   3.343   3.634 -0.2166  0.3074 -1.6556
  132OSM    H8T14165   0.558   3.369   3.642  0.1373  0.9696  0.1650
  132OSM    C9S14166   0.670   3.486   3.785 -0.6568  0.4471 -0.2966
  132OSM    H9S14167   0.592   3.565   3.785  0.4249  1.5328 -0.4484
  132OSM    H9T14168   0.773   3.525   3.799  0.7891 -3.7775  3.1223
  132OSM   C10S14169   0.653   3.389   3.901  0.3287 -0.0264 -0.0250
  132OSM   H10S14170   0.712   3.299   3.874  2.6122  0.4539  2.9021
  132OSM   H10T14171   0.549   3.351   3.912  1.3534 -2.2337  3.1573
  132OSM   C11S14172   0.701   3.454   4.026  0.1064 -0.1398  0.0396
  132OSM   H11S14173   0.622   3.523   4.063 -0.6134 -2.1619  2.5555
  132OSM   H11T14174   0.802   3.497   4.012  0.5172  0.0192  2.8261
  132OSM   C12S14175   0.712   3.360   4.148  0.0098 -0.0103  0.4944
  132OSM   H12S14176   0.765   3.271   4.110 -0.3951 -0.4288  0.8969
  132OSM   H12T14177   0.609   3.325   4.170  0.7231 -3.1222 -0.6668
  132OSM   C13S14178   0.778   3.413   4.279 -0.0556  0.1878  0.3726
  132OSM   H13S14179   0.884   3.436   4.255 -0.7975  1.9056 -1.4654
  132OSM   H13T14180   0.780   3.340   4.363 -0.4759 -1.4176 -0.9393
  132OSM   C14S14181   0.716   3.542   4.323 -0.1283 -0.3434  0.1537
  132OSM   H14S14182   0.606   3.541   4.344 -0.1385  0.8706  0.2663
  132OSM   H14T14183   0.741   3.621   4.249  1.7181  1.2048  2.3125
  132OSM   C15S14184   0.758   3.598   4.459 -0.1039 -0.2947 -0.1920
  132OSM   H15S14185   0.742   3.516   4.533 -1.1843 -1.1059 -1.2667
  132OSM   H15T14186   0.689   3.680   4.489  2.5974  2.3344 -0.7585
  132OSM   C16S14187   0.899   3.658   4.461 -0.3441  0.3044  0.5504
  132OSM   H16S14188   0.891   3.741   4.387  1.3290  1.0874  1.1859
  132OSM   H16T14189   0.957   3.570   4.426 -0.4798 -0.4839  2.2259
  132OSM   C17S14190   0.953   3.710   4.591  0.3144  0.2795 -0.0554
  132OSM   H17S14191   1.055   3.754   4.585 -0.1288  1.1556 -1.5506
  132OSM   H17T14192   0.967   3.635   4.672 -0.5389  0.0245 -0.1364
  132OSM   C18S14193   0.860   3.798   4.671  0.5551  0.6418 -0.0053
  132OSM   H18S14194   0.776   3.739   4.714 -0.5238  2.8316  1.0300
  132OSM   H18T14195   0.809   3.872   4.606  0.5166 -0.0066 -0.7396
  132OSM   H18U14196   0.910   3.851   4.754  2.5340 -0.7339 -0.2404
  132OSM    C1F14197   0.474   3.824   3.142  0.6177 -0.4314  0.1317
  132OSM     OF14198   0.383   3.782   3.068 -0.1945 -0.3288 -0.2007
  132OSM    C2F14199   0.447   3.934   3.242  0.3796 -0.8842  0.0363
  132OSM    H2F14200   0.389   4.011   3.186 -1.4599 -1.4083  1.1401
  132OSM    H2G14201   0.546   3.976   3.267  1.1030 -1.7059 -1.2779
  132OSM    C3F14202   0.365   3.886   3.356 -0.3432 -0.5629 -0.0095
  132OSM    H3F14203   0.431   3.817   3.412  3.0904  0.7536 -2.0944
  132OSM    H3G14204   0.278   3.826   3.320  0.0786 -1.9389  1.1604
  132OSM    C4F14205   0.311   3.995   3.449  0.2776  0.1835 -0.0204
  132OSM    H4F14206   0.230   4.048   3.396 -1.3169 -1.9790  0.1048
  132OSM    H4G14207   0.392   4.066   3.475 -0.0991  1.0077 -1.0526
  132OSM    C5F14208   0.253   3.930   3.580  0.0722 -0.9298 -0.2460
  132OSM    H5F14209   0.333   3.879   3.638 -0.0392  1.2846  2.0302
  132OSM    H5G14210   0.175   3.855   3.554  0.4410 -1.3984 -0.0236
  132OSM    C6F14211   0.203   4.040   3.679  0.2320 -0.6328  0.7871
  132OSM    H6F14212   0.137   4.113   3.628  0.1418  0.4127  2.3268
  132OSM    H6G14213   0.289   4.104   3.707 -0.6890  0.1668  1.8921
  132OSM    C7F14214   0.114   3.984   3.789 -0.0632 -0.1068 -0.7329
  132OSM    H7F14215   0.182   3.912   3.839  0.0388  0.7466  0.4042
  132OSM    H7G14216   0.027   3.932   3.744 -0.1178 -0.2911 -0.4184
  132OSM    C8F14217   0.084   4.085   3.896 -0.4087  0.6563  0.5115
  132OSM    H8F14218   0.005   4.048   3.965 -0.1155  1.0023  1.0427
  132OSM    H8G14219   0.024   4.163   3.844  0.6056  1.4926  0.5687
  132OSM    C9F14220   0.201   4.147   3.970 -0.3169  0.4371  0.3617
  132OSM    H9F14221   0.281   4.188   3.906  0.1974 -1.2552 -0.1202
  132OSM   C10F14222   0.229   4.120   4.102  0.7598  0.3705 -0.7543
  132OSM   H10F14223   0.323   4.155   4.146  0.4151 -1.5738  1.8056
  132OSM   C11F14224   0.148   4.034   4.202  0.2256 -0.0789 -0.3162
  132OSM   H11F14225   0.210   3.953   4.247 -1.0662 -1.9807 -1.8090
  132OSM   H11G14226   0.053   3.991   4.165  0.4340 -1.9820  1.1798
  132OSM   C12F14227   0.098   4.143   4.308  0.1223  0.0163  0.6528
  132OSM   H12F14228   0.027   4.087   4.373 -0.2354 -0.2848  0.0218
  132OSM   H12G14229   0.048   4.229   4.257  0.0981 -0.8860 -0.8945
  132OSM   C13F14230   0.208   4.210   4.402 -0.1078  0.5112 -0.2118
  132OSM   H13F14231   0.281   4.130   4.428 -1.9691 -1.6509 -1.2896
  132OSM   H13G14232   0.148   4.233   4.492  0.4063 -0.5250  0.4253
  132OSM   C14F14233   0.268   4.339   4.349  0.0419 -0.2788  0.0487
  132OSM   H14F14234   0.186   4.408   4.321  0.7111  0.0535 -1.1600
  132OSM   H14G14235   0.320   4.317   4.253  0.9061 -3.1289  1.0688
  132OSM   C15F14236   0.355   4.401   4.455  0.2976 -0.1643 -0.0632
  132OSM   H15F14237   0.421   4.327   4.505  0.6558  1.3313  1.8078
  132OSM   H15G14238   0.287   4.445   4.531  0.6513 -0.3169  0.3426
  132OSM   C16F14239   0.441   4.521   4.402  0.0476 -0.1710 -0.6094
  132OSM   H16F14240   0.508   4.477   4.325  0.7309  1.0308 -0.7298
  132OSM   H16G14241   0.504   4.558   4.485  1.2742 -0.7008 -1.2726
  132OSM   C17F14242   0.368   4.641   4.353  0.8873  0.0606  0.0139
  132OSM   H17F14243   0.299   4.600   4.276  0.4053 -1.3495  1.1491
  132OSM   H17G14244   0.446   4.708   4.311  2.5629 -1.0673  1.1647
  132OSM   C18F14245   0.280   4.723   4.448 -0.1957 -0.0727  0.3945
  132OSM   H18F14246   0.211   4.665   4.513 -0.7247 -1.5386 -1.3927
  132OSM   H18G14247   0.224   4.801   4.392  0.6545  2.8434  3.2952
  132OSM   H18H14248   0.347   4.777   4.518 -1.2341 -0.2921  1.5911
  133OSM      N14249   6.273   3.866   2.230 -0.5086  0.3573  0.0138
  133OSM    C1514250   6.227   3.990   2.161  0.2019 -0.6622 -0.1804
  133OSM   H15A14251   6.247   3.998   2.055 -0.1806  3.9688 -0.1226
  133OSM   H15B14252   6.267   4.080   2.206  2.7059 -0.7345 -2.0007
  133OSM   H15C14253   6.119   3.997   2.157  0.0353 -1.4596  1.8176
  133OSM    C1414254   6.257   3.763   2.135 -0.2217 -0.7756  0.4781
  133OSM   H14A14255   6.295   3.798   2.040  0.2380  0.9863  1.2516
  133OSM   H14B14256   6.155   3.730   2.121 -0.4306  0.4528 -1.2906
  133OSM   H14C14257   6.315   3.675   2.158  0.4837 -0.2075  0.9279
  133OSM    C1314258   6.419   3.884   2.251 -0.0689  0.3039 -0.0011
  133OSM   H13A14259   6.471   3.885   2.156 -1.1914 -1.3897 -0.6790
  133OSM   H13B14260   6.449   3.794   2.303  1.2497  0.3573 -0.6247
  133OSM   H13C14261   6.447   3.975   2.302  0.4289  1.2383 -1.8373
  133OSM    C1214262   6.192   3.849   2.358 -0.1822  0.9728 -0.5841
  133OSM   H12A14263   6.203   3.751   2.402 -1.8928  1.3243  0.7210
  133OSM   H12B14264   6.086   3.855   2.338 -0.6275 -2.1500  0.3573
  133OSM    C1114265   6.215   3.946   2.472 -0.4557 -0.9516 -0.3077
  133OSM   H11A14266   6.323   3.969   2.478 -0.0942 -1.0485 -4.2234
  133OSM   H11B14267   6.183   3.903   2.570  0.2532  0.0198  0.3691
  133OSM      P14268   5.999   4.083   2.473 -0.1214 -0.0420  0.0744
  133OSM    O1314269   5.954   4.213   2.417 -0.1487  0.1209 -0.4981
  133OSM    O1414270   5.933   3.958   2.431 -0.0048  0.2243 -0.8494
  133OSM    O1114271   6.002   4.100   2.630 -0.3827 -0.3930  0.1146
  133OSM    O1214272   6.154   4.069   2.441  0.0913 -0.5893 -0.2125
  133OSM    C1S14273   5.943   4.003   2.713  0.2342 -0.0464  0.4508
  133OSM    H1S14274   5.985   3.903   2.689 -0.7232 -0.0684 -1.3161
  133OSM    H1T14275   5.832   4.004   2.703  0.1895  1.6150  0.9098
  133OSM     NF14276   5.950   3.926   2.946  0.9011 -0.1785 -0.1541
  133OSM    HNF14277   5.870   3.926   3.006  0.0712 -3.4368 -1.0274
  133OSM    C2S14278   5.976   4.040   2.857  0.2111 -0.2507  0.1938
  133OSM    H2S14279   6.085   4.058   2.858  0.2720 -0.5651 -0.4067
  133OSM    C3S14280   5.899   4.164   2.897 -0.3033  0.4955 -0.6829
  133OSM    H3S14281   5.789   4.154   2.904 -0.2185 -0.1574 -0.1395
  133OSM     O314282   5.899   4.277   2.811  0.2253 -0.0694 -0.3262
  133OSM    HO314283   5.944   4.246   2.732 -0.7119 -2.4040 -0.0086
  133OSM    C4S14284   5.944   4.204   3.034 -0.0871  0.9003  0.0368
  133OSM    H4S14285   5.858   4.213   3.102 -0.2174  0.7002 -0.0965
  133OSM    C5S14286   6.052   4.275   3.060  0.3447 -1.1526 -0.9718
  133OSM    H5S14287   6.117   4.294   2.973  0.4303 -0.5370 -0.7796
  133OSM    C6S14288   6.083   4.337   3.191 -0.9034 -0.8094 -0.3342
  133OSM    H6S14289   6.113   4.442   3.174 -0.2323 -1.1200 -1.1408
  133OSM    H6T14290   6.180   4.299   3.228 -0.3838  0.5307 -0.2801
  133OSM    C7S14291   5.971   4.345   3.298 -0.2658 -0.2790  0.2938
  133OSM    H7S14292   5.933   4.244   3.324 -0.1703  0.3317  3.0949
  133OSM    H7T14293   5.887   4.406   3.260  0.3111  0.4396  0.1474
  133OSM    C8S14294   6.025   4.403   3.428  0.5319  0.2974 -0.8872
  133OSM    H8S14295   6.049   4.511   3.426  4.2796 -0.4078 -1.4053
  133OSM    H8T14296   6.119   4.347   3.448 -1.5644 -3.7796 -1.2260
  133OSM    C9S14297   5.937   4.361   3.548  0.7414 -0.9242  0.5401
  133OSM    H9S14298   5.895   4.260   3.533 -1.6119  0.0053  0.3549
  133OSM    H9T14299   5.848   4.428   3.550  0.4039 -1.3175 -0.6594
  133OSM   C10S14300   6.008   4.373   3.685  0.1143 -0.1259 -0.0790
  133OSM   H10S14301   6.101   4.316   3.669 -0.5379 -0.4208 -3.6519
  133OSM   H10T14302   5.948   4.328   3.767  1.2196 -0.9468  0.3003
  133OSM   C11S14303   6.028   4.524   3.720 -0.8099  0.1067  0.3848
  133OSM   H11S14304   6.101   4.570   3.650 -1.5729 -0.2389 -0.6551
  133OSM   H11T14305   6.065   4.522   3.825 -1.4048 -4.6204  0.7102
  133OSM   C12S14306   5.899   4.606   3.718 -0.4359  0.6337  0.1336
  133OSM   H12S14307   5.812   4.541   3.740  0.9378 -0.6855  1.9882
  133OSM   H12T14308   5.872   4.646   3.618 -1.4658 -2.2026 -0.8189
  133OSM   C13S14309   5.903   4.710   3.824  0.7896 -0.4095 -0.2741
  133OSM   H13S14310   5.991   4.776   3.817 -0.7542  1.7467 -0.3780
  133OSM   H13T14311   5.891   4.653   3.919  0.7423 -3.0561 -1.7571
  133OSM   C14S14312   5.778   4.799   3.817  0.5223  0.6248  0.1569
  133OSM   H14S14313   5.689   4.735   3.830  0.1797  0.7721 -1.3228
  133OSM   H14T14314   5.775   4.846   3.717 -2.2141 -0.2657 -0.2513
  133OSM   C15S14315   5.788   4.916   3.913 -0.3137 -0.5337 -0.3340
  133OSM   H15S14316   5.732   4.997   3.861  0.5658  1.6567  1.9337
  133OSM   H15T14317   5.893   4.951   3.915 -1.0035  1.7279 -0.3770
  133OSM   C16S14318   5.734   4.890   4.047  0.3549  0.0710  0.2460
  133OSM   H16S14319   5.794   4.819   4.108  0.9810  0.6993  0.3699
  133OSM   H16T14320   5.634   4.849   4.021 -0.2999 -0.7513  3.5803
  133OSM   C17S14321   5.722   5.018   4.143 -0.0113  0.2108  0.2116
  133OSM   H17S14322   5.817   5.071   4.166  0.3366 -0.3964  0.1968
  133OSM   H17T14323   5.692   4.975   4.242 -1.4355 -0.4741 -0.4855
  133OSM   C18S14324   5.621   5.123   4.100 -0.0361 -0.0110  0.6218
  133OSM   H18S14325   5.520   5.078   4.090  0.2844 -1.0297  1.7955
  133OSM   H18T14326   5.654   5.173   4.006  0.4192 -0.4318  0.5584
  133OSM   H18U14327   5.626   5.206   4.174 -0.0640  1.1786 -0.6584
  133OSM    C1F14328   6.018   3.807   2.930 -0.0826 -0.2581  0.1633
  133OSM     OF14329   6.132   3.802   2.886  0.2265 -0.3719 -0.1115
  133OSM    C2F14330   5.943   3.678   2.955 -0.3118 -0.9421 -0.3627
  133OSM    H2F14331   5.975   3.602   2.881  2.4697  0.1424 -0.3832
  133OSM    H2G14332   5.834   3.699   2.959 -0.1479  0.3419 -1.8535
  133OSM    C3F14333   5.986   3.609   3.085 -0.2519  0.3268 -0.3339
  133OSM    H3F14334   6.095   3.586   3.083 -0.3728 -0.1863 -1.3613
  133OSM    H3G14335   5.937   3.510   3.083 -0.4370  0.3951  0.4725
  133OSM    C4F14336   5.939   3.691   3.210 -0.6445  0.6568  0.5634
  133OSM    H4F14337   5.829   3.710   3.206 -0.8666 -0.6249 -0.0699
  133OSM    H4G14338   5.985   3.790   3.194 -0.3838  0.0851 -3.4159
  133OSM    C5F14339   5.962   3.620   3.347  0.0906 -0.1106  0.5465
  133OSM    H5F14340   6.070   3.596   3.355 -0.4156 -2.9641  0.0482
  133OSM    H5G14341   5.902   3.527   3.337 -0.6006  0.2913  0.9319
  133OSM    C6F14342   5.907   3.687   3.467  0.1060  0.0393  0.4228
  133OSM    H6F14343   5.797   3.692   3.454  0.4188 -0.0592 -3.5217
  133OSM    H6G14344   5.948   3.790   3.472  0.2093 -0.0109  0.6123
  133OSM    C7F14345   5.953   3.610   3.591 -0.2605  0.2691 -0.2968
  133OSM    H7F14346   6.063   3.623   3.582  0.1046 -1.2702  1.3583
  133OSM    H7G14347   5.946   3.499   3.587  1.7897  0.0099  1.6783
  133OSM    C8F14348   5.899   3.669   3.722 -0.1700 -0.2238  0.3913
  133OSM    H8F14349   5.910   3.779   3.708 -2.4654  0.0411  0.2894
  133OSM    H8G14350   5.971   3.629   3.796  0.1441  2.3642  1.5984
  133OSM    C9F14351   5.758   3.626   3.745  0.2757 -0.5738 -0.4464
  133OSM    H9F14352   5.716   3.536   3.696 -0.4343 -2.2920  2.9924
  133OSM   C10F14353   5.683   3.678   3.846 -0.3094  0.1262  0.6346
  133OSM   H10F14354   5.575   3.657   3.840 -0.4559  1.1167 -0.7974
  133OSM   C11F14355   5.729   3.779   3.950  0.1815 -0.1316 -0.3524
  133OSM   H11F14356   5.657   3.864   3.957 -2.8847 -2.4447 -1.6393
  133OSM   H11G14357   5.833   3.816   3.933 -0.2598  1.6430  0.5410
  133OSM   C12F14358   5.732   3.714   4.091  0.2743  0.1008 -0.6893
  133OSM   H12F14359   5.819   3.758   4.143 -0.2349  0.3826 -0.0589
  133OSM   H12G14360   5.750   3.605   4.083  1.1790  0.1536  0.4509
  133OSM   C13F14361   5.612   3.757   4.176 -0.3717 -0.5662  0.0525
  133OSM   H13F14362   5.523   3.702   4.138 -2.0208  2.0519 -0.1698
  133OSM   H13G14363   5.596   3.867   4.169 -0.1533 -0.6282 -3.0855
  133OSM   C14F14364   5.636   3.727   4.328  0.3596  0.6687  0.0841
  133OSM   H14F14365   5.566   3.786   4.391 -2.3015 -1.4762 -0.7036
  133OSM   H14G14366   5.745   3.733   4.352  0.5354  1.2086 -0.7940
  133OSM   C15F14367   5.591   3.583   4.356  1.2344 -0.1286  1.0253
  133OSM   H15F14368   5.649   3.516   4.289 -1.4131 -1.0358 -0.5168
  133OSM   H15G14369   5.485   3.569   4.327  1.5011 -0.3050  0.0970
  133OSM   C16F14370   5.628   3.553   4.501 -0.3685  0.8442 -0.1828
  133OSM   H16F14371   5.595   3.634   4.569 -0.4448  0.7823 -0.1454
  133OSM   H16G14372   5.739   3.549   4.511 -0.3598 -2.5286 -0.3637
  133OSM   C17F14373   5.567   3.416   4.546 -0.8603  0.0140  0.8316
  133OSM   H17F14374   5.613   3.386   4.643 -0.3084 -0.1536  0.5286
  133OSM   H17G14375   5.613   3.346   4.472  1.4147  2.9302 -0.7469
  133OSM   C18F14376   5.421   3.411   4.537  0.3073  0.2851 -0.1634
  133OSM   H18F14377   5.366   3.497   4.580  1.9062  2.0320 -1.4220
  133OSM   H18G14378   5.387   3.314   4.579 -0.7671 -0.2219 -2.0619
  133OSM   H18H14379   5.393   3.403   4.430  0.3675 -2.3520 -0.0560
  134OSM      N14380   5.547   0.161   2.520 -0.3417  0.3406 -0.6893
  134OSM    C1514381   5.453   0.187   2.634  0.0127  0.7524 -0.0293
  134OSM   H15A14382   5.470   0.122   2.718  0.1132 -1.6208 -1.7806
  134OSM   H15B14383   5.351   0.182   2.597  0.4404  2.6698 -1.6732
  134OSM   H15C14384   5.465   0.289   2.667  0.8367  0.3605  0.9184
  134OSM    C1414385   5.521   0.263   2.412 -0.4318 -0.6504  0.1650
  134OSM   H14A14386   5.505   0.362   2.450 -1.1084 -0.9096  0.5826
  134OSM   H14B14387   5.430   0.230   2.363  0.4162 -0.5548 -1.5471
  134OSM   H14C14388   5.607   0.275   2.347 -1.5987  0.5990 -1.2299
  134OSM    C1314389   5.686   0.184   2.577  0.3271 -0.2502  0.0375
  134OSM   H13A14390   5.763   0.148   2.511  1.6948  2.1149  0.2186
  134OSM   H13B14391   5.690   0.136   2.674 -0.3941 -3.6822 -1.5037
  134OSM   H13C14392   5.697   0.292   2.583  0.5847 -0.3300  1.6080
  134OSM    C1214393   5.528   0.019   2.464  0.0933  0.0395  0.9882
  134OSM   H12A14394   5.430   0.011   2.418  1.5218  0.9503 -2.5221
  134OSM   H12B14395   5.527  -0.052   2.545 -1.4998  0.7886  1.6843
  134OSM    C1114396   5.625  -0.028   2.348 -0.5751 -0.3082 -0.3792
  134OSM   H11A14397   5.630   0.048   2.267  1.9127 -1.7989 -1.7506
  134OSM   H11B14398   5.576  -0.118   2.305 -1.5952  1.0717 -2.2789
  134OSM      P14399   5.798  -0.174   2.494  0.1595  0.3801 -0.1019
  134OSM    O1314400   5.789  -0.309   2.432 -0.5625  0.5377  0.2068
  134OSM    O1414401   5.932  -0.148   2.555  0.0785  0.2362 -0.8546
  134OSM    O1114402   5.690  -0.166   2.613  0.2608  0.4048  0.0593
  134OSM    O1214403   5.756  -0.049   2.397 -0.2747  0.0802  0.4970
  134OSM    C1S14404   5.676  -0.277   2.699  0.0763  0.2396 -0.6677
  134OSM    H1S14405   5.721  -0.373   2.666  2.2896  0.8822  0.3017
  134OSM    H1T14406   5.568  -0.304   2.706  0.0291  0.0964 -1.7739
  134OSM     NF14407   5.734  -0.371   2.925 -0.1539  0.1065  0.1759
  134OSM    HNF14408   5.670  -0.373   3.001 -2.4323  2.4116 -1.4608
  134OSM    C2S14409   5.729  -0.251   2.848  0.1065 -0.2954  0.4896
  134OSM    H2S14410   5.831  -0.218   2.821 -1.0475  1.4504 -2.1916
  134OSM    C3S14411   5.653  -0.132   2.921  0.0265  0.9610 -0.2476
  134OSM    H3S14412   5.562  -0.188   2.951  1.8964 -2.5233 -0.5857
  134OSM     O314413   5.610  -0.028   2.833 -0.2700 -0.4216  0.2528
  134OSM    HO314414   5.623  -0.056   2.742  1.0335 -0.5409  0.4593
  134OSM    C4S14415   5.731  -0.070   3.035 -0.0037 -0.5350  0.7697
  134OSM    H4S14416   5.837  -0.050   3.014 -0.4898  0.6571 -0.7687
  134OSM    C5S14417   5.697  -0.052   3.164 -0.4537  0.1567  0.3171
  134OSM    H5S14418   5.599  -0.094   3.192 -0.6124  0.5820  0.4163
  134OSM    C6S14419   5.790  -0.006   3.280  0.0986  0.8818  0.7757
  134OSM    H6S14420   5.764   0.099   3.304 -0.5349  1.2058 -1.1159
  134OSM    H6T14421   5.894  -0.015   3.242 -0.1506 -0.8590  0.4013
  134OSM    C7S14422   5.804  -0.092   3.404 -0.6070  0.2346 -0.3937
  134OSM    H7S14423   5.818  -0.200   3.380  3.3130  0.0411  1.9318
  134OSM    H7T14424   5.711  -0.098   3.464  0.3646  1.7397  1.3709
  134OSM    C8S14425   5.904  -0.051   3.507 -0.2461  0.0392  0.0061
  134OSM    H8S14426   5.884   0.054   3.540  0.4715 -0.8235  3.5710
  134OSM    H8T14427   5.996  -0.056   3.445  0.8179 -1.2403  1.6031
  134OSM    C9S14428   5.891  -0.148   3.629  0.0425  0.3236 -0.6919
  134OSM    H9S14429   5.866  -0.251   3.595  2.9507 -0.2898 -1.2377
  134OSM    H9T14430   5.807  -0.120   3.695  1.3006  1.9827  0.2663
  134OSM   C10S14431   6.027  -0.166   3.704 -0.2045  0.8028 -0.0352
  134OSM   H10S14432   6.063  -0.067   3.741  0.2602 -0.4291  3.1583
  134OSM   H10T14433   6.103  -0.202   3.631  1.1183  0.0254  1.6284
  134OSM   C11S14434   6.011  -0.261   3.823  0.6556 -0.2343 -0.4571
  134OSM   H11S14435   6.102  -0.295   3.877  0.1256 -1.1658 -0.1369
  134OSM   H11T14436   5.963  -0.350   3.777 -0.8917 -0.9189  2.2565
  134OSM   C12S14437   5.903  -0.214   3.930 -0.9247 -0.7531 -0.4535
  134OSM   H12S14438   5.809  -0.188   3.879  0.3359  1.8667 -1.6201
  134OSM   H12T14439   5.940  -0.123   3.982  0.1399 -1.8218  0.7462
  134OSM   C13S14440   5.872  -0.320   4.039  0.3563  0.8517 -0.1955
  134OSM   H13S14441   5.877  -0.417   3.986 -2.1916  0.8607 -0.5777
  134OSM   H13T14442   5.769  -0.305   4.079  0.4958 -1.3128  1.1606
  134OSM   C14S14443   5.990  -0.310   4.145 -0.5427  0.1148 -0.1260
  134OSM   H14S14444   5.957  -0.239   4.225  0.7474  1.7927 -1.0115
  134OSM   H14T14445   6.083  -0.278   4.094 -0.8966  0.5535 -0.5072
  134OSM   C15S14446   6.015  -0.451   4.216 -0.3976 -1.2120 -0.0735
  134OSM   H15S14447   6.072  -0.515   4.146 -0.3500  0.3176 -1.4872
  134OSM   H15T14448   5.912  -0.487   4.238 -0.7681 -1.5311 -2.1276
  134OSM   C16S14449   6.096  -0.439   4.350 -0.2238 -0.9729  0.6486
  134OSM   H16S14450   6.033  -0.392   4.428 -1.8442 -0.2943 -1.0047
  134OSM   H16T14451   6.188  -0.378   4.334 -1.6417  0.6691 -1.9418
  134OSM   C17S14452   6.112  -0.574   4.420  0.5026 -0.7476  0.2410
  134OSM   H17S14453   6.183  -0.633   4.358  1.5072  0.2024  0.4561
  134OSM   H17T14454   6.007  -0.610   4.409  0.5820 -0.4237 -2.1137
  134OSM   C18S14455   6.155  -0.566   4.567  0.3783 -0.3060 -0.3721
  134OSM   H18S14456   6.266  -0.552   4.567  0.1351  2.2102 -0.0414
  134OSM   H18T14457   6.133  -0.653   4.633  0.3553  0.0493  0.0973
  134OSM   H18U14458   6.107  -0.476   4.612 -1.3921 -1.0614 -0.7097
  134OSM    C1F14459   5.815  -0.473   2.905  0.5758 -0.4218  0.0046
  134OSM     OF14460   5.906  -0.475   2.827 -0.4198 -0.5842 -0.1764
  134OSM    C2F14461   5.769  -0.598   2.969  0.5334 -0.9038 -0.4506
  134OSM    H2F14462   5.692  -0.647   2.906 -1.6572 -0.5718  1.8070
  134OSM    H2G14463   5.718  -0.579   3.066  0.3772 -3.0467 -0.0578
  134OSM    C3F14464   5.876  -0.695   2.999 -0.2545 -0.0348 -1.4527
  134OSM    H3F14465   5.968  -0.648   3.039 -1.7527  2.7322 -0.9906
  134OSM    H3G14466   5.914  -0.742   2.905  1.7823  0.5790 -0.9853
  134OSM    C4F14467   5.833  -0.806   3.098 -0.2843 -0.6028  0.1418
  134OSM    H4F14468   5.742  -0.855   3.057 -0.4230 -0.4743  0.2957
  134OSM    H4G14469   5.815  -0.750   3.192 -1.4593 -1.8412  0.6910
  134OSM    C5F14470   5.935  -0.918   3.119  1.0535  0.2525  0.3223
  134OSM    H5F14471   6.037  -0.877   3.135  0.6862  1.8495 -1.1553
  134OSM    H5G14472   5.937  -0.983   3.029  0.9586  1.9646 -0.9630
  134OSM    C6F14473   5.901  -1.011   3.232 -0.1067  0.3716 -0.0351
  134OSM    H6F14474   5.810  -1.066   3.201  0.4381 -1.1902  1.0190
  134OSM    H6G14475   5.888  -0.939   3.315  1.3496  1.1814 -0.4730
  134OSM    C7F14476   6.017  -1.108   3.274  0.2852  0.1474  0.4221
  134OSM    H7F14477   6.113  -1.053   3.284 -0.1027  1.0183 -0.4652
  134OSM    H7G14478   6.020  -1.187   3.197  2.2783  1.8552 -1.3953
  134OSM    C8F14479   5.992  -1.166   3.410  0.0969 -0.1306  0.2720
  134OSM    H8F14480   6.051  -1.260   3.421 -0.8033 -0.6178  1.1130
  134OSM    H8G14481   5.885  -1.195   3.414  0.5372 -1.7997  0.7437
  134OSM    C9F14482   6.024  -1.063   3.521 -0.1014 -0.0254 -0.6151
  134OSM    H9F14483   6.005  -0.956   3.504  0.7899 -0.2348 -3.3208
  134OSM   C10F14484   6.063  -1.101   3.646 -0.1152 -0.0840 -0.1273
  134OSM   H10F14485   6.073  -1.023   3.723 -3.7334  0.5765 -0.1416
  134OSM   C11F14486   6.082  -1.245   3.687  0.5072 -0.8705  0.7638
  134OSM   H11F14487   6.145  -1.295   3.610  0.7428  1.1831 -0.4543
  134OSM   H11G14488   5.986  -1.300   3.682 -0.0104  0.0548  0.2053
  134OSM   C12F14489   6.130  -1.232   3.829 -0.9092  0.2086 -0.1857
  134OSM   H12F14490   6.060  -1.193   3.905 -1.9266 -0.0842 -0.9602
  134OSM   H12G14491   6.222  -1.170   3.836  0.1293 -1.3352  0.3220
  134OSM   C13F14492   6.177  -1.377   3.883  0.4072  0.2350 -0.1100
  134OSM   H13F14493   6.251  -1.421   3.813  0.3307 -2.8746  1.5922
  134OSM   H13G14494   6.093  -1.449   3.888 -0.4104  1.2196  2.7686
  134OSM   C14F14495   6.216  -1.375   4.024 -0.4923 -1.2805 -0.1282
  134OSM   H14F14496   6.127  -1.347   4.084  0.2003 -0.2739  0.4822
  134OSM   H14G14497   6.297  -1.299   4.022 -0.8050 -0.9158 -3.2321
  134OSM   C15F14498   6.267  -1.506   4.075 -0.1435 -0.4639  0.4740
  134OSM   H15F14499   6.323  -1.559   3.996 -0.0141 -2.0177  1.5713
  134OSM   H15G14500   6.177  -1.566   4.101  0.1584 -2.0760 -1.9363
  134OSM   C16F14501   6.353  -1.477   4.190  0.2482  0.4693 -0.0860
  134OSM   H16F14502   6.439  -1.410   4.168  3.0481 -1.3904  3.8117
  134OSM   H16G14503   6.402  -1.569   4.228 -1.9175 -1.0530 -0.7926
  134OSM   C17F14504   6.283  -1.407   4.305  0.2523  0.3113  0.2775
  134OSM   H17F14505   6.200  -1.474   4.335  0.6839  0.6349  2.3231
  134OSM   H17G14506   6.231  -1.313   4.275 -1.0926 -0.2731  0.7071
  134OSM   C18F14507   6.373  -1.380   4.422 -0.5421  0.5050  0.5350
  134OSM   H18F14508   6.407  -1.477   4.465  0.5474 -0.4293 -2.1901
  134OSM   H18G14509   6.315  -1.336   4.506 -1.0933 -1.2506  1.1122
  134OSM   H18H14510   6.459  -1.313   4.399  0.6529 -1.5198 -1.2635
  135OSM      N14511   6.741   5.012   2.533  0.2773  0.1050 -0.5080
  135OSM    C1514512   6.655   5.084   2.629 -0.0210  0.1208  0.4299
  135OSM   H15A14513   6.703   5.170   2.675 -1.7804  1.2522  0.2549
  135OSM   H15B14514   6.631   5.020   2.713  1.4821  1.2404  1.7832
  135OSM   H15C14515   6.563   5.117   2.583 -0.0354 -1.4227 -0.7059
  135OSM    C1414516   6.661   4.931   2.435 -0.3201 -0.1138 -0.0221
  135OSM   H14A14517   6.591   4.985   2.373  1.1450 -0.8571 -2.4902
  135OSM   H14B14518   6.602   4.856   2.485 -1.0505  0.2624 -0.3040
  135OSM   H14C14519   6.728   4.889   2.360  0.2032  0.1442  0.2960
  135OSM    C1314520   6.827   5.100   2.447 -0.0260 -0.5965 -1.0711
  135OSM   H13A14521   6.884   5.172   2.504 -0.0379 -1.4770  0.0970
  135OSM   H13B14522   6.768   5.162   2.380 -0.3037 -0.5466 -0.7858
  135OSM   H13C14523   6.911   5.053   2.398  1.0915  0.8663 -0.6254
  135OSM    C1214524   6.822   4.917   2.625 -0.1073 -0.2861  0.4064
  135OSM   H12A14525   6.890   4.859   2.565 -0.1963 -1.0789  1.0619
  135OSM   H12B14526   6.748   4.851   2.669 -1.7067  0.4457 -1.0564
  135OSM    C1114527   6.915   4.976   2.745 -0.6082  0.1108 -0.2851
  135OSM   H11A14528   6.964   4.896   2.804  1.5297  2.9369  2.0543
  135OSM   H11B14529   6.854   5.029   2.821  0.3595  0.2025  0.4419
  135OSM      P14530   7.145   5.017   2.619 -0.1795  0.0632 -0.2525
  135OSM    O1314531   7.113   4.888   2.558  0.0447  0.4606  0.4655
  135OSM    O1414532   7.196   5.121   2.521 -0.4985  0.5374 -0.1455
  135OSM    O1114533   7.251   4.986   2.735  0.2628 -0.0177 -0.6838
  135OSM    O1214534   7.016   5.065   2.695  0.0993  0.6814 -0.9142
  135OSM    C1S14535   7.222   5.041   2.867  0.5830  0.5319 -0.1159
  135OSM    H1S14536   7.143   4.986   2.922  0.5318  1.1595  0.4500
  135OSM    H1T14537   7.190   5.147   2.861 -1.6125 -0.0641  0.2108
  135OSM     NF14538   7.321   5.027   3.084 -0.0581 -0.1540 -0.0210
  135OSM    HNF14539   7.334   5.117   3.125 -0.4208 -0.9052  1.8495
  135OSM    C2S14540   7.354   5.011   2.947 -0.5810 -0.3936 -0.6122
  135OSM    H2S14541   7.387   4.911   2.913  0.3016  0.2125 -1.5920
  135OSM    C3S14542   7.464   5.111   2.891  0.0510  0.9596 -0.5722
  135OSM    H3S14543   7.400   5.201   2.880 -1.2025  0.1930  0.2357
  135OSM     O314544   7.498   5.081   2.756 -0.5187 -0.0001  0.8099
  135OSM    HO314545   7.424   5.031   2.721  0.2212 -1.4878  1.2699
  135OSM    C4S14546   7.588   5.129   2.983  0.0802  0.1917 -0.5870
  135OSM    H4S14547   7.557   5.206   3.056 -0.7961 -2.2329  1.7855
  135OSM    C5S14548   7.708   5.067   2.998 -0.2308 -0.9029  0.8227
  135OSM    H5S14549   7.726   4.979   2.934 -2.6048  1.1963 -3.0780
  135OSM    C6S14550   7.813   5.086   3.107 -0.0534  0.0242 -0.4324
  135OSM    H6S14551   7.891   5.160   3.079 -1.0178  0.0169 -3.5320
  135OSM    H6T14552   7.876   4.995   3.117 -0.1603 -0.1893 -1.5608
  135OSM    C7S14553   7.757   5.131   3.242 -0.4413 -0.1364 -0.6065
  135OSM    H7S14554   7.703   5.228   3.236 -0.8808 -0.4586 -2.6257
  135OSM    H7T14555   7.843   5.152   3.309 -2.7261 -2.4449  3.4411
  135OSM    C8S14556   7.670   5.032   3.321  0.2404 -0.4012  0.0578
  135OSM    H8S14557   7.728   4.940   3.346  1.3468  0.3793  0.4697
  135OSM    H8T14558   7.590   5.004   3.249  1.4864  0.4562 -1.7493
  135OSM    C9S14559   7.624   5.085   3.449 -0.1293 -0.4767 -0.5321
  135OSM    H9S14560   7.534   5.145   3.423  1.7729  1.6444 -2.6988
  135OSM    H9T14561   7.694   5.155   3.499 -1.6734 -0.5144  1.8627
  135OSM   C10S14562   7.575   4.978   3.551  0.2566  0.2463  0.2858
  135OSM   H10S14563   7.664   4.940   3.606  1.0353  3.4485  1.4582
  135OSM   H10T14564   7.522   4.896   3.498  0.9378 -0.6999  1.0352
  135OSM   C11S14565   7.470   5.046   3.654  0.1406  0.2760 -0.1025
  135OSM   H11S14566   7.393   5.106   3.600  0.7366  1.4080  0.2787
  135OSM   H11T14567   7.528   5.119   3.713  0.7920 -1.3784  1.4011
  135OSM   C12S14568   7.408   4.945   3.757  0.6682  0.7120 -0.5877
  135OSM   H12S14569   7.485   4.889   3.813  0.0226  0.3881 -0.0042
  135OSM   H12T14570   7.335   4.882   3.701  0.3863 -0.6538  1.2593
  135OSM   C13S14571   7.323   5.026   3.859  1.0148 -0.0013  0.1508
  135OSM   H13S14572   7.383   5.109   3.903 -0.3994  1.4332 -0.4976
  135OSM   H13T14573   7.297   4.952   3.938 -0.7491  0.9514  0.5194
  135OSM   C14S14574   7.201   5.091   3.794  0.2478  0.9033 -0.1390
  135OSM   H14S14575   7.141   5.007   3.753  0.3460  1.1937 -0.9014
  135OSM   H14T14576   7.245   5.152   3.712  0.6368 -1.2375 -1.6109
  135OSM   C15S14577   7.112   5.170   3.891  0.1483 -0.1477  0.3537
  135OSM   H15S14578   7.037   5.236   3.841 -1.5834 -1.3442  1.2855
  135OSM   H15T14579   7.174   5.227   3.963  0.0087 -1.4372  1.5271
  135OSM   C16S14580   7.027   5.067   3.973 -0.4376 -0.3061  1.2530
  135OSM   H16S14581   7.097   5.011   4.038 -0.4751 -1.2786  0.4753
  135OSM   H16T14582   6.984   4.991   3.904 -1.9952 -0.4600  2.3406
  135OSM   C17S14583   6.908   5.126   4.056 -0.9593 -0.1769  0.2117
  135OSM   H17S14584   6.838   5.149   3.973  0.0330  0.7405 -0.3922
  135OSM   H17T14585   6.942   5.215   4.113  0.4748  0.1796 -1.1545
  135OSM   C18S14586   6.836   5.031   4.153  0.0721  0.2209 -0.0979
  135OSM   H18S14587   6.892   4.962   4.220 -0.7565 -2.2267 -1.7853
  135OSM   H18T14588   6.774   4.967   4.087  0.1489 -1.1067  1.0699
  135OSM   H18U14589   6.763   5.095   4.208 -0.6302  0.5764 -1.4001
  135OSM    C1F14590   7.272   4.923   3.149 -0.2491 -0.0581 -0.1325
  135OSM     OF14591   7.277   4.810   3.103  0.2654  0.3966 -0.6024
  135OSM    C2F14592   7.227   4.942   3.285 -0.5467 -0.2661 -0.1881
  135OSM    H2F14593   7.170   5.036   3.303  0.2541 -0.3407  3.4378
  135OSM    H2G14594   7.322   4.966   3.338  1.0569 -1.1541 -2.4891
  135OSM    C3F14595   7.154   4.833   3.355 -0.2085  0.0882 -0.8170
  135OSM    H3F14596   7.216   4.744   3.379 -0.7455 -0.8285 -2.5799
  135OSM    H3G14597   7.072   4.798   3.288 -1.8343  0.6905  0.7833
  135OSM    C4F14598   7.071   4.876   3.485  0.2656 -0.4036 -0.2611
  135OSM    H4F14599   7.141   4.874   3.571  0.3467 -0.4407 -0.3281
  135OSM    H4G14600   6.995   4.798   3.506 -0.2983  0.0727 -0.4959
  135OSM    C5F14601   6.991   4.999   3.475  0.2110 -0.2256 -0.5978
  135OSM    H5F14602   6.947   5.016   3.374 -0.0735  1.6977 -0.1974
  135OSM    H5G14603   7.051   5.088   3.505 -0.1316 -0.4862  0.9277
  135OSM    C6F14604   6.870   4.992   3.572 -0.6527 -0.3196  0.5477
  135OSM    H6F14605   6.891   4.987   3.680 -0.9498  1.8682  0.7636
  135OSM    H6G14606   6.810   4.905   3.538 -0.6599 -0.0970 -0.0222
  135OSM    C7F14607   6.776   5.119   3.547 -0.4586 -0.2648 -0.7199
  135OSM    H7F14608   6.724   5.120   3.449 -1.6707  1.1461 -0.1133
  135OSM    H7G14609   6.839   5.211   3.543  2.7260 -2.2573  0.2215
  135OSM    C8F14610   6.667   5.124   3.653 -0.2909  0.2577 -0.1616
  135OSM    H8F14611   6.609   5.217   3.639 -0.9366  0.2445  2.0716
  135OSM    H8G14612   6.723   5.134   3.749  0.1537  1.2071 -0.5086
  135OSM    C9F14613   6.575   5.009   3.644 -0.3224 -0.0360  0.8399
  135OSM    H9F14614   6.525   5.006   3.546 -2.9320  0.3845  2.0638
  135OSM   C10F14615   6.555   4.908   3.734 -0.4155  0.5850 -0.5482
  135OSM   H10F14616   6.475   4.836   3.709  1.0914 -0.6588 -2.0863
  135OSM   C11F14617   6.611   4.906   3.878 -0.1393  0.5418 -0.4251
  135OSM   H11F14618   6.656   5.001   3.912  0.6027 -0.4365  1.4911
  135OSM   H11G14619   6.688   4.827   3.892 -0.1857  0.8613  2.1537
  135OSM   C12F14620   6.493   4.870   3.970  0.2387  0.7898  0.3312
  135OSM   H12F14621   6.531   4.842   4.070 -1.4060  0.1446  0.8192
  135OSM   H12G14622   6.441   4.778   3.936 -0.4163  1.8119 -1.6143
  135OSM   C13F14623   6.387   4.983   3.985 -0.0981  0.5170 -0.3364
  135OSM   H13F14624   6.317   4.974   3.899 -0.5236  0.2155  0.0362
  135OSM   H13G14625   6.435   5.083   3.983  0.3470  0.3490 -3.4616
  135OSM   C14F14626   6.295   4.987   4.105  0.2982 -0.7299 -0.2769
  135OSM   H14F14627   6.231   5.075   4.088  1.9164  0.1624 -2.0623
  135OSM   H14G14628   6.344   5.012   4.202 -0.6331 -1.0313  0.2928
  135OSM   C15F14629   6.230   4.853   4.118  0.4294  0.2662  0.2637
  135OSM   H15F14630   6.312   4.778   4.113  0.9838  0.8282  0.8577
  135OSM   H15G14631   6.156   4.833   4.037  0.9324 -0.2281 -0.0854
  135OSM   C16F14632   6.166   4.813   4.253  0.0431  0.0352 -0.2846
  135OSM   H16F14633   6.239   4.837   4.332 -0.1815  1.8385 -0.5821
  135OSM   H16G14634   6.137   4.706   4.245  0.3884 -0.0867  0.0716
  135OSM   C17F14635   6.037   4.888   4.294  0.4425 -0.2463  0.3398
  135OSM   H17F14636   5.984   4.898   4.196  0.5680 -2.9499 -0.0852
  135OSM   H17G14637   6.071   4.982   4.342 -1.5237  1.8678 -2.0790
  135OSM   C18F14638   5.960   4.806   4.395  0.1147 -0.3950  0.7359
  135OSM   H18F14639   5.907   4.718   4.351 -1.4392  0.4242  0.9105
  135OSM   H18G14640   5.877   4.872   4.426 -1.8406 -2.3173 -0.1071
  135OSM   H18H14641   6.020   4.789   4.486  0.4882  1.8636  0.9656
  136OSM      N14642   3.285   0.733   2.157  0.2119 -0.4419  0.8170
  136OSM    C1514643   3.233   0.871   2.175 -0.4329 -0.4371 -0.8118
  136OSM   H15A14644   3.220   0.901   2.278 -1.8444 -2.0332 -0.4995
  136OSM   H15B14645   3.137   0.893   2.131 -0.2693 -0.3481 -1.1282
  136OSM   H15C14646   3.312   0.933   2.134 -0.2908 -1.6276 -2.4511
  136OSM    C1414647   3.205   0.635   2.231  0.6490 -0.7471 -0.0582
  136OSM   H14A14648   3.169   0.671   2.326 -1.8405 -2.1298 -0.3743
  136OSM   H14B14649   3.251   0.540   2.250  0.0765 -0.2135  5.3712
  136OSM   H14C14650   3.112   0.618   2.177  0.1703  0.1900  0.4491
  136OSM    C1314651   3.270   0.704   2.005 -0.0158  0.2541 -0.0979
  136OSM   H13A14652   3.164   0.705   1.987 -0.3116  1.0934  1.4608
  136OSM   H13B14653   3.316   0.615   1.966  1.1664  0.2646  1.1884
  136OSM   H13C14654   3.313   0.786   1.949  0.3274 -0.5194 -0.9835
  136OSM    C1214655   3.427   0.729   2.209  0.6502  0.4422 -0.1287
  136OSM   H12A14656   3.464   0.630   2.230  0.6081  0.5658  0.5392
  136OSM   H12B14657   3.432   0.783   2.302  1.0632 -1.2540  0.8640
  136OSM    C1114658   3.529   0.802   2.117 -0.3186  0.6891  0.5986
  136OSM   H11A14659   3.540   0.753   2.018 -0.0916  1.9066 -0.0001
  136OSM   H11B14660   3.631   0.785   2.159  0.4551 -1.4317 -1.8960
  136OSM      P14661   3.586   1.052   2.199  0.0733 -0.0181 -0.1482
  136OSM    O1314662   3.725   1.054   2.158 -0.1603  0.3801  0.5022
  136OSM    O1414663   3.516   1.179   2.185 -0.0219 -0.0306  0.2183
  136OSM    O1114664   3.582   0.998   2.350  0.4497  0.4254  0.0241
  136OSM    O1214665   3.515   0.945   2.106 -0.2400  0.2166  0.3284
  136OSM    C1S14666   3.630   1.070   2.465 -0.1218  0.2399 -0.1817
  136OSM    H1S14667   3.619   1.180   2.450  1.3850  0.5897  1.0393
  136OSM    H1T14668   3.730   1.032   2.495  0.4760  1.7554 -0.1520
  136OSM     NF14669   3.603   1.108   2.709  0.4919  0.4170  1.0177
  136OSM    HNF14670   3.658   1.056   2.773 -0.6265 -1.9347  0.1716
  136OSM    C2S14671   3.542   1.046   2.593  0.6757 -0.4593  0.5688
  136OSM    H2S14672   3.445   1.098   2.575  1.4188  0.2069 -1.8984
  136OSM    C3S14673   3.503   0.898   2.615 -0.5559 -0.7000 -0.4586
  136OSM    H3S14674   3.597   0.847   2.643 -0.4295  0.0473  0.5276
  136OSM     O314675   3.448   0.843   2.502 -0.6917  0.8133  0.4938
  136OSM    HO314676   3.496   0.889   2.433 -0.3699  0.1529  0.2625
  136OSM    C4S14677   3.405   0.891   2.726 -0.3854 -0.0666 -0.5472
  136OSM    H4S14678   3.308   0.930   2.691  0.7324  1.7374 -1.7881
  136OSM    C5S14679   3.424   0.848   2.849  0.6261  0.2858 -0.5726
  136OSM    H5S14680   3.522   0.803   2.871  1.3214  1.6319 -0.7559
  136OSM    C6S14681   3.312   0.839   2.953 -0.0366  0.1124  0.1215
  136OSM    H6S14682   3.308   0.739   3.001 -2.2289 -0.8841 -1.9088
  136OSM    H6T14683   3.210   0.836   2.907 -0.5700  2.6912  0.9858
  136OSM    C7S14684   3.327   0.940   3.065  1.1626  0.0045 -0.5637
  136OSM    H7S14685   3.238   0.912   3.125  0.8416  1.0286 -0.5417
  136OSM    H7T14686   3.306   1.041   3.022 -0.0200 -0.0545 -0.1546
  136OSM    C8S14687   3.457   0.928   3.143  0.3026 -0.8943  0.4843
  136OSM    H8S14688   3.550   0.940   3.084  1.1606 -0.5201  1.8599
  136OSM    H8T14689   3.456   0.825   3.184 -0.2551 -1.1757 -0.2111
  136OSM    C9S14690   3.475   1.034   3.247 -0.2318 -0.4051 -1.2339
  136OSM    H9S14691   3.535   0.985   3.326  1.2520 -2.8912 -3.6989
  136OSM    H9T14692   3.378   1.058   3.294 -0.4882 -1.0851 -1.3976
  136OSM   C10S14693   3.536   1.170   3.193 -0.5940  1.0218  0.2863
  136OSM   H10S14694   3.477   1.192   3.102  2.0472 -3.1469 -2.7791
  136OSM   H10T14695   3.638   1.147   3.154 -0.2009  1.3423  1.0954
  136OSM   C11S14696   3.538   1.278   3.294 -0.6605  0.0423  0.1087
  136OSM   H11S14697   3.434   1.302   3.326 -0.3084  1.2379  0.4141
  136OSM   H11T14698   3.571   1.376   3.254  0.5747 -0.3278  0.1869
  136OSM   C12S14699   3.611   1.248   3.427  0.3890  0.7068 -0.0362
  136OSM   H12S14700   3.714   1.231   3.389  0.7453 -0.8942  1.5153
  136OSM   H12T14701   3.569   1.156   3.473 -1.9981  1.3434 -0.8167
  136OSM   C13S14702   3.606   1.357   3.537  0.6494 -0.1188 -0.3564
  136OSM   H13S14703   3.505   1.386   3.573  0.3024  0.6062 -1.8278
  136OSM   H13T14704   3.643   1.453   3.497 -0.7788  0.5954 -0.0264
  136OSM   C14S14705   3.714   1.333   3.650  0.4142 -1.0318 -0.4768
  136OSM   H14S14706   3.733   1.425   3.709  0.1247 -1.2358 -0.0665
  136OSM   H14T14707   3.804   1.292   3.599 -0.7826 -0.9436 -2.7995
  136OSM   C15S14708   3.672   1.232   3.752 -0.7950  0.3543 -0.4681
  136OSM   H15S14709   3.649   1.128   3.720  0.3703 -0.2300  0.4877
  136OSM   H15T14710   3.580   1.265   3.806  0.2357 -0.1760  1.7523
  136OSM   C16S14711   3.782   1.201   3.860 -0.1708 -0.7130  0.0370
  136OSM   H16S14712   3.815   1.297   3.907 -4.2865  1.0297 -0.1718
  136OSM   H16T14713   3.874   1.178   3.802  0.7393  0.1183  1.1033
  136OSM   C17S14714   3.744   1.100   3.970  0.4756  0.3391  0.1963
  136OSM   H17S14715   3.706   1.002   3.935  0.2668  0.3533  0.3851
  136OSM   H17T14716   3.671   1.158   4.030 -0.7511 -1.1786  0.2153
  136OSM   C18S14717   3.858   1.068   4.071 -0.0880  0.0395  0.1154
  136OSM   H18S14718   3.846   0.969   4.119 -1.2379  0.7809  1.4385
  136OSM   H18T14719   3.877   1.155   4.138  1.4973  1.0616 -1.5599
  136OSM   H18U14720   3.954   1.066   4.014 -0.0052  2.2628  0.0596
  136OSM    C1F14721   3.617   1.238   2.714  0.0182 -0.6630 -0.0333
  136OSM     OF14722   3.563   1.313   2.634 -0.2515  0.1398 -0.2773
  136OSM    C2F14723   3.708   1.296   2.817  0.5534 -0.4511 -0.2332
  136OSM    H2F14724   3.810   1.304   2.774  0.2814  0.0779 -0.7934
  136OSM    H2G14725   3.713   1.232   2.908  1.6869  0.9822  0.7599
  136OSM    C3F14726   3.667   1.435   2.867  0.4231  0.5211  0.3173
  136OSM    H3F14727   3.556   1.438   2.870  0.1804 -3.4085  1.4450
  136OSM    H3G14728   3.697   1.514   2.796  0.8573 -0.3769 -0.5270
  136OSM    C4F14729   3.727   1.471   2.998  0.1838 -0.1079 -0.1756
  136OSM    H4F14730   3.834   1.447   2.983  0.0066  0.4860 -3.0429
  136OSM    H4G14731   3.695   1.405   3.081  3.4116 -1.8159 -0.1422
  136OSM    C5F14732   3.730   1.621   3.035  0.2910  0.6537 -0.2520
  136OSM    H5F14733   3.634   1.652   3.080 -0.1497  0.5184 -1.0865
  136OSM    H5G14734   3.729   1.693   2.950 -0.5964  0.4751 -0.4053
  136OSM    C6F14735   3.844   1.656   3.127 -0.3067  0.3295  1.1448
  136OSM    H6F14736   3.854   1.767   3.138  0.4779  0.7839 -2.6666
  136OSM    H6G14737   3.944   1.641   3.079 -1.4073 -0.7472 -0.9334
  136OSM    C7F14738   3.837   1.591   3.258  0.5551 -0.4163  0.1978
  136OSM    H7F14739   3.854   1.481   3.259  3.5307 -0.0312 -0.6184
  136OSM    H7G14740   3.745   1.613   3.317 -1.0250 -2.8646 -1.1404
  136OSM    C8F14741   3.957   1.634   3.351  0.7550  0.0514  0.3571
  136OSM    H8F14742   3.926   1.623   3.457 -0.8367  2.8817  0.2838
  136OSM    H8G14743   3.966   1.744   3.354  1.3043 -0.0067  1.3856
  136OSM    C9F14744   4.092   1.581   3.322  0.1302  0.0603 -0.1668
  136OSM    H9F14745   4.138   1.598   3.223  0.2477 -3.4068 -0.8373
  136OSM   C10F14746   4.167   1.513   3.414  1.0194 -0.0316 -0.1920
  136OSM   H10F14747   4.269   1.488   3.384  1.0050  3.0054 -3.4433
  136OSM   C11F14748   4.110   1.462   3.546 -0.2320 -0.6044  0.7230
  136OSM   H11F14749   4.005   1.424   3.546 -0.8569  0.9679 -0.9211
  136OSM   H11G14750   4.115   1.546   3.618 -0.7651  1.8734 -1.9607
  136OSM   C12F14751   4.197   1.337   3.596 -0.1566 -0.5458 -0.5852
  136OSM   H12F14752   4.304   1.369   3.595 -0.2367 -0.2004  0.6680
  136OSM   H12G14753   4.180   1.241   3.543 -1.3437 -2.8045  3.4949
  136OSM   C13F14754   4.177   1.307   3.743  0.3042  0.4101 -0.1891
  136OSM   H13F14755   4.177   1.198   3.766 -1.8849 -0.4626 -3.5718
  136OSM   H13G14756   4.074   1.339   3.771  0.1704  1.0615 -1.3680
  136OSM   C14F14757   4.274   1.386   3.831 -0.0140  0.0827  0.1319
  136OSM   H14F14758   4.270   1.493   3.802 -1.6343  0.9367  3.0471
  136OSM   H14G14759   4.380   1.358   3.816  0.0247  0.4874 -0.3968
  136OSM   C15F14760   4.229   1.368   3.978 -0.1931  0.3061 -0.4085
  136OSM   H15F14761   4.119   1.385   3.977 -0.5704 -1.8145 -0.1349
  136OSM   H15G14762   4.282   1.445   4.039  0.7877 -0.1237 -0.7012
  136OSM   C16F14763   4.249   1.236   4.043  0.1908 -0.0149  0.8819
  136OSM   H16F14764   4.352   1.213   4.010  0.4571 -0.1570  1.7971
  136OSM   H16G14765   4.177   1.167   3.991 -1.1568  2.5739 -0.9165
  136OSM   C17F14766   4.231   1.252   4.199  0.0304 -0.7039  0.2136
  136OSM   H17F14767   4.125   1.252   4.232  0.4533  2.3229  2.0780
  136OSM   H17G14768   4.271   1.354   4.222 -1.0186  0.2014 -1.7252
  136OSM   C18F14769   4.296   1.136   4.279 -0.0997 -0.7782 -0.0919
  136OSM   H18F14770   4.403   1.130   4.250  0.0543 -0.4178  0.3888
  136OSM   H18G14771   4.241   1.050   4.236 -2.3584  2.9126 -5.8072
  136OSM   H18H14772   4.295   1.150   4.389 -0.1094  0.4400 -0.2321
  137OSM      N14773   0.314   6.073   2.618 -0.1633  0.4059 -0.2294
  137OSM    C1514774   0.305   5.960   2.512  0.6750 -1.1055  0.6218
  137OSM   H15A14775   0.200   5.940   2.496  0.1906  0.7352  1.2603
  137OSM   H15B14776   0.352   5.866   2.537  2.1014 -0.7691 -0.6366
  137OSM   H15C14777   0.336   6.001   2.417 -3.5726  0.5846 -0.2763
  137OSM    C1414778   0.239   6.188   2.558 -0.3395 -0.1226  0.3845
  137OSM   H14A14779   0.135   6.167   2.542 -0.2828  2.0711 -4.5924
  137OSM   H14B14780   0.281   6.229   2.467 -0.5703 -0.7680 -0.0140
  137OSM   H14C14781   0.241   6.266   2.632 -1.6332  1.4535 -1.1675
  137OSM    C1314782   0.241   6.027   2.744 -0.0206 -0.2272  1.2448
  137OSM   H13A14783   0.305   5.952   2.789  0.3981  0.6379  2.1232
  137OSM   H13B14784   0.143   5.985   2.728  0.0679  0.3590 -1.2754
  137OSM   H13C14785   0.234   6.107   2.816 -0.9291  1.3478 -0.5051
  137OSM    C1214786   0.460   6.104   2.655 -0.7792  0.4877 -0.2261
  137OSM   H12A14787   0.488   6.016   2.712 -0.8522  1.7235  1.8037
  137OSM   H12B14788   0.470   6.189   2.720 -0.7728 -0.8649  1.6286
  137OSM    C1114789   0.564   6.115   2.545 -0.4778  0.2467 -0.4017
  137OSM   H11A14790   0.571   6.016   2.496 -2.0026 -0.6471  1.0654
  137OSM   H11B14791   0.665   6.128   2.589 -0.3450 -0.7263 -0.3982
  137OSM      P14792   0.563   6.365   2.449  0.3279  0.1164  0.2342
  137OSM    O1314793   0.707   6.390   2.431 -0.2423 -0.1686 -0.2350
  137OSM    O1414794   0.458   6.436   2.373  0.1493 -0.3712  0.5345
  137OSM    O1114795   0.529   6.394   2.597 -0.0269 -0.4357  0.6406
  137OSM    O1214796   0.522   6.212   2.452 -0.1095  0.3257 -0.7080
  137OSM    C1S14797   0.484   6.515   2.648  0.3227  0.0644 -0.4360
  137OSM    H1S14798   0.382   6.524   2.604 -0.6712  0.9475  1.8712
  137OSM    H1T14799   0.537   6.606   2.612 -0.1188  0.4471 -0.1269
  137OSM     NF14800   0.385   6.622   2.866  0.8312 -0.2986  0.4567
  137OSM    HNF14801   0.421   6.711   2.892 -1.9250  1.1395 -0.3211
  137OSM    C2S14802   0.477   6.519   2.810 -0.0721 -0.5187  0.3311
  137OSM    H2S14803   0.435   6.419   2.836  1.2257 -0.5435  2.5959
  137OSM    C3S14804   0.628   6.525   2.862  0.1834 -0.2764 -0.2176
  137OSM    H3S14805   0.661   6.630   2.881  1.0479 -0.7202  0.8981
  137OSM     O314806   0.725   6.472   2.766 -0.5071  0.2297 -0.3559
  137OSM    HO314807   0.675   6.448   2.688 -3.1557  3.4321  0.1258
  137OSM    C4S14808   0.644   6.468   3.006 -0.3215 -0.0266 -0.1334
  137OSM    H4S14809   0.614   6.536   3.087 -2.1303  1.3227 -1.8516
  137OSM    C5S14810   0.670   6.336   3.038 -0.2788  0.1913  0.0271
  137OSM    H5S14811   0.688   6.255   2.965  3.3055  0.8746 -0.0567
  137OSM    C6S14812   0.679   6.282   3.177  0.0404 -0.0695  0.1317
  137OSM    H6S14813   0.781   6.244   3.198  0.3329  0.3380 -0.5054
  137OSM    H6T14814   0.617   6.190   3.181 -0.6556  0.2370 -2.1939
  137OSM    C7S14815   0.643   6.379   3.290  0.4525  0.3707 -0.4351
  137OSM    H7S14816   0.537   6.403   3.273 -0.0462 -1.7836 -0.7388
  137OSM    H7T14817   0.693   6.477   3.301 -0.5036  0.9139 -0.8801
  137OSM    C8S14818   0.650   6.307   3.429  0.9354  0.5519 -0.3034
  137OSM    H8S14819   0.753   6.279   3.458  1.2581 -0.2359 -2.0906
  137OSM    H8T14820   0.593   6.211   3.428  0.9218  0.5256  1.1421
  137OSM    C9S14821   0.581   6.396   3.540 -0.5535  0.1740 -0.4078
  137OSM    H9S14822   0.486   6.438   3.499 -0.0623  2.2762  0.5130
  137OSM    H9T14823   0.646   6.480   3.570 -0.1383  0.3665 -1.7527
  137OSM   C10S14824   0.548   6.320   3.671 -0.5480  0.6780 -0.1278
  137OSM   H10S14825   0.642   6.282   3.717 -0.6958 -1.2306 -1.2753
  137OSM   H10T14826   0.492   6.228   3.646  1.9208 -1.3218  1.2657
  137OSM   C11S14827   0.469   6.396   3.773  0.9671 -0.2398 -0.1506
  137OSM   H11S14828   0.369   6.423   3.732  1.9399  2.1358 -1.1846
  137OSM   H11T14829   0.523   6.492   3.789  0.1651 -0.0722  1.6691
  137OSM   C12S14830   0.446   6.310   3.904  0.4529 -0.3763 -0.4949
  137OSM   H12S14831   0.540   6.257   3.928 -0.7666 -1.0898  3.4591
  137OSM   H12T14832   0.363   6.240   3.882  0.9774 -1.3046  0.3904
  137OSM   C13S14833   0.401   6.387   4.032  0.1043 -0.1976  0.5522
  137OSM   H13S14834   0.306   6.439   4.006  1.0467  0.7743 -1.1020
  137OSM   H13T14835   0.468   6.473   4.053 -1.3880  1.3504 -0.7521
  137OSM   C14S14836   0.379   6.299   4.153 -0.1890  0.2983  0.1525
  137OSM   H14S14837   0.299   6.224   4.136 -0.7836  1.1039 -0.6976
  137OSM   H14T14838   0.344   6.364   4.236 -2.1018  0.7192 -0.9274
  137OSM   C15S14839   0.506   6.216   4.190  0.4045  0.0191 -0.1563
  137OSM   H15S14840   0.589   6.290   4.188  1.6262 -1.2536  0.8060
  137OSM   H15T14841   0.511   6.132   4.117  0.0230 -1.0592  1.0253
  137OSM   C16S14842   0.486   6.153   4.327 -0.6278 -0.0578 -0.3698
  137OSM   H16S14843   0.443   6.220   4.404 -0.4685 -0.2172 -0.1416
  137OSM   H16T14844   0.584   6.112   4.360 -1.4079 -1.7873 -0.1066
  137OSM   C17S14845   0.398   6.033   4.339 -0.1505  0.0026  0.5434
  137OSM   H17S14846   0.456   5.942   4.311 -1.4813 -0.6149 -0.3004
  137OSM   H17T14847   0.319   6.039   4.261  0.0823 -3.3551 -0.1114
  137OSM   C18S14848   0.339   6.015   4.480 -0.0316  0.0993  0.1207
  137OSM   H18S14849   0.427   5.998   4.545  2.2914  2.5508 -2.1234
  137OSM   H18T14850   0.269   5.930   4.495 -0.6307  0.8179  1.5741
  137OSM   H18U14851   0.293   6.109   4.517  2.1077  1.3206 -0.1340
  137OSM    C1F14852   0.255   6.618   2.852 -0.1880 -0.0739  0.5585
  137OSM     OF14853   0.203   6.520   2.805  0.5355 -0.3523  0.8438
  137OSM    C2F14854   0.179   6.741   2.884  0.0736 -0.6487 -0.2898
  137OSM    H2F14855   0.160   6.797   2.790  1.5617  1.7324  0.7239
  137OSM    H2G14856   0.237   6.823   2.933 -1.6731 -0.1896  1.1169
  137OSM    C3F14857   0.040   6.720   2.951  0.2378  0.1339 -0.3747
  137OSM    H3F14858  -0.042   6.696   2.880 -0.3059  2.3816 -0.5823
  137OSM    H3G14859   0.022   6.821   2.993 -1.8594 -0.1945 -0.3790
  137OSM    C4F14860   0.029   6.636   3.085 -0.0312 -0.2870 -0.0071
  137OSM    H4F14861   0.128   6.668   3.123 -0.2414  0.3963 -0.0138
  137OSM    H4G14862   0.030   6.527   3.069 -0.4821 -0.1549 -0.9992
  137OSM    C5F14863  -0.085   6.690   3.169  1.5796  0.2430 -0.4334
  137OSM    H5F14864  -0.181   6.645   3.135  1.9130 -0.1194 -0.9047
  137OSM    H5G14865  -0.090   6.797   3.142 -0.7697 -0.0909 -1.5264
  137OSM    C6F14866  -0.071   6.675   3.319  0.8746  0.3712  0.1891
  137OSM    H6F14867   0.031   6.712   3.340  0.1982  2.1953  0.4654
  137OSM    H6G14868  -0.069   6.567   3.343 -0.8326 -0.1647 -1.7540
  137OSM    C7F14869  -0.179   6.748   3.398 -0.1120 -0.1288  0.1989
  137OSM    H7F14870  -0.277   6.748   3.346  0.1467  0.5171 -0.3107
  137OSM    H7G14871  -0.126   6.846   3.389 -0.6331  0.6286  3.6703
  137OSM    C8F14872  -0.178   6.709   3.546  0.0726 -0.8965 -0.3076
  137OSM    H8F14873  -0.257   6.762   3.603  0.0006 -0.9963 -0.3131
  137OSM    H8G14874  -0.078   6.737   3.583 -1.1278 -0.1633  2.6686
  137OSM    C9F14875  -0.189   6.559   3.584  0.7761 -0.0272 -0.7289
  137OSM    H9F14876  -0.101   6.503   3.549  2.3785  0.9389  1.4826
  137OSM   C10F14877  -0.288   6.499   3.660 -0.2352  0.2775 -1.1816
  137OSM   H10F14878  -0.275   6.392   3.679  1.7717  0.5070 -1.0533
  137OSM   C11F14879  -0.418   6.559   3.706  0.1869 -0.2601 -0.0232
  137OSM   H11F14880  -0.499   6.486   3.684  0.2993 -0.8563  1.4356
  137OSM   H11G14881  -0.446   6.654   3.654  1.0949  2.4322  3.9537
  137OSM   C12F14882  -0.410   6.565   3.859 -0.4887  0.5978  0.0353
  137OSM   H12F14883  -0.382   6.467   3.902 -0.0310  0.9557  0.5689
  137OSM   H12G14884  -0.514   6.585   3.891 -1.0096 -1.5108 -0.2065
  137OSM   C13F14885  -0.301   6.661   3.909  0.4724 -0.0040  0.5813
  137OSM   H13F14886  -0.320   6.768   3.887  1.5815  0.0790 -0.0170
  137OSM   H13G14887  -0.205   6.652   3.855  0.5676  2.4255  0.2642
  137OSM   C14F14888  -0.271   6.664   4.056 -0.3653 -0.2650  0.3448
  137OSM   H14F14889  -0.182   6.728   4.071  1.0206 -1.8789 -0.6688
  137OSM   H14G14890  -0.232   6.567   4.095  2.0767  0.8893  0.9711
  137OSM   C15F14891  -0.384   6.719   4.145  0.0186  0.2296 -0.1743
  137OSM   H15F14892  -0.480   6.675   4.109 -0.0372 -1.0396  1.4144
  137OSM   H15G14893  -0.376   6.829   4.132  0.7230  0.0596 -1.2816
  137OSM   C16F14894  -0.358   6.687   4.290  0.3251 -0.2125  0.0953
  137OSM   H16F14895  -0.440   6.741   4.343 -0.0693 -1.1667  0.4799
  137OSM   H16G14896  -0.264   6.736   4.323  0.4919 -1.1950  1.1557
  137OSM   C17F14897  -0.340   6.535   4.324  0.5141 -0.1692 -0.0839
  137OSM   H17F14898  -0.231   6.515   4.317  0.3629 -0.6852 -1.1910
  137OSM   H17G14899  -0.390   6.478   4.243  0.6206  2.9387 -2.5241
  137OSM   C18F14900  -0.393   6.511   4.464 -0.4857  0.1573  0.7554
  137OSM   H18F14901  -0.503   6.492   4.456 -0.0027 -2.4539 -1.0411
  137OSM   H18G14902  -0.381   6.593   4.538 -0.9297  0.7774  0.1505
  137OSM   H18H14903  -0.351   6.417   4.505 -0.7956 -0.2643  0.1225
  138OSM      N14904   1.173   0.406   2.992  0.6423  0.0561  0.4503
  138OSM    C1514905   1.307   0.378   2.922 -0.3170  0.2590 -0.0929
  138OSM   H15A14906   1.380   0.457   2.934  1.3786 -0.9064 -2.1191
  138OSM   H15B14907   1.278   0.357   2.820 -1.4325 -1.3003  0.5091
  138OSM   H15C14908   1.355   0.291   2.963 -1.3200 -0.0631  0.4310
  138OSM    C1414909   1.120   0.271   3.024  0.5976 -0.8302  0.2091
  138OSM   H14A14910   1.021   0.280   3.067  1.3364  0.2123  1.7773
  138OSM   H14B14911   1.185   0.222   3.096 -0.4552  0.3639  2.0707
  138OSM   H14C14912   1.103   0.205   2.940  0.6796  0.4671 -0.8526
  138OSM    C1314913   1.213   0.487   3.112  0.0439  0.3583  0.2936
  138OSM   H13A14914   1.123   0.524   3.160 -0.5447 -0.8460  0.1651
  138OSM   H13B14915   1.269   0.573   3.079 -0.1188  0.4752  0.3161
  138OSM   H13C14916   1.280   0.433   3.177 -0.0951 -1.1397 -0.7351
  138OSM    C1214917   1.087   0.476   2.893  0.1472 -0.4274  0.5905
  138OSM   H12A14918   1.081   0.408   2.810  1.7889 -0.7619  0.7217
  138OSM   H12B14919   1.121   0.575   2.866 -1.4927  0.1607  0.5648
  138OSM    C1114920   0.936   0.494   2.943  0.5169  0.4758 -0.2372
  138OSM   H11A14921   0.889   0.573   2.879 -0.8043  0.2000  0.3502
  138OSM   H11B14922   0.930   0.517   3.051  1.5519  1.3937 -0.3580
  138OSM      P14923   0.719   0.360   2.882  0.2067  0.1766  0.4313
  138OSM    O1314924   0.697   0.446   2.761 -0.5947  0.3978  0.0233
  138OSM    O1414925   0.686   0.215   2.858 -0.2447  0.4695 -0.2555
  138OSM    O1114926   0.642   0.416   3.007  0.6476  0.5280 -0.0291
  138OSM    O1214927   0.871   0.367   2.919  0.2345 -0.6409 -0.2265
  138OSM    C1S14928   0.498   0.428   2.999 -0.3840  0.0976 -0.2044
  138OSM    H1S14929   0.452   0.358   2.926  0.0216  0.4932 -0.8463
  138OSM    H1T14930   0.474   0.528   2.958  1.4329  0.4924 -0.3648
  138OSM     NF14931   0.296   0.387   3.130 -0.1013  0.2311  0.3626
  138OSM    HNF14932   0.237   0.467   3.143  1.7689  1.9860 -1.3013
  138OSM    C2S14933   0.435   0.423   3.137  0.2552 -0.6960  0.5044
  138OSM    H2S14934   0.488   0.341   3.190 -0.1551  0.0763  2.1890
  138OSM    C3S14935   0.472   0.555   3.213 -0.3262 -0.2133  0.1651
  138OSM    H3S14936   0.417   0.638   3.164  2.7362  2.6494  1.2350
  138OSM     O314937   0.609   0.560   3.226  0.2639 -0.4927 -0.4316
  138OSM    HO314938   0.643   0.490   3.169  0.3944 -2.9918  2.4219
  138OSM    C4S14939   0.400   0.549   3.353 -0.0258  0.0440  0.4129
  138OSM    H4S14940   0.298   0.508   3.348 -0.9025  2.1252  0.3699
  138OSM    C5S14941   0.461   0.560   3.470  0.1465 -0.1249 -0.0718
  138OSM    H5S14942   0.567   0.591   3.471  0.4579 -1.0229  2.0969
  138OSM    C6S14943   0.401   0.536   3.607  0.2272  0.4459 -0.4713
  138OSM    H6S14944   0.302   0.488   3.615 -0.1404  1.3722  0.7336
  138OSM    H6T14945   0.394   0.637   3.653  0.5185  0.0050  0.5650
  138OSM    C7S14946   0.485   0.450   3.703  0.3400  0.2828 -0.3297
  138OSM    H7S14947   0.584   0.499   3.709  1.0490 -1.0904 -0.2691
  138OSM    H7T14948   0.491   0.342   3.676 -1.8731  0.0000  0.1341
  138OSM    C8S14949   0.409   0.451   3.839  0.0920  0.9901 -0.2499
  138OSM    H8S14950   0.315   0.396   3.818  1.3125 -0.6073 -1.9254
  138OSM    H8T14951   0.385   0.557   3.863  0.4627  1.4781 -1.9154
  138OSM    C9S14952   0.481   0.386   3.955 -0.1879 -0.2258 -0.4126
  138OSM    H9S14953   0.588   0.417   3.964 -0.4364  0.5377 -0.0618
  138OSM    H9T14954   0.494   0.277   3.936  0.3572 -0.3591  0.6231
  138OSM   C10S14955   0.403   0.401   4.090 -0.2075 -0.4520 -0.2799
  138OSM   H10S14956   0.313   0.336   4.094 -0.8169  0.3462 -0.7723
  138OSM   H10T14957   0.367   0.502   4.117  1.0509 -0.4787  1.7128
  138OSM   C11S14958   0.488   0.346   4.215 -0.1908 -0.1612  0.4150
  138OSM   H11S14959   0.576   0.413   4.215 -0.4468  0.1825  0.6756
  138OSM   H11T14960   0.516   0.241   4.190 -0.6721  0.3332 -2.4688
  138OSM   C12S14961   0.403   0.340   4.331  0.0400  0.0775 -0.5398
  138OSM   H12S14962   0.333   0.255   4.341 -1.4270  1.3337  0.1638
  138OSM   H12T14963   0.331   0.424   4.333 -0.5539 -0.3959 -1.3043
  138OSM   C13S14964   0.490   0.318   4.454  0.0265 -0.4560 -0.0986
  138OSM   H13S14965   0.487   0.407   4.521  0.8782  1.1411 -2.0785
  138OSM   H13T14966   0.596   0.320   4.420  0.2357 -1.4465  0.4756
  138OSM   C14S14967   0.465   0.191   4.535  0.1097  0.7060 -0.2114
  138OSM   H14S14968   0.468   0.091   4.487  1.7586 -1.1023  3.2770
  138OSM   H14T14969   0.363   0.195   4.578  0.9116 -2.1619  2.2859
  138OSM   C15S14970   0.569   0.175   4.646 -0.3166  0.5238  0.0907
  138OSM   H15S14971   0.600   0.273   4.686  1.3642  0.1704 -0.2908
  138OSM   H15T14972   0.659   0.125   4.604 -1.6262 -3.1689  1.2953
  138OSM   C16S14973   0.520   0.070   4.751 -1.0470  0.1529 -0.0981
  138OSM   H16S14974   0.470  -0.017   4.703  0.9953 -2.0883  1.5840
  138OSM   H16T14975   0.450   0.132   4.812  0.4071  3.7633 -1.8501
  138OSM   C17S14976   0.638   0.005   4.837 -0.6982  0.3424  0.1771
  138OSM   H17S14977   0.723  -0.035   4.779 -0.5424  0.5440  0.2649
  138OSM   H17T14978   0.600  -0.079   4.899 -0.7541  1.1786  1.3225
  138OSM   C18S14979   0.703   0.102   4.937  0.4175  0.2693 -0.1589
  138OSM   H18S14980   0.640   0.139   5.021 -0.2462 -0.1345 -0.4709
  138OSM   H18T14981   0.732   0.193   4.880  2.6520  0.7772  1.6551
  138OSM   H18U14982   0.787   0.061   4.997  0.7144 -2.4672 -2.2440
  138OSM    C1F14983   0.243   0.266   3.116 -0.5179  0.1627  0.4323
  138OSM     OF14984   0.317   0.176   3.081 -0.5594 -0.3045 -0.4178
  138OSM    C2F14985   0.100   0.260   3.135 -0.4599  0.9442  0.2713
  138OSM    H2F14986   0.052   0.228   3.041 -2.6984 -2.0327  2.2238
  138OSM    H2G14987   0.066   0.364   3.151 -0.1024  2.0311 -4.6533
  138OSM    C3F14988   0.061   0.156   3.235  0.1293  0.0994 -0.4151
  138OSM    H3F14989   0.101   0.053   3.221 -2.1395 -0.7540 -1.0411
  138OSM    H3G14990  -0.047   0.130   3.232  0.0241  0.6101 -2.0648
  138OSM    C4F14991   0.095   0.185   3.380  0.2801 -0.1556 -0.2164
  138OSM    H4F14992   0.205   0.201   3.386  0.5408 -1.2909 -1.4229
  138OSM    H4G14993   0.081   0.104   3.455 -0.8012 -0.5626 -0.8358
  138OSM    C5F14994   0.003   0.303   3.428 -0.1643 -0.3338  0.3738
  138OSM    H5F14995  -0.106   0.284   3.418 -0.2400  0.9577 -1.8835
  138OSM    H5G14996   0.033   0.388   3.362  1.7417 -2.5718 -1.8561
  138OSM    C6F14997   0.043   0.351   3.566 -0.7287  0.1784 -0.1964
  138OSM    H6F14998   0.034   0.461   3.578 -0.2105  0.0242  1.9466
  138OSM    H6G14999   0.148   0.315   3.574 -0.3951  0.9308 -1.0140
  138OSM    C7F15000  -0.043   0.287   3.676 -0.7023 -0.6202  0.1349
  138OSM    H7F15001  -0.035   0.176   3.674  0.6481 -0.5226 -1.3301
  138OSM    H7G15002  -0.149   0.318   3.665 -0.5855 -0.4999 -0.6968
  138OSM    C8F15003   0.001   0.326   3.823  0.0072 -0.3120  0.9781
  138OSM    H8F15004   0.007   0.435   3.840  0.6364  0.0908 -1.4521
  138OSM    H8G15005   0.097   0.273   3.842  0.5655  0.9453  1.7387
  138OSM    C9F15006  -0.107   0.278   3.915  0.8949  0.0547 -0.0007
  138OSM    H9F15007  -0.199   0.236   3.871  1.1310 -0.8839  0.3622
  138OSM   C10F15008  -0.116   0.298   4.052 -0.8751  0.2004  0.2958
  138OSM   H10F15009  -0.209   0.258   4.096 -1.6544 -0.1734 -1.5832
  138OSM   C11F15010  -0.017   0.358   4.145  0.0253 -0.4845 -0.0257
  138OSM   H11F15011  -0.063   0.442   4.202 -0.2931 -0.2300 -0.6441
  138OSM   H11G15012   0.061   0.404   4.080 -1.0778 -0.2550 -1.2245
  138OSM   C12F15013   0.050   0.269   4.254 -0.4655 -0.0264 -0.2806
  138OSM   H12F15014   0.117   0.339   4.308 -0.3636  0.9458 -1.6390
  138OSM   H12G15015   0.119   0.191   4.216  0.0843  1.1985 -1.9134
  138OSM   C13F15016  -0.047   0.196   4.346  0.2032 -0.2628  0.3175
  138OSM   H13F15017  -0.092   0.105   4.300  0.9809 -0.8817  0.7436
  138OSM   H13G15018  -0.135   0.260   4.366  0.2768  0.0056 -0.2060
  138OSM   C14F15019   0.035   0.152   4.465  1.0157  0.5594 -0.8196
  138OSM   H14F15020   0.083   0.241   4.509  0.6576 -0.6075  2.1660
  138OSM   H14G15021   0.110   0.073   4.443  0.6768 -0.4091  1.3355
  138OSM   C15F15022  -0.050   0.071   4.567 -0.2898 -0.0409  0.3900
  138OSM   H15F15023  -0.093  -0.008   4.502 -3.0475  2.3184 -0.8545
  138OSM   H15G15024  -0.135   0.133   4.602 -0.2586  0.3407 -0.1981
  138OSM   C16F15025   0.032   0.011   4.687  0.4068  1.0494 -0.8412
  138OSM   H16F15026   0.108  -0.062   4.652  1.1548  1.1756  0.4316
  138OSM   H16G15027  -0.036  -0.038   4.760  0.7601 -0.8871 -1.7318
  138OSM   C17F15028   0.112   0.114   4.766  0.0205  0.1399 -0.2514
  138OSM   H17F15029   0.180   0.171   4.699  1.5587  0.3410  1.3877
  138OSM   H17G15030   0.179   0.070   4.843 -1.2095  0.0830  0.8252
  138OSM   C18F15031   0.015   0.220   4.825 -0.1967 -0.1707 -0.6830
  138OSM   H18F15032  -0.043   0.175   4.909  1.1654 -3.3889 -1.3089
  138OSM   H18G15033  -0.048   0.270   4.748 -0.8402  0.5168  0.2747
  138OSM   H18H15034   0.073   0.303   4.869  0.0301 -0.5388 -0.2824
  139OSM      N15035   1.002   5.051   2.575  0.7102 -1.1921  0.5676
  139OSM    C1515036   1.118   4.967   2.625 -0.4276  0.7066  0.1440
  139OSM   H15A15037   1.107   4.866   2.589 -1.6897  1.1387 -0.7612
  139OSM   H15B15038   1.127   4.955   2.732  0.8634  1.4395  0.1413
  139OSM   H15C15039   1.214   5.000   2.587  0.3183 -0.7698  0.6709
  139OSM    C1415040   1.002   5.181   2.651 -0.8806 -0.0686  0.0230
  139OSM   H14A15041   1.095   5.234   2.662 -1.9934  2.0638 -0.2995
  139OSM   H14B15042   0.972   5.153   2.751 -1.7137  0.6135 -0.0295
  139OSM   H14C15043   0.923   5.246   2.616 -0.3898 -0.1875 -1.3864
  139OSM    C1315044   1.023   5.093   2.427  0.0699  0.8414 -0.0713
  139OSM   H13A15045   1.126   5.126   2.420  0.0223  0.7891 -1.1570
  139OSM   H13B15046   0.946   5.164   2.402 -1.1327 -0.3061  0.2633
  139OSM   H13C15047   1.009   5.013   2.356  0.7480  2.0349 -1.5927
  139OSM    C1215048   0.872   4.981   2.586 -0.4844  0.2956  0.1601
  139OSM   H12A15049   0.785   5.031   2.546 -4.0630 -1.2219  5.0136
  139OSM   H12B15050   0.851   4.989   2.692  0.9861 -0.1328  0.5026
  139OSM    C1115051   0.871   4.836   2.544  0.5553  0.4396  0.2005
  139OSM   H11A15052   0.935   4.775   2.610  1.3685  3.0886  2.0512
  139OSM   H11B15053   0.899   4.815   2.438 -0.2868  0.7312 -0.0914
  139OSM      P15054   0.701   4.643   2.547 -0.5297 -0.2631 -0.5672
  139OSM    O1315055   0.557   4.619   2.523  0.4496  0.1291  1.0068
  139OSM    O1415056   0.791   4.569   2.451  0.3815 -0.7116 -0.1942
  139OSM    O1115057   0.737   4.601   2.691 -0.7989  0.6318  0.1522
  139OSM    O1215058   0.733   4.799   2.546 -0.3917 -0.8337  0.0994
  139OSM    C1S15059   0.623   4.590   2.779 -0.0933 -0.4087  0.2367
  139OSM    H1S15060   0.568   4.495   2.761  0.0787 -0.3564 -0.6148
  139OSM    H1T15061   0.556   4.677   2.769  1.1939  0.5553 -0.3128
  139OSM     NF15062   0.545   4.559   3.018  0.3941 -0.2849  0.1257
  139OSM    HNF15063   0.512   4.637   3.072  0.0752  0.8732 -1.6592
  139OSM    C2S15064   0.666   4.581   2.933  0.3093 -0.7265 -0.2689
  139OSM    H2S15065   0.725   4.487   2.936 -0.1858 -1.0884 -1.4675
  139OSM    C3S15066   0.749   4.709   2.972 -0.6490  0.1438  0.2648
  139OSM    H3S15067   0.680   4.790   3.003 -0.5350 -0.5388  2.4840
  139OSM     O315068   0.848   4.758   2.880 -0.0086  0.9891  0.0603
  139OSM    HO315069   0.831   4.718   2.794 -2.2880  1.0958  0.4028
  139OSM    C4S15070   0.811   4.679   3.099  0.6065 -0.5954 -1.0106
  139OSM    H4S15071   0.761   4.735   3.180  1.6012 -0.0881 -0.7319
  139OSM    C5S15072   0.904   4.588   3.132 -0.3411 -0.4469  0.2414
  139OSM    H5S15073   0.951   4.527   3.054 -0.5503  1.2467 -1.2787
  139OSM    C6S15074   0.948   4.562   3.280  0.0198 -0.4798  0.5984
  139OSM    H6S15075   0.917   4.647   3.345 -0.0886  0.0944 -0.1898
  139OSM    H6T15076   1.059   4.553   3.280 -0.0893 -2.1904  1.5007
  139OSM    C7S15077   0.896   4.431   3.340 -1.2345  0.1382 -0.0392
  139OSM    H7S15078   0.918   4.342   3.277  0.1198 -0.3465  1.0789
  139OSM    H7T15079   0.787   4.453   3.339 -0.9407  2.0065 -2.6724
  139OSM    C8S15080   0.951   4.422   3.486 -0.0712 -0.8848 -0.6682
  139OSM    H8S15081   1.061   4.432   3.499 -0.1798 -0.1036 -0.2938
  139OSM    H8T15082   0.927   4.317   3.511 -2.4533 -0.4633 -0.9667
  139OSM    C9S15083   0.881   4.522   3.580  0.2314 -0.6694 -0.0171
  139OSM    H9S15084   0.771   4.527   3.562 -0.1640  1.5176  2.4365
  139OSM    H9T15085   0.923   4.624   3.561 -1.8266 -0.0888 -2.0241
  139OSM   C10S15086   0.896   4.496   3.732  0.0736 -0.4659 -0.4841
  139OSM   H10S15087   0.995   4.452   3.759 -0.1385 -1.9938 -2.0142
  139OSM   H10T15088   0.833   4.409   3.764  2.1228 -1.6849  0.4581
  139OSM   C11S15089   0.846   4.621   3.811 -0.9558  0.4290  0.2344
  139OSM   H11S15090   0.756   4.663   3.760  0.9745  0.9216 -3.0741
  139OSM   H11T15091   0.919   4.705   3.815  0.0142 -0.3747 -0.0855
  139OSM   C12S15092   0.805   4.577   3.955 -0.0975 -0.3693  1.2235
  139OSM   H12S15093   0.899   4.550   4.009  0.1155 -2.2832  0.0140
  139OSM   H12T15094   0.744   4.485   3.944  0.4603 -0.4580 -2.2685
  139OSM   C13S15095   0.726   4.674   4.036 -0.3285 -0.5229  0.0489
  139OSM   H13S15096   0.633   4.707   3.985 -0.3348 -0.6249 -0.0068
  139OSM   H13T15097   0.772   4.775   4.024 -2.4290  0.6681  1.3837
  139OSM   C14S15098   0.696   4.630   4.185  0.8119 -0.7077 -0.1705
  139OSM   H14S15099   0.635   4.539   4.201 -0.8695  0.5753  1.0850
  139OSM   H14T15100   0.637   4.713   4.229  1.7150 -0.3897  0.4496
  139OSM   C15S15101   0.821   4.615   4.280 -0.2397  0.1333 -0.2178
  139OSM   H15S15102   0.879   4.707   4.262 -0.6432  0.3196 -0.5704
  139OSM   H15T15103   0.890   4.537   4.238 -0.2025 -0.2218  0.4863
  139OSM   C16S15104   0.784   4.588   4.428  0.0027 -1.0125  0.2560
  139OSM   H16S15105   0.737   4.488   4.439 -1.1802 -1.0778 -4.0530
  139OSM   H16T15106   0.716   4.665   4.469  1.5284  0.9939 -0.8004
  139OSM   C17S15107   0.911   4.567   4.509  0.3240 -0.1250 -0.8561
  139OSM   H17S15108   0.972   4.489   4.459 -2.6741 -3.7543  0.6970
  139OSM   H17T15109   0.882   4.523   4.607 -1.1567 -0.0460 -1.2353
  139OSM   C18S15110   0.992   4.693   4.533 -0.1493 -0.3444 -0.6917
  139OSM   H18S15111   1.044   4.733   4.443  0.0949  0.8986 -0.0179
  139OSM   H18T15112   1.063   4.685   4.618 -2.6451 -0.2509  1.5175
  139OSM   H18U15113   0.921   4.772   4.565 -1.5089 -0.7474 -2.5224
  139OSM    C1F15114   0.488   4.444   3.031 -0.4553  0.7019 -0.0751
  139OSM     OF15115   0.520   4.340   2.973 -0.3377  0.4558  0.5159
  139OSM    C2F15116   0.377   4.444   3.126 -0.0492 -0.7621  0.5681
  139OSM    H2F15117   0.290   4.459   3.057 -0.4785  0.0970  1.2703
  139OSM    H2G15118   0.403   4.532   3.189  0.1130 -2.0985  2.4144
  139OSM    C3F15119   0.372   4.327   3.219  0.2063  0.3926 -0.8857
  139OSM    H3F15120   0.357   4.233   3.162  0.3369  1.0456 -2.0153
  139OSM    H3G15121   0.284   4.343   3.285  0.9851  1.3529 -0.0479
  139OSM    C4F15122   0.495   4.314   3.308 -0.4562 -0.0649 -0.2891
  139OSM    H4F15123   0.589   4.304   3.249  0.4377 -1.1969  1.2650
  139OSM    H4G15124   0.486   4.221   3.368  2.0733  0.0819  0.4224
  139OSM    C5F15125   0.519   4.430   3.406  0.2826  0.0780 -0.0926
  139OSM    H5F15126   0.553   4.524   3.357 -1.4925  0.9327  0.2011
  139OSM    H5G15127   0.608   4.413   3.469 -0.7478  1.7530  1.9489
  139OSM    C6F15128   0.396   4.458   3.496  0.0038  0.6441  0.5975
  139OSM    H6F15129   0.357   4.363   3.538 -0.4672 -0.0490 -1.3343
  139OSM    H6G15130   0.321   4.506   3.430  0.2965 -1.0247 -1.0141
  139OSM    C7F15131   0.417   4.548   3.625 -0.2020 -0.2249  0.6418
  139OSM    H7F15132   0.462   4.647   3.606 -1.4614  0.9794  3.5161
  139OSM    H7G15133   0.491   4.494   3.686 -0.2148 -0.2861  0.6040
  139OSM    C8F15134   0.284   4.562   3.699  0.5140  0.0733 -0.2886
  139OSM    H8F15135   0.251   4.461   3.731 -2.1460  0.6015 -1.0909
  139OSM    H8G15136   0.210   4.610   3.632 -1.4211  1.3785  2.5839
  139OSM    C9F15137   0.281   4.663   3.814  0.3101  0.7747  0.5396
  139OSM    H9F15138   0.307   4.768   3.791  0.6009  0.4934 -0.5035
  139OSM   C10F15139   0.262   4.636   3.941 -0.1367 -0.6083  0.4936
  139OSM   H10F15140   0.268   4.723   4.008 -1.1501 -0.5669  0.5540
  139OSM   C11F15141   0.216   4.513   4.006  0.4636  0.1111  0.2211
  139OSM   H11F15142   0.208   4.516   4.116  1.0988 -1.9817  0.3503
  139OSM   H11G15143   0.293   4.436   3.989 -0.1391 -1.1433  2.8218
  139OSM   C12F15144   0.083   4.460   3.948 -0.2230  0.3845  0.0466
  139OSM   H12F15145   0.055   4.358   3.983 -0.4634 -0.0060 -1.2264
  139OSM   H12G15146   0.086   4.449   3.837  0.7749  0.4519  0.0571
  139OSM   C13F15147  -0.033   4.549   4.003 -0.0003 -0.0297  0.2198
  139OSM   H13F15148  -0.111   4.549   3.925 -0.0704  1.7915  0.2453
  139OSM   H13G15149  -0.005   4.656   4.010 -0.8969  0.1567  1.2777
  139OSM   C14F15150  -0.099   4.482   4.125 -0.5996  0.4728  0.0587
  139OSM   H14F15151  -0.029   4.457   4.207  0.6844  0.0743 -1.1126
  139OSM   H14G15152  -0.143   4.385   4.094  0.3485 -0.1002  0.4807
  139OSM   C15F15153  -0.206   4.579   4.178 -0.6277  0.0532  0.4368
  139OSM   H15F15154  -0.286   4.596   4.103  0.7631  1.1697 -0.8602
  139OSM   H15G15155  -0.147   4.671   4.198  2.5210 -1.4803 -0.9852
  139OSM   C16F15156  -0.289   4.507   4.285 -0.0721  0.3610 -0.0183
  139OSM   H16F15157  -0.219   4.461   4.357 -0.9353  2.2595  2.1703
  139OSM   H16G15158  -0.347   4.433   4.226  1.5582  2.9832 -5.6373
  139OSM   C17F15159  -0.384   4.604   4.364 -0.0177  0.1342  0.3475
  139OSM   H17F15160  -0.449   4.646   4.285  2.5783  1.4728 -1.2036
  139OSM   H17G15161  -0.316   4.684   4.399  4.9590 -2.7966 -1.4972
  139OSM   C18F15162  -0.451   4.532   4.480  0.2152 -0.6210  0.3338
  139OSM   H18F15163  -0.525   4.455   4.448  0.9191 -1.2488  0.1873
  139OSM   H18G15164  -0.511   4.608   4.535 -1.2194 -1.5916  0.1844
  139OSM   H18H15165  -0.373   4.487   4.545 -0.1682 -1.8358 -0.0241
  140OSM      N15166   5.219   2.892   2.375  0.4131  0.5395 -0.6396
  140OSM    C1515167   5.317   2.927   2.273 -0.5327  0.0113  0.0782
  140OSM   H15A15168   5.420   2.908   2.298 -0.6329  0.2132  0.6577
  140OSM   H15B15169   5.311   3.032   2.249  0.4425 -0.0041 -0.2649
  140OSM   H15C15170   5.300   2.864   2.187 -1.1362  0.6375 -0.2691
  140OSM    C1415171   5.247   2.986   2.488 -0.3100  0.0919 -0.2504
  140OSM   H14A15172   5.254   3.087   2.449 -0.4694 -0.8904 -3.0175
  140OSM   H14B15173   5.345   2.952   2.520 -0.3497 -0.6198 -0.8538
  140OSM   H14C15174   5.175   2.978   2.569  0.6886 -0.6441  0.5982
  140OSM    C1315175   5.079   2.927   2.332  0.1950 -0.0886  0.1210
  140OSM   H13A15176   5.004   2.895   2.403 -2.4167  0.5910 -2.1450
  140OSM   H13B15177   5.058   2.866   2.245  0.8440 -1.7994  1.1114
  140OSM   H13C15178   5.071   3.032   2.306  1.5630 -0.1683 -0.6753
  140OSM    C1215179   5.224   2.755   2.428  0.0786  0.5906 -0.0704
  140OSM   H12A15180   5.236   2.684   2.348  0.0462 -0.2022  0.6129
  140OSM   H12B15181   5.131   2.723   2.475  1.5407 -1.2519  1.7571
  140OSM    C1115182   5.341   2.718   2.525 -0.3937 -0.2822  0.5712
  140OSM   H11A15183   5.342   2.609   2.545 -1.1583 -0.7405 -1.6196
  140OSM   H11B15184   5.323   2.768   2.623 -0.0257 -0.7808  0.8951
  140OSM      P15185   5.594   2.675   2.484 -0.4109  0.2560  0.3776
  140OSM    O1315186   5.579   2.560   2.387  0.2584 -0.2853 -0.4025
  140OSM    O1415187   5.707   2.765   2.472  0.1568 -0.1444  0.4042
  140OSM    O1115188   5.596   2.609   2.627  0.3233 -0.2065 -0.5872
  140OSM    O1215189   5.470   2.768   2.475  0.5744  0.7167 -0.5998
  140OSM    C1S15190   5.638   2.479   2.675 -0.1357  0.4144  0.9729
  140OSM    H1S15191   5.744   2.463   2.646 -0.5017  0.2257 -0.3301
  140OSM    H1T15192   5.577   2.394   2.639  2.6874 -1.0873 -0.6515
  140OSM     NF15193   5.674   2.343   2.881 -0.0035  0.2149  1.0092
  140OSM    HNF15194   5.609   2.281   2.925 -0.4001 -0.0078  0.1236
  140OSM    C2S15195   5.633   2.471   2.830 -0.3582 -0.1472 -0.0682
  140OSM    H2S15196   5.714   2.537   2.868  0.1850 -1.3713  1.0091
  140OSM    C3S15197   5.504   2.535   2.886  0.0007  0.7954 -0.5861
  140OSM    H3S15198   5.432   2.459   2.849  1.0212 -0.7034  0.3731
  140OSM     O315199   5.469   2.669   2.837  0.0188  0.3641 -0.2956
  140OSM    HO315200   5.514   2.682   2.753  3.0980  0.5286  1.2248
  140OSM    C4S15201   5.487   2.535   3.033  0.0297  0.5851 -0.1529
  140OSM    H4S15202   5.561   2.602   3.078 -0.3524  0.4766  0.6523
  140OSM    C5S15203   5.399   2.460   3.107 -0.0253 -0.3530  0.0124
  140OSM    H5S15204   5.321   2.392   3.069  0.6226 -1.4932  0.6679
  140OSM    C6S15205   5.397   2.485   3.259 -0.2333 -0.1881 -0.1293
  140OSM    H6S15206   5.291   2.492   3.291 -0.7365  1.0986 -1.8997
  140OSM    H6T15207   5.450   2.577   3.293 -1.9357 -0.2924  3.1124
  140OSM    C7S15208   5.450   2.369   3.340 -0.0266 -0.2825  0.1865
  140OSM    H7S15209   5.553   2.348   3.305  0.0382  1.1260 -0.5689
  140OSM    H7T15210   5.385   2.280   3.334  0.2230 -0.6628  2.2318
  140OSM    C8S15211   5.461   2.401   3.493 -0.8563 -0.7755  0.6017
  140OSM    H8S15212   5.384   2.475   3.523  0.9902  1.2405  0.6312
  140OSM    H8T15213   5.559   2.452   3.508 -0.0085 -2.1879  0.0355
  140OSM    C9S15214   5.464   2.264   3.568  0.3886 -0.6714 -0.0912
  140OSM    H9S15215   5.551   2.203   3.536  1.1775  1.0292 -1.3901
  140OSM    H9T15216   5.368   2.209   3.558  0.0807 -1.4644  4.7419
  140OSM   C10S15217   5.456   2.294   3.718 -0.5940  0.0307  0.0201
  140OSM   H10S15218   5.363   2.347   3.746 -1.0236  0.3541 -1.9339
  140OSM   H10T15219   5.543   2.356   3.751 -0.4880 -0.7155  1.1894
  140OSM   C11S15220   5.470   2.163   3.799  0.4173 -0.5402  0.2276
  140OSM   H11S15221   5.551   2.100   3.757  1.4637  1.0404 -0.1904
  140OSM   H11T15222   5.369   2.117   3.796  0.1515  0.0457  0.0724
  140OSM   C12S15223   5.488   2.189   3.949  0.0048  0.1282 -0.4157
  140OSM   H12S15224   5.394   2.242   3.977 -0.9024  0.5782 -3.9106
  140OSM   H12T15225   5.570   2.263   3.952 -1.4122  1.7820  2.3476
  140OSM   C13S15226   5.509   2.058   4.035 -0.3641  0.1114 -0.2308
  140OSM   H13S15227   5.607   2.018   4.000 -0.1063  1.3922 -1.0493
  140OSM   H13T15228   5.439   1.975   4.013 -0.1781 -0.0711 -0.1413
  140OSM   C14S15229   5.494   2.080   4.187 -0.1943  0.8248 -0.0836
  140OSM   H14S15230   5.394   2.108   4.226 -0.7869  0.0569 -0.9900
  140OSM   H14T15231   5.566   2.159   4.218 -1.8695  2.4728 -0.2252
  140OSM   C15S15232   5.543   1.947   4.260 -0.1175 -0.2608  0.2228
  140OSM   H15S15233   5.654   1.944   4.260 -0.1136 -0.7385 -1.2323
  140OSM   H15T15234   5.512   1.855   4.206 -0.8303 -0.1109  0.3601
  140OSM   C16S15235   5.497   1.949   4.402  0.1092  0.7357  0.0160
  140OSM   H16S15236   5.500   1.843   4.435 -3.0178  0.5510 -0.0408
  140OSM   H16T15237   5.393   1.985   4.416  0.5592  1.4082  2.0678
  140OSM   C17S15238   5.594   2.031   4.490  0.4386  0.6033 -0.1067
  140OSM   H17S15239   5.628   2.125   4.441  0.8187  1.9136  2.4434
  140OSM   H17T15240   5.677   1.961   4.513  0.9412  0.1462 -2.9673
  140OSM   C18S15241   5.541   2.071   4.628  0.0597 -0.5320  0.0543
  140OSM   H18S15242   5.495   1.988   4.685 -0.4071  0.0787  0.5811
  140OSM   H18T15243   5.459   2.143   4.608  0.6373  0.7250  1.8778
  140OSM   H18U15244   5.621   2.117   4.690  0.3607 -0.1784 -0.5837
  140OSM    C1F15245   5.803   2.300   2.860  0.3215 -0.2966 -0.9984
  140OSM     OF15246   5.892   2.368   2.808 -0.7402 -0.6881  0.0900
  140OSM    C2F15247   5.835   2.167   2.918  0.1563  0.6780 -0.1046
  140OSM    H2F15248   5.883   2.113   2.833  1.1939  0.7655  0.4054
  140OSM    H2G15249   5.734   2.130   2.943  0.1601  2.6826  3.6930
  140OSM    C3F15250   5.904   2.154   3.049  0.2382 -0.3419 -0.4087
  140OSM    H3F15251   5.914   2.049   3.082  0.6049 -0.1240  0.1849
  140OSM    H3G15252   5.848   2.215   3.123 -0.8132  0.5724 -1.9069
  140OSM    C4F15253   6.054   2.200   3.035 -0.1920  0.4099 -0.9400
  140OSM    H4F15254   6.057   2.294   2.975 -0.0080  1.8371  1.1804
  140OSM    H4G15255   6.106   2.123   2.974 -3.1598 -2.4670 -0.1024
  140OSM    C5F15256   6.135   2.227   3.167 -0.1109  0.5881  0.2546
  140OSM    H5F15257   6.057   2.270   3.233 -2.5136  0.2656 -2.1973
  140OSM    H5G15258   6.224   2.293   3.161  0.2397  0.4087  2.5551
  140OSM    C6F15259   6.195   2.095   3.222  0.7013  0.6513  0.1260
  140OSM    H6F15260   6.271   2.054   3.152 -1.0523  0.6661 -1.8488
  140OSM    H6G15261   6.120   2.014   3.225  1.8838 -0.5417 -1.2581
  140OSM    C7F15262   6.251   2.119   3.368 -0.2378 -0.7282  0.5776
  140OSM    H7F15263   6.307   2.213   3.385  1.9544 -1.2707 -2.7143
  140OSM    H7G15264   6.326   2.039   3.385 -0.1705 -1.0891 -1.2008
  140OSM    C8F15265   6.145   2.118   3.477 -0.1377 -0.0874 -0.0715
  140OSM    H8F15266   6.077   2.204   3.458  0.9751  0.5915 -1.1622
  140OSM    H8G15267   6.200   2.144   3.570 -0.0633  0.3185 -0.2235
  140OSM    C9F15268   6.074   1.989   3.508 -0.3984  1.0486  0.2695
  140OSM    H9F15269   6.035   1.940   3.418 -0.6664 -2.0207  1.9340
  140OSM   C10F15270   6.050   1.932   3.624 -0.1668  0.1692 -0.0836
  140OSM   H10F15271   5.990   1.839   3.623  0.6834 -0.3813 -0.3503
  140OSM   C11F15272   6.076   1.989   3.763 -0.5673  0.0603 -0.5261
  140OSM   H11F15273   5.997   1.953   3.833  2.6761 -0.7604  3.0680
  140OSM   H11G15274   6.074   2.099   3.770 -0.4359  0.0851 -0.8802
  140OSM   C12F15275   6.208   1.935   3.829  0.9082 -0.9046 -0.0582
  140OSM   H12F15276   6.289   1.959   3.756 -0.5493  1.2833 -1.0437
  140OSM   H12G15277   6.213   1.824   3.838  2.4682 -0.8711 -0.2817
  140OSM   C13F15278   6.245   2.005   3.964 -0.2734  0.1083 -0.1905
  140OSM   H13F15279   6.247   2.115   3.950 -3.5867  0.2483 -0.3473
  140OSM   H13G15280   6.351   1.979   3.986 -0.2853  1.4135  1.6335
  140OSM   C14F15281   6.155   1.970   4.087  0.1088  0.1029 -0.4242
  140OSM   H14F15282   6.131   1.863   4.074  0.5451 -0.0703  0.1758
  140OSM   H14G15283   6.057   2.023   4.085 -0.0963 -0.2797 -1.9082
  140OSM   C15F15284   6.230   1.985   4.217 -0.6147 -0.5607 -0.5326
  140OSM   H15F15285   6.282   2.083   4.216 -0.3908 -0.5402  2.4621
  140OSM   H15G15286   6.317   1.917   4.212 -0.9305 -0.8736 -2.4699
  140OSM   C16F15287   6.152   1.971   4.348  0.2063  0.5652 -1.2999
  140OSM   H16F15288   6.081   1.888   4.328  0.8459 -0.4674  0.4626
  140OSM   H16G15289   6.095   2.066   4.355 -0.6724  0.0577 -1.3581
  140OSM   C17F15290   6.239   1.949   4.480  0.8582 -0.3006  0.0119
  140OSM   H17F15291   6.264   1.841   4.463 -0.9517 -0.8260  0.5226
  140OSM   H17G15292   6.168   1.960   4.564 -0.1072  3.5029 -1.1002
  140OSM   C18F15293   6.354   2.049   4.491  0.4619  0.0965  0.7209
  140OSM   H18F15294   6.403   2.047   4.392 -0.1678 -2.9349  0.3767
  140OSM   H18G15295   6.440   2.017   4.554  0.8661 -3.0086 -1.1934
  140OSM   H18H15296   6.314   2.149   4.519 -0.0207  0.0225  0.3212
  141OSM      N15297   2.856   5.824   2.036 -0.8466 -0.7322  0.0544
  141OSM    C1515298   2.856   5.974   2.027 -0.6443 -0.8486  0.6960
  141OSM   H15A15299   2.945   6.021   2.068  0.7692 -0.2884 -2.6877
  141OSM   H15B15300   2.773   6.021   2.079  1.5989  1.0838  2.8163
  141OSM   H15C15301   2.844   6.005   1.924 -1.1526 -2.5080  0.2384
  141OSM    C1415302   2.757   5.781   1.936  0.1539  0.0854 -0.2164
  141OSM   H14A15303   2.775   5.823   1.839  0.9936  1.7801  0.6370
  141OSM   H14B15304   2.656   5.812   1.962  0.4674 -1.1228  2.9867
  141OSM   H14C15305   2.757   5.673   1.933  0.3476  0.0103  1.5076
  141OSM    C1315306   2.987   5.774   1.989  0.1071  0.5374 -0.5409
  141OSM   H13A15307   2.996   5.666   1.993  2.5448  0.6564 -1.2782
  141OSM   H13B15308   3.076   5.808   2.040  0.9252  0.1967 -1.6987
  141OSM   H13C15309   3.005   5.795   1.885  1.5308 -1.9485 -0.8827
  141OSM    C1215310   2.821   5.777   2.173  0.4646 -0.3218 -0.6327
  141OSM   H12A15311   2.810   5.670   2.178 -0.8043 -0.1549  0.4173
  141OSM   H12B15312   2.725   5.816   2.203  0.2008 -0.8723 -0.7492
  141OSM    C1115313   2.916   5.810   2.291 -0.4492 -0.1587  0.2777
  141OSM   H11A15314   3.009   5.750   2.279  1.3519  2.1553  1.7862
  141OSM   H11B15315   2.882   5.774   2.390 -0.4280  0.5897  0.5568
  141OSM      P15316   2.867   6.055   2.369 -0.0206 -0.0529  0.0222
  141OSM    O1315317   2.925   6.181   2.320 -0.1085 -0.0154  0.6749
  141OSM    O1415318   2.725   6.036   2.340  0.3345  0.0287  0.0052
  141OSM    O1115319   2.876   6.046   2.527 -0.5763  0.7575 -0.2689
  141OSM    O1215320   2.956   5.944   2.305  0.1484  0.4325 -0.0282
  141OSM    C1S15321   2.997   6.019   2.598  0.1025 -0.6974 -0.1076
  141OSM    H1S15322   3.059   6.110   2.586  0.3386 -0.9054 -0.5016
  141OSM    H1T15323   3.054   5.934   2.553  0.1701 -0.3484 -0.6949
  141OSM     NF15324   3.097   5.989   2.811  0.0590  0.0471 -0.2200
  141OSM    HNF15325   3.150   5.906   2.823  0.5061  0.3387 -0.1589
  141OSM    C2S15326   2.970   5.987   2.743 -0.0476 -0.1778  0.1774
  141OSM    H2S15327   2.903   6.069   2.777 -0.4244 -1.6200  3.2521
  141OSM    C3S15328   2.887   5.856   2.749  0.2692  0.7124  0.1697
  141OSM    H3S15329   2.937   5.771   2.698  0.9955  0.8429  0.6453
  141OSM     O315330   2.758   5.857   2.691  0.4301 -0.1809 -0.3260
  141OSM    HO315331   2.754   5.940   2.642 -2.4266  1.3932  2.2475
  141OSM    C4S15332   2.877   5.812   2.899 -0.0602  0.4646 -0.2049
  141OSM    H4S15333   2.935   5.726   2.934 -1.1083 -0.8357 -1.5433
  141OSM    C5S15334   2.784   5.869   2.980  0.1614  0.5686  0.1722
  141OSM    H5S15335   2.718   5.944   2.934 -0.8115  0.3447  1.1737
  141OSM    C6S15336   2.764   5.860   3.131 -0.0741 -0.5785  0.0621
  141OSM    H6S15337   2.675   5.799   3.156  0.2514 -0.2968  2.0578
  141OSM    H6T15338   2.742   5.967   3.151  2.8485  0.3101 -0.8630
  141OSM    C7S15339   2.898   5.820   3.199  0.0263 -0.0296  0.8757
  141OSM    H7S15340   2.977   5.881   3.149  1.1734 -1.9451  0.2477
  141OSM    H7T15341   2.921   5.713   3.179  0.2714  0.2725 -0.5834
  141OSM    C8S15342   2.903   5.839   3.358 -0.1356 -0.5426  0.0266
  141OSM    H8S15343   2.904   5.945   3.390  1.2119 -0.0635 -1.4610
  141OSM    H8T15344   3.006   5.806   3.387  0.2862 -1.0832 -1.9382
  141OSM    C9S15345   2.821   5.749   3.447 -0.6102 -0.7320 -0.2284
  141OSM    H9S15346   2.867   5.652   3.419 -0.3114 -0.4568 -0.7054
  141OSM    H9T15347   2.712   5.769   3.438 -0.4030  0.5766 -0.0937
  141OSM   C10S15348   2.847   5.767   3.599 -0.5058  0.3658  0.1576
  141OSM   H10S15349   2.953   5.749   3.627 -0.8190  0.5839  1.5577
  141OSM   H10T15350   2.805   5.677   3.648 -0.0996  0.5618  0.8691
  141OSM   C11S15351   2.793   5.900   3.659  0.4400 -1.3931 -0.1725
  141OSM   H11S15352   2.682   5.903   3.655  0.2923  2.1904  2.3001
  141OSM   H11T15353   2.834   5.988   3.606 -2.3547  0.6979  0.8588
  141OSM   C12S15354   2.839   5.911   3.806 -1.1361 -0.2363  0.6672
  141OSM   H12S15355   2.942   5.951   3.800 -1.9086  2.1659  2.1749
  141OSM   H12T15356   2.837   5.808   3.847  3.2060 -0.8734 -0.2293
  141OSM   C13S15357   2.771   6.012   3.894  0.2378 -0.2349 -1.1991
  141OSM   H13S15358   2.765   6.109   3.841 -0.6339  2.1017  2.8037
  141OSM   H13T15359   2.838   6.019   3.982 -0.2615 -3.7100 -0.3679
  141OSM   C14S15360   2.626   5.973   3.935 -0.1701  0.5517 -0.0480
  141OSM   H14S15361   2.653   5.873   3.977 -2.5377  0.5643  1.7496
  141OSM   H14T15362   2.551   5.962   3.854  1.2954 -1.0467 -1.2614
  141OSM   C15S15363   2.563   6.060   4.045 -0.2426 -0.1187 -0.8721
  141OSM   H15S15364   2.540   6.165   4.014 -1.4485 -0.1742 -0.2398
  141OSM   H15T15365   2.635   6.080   4.126 -0.1125  0.4138 -1.1169
  141OSM   C16S15366   2.426   5.998   4.095  0.7648  0.2763 -0.2961
  141OSM   H16S15367   2.441   5.913   4.165  1.5192  1.5292  1.1331
  141OSM   H16T15368   2.363   5.952   4.016 -0.5042 -0.0447  0.8648
  141OSM   C17S15369   2.340   6.098   4.175  0.7185  0.2128 -0.6460
  141OSM   H17S15370   2.311   6.179   4.105  3.3740  2.3620  0.5480
  141OSM   H17T15371   2.388   6.141   4.266  1.0615 -1.1691 -0.1467
  141OSM   C18S15372   2.221   6.020   4.233 -0.7984  0.2562  0.0131
  141OSM   H18S15373   2.162   5.981   4.146  1.9848 -0.0151 -1.8792
  141OSM   H18T15374   2.153   6.078   4.299 -3.2110 -1.1794 -1.0386
  141OSM   H18U15375   2.255   5.927   4.283  0.1780  0.1187 -0.8726
  141OSM    C1F15376   3.167   6.098   2.833  0.1877 -0.0092  0.5176
  141OSM     OF15377   3.119   6.208   2.802  0.0428 -0.0598  0.3012
  141OSM    C2F15378   3.311   6.081   2.875 -0.0479 -0.3476 -0.4089
  141OSM    H2F15379   3.376   6.094   2.786  1.3592 -1.5941  0.3924
  141OSM    H2G15380   3.333   5.980   2.917 -0.4648 -1.3989 -2.6050
  141OSM    C3F15381   3.347   6.182   2.975 -0.0425  0.2683  0.4505
  141OSM    H3F15382   3.314   6.275   2.923 -2.1517 -0.2823  0.7333
  141OSM    H3G15383   3.457   6.186   2.987  0.2240 -0.6150 -1.3557
  141OSM    C4F15384   3.284   6.167   3.116  0.1920  0.2961 -0.0168
  141OSM    H4F15385   3.336   6.089   3.176  1.3994  1.5688  0.6648
  141OSM    H4G15386   3.178   6.136   3.114  0.5260 -0.8522 -0.4471
  141OSM    C5F15387   3.279   6.298   3.194  0.2319 -0.0567 -0.1661
  141OSM    H5F15388   3.216   6.365   3.131 -0.8970 -0.4832  0.4611
  141OSM    H5G15389   3.376   6.350   3.202  0.5883 -0.8671  1.0794
  141OSM    C6F15390   3.225   6.271   3.337 -0.0039 -0.0393 -0.0204
  141OSM    H6F15391   3.267   6.175   3.374 -0.2941  0.0644  0.5874
  141OSM    H6G15392   3.116   6.245   3.333  0.0547 -0.1744 -1.0419
  141OSM    C7F15393   3.246   6.386   3.427 -0.1078  0.2215 -0.6827
  141OSM    H7F15394   3.200   6.480   3.388  1.3035  1.4384  0.4563
  141OSM    H7G15395   3.353   6.414   3.433  0.2803 -1.0539 -1.2776
  141OSM    C8F15396   3.198   6.362   3.579 -1.2246  0.2051  0.8723
  141OSM    H8F15397   3.243   6.445   3.638 -1.6966  0.5402  0.7707
  141OSM    H8G15398   3.247   6.269   3.615  2.3555  0.8402 -1.8469
  141OSM    C9F15399   3.050   6.364   3.598  1.5462 -0.2347 -0.2454
  141OSM    H9F15400   3.000   6.366   3.500  1.2089  0.3259 -0.0703
  141OSM   C10F15401   2.973   6.339   3.707  0.0919  0.2050 -0.0378
  141OSM   H10F15402   2.865   6.360   3.713  0.6453  3.1844  1.1217
  141OSM   C11F15403   3.035   6.316   3.840  0.5801  0.2165  0.4831
  141OSM   H11F15404   3.146   6.326   3.841  0.7000 -0.6772 -1.3144
  141OSM   H11G15405   3.008   6.215   3.877  0.9452  0.6530  2.0127
  141OSM   C12F15406   2.994   6.417   3.941  0.3371 -0.4849 -0.3622
  141OSM   H12F15407   2.886   6.406   3.965  0.4001  0.8686  0.6505
  141OSM   H12G15408   3.026   6.515   3.901  0.2031 -0.3739 -0.1978
  141OSM   C13F15409   3.058   6.396   4.079 -0.6671  0.0649 -0.3859
  141OSM   H13F15410   3.168   6.403   4.065 -0.7744  1.1636 -0.7654
  141OSM   H13G15411   3.023   6.296   4.113 -0.2700 -0.2533 -0.8971
  141OSM   C14F15412   3.016   6.504   4.181  0.3259 -0.2230  0.4865
  141OSM   H14F15413   3.043   6.482   4.286  0.2501  0.3762  0.6383
  141OSM   H14G15414   2.906   6.521   4.175  0.6769  1.7432 -2.0689
  141OSM   C15F15415   3.097   6.634   4.151  0.2866  0.0330 -0.5335
  141OSM   H15F15416   3.034   6.677   4.071  0.1015 -0.9642 -0.9421
  141OSM   H15G15417   3.201   6.619   4.114  1.2213  2.2025  1.0034
  141OSM   C16F15418   3.105   6.725   4.270  0.8069 -0.2967 -0.3754
  141OSM   H16F15419   3.123   6.659   4.357  1.9667 -1.3087 -1.3410
  141OSM   H16G15420   3.001   6.762   4.284  0.1594 -2.4562  0.8093
  141OSM   C17F15421   3.202   6.843   4.265  0.3828 -0.0683  0.0170
  141OSM   H17F15422   3.205   6.913   4.179 -0.6066 -1.6985 -1.4330
  141OSM   H17G15423   3.298   6.787   4.265 -0.7972 -2.3564  2.6092
  141OSM   C18F15424   3.197   6.927   4.388 -0.0509 -0.6265  0.9940
  141OSM   H18F15425   3.262   7.014   4.363  0.8709 -1.8001 -0.8940
  141OSM   H18G15426   3.236   6.877   4.480 -0.4011 -0.5519  1.1823
  141OSM   H18H15427   3.093   6.959   4.408  0.3445 -0.1749  2.4271
  142OSM      N15428   1.937   2.369   2.519  0.4793 -0.0510  0.3166
  142OSM    C1515429   1.967   2.508   2.454  0.3149  0.3564  0.0347
  142OSM   H15A15430   2.057   2.507   2.393  0.7292 -0.4357  0.6388
  142OSM   H15B15431   1.978   2.584   2.529 -2.4860 -0.6475  1.6064
  142OSM   H15C15432   1.884   2.534   2.389 -1.0900 -2.4394  0.5417
  142OSM    C1415433   1.824   2.377   2.616  0.8287  0.0763 -0.8632
  142OSM   H14A15434   1.832   2.286   2.673  1.8168  0.6825 -0.0072
  142OSM   H14B15435   1.728   2.387   2.569  0.1863 -0.2031  0.3587
  142OSM   H14C15436   1.837   2.459   2.685 -2.1801  1.4998 -1.8056
  142OSM    C1315437   1.908   2.280   2.410 -0.4061  0.3570 -0.7137
  142OSM   H13A15438   1.810   2.303   2.370 -1.7718  1.6892  2.9999
  142OSM   H13B15439   1.925   2.179   2.445  1.2516  0.2288 -1.7667
  142OSM   H13C15440   1.985   2.291   2.335  2.3234  1.8751  2.1015
  142OSM    C1215441   2.064   2.325   2.585 -0.1766 -0.3370 -0.2642
  142OSM   H12A15442   2.147   2.328   2.516  1.5886  1.7368  1.7612
  142OSM   H12B15443   2.053   2.222   2.615  1.4534 -0.6769 -0.7246
  142OSM    C1115444   2.120   2.413   2.701  0.2023  0.0121 -0.1434
  142OSM   H11A15445   2.189   2.345   2.756 -2.9857 -0.2611  4.0078
  142OSM   H11B15446   2.043   2.438   2.777  0.0817  1.7017 -0.7922
  142OSM      P15447   2.327   2.516   2.588  0.0520 -0.1271 -0.4474
  142OSM    O1315448   2.321   2.425   2.469  0.1684 -0.0564 -0.4699
  142OSM    O1415449   2.386   2.650   2.582  0.1320 -0.1385  0.1097
  142OSM    O1115450   2.399   2.435   2.699  0.2743  0.4381 -0.1269
  142OSM    O1215451   2.183   2.534   2.651  0.7145  0.7547 -0.6299
  142OSM    C1S15452   2.479   2.500   2.802 -0.0640  0.2978 -0.1328
  142OSM    H1S15453   2.482   2.611   2.795  2.7503  0.1954 -2.4706
  142OSM    H1T15454   2.581   2.457   2.806 -0.8237 -1.5496  0.5491
  142OSM     NF15455   2.424   2.559   3.053  0.0445 -0.1044 -0.7999
  142OSM    HNF15456   2.491   2.532   3.121  0.5842 -0.0822 -1.3107
  142OSM    C2S15457   2.408   2.463   2.947 -0.4170  0.3410  1.1177
  142OSM    H2S15458   2.300   2.451   2.926  0.0587 -1.1030 -0.9240
  142OSM    C3S15459   2.463   2.326   2.988  0.1588  0.5386  0.3067
  142OSM    H3S15460   2.567   2.335   3.025  0.1723  2.0820 -0.0349
  142OSM     O315461   2.456   2.225   2.888  0.0639 -0.4541  0.0652
  142OSM    HO315462   2.427   2.270   2.809  1.5192 -1.2221 -0.9328
  142OSM    C4S15463   2.393   2.274   3.116  0.4192 -0.3691  0.1433
  142OSM    H4S15464   2.453   2.302   3.204 -1.3226  0.3129  1.1707
  142OSM    C5S15465   2.277   2.199   3.116  0.5963 -0.1871 -0.5345
  142OSM    H5S15466   2.236   2.164   3.020  0.5573 -3.7469  0.6360
  142OSM    C6S15467   2.212   2.133   3.230  0.1917  0.0936  0.6925
  142OSM    H6S15468   2.199   2.026   3.202  0.0930  0.4717 -0.8086
  142OSM    H6T15469   2.111   2.180   3.233 -0.2093 -0.7423  0.7217
  142OSM    C7S15470   2.288   2.148   3.362  0.2646  0.3142 -0.5933
  142OSM    H7S15471   2.305   2.256   3.383  0.6531 -0.1069  1.5041
  142OSM    H7T15472   2.384   2.093   3.364  0.6542  0.9994  0.0960
  142OSM    C8S15473   2.207   2.099   3.488 -0.0391 -0.3391  0.9314
  142OSM    H8S15474   2.197   1.988   3.493  0.4388 -0.3288  3.0424
  142OSM    H8T15475   2.101   2.128   3.472  0.1760 -0.8133 -1.8976
  142OSM    C9S15476   2.275   2.131   3.615  0.2511 -0.1353 -0.1541
  142OSM    H9S15477   2.259   2.240   3.628 -1.7349 -0.5287  1.0569
  142OSM    H9T15478   2.385   2.126   3.598  0.0304  1.1697 -2.3628
  142OSM   C10S15479   2.229   2.062   3.748 -0.3969  0.1115  0.2224
  142OSM   H10S15480   2.253   1.954   3.741  1.5139  0.2911  2.5474
  142OSM   H10T15481   2.120   2.079   3.758 -0.5058 -0.7366  0.5276
  142OSM   C11S15482   2.310   2.124   3.870  0.3104  0.9696 -0.1070
  142OSM   H11S15483   2.278   2.231   3.867  1.4969  1.3528  0.4932
  142OSM   H11T15484   2.418   2.113   3.849  0.2016  0.7600 -0.5624
  142OSM   C12S15485   2.271   2.056   3.999  0.3181 -1.2240  0.8622
  142OSM   H12S15486   2.297   1.948   3.993  0.3487 -1.1420 -1.1724
  142OSM   H12T15487   2.161   2.061   4.009  0.5334  2.6890  3.4690
  142OSM   C13S15488   2.331   2.136   4.122  0.0852  0.3791  0.2552
  142OSM   H13S15489   2.309   2.244   4.102 -1.3331 -0.1927 -1.5314
  142OSM   H13T15490   2.441   2.123   4.125  0.0060 -0.4238 -0.1796
  142OSM   C14S15491   2.273   2.104   4.268  0.1655 -0.4466  0.4486
  142OSM   H14S15492   2.318   2.006   4.296 -0.2557 -0.9603 -0.6090
  142OSM   H14T15493   2.163   2.090   4.276  0.3593 -2.7886 -0.0975
  142OSM   C15S15494   2.318   2.210   4.372 -0.9160  0.5031 -0.0838
  142OSM   H15S15495   2.283   2.308   4.332  0.6584  1.4773  0.7847
  142OSM   H15T15496   2.429   2.219   4.360 -0.8721 -0.6847 -0.6897
  142OSM   C16S15497   2.263   2.161   4.503 -0.5068 -0.2997 -0.3281
  142OSM   H16S15498   2.328   2.084   4.551  0.0305  1.0039  1.1182
  142OSM   H16T15499   2.159   2.121   4.497 -1.6582  2.4290 -0.1674
  142OSM   C17S15500   2.260   2.276   4.604 -0.4901  0.2840  0.0929
  142OSM   H17S15501   2.199   2.231   4.686  0.5270  0.0278  0.7376
  142OSM   H17T15502   2.214   2.365   4.557 -2.4734 -0.8184 -0.1422
  142OSM   C18S15503   2.402   2.304   4.669 -0.3943  0.2475 -0.2346
  142OSM   H18S15504   2.453   2.343   4.579 -0.4582 -1.8427 -1.2328
  142OSM   H18T15505   2.452   2.217   4.716 -0.5856  1.2980  2.0610
  142OSM   H18U15506   2.389   2.375   4.754 -0.6311 -2.7134  2.3769
  142OSM    C1F15507   2.380   2.682   3.052  0.3856 -0.2672  0.1312
  142OSM     OF15508   2.275   2.709   2.998 -0.1580 -0.4399  0.4138
  142OSM    C2F15509   2.458   2.789   3.124 -0.1482 -0.0273 -0.3014
  142OSM    H2F15510   2.456   2.886   3.071 -0.2064 -0.7292 -1.6192
  142OSM    H2G15511   2.566   2.760   3.132 -0.3802 -1.6083 -2.1568
  142OSM    C3F15512   2.411   2.816   3.270 -0.5068  0.5061  1.0754
  142OSM    H3F15513   2.357   2.727   3.309 -1.5248  0.1624 -0.9844
  142OSM    H3G15514   2.343   2.904   3.281 -3.0449 -1.3416  1.0985
  142OSM    C4F15515   2.534   2.857   3.357  0.8431 -0.0293 -0.3600
  142OSM    H4F15516   2.591   2.942   3.313  0.0512  2.3687  2.8740
  142OSM    H4G15517   2.603   2.770   3.363  1.3322  0.0352 -3.4930
  142OSM    C5F15518   2.500   2.898   3.503 -0.2032 -1.0187 -0.4032
  142OSM    H5F15519   2.446   2.816   3.555 -0.1016  1.2078  3.7129
  142OSM    H5G15520   2.433   2.987   3.499 -2.1263 -2.4486 -1.2233
  142OSM    C6F15521   2.616   2.935   3.599  0.1490 -0.5664  0.0319
  142OSM    H6F15522   2.684   2.996   3.537  0.1124 -1.7649 -1.2234
  142OSM    H6G15523   2.676   2.846   3.626  0.4830  0.1121  1.6780
  142OSM    C7F15524   2.570   3.019   3.718 -0.2696  0.7224 -0.4057
  142OSM    H7F15525   2.515   3.112   3.692  0.1951  0.8801 -0.8295
  142OSM    H7G15526   2.662   3.042   3.775 -0.2877 -0.5888  0.1958
  142OSM    C8F15527   2.478   2.948   3.823  0.1928 -0.1262  0.5233
  142OSM    H8F15528   2.395   2.906   3.763 -1.7883  2.2347  1.4573
  142OSM    H8G15529   2.432   3.033   3.878 -0.0445  1.9544 -2.6695
  142OSM    C9F15530   2.555   2.849   3.913 -0.0398 -0.9184  0.1545
  142OSM    H9F15531   2.585   2.762   3.852 -1.8462 -1.0206 -0.6810
  142OSM   C10F15532   2.590   2.870   4.041 -0.4931  0.5050 -0.4651
  142OSM   H10F15533   2.633   2.785   4.096  0.2551  1.1420 -0.0333
  142OSM   C11F15534   2.563   2.988   4.134  0.3044  0.1647  0.4820
  142OSM   H11F15535   2.496   3.060   4.082 -0.4663 -0.8738 -0.0243
  142OSM   H11G15536   2.658   3.039   4.158  0.6258 -0.6969  1.0807
  142OSM   C12F15537   2.487   2.939   4.265  0.1835 -0.1672 -0.4443
  142OSM   H12F15538   2.425   2.852   4.234 -1.2209  0.5425  0.3181
  142OSM   H12G15539   2.427   3.023   4.304 -0.7014 -1.1396  0.3202
  142OSM   C13F15540   2.584   2.911   4.379 -0.4337 -0.7693  1.0198
  142OSM   H13F15541   2.665   2.987   4.386  0.6788 -1.5021 -2.0449
  142OSM   H13G15542   2.640   2.818   4.355  0.4533 -0.1037  0.4140
  142OSM   C14F15543   2.517   2.897   4.519  0.4571 -0.3327  0.0108
  142OSM   H14F15544   2.450   2.809   4.520  1.2656 -0.9664 -0.4467
  142OSM   H14G15545   2.470   2.997   4.534  0.8565 -0.4137  2.1577
  142OSM   C15F15546   2.614   2.862   4.625  0.2853  0.0397  0.8635
  142OSM   H15F15547   2.695   2.937   4.634 -0.3018  0.8366 -0.2167
  142OSM   H15G15548   2.666   2.766   4.600 -0.4491 -0.8179  2.4675
  142OSM   C16F15549   2.550   2.845   4.760 -0.0142 -0.3591  0.5204
  142OSM   H16F15550   2.439   2.858   4.761  0.0246  0.0190  1.5755
  142OSM   H16G15551   2.582   2.935   4.816  1.2494  0.4532 -1.4023
  142OSM   C17F15552   2.588   2.721   4.831  0.1730 -0.4513  0.3805
  142OSM   H17F15553   2.696   2.719   4.854  0.0159 -1.6415  1.0720
  142OSM   H17G15554   2.571   2.625   4.777  0.8571 -0.4284  0.1210
  142OSM   C18F15555   2.503   2.704   4.953 -0.3461  0.0129 -0.4076
  142OSM   H18F15556   2.525   2.611   5.010 -0.3504  0.1039 -0.2559
  142OSM   H18G15557   2.395   2.704   4.927  0.1135 -0.8275 -2.5723
  142OSM   H18H15558   2.529   2.777   5.033 -0.6151 -0.1022 -0.2136
  143OSM      N15559   0.687   0.854   2.425 -0.4281 -0.4176  0.2644
  143OSM    C1515560   0.730   0.718   2.424  0.4655  0.3614 -0.4506
  143OSM   H15A15561   0.646   0.651   2.428  0.0589  0.9260  1.6442
  143OSM   H15B15562   0.791   0.696   2.510  0.0308  0.4655 -0.1144
  143OSM   H15C15563   0.790   0.692   2.337  2.5665 -2.4499  1.6490
  143OSM    C1415564   0.814   0.938   2.415  0.2939 -0.5396 -0.0602
  143OSM   H14A15565   0.867   0.927   2.509  0.0320  0.0572  0.1696
  143OSM   H14B15566   0.784   1.042   2.411  0.5327 -0.5026 -1.0464
  143OSM   H14C15567   0.871   0.918   2.326  0.6491 -1.0035  0.2695
  143OSM    C1315568   0.584   0.879   2.324 -0.0858  0.2129 -0.0832
  143OSM   H13A15569   0.614   0.829   2.233  1.5927  0.9193  0.0470
  143OSM   H13B15570   0.572   0.981   2.293  0.9774 -0.2879 -2.3187
  143OSM   H13C15571   0.488   0.840   2.354  1.1309 -2.5946  0.5497
  143OSM    C1215572   0.629   0.891   2.568  0.1482 -0.1382  0.8530
  143OSM   H12A15573   0.524   0.867   2.574 -0.3227  1.5717  0.0933
  143OSM   H12B15574   0.633   0.997   2.586  2.1080 -0.1947  1.0492
  143OSM    C1115575   0.692   0.840   2.698 -0.6238 -1.0836 -0.8479
  143OSM   H11A15576   0.699   0.731   2.720 -1.5225 -0.9958 -0.0665
  143OSM   H11B15577   0.631   0.877   2.783  0.6120 -1.3930  0.1954
  143OSM      P15578   0.857   1.021   2.801  0.5008 -0.2401 -0.1353
  143OSM    O1315579   1.004   1.028   2.827 -0.6308  0.1187  0.0116
  143OSM    O1415580   0.796   1.140   2.736  0.2372 -0.4791  0.1040
  143OSM    O1115581   0.789   0.998   2.943  0.1736 -0.2352 -0.3417
  143OSM    O1215582   0.825   0.892   2.718  0.6845  0.1394 -0.5228
  143OSM    C1S15583   0.815   0.883   3.027  0.0214  0.4396  0.0129
  143OSM    H1S15584   0.913   0.836   3.008 -0.3810 -0.5253  0.2751
  143OSM    H1T15585   0.745   0.803   2.995  1.2949 -0.4901 -0.5087
  143OSM     NF15586   0.816   0.771   3.242 -0.5018  0.1676 -0.3874
  143OSM    HNF15587   0.732   0.731   3.278 -0.5376  0.2530 -0.3759
  143OSM    C2S15588   0.797   0.902   3.179  0.6635 -0.0165 -0.1669
  143OSM    H2S15589   0.876   0.975   3.207  0.3608  0.2878 -0.0969
  143OSM    C3S15590   0.656   0.967   3.213  0.1761  0.0616 -0.3192
  143OSM    H3S15591   0.576   0.891   3.200  0.3615 -0.0064 -1.1069
  143OSM     O315592   0.610   1.071   3.124 -0.0954  0.3919  0.2519
  143OSM    HO315593   0.675   1.052   3.056 -1.5021 -2.5006 -0.4598
  143OSM    C4S15594   0.660   1.016   3.357 -0.2027  0.1633  0.0395
  143OSM    H4S15595   0.685   1.123   3.357 -0.4223  0.2147 -0.1015
  143OSM    C5S15596   0.621   0.943   3.457 -0.0086 -0.2327  0.1262
  143OSM    H5S15597   0.589   0.840   3.436 -0.9109  0.3267 -1.4071
  143OSM    C6S15598   0.611   0.970   3.597  0.3515 -0.6864 -0.5952
  143OSM    H6S15599   0.505   0.988   3.623  0.7240  0.6348  0.1529
  143OSM    H6T15600   0.665   1.065   3.620 -1.9866  1.0866 -1.9101
  143OSM    C7S15601   0.648   0.844   3.673  0.3426  0.6342 -0.0259
  143OSM    H7S15602   0.754   0.814   3.658  0.2032 -1.5485  2.5648
  143OSM    H7T15603   0.576   0.761   3.656  1.1587 -0.1368  0.2190
  143OSM    C8S15604   0.640   0.865   3.828  0.2177  0.2167 -0.0100
  143OSM    H8S15605   0.535   0.881   3.859 -1.1390 -3.1208 -2.3407
  143OSM    H8T15606   0.696   0.955   3.861  0.6801  0.3293 -1.0560
  143OSM    C9S15607   0.697   0.749   3.911  0.1747 -0.3804  1.0760
  143OSM    H9S15608   0.803   0.728   3.885  0.0713 -1.0151  1.1639
  143OSM    H9T15609   0.635   0.663   3.880  1.4499 -0.3771 -1.8501
  143OSM   C10S15610   0.669   0.782   4.058 -0.1118 -0.1865  0.0266
  143OSM   H10S15611   0.561   0.780   4.086  0.2687 -0.8353  1.5384
  143OSM   H10T15612   0.712   0.880   4.087 -0.9705 -0.1136  1.1345
  143OSM   C11S15613   0.750   0.694   4.156  0.1618  0.2733 -0.0233
  143OSM   H11S15614   0.860   0.709   4.144  0.2258  0.8161  1.0616
  143OSM   H11T15615   0.714   0.589   4.157 -1.8226  0.9233  0.0455
  143OSM   C12S15616   0.719   0.736   4.307  0.2125 -0.3601  0.1322
  143OSM   H12S15617   0.611   0.717   4.324 -0.5985  3.0176 -0.4625
  143OSM   H12T15618   0.738   0.846   4.308  2.6979 -0.7070 -0.8982
  143OSM   C13S15619   0.810   0.654   4.395  0.2581 -0.2262 -0.9872
  143OSM   H13S15620   0.911   0.697   4.377 -0.3521  1.2211 -1.0997
  143OSM   H13T15621   0.800   0.546   4.371 -0.7883 -0.1571 -0.9177
  143OSM   C14S15622   0.773   0.683   4.542  0.6616  0.2167 -0.7256
  143OSM   H14S15623   0.844   0.625   4.604  2.0607  3.0604  0.5043
  143OSM   H14T15624   0.665   0.656   4.550  0.4442  0.8940 -1.2843
  143OSM   C15S15625   0.784   0.829   4.576  0.4549 -0.5861 -0.4532
  143OSM   H15S15626   0.705   0.893   4.531  1.8489  0.9950 -0.7365
  143OSM   H15T15627   0.882   0.854   4.530  0.3414 -2.6950 -1.9935
  143OSM   C16S15628   0.808   0.842   4.726 -0.1087  0.8020 -0.3922
  143OSM   H16S15629   0.891   0.771   4.746 -0.7002 -0.0397 -0.8500
  143OSM   H16T15630   0.718   0.807   4.782 -0.2052  1.1782 -0.3072
  143OSM   C17S15631   0.841   0.989   4.764  0.2899 -0.1088 -0.0344
  143OSM   H17S15632   0.752   1.050   4.739 -0.6747 -1.7854 -0.8377
  143OSM   H17T15633   0.922   1.021   4.695  0.6647  0.3216  0.5948
  143OSM   C18S15634   0.876   1.010   4.905 -0.0278  0.9916 -0.8369
  143OSM   H18S15635   0.788   0.997   4.971 -0.0497 -2.4090 -1.3313
  143OSM   H18T15636   0.922   1.109   4.922  1.4298  0.0182  1.2460
  143OSM   H18U15637   0.960   0.940   4.926 -1.3549 -0.8051 -1.1870
  143OSM    C1F15638   0.936   0.709   3.256  0.3860  0.1575  0.3367
  143OSM     OF15639   1.039   0.757   3.213 -0.2438 -0.5772  0.2912
  143OSM    C2F15640   0.929   0.569   3.317 -0.4365 -0.7202 -0.1714
  143OSM    H2F15641   0.962   0.483   3.255  1.5748 -0.1947  0.0986
  143OSM    H2G15642   0.822   0.550   3.340 -0.9745  2.4285  0.4513
  143OSM    C3F15643   1.002   0.550   3.457 -0.2760 -0.3923 -0.7457
  143OSM    H3F15644   0.974   0.639   3.516 -2.7717  0.6310 -3.2154
  143OSM    H3G15645   1.112   0.559   3.444 -0.4095  2.2607 -0.6222
  143OSM    C4F15646   0.974   0.414   3.512 -0.5299 -0.5922  0.4069
  143OSM    H4F15647   1.022   0.330   3.458  2.4415  0.2563  1.5258
  143OSM    H4G15648   0.866   0.390   3.506 -0.9779  1.2374  0.3228
  143OSM    C5F15649   1.001   0.415   3.661 -0.1126  0.0240 -0.2064
  143OSM    H5F15650   0.969   0.501   3.723 -4.2195 -0.3099 -1.5833
  143OSM    H5G15651   1.112   0.412   3.673 -0.3718 -0.2766  3.0058
  143OSM    C6F15652   0.937   0.289   3.724 -0.7846 -0.3447  0.3873
  143OSM    H6F15653   0.950   0.196   3.664 -0.6734  0.1313 -0.3434
  143OSM    H6G15654   0.828   0.309   3.719 -0.9164 -0.9687  0.6818
  143OSM    C7F15655   0.983   0.264   3.868 -0.1724  0.3122 -0.2542
  143OSM    H7F15656   0.953   0.335   3.948 -0.6928 -1.3316  1.0785
  143OSM    H7G15657   1.093   0.249   3.858 -0.7790 -4.5716 -3.2502
  143OSM    C8F15658   0.938   0.125   3.920  0.6836 -0.0601  0.4124
  143OSM    H8F15659   1.020   0.093   3.989 -0.5085  0.2534  2.0269
  143OSM    H8G15660   0.940   0.051   3.837  0.1335  0.4337 -0.0536
  143OSM    C9F15661   0.789   0.128   3.978  0.4829  0.2104  0.4338
  143OSM    H9F15662   0.716   0.134   3.897  1.3331 -1.4608 -0.4952
  143OSM   C10F15663   0.748   0.101   4.106 -0.0091 -0.1159  0.0697
  143OSM   H10F15664   0.642   0.107   4.134  0.6021 -2.7468  3.6507
  143OSM   C11F15665   0.841   0.075   4.219 -0.7862  0.2650 -0.1895
  143OSM   H11F15666   0.941   0.034   4.190 -0.9122 -0.1107 -0.0954
  143OSM   H11G15667   0.807  -0.007   4.286 -0.2672 -0.7144 -1.0925
  143OSM   C12F15668   0.873   0.213   4.287  0.2240  0.0940  0.3664
  143OSM   H12F15669   0.773   0.261   4.294 -0.4050 -0.8839 -1.3230
  143OSM   H12G15670   0.938   0.282   4.229 -0.9437  0.1866 -0.8954
  143OSM   C13F15671   0.918   0.180   4.429 -0.1566  0.0902 -0.0563
  143OSM   H13F15672   1.011   0.122   4.414  0.3552  0.5642  1.1584
  143OSM   H13G15673   0.837   0.120   4.475  0.7980 -0.8439  0.4270
  143OSM   C14F15674   0.938   0.300   4.529 -0.0169 -0.3189 -0.5713
  143OSM   H14F15675   0.840   0.346   4.552  0.2686  0.2043 -0.3811
  143OSM   H14G15676   0.998   0.379   4.478 -0.8961 -0.0973 -1.2766
  143OSM   C15F15677   0.993   0.261   4.662 -0.1797  0.3242 -0.5088
  143OSM   H15F15678   1.078   0.191   4.645 -1.1695 -2.0922  3.2051
  143OSM   H15G15679   0.922   0.202   4.724  1.8516 -1.3118  0.3928
  143OSM   C16F15680   1.045   0.382   4.743  0.0624 -0.0652  0.1108
  143OSM   H16F15681   1.099   0.459   4.684  1.2902 -0.5559  0.5438
  143OSM   H16G15682   1.119   0.334   4.812  0.1585 -0.6298 -0.3747
  143OSM   C17F15683   0.936   0.443   4.835 -0.1527 -0.1478  0.4682
  143OSM   H17F15684   0.910   0.361   4.905 -2.9623 -0.2712 -0.5761
  143OSM   H17G15685   0.846   0.472   4.776 -0.1614 -0.9906  0.0526
  143OSM   C18F15686   0.981   0.567   4.915 -0.4152 -0.2589  0.0633
  143OSM   H18F15687   1.031   0.643   4.851 -1.6666  0.8806  0.3815
  143OSM   H18G15688   1.047   0.545   5.002 -2.6198  0.4957  2.0531
  143OSM   H18H15689   0.892   0.617   4.961  0.7513  0.1692  1.9795
  144OSM      N15690   0.910   1.418   2.948  0.0556 -0.0017  0.3227
  144OSM    C1515691   0.919   1.533   3.033  0.0629 -0.3607 -0.5771
  144OSM   H15A15692   0.829   1.560   3.085 -0.3288 -1.5418 -0.6191
  144OSM   H15B15693   0.961   1.620   2.985 -0.2693  1.8009  2.7109
  144OSM   H15C15694   0.978   1.508   3.120 -0.9411 -0.3304  0.1309
  144OSM    C1415695   0.842   1.315   3.038  0.5246  0.3502  0.3855
  144OSM   H14A15696   0.908   1.281   3.117  0.7064  0.7719  0.4213
  144OSM   H14B15697   0.809   1.233   2.976  3.0460  0.2768 -0.9897
  144OSM   H14C15698   0.750   1.348   3.082 -0.8000  0.7320 -2.4330
  144OSM    C1315699   0.831   1.447   2.821 -0.0158 -0.1268 -0.3401
  144OSM   H13A15700   0.890   1.506   2.753 -0.2988  0.3948 -0.1414
  144OSM   H13B15701   0.737   1.500   2.833 -1.3439 -2.5468  0.6830
  144OSM   H13C15702   0.799   1.356   2.775 -1.8021 -0.8842  2.1621
  144OSM    C1215703   1.049   1.363   2.906  0.3760  0.7860 -0.7720
  144OSM   H12A15704   1.032   1.273   2.848  0.9388 -0.4007  0.8542
  144OSM   H12B15705   1.094   1.338   3.000 -2.3145  0.7530  0.6101
  144OSM    C1115706   1.128   1.439   2.805  0.3914 -0.7213  0.3322
  144OSM   H11A15707   1.073   1.462   2.711 -0.1237  2.2924  1.2422
  144OSM   H11B15708   1.216   1.378   2.777 -0.1013 -0.6965 -1.3692
  144OSM      P15709   1.251   1.670   2.765 -0.4298  0.0605  0.1396
  144OSM    O1315710   1.393   1.627   2.766 -0.4074  0.1821 -0.4975
  144OSM    O1415711   1.179   1.689   2.638 -0.0090  0.0719  0.3042
  144OSM    O1115712   1.247   1.804   2.845  0.0358 -0.3408  0.0163
  144OSM    O1215713   1.167   1.567   2.855  0.0262 -0.2174 -0.5290
  144OSM    C1S15714   1.141   1.844   2.921  0.8799 -0.1876  1.2827
  144OSM    H1S15715   1.101   1.760   2.981 -0.9074 -0.5714 -0.3448
  144OSM    H1T15716   1.055   1.874   2.857  1.0394  0.3188  1.2998
  144OSM     NF15717   1.084   1.998   3.109  0.3123  0.1225 -0.2102
  144OSM    HNF15718   1.027   2.078   3.090 -0.9274 -1.1291 -1.9740
  144OSM    C2S15719   1.185   1.971   3.012 -0.3928  0.3248  0.3329
  144OSM    H2S15720   1.278   1.936   3.062  0.3107  1.2761 -0.2723
  144OSM    C3S15721   1.218   2.088   2.920 -0.3366 -0.6334 -0.1448
  144OSM    H3S15722   1.139   2.109   2.846 -2.2142 -2.1382  1.3468
  144OSM     O315723   1.337   2.078   2.845 -0.1328  0.6334  1.0802
  144OSM    HO315724   1.355   1.984   2.838  1.0186  0.9581 -2.0510
  144OSM    C4S15725   1.241   2.209   3.005  0.3665  0.7816  0.1235
  144OSM    H4S15726   1.156   2.278   2.993 -0.8952 -0.9922 -1.8939
  144OSM    C5S15727   1.344   2.231   3.082  0.1014  0.3601  0.5345
  144OSM    H5S15728   1.416   2.149   3.098 -0.4379  0.0637  1.5395
  144OSM    C6S15729   1.378   2.351   3.161  0.2926 -0.9856  0.2160
  144OSM    H6S15730   1.352   2.450   3.117 -3.6137 -1.6642  0.6788
  144OSM    H6T15731   1.489   2.353   3.155  0.3458 -0.0294  1.1648
  144OSM    C7S15732   1.334   2.355   3.308  0.0203  0.1712 -0.0174
  144OSM    H7S15733   1.223   2.351   3.307  0.0357 -3.0068 -0.3882
  144OSM    H7T15734   1.368   2.447   3.360 -0.1202 -1.0240  2.3228
  144OSM    C8S15735   1.390   2.239   3.399  0.1245 -0.0330 -0.0081
  144OSM    H8S15736   1.501   2.242   3.390  0.4092 -0.2118  2.6125
  144OSM    H8T15737   1.347   2.146   3.357 -0.8972  0.4668 -0.1035
  144OSM    C9S15738   1.357   2.252   3.549 -0.1452  0.3385 -0.4683
  144OSM    H9S15739   1.361   2.155   3.603  0.1791 -0.7042 -2.2869
  144OSM    H9T15740   1.249   2.277   3.553 -0.4977 -1.2186  0.6929
  144OSM   C10S15741   1.454   2.336   3.626 -0.3678 -0.0360 -0.1743
  144OSM   H10S15742   1.443   2.437   3.581 -0.7056 -0.3696 -0.8493
  144OSM   H10T15743   1.558   2.307   3.599  0.4469  0.6307  2.0039
  144OSM   C11S15744   1.435   2.331   3.776 -0.1636  0.1829 -0.2809
  144OSM   H11S15745   1.487   2.239   3.812  0.4380  0.7188  0.2512
  144OSM   H11T15746   1.325   2.326   3.787 -0.0980 -0.5390  0.1454
  144OSM   C12S15747   1.484   2.450   3.854 -0.0485 -0.8743  0.5190
  144OSM   H12S15748   1.405   2.529   3.849 -0.8152 -1.7008 -1.0950
  144OSM   H12T15749   1.576   2.492   3.809 -0.8266 -0.0480 -0.3714
  144OSM   C13S15750   1.501   2.412   4.000 -0.7467  0.3146 -0.4329
  144OSM   H13S15751   1.560   2.318   3.995 -2.2534 -0.6001 -2.4443
  144OSM   H13T15752   1.397   2.383   4.028  0.7662 -1.9888  3.7055
  144OSM   C14S15753   1.552   2.521   4.091 -1.0318  0.5306  0.3087
  144OSM   H14S15754   1.498   2.615   4.070 -1.5829  0.1580  0.0396
  144OSM   H14T15755   1.657   2.552   4.071 -1.5592  1.4468 -1.1404
  144OSM   C15S15756   1.544   2.485   4.242  0.0630 -0.4950 -0.4079
  144OSM   H15S15757   1.589   2.564   4.305  0.0218  0.5301 -1.6312
  144OSM   H15T15758   1.593   2.387   4.263 -2.6117 -1.4574  1.9641
  144OSM   C16S15759   1.394   2.464   4.287 -0.4052 -0.3599  0.2221
  144OSM   H16S15760   1.348   2.382   4.229  1.2533 -1.6753  0.6537
  144OSM   H16T15761   1.343   2.559   4.261 -1.5710 -0.2556  2.5535
  144OSM   C17S15762   1.388   2.442   4.442  0.1721 -0.5706 -0.3340
  144OSM   H17S15763   1.487   2.411   4.483  1.5529 -1.6087 -4.0440
  144OSM   H17T15764   1.315   2.360   4.459  0.2619 -0.3019  1.5710
  144OSM   C18S15765   1.330   2.564   4.516 -0.6263 -0.5744 -0.6496
  144OSM   H18S15766   1.379   2.656   4.477  0.0512 -1.0192 -0.8738
  144OSM   H18T15767   1.339   2.554   4.626  2.0527  1.2142 -0.6025
  144OSM   H18U15768   1.227   2.586   4.482 -0.5538  1.5976  0.3308
  144OSM    C1F15769   1.054   1.919   3.210  0.0125  0.1596 -0.9369
  144OSM     OF15770   1.117   1.820   3.234 -0.2546  0.3480  0.7711
  144OSM    C2F15771   0.927   1.964   3.283  0.1315  0.5041  0.4283
  144OSM    H2F15772   0.877   1.875   3.326  1.2478 -0.3995 -0.0833
  144OSM    H2G15773   0.865   2.003   3.199  1.5867 -1.1375 -1.5105
  144OSM    C3F15774   0.959   2.076   3.387 -1.5766  1.1802 -0.7141
  144OSM    H3F15775   0.863   2.100   3.437 -0.7443 -1.1504  2.3184
  144OSM    H3G15776   1.020   2.161   3.350  2.3988 -1.1922 -0.3166
  144OSM    C4F15777   1.036   2.007   3.506  0.2214  0.0171 -0.5264
  144OSM    H4F15778   1.139   1.977   3.480 -0.7183 -0.9138 -3.6654
  144OSM    H4G15779   0.988   1.909   3.524  1.4416 -0.4440  0.2826
  144OSM    C5F15780   1.021   2.100   3.633 -0.8599  0.8426 -0.3097
  144OSM    H5F15781   0.913   2.095   3.661 -0.8679 -4.1581 -0.1994
  144OSM    H5G15782   1.071   2.196   3.611  1.5452 -0.4449 -0.8055
  144OSM    C6F15783   1.102   2.034   3.749 -0.2223 -0.0832  0.4637
  144OSM    H6F15784   1.197   2.029   3.693 -0.9893  0.9449 -0.9962
  144OSM    H6G15785   1.062   1.932   3.765 -2.1259  0.5978  0.2640
  144OSM    C7F15786   1.112   2.113   3.879 -0.6954 -0.7674 -0.6480
  144OSM    H7F15787   1.026   2.088   3.945 -2.1187  2.5670 -1.0310
  144OSM    H7G15788   1.108   2.223   3.874 -0.5262 -0.6519  1.2330
  144OSM    C8F15789   1.248   2.087   3.958  0.1650 -0.4851  0.6078
  144OSM    H8F15790   1.280   2.184   4.004  0.4814 -0.9149  1.3185
  144OSM    H8G15791   1.327   2.042   3.895 -0.3431 -1.3886  0.5990
  144OSM    C9F15792   1.221   1.983   4.062  0.3046  0.2904 -0.1205
  144OSM    H9F15793   1.153   1.906   4.023  1.7170 -1.0117 -0.1075
  144OSM   C10F15794   1.252   1.987   4.194  0.5683 -0.1446 -0.6374
  144OSM   H10F15795   1.228   1.900   4.258 -0.3108  2.1942  2.4802
  144OSM   C11F15796   1.331   2.091   4.272  0.1452  0.2216  1.0732
  144OSM   H11F15797   1.254   2.146   4.330  0.4614  1.8211  0.0499
  144OSM   H11G15798   1.387   2.156   4.201 -1.2977 -1.0149 -1.3236
  144OSM   C12F15799   1.431   2.019   4.368  0.2362  0.1456  0.5321
  144OSM   H12F15800   1.505   2.099   4.383 -0.0589  0.3418  0.9535
  144OSM   H12G15801   1.478   1.928   4.324 -0.6810 -1.1262  2.0579
  144OSM   C13F15802   1.369   1.984   4.506 -0.1191 -0.7920 -0.4541
  144OSM   H13F15803   1.448   1.924   4.556  1.7150  0.4684 -1.7588
  144OSM   H13G15804   1.270   1.933   4.497 -0.0573 -0.9591 -0.1821
  144OSM   C14F15805   1.344   2.107   4.604  0.2840 -0.1372 -0.6863
  144OSM   H14F15806   1.272   2.178   4.560 -1.3241 -0.4733  1.2516
  144OSM   H14G15807   1.446   2.152   4.607 -0.3022  1.2164 -0.6310
  144OSM   C15F15808   1.301   2.054   4.747 -0.0256 -0.1144 -0.2666
  144OSM   H15F15809   1.375   1.983   4.790  1.7744  2.3474  0.9011
  144OSM   H15G15810   1.203   2.004   4.730  0.2657 -0.1933 -1.8623
  144OSM   C16F15811   1.263   2.171   4.844  0.0938 -0.1882 -0.7178
  144OSM   H16F15812   1.226   2.130   4.941  2.2288  1.5793  0.9345
  144OSM   H16G15813   1.176   2.229   4.806 -0.7426 -1.6095 -1.0544
  144OSM   C17F15814   1.371   2.268   4.874 -0.2652 -0.6555 -0.0085
  144OSM   H17F15815   1.394   2.335   4.788 -0.0042  0.5072  0.9279
  144OSM   H17G15816   1.459   2.200   4.876 -0.0346 -0.3547  1.0161
  144OSM   C18F15817   1.367   2.350   5.004  0.4834  0.2212 -0.7501
  144OSM   H18F15818   1.469   2.352   5.048  0.0842 -0.0125  0.2032
  144OSM   H18G15819   1.311   2.299   5.086 -0.7452  1.5082 -0.7649
  144OSM   H18H15820   1.331   2.455   5.002  2.9947  1.1577 -0.1549
  145SAPE     N15821   5.687   3.551   6.776 -0.8322 -0.0041 -0.6336
  145SAPE   HN115822   5.619   3.473   6.759 -0.9225  0.2544 -1.5463
  145SAPE   HN215823   5.643   3.645   6.783  1.6111  1.2934 -1.6560
  145SAPE   HN315824   5.748   3.555   6.691  0.5017  1.6140  0.3437
  145SAPE   C1215825   5.777   3.532   6.894 -0.3711  0.0402  0.1222
  145SAPE  H12A15826   5.844   3.446   6.876 -1.0332 -0.6278  0.7905
  145SAPE  H12B15827   5.707   3.493   6.971 -1.0742  0.7970 -0.1181
  145SAPE   C1115828   5.849   3.658   6.941  0.3555 -0.5117  0.4641
  145SAPE  H11A15829   5.934   3.643   7.011  1.9861  1.9393 -0.8036
  145SAPE  H11B15830   5.773   3.727   6.984 -2.8877 -1.8517 -2.5887
  145SAPE     P15831   6.020   3.814   6.826  0.3666  0.2003 -0.6123
  145SAPE   O1315832   5.976   3.923   6.915 -0.5294  0.4021  0.3464
  145SAPE   O1415833   6.132   3.732   6.883  0.4759  0.1639 -0.3889
  145SAPE   O1215834   5.894   3.717   6.819  0.2984  0.5887  0.0661
  145SAPE   O1115835   6.039   3.867   6.679  0.4043  0.1370  0.7311
  145SAPE    C115836   6.001   3.773   6.572 -0.7519 -0.0815 -0.0685
  145SAPE    HA15837   6.077   3.693   6.585 -0.1381  0.3253 -0.9956
  145SAPE    HB15838   5.894   3.748   6.584 -0.7994  0.3550  0.4547
  145SAPE    C215839   6.013   3.831   6.428 -0.2936 -0.4482  0.0456
  145SAPE    HS15840   5.907   3.832   6.397 -0.2045 -0.5481 -0.2725
  145SAPE   O2115841   6.099   3.754   6.340  0.5093 -0.7532  0.3403
  145SAPE   C2115842   6.048   3.635   6.306 -0.4437  0.7036 -0.3116
  145SAPE   O2215843   5.943   3.594   6.345  0.0538  0.1307  0.6088
  145SAPE   C2215844   6.147   3.556   6.220 -0.2124 -0.1012  0.4806
  145SAPE   H2R15845   6.190   3.628   6.148  1.0500  0.2592  1.5614
  145SAPE   H2S15846   6.225   3.513   6.286 -1.6035  0.4143  2.5563
  145SAPE    C315847   6.063   3.976   6.435  0.7395  0.1379 -0.2581
  145SAPE    HX15848   6.171   3.968   6.462  0.5642 -0.6759  0.2469
  145SAPE    HY15849   6.003   4.033   6.509 -2.9584  0.2314 -3.0564
  145SAPE   O3115850   6.042   4.044   6.313 -0.2074 -0.4597 -0.4928
  145SAPE   C3115851   6.134   4.111   6.245 -0.2962  0.2998 -0.6002
  145SAPE   O3215852   6.251   4.132   6.277  0.6521 -0.3706  0.2996
  145SAPE   C3215853   6.060   4.154   6.112  0.4106 -0.1009 -0.5746
  145SAPE   H2X15854   6.054   4.265   6.121 -2.1463 -0.3113  1.9149
  145SAPE   H2Y15855   5.954   4.121   6.119  0.5683 -0.4696  0.3212
  145SAPE   C2315856   6.071   3.444   6.155  0.4934 -0.2978  0.4152
  145SAPE   H3R15857   5.973   3.470   6.110  0.7815  0.4712  0.2054
  145SAPE   H3S15858   6.040   3.372   6.234 -2.7839  2.1803  1.6328
  145SAPE   C2415859   6.169   3.382   6.059 -0.0574 -0.0730  0.6712
  145SAPE   H4R15860   6.141   3.278   6.033  0.7992  0.6433 -3.9308
  145SAPE   H4S15861   6.272   3.372   6.099  0.8807 -0.7300 -1.7197
  145SAPE   C2515862   6.177   3.449   5.926  0.3450  0.1554 -0.2616
  145SAPE   H5R15863   6.248   3.533   5.924  0.3806  0.1233 -0.3769
  145SAPE   C2615864   6.113   3.406   5.811 -0.4200 -0.2682  0.2646
  145SAPE   H6R15865   6.109   3.461   5.716  0.5137 -1.3224 -0.4106
  145SAPE   C2715866   6.022   3.288   5.805  0.3518  0.3225 -0.7884
  145SAPE   H7R15867   6.061   3.209   5.872  1.6659 -0.0855 -1.9818
  145SAPE   H7S15868   6.048   3.241   5.707  1.3972  1.6509 -1.1777
  145SAPE   C2815869   5.875   3.321   5.826 -0.0320 -0.1088  0.0524
  145SAPE   H8R15870   5.831   3.303   5.925 -1.7437  2.0160 -0.2458
  145SAPE   C2915871   5.793   3.374   5.732 -0.2055  0.0110 -0.2943
  145SAPE   H9R15872   5.689   3.401   5.753  0.2449  4.4400 -2.4772
  145SAPE  C21015873   5.834   3.384   5.586 -0.1154  0.8203 -0.2203
  145SAPE  H10R15874   5.930   3.331   5.575 -0.3876  0.4020 -0.5965
  145SAPE  H10S15875   5.853   3.493   5.577 -3.2316  1.7380  2.3288
  145SAPE  C21115876   5.748   3.334   5.469 -0.0151 -0.1294 -0.8205
  145SAPE  H11R15877   5.741   3.225   5.461 -1.5830 -0.0115 -1.5294
  145SAPE  C21215878   5.669   3.413   5.396 -0.2147 -0.1698  0.5443
  145SAPE  H12R15879   5.595   3.366   5.330  0.7851 -1.7630  0.5074
  145SAPE  C21315880   5.665   3.559   5.423  1.1892 -0.0045  0.9040
  145SAPE  H13R15881   5.656   3.582   5.531 -1.9660 -2.1541  1.2590
  145SAPE  H13S15882   5.568   3.599   5.386  1.4840  0.1365  0.2700
  145SAPE  C21415883   5.774   3.642   5.364 -0.1266  0.3857  0.2239
  145SAPE  H14R15884   5.834   3.699   5.437  1.0726  1.2908 -1.4123
  145SAPE  C21515885   5.819   3.640   5.235 -0.2040 -0.6507 -0.6793
  145SAPE  H15R15886   5.880   3.727   5.206 -1.9793  0.5547 -0.9669
  145SAPE  C21615887   5.762   3.564   5.122  0.5292 -0.4319  0.0125
  145SAPE  H16R15888   5.665   3.521   5.154  0.0252  0.8480  0.2920
  145SAPE  H16S15889   5.827   3.475   5.105  0.7686 -0.1644 -0.4956
  145SAPE  C21715890   5.739   3.657   4.998 -0.8218  0.4843  0.4057
  145SAPE  H17R15891   5.722   3.585   4.915  0.8495  0.2330  0.2515
  145SAPE  H17S15892   5.831   3.713   4.972 -0.9269  0.2767 -0.4312
  145SAPE  C21815893   5.629   3.757   5.003 -0.3711 -0.6642 -0.4570
  145SAPE  H18R15894   5.630   3.823   4.914  0.3371 -1.7535 -1.2938
  145SAPE  H18S15895   5.649   3.824   5.089  3.1769 -0.6706 -1.1509
  145SAPE  C21915896   5.490   3.700   5.014  0.3458  0.8987  0.2314
  145SAPE  H19R15897   5.483   3.649   5.113 -0.6131 -0.6929 -0.6078
  145SAPE  H19S15898   5.476   3.623   4.935  0.6590 -0.6086  1.5956
  145SAPE  C22015899   5.379   3.803   4.990  0.1817  0.1301  0.7233
  145SAPE  H20R15900   5.376   3.851   4.890 -0.7979  0.7066  1.0161
  145SAPE  H20S15901   5.387   3.890   5.059 -0.3075  0.9882 -0.2787
  145SAPE  H20T15902   5.283   3.752   5.014 -1.7399  2.1576 -1.9958
  145SAPE   C3315903   6.127   4.106   5.976  0.4103  0.1107  0.1413
  145SAPE   H3X15904   6.236   4.129   5.977  0.5768 -0.4848 -1.5337
  145SAPE   H3Y15905   6.083   4.171   5.897 -0.8380 -0.6263  0.2028
  145SAPE   C3415906   6.102   3.959   5.942 -0.3129  0.0713  0.6128
  145SAPE   H4X15907   5.995   3.932   5.933 -0.9402  2.6937 -0.8122
  145SAPE   H4Y15908   6.146   3.893   6.020 -0.3363  1.1386  1.5421
  145SAPE   C3515909   6.171   3.924   5.810  0.0631 -0.2266 -0.2993
  145SAPE   H5X15910   6.275   3.888   5.824 -0.3251 -1.6890 -0.9715
  145SAPE   H5Y15911   6.148   4.010   5.744 -1.4571  0.7136  1.3378
  145SAPE   C3615912   6.098   3.804   5.755 -0.9941 -0.5766  0.2594
  145SAPE   H6X15913   6.011   3.837   5.695 -1.4871  0.4951  1.5256
  145SAPE   H6Y15914   6.065   3.721   5.821  0.6069 -2.8617 -1.6274
  145SAPE   C3715915   6.193   3.731   5.658  0.1759 -0.2155 -0.5357
  145SAPE   H7X15916   6.262   3.670   5.720 -1.4147 -1.0086  0.5249
  145SAPE   H7Y15917   6.259   3.807   5.611  2.8552 -1.8703  0.3619
  145SAPE   C3815918   6.119   3.649   5.559 -0.1183  0.1851  0.5578
  145SAPE   H8X15919   6.063   3.720   5.494  2.2010  0.8729 -0.7919
  145SAPE   H8Y15920   6.038   3.592   5.609  0.2527  0.5443  1.5852
  145SAPE   C3915921   6.214   3.562   5.477  0.3128 -0.4001  0.3274
  145SAPE   H9X15922   6.261   3.483   5.538  0.5815 -0.5482 -0.0650
  145SAPE   H9Y15923   6.302   3.622   5.444 -0.0563  0.8651  1.5663
  145SAPE  C31015924   6.136   3.491   5.358 -0.0045 -0.8242 -0.5382
  145SAPE  H10X15925   6.126   3.555   5.268 -1.0716 -0.6287 -0.2928
  145SAPE  H10Y15926   6.038   3.460   5.401  0.4108 -0.3212  0.8114
  145SAPE  C31115927   6.201   3.362   5.328 -0.0568 -0.0657  0.7453
  145SAPE  H11X15928   6.132   3.301   5.266 -1.9056  1.9648  0.6896
  145SAPE  H11Y15929   6.213   3.298   5.418 -1.3012 -2.9325 -0.9934
  145SAPE  C31215930   6.329   3.374   5.245 -0.3380 -0.2105  0.8393
  145SAPE  H12X15931   6.369   3.277   5.211  1.7104 -0.1850  2.8841
  145SAPE  H12Y15932   6.414   3.408   5.308  0.7110  1.0637 -1.1672
  145SAPE  C31315933   6.315   3.477   5.130  0.0876 -0.8549 -0.5805
  145SAPE  H13X15934   6.326   3.575   5.180  0.4166 -1.0726 -0.2208
  145SAPE  H13Y15935   6.220   3.484   5.072  0.0425 -1.2104 -0.5537
  145SAPE  C31415936   6.427   3.474   5.023 -0.1461  0.1279  1.0769
  145SAPE  H14X15937   6.419   3.389   4.951  1.5354  1.3563 -0.6633
  145SAPE  H14Y15938   6.528   3.476   5.070  1.3280  1.6934 -1.8352
  145SAPE  C31515939   6.425   3.599   4.927  0.3270 -0.7201  0.1130
  145SAPE  H15X15940   6.531   3.609   4.893  0.0635 -3.4787 -1.8331
  145SAPE  H15Y15941   6.387   3.684   4.988 -0.4765 -3.2748  3.5304
  145SAPE  C31615942   6.342   3.596   4.801  0.0074 -0.4289 -0.4792
  145SAPE  H16X15943   6.235   3.602   4.831  0.3093  2.4093  0.3483
  145SAPE  H16Y15944   6.354   3.492   4.765 -0.1901 -0.8524  0.6504
  145SAPE  C31715945   6.386   3.682   4.686  0.1843  0.0708 -0.5539
  145SAPE  H17X15946   6.491   3.664   4.655  0.2804  0.6297 -0.5590
  145SAPE  H17Y15947   6.379   3.791   4.709  1.4131  0.3523 -1.4403
  145SAPE  C31815948   6.302   3.659   4.560  0.7169  0.3683 -0.3595
  145SAPE  H18X15949   6.195   3.680   4.576  0.4745 -1.6547  1.0945
  145SAPE  H18Y15950   6.313   3.556   4.520  2.6234 -1.0294  3.2602
  145SAPE  H18Z15951   6.334   3.733   4.483 -0.4990 -0.1059 -1.3489
  146SAPE     N15952   2.061   2.232   7.460  0.1468 -0.6954  0.2348
  146SAPE   HN115953   2.114   2.321   7.461 -0.6984 -0.1244 -1.2021
  146SAPE   HN215954   2.077   2.183   7.550 -0.9042 -0.1861  0.7102
  146SAPE   HN315955   2.100   2.181   7.378 -0.1241  0.2014 -0.4756
  146SAPE   C1215956   1.915   2.262   7.437 -0.0819 -0.0001 -0.6068
  146SAPE  H12A15957   1.874   2.328   7.516  0.7739 -0.6608  0.4276
  146SAPE  H12B15958   1.860   2.167   7.455  1.5219 -0.6320  1.4565
  146SAPE   C1115959   1.890   2.318   7.294  0.1269  0.1981  0.1600
  146SAPE  H11A15960   1.784   2.335   7.268  0.4290 -0.6956 -1.8218
  146SAPE  H11B15961   1.915   2.242   7.218 -0.8608  1.2357 -1.2474
  146SAPE     P15962   1.899   2.581   7.293  0.5868 -0.2108  0.3651
  146SAPE   O1315963   1.846   2.602   7.430  0.1212 -0.3733  0.0104
  146SAPE   O1415964   1.997   2.678   7.237  0.0295  0.6749  0.1130
  146SAPE   O1215965   1.962   2.440   7.285 -0.4290  0.1046  0.4307
  146SAPE   O1115966   1.778   2.571   7.184  0.2139 -0.7638  0.8606
  146SAPE    C115967   1.695   2.684   7.142  0.1955 -0.2531 -0.2490
  146SAPE    HA15968   1.610   2.693   7.213  0.0740  0.0068 -0.4242
  146SAPE    HB15969   1.758   2.774   7.158 -1.5444  0.7540  1.3363
  146SAPE    C215970   1.663   2.673   6.984  1.2514  0.7288  0.1582
  146SAPE    HS15971   1.596   2.756   6.952 -0.1454 -1.0074 -1.6853
  146SAPE   O2115972   1.596   2.544   6.948 -0.5046 -0.2342 -0.4382
  146SAPE   C2115973   1.463   2.543   6.973 -0.4710  0.2327 -0.1188
  146SAPE   O2215974   1.403   2.625   7.033  0.4075 -0.1430 -0.5446
  146SAPE   C2215975   1.407   2.411   6.921  0.0579 -0.0971  0.3541
  146SAPE   H2R15976   1.490   2.346   6.884 -0.5387 -0.1501 -0.9456
  146SAPE   H2S15977   1.362   2.360   7.009 -0.5568 -0.8425 -0.3730
  146SAPE    C315978   1.795   2.673   6.896 -0.1240  0.3224 -0.4300
  146SAPE    HX15979   1.859   2.605   6.956  1.5495  0.3337 -2.1122
  146SAPE    HY15980   1.846   2.771   6.894  1.7390 -0.6062 -1.0512
  146SAPE   O3115981   1.780   2.625   6.764  0.0387  0.1161  0.1521
  146SAPE   C3115982   1.752   2.714   6.665  0.9270  0.2100 -0.0864
  146SAPE   O3215983   1.738   2.832   6.681  0.1657  0.2583 -0.5191
  146SAPE   C3215984   1.740   2.629   6.527 -0.1782 -0.2869 -0.4525
  146SAPE   H2X15985   1.663   2.552   6.549  1.1454 -1.3904  0.5346
  146SAPE   H2Y15986   1.837   2.574   6.518 -0.2443 -0.5520  0.3720
  146SAPE   C2315987   1.287   2.421   6.825 -0.0261 -0.1252  0.4479
  146SAPE   H3R15988   1.217   2.501   6.860  1.4235  1.4628 -0.1217
  146SAPE   H3S15989   1.249   2.318   6.836  1.4141 -0.8835 -1.2279
  146SAPE   C2415990   1.328   2.441   6.674 -0.3642  0.9465 -0.2191
  146SAPE   H4R15991   1.246   2.396   6.614  0.2663 -0.2727 -0.1856
  146SAPE   H4S15992   1.417   2.378   6.656  0.0995  2.1934 -2.7092
  146SAPE   C2515993   1.346   2.586   6.634  0.5841 -0.4060 -0.2915
  146SAPE   H5R15994   1.325   2.655   6.717  1.7218 -0.7843  0.3415
  146SAPE   C2615995   1.373   2.630   6.505  0.3381  0.2335 -0.2835
  146SAPE   H6R15996   1.376   2.738   6.484 -2.4211  0.4795  0.0901
  146SAPE   C2715997   1.380   2.536   6.383 -0.3046  0.2680  0.5552
  146SAPE   H7R15998   1.374   2.432   6.421  1.1011 -0.2695 -0.6022
  146SAPE   H7S15999   1.473   2.558   6.326 -0.4640  2.9331  1.1562
  146SAPE   C2816000   1.271   2.566   6.278 -0.2147  0.7346 -0.8885
  146SAPE   H8R16001   1.236   2.669   6.264 -0.3295  0.8436  0.1416
  146SAPE   C2916002   1.193   2.481   6.206 -0.1685 -0.1707 -0.1933
  146SAPE   H9R16003   1.111   2.518   6.142  0.7122  0.7605 -0.8003
  146SAPE  C21016004   1.212   2.330   6.210 -0.0873 -0.3753 -0.7159
  146SAPE  H10R16005   1.315   2.310   6.245 -0.0645 -1.6269 -1.4541
  146SAPE  H10S16006   1.213   2.291   6.106  1.5813  2.8280 -2.0413
  146SAPE  C21116007   1.116   2.262   6.303  0.2019  0.0023  1.1403
  146SAPE  H11R16008   1.013   2.298   6.291 -0.3691 -1.4938  1.3656
  146SAPE  C21216009   1.133   2.153   6.383 -0.4887  0.6266  0.3972
  146SAPE  H12R16010   1.049   2.127   6.450 -0.7738 -1.8607 -0.8110
  146SAPE  C21316011   1.260   2.081   6.390 -0.0275 -0.0033 -0.0236
  146SAPE  H13R16012   1.345   2.151   6.375 -1.1635  1.1551 -1.2538
  146SAPE  H13S16013   1.257   2.011   6.304  0.7259 -1.4551  1.0761
  146SAPE  C21416014   1.288   2.005   6.519  0.2657 -0.2879  0.5902
  146SAPE  H14R16015   1.289   2.072   6.606 -0.5195  1.8379 -0.9489
  146SAPE  C21516016   1.333   1.880   6.530  0.2070 -0.0646 -0.0031
  146SAPE  H15R16017   1.356   1.834   6.628  2.1770  0.3254 -0.2381
  146SAPE  C21616018   1.357   1.785   6.410 -0.0777  0.9739 -0.3740
  146SAPE  H16R16019   1.280   1.799   6.331 -1.1761  1.9370  0.8177
  146SAPE  H16S16020   1.348   1.678   6.438 -0.1804  0.9863 -0.3595
  146SAPE  C21716021   1.500   1.801   6.365  0.2623  0.2305  0.7079
  146SAPE  H17R16022   1.575   1.781   6.445  2.2249  3.7814 -0.0267
  146SAPE  H17S16023   1.513   1.909   6.339 -0.4413  0.3611  0.8838
  146SAPE  C21816024   1.535   1.706   6.247 -0.2417  0.2922  0.1887
  146SAPE  H18R16025   1.460   1.731   6.169 -1.0952 -3.8119 -0.5236
  146SAPE  H18S16026   1.530   1.597   6.267  3.3275 -0.1342 -0.5738
  146SAPE  C21916027   1.666   1.746   6.186  0.2232  0.2565 -0.1344
  146SAPE  H19R16028   1.677   1.855   6.168  1.3498  0.0958 -0.4894
  146SAPE  H19S16029   1.671   1.691   6.090 -0.4942 -0.6932  0.3502
  146SAPE  C22016030   1.779   1.692   6.276  0.3701  0.4689 -0.0667
  146SAPE  H20R16031   1.767   1.584   6.298 -1.5876  0.4607 -0.9493
  146SAPE  H20S16032   1.776   1.741   6.376  0.3677 -0.1264  0.2244
  146SAPE  H20T16033   1.876   1.702   6.222 -0.3292 -0.0292 -1.4717
  146SAPE   C3316034   1.721   2.715   6.398  0.1981  0.0611  0.1784
  146SAPE   H3X16035   1.630   2.778   6.408  0.7349  0.6266  1.9115
  146SAPE   H3Y16036   1.693   2.646   6.316  4.0416 -2.2394  0.5773
  146SAPE   C3416037   1.840   2.804   6.359 -0.5288 -0.0545 -0.0101
  146SAPE   H4X16038   1.926   2.739   6.332 -0.9342 -0.2753 -0.7967
  146SAPE   H4Y16039   1.880   2.876   6.433 -2.6722 -0.8178  2.0318
  146SAPE   C3516040   1.825   2.893   6.238  0.0340  0.4321 -0.0066
  146SAPE   H5X16041   1.907   2.964   6.213 -1.1348  2.0237  0.5334
  146SAPE   H5Y16042   1.736   2.955   6.263  0.3266  1.4644 -1.3843
  146SAPE   C3616043   1.804   2.814   6.106  1.0672 -0.0408  0.2655
  146SAPE   H6X16044   1.708   2.758   6.111  0.2073  1.4611  1.5152
  146SAPE   H6Y16045   1.881   2.735   6.089 -1.5939 -2.3096 -2.4826
  146SAPE   C3716046   1.800   2.903   5.979  0.0318 -0.4220  0.2902
  146SAPE   H7X16047   1.892   2.962   5.957 -1.5560  2.9654  2.0456
  146SAPE   H7Y16048   1.720   2.976   6.000  0.4794  0.2964 -0.4475
  146SAPE   C3816049   1.790   2.827   5.848 -0.8035 -0.2251  0.1275
  146SAPE   H8X16050   1.759   2.725   5.876 -0.8670 -0.2942 -0.1917
  146SAPE   H8Y16051   1.888   2.824   5.796 -0.0909 -1.1589  1.4680
  146SAPE   C3916052   1.691   2.881   5.740  0.0972 -0.6950 -0.0478
  146SAPE   H9X16053   1.714   2.990   5.733 -0.1766 -0.6173  0.2172
  146SAPE   H9Y16054   1.592   2.865   5.787  0.7085 -2.3458  0.7272
  146SAPE  C31016055   1.687   2.810   5.603  0.2717  0.1990  0.7803
  146SAPE  H10X16056   1.773   2.840   5.539 -0.4019  0.9015  0.1882
  146SAPE  H10Y16057   1.589   2.819   5.552  0.1425  0.4740  1.0702
  146SAPE  C31116058   1.696   2.661   5.617  0.1584  0.8817  0.3636
  146SAPE  H11X16059   1.611   2.640   5.685 -0.6800  1.0383 -0.6185
  146SAPE  H11Y16060   1.787   2.614   5.660 -0.4421 -2.1566 -1.3879
  146SAPE  C31216061   1.668   2.583   5.493  0.0374 -0.2354 -1.0615
  146SAPE  H12X16062   1.739   2.614   5.413  1.0979  0.4453  0.1253
  146SAPE  H12Y16063   1.571   2.613   5.447 -1.0787  1.3326  2.0404
  146SAPE  C31316064   1.665   2.438   5.517  0.0087 -0.0445  0.2997
  146SAPE  H13X16065   1.592   2.403   5.593  0.0801 -0.4374  0.1919
  146SAPE  H13Y16066   1.766   2.409   5.552 -0.7660 -2.5738  0.6473
  146SAPE  C31416067   1.639   2.368   5.384 -0.5653  0.3755 -0.6012
  146SAPE  H14X16068   1.710   2.416   5.313  1.5003  0.8496  1.6654
  146SAPE  H14Y16069   1.536   2.388   5.348 -0.0874  1.5829 -1.3922
  146SAPE  C31516070   1.666   2.215   5.386 -0.3987 -0.4511 -0.1262
  146SAPE  H15X16071   1.604   2.181   5.472  1.1123  1.7414  1.9618
  146SAPE  H15Y16072   1.773   2.197   5.409  0.5105  2.5634 -1.4459
  146SAPE  C31616073   1.627   2.152   5.260  0.6122 -0.0871  0.4873
  146SAPE  H16X16074   1.679   2.188   5.169 -0.9795 -0.9977 -0.8329
  146SAPE  H16Y16075   1.522   2.180   5.238  0.9195 -0.2826 -1.4238
  146SAPE  C31716076   1.635   1.996   5.267  0.1432 -0.3089  0.0132
  146SAPE  H17X16077   1.609   1.974   5.373  1.8722 -1.3925  0.2529
  146SAPE  H17Y16078   1.743   1.976   5.254  0.1945  0.6120 -1.1319
  146SAPE  C31816079   1.544   1.909   5.180  0.2531 -0.7309 -0.1765
  146SAPE  H18X16080   1.439   1.941   5.167  0.0461 -0.9799  0.8027
  146SAPE  H18Y16081   1.541   1.813   5.236  3.0527  0.1199  1.6655
  146SAPE  H18Z16082   1.594   1.885   5.084  0.7701  1.6960 -0.5923
  147SAPE     N16083   4.293   1.310   7.105 -0.2839  0.5767 -0.5394
  147SAPE   HN116084   4.206   1.341   7.058 -1.8362 -0.1619  1.6615
  147SAPE   HN216085   4.379   1.366   7.086 -0.1903 -0.4360 -3.5487
  147SAPE   HN316086   4.314   1.214   7.071  1.2455 -0.1863  2.2158
  147SAPE   C1216087   4.270   1.307   7.258  0.0795 -0.5530  0.3362
  147SAPE  H12A16088   4.358   1.256   7.302  0.9334  0.4505 -0.1811
  147SAPE  H12B16089   4.179   1.245   7.276  1.7325 -2.7656  1.4954
  147SAPE   C1116090   4.264   1.452   7.311 -0.7217  0.2669 -0.5469
  147SAPE  H11A16091   4.362   1.494   7.278 -1.0707  0.1960 -1.7442
  147SAPE  H11B16092   4.244   1.447   7.420  0.2396  2.6882 -0.1870
  147SAPE     P16093   4.061   1.627   7.298 -0.3418 -0.1807  0.2686
  147SAPE   O1316094   3.944   1.621   7.205  0.3963 -0.1133  0.0176
  147SAPE   O1416095   4.036   1.600   7.438  0.3863  0.7402 -0.3896
  147SAPE   O1216096   4.166   1.522   7.247  0.6019 -0.4019  0.1104
  147SAPE   O1116097   4.142   1.764   7.268  0.0504 -0.7025  0.3366
  147SAPE    C116098   4.254   1.768   7.173 -0.0746  0.7120  0.1853
  147SAPE    HA16099   4.343   1.719   7.220 -0.2021  1.6477  1.4586
  147SAPE    HB16100   4.228   1.713   7.080  1.9239 -0.7833  0.4386
  147SAPE    C216101   4.294   1.911   7.150 -0.6019  0.1771 -0.3027
  147SAPE    HS16102   4.320   1.967   7.243  0.8936  2.7497 -2.1478
  147SAPE   O2116103   4.186   1.983   7.090 -0.0436 -0.3901 -0.4142
  147SAPE   C2116104   4.095   2.022   7.177  0.5691  0.7189  0.4511
  147SAPE   O2216105   4.099   2.013   7.296 -0.1351 -0.5987 -0.0581
  147SAPE   C2216106   3.990   2.103   7.104 -0.7182 -0.6862 -0.2112
  147SAPE   H2R16107   3.921   2.136   7.185 -4.2172 -0.6337 -2.9548
  147SAPE   H2S16108   4.024   2.193   7.049 -0.0167 -0.0572  1.2031
  147SAPE    C316109   4.410   1.918   7.056 -0.4186  0.3432 -0.5031
  147SAPE    HX16110   4.491   1.870   7.116 -0.1949  0.7826 -0.4466
  147SAPE    HY16111   4.447   2.020   7.035  1.1528 -0.3577 -1.3099
  147SAPE   O3116112   4.392   1.831   6.938  0.0941 -0.2379  0.1827
  147SAPE   C3116113   4.395   1.902   6.821  0.2894  0.9646 -0.7022
  147SAPE   O3216114   4.410   2.023   6.810  0.3789 -0.1400  0.5116
  147SAPE   C3216115   4.349   1.804   6.710 -0.6206 -0.8331  0.4220
  147SAPE   H2X16116   4.263   1.752   6.758 -1.1378  0.0105  0.4326
  147SAPE   H2Y16117   4.431   1.733   6.685 -0.4828 -0.9332  1.1281
  147SAPE   C2316118   3.892   2.020   7.015 -0.4877  0.5752 -0.0110
  147SAPE   H3R16119   3.831   2.095   6.959 -2.1158  1.0237  2.2072
  147SAPE   H3S16120   3.816   1.966   7.076 -1.1232 -1.5322 -2.5116
  147SAPE   C2416121   3.957   1.921   6.919  0.1970 -0.4319  0.2150
  147SAPE   H4R16122   4.007   1.848   6.986  0.1191  0.1841  0.9546
  147SAPE   H4S16123   4.031   1.976   6.857 -1.1810  1.6617  0.3384
  147SAPE   C2516124   3.860   1.837   6.843 -0.3398 -0.0602 -0.0395
  147SAPE   H5R16125   3.824   1.755   6.907  0.3803  0.8494  1.5951
  147SAPE   C2616126   3.818   1.847   6.714 -0.1611  0.1204 -0.1330
  147SAPE   H6R16127   3.743   1.775   6.678 -0.7206  0.5605  0.1236
  147SAPE   C2716128   3.851   1.952   6.616  0.0003  0.3364  0.3702
  147SAPE   H7R16129   3.931   2.019   6.655  0.5214  0.0646 -0.2129
  147SAPE   H7S16130   3.762   2.018   6.605  0.0957  0.3513 -0.4151
  147SAPE   C2816131   3.885   1.883   6.484 -0.0134 -0.2519  0.3167
  147SAPE   H8R16132   3.963   1.806   6.486  0.5644  0.1276 -2.5554
  147SAPE   C2916133   3.855   1.913   6.357 -0.5257 -0.7813  0.1841
  147SAPE   H9R16134   3.881   1.843   6.276  2.6950  0.3981  0.0436
  147SAPE  C21016135   3.765   2.028   6.310 -0.2842  0.6453  0.3092
  147SAPE  H10R16136   3.833   2.097   6.254  0.2869  1.6184  2.1158
  147SAPE  H10S16137   3.723   2.085   6.395 -0.1179 -1.1054  1.5942
  147SAPE  C21116138   3.646   1.984   6.231  0.6230  0.3830 -0.3744
  147SAPE  H11R16139   3.556   1.962   6.290  1.5364 -2.2852  0.1626
  147SAPE  C21216140   3.637   1.991   6.100  0.5257  0.0901  0.5051
  147SAPE  H12R16141   3.548   1.950   6.051  1.5259 -1.4447 -0.1084
  147SAPE  C21316142   3.749   2.013   6.013  0.2192 -1.1174  0.4151
  147SAPE  H13R16143   3.774   1.923   5.951  1.6370 -1.0194  0.8003
  147SAPE  H13S16144   3.843   2.039   6.066  1.0366  1.2401 -1.9519
  147SAPE  C21416145   3.718   2.124   5.913 -0.1974  0.2941 -0.5392
  147SAPE  H14R16146   3.722   2.225   5.958 -0.2107 -0.3614  0.9825
  147SAPE  C21516147   3.702   2.111   5.783  0.6139  0.2054 -0.6818
  147SAPE  H15R16148   3.666   2.191   5.717 -3.1424 -0.2350  0.5814
  147SAPE  C21616149   3.702   1.982   5.704 -0.1204 -0.3920  0.1700
  147SAPE  H16R16150   3.602   1.952   5.666 -0.6788 -0.4127  1.5828
  147SAPE  H16S16151   3.709   1.890   5.766  2.0557 -0.0233  0.5599
  147SAPE  C21716152   3.815   1.966   5.598  0.3902  0.6448 -0.6531
  147SAPE  H17R16153   3.841   1.859   5.592 -0.9244  0.2798 -0.0820
  147SAPE  H17S16154   3.908   2.000   5.648 -0.8359  1.6885  1.0313
  147SAPE  C21816155   3.787   2.031   5.461  0.1177 -0.2898  0.4215
  147SAPE  H18R16156   3.888   2.057   5.422 -0.5000 -0.2624 -1.2418
  147SAPE  H18S16157   3.733   2.127   5.476 -2.2085 -1.2441 -1.2788
  147SAPE  C21916158   3.723   1.960   5.350 -0.4981  0.1898 -0.6835
  147SAPE  H19R16159   3.619   1.939   5.382 -0.7035 -1.0121 -2.0115
  147SAPE  H19S16160   3.766   1.857   5.345 -1.7013 -0.3745  0.1251
  147SAPE  C22016161   3.718   2.021   5.215 -0.2876  0.3204 -0.8451
  147SAPE  H20R16162   3.673   2.121   5.231  0.1947  0.2963  0.8658
  147SAPE  H20S16163   3.659   1.957   5.146  0.7333 -0.8495 -0.6743
  147SAPE  H20T16164   3.817   2.034   5.167  0.8703  0.2315  1.3740
  147SAPE   C3316165   4.301   1.862   6.572  0.2257 -0.1963 -0.3969
  147SAPE   H3X16166   4.389   1.915   6.531 -0.4780  2.0659  0.8370
  147SAPE   H3Y16167   4.214   1.927   6.597  0.8845  0.2628  0.7707
  147SAPE   C3416168   4.258   1.743   6.479 -0.3648 -0.0259 -0.1326
  147SAPE   H4X16169   4.172   1.692   6.528 -1.4011  0.0171 -1.8368
  147SAPE   H4Y16170   4.340   1.670   6.460  1.4442  2.2070 -1.5563
  147SAPE   C3516171   4.205   1.785   6.346  0.0390 -0.1946 -0.6423
  147SAPE   H5X16172   4.274   1.855   6.293  1.5836  1.5278  3.1962
  147SAPE   H5Y16173   4.117   1.850   6.366 -0.9686 -1.6443 -0.2048
  147SAPE   C3616174   4.169   1.668   6.262  0.5498  0.0018  0.3201
  147SAPE   H6X16175   4.101   1.599   6.317  0.6385  0.0181  0.4491
  147SAPE   H6Y16176   4.256   1.603   6.238  0.5551 -0.3710  1.2933
  147SAPE   C3716177   4.104   1.701   6.127 -1.0427  0.4138 -0.5534
  147SAPE   H7X16178   4.175   1.747   6.056  0.1377 -0.2579  0.1470
  147SAPE   H7Y16179   4.022   1.773   6.150  0.0458  1.6684 -0.4921
  147SAPE   C3816180   4.034   1.581   6.068 -0.6917  0.3042  0.0607
  147SAPE   H8X16181   3.941   1.551   6.120 -0.8985  3.1066  1.4702
  147SAPE   H8Y16182   4.096   1.489   6.075  0.4810  1.1796  1.7859
  147SAPE   C3916183   4.004   1.590   5.922 -0.5437  0.6454 -0.3870
  147SAPE   H9X16184   3.960   1.691   5.911  0.8462  1.3840  0.4767
  147SAPE   H9Y16185   3.926   1.513   5.902 -1.0008  0.8941  0.4057
  147SAPE  C31016186   4.120   1.577   5.820  0.3565  0.5981 -0.3925
  147SAPE  H10X16187   4.166   1.477   5.838 -2.2745 -0.4360  1.0749
  147SAPE  H10Y16188   4.190   1.661   5.841 -0.3571  1.1355 -0.1326
  147SAPE  C31116189   4.075   1.599   5.671 -0.0830 -0.1683 -0.4609
  147SAPE  H11X16190   4.012   1.691   5.672 -0.7497 -0.6045 -1.1742
  147SAPE  H11Y16191   4.007   1.514   5.647  0.4039 -0.4311 -0.9460
  147SAPE  C31216192   4.191   1.618   5.584  0.6385  0.5147  0.4538
  147SAPE  H12X16193   4.270   1.543   5.606 -0.2563 -0.4009  0.6230
  147SAPE  H12Y16194   4.233   1.716   5.616 -0.0423  1.1811 -0.6196
  147SAPE  C31316195   4.165   1.612   5.434  0.3708  0.0967 -0.2966
  147SAPE  H13X16196   4.251   1.653   5.377  0.7423 -0.4710 -0.1484
  147SAPE  H13Y16197   4.070   1.667   5.416 -0.7354 -0.1687  3.7072
  147SAPE  C31416198   4.140   1.469   5.391  1.2897  0.1906  0.6972
  147SAPE  H14X16199   4.048   1.422   5.434  0.6008 -2.2567 -3.0108
  147SAPE  H14Y16200   4.226   1.415   5.436  0.2795 -1.3233  0.9118
  147SAPE  C31516201   4.145   1.446   5.234 -0.4893  0.5091 -0.5738
  147SAPE  H15X16202   4.241   1.486   5.197 -0.0038  1.7585  1.8329
  147SAPE  H15Y16203   4.061   1.497   5.183 -1.0065  1.9476  1.5801
  147SAPE  C31616204   4.132   1.292   5.209  0.1592  0.7689 -0.4475
  147SAPE  H16X16205   4.039   1.266   5.263  0.5936 -1.3447 -0.5957
  147SAPE  H16Y16206   4.221   1.240   5.252 -0.1776 -0.0422 -0.7114
  147SAPE  C31716207   4.109   1.254   5.061  0.4231 -0.3868 -0.3778
  147SAPE  H17X16208   4.026   1.310   5.012 -0.4228 -0.3960  0.9815
  147SAPE  H17Y16209   4.072   1.149   5.062  1.8258 -0.9023  0.9426
  147SAPE  C31816210   4.237   1.255   4.979  0.2498  0.7803  0.7496
  147SAPE  H18X16211   4.234   1.338   4.904 -1.2144  0.4638  0.4376
  147SAPE  H18Y16212   4.251   1.152   4.939  0.1431  0.6903  0.9436
  147SAPE  H18Z16213   4.327   1.256   5.045 -0.0131 -3.0509  1.3657
  148SAPE     N16214   0.864   1.499   7.225  0.5427 -0.0620  0.3502
  148SAPE   HN116215   0.789   1.475   7.291  1.8023 -0.6039  1.6347
  148SAPE   HN216216   0.834   1.558   7.144  0.3956  0.4093  0.7452
  148SAPE   HN316217   0.889   1.405   7.186 -0.7567  0.0050 -0.6846
  148SAPE   C1216218   0.990   1.546   7.297 -0.3325  0.7466 -0.0462
  148SAPE  H12A16219   1.040   1.462   7.349 -1.1886 -0.2651 -0.7992
  148SAPE  H12B16220   0.966   1.614   7.381  1.5997 -0.7230  1.7829
  148SAPE   C1116221   1.084   1.613   7.202 -0.7892 -0.2078  0.3528
  148SAPE  H11A16222   1.057   1.718   7.179 -0.3186 -0.0184  0.6610
  148SAPE  H11B16223   1.085   1.563   7.103  2.9391  0.4571 -0.0584
  148SAPE     P16224   1.334   1.535   7.251  0.3004 -0.1669  0.0295
  148SAPE   O1316225   1.444   1.595   7.331 -0.3818  0.0949 -0.1305
  148SAPE   O1416226   1.281   1.403   7.279  0.3977  0.1737 -0.3160
  148SAPE   O1216227   1.215   1.639   7.252  0.4859 -0.8564 -0.2040
  148SAPE   O1116228   1.369   1.543   7.098 -0.3061  0.5284 -0.1148
  148SAPE    C116229   1.404   1.671   7.051  0.4785  0.5502 -1.0341
  148SAPE    HA16230   1.312   1.730   7.030 -0.9401 -1.1580  0.0991
  148SAPE    HB16231   1.472   1.727   7.119  0.6279 -1.9045  0.9655
  148SAPE    C216232   1.479   1.656   6.915 -0.2213 -0.0283 -0.3503
  148SAPE    HS16233   1.566   1.589   6.931  0.4744  1.1979  1.2204
  148SAPE   O2116234   1.520   1.788   6.873 -0.3648 -0.6138  0.1951
  148SAPE   C2116235   1.625   1.781   6.786  0.0031 -0.2754 -0.4210
  148SAPE   O2216236   1.697   1.682   6.770  0.0288  0.2435  0.4489
  148SAPE   C2216237   1.653   1.918   6.735  0.3373  0.0342 -0.1026
  148SAPE   H2R16238   1.562   1.959   6.686 -0.2285 -0.7677  0.2689
  148SAPE   H2S16239   1.679   1.983   6.822  2.7066  1.9002 -2.0247
  148SAPE    C316240   1.379   1.598   6.810 -0.2658  0.1458  0.2572
  148SAPE    HX16241   1.292   1.665   6.798 -0.5077 -0.2429 -0.1859
  148SAPE    HY16242   1.335   1.504   6.850 -0.4890 -0.2586 -0.9160
  148SAPE   O3116243   1.447   1.568   6.684 -0.2654  0.0525 -0.0163
  148SAPE   C3116244   1.505   1.448   6.684  0.4842  0.6198  0.2848
  148SAPE   O3216245   1.499   1.362   6.773  0.1485  0.4167 -0.0445
  148SAPE   C3216246   1.558   1.421   6.548 -0.3088 -0.2965  0.2188
  148SAPE   H2X16247   1.642   1.482   6.507  0.7774 -1.3961  0.7360
  148SAPE   H2Y16248   1.463   1.406   6.492 -1.4025 -1.8338  2.3744
  148SAPE   C2316249   1.773   1.922   6.637 -0.1600  0.7993  0.2672
  148SAPE   H3R16250   1.779   1.840   6.563  0.9583  1.5308 -0.4887
  148SAPE   H3S16251   1.862   1.921   6.704  0.8639 -0.9628 -1.0614
  148SAPE   C2416252   1.782   2.059   6.576  0.2255  0.3599  0.0757
  148SAPE   H4R16253   1.763   2.130   6.659 -1.0516 -0.4326  0.4870
  148SAPE   H4S16254   1.702   2.084   6.503  0.1969  0.8097  0.2518
  148SAPE   C2516255   1.908   2.112   6.518 -0.2667 -0.0297  0.0272
  148SAPE   H5R16256   1.988   2.140   6.588 -0.2312 -0.0328 -0.0120
  148SAPE   C2616257   1.924   2.150   6.392 -0.0824  0.3981 -0.3889
  148SAPE   H6R16258   2.028   2.179   6.371  0.7404 -2.8323 -1.2468
  148SAPE   C2716259   1.817   2.153   6.283 -0.0582  0.6530  0.2776
  148SAPE   H7R16260   1.752   2.063   6.280  0.5475  0.2104  0.2167
  148SAPE   H7S16261   1.866   2.154   6.183  1.2900  0.7320  0.9183
  148SAPE   C2816262   1.726   2.266   6.299  1.1073  0.1893 -0.3435
  148SAPE   H8R16263   1.713   2.294   6.404 -1.2437  1.7337 -0.9824
  148SAPE   C2916264   1.648   2.326   6.207 -0.2297  0.4348 -0.1084
  148SAPE   H9R16265   1.586   2.413   6.232  1.6585  1.5383  0.9780
  148SAPE  C21016266   1.643   2.278   6.061 -0.0266 -0.2791  0.8731
  148SAPE  H10R16267   1.539   2.263   6.024  0.4110 -0.5543 -0.2873
  148SAPE  H10S16268   1.696   2.181   6.057 -1.0565 -0.9152  1.9673
  148SAPE  C21116269   1.696   2.385   5.962  0.6011 -0.5445 -0.5164
  148SAPE  H11R16270   1.641   2.480   5.961  1.3361 -0.1081 -0.7436
  148SAPE  C21216271   1.810   2.384   5.888  0.5354 -0.3479 -0.0497
  148SAPE  H12R16272   1.836   2.465   5.819  2.6149 -2.0014 -1.3018
  148SAPE  C21316273   1.912   2.276   5.882  0.3884  0.4546 -0.1183
  148SAPE  H13R16274   1.914   2.232   5.780  0.4680  1.4537 -0.5624
  148SAPE  H13S16275   1.895   2.186   5.945  0.6436 -1.3675 -2.5256
  148SAPE  C21416276   2.052   2.325   5.897  0.0957 -0.1620  0.1183
  148SAPE  H14R16277   2.049   2.416   5.959 -0.2309 -0.8029  1.0800
  148SAPE  C21516278   2.169   2.286   5.842  0.2040 -0.2919  0.0375
  148SAPE  H15R16279   2.260   2.348   5.850  0.2305 -0.2264 -0.7180
  148SAPE  C21616280   2.184   2.166   5.756  0.4780  0.0910 -0.4389
  148SAPE  H16R16281   2.083   2.126   5.731 -0.3467  2.6315 -1.4288
  148SAPE  H16S16282   2.232   2.082   5.810  0.2079  0.8781  1.0633
  148SAPE  C21716283   2.265   2.190   5.634 -0.0247  0.2055 -0.7469
  148SAPE  H17R16284   2.368   2.214   5.668 -0.7343  0.9881  0.9304
  148SAPE  H17S16285   2.224   2.281   5.585 -0.2381  0.5326  0.0246
  148SAPE  C21816286   2.258   2.070   5.532 -0.0982 -0.4849  0.0719
  148SAPE  H18R16287   2.160   2.073   5.478 -0.0543 -1.5855 -0.0781
  148SAPE  H18S16288   2.267   1.977   5.591  1.9841  0.1584  0.8636
  148SAPE  C21916289   2.367   2.090   5.425  0.3814 -0.5969  0.1918
  148SAPE  H19R16290   2.463   2.109   5.477  1.2176  5.3098 -2.6628
  148SAPE  H19S16291   2.352   2.181   5.363  0.1705  0.8094  2.2172
  148SAPE  C22016292   2.392   1.971   5.325  0.5326 -0.2916 -0.1837
  148SAPE  H20R16293   2.461   2.004   5.244 -0.4723 -0.9943 -1.3606
  148SAPE  H20S16294   2.303   1.936   5.269  1.5392 -0.5616 -1.6979
  148SAPE  H20T16295   2.451   1.895   5.381 -0.3221  0.6650  2.0956
  148SAPE   C3316296   1.626   1.278   6.558 -0.5443 -0.8433 -0.2690
  148SAPE   H3X16297   1.546   1.203   6.579  0.9549 -1.6428  3.5294
  148SAPE   H3Y16298   1.695   1.279   6.645  0.5854  0.3478 -1.1438
  148SAPE   C3416299   1.707   1.255   6.430 -0.4230 -0.2298  0.2857
  148SAPE   H4X16300   1.766   1.161   6.425  1.4410  0.8921  0.5193
  148SAPE   H4Y16301   1.775   1.342   6.434 -0.0349 -0.5429  0.7148
  148SAPE   C3516302   1.613   1.262   6.307  0.3216 -0.1509 -0.3475
  148SAPE   H5X16303   1.586   1.370   6.304  1.1609  0.1153  0.6981
  148SAPE   H5Y16304   1.520   1.208   6.333  0.8789 -0.5722  0.8847
  148SAPE   C3616305   1.684   1.213   6.177  0.5783 -0.0916 -0.1542
  148SAPE   H6X16306   1.680   1.102   6.176  0.7348 -0.1174  0.8509
  148SAPE   H6Y16307   1.787   1.254   6.168  0.4187  0.6027  0.9542
  148SAPE   C3716308   1.601   1.254   6.058  0.0355  0.0700  0.0861
  148SAPE   H7X16309   1.581   1.363   6.071  1.0644  0.2292  0.4440
  148SAPE   H7Y16310   1.506   1.197   6.051  1.0212 -1.5295 -0.9677
  148SAPE   C3816311   1.676   1.247   5.926  0.3392 -0.2499  0.5699
  148SAPE   H8X16312   1.698   1.141   5.901  0.2461 -0.2885  0.6536
  148SAPE   H8Y16313   1.768   1.309   5.940 -0.5915  0.9759  1.4303
  148SAPE   C3916314   1.618   1.322   5.808 -0.1027  0.1504 -0.9038
  148SAPE   H9X16315   1.653   1.427   5.802  2.8020 -0.4912  1.7380
  148SAPE   H9Y16316   1.509   1.318   5.827  0.0001  1.7301  0.2058
  148SAPE  C31016317   1.649   1.258   5.672  0.5266  0.2391 -0.1717
  148SAPE  H10X16318   1.607   1.323   5.592 -4.2136 -1.0755  0.9043
  148SAPE  H10Y16319   1.594   1.162   5.666  0.2453  0.4497 -1.1816
  148SAPE  C31116320   1.794   1.245   5.645  0.4256 -0.2764  0.2779
  148SAPE  H11X16321   1.813   1.176   5.560 -2.2077 -1.5997  0.6718
  148SAPE  H11Y16322   1.842   1.204   5.736  0.4578  1.0526  0.8832
  148SAPE  C31216323   1.872   1.380   5.613  0.0031 -0.0751  0.5770
  148SAPE  H12X16324   1.975   1.379   5.655  0.2501  0.6464 -0.0011
  148SAPE  H12Y16325   1.818   1.468   5.653  0.8111  1.0583 -0.7350
  148SAPE  C31316326   1.893   1.403   5.463  0.2200 -0.6717  0.3863
  148SAPE  H13X16327   1.924   1.310   5.410 -1.4712 -1.6085  0.9690
  148SAPE  H13Y16328   1.977   1.474   5.448 -1.3731  0.7271 -2.5531
  148SAPE  C31416329   1.768   1.474   5.399  0.3866  0.8279 -1.2761
  148SAPE  H14X16330   1.757   1.571   5.452  0.0358  0.2861 -0.3206
  148SAPE  H14Y16331   1.683   1.408   5.427  1.1913  0.9889  1.9754
  148SAPE  C31516332   1.762   1.482   5.253 -0.3085 -0.5389  0.4117
  148SAPE  H15X16333   1.668   1.533   5.223 -1.0595 -1.2555  1.4851
  148SAPE  H15Y16334   1.751   1.378   5.216 -0.6260 -1.3830  2.6735
  148SAPE  C31616335   1.885   1.556   5.189 -0.3007 -0.7883  0.3298
  148SAPE  H16X16336   1.863   1.571   5.082  1.1601 -0.7793  0.0075
  148SAPE  H16Y16337   1.975   1.490   5.192 -0.0925 -0.5790 -0.8571
  148SAPE  C31716338   1.909   1.693   5.261  0.5224 -0.6631 -0.8718
  148SAPE  H17X16339   1.943   1.661   5.362  2.4651  1.4176 -0.8102
  148SAPE  H17Y16340   1.817   1.753   5.275  1.2608  0.2787  0.1081
  148SAPE  C31816341   2.011   1.781   5.194  0.7723  0.1450  0.2869
  148SAPE  H18X16342   2.090   1.720   5.146  1.7309  2.6303 -1.4763
  148SAPE  H18Y16343   2.070   1.846   5.262  0.8982  0.3461 -0.0090
  148SAPE  H18Z16344   1.968   1.840   5.110 -2.2799 -0.5411  1.2584
  149SAPE     N16345   4.672   4.013   7.463  0.0499 -0.0381  0.0995
  149SAPE   HN116346   4.683   4.034   7.361  2.5289 -0.5053  0.2119
  149SAPE   HN216347   4.570   4.002   7.478  0.0966  0.4646  0.8583
  149SAPE   HN316348   4.684   4.101   7.518 -2.3325  1.6394 -1.8042
  149SAPE   C1216349   4.746   3.899   7.528 -0.0439 -0.0931 -0.0131
  149SAPE  H12A16350   4.725   3.895   7.637 -2.0018  0.5850 -0.3201
  149SAPE  H12B16351   4.854   3.919   7.515 -0.2426  2.1937  1.4653
  149SAPE   C1116352   4.705   3.769   7.451 -1.4339 -0.1404 -0.5363
  149SAPE  H11A16353   4.595   3.767   7.469 -1.3680  1.9737  0.3240
  149SAPE  H11B16354   4.755   3.683   7.502  0.4994  1.6257  0.6794
  149SAPE     P16355   4.849   3.715   7.238  0.3159  0.1700 -0.0936
  149SAPE   O1316356   4.975   3.745   7.309 -0.4050 -0.0057  0.1249
  149SAPE   O1416357   4.818   3.577   7.198 -0.2327 -0.5464 -0.2190
  149SAPE   O1216358   4.732   3.780   7.316 -0.0601  0.3101  0.8023
  149SAPE   O1116359   4.850   3.799   7.108  0.0904  0.0350  0.3143
  149SAPE    C116360   4.722   3.828   7.040  0.1633 -0.9989 -1.0247
  149SAPE    HA16361   4.635   3.775   7.085  1.1656  0.8364  3.5856
  149SAPE    HB16362   4.701   3.936   7.050  1.9544 -0.7094 -0.0007
  149SAPE    C216363   4.742   3.793   6.891  0.1737 -0.6997  0.5134
  149SAPE    HS16364   4.771   3.686   6.890  1.8412 -0.2797  0.8825
  149SAPE   O2116365   4.845   3.879   6.837  0.3167 -0.1092 -0.2955
  149SAPE   C2116366   4.927   3.817   6.750 -0.3703 -0.7427 -0.4242
  149SAPE   O2216367   4.918   3.707   6.705  0.2263 -0.3068  0.4197
  149SAPE   C2216368   5.038   3.916   6.718  0.2334  0.0803  0.1485
  149SAPE   H2R16369   5.079   3.970   6.806 -0.1446  2.1821 -0.8997
  149SAPE   H2S16370   5.129   3.861   6.684  0.7206  0.0775  1.4236
  149SAPE    C316371   4.611   3.814   6.807  0.4558 -0.0250  0.0362
  149SAPE    HX16372   4.612   3.924   6.798  0.8703  0.4648  4.0930
  149SAPE    HY16373   4.523   3.773   6.860  1.1184 -2.5847 -0.6954
  149SAPE   O3116374   4.612   3.749   6.681  0.5301  0.3233  0.1958
  149SAPE   C3116375   4.548   3.641   6.666  0.4117  0.4256  0.5734
  149SAPE   O3216376   4.484   3.574   6.745 -0.6628  0.0943 -0.0249
  149SAPE   C3216377   4.556   3.606   6.507 -0.1635  0.1690 -0.1562
  149SAPE   H2X16378   4.657   3.640   6.477 -0.0170  0.6863  0.8896
  149SAPE   H2Y16379   4.490   3.686   6.465 -0.5460  0.2576  0.6036
  149SAPE   C2316380   4.989   4.022   6.616 -0.1453 -0.6412  0.0868
  149SAPE   H3R16381   5.068   4.100   6.611 -0.2465 -0.5893 -0.9973
  149SAPE   H3S16382   4.891   4.060   6.653  0.1340 -0.3600  0.5491
  149SAPE   C2416383   4.954   3.970   6.476  0.0363  0.1129 -0.4299
  149SAPE   H4R16384   4.901   4.044   6.412 -0.2930  0.6262  0.4158
  149SAPE   H4S16385   4.892   3.878   6.484 -1.6682  1.1884 -0.7700
  149SAPE   C2516386   5.088   3.929   6.404 -0.2104  0.4033  1.0898
  149SAPE   H5R16387   5.177   3.977   6.447  1.1183 -0.8260 -0.1924
  149SAPE   C2616388   5.096   3.835   6.308 -0.3714  0.2805 -0.7862
  149SAPE   H6R16389   5.196   3.810   6.270 -0.4743  0.6592 -1.3240
  149SAPE   C2716390   4.979   3.748   6.256  0.3454  0.0244  0.1790
  149SAPE   H7R16391   5.003   3.734   6.148  2.5232  1.9931  0.3300
  149SAPE   H7S16392   4.885   3.806   6.264 -0.7271 -1.7509  0.7829
  149SAPE   C2816393   4.972   3.617   6.336 -0.4230  0.2265  0.3127
  149SAPE   H8R16394   4.973   3.618   6.446  0.0323 -0.1389  0.3160
  149SAPE   C2916395   4.994   3.498   6.288 -0.0227  0.2240 -0.1365
  149SAPE   H9R16396   4.994   3.414   6.359  2.5541 -1.5078 -2.0036
  149SAPE  C21016397   5.011   3.453   6.147 -0.1820  0.0142  0.6018
  149SAPE  H10R16398   4.939   3.505   6.081  2.9034  2.8207 -0.8404
  149SAPE  H10S16399   4.972   3.349   6.136  0.9473 -0.2308 -1.5506
  149SAPE  C21116400   5.143   3.458   6.084 -0.7145  0.0004 -0.4674
  149SAPE  H11R16401   5.216   3.381   6.112  0.8431  1.0448 -1.5083
  149SAPE  C21216402   5.178   3.522   5.974 -0.2107  0.0882 -0.5337
  149SAPE  H12R16403   5.284   3.515   5.947  0.3945  1.7792  1.2116
  149SAPE  C21316404   5.093   3.619   5.894 -0.4218 -0.1749 -0.2557
  149SAPE  H13R16405   4.997   3.649   5.942 -0.4879  0.0033 -0.5010
  149SAPE  H13S16406   5.077   3.568   5.797  0.3268  1.2993 -1.1923
  149SAPE  C21416407   5.154   3.755   5.866  0.0539  1.1648 -0.4117
  149SAPE  H14R16408   5.189   3.803   5.959  2.1436 -2.2919  0.7750
  149SAPE  C21516409   5.185   3.806   5.743 -0.1991  0.6550  0.4288
  149SAPE  H15R16410   5.253   3.893   5.735  2.1212 -0.8492  2.3534
  149SAPE  C21616411   5.143   3.746   5.609  0.1294 -0.1195 -1.0725
  149SAPE  H16R16412   5.047   3.697   5.633 -0.4489  1.4087 -0.1096
  149SAPE  H16S16413   5.212   3.668   5.570 -1.6415 -2.9890  1.1800
  149SAPE  C21716414   5.126   3.863   5.507  0.0067  0.0244 -0.2387
  149SAPE  H17R16415   5.225   3.881   5.461  0.2243 -1.7171 -0.4931
  149SAPE  H17S16416   5.089   3.952   5.563  0.3679  1.4029 -2.0847
  149SAPE  C21816417   5.034   3.831   5.388 -0.0240  0.5441 -0.6132
  149SAPE  H18R16418   4.935   3.803   5.428  0.1705 -1.8363 -1.6596
  149SAPE  H18S16419   5.075   3.740   5.340  0.0275 -0.7647  1.7461
  149SAPE  C21916420   5.036   3.941   5.285  0.2939  0.0814  0.3941
  149SAPE  H19R16421   5.140   3.950   5.248  0.1769 -2.1383 -0.5940
  149SAPE  H19S16422   5.002   4.035   5.335 -1.0382 -0.8271  1.2665
  149SAPE  C22016423   4.944   3.914   5.169 -0.3253  0.2208  0.1134
  149SAPE  H20R16424   4.845   3.905   5.218 -0.0974  1.3694  0.7897
  149SAPE  H20S16425   4.964   3.812   5.127  0.6722 -0.1426  1.4098
  149SAPE  H20T16426   4.948   4.001   5.100 -2.9569 -0.4831 -1.0283
  149SAPE   C3316427   4.516   3.462   6.464  0.3946  0.9031 -0.2935
  149SAPE   H3X16428   4.434   3.425   6.530  0.4852  2.2438  0.6157
  149SAPE   H3Y16429   4.604   3.396   6.478  1.4373  2.2530 -0.4054
  149SAPE   C3416430   4.484   3.456   6.316 -0.2643  0.0303  0.1052
  149SAPE   H4X16431   4.393   3.513   6.287 -1.5301 -1.3807  1.1806
  149SAPE   H4Y16432   4.462   3.350   6.292  1.4692  0.1028 -2.1305
  149SAPE   C3516433   4.599   3.491   6.219 -0.4619 -0.4217 -0.0836
  149SAPE   H5X16434   4.690   3.440   6.258  1.5368  2.8324 -0.0519
  149SAPE   H5Y16435   4.625   3.598   6.237  0.5586 -0.9218  1.6900
  149SAPE   C3616436   4.555   3.476   6.073 -0.0977  0.5074  0.5630
  149SAPE   H6X16437   4.493   3.565   6.051  1.5434  1.2476 -1.3948
  149SAPE   H6Y16438   4.489   3.389   6.053 -0.5527  0.7900  0.8225
  149SAPE   C3716439   4.674   3.465   5.978 -0.5984 -0.2887 -0.1042
  149SAPE   H7X16440   4.744   3.382   5.999  0.7160  0.8444  0.1314
  149SAPE   H7Y16441   4.728   3.560   5.995  0.0396 -0.5267 -0.7431
  149SAPE   C3816442   4.632   3.455   5.822 -0.3905 -0.8115 -0.9430
  149SAPE   H8X16443   4.573   3.544   5.793 -0.0916  0.8457  2.9057
  149SAPE   H8Y16444   4.580   3.359   5.800 -2.8742  0.1147  0.5777
  149SAPE   C3916445   4.758   3.447   5.730  0.0049  0.3537  0.4399
  149SAPE   H9X16446   4.820   3.364   5.769 -1.3885  0.0126  2.0588
  149SAPE   H9Y16447   4.817   3.541   5.730  0.2310  0.2141  0.1248
  149SAPE  C31016448   4.717   3.421   5.586  0.6075  0.0518 -0.9070
  149SAPE  H10X16449   4.653   3.507   5.559  1.2546  0.4318 -1.2467
  149SAPE  H10Y16450   4.653   3.331   5.576  1.1729 -0.9067  2.7477
  149SAPE  C31116451   4.839   3.418   5.496 -0.2154 -0.0910  0.8873
  149SAPE  H11X16452   4.898   3.334   5.538 -0.3022 -1.2745 -1.2222
  149SAPE  H11Y16453   4.895   3.513   5.507 -1.7462  1.0747 -0.7899
  149SAPE  C31216454   4.805   3.397   5.343 -0.5240 -0.3006 -0.1540
  149SAPE  H12X16455   4.745   3.306   5.322  1.2768 -2.0998  1.9589
  149SAPE  H12Y16456   4.903   3.386   5.293 -1.3642  2.2971 -2.6219
  149SAPE  C31316457   4.735   3.510   5.281 -0.1370 -0.0623  0.4794
  149SAPE  H13X16458   4.778   3.606   5.317 -0.8785  0.6198 -0.3851
  149SAPE  H13Y16459   4.629   3.515   5.314 -0.4433  0.4521 -0.5354
  149SAPE  C31416460   4.744   3.511   5.126  0.3270 -0.6580 -0.3327
  149SAPE  H14X16461   4.709   3.410   5.094  2.1726 -0.9557 -1.5931
  149SAPE  H14Y16462   4.851   3.511   5.095  0.0577 -2.5508 -1.4006
  149SAPE  C31516463   4.666   3.627   5.061 -0.5493 -0.7191  0.3030
  149SAPE  H15X16464   4.719   3.652   4.966  0.0548 -0.6218  0.6658
  149SAPE  H15Y16465   4.651   3.718   5.123 -1.4064  0.5498 -1.6384
  149SAPE  C31616466   4.531   3.576   5.004  0.1332  0.5070  0.0088
  149SAPE  H16X16467   4.460   3.537   5.080 -1.2239 -0.9836 -1.9256
  149SAPE  H16Y16468   4.562   3.498   4.931 -0.5924  0.0348  0.1977
  149SAPE  C31716469   4.466   3.688   4.923 -0.1728  0.0429  0.4596
  149SAPE  H17X16470   4.550   3.719   4.858 -0.4596  1.2031  0.6214
  149SAPE  H17Y16471   4.448   3.779   4.985  0.7375  1.2094 -0.9240
  149SAPE  C31816472   4.348   3.650   4.846  0.2358  0.7485  0.1313
  149SAPE  H18X16473   4.329   3.728   4.769  3.0258  0.0575 -1.4020
  149SAPE  H18Y16474   4.259   3.629   4.909 -1.1871  0.3142 -1.9258
  149SAPE  H18Z16475   4.367   3.560   4.783 -1.5354  0.2502  0.2751
  150SAPE     N16476   3.375   5.114   7.165 -0.2677 -0.5021  0.2233
  150SAPE   HN116477   3.366   5.017   7.128 -1.0358  0.8771 -3.6156
  150SAPE   HN216478   3.466   5.127   7.214  0.3544  0.9616 -1.2209
  150SAPE   HN316479   3.290   5.148   7.214  1.0719  0.2359  2.1534
  150SAPE   C1216480   3.390   5.194   7.042 -0.2603  0.4526 -0.0656
  150SAPE  H12A16481   3.486   5.167   6.993 -0.4195 -0.0589 -0.0985
  150SAPE  H12B16482   3.392   5.303   7.066 -0.8563  0.9176 -1.9483
  150SAPE   C1116483   3.283   5.181   6.928  0.7189 -0.0873 -0.8023
  150SAPE  H11A16484   3.293   5.078   6.887  1.9830 -0.2640 -0.1198
  150SAPE  H11B16485   3.312   5.257   6.852  0.4988 -0.4126 -1.2146
  150SAPE     P16486   3.029   5.183   6.882 -0.1055 -0.0683 -0.2156
  150SAPE   O1316487   3.005   5.041   6.869  0.5049  0.3188  0.2172
  150SAPE   O1416488   2.922   5.261   6.941  0.3975 -0.4049 -0.0542
  150SAPE   O1216489   3.151   5.206   6.975 -0.2480  0.1444 -0.0114
  150SAPE   O1116490   3.063   5.253   6.747  0.0477 -0.3408  0.2623
  150SAPE    C116491   3.102   5.179   6.635  0.2947 -0.1844  0.2288
  150SAPE    HA16492   3.204   5.138   6.649  0.9105  1.5578  1.2743
  150SAPE    HB16493   3.036   5.092   6.614 -0.6769  0.6967 -0.4582
  150SAPE    C216494   3.120   5.272   6.512 -0.7186  0.0023  0.0778
  150SAPE    HS16495   3.207   5.337   6.535  1.3596 -1.6108 -2.5951
  150SAPE   O2116496   2.999   5.336   6.464  0.4274  0.4746  0.0831
  150SAPE   C2116497   3.008   5.464   6.445  0.7234  0.1086  0.4635
  150SAPE   O2216498   3.098   5.535   6.485 -0.4478 -0.0692  0.3950
  150SAPE   C2216499   2.885   5.515   6.378  0.5753  0.3008  0.0508
  150SAPE   H2R16500   2.840   5.426   6.330 -0.9909  0.6603  0.7723
  150SAPE   H2S16501   2.823   5.542   6.467  1.4452 -2.2418  1.5344
  150SAPE    C316502   3.178   5.187   6.396 -0.6211 -0.8035  0.8288
  150SAPE    HX16503   3.274   5.139   6.425 -0.0794 -0.3206 -0.1113
  150SAPE    HY16504   3.200   5.264   6.319 -0.7014 -1.4637  0.1321
  150SAPE   O3116505   3.088   5.090   6.339  0.6481  0.1486 -0.0253
  150SAPE   C3116506   3.106   4.965   6.374  0.4919  0.5841 -0.1809
  150SAPE   O3216507   3.184   4.926   6.455  0.2774 -0.3416 -0.5423
  150SAPE   C3216508   3.022   4.881   6.273  0.2339  0.2888 -0.1821
  150SAPE   H2X16509   2.977   4.948   6.197 -1.2230 -0.7676 -0.3117
  150SAPE   H2Y16510   2.934   4.839   6.327  0.5978  1.0354  1.0262
  150SAPE   C2316511   2.891   5.635   6.288  0.1207  0.2647  0.6123
  150SAPE   H3R16512   2.930   5.725   6.339 -0.4974 -0.0870  1.7383
  150SAPE   H3S16513   2.791   5.667   6.251 -1.5512 -3.8329  1.0797
  150SAPE   C2416514   2.971   5.605   6.158  0.7834  0.4011  0.1101
  150SAPE   H4R16515   3.073   5.568   6.185  1.0386  0.8923 -0.1621
  150SAPE   H4S16516   2.977   5.705   6.110  0.3246  0.6368  0.5381
  150SAPE   C2516517   2.890   5.519   6.068  0.2770  0.3216 -0.5807
  150SAPE   H5R16518   2.800   5.571   6.030  0.0591 -0.4305 -1.1117
  150SAPE   C2616519   2.917   5.387   6.035 -0.0638 -0.2424 -0.8446
  150SAPE   H6R16520   2.854   5.333   5.963 -1.4679 -0.4779  0.5027
  150SAPE   C2716521   3.031   5.301   6.082 -0.4714  0.5210  0.0024
  150SAPE   H7R16522   2.993   5.197   6.090  0.1893 -0.0272 -2.8600
  150SAPE   H7S16523   3.059   5.329   6.186 -0.9367  0.5826  0.1121
  150SAPE   C2816524   3.148   5.313   5.986  1.1052  1.2089 -0.4951
  150SAPE   H8R16525   3.192   5.414   5.980  0.8270  1.2783 -1.6218
  150SAPE   C2916526   3.199   5.208   5.908 -0.0325 -0.0725  0.3000
  150SAPE   H9R16527   3.291   5.236   5.853  1.0268 -2.4653  0.7061
  150SAPE  C21016528   3.161   5.067   5.910  0.2237 -0.1717  0.3662
  150SAPE  H10R16529   3.105   5.033   6.001  1.7933 -0.1909  1.3692
  150SAPE  H10S16530   3.249   4.999   5.904 -1.2427 -2.1965  0.8050
  150SAPE  C21116531   3.078   5.044   5.783 -0.0371  0.3271  0.2564
  150SAPE  H11R16532   2.999   5.120   5.774  0.9123  1.3173  0.0762
  150SAPE  C21216533   3.094   4.950   5.682  0.3380 -0.1754 -0.1877
  150SAPE  H12R16534   3.016   4.950   5.604 -0.1044  1.1933  0.2274
  150SAPE  C21316535   3.191   4.843   5.680  0.3610  0.9445 -0.5063
  150SAPE  H13R16536   3.217   4.807   5.782  0.2420  0.3692 -0.6746
  150SAPE  H13S16537   3.287   4.887   5.645  0.5411  1.4302  0.5593
  150SAPE  C21416538   3.149   4.714   5.607  0.1117 -0.5100  0.2964
  150SAPE  H14R16539   3.106   4.636   5.672  1.4768 -0.4161  1.3572
  150SAPE  C21516540   3.128   4.719   5.472  0.4056  0.9405 -0.9598
  150SAPE  H15R16541   3.078   4.639   5.415 -2.2842  1.0370  1.0601
  150SAPE  C21616542   3.159   4.843   5.392  0.0948 -0.0487 -0.0409
  150SAPE  H16R16543   3.241   4.900   5.441 -1.0292  1.9135 -0.3316
  150SAPE  H16S16544   3.071   4.909   5.384  0.8312  0.8814 -0.7317
  150SAPE  C21716545   3.197   4.800   5.249 -0.0656  0.7403 -0.7073
  150SAPE  H17R16546   3.268   4.714   5.258 -3.1949 -1.8564  1.2599
  150SAPE  H17S16547   3.247   4.882   5.192  0.2481  1.3856  0.4553
  150SAPE  C21816548   3.087   4.772   5.153  0.2768 -0.1631 -0.0930
  150SAPE  H18R16549   3.020   4.860   5.158 -1.9318 -1.8106  0.6750
  150SAPE  H18S16550   3.032   4.684   5.193 -0.5054 -0.4047 -1.6336
  150SAPE  C21916551   3.136   4.757   5.008  0.1399  0.0200 -0.3850
  150SAPE  H19R16552   3.183   4.656   5.001 -0.8247 -0.3797 -1.2488
  150SAPE  H19S16553   3.214   4.833   4.988  1.6972 -0.9115  1.7051
  150SAPE  C22016554   3.017   4.748   4.911 -0.0840  0.0250  0.3377
  150SAPE  H20R16555   2.950   4.837   4.912 -2.5142 -1.5725 -2.7352
  150SAPE  H20S16556   2.954   4.658   4.923  1.6159 -1.6474 -2.2943
  150SAPE  H20T16557   3.052   4.743   4.805 -2.2410 -0.8505 -0.3813
  150SAPE   C3316558   3.105   4.776   6.200  0.1867  0.6142 -0.1809
  150SAPE   H3X16559   3.148   4.703   6.272  1.8386 -0.5748 -2.2591
  150SAPE   H3Y16560   3.190   4.823   6.145  2.0496 -0.1444  1.8971
  150SAPE   C3416561   3.009   4.694   6.111 -0.0968 -0.0944  0.1130
  150SAPE   H4X16562   2.946   4.763   6.051  0.2233 -0.8224 -1.0989
  150SAPE   H4Y16563   2.934   4.647   6.179 -1.7319  1.0315 -0.8291
  150SAPE   C3516564   3.085   4.593   6.020 -0.4167  0.1787  0.3754
  150SAPE   H5X16565   3.122   4.504   6.075  1.6166  0.3386 -0.6354
  150SAPE   H5Y16566   3.174   4.643   5.977 -0.5082  0.0184 -0.0063
  150SAPE   C3616567   2.999   4.550   5.895 -0.8702 -0.6701 -0.2583
  150SAPE   H6X16568   3.067   4.490   5.831  1.5767 -0.2793  1.7891
  150SAPE   H6Y16569   2.978   4.645   5.841  2.0860  0.1573 -0.1306
  150SAPE   C3716570   2.862   4.490   5.931 -0.4348 -0.1989 -0.6399
  150SAPE   H7X16571   2.792   4.551   5.992  1.0425  1.9436 -0.9566
  150SAPE   H7Y16572   2.872   4.398   5.993  0.6510  0.6248  0.4505
  150SAPE   C3816573   2.792   4.457   5.797  1.0694 -0.9205 -0.3753
  150SAPE   H8X16574   2.857   4.384   5.745  2.3515  1.7150 -2.7474
  150SAPE   H8Y16575   2.783   4.555   5.745 -0.4911 -0.6738  0.2996
  150SAPE   C3916576   2.656   4.393   5.814  0.1542 -0.9515 -0.0745
  150SAPE   H9X16577   2.585   4.460   5.867 -0.4300 -1.2692 -0.4453
  150SAPE   H9Y16578   2.667   4.299   5.872 -2.8170 -2.2850 -1.4557
  150SAPE  C31016579   2.586   4.361   5.685 -0.2841 -0.4502 -0.4532
  150SAPE  H10X16580   2.487   4.315   5.704 -0.4130 -0.0352 -0.1097
  150SAPE  H10Y16581   2.641   4.287   5.623  1.3445 -0.0838  0.4874
  150SAPE  C31116582   2.545   4.485   5.599  0.3569 -0.2952 -0.4186
  150SAPE  H11X16583   2.629   4.503   5.529  2.2455 -0.0573  1.7962
  150SAPE  H11Y16584   2.535   4.567   5.674  2.4796  0.2776 -0.6957
  150SAPE  C31216585   2.407   4.487   5.526 -0.2773  1.0430 -0.4159
  150SAPE  H12X16586   2.325   4.449   5.592  0.8904 -0.3183  0.3159
  150SAPE  H12Y16587   2.404   4.422   5.436 -1.1741 -0.3740  0.5910
  150SAPE  C31316588   2.369   4.626   5.481  0.6601  0.0830  0.5388
  150SAPE  H13X16589   2.452   4.678   5.428 -1.4386  3.0009 -0.1380
  150SAPE  H13Y16590   2.353   4.688   5.572 -1.0835 -1.2410  1.1811
  150SAPE  C31416591   2.249   4.630   5.389  0.3250 -0.2442 -0.0705
  150SAPE  H14X16592   2.268   4.566   5.300 -0.0360  1.1421 -1.1918
  150SAPE  H14Y16593   2.241   4.737   5.362 -2.2890  0.4026  2.6732
  150SAPE  C31516594   2.121   4.594   5.469  0.3347 -0.2647  0.0202
  150SAPE  H15X16595   2.124   4.651   5.564  0.4493 -1.1676  0.5704
  150SAPE  H15Y16596   2.134   4.485   5.489 -0.8764 -0.9150 -2.4036
  150SAPE  C31616597   1.994   4.625   5.388  0.2172  0.6610  0.3571
  150SAPE  H16X16598   1.981   4.734   5.368 -1.1334  0.2104 -1.4460
  150SAPE  H16Y16599   1.909   4.602   5.456  1.2157 -0.8244  1.1547
  150SAPE  C31716600   1.987   4.559   5.250  0.8928 -0.1028 -0.2073
  150SAPE  H17X16601   1.980   4.449   5.255  0.6847 -0.0775  0.0517
  150SAPE  H17Y16602   2.083   4.570   5.196  1.8379 -1.5972  1.0997
  150SAPE  C31816603   1.872   4.611   5.155 -0.2633  0.2609  0.0153
  150SAPE  H18X16604   1.866   4.540   5.070 -2.5220 -1.3528  1.3954
  150SAPE  H18Y16605   1.888   4.716   5.121 -1.1937  1.0432  1.8226
  150SAPE  H18Z16606   1.776   4.606   5.211 -0.0396 -2.1870  0.3022
  151SAPE     N16607   0.298   5.264   6.744  0.2984  0.3245 -0.3130
  151SAPE   HN116608   0.252   5.250   6.651 -0.0035 -2.0299  0.1335
  151SAPE   HN216609   0.388   5.309   6.719 -0.0166  1.5411  0.6997
  151SAPE   HN316610   0.313   5.173   6.792  0.9416  0.4209 -0.3302
  151SAPE   C1216611   0.215   5.373   6.828  0.1216  0.3066 -0.4942
  151SAPE  H12A16612   0.211   5.463   6.763  0.0521 -0.8015 -2.0901
  151SAPE  H12B16613   0.271   5.399   6.920 -1.5752 -2.0466  1.3400
  151SAPE   C1116614   0.077   5.320   6.858  0.5866  0.1597 -0.4091
  151SAPE  H11A16615   0.017   5.411   6.880  0.8370  0.5602 -1.3585
  151SAPE  H11B16616   0.096   5.256   6.947  3.4037 -0.1005 -1.0877
  151SAPE     P16617  -0.141   5.230   6.752  0.3228  0.1402 -0.4207
  151SAPE   O1316618  -0.192   5.258   6.895  0.3775 -0.1320 -0.0810
  151SAPE   O1416619  -0.205   5.308   6.640 -0.1311 -0.0170  0.1013
  151SAPE   O1216620   0.015   5.248   6.747 -0.3211 -0.3508  0.0529
  151SAPE   O1116621  -0.154   5.068   6.728  0.3061 -0.7794 -0.4456
  151SAPE    C116622  -0.034   5.000   6.676  0.3448 -0.0688 -0.0696
  151SAPE    HA16623   0.055   5.002   6.743  0.5894  0.6701 -0.4028
  151SAPE    HB16624  -0.067   4.895   6.688  2.0526 -0.5567  0.7094
  151SAPE    C216625   0.002   5.032   6.532  0.9361  0.1224  0.0975
  151SAPE    HS16626   0.009   5.142   6.514  2.3248 -0.3187 -2.5666
  151SAPE   O2116627  -0.100   4.970   6.447 -0.4933  0.1550 -0.2532
  151SAPE   C2116628  -0.138   5.041   6.341  0.0443 -0.0763 -0.0048
  151SAPE   O2216629  -0.085   5.142   6.303 -0.4200 -0.2410 -0.9314
  151SAPE   C2216630  -0.275   4.987   6.296  0.3757 -0.3081 -0.2775
  151SAPE   H2R16631  -0.286   4.880   6.323  1.3844 -0.4557 -0.3891
  151SAPE   H2S16632  -0.364   5.035   6.342  0.4000  0.9322 -1.4701
  151SAPE    C316633   0.150   4.988   6.498 -0.0099 -0.1040 -0.2461
  151SAPE    HX16634   0.186   4.883   6.496  2.4359  0.6684 -0.3864
  151SAPE    HY16635   0.199   5.029   6.589 -1.9195 -0.0867  0.8245
  151SAPE   O3116636   0.197   5.037   6.371  0.2813 -0.6637 -0.2713
  151SAPE   C3116637   0.250   5.165   6.375  0.0817 -0.2734  0.8092
  151SAPE   O3216638   0.246   5.229   6.477 -0.2421 -0.0883  0.2085
  151SAPE   C3216639   0.292   5.203   6.240  0.1674  0.6280  0.3886
  151SAPE   H2X16640   0.276   5.121   6.166  1.1289  1.4508 -0.7653
  151SAPE   H2Y16641   0.398   5.235   6.237  0.5756 -0.6035 -2.8171
  151SAPE   C2316642  -0.289   5.002   6.136  0.2270  0.2053  0.7961
  151SAPE   H3R16643  -0.308   5.111   6.123  1.2696  0.3510  0.3625
  151SAPE   H3S16644  -0.382   4.949   6.108  0.4913  0.0009  0.2882
  151SAPE   C2416645  -0.164   4.959   6.057  0.2865 -0.0289  0.6012
  151SAPE   H4R16646  -0.122   4.872   6.112  1.0863 -0.0659 -0.0497
  151SAPE   H4S16647  -0.086   5.036   6.076 -1.2405  1.2243  2.1230
  151SAPE   C2516648  -0.196   4.937   5.906  0.2541  0.3576 -0.3211
  151SAPE   H5R16649  -0.285   4.874   5.889 -1.6622  2.4478  1.2375
  151SAPE   C2616650  -0.118   4.978   5.811 -0.1764 -0.0486 -0.2831
  151SAPE   H6R16651  -0.154   4.945   5.712  1.1385 -1.4257 -0.3443
  151SAPE   C2716652   0.006   5.068   5.815 -0.3010  0.2203 -0.0147
  151SAPE   H7R16653   0.090   5.017   5.761  0.7521  2.1963 -0.3313
  151SAPE   H7S16654   0.038   5.081   5.920  0.5104 -1.1505 -0.0633
  151SAPE   C2816655  -0.039   5.192   5.742  0.8225 -0.8662  0.2653
  151SAPE   H8R16656  -0.076   5.270   5.809  3.2639  0.6452  0.0043
  151SAPE   C2916657  -0.017   5.225   5.613 -0.0309  0.6903  0.3140
  151SAPE   H9R16658  -0.073   5.312   5.575 -0.7232  0.2261  0.2407
  151SAPE  C21016659   0.048   5.134   5.516  0.2596 -0.2096 -0.0663
  151SAPE  H10R16660  -0.012   5.042   5.500  0.7011 -0.0598 -3.3707
  151SAPE  H10S16661   0.148   5.111   5.558  0.6232  0.7302 -0.3974
  151SAPE  C21116662   0.067   5.198   5.380  0.3380 -1.0856 -0.3299
  151SAPE  H11R16663   0.134   5.285   5.383 -1.3959  0.2595  1.2970
  151SAPE  C21216664   0.031   5.155   5.257 -0.0042 -0.2326 -0.3599
  151SAPE  H12R16665   0.052   5.220   5.171 -0.3439  1.7179  0.9583
  151SAPE  C21316666  -0.042   5.021   5.231 -0.4926  0.0299 -0.3033
  151SAPE  H13R16667  -0.068   4.971   5.327  0.1932  1.7015  0.7959
  151SAPE  H13S16668   0.029   4.969   5.163 -1.7035  1.5167 -2.8527
  151SAPE  C21416669  -0.170   5.047   5.167  0.1465  0.3459  0.4738
  151SAPE  H14R16670  -0.226   5.137   5.198 -1.2095 -0.7661  1.4347
  151SAPE  C21516671  -0.228   4.964   5.076  0.2687 -0.3324 -0.4179
  151SAPE  H15R16672  -0.333   4.980   5.047  0.1012 -2.1870 -0.9497
  151SAPE  C21616673  -0.181   4.830   5.030 -0.4679  0.1338  0.0457
  151SAPE  H16R16674  -0.263   4.756   5.036  1.1581 -1.7951 -0.3492
  151SAPE  H16S16675  -0.097   4.792   5.093  0.1248  1.1967 -0.0808
  151SAPE  C21716676  -0.133   4.811   4.877  0.0098  0.1732  0.1544
  151SAPE  H17R16677  -0.031   4.853   4.877  0.4215 -0.6804  2.8557
  151SAPE  H17S16678  -0.191   4.888   4.820  0.8858  4.4648  4.4340
  151SAPE  C21816679  -0.139   4.668   4.816  0.9537  0.9227 -0.0517
  151SAPE  H18R16680  -0.237   4.652   4.767  2.1457 -1.8577 -1.7803
  151SAPE  H18S16681  -0.110   4.590   4.890 -0.5428  1.4503  1.1355
  151SAPE  C21916682  -0.033   4.650   4.705  0.0100  0.4823 -0.2519
  151SAPE  H19R16683   0.063   4.632   4.758  0.5540 -0.6526 -1.5813
  151SAPE  H19S16684  -0.028   4.750   4.657 -1.4454  0.8246  0.2662
  151SAPE  C22016685  -0.039   4.523   4.620  0.2369 -0.3967  0.7586
  151SAPE  H20R16686  -0.000   4.435   4.675 -0.6404  0.6521  3.2137
  151SAPE  H20S16687   0.037   4.547   4.543  0.8214  1.0373  1.7271
  151SAPE  H20T16688  -0.136   4.509   4.569  0.1451  1.2671  0.4108
  151SAPE   C3316689   0.212   5.329   6.196 -0.1904 -0.0936 -0.3697
  151SAPE   H3X16690   0.241   5.414   6.261 -2.9865  1.4900 -1.0530
  151SAPE   H3Y16691   0.102   5.315   6.204 -0.2176  0.5207  0.4567
  151SAPE   C3416692   0.250   5.366   6.051 -0.1549  0.1972 -0.1217
  151SAPE   H4X16693   0.200   5.297   5.979 -0.1311 -0.1642  0.2066
  151SAPE   H4Y16694   0.359   5.365   6.029 -0.0826  0.1728  0.2381
  151SAPE   C3516695   0.203   5.509   6.022  0.2614  0.2371  0.4158
  151SAPE   H5X16696   0.250   5.577   6.096  1.1254 -0.0620  0.1592
  151SAPE   H5Y16697   0.093   5.518   6.034 -0.4909 -1.9126 -3.2312
  151SAPE   C3616698   0.241   5.560   5.879  0.6123  1.1246 -0.7845
  151SAPE   H6X16699   0.338   5.517   5.846  0.4866 -0.5257  0.8299
  151SAPE   H6Y16700   0.247   5.670   5.894 -1.0290  1.2536 -0.8652
  151SAPE   C3716701   0.134   5.532   5.773  0.8339 -0.0889 -0.6697
  151SAPE   H7X16702   0.037   5.563   5.816 -0.0270  0.6245 -2.9697
  151SAPE   H7Y16703   0.122   5.424   5.752  1.0562 -0.1035 -0.7270
  151SAPE   C3816704   0.166   5.605   5.642 -0.2654  0.8237 -0.7558
  151SAPE   H8X16705   0.263   5.556   5.618  0.3357 -0.4807  3.5100
  151SAPE   H8Y16706   0.188   5.713   5.651  0.9730  0.4537  1.2358
  151SAPE   C3916707   0.069   5.583   5.523  0.0189 -0.0855  0.0368
  151SAPE   H9X16708  -0.029   5.635   5.524 -0.3833 -0.8041 -0.8843
  151SAPE   H9Y16709   0.040   5.476   5.524 -2.1542  0.4038  2.6371
  151SAPE  C31016710   0.140   5.603   5.385  0.3037 -0.1933  0.7263
  151SAPE  H10X16711   0.065   5.577   5.307  0.0511 -1.1742  1.2718
  151SAPE  H10Y16712   0.221   5.528   5.378 -0.7393 -1.4434  1.5620
  151SAPE  C31116713   0.180   5.750   5.374 -0.0405  0.0160  0.3242
  151SAPE  H11X16714   0.278   5.764   5.425 -0.1581  0.0433  0.5418
  151SAPE  H11Y16715   0.101   5.816   5.414  0.0821 -1.0699  2.4987
  151SAPE  C31216716   0.196   5.788   5.224 -0.4613  0.2000 -0.2792
  151SAPE  H12X16717   0.109   5.759   5.163 -0.0485 -0.8015 -0.4190
  151SAPE  H12Y16718   0.276   5.721   5.186 -0.7131 -0.5622  0.5007
  151SAPE  C31316719   0.241   5.930   5.190  0.4002  0.8474  0.1302
  151SAPE  H13X16720   0.332   5.952   5.250  1.0034  0.0787 -0.4797
  151SAPE  H13Y16721   0.160   6.003   5.212  1.0217  1.5963 -0.0223
  151SAPE  C31416722   0.279   5.930   5.043  0.1037 -0.1257 -0.4263
  151SAPE  H14X16723   0.191   5.909   4.978  0.9798  0.4976 -1.8688
  151SAPE  H14Y16724   0.355   5.852   5.019  0.4341  0.3644 -0.9809
  151SAPE  C31516725   0.339   6.063   5.011  0.1777  0.5369 -0.7149
  151SAPE  H15X16726   0.425   6.089   5.076 -0.3571 -3.4524  1.9164
  151SAPE  H15Y16727   0.257   6.135   5.033 -0.6382 -0.8190  0.8527
  151SAPE  C31616728   0.378   6.075   4.861 -0.2226  0.3736 -0.3870
  151SAPE  H16X16729   0.300   6.038   4.791  0.7003 -1.1176 -0.6505
  151SAPE  H16Y16730   0.468   6.012   4.845 -0.3595  0.3500 -1.0824
  151SAPE  C31716731   0.417   6.218   4.820 -0.5798 -0.3177  0.7292
  151SAPE  H17X16732   0.351   6.290   4.874 -0.8974 -0.8082  0.9998
  151SAPE  H17Y16733   0.409   6.213   4.710  0.8578 -2.3774  0.6725
  151SAPE  C31816734   0.558   6.249   4.862  0.3628  0.1339 -0.1302
  151SAPE  H18X16735   0.579   6.355   4.836  0.2434 -0.3743 -2.5117
  151SAPE  H18Y16736   0.627   6.183   4.805 -0.3982 -1.4366  0.7103
  151SAPE  H18Z16737   0.576   6.237   4.971 -1.0726 -2.3491 -0.0865
  152SAPE     N16738   4.041   5.329   7.016  0.2466 -0.0022 -0.1877
  152SAPE   HN116739   3.962   5.356   7.079 -0.2335  0.0441 -0.7946
  152SAPE   HN216740   4.030   5.239   6.965  2.5427  1.7632 -4.3125
  152SAPE   HN316741   4.129   5.331   7.071 -0.5845  1.8077  1.1759
  152SAPE   C1216742   4.052   5.432   6.909 -0.6147  0.1233 -0.2929
  152SAPE  H12A16743   4.087   5.528   6.952  0.7505  0.1498 -1.3684
  152SAPE  H12B16744   3.961   5.437   6.846 -1.2323 -0.7779  0.5029
  152SAPE   C1116745   4.168   5.397   6.813 -0.2307  0.0802  0.0433
  152SAPE  H11A16746   4.268   5.404   6.861 -0.0084 -2.9755  0.2270
  152SAPE  H11B16747   4.170   5.467   6.727  2.5191 -0.8193 -0.7555
  152SAPE     P16748   4.158   5.211   6.611 -0.1068 -0.3684  0.3488
  152SAPE   O1316749   4.280   5.250   6.543 -0.6668  0.4818  0.5328
  152SAPE   O1416750   4.128   5.065   6.609  0.3150  0.7175 -0.5836
  152SAPE   O1216751   4.154   5.264   6.766  0.2698 -0.7794  0.4166
  152SAPE   O1116752   4.038   5.290   6.538 -0.3737  0.2827  0.5792
  152SAPE    C116753   3.908   5.267   6.588 -0.0151  0.9651  0.4420
  152SAPE    HA16754   3.899   5.184   6.662  3.2084 -0.3898 -0.5084
  152SAPE    HB16755   3.884   5.362   6.642  1.0973  1.2258  0.5061
  152SAPE    C216756   3.801   5.241   6.477 -0.6678 -0.9858  0.3310
  152SAPE    HS16757   3.708   5.292   6.512 -0.7320  0.5053 -1.8120
  152SAPE   O2116758   3.782   5.102   6.449 -0.3560  0.5437  0.0446
  152SAPE   C2116759   3.662   5.067   6.407  0.2766  0.2233  0.6063
  152SAPE   O2216760   3.560   5.134   6.434  0.6924 -0.2876  0.8257
  152SAPE   C2216761   3.674   4.942   6.323  0.0953 -0.1685  0.8303
  152SAPE   H2R16762   3.761   4.958   6.256 -0.7689  0.1828 -0.2490
  152SAPE   H2S16763   3.701   4.858   6.390  3.2052  1.2870  1.5912
  152SAPE    C316764   3.850   5.308   6.345  0.1278  0.2827 -0.7505
  152SAPE    HX16765   3.933   5.247   6.302  1.4693  0.6048  1.2541
  152SAPE    HY16766   3.880   5.410   6.377  0.6500 -0.3429  0.8173
  152SAPE   O3116767   3.754   5.309   6.231 -0.4536 -0.5271 -0.1084
  152SAPE   C3116768   3.695   5.429   6.209 -0.9745  0.4532  0.6238
  152SAPE   O3216769   3.711   5.529   6.277  0.2322 -0.5280 -0.0709
  152SAPE   C3216770   3.623   5.411   6.073 -0.7358  0.0276 -0.4764
  152SAPE   H2X16771   3.516   5.395   6.099 -1.2143  3.1288 -0.0593
  152SAPE   H2Y16772   3.664   5.324   6.017 -1.4262  0.3139 -1.4570
  152SAPE   C2316773   3.535   4.905   6.246 -1.1717 -0.1742 -0.6843
  152SAPE   H3R16774   3.458   4.889   6.325  3.2036  0.1181  4.2058
  152SAPE   H3S16775   3.558   4.812   6.191  3.3283  0.2847  0.0332
  152SAPE   C2416776   3.497   5.003   6.130 -0.1582  0.9424  0.3986
  152SAPE   H4R16777   3.441   5.090   6.171 -0.3910  0.3256  1.3958
  152SAPE   H4S16778   3.429   4.944   6.065  0.6136 -0.1236  0.5360
  152SAPE   C2516779   3.615   5.043   6.041 -0.4665  0.3481 -0.0629
  152SAPE   H5R16780   3.682   5.119   6.081  1.4623 -0.0478 -2.3034
  152SAPE   C2616781   3.631   5.015   5.907 -0.4901  0.1816  0.1926
  152SAPE   H6R16782   3.733   5.025   5.868 -0.3538 -1.4379  0.0672
  152SAPE   C2716783   3.547   4.926   5.823 -0.2706  0.1695  0.6943
  152SAPE   H7R16784   3.437   4.933   5.835 -0.5486  1.8551 -1.8961
  152SAPE   H7S16785   3.583   4.823   5.843 -0.2892  0.0048 -0.0880
  152SAPE   C2816786   3.577   4.959   5.676 -0.8038  0.5511 -0.6024
  152SAPE   H8R16787   3.592   5.065   5.650  0.4236  0.1417 -1.6951
  152SAPE   C2916788   3.602   4.866   5.580 -0.0498 -0.7477  0.4100
  152SAPE   H9R16789   3.621   4.906   5.479 -1.2300 -1.0335  0.0558
  152SAPE  C21016790   3.597   4.718   5.593 -0.6109  0.2075  0.0815
  152SAPE  H10R16791   3.553   4.683   5.689 -2.4195  0.6612 -0.5456
  152SAPE  H10S16792   3.705   4.693   5.582 -0.4835  1.6272 -2.7054
  152SAPE  C21116793   3.520   4.660   5.477 -0.0758  0.2124  0.6131
  152SAPE  H11R16794   3.410   4.660   5.488 -0.1278 -2.6693  0.7640
  152SAPE  C21216795   3.570   4.604   5.367  0.3754  0.5241 -0.0464
  152SAPE  H12R16796   3.500   4.567   5.291  0.5176  0.6196 -0.2246
  152SAPE  C21316797   3.715   4.594   5.335  0.3551 -0.1307  0.2207
  152SAPE  H13R16798   3.779   4.663   5.393 -0.5216 -0.0918  1.1592
  152SAPE  H13S16799   3.741   4.630   5.233 -2.3901  0.6364 -0.2746
  152SAPE  C21416800   3.769   4.455   5.365  0.0475 -0.8191  0.0529
  152SAPE  H14R16801   3.765   4.436   5.473 -1.3140  0.3360  0.2304
  152SAPE  C21516802   3.833   4.367   5.283  0.0242 -0.4231  0.5265
  152SAPE  H15R16803   3.844   4.267   5.327 -0.8373  0.5206  3.1012
  152SAPE  C21616804   3.851   4.374   5.131 -0.5882  0.4882 -0.2620
  152SAPE  H16R16805   3.951   4.341   5.097  0.5628  0.5804  2.7466
  152SAPE  H16S16806   3.841   4.482   5.106 -0.9285  1.4856  3.5133
  152SAPE  C21716807   3.739   4.310   5.052 -0.4419  0.0895 -0.9150
  152SAPE  H17R16808   3.643   4.350   5.092  0.6084  1.4000  0.3729
  152SAPE  H17S16809   3.722   4.203   5.077 -1.8663  1.0145  2.7304
  152SAPE  C21816810   3.744   4.339   4.901 -0.2660 -0.2360  0.2413
  152SAPE  H18R16811   3.825   4.282   4.850 -1.4393 -1.2303 -0.5830
  152SAPE  H18S16812   3.768   4.447   4.894  1.0152 -0.5966 -1.8151
  152SAPE  C21916813   3.611   4.304   4.826  0.1680 -0.4331 -0.0154
  152SAPE  H19R16814   3.541   4.379   4.869  1.2285  0.8143 -0.4051
  152SAPE  H19S16815   3.582   4.199   4.848  0.5881 -0.6973 -0.6706
  152SAPE  C22016816   3.609   4.333   4.674 -0.1564 -0.1704  0.2930
  152SAPE  H20R16817   3.502   4.325   4.644 -0.0486 -3.3935  0.4067
  152SAPE  H20S16818   3.671   4.262   4.616 -1.3407 -0.4094 -0.7055
  152SAPE  H20T16819   3.635   4.440   4.665 -2.1362  0.5683  2.2725
  152SAPE   C3316820   3.615   5.541   5.988 -0.1720 -0.2282 -0.2519
  152SAPE   H3X16821   3.625   5.631   6.053 -3.3311  0.8426 -1.0583
  152SAPE   H3Y16822   3.520   5.543   5.931  0.2640 -1.4588 -1.0598
  152SAPE   C3416823   3.732   5.552   5.884 -0.2463  0.1783 -0.5354
  152SAPE   H4X16824   3.824   5.553   5.947 -0.8216 -0.5299  0.3464
  152SAPE   H4Y16825   3.721   5.646   5.826  1.7732  2.0549  1.9015
  152SAPE   C3516826   3.739   5.439   5.784 -0.5788  0.1575  0.2515
  152SAPE   H5X16827   3.781   5.351   5.838  0.4199  0.2444 -0.3617
  152SAPE   H5Y16828   3.821   5.463   5.714 -0.6429  0.6982  0.3532
  152SAPE   C3616829   3.610   5.399   5.719 -0.7816 -0.3380  0.1156
  152SAPE   H6X16830   3.530   5.372   5.791 -1.5070 -0.2773 -0.6516
  152SAPE   H6Y16831   3.642   5.307   5.666  0.0326  0.5029 -0.9063
  152SAPE   C3716832   3.569   5.508   5.618  0.4948  0.1506  0.3582
  152SAPE   H7X16833   3.530   5.595   5.674  1.1843 -0.2552  1.5027
  152SAPE   H7Y16834   3.481   5.458   5.572 -1.1060  2.9851  0.1064
  152SAPE   C3816835   3.663   5.551   5.512  0.4331 -0.1769  0.0563
  152SAPE   H8X16836   3.677   5.467   5.440 -0.6106 -1.2617  1.0679
  152SAPE   H8Y16837   3.767   5.563   5.549 -0.1668  0.8143  1.4924
  152SAPE   C3916838   3.623   5.669   5.423 -1.0104 -0.2278  0.4075
  152SAPE   H9X16839   3.710   5.695   5.359  0.2361 -0.1585  2.0791
  152SAPE   H9Y16840   3.606   5.759   5.486  1.8118  2.7276 -2.6590
  152SAPE  C31016841   3.498   5.628   5.342  0.0021 -0.4583  0.7802
  152SAPE  H10X16842   3.420   5.585   5.408  0.6171  0.7874  2.3825
  152SAPE  H10Y16843   3.531   5.545   5.275 -2.4482  0.5570 -1.8812
  152SAPE  C31116844   3.446   5.734   5.244 -0.9848  0.2595  0.7968
  152SAPE  H11X16845   3.539   5.749   5.186  0.4614  0.6472  3.1092
  152SAPE  H11Y16846   3.413   5.834   5.278  0.6586  1.8963 -2.0377
  152SAPE  C31216847   3.342   5.676   5.148 -0.2423  0.3483 -0.2574
  152SAPE  H12X16848   3.387   5.594   5.087  3.0687  1.5871  0.3208
  152SAPE  H12Y16849   3.313   5.752   5.073 -0.5803  0.3357 -0.1400
  152SAPE  C31316850   3.218   5.632   5.214  0.2817 -0.9747 -0.6615
  152SAPE  H13X16851   3.200   5.710   5.291  1.0152 -1.8353  0.4233
  152SAPE  H13Y16852   3.232   5.537   5.271 -0.5635 -1.2727 -0.9374
  152SAPE  C31416853   3.100   5.640   5.115 -0.2324 -0.5040  1.2390
  152SAPE  H14X16854   3.109   5.732   5.054 -0.0844 -2.7557 -2.4918
  152SAPE  H14Y16855   3.012   5.632   5.182  0.8769  0.2152  2.8404
  152SAPE  C31516856   3.118   5.522   5.013 -0.0675  0.0380 -0.0413
  152SAPE  H15X16857   3.176   5.559   4.925  0.9139  2.0986  1.4029
  152SAPE  H15Y16858   3.022   5.495   4.965  1.8941 -3.3085 -2.6106
  152SAPE  C31616859   3.181   5.393   5.059  0.5830  0.1524  0.1182
  152SAPE  H16X16860   3.127   5.369   5.153 -1.0826 -0.1032 -0.8800
  152SAPE  H16Y16861   3.289   5.416   5.077  0.0065  2.8486  0.5997
  152SAPE  C31716862   3.162   5.278   4.967  0.1146  0.1395 -0.1053
  152SAPE  H17X16863   3.170   5.313   4.861  2.1604 -2.3527 -0.8784
  152SAPE  H17Y16864   3.062   5.231   4.985 -0.7873  1.7009 -0.8130
  152SAPE  C31816865   3.265   5.167   4.993  0.3229  0.1053  0.5024
  152SAPE  H18X16866   3.236   5.092   5.070  0.2036 -1.5547 -1.0846
  152SAPE  H18Y16867   3.360   5.210   5.032  2.5566 -1.8712 -2.3090
  152SAPE  H18Z16868   3.290   5.110   4.901  2.9864 -0.0658  1.2307
  153SAPE     N16869   0.598   3.852   6.696  0.3195 -0.7437  0.3389
  153SAPE   HN116870   0.504   3.813   6.679  0.4445 -0.8952 -0.0077
  153SAPE   HN216871   0.667   3.788   6.739  0.8612  0.5380  1.4667
  153SAPE   HN316872   0.581   3.921   6.772  3.9926 -1.0067  1.5932
  153SAPE   C1216873   0.662   3.926   6.581  0.0579  0.1686 -0.3745
  153SAPE  H12A16874   0.604   4.013   6.544 -0.1353  0.4085  0.4738
  153SAPE  H12B16875   0.682   3.849   6.502  1.0914 -1.7012  1.6023
  153SAPE   C1116876   0.791   3.994   6.637  0.0297 -0.2986 -0.0455
  153SAPE  H11A16877   0.845   4.031   6.547  0.9736 -0.6267  0.3701
  153SAPE  H11B16878   0.844   3.907   6.681  1.9059  1.6155  1.7413
  153SAPE     P16879   0.876   4.169   6.808  0.2251 -0.4214  0.1259
  153SAPE   O1316880   0.816   4.255   6.918  0.5426  0.0426  0.1676
  153SAPE   O1416881   0.967   4.062   6.857  0.1558 -0.2389 -0.1079
  153SAPE   O1216882   0.757   4.104   6.722  0.4117 -0.0479 -0.3682
  153SAPE   O1116883   0.953   4.258   6.708 -0.1714 -0.0991 -0.0098
  153SAPE    C116884   1.043   4.225   6.602  0.2929 -0.1438  0.0307
  153SAPE    HA16885   1.134   4.288   6.609  0.7967 -0.8543 -0.0146
  153SAPE    HB16886   1.086   4.123   6.608  0.6239  0.0576  1.3703
  153SAPE    C216887   0.969   4.274   6.475  0.2510 -0.2389 -0.0383
  153SAPE    HS16888   0.877   4.213   6.462  1.6156 -1.9728 -2.3324
  153SAPE   O2116889   1.047   4.265   6.353  0.1886 -0.3677 -0.1652
  153SAPE   C2116890   1.089   4.139   6.329 -0.2471 -0.5955 -0.6377
  153SAPE   O2216891   1.037   4.041   6.379 -0.0376 -0.1338 -0.7338
  153SAPE   C2216892   1.203   4.140   6.230  0.3279 -0.0979  0.3793
  153SAPE   H2R16893   1.162   4.168   6.131 -1.2292 -0.7057  0.8356
  153SAPE   H2S16894   1.282   4.212   6.262 -1.1036  0.8190  1.9765
  153SAPE    C316895   0.914   4.422   6.487 -0.6644 -0.6885  0.2299
  153SAPE    HX16896   0.998   4.494   6.473 -1.1941 -0.4038 -1.7710
  153SAPE    HY16897   0.874   4.433   6.590  2.8114 -0.1081  1.6649
  153SAPE   O3116898   0.820   4.443   6.380 -0.5101 -0.5328 -0.1068
  153SAPE   C3116899   0.735   4.538   6.410  0.0196 -0.8455 -0.3586
  153SAPE   O3216900   0.737   4.600   6.517  0.0896  0.0805  0.6726
  153SAPE   C3216901   0.635   4.539   6.292 -0.5158  0.2317  0.1706
  153SAPE   H2X16902   0.582   4.441   6.297  1.2980 -0.9800 -2.0767
  153SAPE   H2Y16903   0.697   4.541   6.200 -0.3507 -0.4516  0.2569
  153SAPE   C2316904   1.270   4.001   6.206 -0.3305 -0.3981 -0.3708
  153SAPE   H3R16905   1.211   3.930   6.144 -0.7164 -1.0334  0.6992
  153SAPE   H3S16906   1.290   3.945   6.300  3.1882  0.2927 -0.5849
  153SAPE   C2416907   1.401   4.016   6.123  0.0297 -0.2459 -0.3217
  153SAPE   H4R16908   1.466   4.091   6.173 -0.1259  0.7971 -1.5965
  153SAPE   H4S16909   1.366   4.065   6.029 -0.1123  0.1404 -0.0688
  153SAPE   C2516910   1.478   3.885   6.111  0.3073 -0.3941 -0.1674
  153SAPE   H5R16911   1.507   3.838   6.206 -0.9060 -1.3718 -0.2597
  153SAPE   C2616912   1.523   3.817   6.001  0.1240 -0.2775 -0.2503
  153SAPE   H6R16913   1.580   3.724   6.014  0.2428 -0.0626  0.8797
  153SAPE   C2716914   1.492   3.859   5.857  0.3213  0.4032  0.3927
  153SAPE   H7R16915   1.400   3.922   5.850 -1.3013 -1.6418  1.8416
  153SAPE   H7S16916   1.462   3.765   5.806  2.0651 -0.3254  0.6409
  153SAPE   C2816917   1.607   3.937   5.799 -0.3187 -0.4079  0.1853
  153SAPE   H8R16918   1.641   4.027   5.854  2.5442 -0.3686 -1.4436
  153SAPE   C2916919   1.679   3.910   5.683  0.4993 -0.3615 -0.1667
  153SAPE   H9R16920   1.767   3.975   5.668  0.3327  0.0411  0.5836
  153SAPE  C21016921   1.657   3.800   5.583 -0.3481 -0.5029  0.3129
  153SAPE  H10R16922   1.578   3.726   5.611 -0.7731 -0.9101 -1.7326
  153SAPE  H10S16923   1.752   3.743   5.573  0.4282  0.8600 -0.3126
  153SAPE  C21116924   1.625   3.859   5.454  0.2764  0.2489  0.0838
  153SAPE  H11R16925   1.580   3.959   5.457  0.2639  0.2399  0.1935
  153SAPE  C21216926   1.664   3.811   5.327 -0.6188  0.1660 -0.3331
  153SAPE  H12R16927   1.642   3.866   5.235 -0.1848 -0.4894 -0.8349
  153SAPE  C21316928   1.731   3.680   5.298 -0.6800 -0.2715  0.5788
  153SAPE  H13R16929   1.645   3.618   5.264  0.3584 -0.5710 -1.7712
  153SAPE  H13S16930   1.781   3.637   5.387  1.5026 -0.2736 -0.5673
  153SAPE  C21416931   1.829   3.697   5.182 -0.2890  0.4197 -0.0421
  153SAPE  H14R16932   1.935   3.696   5.211  0.1599  0.4444 -1.6108
  153SAPE  C21516933   1.798   3.692   5.046 -0.1824  0.3507 -0.9455
  153SAPE  H15R16934   1.884   3.698   4.978  0.6693  1.5689  0.1849
  153SAPE  C21616935   1.663   3.691   4.976 -0.0028  0.9841 -0.6148
  153SAPE  H16R16936   1.679   3.751   4.884  1.0920  0.9581 -0.4586
  153SAPE  H16S16937   1.582   3.729   5.041  1.2609  1.9843  0.4311
  153SAPE  C21716938   1.609   3.552   4.956 -0.8197  0.4100  1.0600
  153SAPE  H17R16939   1.586   3.503   5.053 -1.2184 -1.7688 -0.0708
  153SAPE  H17S16940   1.691   3.490   4.914 -0.7631 -1.1890  3.3609
  153SAPE  C21816941   1.495   3.544   4.857 -0.0144  0.7255  0.1055
  153SAPE  H18R16942   1.461   3.438   4.855 -3.3537  1.6559  1.1905
  153SAPE  H18S16943   1.538   3.566   4.757  3.2283 -4.5022 -0.0332
  153SAPE  C21916944   1.361   3.615   4.878 -0.4873  0.2314 -0.3332
  153SAPE  H19R16945   1.377   3.725   4.867 -1.4870  0.0802 -5.2811
  153SAPE  H19S16946   1.334   3.608   4.986 -1.5115 -1.3514 -0.6652
  153SAPE  C22016947   1.243   3.579   4.793 -0.0231 -0.3315  0.1009
  153SAPE  H20R16948   1.239   3.630   4.695  1.1918 -1.4198 -0.5476
  153SAPE  H20S16949   1.159   3.622   4.852  0.9202  1.6536  0.0593
  153SAPE  H20T16950   1.221   3.470   4.787 -0.9671 -0.1727  0.5226
  153SAPE   C3316951   0.534   4.656   6.299 -0.3879 -0.2922  0.1116
  153SAPE   H3X16952   0.594   4.746   6.324  0.4197 -0.0497 -2.4169
  153SAPE   H3Y16953   0.466   4.650   6.387  0.3335  2.0565  0.8990
  153SAPE   C3416954   0.468   4.683   6.158 -0.3896  0.6946  0.0685
  153SAPE   H4X16955   0.387   4.609   6.141 -0.5248  0.1924  2.5021
  153SAPE   H4Y16956   0.547   4.668   6.081  1.0935  0.7071  1.5257
  153SAPE   C3516957   0.410   4.826   6.131  0.3340  0.0565  0.7453
  153SAPE   H5X16958   0.484   4.903   6.163  2.0620 -1.3919  0.3544
  153SAPE   H5Y16959   0.326   4.835   6.203  1.1698 -0.1420  1.7761
  153SAPE   C3616960   0.355   4.853   5.991  0.3985  0.6862  0.6708
  153SAPE   H6X16961   0.443   4.882   5.930  0.8201 -0.6158  0.6287
  153SAPE   H6Y16962   0.276   4.931   5.994  1.5378  1.8466  1.7312
  153SAPE   C3716963   0.294   4.726   5.926 -0.0953 -0.4578  0.3472
  153SAPE   H7X16964   0.203   4.690   5.977  0.9573 -2.7496  0.7037
  153SAPE   H7Y16965   0.368   4.643   5.917  0.2064 -0.0840 -0.9014
  153SAPE   C3816966   0.257   4.740   5.779 -0.8403  0.4663 -0.3779
  153SAPE   H8X16967   0.207   4.838   5.764 -2.1285 -0.2863 -1.2977
  153SAPE   H8Y16968   0.183   4.664   5.746  0.1413 -1.5392  1.7122
  153SAPE   C3916969   0.369   4.758   5.680 -0.7354 -0.1152  0.0310
  153SAPE   H9X16970   0.448   4.680   5.686 -0.5290  0.0155 -0.9000
  153SAPE   H9Y16971   0.423   4.855   5.691  0.0090 -0.6367  1.1926
  153SAPE  C31016972   0.327   4.756   5.536 -0.4398 -0.2196  1.0386
  153SAPE  H10X16973   0.399   4.814   5.475 -0.4245 -0.9850  0.3053
  153SAPE  H10Y16974   0.231   4.812   5.527  0.0539  0.5771  0.5866
  153SAPE  C31116975   0.313   4.616   5.478  0.4489 -0.2797 -1.0998
  153SAPE  H11X16976   0.247   4.558   5.545 -0.4993  2.3307  0.3581
  153SAPE  H11Y16977   0.413   4.568   5.473  1.0164  0.4951  1.4027
  153SAPE  C31216978   0.253   4.623   5.338 -0.4364  0.1383 -0.1631
  153SAPE  H12X16979   0.155   4.675   5.342 -0.5916 -0.0074 -1.4729
  153SAPE  H12Y16980   0.239   4.516   5.309  1.2974  0.0107 -0.6563
  153SAPE  C31316981   0.331   4.692   5.230 -0.0008  0.2628  1.0739
  153SAPE  H13X16982   0.441   4.677   5.239 -0.1989 -1.4904  0.8290
  153SAPE  H13Y16983   0.309   4.801   5.231 -0.9130  0.0880  0.5549
  153SAPE  C31416984   0.281   4.653   5.092 -0.5550  0.1973  0.1388
  153SAPE  H14X16985   0.204   4.724   5.054 -1.8115 -1.4520 -0.4902
  153SAPE  H14Y16986   0.225   4.558   5.098  0.8307 -0.5845  1.6448
  153SAPE  C31516987   0.392   4.648   4.989  1.0318  0.4296 -0.7728
  153SAPE  H15X16988   0.360   4.586   4.902 -0.8798  2.1260 -1.3639
  153SAPE  H15Y16989   0.479   4.593   5.031  0.0477 -1.1869 -0.7525
  153SAPE  C31616990   0.440   4.785   4.941 -0.3953 -0.5084  0.3404
  153SAPE  H16X16991   0.450   4.857   5.025 -1.2731  0.7258 -0.5835
  153SAPE  H16Y16992   0.368   4.829   4.869  0.7420  3.5887  1.4561
  153SAPE  C31716993   0.585   4.767   4.880  0.2095 -0.5588 -0.4776
  153SAPE  H17X16994   0.646   4.710   4.953 -0.8710 -0.1956  0.7390
  153SAPE  H17Y16995   0.628   4.869   4.871  2.4390 -1.2106  1.8694
  153SAPE  C31816996   0.589   4.680   4.752 -0.0129  0.2647  0.5288
  153SAPE  H18X16997   0.503   4.611   4.739  0.5882 -0.0205 -2.8985
  153SAPE  H18Y16998   0.688   4.631   4.743  0.3749  1.2020 -0.6169
  153SAPE  H18Z16999   0.589   4.740   4.658  2.8438 -0.7332 -0.1844
  154SAPE     N17000   5.391   3.533   7.136 -0.2962 -0.7289 -0.0372
  154SAPE   HN117001   5.352   3.482   7.055 -1.0278 -0.6850  0.2758
  154SAPE   HN217002   5.325   3.555   7.213  2.1011 -0.8687  2.2085
  154SAPE   HN317003   5.424   3.626   7.105 -0.9646 -0.0832  1.1007
  154SAPE   C1217004   5.505   3.455   7.201  0.1311  0.1634 -0.5020
  154SAPE  H12A17005   5.489   3.452   7.311 -1.2296 -1.0418 -0.7036
  154SAPE  H12B17006   5.599   3.508   7.173  0.2976 -0.0153 -0.2932
  154SAPE   C1117007   5.515   3.313   7.147 -1.0650  0.0962 -0.4044
  154SAPE  H11A17008   5.425   3.249   7.162 -0.0531 -0.7428  2.8846
  154SAPE  H11B17009   5.597   3.260   7.199 -0.6918 -1.3977 -2.3988
  154SAPE     P17010   5.460   3.294   6.893 -0.5294  0.1921 -0.3067
  154SAPE   O1317011   5.328   3.331   6.946  0.1368 -0.0274  0.1805
  154SAPE   O1417012   5.502   3.365   6.772  0.8384  0.2899 -0.0832
  154SAPE   O1217013   5.566   3.320   7.012  0.0057  0.0794 -0.0046
  154SAPE   O1117014   5.460   3.137   6.872  0.0707 -0.5858 -0.0327
  154SAPE    C117015   5.576   3.083   6.806  0.1991 -0.5497 -0.5611
  154SAPE    HA17016   5.676   3.127   6.825 -0.7883  1.1602  1.0557
  154SAPE    HB17017   5.592   2.981   6.846  0.0869 -1.2947 -2.3322
  154SAPE    C217018   5.565   3.085   6.652 -0.7285 -0.5049  0.3408
  154SAPE    HS17019   5.573   3.194   6.631  0.7946 -0.9921 -1.9437
  154SAPE   O2117020   5.443   3.027   6.610  0.1647 -0.4436  0.5802
  154SAPE   C2117021   5.369   3.091   6.521  0.0907 -0.0883 -0.3070
  154SAPE   O2217022   5.391   3.206   6.486 -0.0197  0.4304 -1.0816
  154SAPE   C2217023   5.238   3.014   6.498  0.3285 -0.2330 -0.0889
  154SAPE   H2R17024   5.263   2.907   6.515 -0.2261 -0.4913 -0.8445
  154SAPE   H2S17025   5.167   3.042   6.578  0.8112  2.1696 -0.4280
  154SAPE    C317026   5.681   3.013   6.579  0.3480 -0.1255 -0.6264
  154SAPE    HX17027   5.691   2.912   6.625  1.7670 -0.1784 -0.9868
  154SAPE    HY17028   5.776   3.064   6.605 -0.4245  0.6053  0.9358
  154SAPE   O3117029   5.651   3.003   6.435 -0.1502  0.3657 -0.1803
  154SAPE   C3117030   5.679   3.117   6.369  1.0424 -0.0896  0.3063
  154SAPE   O3217031   5.714   3.220   6.423 -0.4498  0.0680  0.4541
  154SAPE   C3217032   5.677   3.089   6.214 -1.1917 -0.5809 -0.1583
  154SAPE   H2X17033   5.615   3.000   6.190  1.8166 -2.6060 -0.9862
  154SAPE   H2Y17034   5.780   3.062   6.183 -1.3458 -0.9303 -0.3727
  154SAPE   C2317035   5.173   3.034   6.354  0.2450  0.0866  0.6452
  154SAPE   H3R17036   5.114   3.128   6.366  0.0080  0.2224 -1.3671
  154SAPE   H3S17037   5.093   2.960   6.331 -0.0997 -0.5182  3.4051
  154SAPE   C2417038   5.270   3.039   6.235 -0.2641  0.0851  0.0220
  154SAPE   H4R17039   5.331   3.130   6.256  1.0235 -0.4984 -1.0655
  154SAPE   H4S17040   5.204   3.065   6.150 -0.0237 -0.0577 -0.2096
  154SAPE   C2517041   5.358   2.914   6.235 -0.8058 -0.2393  0.5564
  154SAPE   H5R17042   5.407   2.889   6.331  0.1798 -0.6390 -0.0327
  154SAPE   C2617043   5.378   2.826   6.133  0.2409  0.2230 -0.2112
  154SAPE   H6R17044   5.455   2.747   6.139 -1.8559 -1.8797  0.4036
  154SAPE   C2717045   5.315   2.836   5.998 -0.2635 -0.1736 -0.2138
  154SAPE   H7R17046   5.320   2.940   5.960 -2.2959  0.3114  0.7495
  154SAPE   H7S17047   5.209   2.807   6.016 -0.4702  1.1038  0.7583
  154SAPE   C2817048   5.369   2.735   5.904  0.0394 -0.2014 -0.1202
  154SAPE   H8R17049   5.423   2.648   5.945  1.4867  0.1764 -1.1368
  154SAPE   C2917050   5.362   2.734   5.766  0.5446  0.2869  0.3697
  154SAPE   H9R17051   5.423   2.663   5.708  0.8093  0.8724 -0.0774
  154SAPE  C21017052   5.292   2.839   5.683 -0.7584 -0.0235  0.0937
  154SAPE  H10R17053   5.371   2.863   5.608 -3.8006  1.2953 -2.9845
  154SAPE  H10S17054   5.277   2.930   5.745 -0.5705  2.0254 -2.6768
  154SAPE  C21117055   5.168   2.784   5.622  0.8195  0.0126  0.0484
  154SAPE  H11R17056   5.088   2.745   5.688  1.3806  1.2868  1.5565
  154SAPE  C21217057   5.143   2.781   5.492 -0.4040 -0.2875  0.3279
  154SAPE  H12R17058   5.047   2.742   5.455 -1.2304  0.9585  1.0957
  154SAPE  C21317059   5.231   2.837   5.377  0.1843  0.1516  0.1955
  154SAPE  H13R17060   5.275   2.752   5.322  0.3252  0.2666  0.1279
  154SAPE  H13S17061   5.305   2.901   5.429  2.5760 -0.3808 -2.3158
  154SAPE  C21417062   5.156   2.928   5.282  1.0027  0.5057 -0.5471
  154SAPE  H14R17063   5.126   3.024   5.324 -2.5348 -0.8546  0.3706
  154SAPE  C21517064   5.111   2.898   5.160  0.0942 -0.0373  0.0343
  154SAPE  H15R17065   5.057   2.975   5.103  0.3428 -0.1150 -0.3088
  154SAPE  C21617066   5.124   2.761   5.096 -0.6122  0.1078  0.1433
  154SAPE  H16R17067   5.020   2.731   5.073  0.4844 -2.4478 -2.1545
  154SAPE  H16S17068   5.164   2.682   5.163  0.3707  1.4924  1.2606
  154SAPE  C21717069   5.216   2.750   4.973  0.0819 -0.4437 -0.0282
  154SAPE  H17R17070   5.206   2.837   4.905 -0.5044  0.5024  1.2440
  154SAPE  H17S17071   5.188   2.665   4.907  0.7154 -0.1669 -0.6691
  154SAPE  C21817072   5.358   2.730   5.021 -0.3550 -0.0423  0.5474
  154SAPE  H18R17073   5.368   2.638   5.082  0.0746  1.1072  2.2613
  154SAPE  H18S17074   5.378   2.812   5.093  0.7646 -1.7013  2.2041
  154SAPE  C21917075   5.462   2.727   4.906 -0.1088  0.0482 -0.3142
  154SAPE  H19R17076   5.438   2.636   4.848 -1.8924 -1.2544  2.2563
  154SAPE  H19S17077   5.561   2.725   4.957 -0.4489 -1.9430  0.3662
  154SAPE  C22017078   5.467   2.842   4.811  0.3038  0.7894  0.4029
  154SAPE  H20R17079   5.466   2.941   4.862  0.2337  0.2585  1.4576
  154SAPE  H20S17080   5.373   2.843   4.752  1.9560  0.4161 -2.3983
  154SAPE  H20T17081   5.545   2.829   4.733 -1.3225  0.7710 -1.2857
  154SAPE   C3317082   5.623   3.206   6.132  0.3280 -0.3407  0.0439
  154SAPE   H3X17083   5.687   3.297   6.128 -1.6522  1.0783 -1.1818
  154SAPE   H3Y17084   5.532   3.235   6.189  0.4203 -0.1099  0.0725
  154SAPE   C3417085   5.576   3.165   5.992 -0.1592 -0.0635  0.1649
  154SAPE   H4X17086   5.498   3.086   5.992  0.5589 -0.7905  0.9443
  154SAPE   H4Y17087   5.663   3.124   5.936  0.5278 -1.0368  1.8590
  154SAPE   C3517088   5.508   3.279   5.914 -0.3296  0.2357 -0.6897
  154SAPE   H5X17089   5.560   3.378   5.911  0.2719  0.1108  2.1345
  154SAPE   H5Y17090   5.416   3.299   5.974  0.5760 -0.1955  0.9169
  154SAPE   C3617091   5.469   3.231   5.773 -0.6307 -0.0401 -0.6028
  154SAPE   H6X17092   5.417   3.133   5.767 -2.9171  1.1632 -1.6656
  154SAPE   H6Y17093   5.566   3.216   5.721 -0.8025 -0.1935 -0.8798
  154SAPE   C3717094   5.377   3.330   5.707  0.2546  0.1507  0.3395
  154SAPE   H7X17095   5.431   3.425   5.727 -0.5819 -0.0211  4.2414
  154SAPE   H7Y17096   5.283   3.328   5.766  2.3508  1.0444  4.0338
  154SAPE   C3817097   5.343   3.308   5.556  0.0225  0.4285  0.1508
  154SAPE   H8X17098   5.291   3.211   5.540  0.3562 -0.0636  1.7981
  154SAPE   H8Y17099   5.432   3.297   5.491  0.1356 -1.1511  0.5190
  154SAPE   C3917100   5.262   3.425   5.498  0.5318  0.0756 -0.3284
  154SAPE   H9X17101   5.333   3.492   5.445 -0.0136  0.3625 -0.7059
  154SAPE   H9Y17102   5.206   3.467   5.584 -2.4732  1.8547 -2.9494
  154SAPE  C31017103   5.169   3.383   5.382 -0.2038  0.5767 -0.3668
  154SAPE  H10X17104   5.091   3.461   5.371 -1.6677 -0.8998 -1.0024
  154SAPE  H10Y17105   5.115   3.290   5.410 -1.1005  0.6828 -1.6360
  154SAPE  C31117106   5.234   3.366   5.251  0.4293 -0.7540  0.1482
  154SAPE  H11X17107   5.298   3.276   5.261 -0.0192 -1.2058 -0.8750
  154SAPE  H11Y17108   5.304   3.451   5.233  0.6795 -0.3746  2.5795
  154SAPE  C31217109   5.124   3.346   5.141 -0.1316 -0.5559  0.5655
  154SAPE  H12X17110   5.057   3.435   5.132  1.5443  0.7065 -0.0669
  154SAPE  H12Y17111   5.051   3.269   5.173 -3.1242  0.7811 -2.4447
  154SAPE  C31317112   5.183   3.291   5.009  0.3527  0.1077 -0.1101
  154SAPE  H13X17113   5.243   3.203   5.042  1.0701  0.6801  0.1356
  154SAPE  H13Y17114   5.242   3.371   4.959  2.3013 -0.9775  0.3550
  154SAPE  C31417115   5.085   3.235   4.911  0.5154  0.3376  0.2352
  154SAPE  H14X17116   5.008   3.311   4.885 -0.4015 -1.0257 -1.2492
  154SAPE  H14Y17117   5.013   3.163   4.956  0.3507 -0.7125 -1.5855
  154SAPE  C31517118   5.143   3.186   4.776 -0.8779  0.6110 -0.4832
  154SAPE  H15X17119   5.205   3.094   4.789  1.5943  2.0854 -1.1108
  154SAPE  H15Y17120   5.209   3.267   4.739  0.4480  0.0074  0.4730
  154SAPE  C31617121   5.045   3.158   4.664  0.2369  0.4463  0.2357
  154SAPE  H16X17122   4.971   3.238   4.645 -0.0855  0.9881  3.2523
  154SAPE  H16Y17123   4.984   3.069   4.690  0.2322  0.4817  0.3443
  154SAPE  C31717124   5.116   3.122   4.528  0.3422  0.1279  0.2108
  154SAPE  H17X17125   5.039   3.069   4.468  0.8161  0.4770 -0.7164
  154SAPE  H17Y17126   5.201   3.056   4.555  0.1205  0.0303  0.6915
  154SAPE  C31817127   5.144   3.247   4.446 -0.5196 -0.1918 -0.5061
  154SAPE  H18X17128   5.175   3.335   4.506  0.9824 -1.4477  0.6384
  154SAPE  H18Y17129   5.042   3.275   4.409 -0.5846 -0.5827 -0.6252
  154SAPE  H18Z17130   5.216   3.216   4.368  1.2767  1.1492  0.5590
  155SAPE     N17131   0.815   5.661   6.953 -0.3444  0.4351 -0.0074
  155SAPE   HN117132   0.766   5.570   6.961 -2.3480  1.5749  1.3794
  155SAPE   HN217133   0.754   5.736   6.992  1.7720  2.1911  0.1333
  155SAPE   HN317134   0.835   5.682   6.853 -1.2826  1.2103 -0.0422
  155SAPE   C1217135   0.947   5.646   7.026  0.2672 -0.3369 -0.0077
  155SAPE  H12A17136   0.927   5.622   7.133 -2.1956  1.5675  0.0352
  155SAPE  H12B17137   0.989   5.746   7.002  0.3670 -0.3310  0.1811
  155SAPE   C1117138   1.034   5.536   6.959  0.2217 -0.3306 -0.0934
  155SAPE  H11A17139   1.117   5.520   7.031  1.1908 -0.1232 -1.1282
  155SAPE  H11B17140   1.073   5.576   6.863  1.1845 -0.5422  0.1985
  155SAPE     P17141   1.029   5.287   6.872 -0.2530  0.1576 -0.0220
  155SAPE   O1317142   1.157   5.268   6.934  0.7323  0.1824  0.2091
  155SAPE   O1417143   0.934   5.176   6.879  0.2058  0.5041 -0.0270
  155SAPE   O1217144   0.959   5.421   6.935  0.0994  0.2141  0.0404
  155SAPE   O1117145   1.047   5.326   6.723 -0.5677 -0.2958 -0.8383
  155SAPE    C117146   0.949   5.382   6.637 -0.0541 -0.8419  0.3747
  155SAPE    HA17147   0.892   5.460   6.693  1.3952  1.6474 -1.3663
  155SAPE    HB17148   0.999   5.449   6.563 -3.7508  4.0495  1.7243
  155SAPE    C217149   0.847   5.275   6.581 -0.0384 -0.4728  1.0132
  155SAPE    HS17150   0.821   5.211   6.668 -3.0945 -0.4047  0.2789
  155SAPE   O2117151   0.923   5.190   6.492  0.7415 -0.1543 -0.4063
  155SAPE   C2117152   0.873   5.081   6.444 -0.3472 -0.2726  0.1987
  155SAPE   O2217153   0.762   5.037   6.467 -0.4877  0.2613 -0.3287
  155SAPE   C2217154   0.972   5.021   6.355 -0.0925  0.5153  0.1771
  155SAPE   H2R17155   1.003   5.092   6.275  2.9571  0.3067  1.0391
  155SAPE   H2S17156   1.069   5.007   6.409  0.7411  1.0242 -1.1366
  155SAPE    C317157   0.720   5.336   6.511  0.3487 -0.2601 -0.1764
  155SAPE    HX17158   0.638   5.262   6.523 -2.4107  2.7717  1.6043
  155SAPE    HY17159   0.736   5.335   6.401 -0.9996 -0.2917 -0.3854
  155SAPE   O3117160   0.676   5.468   6.546  0.7982 -0.0376  0.0779
  155SAPE   C3117161   0.562   5.495   6.614 -0.6455  0.3259  0.2531
  155SAPE   O3217162   0.501   5.403   6.675  0.1402  0.5131  0.2156
  155SAPE   C3217163   0.525   5.644   6.603 -0.0105 -0.2115  0.5180
  155SAPE   H2X17164   0.604   5.709   6.646 -0.6936 -0.3880  2.1096
  155SAPE   H2Y17165   0.435   5.638   6.668 -0.7349 -1.6689 -0.5701
  155SAPE   C2317166   0.926   4.886   6.302  0.3183  0.1122  1.1064
  155SAPE   H3R17167   0.834   4.902   6.242  1.4091  2.9801  0.0701
  155SAPE   H3S17168   0.891   4.814   6.379 -1.5479  1.6350  1.7482
  155SAPE   C2417169   1.032   4.815   6.217 -0.0812 -0.6411  0.4973
  155SAPE   H4R17170   1.135   4.817   6.259  0.6595  5.0619 -0.7000
  155SAPE   H4S17171   1.031   4.878   6.126  0.5947 -1.2403  0.0708
  155SAPE   C2517172   0.994   4.675   6.184 -0.1228 -0.3990  0.2226
  155SAPE   H5R17173   1.026   4.603   6.260  1.4073 -1.7819 -1.6387
  155SAPE   C2617174   0.967   4.624   6.066 -0.2561  0.0496 -0.1064
  155SAPE   H6R17175   0.929   4.522   6.080  2.3639 -0.9953  0.1098
  155SAPE   C2717176   0.928   4.695   5.939  0.3473  0.0697 -0.0538
  155SAPE   H7R17177   0.966   4.636   5.852  0.2828 -0.6767  0.4163
  155SAPE   H7S17178   0.971   4.795   5.917 -2.8672  1.3966 -0.9866
  155SAPE   C2817179   0.781   4.711   5.930  0.5395 -0.4312  0.1985
  155SAPE   H8R17180   0.737   4.754   6.022  1.7731  2.4891 -0.4520
  155SAPE   C2917181   0.698   4.708   5.827  0.5641  0.3551  0.6628
  155SAPE   H9R17182   0.590   4.721   5.843 -0.3506 -2.0743 -2.4615
  155SAPE  C21017183   0.733   4.683   5.683 -0.8635  0.0523  0.1323
  155SAPE  H10R17184   0.668   4.599   5.649 -0.3463 -0.4706  0.4169
  155SAPE  H10S17185   0.840   4.656   5.682 -0.8252  0.0333  2.0811
  155SAPE  C21117186   0.715   4.793   5.584 -0.3007 -0.2898 -0.0625
  155SAPE  H11R17187   0.673   4.885   5.626 -3.4269 -1.0560 -1.1910
  155SAPE  C21217188   0.765   4.800   5.457 -0.8116  0.2345  0.3820
  155SAPE  H12R17189   0.737   4.883   5.391 -2.9904 -0.9626 -0.3063
  155SAPE  C21317190   0.837   4.689   5.382  0.3612  0.2152  0.5542
  155SAPE  H13R17191   0.772   4.652   5.300  1.1075  2.3672 -1.1287
  155SAPE  H13S17192   0.849   4.601   5.448 -1.4248 -0.5511 -0.0751
  155SAPE  C21417193   0.973   4.731   5.335 -0.1336 -0.4354  0.3170
  155SAPE  H14R17194   1.045   4.740   5.418 -1.3626  2.6232  1.1813
  155SAPE  C21517195   1.005   4.770   5.209 -0.4220  0.4345  0.4097
  155SAPE  H15R17196   1.104   4.810   5.183 -1.1051  1.6794 -0.3746
  155SAPE  C21617197   0.915   4.777   5.086 -0.1528  0.0507 -0.6631
  155SAPE  H16R17198   0.809   4.748   5.103  0.5331 -2.5016 -0.4033
  155SAPE  H16S17199   0.950   4.710   5.004 -0.8805  0.1923 -1.0959
  155SAPE  C21717200   0.915   4.914   5.016  0.2944  0.6722 -0.5658
  155SAPE  H17R17201   0.916   5.000   5.087 -0.8360  0.3933 -0.1914
  155SAPE  H17S17202   0.824   4.921   4.953  0.6328  3.5434 -0.8862
  155SAPE  C21817203   1.040   4.933   4.927  0.4490 -0.7577 -0.1051
  155SAPE  H18R17204   1.030   4.845   4.859 -1.0875  0.6753 -1.8467
  155SAPE  H18S17205   1.131   4.931   4.989  1.5287  1.5993 -1.4604
  155SAPE  C21917206   1.030   5.063   4.843  0.7752  0.8812  0.0422
  155SAPE  H19R17207   0.937   5.114   4.878  1.2519 -0.7048  4.2481
  155SAPE  H19S17208   1.026   5.047   4.733 -1.2283  0.9051  0.0612
  155SAPE  C22017209   1.138   5.161   4.880  0.2792  0.0486  0.5684
  155SAPE  H20R17210   1.236   5.110   4.885  0.4981  0.2537 -1.0690
  155SAPE  H20S17211   1.119   5.211   4.977 -0.3157  0.9032  0.0286
  155SAPE  H20T17212   1.149   5.236   4.799  0.7787 -2.0351 -1.3926
  155SAPE   C3317213   0.468   5.696   6.469  0.0999  0.1036 -0.3984
  155SAPE   H3X17214   0.414   5.792   6.483 -0.3287  0.0285 -1.3992
  155SAPE   H3Y17215   0.392   5.619   6.441  2.1852 -1.2706 -2.6509
  155SAPE   C3417216   0.577   5.717   6.361  0.4118  0.0602  0.5341
  155SAPE   H4X17217   0.641   5.627   6.350 -1.5473 -1.2619 -0.8026
  155SAPE   H4Y17218   0.639   5.803   6.393  0.1420  0.4052  0.1303
  155SAPE   C3517219   0.528   5.733   6.218  0.2695  0.0566 -0.0026
  155SAPE   H5X17220   0.455   5.816   6.205 -0.2322 -0.5663 -1.3666
  155SAPE   H5Y17221   0.470   5.639   6.210  0.1722  0.1051  0.1301
  155SAPE   C3617222   0.629   5.731   6.109  0.4243 -0.1145  0.4566
  155SAPE   H6X17223   0.698   5.646   6.127 -0.7820 -1.3497 -0.4793
  155SAPE   H6Y17224   0.690   5.823   6.098 -1.5989  1.1662 -0.7817
  155SAPE   C3717225   0.555   5.706   5.976  0.5461  0.0846  0.2091
  155SAPE   H7X17226   0.476   5.783   5.968 -0.1156 -0.6998 -1.1541
  155SAPE   H7Y17227   0.493   5.614   5.974 -0.9678  1.0699  0.1627
  155SAPE   C3817228   0.643   5.718   5.849 -0.2636  0.4114 -0.4862
  155SAPE   H8X17229   0.724   5.643   5.864  1.2407  2.0452 -0.0789
  155SAPE   H8Y17230   0.679   5.823   5.847 -2.3789  1.3022  1.9103
  155SAPE   C3917231   0.569   5.675   5.721  0.8996 -0.1774 -0.0505
  155SAPE   H9X17232   0.486   5.749   5.713  1.3385  0.7224  2.6891
  155SAPE   H9Y17233   0.525   5.574   5.733 -0.7970  0.2156 -2.2126
  155SAPE  C31017234   0.661   5.675   5.603  0.1014  0.9514 -0.1916
  155SAPE  H10X17235   0.735   5.594   5.615 -2.8210 -1.8784  0.1625
  155SAPE  H10Y17236   0.721   5.769   5.600  1.2158  0.3735  2.1502
  155SAPE  C31117237   0.590   5.630   5.474  0.2048 -0.5538 -0.5926
  155SAPE  H11X17238   0.500   5.694   5.463 -1.2594 -2.5075 -0.5145
  155SAPE  H11Y17239   0.554   5.526   5.490 -1.0000 -0.0976 -0.2456
  155SAPE  C31217240   0.671   5.626   5.348 -0.5889 -0.2051 -0.5728
  155SAPE  H12X17241   0.649   5.529   5.297 -1.4094 -0.9096  1.0438
  155SAPE  H12Y17242   0.778   5.608   5.372 -0.6449  0.4188  0.1980
  155SAPE  C31317243   0.663   5.752   5.266  0.3072  0.7454 -0.4296
  155SAPE  H13X17244   0.560   5.792   5.258 -1.4258 -3.0342  0.4648
  155SAPE  H13Y17245   0.704   5.726   5.166  1.6659  0.7122  0.1157
  155SAPE  C31417246   0.750   5.863   5.328 -0.2319 -0.1770 -0.7456
  155SAPE  H14X17247   0.853   5.825   5.343 -0.4739  0.2772  3.1074
  155SAPE  H14Y17248   0.730   5.898   5.431  0.6216  0.7735 -0.8921
  155SAPE  C31517249   0.741   5.987   5.237  0.8174 -0.2283  0.3347
  155SAPE  H15X17250   0.763   6.067   5.311 -2.1560  0.3789  0.7049
  155SAPE  H15Y17251   0.644   5.992   5.183  1.6523 -2.0184 -1.4689
  155SAPE  C31617252   0.848   6.003   5.136 -0.0177 -0.1680  0.5861
  155SAPE  H16X17253   0.855   5.911   5.073  0.8934  0.7546 -0.7342
  155SAPE  H16Y17254   0.938   6.028   5.195 -0.6856 -0.1319  1.6072
  155SAPE  C31717255   0.827   6.111   5.025  0.1969 -0.2267 -0.2154
  155SAPE  H17X17256   0.797   6.210   5.065 -1.8592 -0.4341 -1.1252
  155SAPE  H17Y17257   0.750   6.072   4.955 -2.4894  0.8082  1.9540
  155SAPE  C31817258   0.948   6.142   4.946  0.2199  0.8120 -0.1941
  155SAPE  H18X17259   0.949   6.068   4.864 -1.2724 -1.1650  1.4671
  155SAPE  H18Y17260   1.046   6.144   4.998 -0.4355 -0.5634  1.1739
  155SAPE  H18Z17261   0.915   6.234   4.892 -2.5325 -0.4093 -0.7647
  156SAPE     N17262   1.315   4.304   7.056 -0.0944 -0.2942  0.3474
  156SAPE   HN117263   1.416   4.299   7.030 -0.0130  1.0883  0.3120
  156SAPE   HN217264   1.289   4.405   7.057  3.3955  0.8410 -2.3128
  156SAPE   HN317265   1.304   4.272   7.154 -0.1259  1.3773  0.9285
  156SAPE   C1217266   1.230   4.218   6.962 -0.7824  0.6363 -0.0333
  156SAPE  H12A17267   1.136   4.274   6.940 -0.8839  0.8583  0.9336
  156SAPE  H12B17268   1.213   4.129   7.026  1.6145  0.9795  1.1631
  156SAPE   C1117269   1.307   4.171   6.836 -0.5363 -0.1588 -0.1923
  156SAPE  H11A17270   1.312   4.246   6.753  2.1763  1.2884  1.1468
  156SAPE  H11B17271   1.250   4.088   6.790  1.4222 -0.7847 -1.6207
  156SAPE     P17272   1.535   4.043   6.785  0.1479  0.3523  0.2764
  156SAPE   O1317273   1.679   4.068   6.782  0.3692 -0.1431 -0.2887
  156SAPE   O1417274   1.496   3.907   6.838 -0.6897 -0.6911 -0.3097
  156SAPE   O1217275   1.451   4.141   6.872 -0.9170 -0.0396 -0.0030
  156SAPE   O1117276   1.475   4.059   6.639 -0.5675 -0.4693 -0.0222
  156SAPE    C117277   1.433   3.939   6.569  0.3459 -0.3453 -0.3434
  156SAPE    HA17278   1.380   3.870   6.638 -1.2391 -0.9078 -2.0687
  156SAPE    HB17279   1.355   3.975   6.499 -0.8228 -2.0713  0.0056
  156SAPE    C217280   1.550   3.860   6.513  0.5820 -0.1345 -0.3779
  156SAPE    HS17281   1.610   3.843   6.606 -0.3404  0.1431  0.2843
  156SAPE   O2117282   1.610   3.939   6.411  0.0556 -0.1626 -0.8905
  156SAPE   C2117283   1.742   3.948   6.413 -0.2078  0.0478 -0.4514
  156SAPE   O2217284   1.815   3.890   6.489  0.3740 -0.5175  0.0832
  156SAPE   C2217285   1.785   4.047   6.300  0.7689  0.3590 -0.0914
  156SAPE   H2R17286   1.813   3.981   6.215  0.6005  0.1299  0.0311
  156SAPE   H2S17287   1.707   4.119   6.267 -0.1899 -0.9388 -0.7001
  156SAPE    C317288   1.507   3.725   6.447 -0.1338  0.5802  0.1249
  156SAPE    HX17289   1.429   3.738   6.370  1.4497  0.1364 -1.6339
  156SAPE    HY17290   1.467   3.664   6.531  0.7415 -0.0492  0.1065
  156SAPE   O3117291   1.619   3.651   6.388  0.0243 -0.5089 -0.2193
  156SAPE   C3117292   1.688   3.574   6.466  0.0605 -0.4463  0.1896
  156SAPE   O3217293   1.692   3.591   6.586  0.0183  0.0611 -0.4789
  156SAPE   C3217294   1.778   3.475   6.393  0.0027 -0.0073  0.2719
  156SAPE   H2X17295   1.853   3.442   6.469  1.3260  1.4515 -0.3307
  156SAPE   H2Y17296   1.833   3.533   6.315 -1.4356  0.6090 -0.3137
  156SAPE   C2317297   1.905   4.136   6.341 -0.4733 -0.2226 -0.3578
  156SAPE   H3R17298   1.948   4.184   6.250  0.9408  0.7200  0.7622
  156SAPE   H3S17299   1.982   4.064   6.378  0.4194 -0.7600 -3.0487
  156SAPE   C2417300   1.869   4.253   6.431  0.0195 -0.1341  0.0244
  156SAPE   H4R17301   1.966   4.294   6.468  0.1654  0.0913 -0.5860
  156SAPE   H4S17302   1.816   4.215   6.520 -0.5856  0.4815 -0.0721
  156SAPE   C2517303   1.793   4.374   6.366  0.0996  0.7674 -0.2579
  156SAPE   H5R17304   1.703   4.347   6.308  0.2405 -0.4198  0.0358
  156SAPE   C2617305   1.828   4.503   6.367  0.5431  0.2364 -0.4538
  156SAPE   H6R17306   1.765   4.573   6.310  0.1756  0.8718  0.7077
  156SAPE   C2717307   1.940   4.567   6.438  0.4288 -0.4887  0.8036
  156SAPE   H7R17308   2.001   4.610   6.356  0.1145  1.8228  1.7003
  156SAPE   H7S17309   1.993   4.486   6.492 -0.5267 -1.6502  0.0472
  156SAPE   C2817310   1.897   4.678   6.531 -0.0563  0.3818 -0.1570
  156SAPE   H8R17311   1.794   4.678   6.570 -0.2238 -2.7029 -0.3706
  156SAPE   C2917312   1.972   4.791   6.563  0.2004  0.0733  0.2080
  156SAPE   H9R17313   1.927   4.870   6.623 -0.9979  0.3068 -0.9449
  156SAPE  C21017314   2.103   4.836   6.507 -0.0003  0.3172 -0.4355
  156SAPE  H10R17315   2.153   4.748   6.460  1.3803  0.8773 -0.0540
  156SAPE  H10S17316   2.174   4.862   6.589 -2.5195  0.7370  1.7360
  156SAPE  C21117317   2.065   4.950   6.410 -0.0305  0.1828  0.4340
  156SAPE  H11R17318   2.030   5.036   6.470 -0.7831  1.0166 -1.1403
  156SAPE  C21217319   2.105   4.965   6.286 -0.2592  0.1379  0.1933
  156SAPE  H12R17320   2.071   5.051   6.227  1.4766 -0.4540 -1.8021
  156SAPE  C21317321   2.172   4.859   6.204 -0.0770 -0.3604 -0.2611
  156SAPE  H13R17322   2.103   4.773   6.188  1.1181 -1.3082 -0.4419
  156SAPE  H13S17323   2.262   4.822   6.258  0.0001 -2.7724 -1.8728
  156SAPE  C21417324   2.223   4.904   6.072 -0.4882  0.6317  0.0249
  156SAPE  H14R17325   2.332   4.919   6.072 -0.7667  3.2585 -1.5350
  156SAPE  C21517326   2.162   4.915   5.952  0.3724  0.5380 -0.2923
  156SAPE  H15R17327   2.222   4.949   5.866  2.1381 -1.4998  0.0390
  156SAPE  C21617328   2.016   4.874   5.944 -0.5017  0.0665 -0.3938
  156SAPE  H16R17329   1.969   4.957   5.887  0.5229  0.7088 -0.3159
  156SAPE  H16S17330   1.966   4.862   6.043 -0.4649 -1.2964 -0.5245
  156SAPE  C21717331   2.001   4.743   5.862 -0.8473 -0.1478  0.2375
  156SAPE  H17R17332   2.057   4.656   5.902  2.8878  0.8687 -2.2774
  156SAPE  H17S17333   2.048   4.765   5.764 -1.0466 -1.3430 -0.1331
  156SAPE  C21817334   1.856   4.690   5.825  0.3442 -0.3877 -0.1550
  156SAPE  H18R17335   1.805   4.665   5.921  0.7480 -0.2893  0.0845
  156SAPE  H18S17336   1.862   4.616   5.742 -3.0348 -0.3889 -0.5685
  156SAPE  C21917337   1.757   4.801   5.764 -0.5709  1.0509 -0.4032
  156SAPE  H19R17338   1.807   4.855   5.681 -2.1436  3.3429  0.0414
  156SAPE  H19S17339   1.732   4.867   5.849  1.7535 -0.3824  1.5093
  156SAPE  C22017340   1.622   4.737   5.714  0.4130 -0.3055 -0.0994
  156SAPE  H20R17341   1.569   4.698   5.804 -0.2446 -1.5897 -1.0116
  156SAPE  H20S17342   1.638   4.652   5.645  2.6907 -0.0906  0.0869
  156SAPE  H20T17343   1.557   4.818   5.674  1.4825  0.4481 -0.3386
  156SAPE   C3317344   1.701   3.371   6.306  0.0710  0.0777  0.2956
  156SAPE   H3X17345   1.617   3.332   6.367  0.6191 -1.4856  0.0926
  156SAPE   H3Y17346   1.779   3.294   6.289  1.5629  1.8180 -1.1935
  156SAPE   C3417347   1.656   3.424   6.163  0.5638  1.0207 -0.2437
  156SAPE   H4X17348   1.735   3.492   6.126  2.2943 -0.9971 -0.4977
  156SAPE   H4Y17349   1.568   3.486   6.189 -0.8731 -1.8493  2.4440
  156SAPE   C3517350   1.628   3.331   6.051  0.1210 -0.0879 -0.0043
  156SAPE   H5X17351   1.535   3.276   6.075  0.9550 -1.2137  0.7251
  156SAPE   H5Y17352   1.716   3.264   6.043 -0.1137 -0.5472  1.0941
  156SAPE   C3617353   1.617   3.406   5.923 -0.0073  0.2497  0.0751
  156SAPE   H6X17354   1.696   3.482   5.910 -0.1748  0.4993  0.5075
  156SAPE   H6Y17355   1.523   3.465   5.926  1.0380  2.0066 -0.4970
  156SAPE   C3717356   1.618   3.303   5.808  0.0604  0.0457 -0.0400
  156SAPE   H7X17357   1.545   3.223   5.832  1.0310 -1.6703 -2.4277
  156SAPE   H7Y17358   1.718   3.256   5.806  0.3691  0.7087 -0.5151
  156SAPE   C3817359   1.595   3.358   5.667 -0.2733  0.3035  1.0353
  156SAPE   H8X17360   1.669   3.439   5.651  0.3130 -0.0607  1.8401
  156SAPE   H8Y17361   1.493   3.403   5.665  0.3839  1.8267 -1.2000
  156SAPE   C3917362   1.613   3.244   5.561 -0.1388 -0.3887  0.6920
  156SAPE   H9X17363   1.536   3.164   5.572 -0.0598 -0.7685 -1.1503
  156SAPE   H9Y17364   1.712   3.197   5.580  0.2121  0.7108  1.7031
  156SAPE  C31017365   1.607   3.283   5.412 -0.4766 -0.6195  0.5465
  156SAPE  H10X17366   1.688   3.357   5.391 -1.2944  0.3136  0.5969
  156SAPE  H10Y17367   1.513   3.343   5.408  0.1201  0.2852 -0.4507
  156SAPE  C31117368   1.610   3.166   5.309 -0.1690 -0.7849  0.5907
  156SAPE  H11X17369   1.549   3.087   5.358 -0.7937 -0.1710  0.8189
  156SAPE  H11Y17370   1.705   3.109   5.293 -1.9450 -3.0960 -3.0088
  156SAPE  C31217371   1.546   3.203   5.174  1.2154 -0.5072  0.3393
  156SAPE  H12X17372   1.610   3.266   5.109 -0.3293  0.1829 -0.5661
  156SAPE  H12Y17373   1.448   3.255   5.181  1.6539  0.5033 -0.7414
  156SAPE  C31317374   1.520   3.068   5.098 -1.1406 -0.0378  0.0795
  156SAPE  H13X17375   1.448   3.018   5.166 -0.4339 -0.7230  0.3345
  156SAPE  H13Y17376   1.611   3.005   5.103 -0.9414  0.2522  0.1125
  156SAPE  C31417377   1.475   3.085   4.956  0.0353 -0.0170 -0.3803
  156SAPE  H14X17378   1.460   2.982   4.917 -1.3838 -0.2235  0.6135
  156SAPE  H14Y17379   1.542   3.134   4.882  0.3965  0.9214  0.5444
  156SAPE  C31517380   1.335   3.156   4.944 -0.2572  0.1804 -0.6575
  156SAPE  H15X17381   1.311   3.164   4.836  0.0180 -1.7960 -0.9100
  156SAPE  H15Y17382   1.356   3.255   4.990  0.1422  1.2783 -3.0320
  156SAPE  C31617383   1.211   3.097   5.009  0.1384 -0.2110 -0.1887
  156SAPE  H16X17384   1.136   3.176   5.033  0.0557 -0.6083  0.9411
  156SAPE  H16Y17385   1.227   3.057   5.111 -1.4183 -1.9159 -0.5474
  156SAPE  C31717386   1.155   2.978   4.930  0.1301 -0.1027  0.2355
  156SAPE  H17X17387   1.217   2.893   4.965  0.7778  0.0568 -0.5089
  156SAPE  H17Y17388   1.167   3.001   4.822 -3.4266  0.2567 -0.1979
  156SAPE  C31817389   1.011   2.948   4.970  0.8440 -0.1076  0.0007
  156SAPE  H18X17390   0.954   2.885   4.897 -0.5438  0.2992  0.6872
  156SAPE  H18Y17391   0.952   3.041   4.963 -0.7261 -1.1117 -0.7968
  156SAPE  H18Z17392   1.010   2.914   5.076 -1.5525  1.4276  0.5633
  157SAPE     N17393   1.414   0.011   6.930  0.0808 -0.5143 -0.0586
  157SAPE   HN117394   1.342  -0.062   6.948 -1.7228  1.1310 -0.1470
  157SAPE   HN217395   1.402   0.088   7.000  0.2203 -1.0176  0.5245
  157SAPE   HN317396   1.394   0.047   6.834  2.1020 -2.1558 -1.1575
  157SAPE   C1217397   1.547  -0.056   6.932 -0.5884 -0.2865  0.3426
  157SAPE  H12A17398   1.527  -0.152   6.879 -0.3654  0.7047 -1.6030
  157SAPE  H12B17399   1.584  -0.069   7.036  0.3093 -0.8906 -0.0378
  157SAPE   C1117400   1.651   0.031   6.854 -0.0877 -0.1042  0.0620
  157SAPE  H11A17401   1.631   0.035   6.745 -0.1443  0.2864  0.0848
  157SAPE  H11B17402   1.752  -0.016   6.856  0.8299  1.6386 -1.9199
  157SAPE     P17403   1.767   0.217   7.002  0.1067  0.1177 -0.3636
  157SAPE   O1317404   1.723   0.344   7.070 -0.1329 -0.6684  0.1478
  157SAPE   O1417405   1.800   0.094   7.087 -0.4548 -0.2401  0.4423
  157SAPE   O1217406   1.654   0.167   6.902 -0.3990  0.1833 -0.1943
  157SAPE   O1117407   1.890   0.255   6.912  0.3767 -0.3751 -0.2742
  157SAPE    C117408   1.976   0.180   6.830  0.0316 -0.2420 -0.9902
  157SAPE    HA17409   2.058   0.134   6.889  0.0703 -0.4660 -1.2159
  157SAPE    HB17410   1.918   0.088   6.809 -1.8117  0.9025 -1.0929
  157SAPE    C217411   2.017   0.255   6.695 -0.0475 -0.1223 -0.0136
  157SAPE    HS17412   2.104   0.318   6.724  0.5232 -1.6439  1.7607
  157SAPE   O2117413   1.894   0.319   6.650  0.2892 -0.0188  0.4171
  157SAPE   C2117414   1.872   0.429   6.710  0.6361 -0.3748 -0.3437
  157SAPE   O2217415   1.958   0.500   6.771  0.7417 -0.0256  0.3309
  157SAPE   C2217416   1.729   0.463   6.692  0.0141 -0.5332  0.3004
  157SAPE   H2R17417   1.672   0.374   6.655 -0.0336 -0.8770  1.1858
  157SAPE   H2S17418   1.684   0.484   6.791 -0.8464  0.3274 -0.2522
  157SAPE    C317419   2.063   0.154   6.593  0.0454  0.4567  0.7778
  157SAPE    HX17420   1.997   0.065   6.584  1.3598 -0.4614 -0.2096
  157SAPE    HY17421   2.164   0.116   6.623 -0.2631 -0.1198  1.0978
  157SAPE   O3117422   2.081   0.227   6.472 -0.2729 -0.1492  0.3357
  157SAPE   C3117423   2.042   0.163   6.358  0.2686  0.7340 -0.7594
  157SAPE   O3217424   1.996   0.046   6.351 -1.4246 -0.3408  0.4354
  157SAPE   C3217425   2.078   0.250   6.235  0.0810 -0.2749  0.0449
  157SAPE   H2X17426   2.188   0.257   6.235 -0.0117  2.5224  1.1309
  157SAPE   H2Y17427   2.035   0.352   6.247  2.1902  0.4916  1.6209
  157SAPE   C2317428   1.715   0.583   6.600 -0.2391  0.3864 -0.1116
  157SAPE   H3R17429   1.774   0.574   6.506 -1.6763 -1.5142 -0.8901
  157SAPE   H3S17430   1.761   0.666   6.658  1.1692 -1.0108  0.8472
  157SAPE   C2417431   1.564   0.617   6.567 -0.4553 -0.0046  0.6038
  157SAPE   H4R17432   1.521   0.646   6.665  4.6708  1.5342  2.7480
  157SAPE   H4S17433   1.510   0.523   6.544  0.6510 -0.6211  0.4157
  157SAPE   C2517434   1.560   0.718   6.455  0.5651 -0.0518  0.2509
  157SAPE   H5R17435   1.570   0.818   6.499 -0.7728  1.0518 -1.8401
  157SAPE   C2617436   1.527   0.697   6.322 -0.6127 -0.6535 -0.2341
  157SAPE   H6R17437   1.535   0.774   6.243 -2.4457 -1.7524 -1.5547
  157SAPE   C2717438   1.509   0.551   6.267 -0.1376 -0.5492 -0.4832
  157SAPE   H7R17439   1.407   0.530   6.306 -0.7540 -1.2607 -2.3968
  157SAPE   H7S17440   1.570   0.479   6.326 -2.9540 -2.3793  0.3955
  157SAPE   C2817441   1.524   0.519   6.120 -0.5719 -0.5205 -0.0307
  157SAPE   H8R17442   1.429   0.493   6.072 -0.7335  1.0144 -0.5998
  157SAPE   C2917443   1.638   0.526   6.044  0.5058  0.0761  0.1192
  157SAPE   H9R17444   1.634   0.496   5.938  0.8272  0.9162 -0.1403
  157SAPE  C21017445   1.769   0.575   6.091  0.6646  0.0179 -0.4136
  157SAPE  H10R17446   1.840   0.491   6.110 -0.6172 -1.9158 -3.4106
  157SAPE  H10S17447   1.754   0.605   6.197 -1.6109  0.8962 -0.9341
  157SAPE  C21117448   1.814   0.689   6.007  0.3407 -0.5863  0.0693
  157SAPE  H11R17449   1.793   0.785   6.057  0.5752 -0.6521  0.2949
  157SAPE  C21217450   1.860   0.690   5.876  0.0381 -0.1081 -0.2003
  157SAPE  H12R17451   1.878   0.788   5.829 -0.3382  0.0739  0.0359
  157SAPE  C21317452   1.871   0.569   5.785  0.5297 -0.1721  0.3103
  157SAPE  H13R17453   1.779   0.552   5.726  1.4902 -1.5180 -0.8623
  157SAPE  H13S17454   1.878   0.482   5.854 -1.5761  0.7373  1.7862
  157SAPE  C21417455   1.989   0.572   5.689  0.0560  0.7352  0.5941
  157SAPE  H14R17456   2.083   0.538   5.737  0.9040  1.6103 -0.4097
  157SAPE  C21517457   1.992   0.609   5.555 -0.4553  0.8186 -0.4372
  157SAPE  H15R17458   2.090   0.605   5.505 -1.1625  0.9560 -1.8662
  157SAPE  C21617459   1.878   0.661   5.483 -0.4748  0.1307 -0.0069
  157SAPE  H16R17460   1.863   0.767   5.512 -3.9123 -0.7962  2.3408
  157SAPE  H16S17461   1.783   0.615   5.520 -1.5663  0.4778 -2.2411
  157SAPE  C21717462   1.895   0.640   5.333 -0.1088 -0.0807 -0.6176
  157SAPE  H17R17463   1.887   0.531   5.318 -1.0226  0.0023 -0.7909
  157SAPE  H17S17464   1.996   0.667   5.296  0.7497  0.4974  1.8936
  157SAPE  C21817465   1.782   0.703   5.254  0.3659  0.4404  0.4606
  157SAPE  H18R17466   1.791   0.813   5.254  1.4055  0.3756  1.5911
  157SAPE  H18S17467   1.686   0.670   5.298 -0.5045  1.2570 -0.7753
  157SAPE  C21917468   1.792   0.654   5.109 -0.0353 -0.4038 -0.0017
  157SAPE  H19R17469   1.781   0.545   5.097 -0.2775 -0.5418  1.3415
  157SAPE  H19S17470   1.893   0.680   5.071  0.1613  0.4582  1.0608
  157SAPE  C22017471   1.693   0.714   5.013  0.2752 -0.0478  0.6235
  157SAPE  H20R17472   1.596   0.659   5.014  0.4801 -0.4359  2.2648
  157SAPE  H20S17473   1.732   0.713   4.909 -0.9467 -2.0652  0.1123
  157SAPE  H20T17474   1.676   0.822   5.033 -0.1926  0.4480 -2.1599
  157SAPE   C3317475   2.034   0.179   6.108  0.5645  0.1250 -0.4917
  157SAPE   H3X17476   1.923   0.182   6.108  0.5784  1.8327 -0.1666
  157SAPE   H3Y17477   2.077   0.076   6.110  2.4229  0.8706 -0.0872
  157SAPE   C3417478   2.080   0.254   5.978  0.1333  0.8668 -0.1375
  157SAPE   H4X17479   2.185   0.283   5.999  0.8200 -2.1213  1.0616
  157SAPE   H4Y17480   2.016   0.344   5.969 -2.6692 -1.0979 -1.0809
  157SAPE   C3517481   2.071   0.172   5.847  0.3759  0.3238  0.2477
  157SAPE   H5X17482   1.966   0.141   5.830  0.9257 -4.0418  3.1590
  157SAPE   H5Y17483   2.106   0.069   5.872 -0.4360  0.1527  0.7055
  157SAPE   C3617484   2.124   0.230   5.715  0.2782  0.2352  0.2552
  157SAPE   H6X17485   2.229   0.196   5.698 -0.2221 -0.8108 -0.9244
  157SAPE   H6Y17486   2.144   0.339   5.721 -0.2830  0.3619 -0.1312
  157SAPE   C3717487   2.035   0.200   5.595 -0.1710  0.4864 -0.2882
  157SAPE   H7X17488   1.939   0.255   5.587 -1.4018 -1.6711 -1.0562
  157SAPE   H7Y17489   2.016   0.091   5.588  0.6437  0.2421  0.9594
  157SAPE   C3817490   2.119   0.232   5.475 -0.5377 -0.0662  0.3302
  157SAPE   H8X17491   2.216   0.177   5.470 -0.8595 -0.5931 -0.3194
  157SAPE   H8Y17492   2.158   0.335   5.482 -0.2269 -0.2545  1.5830
  157SAPE   C3917493   2.045   0.211   5.339  0.3057  0.2107 -0.3453
  157SAPE   H9X17494   1.958   0.280   5.333  0.5327  0.4932 -0.4148
  157SAPE   H9Y17495   1.990   0.115   5.336 -4.3051  2.5849 -1.0318
  157SAPE  C31017496   2.119   0.246   5.214  0.3101  0.4138 -0.0628
  157SAPE  H10X17497   2.056   0.243   5.122 -0.3815  1.3022  0.3639
  157SAPE  H10Y17498   2.206   0.178   5.203 -0.0805  0.2413 -2.9372
  157SAPE  C31117499   2.181   0.385   5.214  0.6523 -0.4056 -0.3064
  157SAPE  H11X17500   2.273   0.384   5.275  1.0080 -0.0124 -0.8215
  157SAPE  H11Y17501   2.106   0.446   5.268  1.7661 -1.0143  2.0363
  157SAPE  C31217502   2.185   0.441   5.072  0.2639 -0.6882 -0.1929
  157SAPE  H12X17503   2.089   0.427   5.017  0.0777 -1.6480  0.3607
  157SAPE  H12Y17504   2.255   0.376   5.015  1.8632  1.5964 -0.9801
  157SAPE  C31317505   2.225   0.588   5.075  0.2230 -0.1469  0.2363
  157SAPE  H13X17506   2.335   0.603   5.086  0.3473  1.0656 -2.0237
  157SAPE  H13Y17507   2.183   0.647   5.159  0.4547  1.0361 -0.4458
  157SAPE  C31417508   2.194   0.654   4.937 -0.2882 -0.4714 -0.1664
  157SAPE  H14X17509   2.090   0.626   4.907  0.5483 -0.4919 -3.4943
  157SAPE  H14Y17510   2.263   0.620   4.857 -1.7525  1.8952 -2.5855
  157SAPE  C31517511   2.202   0.808   4.951  0.3109 -0.0197  0.8699
  157SAPE  H15X17512   2.303   0.843   4.979  0.5416  1.4928 -1.5547
  157SAPE  H15Y17513   2.131   0.849   5.026 -0.5672 -0.5558  0.3449
  157SAPE  C31617514   2.143   0.868   4.820  0.4251 -0.1537 -0.4325
  157SAPE  H16X17515   2.130   0.979   4.824  3.0560  0.4080 -3.1857
  157SAPE  H16Y17516   2.041   0.825   4.813 -0.4207  1.9507 -2.1182
  157SAPE  C31717517   2.225   0.830   4.692 -0.5966 -0.0465  0.2581
  157SAPE  H17X17518   2.223   0.720   4.683 -2.6162  0.0783 -1.5503
  157SAPE  H17Y17519   2.329   0.868   4.706 -0.3765 -0.1379 -1.0797
  157SAPE  C31817520   2.166   0.893   4.567 -0.3257  0.1798  0.2537
  157SAPE  H18X17521   2.171   1.004   4.574  1.9428  0.2067 -0.9676
  157SAPE  H18Y17522   2.059   0.866   4.554 -0.2137 -1.4750  2.2881
  157SAPE  H18Z17523   2.222   0.868   4.475 -3.7918  1.7817 -2.5664
  158SAPE     N17524   1.522   1.040   7.339  0.1483 -0.2920  0.4714
  158SAPE   HN117525   1.605   0.981   7.356 -0.3195 -1.3387 -0.6736
  158SAPE   HN217526   1.443   0.992   7.386 -1.3826  1.9465  0.3533
  158SAPE   HN317527   1.502   1.049   7.237 -0.3182 -1.6897  0.4301
  158SAPE   C1217528   1.536   1.178   7.391  0.5116 -0.0205  0.4387
  158SAPE  H12A17529   1.549   1.178   7.501  0.4564 -0.2119  0.4451
  158SAPE  H12B17530   1.447   1.239   7.364  1.1612  0.5938 -0.3702
  158SAPE   C1117531   1.660   1.233   7.326  0.1926  0.5031 -0.0999
  158SAPE  H11A17532   1.662   1.342   7.348 -1.0174  0.9936 -2.2252
  158SAPE  H11B17533   1.638   1.245   7.218  1.0516  0.7403 -0.2604
  158SAPE     P17534   1.879   1.130   7.234  0.2324 -0.3677  0.4813
  158SAPE   O1317535   2.016   1.176   7.276  0.2233  0.3739  0.2885
  158SAPE   O1417536   1.865   0.982   7.191 -0.2888 -0.3761 -0.9145
  158SAPE   O1217537   1.786   1.172   7.360  0.0559 -0.6675  0.7729
  158SAPE   O1117538   1.823   1.214   7.122  0.4270 -0.5039 -0.1150
  158SAPE    C117539   1.771   1.157   6.999 -0.7325  0.4968  0.4949
  158SAPE    HA17540   1.719   1.060   7.013 -1.1489  0.6238 -0.1009
  158SAPE    HB17541   1.701   1.230   6.953  0.4579  1.6813  0.5143
  158SAPE    C217542   1.879   1.129   6.887  0.2477 -0.2524 -0.2547
  158SAPE    HS17543   1.963   1.091   6.949 -2.0282  0.1276  3.4123
  158SAPE   O2117544   1.905   1.251   6.822  0.0277  0.6580  0.4865
  158SAPE   C2117545   2.012   1.246   6.736 -0.2404 -0.0321  0.2655
  158SAPE   O2217546   2.095   1.160   6.744  0.0014 -0.0151 -0.3429
  158SAPE   C2217547   2.029   1.370   6.650  0.6464 -0.0190  0.0894
  158SAPE   H2R17548   1.938   1.379   6.587  0.5074  1.2326  0.4326
  158SAPE   H2S17549   2.040   1.456   6.720  0.3052 -1.9273  2.6480
  158SAPE    C317550   1.825   1.014   6.795 -0.7562 -0.4794 -0.1779
  158SAPE    HX17551   1.736   1.064   6.750 -0.3368  0.7568  0.3273
  158SAPE    HY17552   1.791   0.928   6.857  0.3453 -0.7753  0.0290
  158SAPE   O3117553   1.917   0.962   6.693 -0.1941 -0.1147 -0.4664
  158SAPE   C3117554   2.011   0.872   6.723  0.0596 -0.2604  0.2556
  158SAPE   O3217555   2.027   0.814   6.830 -0.1619 -0.2485 -0.0473
  158SAPE   C3217556   2.098   0.844   6.603  0.3022 -0.0980  0.3943
  158SAPE   H2X17557   2.102   0.733   6.598  0.0126 -0.0751 -0.5257
  158SAPE   H2Y17558   2.202   0.870   6.631  0.4070 -0.9963  0.8719
  158SAPE   C2317559   2.158   1.365   6.567 -0.9570 -0.5840  0.3469
  158SAPE   H3R17560   2.185   1.262   6.534  0.2550 -0.0333 -0.4537
  158SAPE   H3S17561   2.248   1.397   6.622 -1.6048  1.1260  0.4586
  158SAPE   C2417562   2.162   1.452   6.444 -0.1769  0.2252 -0.5078
  158SAPE   H4R17563   2.266   1.471   6.409  0.2001  0.5117  0.6879
  158SAPE   H4S17564   2.112   1.547   6.476 -1.8081 -1.1921  1.4042
  158SAPE   C2517565   2.071   1.409   6.334 -0.4135 -0.1564 -0.1238
  158SAPE   H5R17566   1.964   1.422   6.355 -0.3139 -0.1890  0.4178
  158SAPE   C2617567   2.107   1.393   6.201 -0.0146  0.2001 -0.9332
  158SAPE   H6R17568   2.029   1.355   6.134  0.6744 -0.0812 -1.5930
  158SAPE   C2717569   2.246   1.399   6.145  0.3288  0.0494  0.3967
  158SAPE   H7R17570   2.269   1.299   6.104 -1.9611 -0.2199 -0.3706
  158SAPE   H7S17571   2.330   1.416   6.216  2.0713  1.8562 -1.9545
  158SAPE   C2817572   2.260   1.510   6.037  0.1102  0.1161  0.3595
  158SAPE   H8R17573   2.226   1.613   6.057 -0.1886 -0.1283  1.1683
  158SAPE   C2917574   2.312   1.487   5.914  0.9199  0.3208 -1.0568
  158SAPE   H9R17575   2.332   1.573   5.848 -0.4754  0.5518 -1.1943
  158SAPE  C21017576   2.345   1.348   5.864 -0.2022  0.2922 -0.6261
  158SAPE  H10R17577   2.249   1.298   5.839 -0.8525  1.0279  0.3484
  158SAPE  H10S17578   2.377   1.285   5.950 -0.0745  0.1481 -0.7755
  158SAPE  C21117579   2.444   1.321   5.756 -0.3987  0.1847  0.4834
  158SAPE  H11R17580   2.534   1.272   5.796 -1.4692  0.3683  3.3715
  158SAPE  C21217581   2.430   1.348   5.627  0.0710  0.0785 -0.2905
  158SAPE  H12R17582   2.513   1.330   5.557 -0.7408 -1.2651 -0.9593
  158SAPE  C21317583   2.305   1.382   5.549  0.1309 -0.2514  0.5412
  158SAPE  H13R17584   2.216   1.360   5.612  0.3384  0.6081  1.1655
  158SAPE  H13S17585   2.293   1.304   5.471  2.7181 -0.4879  0.2982
  158SAPE  C21417586   2.313   1.527   5.497 -0.8427 -0.3604  0.5707
  158SAPE  H14R17587   2.306   1.606   5.573 -1.2929  0.3055 -0.1515
  158SAPE  C21517588   2.317   1.566   5.367  0.0281 -0.5032  0.0514
  158SAPE  H15R17589   2.321   1.674   5.347  2.5392 -0.3737  0.8217
  158SAPE  C21617590   2.319   1.487   5.241  0.0172 -0.5498  0.0003
  158SAPE  H16R17591   2.219   1.498   5.193  0.5068  1.6665 -0.6531
  158SAPE  H16S17592   2.348   1.381   5.256  0.9491 -0.4342 -0.8657
  158SAPE  C21717593   2.423   1.548   5.140 -0.3259 -0.7630  0.2797
  158SAPE  H17R17594   2.383   1.646   5.105 -1.3781 -1.0470  0.6305
  158SAPE  H17S17595   2.431   1.500   5.041 -2.2424  0.9860 -0.8064
  158SAPE  C21817596   2.568   1.554   5.203 -0.0690 -0.3003  0.1300
  158SAPE  H18R17597   2.582   1.448   5.235 -0.4321 -0.2299  0.5328
  158SAPE  H18S17598   2.576   1.615   5.295  0.8280  0.0526 -0.1695
  158SAPE  C21917599   2.662   1.606   5.094 -0.5484  0.3580 -0.3790
  158SAPE  H19R17600   2.681   1.535   5.010 -1.5580 -0.4034  0.0135
  158SAPE  H19S17601   2.761   1.628   5.139 -1.0234  0.1865  0.7968
  158SAPE  C22017602   2.613   1.734   5.020 -0.5527  0.2338  0.5867
  158SAPE  H20R17603   2.588   1.814   5.092 -1.1521  1.4990 -0.9593
  158SAPE  H20S17604   2.535   1.703   4.947  0.4448 -0.6677 -0.1361
  158SAPE  H20T17605   2.700   1.772   4.963 -0.1264  1.5903  2.0776
  158SAPE   C3317606   2.036   0.894   6.472 -0.4108 -0.0222  0.3011
  158SAPE   H3X17607   2.022   1.004   6.479 -1.2752  0.0454 -1.7329
  158SAPE   H3Y17608   1.934   0.850   6.468 -0.2393 -0.6569  2.1850
  158SAPE   C3417609   2.115   0.857   6.348 -0.1843 -0.1153  0.7874
  158SAPE   H4X17610   2.122   0.747   6.333 -0.4481 -0.0352  0.0446
  158SAPE   H4Y17611   2.220   0.892   6.346  0.5715 -2.2068 -1.7322
  158SAPE   C3517612   2.059   0.924   6.210 -0.4313  0.2806 -0.8004
  158SAPE   H5X17613   2.047   1.032   6.231  1.5273  0.5244 -0.7450
  158SAPE   H5Y17614   1.959   0.878   6.197  0.0243 -0.1717 -3.0062
  158SAPE   C3617615   2.137   0.901   6.086  0.2083  0.1291 -0.4176
  158SAPE   H6X17616   2.127   0.793   6.063 -0.0912 -0.1595  1.0256
  158SAPE   H6Y17617   2.242   0.937   6.093 -0.7048  2.7771  0.8781
  158SAPE   C3717618   2.095   0.980   5.961 -0.3669  0.4605 -0.0801
  158SAPE   H7X17619   2.102   1.090   5.981 -2.8317  0.3835  1.7494
  158SAPE   H7Y17620   1.986   0.956   5.954 -0.4771 -0.1193  2.4747
  158SAPE   C3817621   2.191   0.930   5.855 -0.3266  0.3560  0.5401
  158SAPE   H8X17622   2.195   0.819   5.865 -3.4535 -0.1796 -2.2865
  158SAPE   H8Y17623   2.291   0.980   5.854 -0.5499  0.9964 -3.2229
  158SAPE   C3917624   2.135   0.971   5.715  0.7181  0.1779 -0.5033
  158SAPE   H9X17625   2.136   1.082   5.726  1.5210  0.2816 -1.4064
  158SAPE   H9Y17626   2.028   0.942   5.705  0.0498  1.7980  1.2364
  158SAPE  C31017627   2.224   0.920   5.601  0.7297 -0.1569 -0.1111
  158SAPE  H10X17628   2.208   0.812   5.581 -1.2204  0.6008 -3.3990
  158SAPE  H10Y17629   2.328   0.941   5.634  0.3736 -1.0117  1.6563
  158SAPE  C31117630   2.202   0.998   5.473  0.1556 -0.0672  0.0444
  158SAPE  H11X17631   2.281   0.971   5.400  0.0001 -1.5738  0.3803
  158SAPE  H11Y17632   2.214   1.103   5.507 -0.3611  0.1463 -0.4236
  158SAPE  C31217633   2.065   0.991   5.413  0.1962 -0.1429  0.4042
  158SAPE  H12X17634   2.006   1.051   5.485 -1.7034 -1.5561  0.0889
  158SAPE  H12Y17635   2.031   0.885   5.414 -0.4508  0.0580  2.0760
  158SAPE  C31317636   2.076   1.044   5.270  0.3232 -0.2047  1.1199
  158SAPE  H13X17637   2.168   1.007   5.219 -0.7327  0.5168 -1.4854
  158SAPE  H13Y17638   2.098   1.153   5.269  0.8537 -0.2815 -1.0799
  158SAPE  C31417639   1.950   1.028   5.196  0.0862  0.5034 -0.0227
  158SAPE  H14X17640   1.861   1.067   5.251 -0.1141 -1.2412  0.9593
  158SAPE  H14Y17641   1.940   0.922   5.164  3.0726 -0.7311  2.6489
  158SAPE  C31517642   1.961   1.103   5.060  0.2320  0.2202 -0.6488
  158SAPE  H15X17643   2.057   1.076   5.012  0.2870 -0.5699 -0.1213
  158SAPE  H15Y17644   1.966   1.212   5.078  1.3611  0.3307 -1.5443
  158SAPE  C31617645   1.844   1.084   4.964  0.0088  0.2106  0.1612
  158SAPE  H16X17646   1.761   1.079   5.037 -0.4669 -0.8282 -0.4382
  158SAPE  H16Y17647   1.848   0.980   4.926 -0.3866 -0.1371  1.0361
  158SAPE  C31717648   1.827   1.186   4.847 -0.0886 -0.6852 -0.3956
  158SAPE  H17X17649   1.798   1.279   4.901 -0.1960 -0.7935 -0.2658
  158SAPE  H17Y17650   1.743   1.158   4.781 -0.8004 -0.0870  0.2294
  158SAPE  C31817651   1.952   1.234   4.777  0.3992 -0.4382  0.1196
  158SAPE  H18X17652   1.934   1.316   4.705  3.1187 -0.8680 -1.1928
  158SAPE  H18Y17653   2.006   1.154   4.722  3.3287  0.9279  0.8101
  158SAPE  H18Z17654   2.030   1.270   4.848 -1.5676  1.1526  1.6187
  159SAPE     N17655   6.135   6.297   2.692 -0.0288 -0.1248  0.2696
  159SAPE   HN117656   6.159   6.270   2.595  1.1361  0.0598  0.4872
  159SAPE   HN217657   6.036   6.325   2.699 -0.6536 -2.4994  2.2192
  159SAPE   HN317658   6.196   6.378   2.716  0.5877  0.6541 -3.4395
  159SAPE   C1217659   6.165   6.189   2.792  0.6159  0.3209 -0.4727
  159SAPE  H12A17660   6.104   6.098   2.778  0.5069  0.2488  0.4133
  159SAPE  H12B17661   6.143   6.243   2.886  1.2638 -0.6465  0.2474
  159SAPE   C1117662   6.318   6.162   2.796  0.4190  0.3214 -0.3209
  159SAPE  H11A17663   6.333   6.096   2.884  1.6387  1.0065  0.0044
  159SAPE  H11B17664   6.363   6.261   2.817  0.8512  0.2035 -0.6913
  159SAPE     P17665   6.508   6.038   2.661 -0.5561  0.2841  0.6177
  159SAPE   O1317666   6.482   5.897   2.624  0.2513 -0.6365  0.2430
  159SAPE   O1417667   6.593   6.116   2.574 -0.3433  0.6150 -0.0989
  159SAPE   O1217668   6.369   6.111   2.674  0.0670 -0.3055 -0.6540
  159SAPE   O1117669   6.560   6.053   2.812  0.6701  0.3213 -0.1242
  159SAPE    C117670   6.696   6.069   2.835 -0.2376 -0.2413  0.2569
  159SAPE    HA17671   6.752   5.973   2.842  0.8022  0.0442 -2.5575
  159SAPE    HB17672   6.746   6.127   2.754 -0.2237 -0.0685  0.3905
  159SAPE    C217673   6.713   6.132   2.978  0.1331  0.5394  0.1003
  159SAPE    HS17674   6.821   6.150   2.998  0.0001  0.7807  0.6260
  159SAPE   O2117675   6.658   6.046   3.081 -0.4248 -0.2515  0.3294
  159SAPE   C2117676   6.725   5.937   3.107 -0.4191 -0.1594 -0.1258
  159SAPE   O2217677   6.826   5.903   3.046 -0.2982  0.3252 -0.4437
  159SAPE   C2217678   6.660   5.872   3.237 -1.0122 -0.4092  0.4461
  159SAPE   H2R17679   6.618   5.958   3.293 -0.0658 -0.5497  1.3867
  159SAPE   H2S17680   6.582   5.796   3.213 -0.1023 -1.3601  0.4288
  159SAPE    C317681   6.634   6.270   2.982  0.3586  0.0075  0.2156
  159SAPE    HX17682   6.560   6.268   2.899  0.3396  0.8303  0.2012
  159SAPE    HY17683   6.709   6.345   2.947  1.2952 -0.7985  0.4495
  159SAPE   O3117684   6.590   6.303   3.118 -0.1103 -0.1567  0.1561
  159SAPE   C3117685   6.486   6.243   3.167  1.4213  0.6313 -0.0959
  159SAPE   O3217686   6.407   6.168   3.106  0.0060  0.5090  0.3342
  159SAPE   C3217687   6.477   6.274   3.317  0.0359  0.1750 -0.4451
  159SAPE   H2X17688   6.420   6.366   3.344 -0.5526 -0.1800 -0.4602
  159SAPE   H2Y17689   6.584   6.280   3.348  0.1058 -1.5076 -0.2970
  159SAPE   C2317690   6.764   5.814   3.333  0.1100 -0.0163  0.3371
  159SAPE   H3R17691   6.855   5.877   3.324 -0.0769  0.3485  0.9213
  159SAPE   H3S17692   6.798   5.715   3.296  0.9725 -0.6128  2.5921
  159SAPE   C2417693   6.721   5.807   3.480  1.0639 -0.2596 -0.1495
  159SAPE   H4R17694   6.716   5.913   3.514 -1.5666 -1.0091  2.1884
  159SAPE   H4S17695   6.801   5.749   3.530 -0.4116 -3.2325 -1.0182
  159SAPE   C2517696   6.583   5.748   3.503  0.7441 -0.1083 -0.2399
  159SAPE   H5R17697   6.513   5.752   3.418 -0.6104  0.1884  0.8530
  159SAPE   C2617698   6.531   5.696   3.614 -0.2063  0.0692 -0.3430
  159SAPE   H6R17699   6.428   5.655   3.613 -0.0840 -0.2463 -0.1615
  159SAPE   C2717700   6.601   5.687   3.750 -0.4771  0.3755  0.6423
  159SAPE   H7R17701   6.529   5.713   3.831  2.0435  3.8159  2.0381
  159SAPE   H7S17702   6.676   5.768   3.761 -0.4297  0.1602  2.0905
  159SAPE   C2817703   6.674   5.556   3.782  0.2120  0.2655  0.3283
  159SAPE   H8R17704   6.688   5.494   3.692 -1.1305  0.5548 -0.1065
  159SAPE   C2917705   6.702   5.504   3.902 -0.9027 -0.7899  0.3915
  159SAPE   H9R17706   6.744   5.403   3.908 -0.4383 -0.5863  0.5918
  159SAPE  C21017707   6.658   5.561   4.031  0.5996  0.4164  0.2185
  159SAPE  H10R17708   6.667   5.473   4.098  1.8036 -0.1006 -0.5814
  159SAPE  H10S17709   6.551   5.584   4.013  0.4142 -0.2782  0.4219
  159SAPE  C21117710   6.725   5.690   4.088 -0.3173 -0.1826 -0.0613
  159SAPE  H11R17711   6.685   5.785   4.048  0.4978 -0.1147 -0.7376
  159SAPE  C21217712   6.820   5.684   4.181  0.4819 -0.1079  0.9264
  159SAPE  H12R17713   6.871   5.773   4.221  1.8835 -1.3841  2.0849
  159SAPE  C21317714   6.880   5.560   4.239 -0.6250 -0.3612  0.4253
  159SAPE  H13R17715   6.990   5.570   4.226 -0.6565  0.6170  0.8227
  159SAPE  H13S17716   6.859   5.469   4.178  0.2418  0.8855 -1.8419
  159SAPE  C21417717   6.859   5.549   4.391  0.9766  0.6090  0.2021
  159SAPE  H14R17718   6.846   5.647   4.440 -1.1306  0.7716 -0.5933
  159SAPE  C21517719   6.834   5.435   4.458 -0.2491 -0.6450 -0.1869
  159SAPE  H15R17720   6.823   5.446   4.566 -0.0552 -0.0393 -0.2245
  159SAPE  C21617721   6.848   5.297   4.407  0.2518 -0.4327  0.1576
  159SAPE  H16R17722   6.943   5.273   4.355 -0.6925 -0.7386 -1.4906
  159SAPE  H16S17723   6.761   5.281   4.341  0.2225  0.0294  0.0761
  159SAPE  C21717724   6.837   5.184   4.505 -0.1448 -0.6982 -0.1457
  159SAPE  H17R17725   6.815   5.083   4.465 -0.4318 -1.1970  1.1972
  159SAPE  H17S17726   6.756   5.209   4.577 -0.1169  2.0673 -0.9624
  159SAPE  C21817727   6.969   5.173   4.587  0.1035 -0.1253 -0.1430
  159SAPE  H18R17728   6.992   5.270   4.636  3.0229 -0.7732 -0.0206
  159SAPE  H18S17729   7.051   5.140   4.520 -1.6046 -0.4361 -2.1776
  159SAPE  C21917730   6.967   5.071   4.699  0.4957  0.1461  0.4534
  159SAPE  H19R17731   6.930   4.972   4.663 -1.8656  0.7253  1.0820
  159SAPE  H19S17732   6.896   5.108   4.776  0.6084  1.1011  0.1069
  159SAPE  C22017733   7.096   5.059   4.774 -0.2521 -0.0526 -0.6043
  159SAPE  H20R17734   7.177   5.000   4.727  4.2939  2.6394  2.9964
  159SAPE  H20S17735   7.081   5.022   4.878  4.1793  0.8861  0.5853
  159SAPE  H20T17736   7.142   5.157   4.799  1.2039 -0.6558 -0.8383
  159SAPE   C3317737   6.407   6.164   3.399 -0.4968 -0.1292 -0.5765
  159SAPE   H3X17738   6.471   6.075   3.382 -0.6478 -0.2591 -0.4735
  159SAPE   H3Y17739   6.306   6.141   3.359  0.8272 -1.0212 -3.6977
  159SAPE   C3417740   6.407   6.206   3.547 -0.7124 -0.0684  0.0721
  159SAPE   H4X17741   6.352   6.301   3.566  0.0427  0.3030  0.4971
  159SAPE   H4Y17742   6.510   6.229   3.585 -0.8112 -1.0599  0.9995
  159SAPE   C3517743   6.333   6.113   3.639  0.1310 -0.8728 -0.1979
  159SAPE   H5X17744   6.381   6.013   3.647 -2.0523 -1.9786 -0.1397
  159SAPE   H5Y17745   6.227   6.110   3.607 -0.4092 -0.0310  1.4008
  159SAPE   C3617746   6.342   6.184   3.780 -0.5822 -0.1036 -0.2276
  159SAPE   H6X17747   6.279   6.274   3.767  1.3363  1.0789 -2.2115
  159SAPE   H6Y17748   6.443   6.221   3.810 -1.3992  1.4094  0.7908
  159SAPE   C3717749   6.283   6.097   3.898 -0.4820  0.2269 -0.6278
  159SAPE   H7X17750   6.188   6.053   3.861 -1.5020  2.1658 -0.4698
  159SAPE   H7Y17751   6.267   6.164   3.985  0.2059  0.3088 -0.5565
  159SAPE   C3817752   6.370   5.985   3.956 -0.1165  0.9172  0.1820
  159SAPE   H8X17753   6.452   6.020   4.022  0.1978 -0.2719  0.4504
  159SAPE   H8Y17754   6.422   5.923   3.880  1.0551 -0.5044  2.0541
  159SAPE   C3917755   6.280   5.902   4.053  0.3064  0.1035 -0.2763
  159SAPE   H9X17756   6.331   5.813   4.096  0.2251  1.2204  2.3235
  159SAPE   H9Y17757   6.190   5.860   4.002  0.5185  1.4050 -1.8178
  159SAPE  C31017758   6.237   5.978   4.180  0.1562  0.4593  0.0367
  159SAPE  H10X17759   6.160   6.055   4.157  0.1454  0.3076 -0.4369
  159SAPE  H10Y17760   6.325   6.024   4.229  1.2406 -1.5114  0.0509
  159SAPE  C31117761   6.171   5.883   4.283  0.3387  0.5474  0.6670
  159SAPE  H11X17762   6.233   5.807   4.336 -1.4951 -2.6947 -1.4577
  159SAPE  H11Y17763   6.087   5.824   4.241  0.2791  0.3125  1.1098
  159SAPE  C31217764   6.122   5.961   4.405  0.3915  0.3872  0.3200
  159SAPE  H12X17765   6.045   6.037   4.380 -0.6775 -0.7205  0.1359
  159SAPE  H12Y17766   6.215   6.010   4.442  1.5393 -1.7303  0.4060
  159SAPE  C31317767   6.076   5.859   4.512  0.2371  0.3071 -1.0128
  159SAPE  H13X17768   6.148   5.774   4.516 -2.0627 -1.7335 -0.8245
  159SAPE  H13Y17769   5.981   5.808   4.488  0.2345  0.3097 -1.0074
  159SAPE  C31417770   6.070   5.919   4.662 -0.5129  0.1568  0.4359
  159SAPE  H14X17771   6.007   6.010   4.651 -0.6935 -0.1571 -1.5801
  159SAPE  H14Y17772   6.169   5.949   4.702 -0.6440 -0.6526  1.3876
  159SAPE  C31517773   5.990   5.817   4.738  0.3827  0.0209 -0.8837
  159SAPE  H15X17774   5.899   5.769   4.697  0.1173 -2.4062  2.1569
  159SAPE  H15Y17775   5.947   5.871   4.825 -1.1670 -0.5227 -1.2908
  159SAPE  C31617776   6.086   5.711   4.798  0.2060  1.0330  0.4631
  159SAPE  H16X17777   6.139   5.662   4.713  0.0834 -0.1241  1.0343
  159SAPE  H16Y17778   6.033   5.630   4.853 -0.5323  1.4873  0.4179
  159SAPE  C31717779   6.178   5.764   4.906  0.1482 -0.4529 -0.4469
  159SAPE  H17X17780   6.192   5.874   4.895 -1.0415 -0.2679 -0.2435
  159SAPE  H17Y17781   6.276   5.711   4.911  1.6011  2.0599 -0.2460
  159SAPE  C31817782   6.117   5.725   5.044  0.0138 -0.2594  0.2083
  159SAPE  H18X17783   6.022   5.783   5.046 -0.3188 -0.8007  0.1914
  159SAPE  H18Y17784   6.188   5.754   5.125  0.0923 -2.1383  0.8580
  159SAPE  H18Z17785   6.096   5.617   5.060 -0.9554  0.0977  1.4829
  160SAPE     N17786   3.580   1.919   2.635 -0.0699 -0.8281  0.3808
  160SAPE   HN117787   3.502   1.980   2.601  0.2408  0.4533  1.8521
  160SAPE   HN217788   3.549   1.846   2.702  1.1952 -0.6460  1.1881
  160SAPE   HN317789   3.642   1.984   2.687 -1.1892  2.2755 -1.8419
  160SAPE   C1217790   3.645   1.865   2.512  0.1000  0.1181  0.2099
  160SAPE  H12A17791   3.694   1.947   2.456 -1.6315  1.2547  0.2710
  160SAPE  H12B17792   3.563   1.825   2.449  0.3250  2.7527 -1.9245
  160SAPE   C1117793   3.744   1.750   2.553  0.6122  0.4987  0.3950
  160SAPE  H11A17794   3.764   1.688   2.463 -1.0703  1.0915 -0.4313
  160SAPE  H11B17795   3.686   1.696   2.630 -1.1338  1.6768 -0.0338
  160SAPE     P17796   3.993   1.833   2.533 -0.3331  0.0699 -0.1270
  160SAPE   O1317797   4.085   1.717   2.525  0.1510  0.0756  0.2264
  160SAPE   O1417798   3.951   1.897   2.411 -0.2443 -0.8405  0.4284
  160SAPE   O1217799   3.864   1.795   2.615  0.0636  0.7322  0.6405
  160SAPE   O1117800   4.064   1.941   2.623 -0.2579 -0.0133  0.8702
  160SAPE    C117801   3.974   2.032   2.693 -0.2671  0.0124 -0.4832
  160SAPE    HA17802   4.020   2.132   2.683 -0.3816  0.1604  0.4335
  160SAPE    HB17803   3.870   2.021   2.656  0.5105 -1.8937 -2.3372
  160SAPE    C217804   3.971   1.991   2.847  0.3167 -0.3863 -0.0531
  160SAPE    HS17805   3.908   1.900   2.849 -1.4357  0.6905 -1.8120
  160SAPE   O2117806   3.919   2.115   2.916 -0.1793  0.2488 -0.0502
  160SAPE   C2117807   3.792   2.120   2.909 -0.0763  0.0849  0.3512
  160SAPE   O2217808   3.725   2.031   2.862  0.3118  0.2622 -0.0661
  160SAPE   C2217809   3.739   2.240   2.973  0.3240 -0.4366  0.2639
  160SAPE   H2R17810   3.785   2.326   2.920  3.7174 -0.1189  3.3538
  160SAPE   H2S17811   3.628   2.237   2.961  0.3328 -0.4633  0.1906
  160SAPE    C317812   4.105   1.946   2.911  0.1628  0.1990 -0.7479
  160SAPE    HX17813   4.200   1.993   2.877  0.5844  1.1490  1.5751
  160SAPE    HY17814   4.119   1.841   2.879 -0.5921  0.6013 -2.5030
  160SAPE   O3117815   4.108   1.952   3.054 -0.0356  0.0419  0.0894
  160SAPE   C3117816   4.159   2.061   3.108  0.2072  0.5349  1.2287
  160SAPE   O3217817   4.220   2.150   3.049 -0.4840 -0.1888  0.9262
  160SAPE   C3217818   4.125   2.061   3.256 -0.4925 -0.3040  0.1739
  160SAPE   H2X17819   4.090   1.963   3.294  0.6591 -0.2461  1.4527
  160SAPE   H2Y17820   4.034   2.124   3.259 -0.1464  0.2033  0.2273
  160SAPE   C2317821   3.759   2.250   3.126 -0.7646 -0.4482  0.8917
  160SAPE   H3R17822   3.737   2.356   3.148 -1.5373 -0.3801 -0.1243
  160SAPE   H3S17823   3.863   2.228   3.158 -0.1882  1.1233  0.2109
  160SAPE   C2417824   3.656   2.176   3.216  0.3243 -0.1622  0.9209
  160SAPE   H4R17825   3.553   2.173   3.174  0.4832 -0.1080  0.5299
  160SAPE   H4S17826   3.651   2.233   3.311  1.3330 -0.4051  1.1280
  160SAPE   C2517827   3.701   2.035   3.246 -0.1490 -0.3150 -0.0657
  160SAPE   H5R17828   3.677   1.972   3.159 -0.2137 -1.2155  0.6012
  160SAPE   C2617829   3.776   1.986   3.345  0.3720  0.2563 -0.0296
  160SAPE   H6R17830   3.800   1.879   3.342 -1.5793 -0.3719  2.9262
  160SAPE   C2717831   3.838   2.045   3.464 -0.1374 -0.7076  0.3009
  160SAPE   H7R17832   3.834   2.156   3.453 -0.0140 -0.8065 -0.8262
  160SAPE   H7S17833   3.947   2.025   3.457  0.4849  1.8915  1.2214
  160SAPE   C2817834   3.775   2.016   3.594  0.5978 -0.5812  0.3069
  160SAPE   H8R17835   3.681   2.073   3.604  1.4837  0.8735  0.5354
  160SAPE   C2917836   3.820   1.953   3.711 -0.4245  0.1355  0.2331
  160SAPE   H9R17837   3.756   1.949   3.800  0.3556 -1.9374  0.7441
  160SAPE  C21017838   3.946   1.875   3.713  0.0149 -0.6876 -0.0073
  160SAPE  H10R17839   4.008   1.928   3.788  0.9184 -4.6120  2.2980
  160SAPE  H10S17840   3.999   1.883   3.615 -0.5869  2.7413 -0.1851
  160SAPE  C21117841   3.925   1.736   3.763 -0.3142  0.5370  0.0749
  160SAPE  H11R17842   3.909   1.663   3.682 -0.6391 -0.1891  0.7812
  160SAPE  C21217843   3.952   1.686   3.888  0.3440  0.5536  0.2960
  160SAPE  H12R17844   3.937   1.578   3.905 -1.6944  0.1318 -3.2776
  160SAPE  C21317845   3.981   1.764   4.012 -0.1781  0.3063 -0.0208
  160SAPE  H13R17846   4.009   1.869   3.987  0.3362  0.1049 -0.2928
  160SAPE  H13S17847   4.073   1.726   4.059 -1.0987 -1.5592  0.3591
  160SAPE  C21417848   3.863   1.742   4.107 -0.1522 -0.0604  0.7856
  160SAPE  H14R17849   3.790   1.824   4.101 -0.4751 -0.2348  1.9352
  160SAPE  C21517850   3.847   1.645   4.204  0.1437  0.0990  0.4065
  160SAPE  H15R17851   3.758   1.649   4.268 -1.3693  0.2742 -1.6054
  160SAPE  C21617852   3.941   1.532   4.243 -0.3630 -0.2492  0.3463
  160SAPE  H16R17853   4.033   1.517   4.183 -1.3539 -0.8397 -1.0920
  160SAPE  H16S17854   3.888   1.435   4.239  0.3656 -0.7876  2.4644
  160SAPE  C21717855   3.986   1.556   4.385  0.4982  0.4877 -0.7831
  160SAPE  H17R17856   3.897   1.549   4.450 -2.3656 -0.6281 -4.4936
  160SAPE  H17S17857   4.031   1.656   4.403  2.8260 -0.4097 -1.2193
  160SAPE  C21817858   4.082   1.447   4.446 -0.1795  0.0114  0.1247
  160SAPE  H18R17859   4.166   1.430   4.376 -0.3272  0.2994 -0.1207
  160SAPE  H18S17860   4.023   1.353   4.448 -2.4176  1.3430  0.4214
  160SAPE  C21917861   4.143   1.479   4.585 -0.0474  0.7542  0.0195
  160SAPE  H19R17862   4.173   1.585   4.597 -0.9482  1.3278 -2.3652
  160SAPE  H19S17863   4.234   1.415   4.591  0.3988  1.2105 -1.5579
  160SAPE  C22017864   4.039   1.450   4.692  0.4265 -0.1090 -0.3659
  160SAPE  H20R17865   4.073   1.488   4.790  0.1295 -2.2063  0.5998
  160SAPE  H20S17866   4.035   1.340   4.702 -2.3178 -0.0848 -0.3227
  160SAPE  H20T17867   3.941   1.497   4.668 -0.2007 -1.5075 -0.6501
  160SAPE   C3317868   4.240   2.120   3.346  0.4542  0.1371 -0.2661
  160SAPE   H3X17869   4.190   2.143   3.442 -1.0442 -0.5958 -0.8416
  160SAPE   H3Y17870   4.270   2.214   3.295  1.1516 -0.3315 -0.7436
  160SAPE   C3417871   4.361   2.029   3.374 -0.6349  0.5767 -0.2104
  160SAPE   H4X17872   4.434   2.097   3.422  0.5374 -0.4405 -0.5055
  160SAPE   H4Y17873   4.399   1.991   3.276 -2.0035 -0.4188 -0.3824
  160SAPE   C3517874   4.319   1.912   3.459 -0.5096 -0.1309  0.0888
  160SAPE   H5X17875   4.335   1.810   3.417 -0.2191  0.3813 -1.0624
  160SAPE   H5Y17876   4.213   1.916   3.492 -0.8880  1.3363 -1.1904
  160SAPE   C3617877   4.392   1.930   3.594  0.0342 -0.0091  0.0319
  160SAPE   H6X17878   4.376   2.033   3.633 -0.7787  0.1464 -0.6753
  160SAPE   H6Y17879   4.499   1.902   3.594 -1.0203 -5.0256 -0.4052
  160SAPE   C3717880   4.332   1.842   3.701  0.6149  0.7056 -0.6173
  160SAPE   H7X17881   4.309   1.741   3.660  0.5790 -0.1331  1.3624
  160SAPE   H7Y17882   4.242   1.892   3.741  1.8160  1.9783  0.6482
  160SAPE   C3817883   4.432   1.826   3.823  0.8365  0.1816  0.1388
  160SAPE   H8X17884   4.482   1.921   3.851  1.1498  0.3077 -0.8209
  160SAPE   H8Y17885   4.511   1.757   3.787 -0.6260 -1.4823 -0.0163
  160SAPE   C3917886   4.365   1.763   3.948  0.2215  0.1189 -0.0482
  160SAPE   H9X17887   4.328   1.664   3.913  0.5551 -0.4014  1.0496
  160SAPE   H9Y17888   4.282   1.831   3.976  1.5903  1.7582  0.1498
  160SAPE  C31017889   4.462   1.751   4.067 -0.3346  0.4002  0.0549
  160SAPE  H10X17890   4.507   1.851   4.087  0.1804  0.2487 -0.3362
  160SAPE  H10Y17891   4.547   1.683   4.047  0.5108  0.7018  2.3014
  160SAPE  C31117892   4.392   1.703   4.199 -1.0898 -0.4144  0.2187
  160SAPE  H11X17893   4.361   1.597   4.187  0.0731 -0.4742 -3.6094
  160SAPE  H11Y17894   4.304   1.770   4.214  0.9151  2.7218 -0.8694
  160SAPE  C31217895   4.489   1.710   4.314  0.3691  0.1183 -0.3223
  160SAPE  H12X17896   4.530   1.813   4.321  0.1371  0.3132 -1.6094
  160SAPE  H12Y17897   4.578   1.645   4.306  1.0626  0.3521  3.4251
  160SAPE  C31317898   4.411   1.683   4.454 -0.5231 -0.8417  0.2570
  160SAPE  H13X17899   4.354   1.589   4.440 -2.4610  0.2401  0.5703
  160SAPE  H13Y17900   4.335   1.762   4.470  0.4757  1.1320 -3.4171
  160SAPE  C31417901   4.504   1.688   4.578  0.3685 -0.1333  0.4897
  160SAPE  H14X17902   4.597   1.635   4.549 -0.0252 -0.1819 -0.7737
  160SAPE  H14Y17903   4.466   1.636   4.669  1.3265 -1.4051  0.1953
  160SAPE  C31517904   4.538   1.834   4.621  0.5386  0.3672 -0.0900
  160SAPE  H15X17905   4.448   1.856   4.681  1.3990 -0.3170  1.5080
  160SAPE  H15Y17906   4.551   1.893   4.528 -0.3035  1.2105  0.3143
  160SAPE  C31617907   4.664   1.850   4.707  0.7733  0.6183  0.4579
  160SAPE  H16X17908   4.704   1.952   4.692  0.2814  1.0932  2.1795
  160SAPE  H16Y17909   4.735   1.773   4.668  0.1301 -0.1711  0.8008
  160SAPE  C31717910   4.645   1.833   4.858 -0.0521 -0.5111  0.3940
  160SAPE  H17X17911   4.607   1.733   4.889 -0.7701 -0.9495 -1.7467
  160SAPE  H17Y17912   4.572   1.911   4.886 -0.3291 -1.4136  2.3836
  160SAPE  C31817913   4.768   1.872   4.935  1.2766  0.3933 -0.1126
  160SAPE  H18X17914   4.848   1.805   4.898 -0.0101 -0.7813 -0.8425
  160SAPE  H18Y17915   4.771   1.843   5.042  0.8092  0.3949 -0.0947
  160SAPE  H18Z17916   4.794   1.980   4.935 -1.0563  1.1038  3.1736
  161SAPE     N17917   3.353   5.238   2.487 -0.4096 -0.4878 -0.1424
  161SAPE   HN117918   3.337   5.135   2.490  0.0151 -0.5407  0.7084
  161SAPE   HN217919   3.328   5.281   2.396 -1.1658  1.3954  0.8935
  161SAPE   HN317920   3.455   5.256   2.500 -0.4584  2.2069 -2.5983
  161SAPE   C1217921   3.270   5.302   2.598 -0.0121  0.1931  0.0168
  161SAPE  H12A17922   3.274   5.241   2.691 -0.3550  1.2667  0.7567
  161SAPE  H12B17923   3.164   5.313   2.567 -0.1569 -0.4634  0.2673
  161SAPE   C1117924   3.328   5.441   2.634 -0.7613  0.3802  0.4887
  161SAPE  H11A17925   3.426   5.421   2.681 -0.0205 -1.0544 -1.5355
  161SAPE  H11B17926   3.265   5.476   2.719 -0.8043 -1.8976  1.4809
  161SAPE     P17927   3.261   5.649   2.495  0.1799  0.3782  0.2100
  161SAPE   O1317928   3.289   5.712   2.360  0.3640  0.8666  0.5224
  161SAPE   O1417929   3.119   5.606   2.515 -0.3456 -0.2225 -0.1476
  161SAPE   O1217930   3.353   5.527   2.518  0.8880 -0.1144  0.0735
  161SAPE   O1117931   3.314   5.733   2.615  0.1300  0.1380  0.1305
  161SAPE    C117932   3.431   5.810   2.601 -0.4404 -0.6097  0.1156
  161SAPE    HA17933   3.475   5.823   2.500  3.1981 -0.9507  1.4892
  161SAPE    HB17934   3.417   5.912   2.642  2.3224 -0.2447  0.3438
  161SAPE    C217935   3.547   5.755   2.688 -0.1683  0.4033  0.1764
  161SAPE    HS17936   3.561   5.650   2.656 -0.0729  0.5726 -0.3517
  161SAPE   O2117937   3.504   5.767   2.826 -0.0397  0.4425  0.1956
  161SAPE   C2117938   3.591   5.720   2.917 -0.8950 -0.3861  0.0592
  161SAPE   O2217939   3.682   5.643   2.892 -0.3468 -0.3582  0.0752
  161SAPE   C2217940   3.553   5.771   3.053  0.0232  0.2739 -0.2511
  161SAPE   H2R17941   3.517   5.876   3.052 -0.2293  0.2622  2.1303
  161SAPE   H2S17942   3.472   5.707   3.096 -1.3077 -0.5935 -3.7350
  161SAPE    C317943   3.683   5.834   2.663 -0.1903  0.4496  0.0066
  161SAPE    HX17944   3.702   5.845   2.554  1.1461  0.4567  0.2233
  161SAPE    HY17945   3.756   5.766   2.712 -0.5412  0.6234  0.7794
  161SAPE   O3117946   3.684   5.959   2.737  0.5456 -0.1026 -0.2458
  161SAPE   C3117947   3.793   6.023   2.720 -0.5785 -0.8509 -0.2741
  161SAPE   O3217948   3.888   6.000   2.645  0.3641 -0.6907  0.3204
  161SAPE   C3217949   3.792   6.146   2.818 -0.6229 -0.9477  1.4034
  161SAPE   H2X17950   3.706   6.199   2.770  0.2344  0.3232  1.2303
  161SAPE   H2Y17951   3.887   6.203   2.811  0.0900 -2.0812  1.8115
  161SAPE   C2317952   3.660   5.762   3.161 -0.2786 -0.1269  0.3833
  161SAPE   H3R17953   3.743   5.835   3.150 -0.1890 -0.4925 -1.9943
  161SAPE   H3S17954   3.697   5.661   3.136 -0.3924 -0.2200  0.5904
  161SAPE   C2417955   3.605   5.758   3.298  0.2056  0.2870  0.3516
  161SAPE   H4R17956   3.667   5.694   3.363  0.3857  1.6297  1.5468
  161SAPE   H4S17957   3.514   5.694   3.304  0.2996 -0.0190 -1.0894
  161SAPE   C2517958   3.577   5.898   3.345 -0.1509  0.0985 -0.3036
  161SAPE   H5R17959   3.640   5.973   3.294 -0.1793  0.5415  0.2891
  161SAPE   C2617960   3.490   5.944   3.436  0.2003  0.4714  0.3401
  161SAPE   H6R17961   3.486   6.052   3.453  0.2027  0.3470  1.1513
  161SAPE   C2717962   3.395   5.862   3.523  0.7472  0.1056  0.3887
  161SAPE   H7R17963   3.440   5.772   3.571 -0.4308 -0.6643  0.0996
  161SAPE   H7S17964   3.327   5.815   3.448  1.4327  0.7985 -0.6927
  161SAPE   C2817965   3.314   5.957   3.610 -0.2135 -0.0978  0.0679
  161SAPE   H8R17966   3.312   6.056   3.563  0.2147 -0.4283 -0.6535
  161SAPE   C2917967   3.250   5.928   3.717 -0.1077 -0.4597 -0.4355
  161SAPE   H9R17968   3.201   6.010   3.772  1.5388  1.2520 -1.4276
  161SAPE  C21017969   3.235   5.789   3.768  0.1807  0.0014 -0.0816
  161SAPE  H10R17970   3.256   5.713   3.690 -3.2752 -0.1594 -1.0595
  161SAPE  H10S17971   3.129   5.758   3.785  0.2801 -0.4918 -0.3715
  161SAPE  C21117972   3.324   5.788   3.895 -0.3906  0.1305  0.2750
  161SAPE  H11R17973   3.428   5.786   3.860 -1.3553  0.9559 -3.0191
  161SAPE  C21217974   3.294   5.775   4.028  0.3153 -0.2335 -0.1750
  161SAPE  H12R17975   3.377   5.786   4.100  1.4576  1.3155 -1.6653
  161SAPE  C21317976   3.151   5.769   4.079 -0.2583  0.7300  0.2560
  161SAPE  H13R17977   3.072   5.788   4.004 -0.5093  1.1185  0.6115
  161SAPE  H13S17978   3.133   5.841   4.162 -1.6896  0.6528  0.0274
  161SAPE  C21417979   3.127   5.628   4.136 -0.3854  0.7295 -1.3306
  161SAPE  H14R17980   3.217   5.581   4.179 -1.6752 -1.0770 -0.4692
  161SAPE  C21517981   3.007   5.566   4.158 -0.0609 -0.0834 -0.8428
  161SAPE  H15R17982   3.006   5.466   4.203  0.2477 -0.2308 -1.1695
  161SAPE  C21617983   2.876   5.626   4.123 -0.2243  0.4922 -0.3140
  161SAPE  H16R17984   2.790   5.556   4.124 -0.2686  0.5270  1.1389
  161SAPE  H16S17985   2.884   5.666   4.020  0.7623 -0.2487 -0.5389
  161SAPE  C21717986   2.831   5.728   4.228 -1.0075  0.1946  0.0691
  161SAPE  H17R17987   2.731   5.767   4.199 -0.8180  1.0056  0.4769
  161SAPE  H17S17988   2.908   5.807   4.222  0.5386 -1.2929 -0.5214
  161SAPE  C21817989   2.828   5.651   4.366  0.2904  0.0953 -0.1492
  161SAPE  H18R17990   2.925   5.612   4.402 -0.4095 -0.5300  1.1195
  161SAPE  H18S17991   2.762   5.562   4.353  0.4768  0.2122 -2.3766
  161SAPE  C21917992   2.776   5.739   4.480  1.1353  0.3411  0.3155
  161SAPE  H19R17993   2.678   5.784   4.453  0.2641 -0.6553  1.6792
  161SAPE  H19S17994   2.850   5.821   4.494  2.3152 -0.6317 -0.0752
  161SAPE  C22017995   2.775   5.648   4.607 -0.3900  0.1363  0.3551
  161SAPE  H20R17996   2.784   5.713   4.697 -1.7633 -0.0955  0.6891
  161SAPE  H20S17997   2.868   5.588   4.599 -0.9348 -0.4983 -2.1599
  161SAPE  H20T17998   2.684   5.585   4.618  0.7325 -1.3927  1.1852
  161SAPE   C3317999   3.765   6.117   2.969 -0.3504 -0.0419  0.2813
  161SAPE   H3X18000   3.859   6.071   3.008  1.6627 -1.5528 -5.2930
  161SAPE   H3Y18001   3.688   6.043   2.998 -1.4324  0.6177 -0.8337
  161SAPE   C3418002   3.738   6.247   3.048 -0.5272  0.2794 -0.9756
  161SAPE   H4X18003   3.639   6.296   3.038 -1.6033 -0.5248  3.6063
  161SAPE   H4Y18004   3.811   6.325   3.014  0.8427 -1.0888 -1.2796
  161SAPE   C3518005   3.756   6.227   3.202  0.1415 -0.3260 -0.3098
  161SAPE   H5X18006   3.854   6.182   3.228 -0.7005 -0.3717  3.2094
  161SAPE   H5Y18007   3.670   6.169   3.240 -0.1574 -1.2262 -2.2264
  161SAPE   C3618008   3.768   6.363   3.270  0.2166 -0.3124 -0.4453
  161SAPE   H6X18009   3.676   6.422   3.245  0.9618  0.7806 -0.6963
  161SAPE   H6Y18010   3.862   6.416   3.246 -0.9902  1.5937 -1.2667
  161SAPE   C3718011   3.779   6.336   3.421  0.3781 -0.4961  1.1416
  161SAPE   H7X18012   3.792   6.435   3.471 -0.5456  0.9014 -1.2370
  161SAPE   H7Y18013   3.870   6.283   3.456  1.0799 -0.1296 -0.0855
  161SAPE   C3818014   3.655   6.268   3.481 -0.3034  0.5540  0.0555
  161SAPE   H8X18015   3.653   6.159   3.463  0.9334  0.5450 -0.1114
  161SAPE   H8Y18016   3.556   6.308   3.449 -1.0707 -1.9987 -0.9887
  161SAPE   C3918017   3.656   6.278   3.633  0.0989 -0.4273  0.2395
  161SAPE   H9X18018   3.653   6.384   3.666  1.2008  0.1662 -1.4008
  161SAPE   H9Y18019   3.752   6.234   3.668  0.1569 -0.2819  0.2663
  161SAPE  C31018020   3.538   6.211   3.697  0.1237 -0.1923  1.1513
  161SAPE  H10X18021   3.520   6.108   3.660  2.5498  0.0943 -1.1768
  161SAPE  H10Y18022   3.447   6.270   3.672 -0.4151 -1.1419  0.8618
  161SAPE  C31118023   3.548   6.201   3.849 -0.1126  0.6124 -0.2922
  161SAPE  H11X18024   3.640   6.146   3.878  0.1332  0.5139 -1.2378
  161SAPE  H11Y18025   3.464   6.136   3.883  1.2236 -1.2920 -0.4309
  161SAPE  C31218026   3.529   6.327   3.929  0.4444 -0.8962  0.8133
  161SAPE  H12X18027   3.433   6.369   3.892  0.3648 -1.0684  0.8272
  161SAPE  H12Y18028   3.605   6.401   3.894 -2.5902  0.6299 -3.4446
  161SAPE  C31318029   3.522   6.314   4.078 -0.1571  0.2878  0.7216
  161SAPE  H13X18030   3.617   6.269   4.115  0.0734 -1.3035 -1.6252
  161SAPE  H13Y18031   3.448   6.234   4.101  1.4312 -1.7656 -0.9641
  161SAPE  C31418032   3.511   6.436   4.167  0.3902 -0.2379 -0.2996
  161SAPE  H14X18033   3.424   6.487   4.120  1.2755 -1.8457 -4.0278
  161SAPE  H14Y18034   3.599   6.499   4.143  0.4857  0.2390  1.1729
  161SAPE  C31518035   3.504   6.417   4.324 -0.2948  0.0061  0.6217
  161SAPE  H15X18036   3.606   6.429   4.366  0.0364 -2.8964  0.8450
  161SAPE  H15Y18037   3.476   6.312   4.347  2.7276 -0.6056  2.0726
  161SAPE  C31618038   3.412   6.516   4.388  0.2733  0.1796 -0.4185
  161SAPE  H16X18039   3.351   6.563   4.309  1.5088 -0.4290 -1.7710
  161SAPE  H16Y18040   3.480   6.588   4.440  2.9157 -1.7533 -0.9740
  161SAPE  C31718041   3.313   6.437   4.473  0.5422  0.1093 -0.0179
  161SAPE  H17X18042   3.275   6.345   4.424 -0.3402 -0.8998  2.4149
  161SAPE  H17Y18043   3.219   6.491   4.497  0.0082 -1.5465  1.9348
  161SAPE  C31818044   3.370   6.382   4.607 -0.7985 -0.1806  0.2460
  161SAPE  H18X18045   3.472   6.340   4.596  0.4082  2.4875  0.5257
  161SAPE  H18Y18046   3.312   6.297   4.649 -2.2481  0.6125 -0.0973
  161SAPE  H18Z18047   3.376   6.469   4.675  0.0467  1.4664 -1.8257
  162SAPE     N18048   5.912   1.121   2.479  0.1254 -0.1770  0.1625
  162SAPE   HN118049   5.851   1.045   2.441 -0.5695  1.2537 -1.7462
  162SAPE   HN218050   5.842   1.197   2.472 -0.3121 -0.3532  2.0313
  162SAPE   HN318051   5.984   1.152   2.410 -0.9409 -0.8945 -1.3385
  162SAPE   C1218052   5.959   1.114   2.624 -0.3068 -0.0482  0.7713
  162SAPE  H12A18053   6.044   1.042   2.631 -0.9502 -0.7283  1.8143
  162SAPE  H12B18054   5.878   1.095   2.697 -0.9121 -0.4987  0.0019
  162SAPE   C1118055   6.018   1.251   2.667  0.4976  0.9993 -0.5158
  162SAPE  H11A18056   6.050   1.243   2.773  0.9198  0.1677 -0.6984
  162SAPE  H11B18057   5.937   1.327   2.669 -0.2936  0.2622  3.2773
  162SAPE     P18058   6.185   1.437   2.591  0.4491  0.1332  0.3042
  162SAPE   O1318059   6.321   1.436   2.540 -0.8814  0.1697  0.8037
  162SAPE   O1418060   6.084   1.523   2.537  0.0794  0.2072  0.7013
  162SAPE   O1218061   6.124   1.288   2.580 -0.5983  0.1550  1.0153
  162SAPE   O1118062   6.187   1.461   2.745 -0.0468 -0.5605 -0.1101
  162SAPE    C118063   6.084   1.519   2.830 -0.1722 -0.6077  0.4566
  162SAPE    HA18064   5.986   1.525   2.778  0.7967  0.4323 -1.3601
  162SAPE    HB18065   6.074   1.455   2.920 -0.2326 -1.4776 -0.1553
  162SAPE    C218066   6.130   1.661   2.884  0.2662  0.4725 -0.3045
  162SAPE    HS18067   6.156   1.724   2.795 -0.7778  1.4421  0.0557
  162SAPE   O2118068   6.247   1.628   2.970  0.0133  0.1274 -0.0146
  162SAPE   C2118069   6.327   1.735   3.003  0.0497  0.8514 -0.2089
  162SAPE   O2218070   6.306   1.846   2.960 -0.5409  0.3032 -0.5615
  162SAPE   C2218071   6.448   1.711   3.090 -0.5376 -0.4560  0.6083
  162SAPE   H2R18072   6.443   1.605   3.121  0.3935 -1.1403 -1.4192
  162SAPE   H2S18073   6.540   1.728   3.029 -0.8395 -0.9293  0.0172
  162SAPE    C318074   6.013   1.726   2.964  0.4130  0.8762  0.4807
  162SAPE    HX18075   5.925   1.742   2.898 -0.0443  0.4342  0.9711
  162SAPE    HY18076   6.060   1.820   3.001  1.0154  1.2976 -1.2715
  162SAPE   O3118077   5.975   1.638   3.070 -0.2827 -0.5408  0.0688
  162SAPE   C3118078   5.997   1.670   3.201 -0.0927 -0.2994  0.3744
  162SAPE   O3218079   6.018   1.785   3.242  0.3885  0.1553 -0.2372
  162SAPE   C3218080   5.995   1.542   3.290 -0.5510 -0.1415  0.0491
  162SAPE   H2X18081   5.942   1.463   3.232  1.2545 -0.2951 -1.4940
  162SAPE   H2Y18082   5.932   1.556   3.381  0.0014  1.9771  0.1533
  162SAPE   C2318083   6.444   1.801   3.212 -0.2375  0.5815  0.1195
  162SAPE   H3R18084   6.368   1.768   3.286  0.9107  0.8497  1.4687
  162SAPE   H3S18085   6.417   1.902   3.172  1.2741 -0.1247 -2.9826
  162SAPE   C2418086   6.575   1.813   3.283  0.1832  0.5589  0.6387
  162SAPE   H4R18087   6.658   1.836   3.214  1.2967 -0.5683  1.5521
  162SAPE   H4S18088   6.590   1.711   3.325 -0.1167  0.6800  1.0520
  162SAPE   C2518089   6.581   1.908   3.401 -0.3466 -0.2665 -0.2890
  162SAPE   H5R18090   6.585   2.015   3.373 -0.9026  0.2257  1.4113
  162SAPE   C2618091   6.592   1.879   3.534 -0.1315 -0.2374  0.3895
  162SAPE   H6R18092   6.596   1.959   3.609  0.6420 -0.2190  0.3384
  162SAPE   C2718093   6.593   1.737   3.592 -0.4174 -1.0489 -0.3100
  162SAPE   H7R18094   6.698   1.718   3.621 -0.1847  0.5253 -0.0422
  162SAPE   H7S18095   6.573   1.659   3.516  0.0016  0.0203 -1.5557
  162SAPE   C2818096   6.506   1.722   3.711 -0.9678 -0.6110  0.1891
  162SAPE   H8R18097   6.405   1.687   3.683 -1.0387  0.1160 -0.4925
  162SAPE   C2918098   6.527   1.753   3.836  0.5464 -0.1621 -0.7537
  162SAPE   H9R18099   6.445   1.735   3.907  0.8717 -0.2238 -0.3934
  162SAPE  C21018100   6.665   1.796   3.890  0.2344 -0.1873 -0.5363
  162SAPE  H10R18101   6.735   1.786   3.804 -1.7979  1.6601 -2.5166
  162SAPE  H10S18102   6.682   1.736   3.983 -0.3432  0.1557 -0.2025
  162SAPE  C21118103   6.657   1.936   3.934  0.0736 -0.3013 -0.4615
  162SAPE  H11R18104   6.634   2.010   3.856  0.6903 -0.7952 -1.1292
  162SAPE  C21218105   6.700   1.994   4.053  0.2707 -0.4699  0.4528
  162SAPE  H12R18106   6.700   2.103   4.064  1.4894 -0.4867  0.7140
  162SAPE  C21318107   6.736   1.920   4.181  0.2840  0.6726  0.0568
  162SAPE  H13R18108   6.815   1.847   4.152 -1.3646 -1.8522  1.5168
  162SAPE  H13S18109   6.652   1.853   4.209 -0.1046  1.4106  0.6883
  162SAPE  C21418110   6.773   1.997   4.304  0.7767 -1.0696 -0.4507
  162SAPE  H14R18111   6.777   2.105   4.284  1.3218 -1.1130 -0.5992
  162SAPE  C21518112   6.793   1.956   4.432  0.9266 -0.7282  0.7658
  162SAPE  H15R18113   6.825   2.031   4.506  1.9592 -0.5152  0.1217
  162SAPE  C21618114   6.787   1.816   4.492 -0.4600 -0.3860  0.4586
  162SAPE  H16R18115   6.735   1.744   4.426  1.4194 -1.3106 -0.1092
  162SAPE  H16S18116   6.724   1.816   4.583 -0.3453 -0.3205  0.5393
  162SAPE  C21718117   6.923   1.746   4.519 -0.4830 -0.2937 -0.1739
  162SAPE  H17R18118   6.978   1.816   4.587 -2.0868 -1.2076  2.2077
  162SAPE  H17S18119   6.975   1.727   4.423  1.3233  1.7303  0.3022
  162SAPE  C21818120   6.903   1.618   4.596 -0.0082 -1.1785 -0.4862
  162SAPE  H18R18121   6.855   1.535   4.540  0.0051 -0.9945 -0.7710
  162SAPE  H18S18122   6.849   1.649   4.688  2.2463  2.2705 -0.1448
  162SAPE  C21918123   7.031   1.568   4.656  0.1610 -0.2598 -0.2880
  162SAPE  H19R18124   7.086   1.652   4.704 -2.4049  1.3888 -0.0624
  162SAPE  H19S18125   7.094   1.533   4.571  2.2494  2.4596 -0.0042
  162SAPE  C22018126   7.008   1.450   4.761 -0.4492 -0.5550  0.1163
  162SAPE  H20R18127   6.927   1.476   4.832 -0.9361 -0.6719 -0.3888
  162SAPE  H20S18128   7.106   1.427   4.809 -0.2134 -0.7923 -0.4638
  162SAPE  H20T18129   6.977   1.360   4.703  0.9269 -0.7817 -0.3119
  162SAPE   C3318130   6.142   1.507   3.330 -0.7956 -0.5852 -0.2046
  162SAPE   H3X18131   6.209   1.506   3.241  0.5535 -1.8050  0.7663
  162SAPE   H3Y18132   6.136   1.400   3.358  0.3524 -0.4483  0.6038
  162SAPE   C3418133   6.193   1.591   3.457 -0.3056 -0.0416  0.2337
  162SAPE   H4X18134   6.157   1.695   3.441  2.4299  1.0022  0.4426
  162SAPE   H4Y18135   6.303   1.602   3.453 -0.2046 -1.2548 -1.7868
  162SAPE   C3518136   6.134   1.550   3.592  0.4086  0.0528  0.2940
  162SAPE   H5X18137   6.032   1.514   3.566  1.0169 -1.2384 -0.3637
  162SAPE   H5Y18138   6.132   1.645   3.651  3.2635  1.3708 -1.5105
  162SAPE   C3618139   6.217   1.440   3.659 -0.4158 -0.1533 -0.8262
  162SAPE   H6X18140   6.302   1.492   3.709 -1.1026 -0.8073  1.1128
  162SAPE   H6Y18141   6.258   1.370   3.583  0.1481  1.1457 -1.7495
  162SAPE   C3718142   6.143   1.364   3.774  0.7236  0.7164 -0.3074
  162SAPE   H7X18143   6.211   1.281   3.801  0.9969  1.1030  0.2022
  162SAPE   H7Y18144   6.052   1.320   3.728  0.5966  1.2401 -0.5682
  162SAPE   C3818145   6.117   1.453   3.900 -0.0719  0.5370 -0.1625
  162SAPE   H8X18146   6.036   1.412   3.964  2.4750 -0.4554  2.6887
  162SAPE   H8Y18147   6.071   1.547   3.864 -1.7427  0.2147  1.0160
  162SAPE   C3918148   6.239   1.460   3.995 -0.3734  0.1337  0.6161
  162SAPE   H9X18149   6.319   1.505   3.933 -1.7202  0.0519 -1.2627
  162SAPE   H9Y18150   6.262   1.356   4.027 -0.5716 -0.1314 -0.0773
  162SAPE  C31018151   6.214   1.554   4.111 -0.4443 -0.0212 -0.4038
  162SAPE  H10X18152   6.132   1.515   4.175 -2.3785  2.2030 -1.3967
  162SAPE  H10Y18153   6.169   1.649   4.075 -0.6940  0.7557  1.7907
  162SAPE  C31118154   6.341   1.596   4.191  0.3362  0.1285 -0.1018
  162SAPE  H11X18155   6.372   1.697   4.154 -0.1190  0.4545  0.3865
  162SAPE  H11Y18156   6.420   1.528   4.152  1.2943  1.4721 -0.6020
  162SAPE  C31218157   6.307   1.574   4.337 -0.5905 -0.0239  0.1386
  162SAPE  H12X18158   6.280   1.469   4.362 -1.2843  0.5547  2.0270
  162SAPE  H12Y18159   6.227   1.646   4.363 -1.8836 -1.2830 -0.2557
  162SAPE  C31318160   6.418   1.607   4.429 -0.4435 -0.0025  0.0297
  162SAPE  H13X18161   6.449   1.713   4.421 -1.2217  0.0841 -3.4316
  162SAPE  H13Y18162   6.512   1.551   4.406 -1.7048 -2.2229 -0.0383
  162SAPE  C31418163   6.393   1.570   4.571  0.1914 -0.1527 -0.2497
  162SAPE  H14X18164   6.376   1.460   4.570  0.9212 -0.2974  1.0516
  162SAPE  H14Y18165   6.297   1.615   4.602  0.2765  0.9377 -1.4874
  162SAPE  C31518166   6.503   1.605   4.668 -0.6610 -0.7248 -0.3380
  162SAPE  H15X18167   6.602   1.593   4.619 -0.2477 -2.2056  0.8204
  162SAPE  H15Y18168   6.491   1.528   4.746  0.7645 -1.7054 -1.0433
  162SAPE  C31618169   6.488   1.745   4.727  0.0312  0.4951  0.0173
  162SAPE  H16X18170   6.381   1.745   4.758  0.1477  1.4905  0.4458
  162SAPE  H16Y18171   6.499   1.831   4.658  0.1022  0.3919 -0.0994
  162SAPE  C31718172   6.586   1.777   4.849 -0.3775  0.1276  0.6592
  162SAPE  H17X18173   6.694   1.767   4.825 -0.8894  0.6421 -2.2223
  162SAPE  H17Y18174   6.562   1.696   4.922  0.0548 -1.0297 -0.4292
  162SAPE  C31818175   6.566   1.911   4.926 -0.1431  0.5910 -0.1960
  162SAPE  H18X18176   6.459   1.913   4.954 -0.2404 -0.0482 -0.4992
  162SAPE  H18Y18177   6.594   1.995   4.858 -0.9262  0.3981 -0.7784
  162SAPE  H18Z18178   6.626   1.899   5.019 -0.5565  0.5296  0.0649
  163SAPE     N18179   2.698   6.867   2.690 -0.5260  0.9740  0.1960
  163SAPE   HN118180   2.627   6.923   2.640 -0.4985  0.7813 -0.0626
  163SAPE   HN218181   2.669   6.767   2.689  1.0306  0.4399 -2.9767
  163SAPE   HN318182   2.694   6.905   2.787 -0.3004 -0.6749  0.9030
  163SAPE   C1218183   2.834   6.878   2.627  0.2536  0.3094  0.8867
  163SAPE  H12A18184   2.831   6.836   2.524  0.6758  2.9406 -0.2827
  163SAPE  H12B18185   2.895   6.816   2.696 -0.3020  0.8736  1.9141
  163SAPE   C1118186   2.896   7.013   2.629 -0.0656 -0.4616 -0.3781
  163SAPE  H11A18187   3.005   7.014   2.609  0.1460  1.2050  0.6606
  163SAPE  H11B18188   2.872   7.051   2.731 -0.3080 -2.6763  0.4421
  163SAPE     P18189   2.810   7.252   2.564 -0.1294 -0.4860 -0.3160
  163SAPE   O1318190   2.921   7.340   2.516  0.0887 -0.6312 -0.1080
  163SAPE   O1418191   2.681   7.288   2.501  0.3784 -0.1239  0.0262
  163SAPE   O1218192   2.831   7.100   2.540  0.7084 -0.1154 -0.2641
  163SAPE   O1118193   2.779   7.277   2.718 -0.0053 -0.0198 -0.2683
  163SAPE    C118194   2.657   7.232   2.771 -0.7194 -1.3818  0.0287
  163SAPE    HA18195   2.570   7.276   2.718  0.4817 -0.5002 -1.2772
  163SAPE    HB18196   2.638   7.123   2.776 -2.5739 -1.2130 -2.0069
  163SAPE    C218197   2.648   7.286   2.922 -0.3215 -0.0474  0.3367
  163SAPE    HS18198   2.657   7.396   2.917  1.2653 -0.2016 -1.4470
  163SAPE   O2118199   2.755   7.212   2.989  0.5894 -0.2883 -0.2371
  163SAPE   C2118200   2.857   7.288   3.033  0.0308 -0.2528 -0.4862
  163SAPE   O2218201   2.881   7.400   2.983 -0.0831 -0.4131 -0.1275
  163SAPE   C2218202   2.941   7.217   3.133 -0.0995 -0.2041 -0.2776
  163SAPE   H2R18203   2.903   7.113   3.141 -0.4022 -0.3055 -2.3530
  163SAPE   H2S18204   3.046   7.210   3.097  0.3875  2.7998  0.2277
  163SAPE    C318205   2.515   7.259   2.993 -0.0938  0.1150  0.0967
  163SAPE    HX18206   2.482   7.153   2.991 -2.0556  0.6896  0.6141
  163SAPE    HY18207   2.436   7.317   2.940  0.8900  0.7700 -0.6945
  163SAPE   O3118208   2.523   7.315   3.126 -0.3715  0.3425  0.0023
  163SAPE   C3118209   2.475   7.255   3.228 -0.6623 -0.5721  0.2803
  163SAPE   O3218210   2.420   7.144   3.226 -0.0023 -0.7422 -0.4818
  163SAPE   C3218211   2.485   7.340   3.353 -0.2300 -0.1926  0.3794
  163SAPE   H2X18212   2.394   7.402   3.368 -1.4633 -2.1725  1.5068
  163SAPE   H2Y18213   2.573   7.407   3.343  0.2207 -1.0501 -1.9333
  163SAPE   C2318214   2.923   7.301   3.263  0.4095  0.5438  0.1425
  163SAPE   H3R18215   2.818   7.289   3.298  1.2270 -2.8375  1.8307
  163SAPE   H3S18216   2.946   7.410   3.261  2.0736  0.2367  0.7556
  163SAPE   C2418217   3.005   7.241   3.379 -0.2557  0.4923 -0.7004
  163SAPE   H4R18218   2.957   7.144   3.407  1.0912 -0.0804 -0.3029
  163SAPE   H4S18219   2.991   7.304   3.469 -1.5482  1.6504 -1.6684
  163SAPE   C2518220   3.151   7.223   3.354 -0.5146 -0.2051  0.0579
  163SAPE   H5R18221   3.179   7.127   3.307 -0.6498 -0.2378  0.0450
  163SAPE   C2618222   3.252   7.306   3.385  0.2102  0.3610 -0.2028
  163SAPE   H6R18223   3.357   7.277   3.367 -0.2185 -0.5151 -1.4187
  163SAPE   C2718224   3.231   7.438   3.458 -0.8990 -0.3869 -0.5543
  163SAPE   H7R18225   3.316   7.454   3.528 -0.3738 -2.0021 -0.7684
  163SAPE   H7S18226   3.149   7.430   3.532 -1.7143  0.3844 -1.3551
  163SAPE   C2818227   3.214   7.555   3.370 -0.0046  0.7535 -0.4978
  163SAPE   H8R18228   3.172   7.540   3.269 -0.2611  1.7960 -0.5543
  163SAPE   C2918229   3.216   7.689   3.402  0.4117  0.2363 -0.6294
  163SAPE   H9R18230   3.184   7.766   3.331  0.9166  1.2211  0.1891
  163SAPE  C21018231   3.245   7.739   3.542 -0.0726 -0.1243 -0.8099
  163SAPE  H10R18232   3.173   7.698   3.616 -0.6832  0.1540 -1.2371
  163SAPE  H10S18233   3.222   7.848   3.536 -0.7758 -0.1296  1.0322
  163SAPE  C21118234   3.390   7.736   3.576  0.0670  0.0436 -0.6080
  163SAPE  H11R18235   3.449   7.702   3.489  0.2055  0.9384 -0.8816
  163SAPE  C21218236   3.456   7.793   3.686  0.0522 -0.6448  0.5630
  163SAPE  H12R18237   3.566   7.794   3.680  0.1431  2.7711  0.6147
  163SAPE  C21318238   3.382   7.851   3.805  0.2988  0.0670  0.5215
  163SAPE  H13R18239   3.285   7.883   3.762  0.2129  0.5024  1.0311
  163SAPE  H13S18240   3.451   7.931   3.839  2.4391 -1.8402  0.9235
  163SAPE  C21418241   3.355   7.740   3.897  0.3848  0.8553 -0.0358
  163SAPE  H14R18242   3.331   7.639   3.859  0.3520  0.7168  0.3470
  163SAPE  C21518243   3.344   7.755   4.031 -0.2213 -0.5212 -0.3341
  163SAPE  H15R18244   3.328   7.671   4.099  1.5056  0.2013  1.0570
  163SAPE  C21618245   3.379   7.886   4.110  0.0237 -0.0392 -0.0169
  163SAPE  H16R18246   3.314   7.967   4.071  0.0396  0.0321  0.0996
  163SAPE  H16S18247   3.482   7.927   4.097 -1.1373  2.9840 -0.6873
  163SAPE  C21718248   3.357   7.869   4.258 -0.4565  0.1618  0.5619
  163SAPE  H17R18249   3.253   7.831   4.264 -0.1792 -0.6195  0.4206
  163SAPE  H17S18250   3.367   7.967   4.311 -0.5898  1.0667 -1.0162
  163SAPE  C21818251   3.466   7.777   4.317  0.0318 -0.0048 -1.1658
  163SAPE  H18R18252   3.563   7.830   4.303 -0.1277  0.7323  0.2690
  163SAPE  H18S18253   3.461   7.682   4.260  2.0015 -1.1187  0.3715
  163SAPE  C21918254   3.443   7.754   4.468  0.7566  0.3303  0.0393
  163SAPE  H19R18255   3.404   7.849   4.512 -1.9505 -0.9019  0.4469
  163SAPE  H19S18256   3.538   7.729   4.521  0.7332 -0.1887 -0.1635
  163SAPE  C22018257   3.331   7.645   4.490 -0.1413  0.4180 -0.1794
  163SAPE  H20R18258   3.393   7.553   4.491  2.1224  1.8015 -1.7864
  163SAPE  H20S18259   3.256   7.643   4.408 -1.0313  2.5523  0.5162
  163SAPE  H20T18260   3.277   7.653   4.586  3.8754 -0.4212  2.3631
  163SAPE   C3318261   2.498   7.253   3.486 -0.6027  0.4354  0.1787
  163SAPE   H3X18262   2.412   7.183   3.498  0.7549 -1.2390  0.6989
  163SAPE   H3Y18263   2.477   7.331   3.561 -0.5240  1.6099 -0.9950
  163SAPE   C3418264   2.622   7.173   3.520 -0.7807 -0.8319 -0.0296
  163SAPE   H4X18265   2.704   7.245   3.496 -0.3672 -1.2151  0.2192
  163SAPE   H4Y18266   2.648   7.091   3.450  1.1041  0.3141 -0.7548
  163SAPE   C3518267   2.625   7.110   3.661 -0.4173 -0.6360 -0.0034
  163SAPE   H5X18268   2.696   7.025   3.663  0.2851 -0.0365  1.4609
  163SAPE   H5Y18269   2.522   7.073   3.684 -0.0100 -0.4337  2.4256
  163SAPE   C3618270   2.651   7.207   3.775 -0.3256  0.2821 -0.0238
  163SAPE   H6X18271   2.563   7.272   3.795 -1.1810 -1.1581  1.1728
  163SAPE   H6Y18272   2.742   7.269   3.763 -0.5208  0.3166 -1.3850
  163SAPE   C3718273   2.670   7.144   3.915  0.6025 -0.1301 -0.0778
  163SAPE   H7X18274   2.747   7.065   3.904 -0.3738 -1.5142  2.3017
  163SAPE   H7Y18275   2.579   7.092   3.951  0.7631 -0.4055 -0.0671
  163SAPE   C3818276   2.714   7.235   4.024 -0.0355 -0.5566 -0.7350
  163SAPE   H8X18277   2.635   7.311   4.043  1.7138  1.1411  0.1410
  163SAPE   H8Y18278   2.802   7.298   3.996 -0.4754 -0.3503 -1.6921
  163SAPE   C3918279   2.745   7.174   4.166  0.0167 -0.3606  0.3813
  163SAPE   H9X18280   2.785   7.255   4.231  2.2682 -0.9448 -0.1668
  163SAPE   H9Y18281   2.821   7.094   4.155 -0.9415 -1.3374  0.7342
  163SAPE  C31018282   2.618   7.108   4.226 -0.4886  0.1878  0.1533
  163SAPE  H10X18283   2.570   7.029   4.165  0.5055 -1.4645  1.4256
  163SAPE  H10Y18284   2.531   7.177   4.239  0.6588  1.2457  3.0164
  163SAPE  C31118285   2.652   7.057   4.366  0.3224  0.1952  0.8164
  163SAPE  H11X18286   2.561   6.997   4.387  1.2082 -2.2600 -1.6544
  163SAPE  H11Y18287   2.666   7.138   4.441  2.6892  0.5042  0.1425
  163SAPE  C31218288   2.777   6.964   4.381 -0.6965  0.7781  0.3704
  163SAPE  H12X18289   2.869   7.023   4.367 -0.3080 -0.3195 -2.4144
  163SAPE  H12Y18290   2.760   6.888   4.301  0.4301  1.6670 -0.7412
  163SAPE  C31318291   2.780   6.887   4.518 -0.0595 -0.6735  0.2027
  163SAPE  H13X18292   2.753   6.960   4.597  0.5820 -0.0795 -0.1118
  163SAPE  H13Y18293   2.879   6.845   4.547 -0.2758 -0.6151  1.0403
  163SAPE  C31418294   2.686   6.769   4.519 -0.5906  0.5593 -1.4771
  163SAPE  H14X18295   2.715   6.698   4.439 -1.0356 -1.0572 -0.2625
  163SAPE  H14Y18296   2.586   6.815   4.509  0.2931  2.9640  0.0135
  163SAPE  C31518297   2.698   6.701   4.656  0.2415 -0.3084 -0.1763
  163SAPE  H15X18298   2.744   6.775   4.726  0.6796  0.0232 -0.8078
  163SAPE  H15Y18299   2.762   6.611   4.667  0.7678  0.3908  4.8826
  163SAPE  C31618300   2.562   6.656   4.695  0.4859  0.2915 -0.4419
  163SAPE  H16X18301   2.517   6.583   4.625 -0.1980 -1.3530  1.6126
  163SAPE  H16Y18302   2.483   6.733   4.709 -0.7081 -1.2796  2.3862
  163SAPE  C31718303   2.575   6.596   4.835 -0.3709 -0.8612  0.2791
  163SAPE  H17X18304   2.611   6.670   4.910  0.9907 -2.5532  1.3723
  163SAPE  H17Y18305   2.639   6.505   4.834 -0.5223 -0.9691  0.4175
  163SAPE  C31818306   2.437   6.540   4.882 -0.6063 -0.6493  0.0894
  163SAPE  H18X18307   2.413   6.455   4.815 -2.6736 -1.4073  1.7206
  163SAPE  H18Y18308   2.363   6.621   4.864 -1.7167 -1.6038  0.2503
  163SAPE  H18Z18309   2.469   6.515   4.985  4.7969  0.0943 -1.0635
  164SAPE     N18310   6.335   4.687   2.674 -0.1750 -0.5294 -0.1290
  164SAPE   HN118311   6.277   4.675   2.760 -1.1012 -1.3105 -0.8435
  164SAPE   HN218312   6.347   4.594   2.631 -2.6830 -0.1262 -1.9287
  164SAPE   HN318313   6.425   4.715   2.720 -1.2274  2.0824  0.5707
  164SAPE   C1218314   6.291   4.799   2.586 -0.5913 -0.8682  0.3578
  164SAPE  H12A18315   6.192   4.779   2.541 -1.2713 -0.3844  1.6074
  164SAPE  H12B18316   6.365   4.822   2.506 -1.1982 -1.3850 -0.3658
  164SAPE   C1118317   6.283   4.933   2.656 -0.0336  0.0403 -0.2653
  164SAPE  H11A18318   6.240   5.015   2.595 -0.7322  0.1116  0.2939
  164SAPE  H11B18319   6.386   4.969   2.675 -0.3682  0.8093  0.1341
  164SAPE     P18320   6.060   4.962   2.781  0.1488 -0.0346 -0.1333
  164SAPE   O1318321   6.014   4.951   2.637 -0.3661  0.6534  0.3693
  164SAPE   O1418322   5.990   4.879   2.887 -0.5407 -0.8116  0.0155
  164SAPE   O1218323   6.213   4.932   2.779 -0.0512 -0.0605  0.0589
  164SAPE   O1118324   6.050   5.114   2.821 -0.4986  0.0176  0.3894
  164SAPE    C118325   6.041   5.160   2.954  0.4393 -0.1740 -0.3249
  164SAPE    HA18326   5.937   5.146   2.989  0.6095 -0.3499  0.1156
  164SAPE    HB18327   6.103   5.096   3.020  1.0544  0.0644 -0.6619
  164SAPE    C218328   6.091   5.308   2.969  0.6437 -0.3550 -0.6635
  164SAPE    HS18329   6.033   5.373   2.900  0.7625  0.7897  0.2912
  164SAPE   O2118330   6.232   5.321   2.932  0.5700  0.7299  0.2966
  164SAPE   C2118331   6.264   5.436   2.880  0.2368 -0.1105 -0.9493
  164SAPE   O2218332   6.195   5.537   2.876 -0.1647 -0.5391 -0.6250
  164SAPE   C2218333   6.412   5.435   2.831  0.0014 -0.0963 -0.1005
  164SAPE   H2R18334   6.480   5.409   2.914  2.3799  1.4463 -1.4330
  164SAPE   H2S18335   6.421   5.352   2.757  1.3679  1.0434 -1.2892
  164SAPE    C318336   6.081   5.358   3.115  0.0889 -0.1574 -0.0821
  164SAPE    HX18337   6.101   5.466   3.131  0.3019 -0.2345  0.1795
  164SAPE    HY18338   6.158   5.313   3.181  0.4830  3.2551  2.0458
  164SAPE   O3118339   5.947   5.324   3.178  0.7021  0.1549  0.1403
  164SAPE   C3118340   5.843   5.404   3.150  1.1609 -0.3997  0.8294
  164SAPE   O3218341   5.845   5.494   3.069 -0.2266 -0.2997 -0.3455
  164SAPE   C3218342   5.717   5.368   3.233 -0.0390 -0.6650 -0.1486
  164SAPE   H2X18343   5.744   5.341   3.337 -2.4237  0.6770  0.9110
  164SAPE   H2Y18344   5.671   5.278   3.187 -1.8998 -0.3260  0.9288
  164SAPE   C2318345   6.461   5.569   2.783 -0.3425  0.1484 -0.5089
  164SAPE   H3R18346   6.380   5.625   2.732  2.2248  1.6069 -3.3718
  164SAPE   H3S18347   6.548   5.573   2.713 -1.5808 -0.2140 -2.1121
  164SAPE   C2418348   6.495   5.658   2.903  0.3327  0.2022 -0.0964
  164SAPE   H4R18349   6.423   5.646   2.987  1.1906 -1.8430  0.4231
  164SAPE   H4S18350   6.499   5.764   2.871  1.2584  0.3000  0.3012
  164SAPE   C2518351   6.625   5.638   2.969 -0.3454  0.2514 -0.3800
  164SAPE   H5R18352   6.704   5.666   2.897  0.3883 -0.8663 -0.0443
  164SAPE   C2618353   6.664   5.571   3.079 -0.3171 -0.5553 -0.5748
  164SAPE   H6R18354   6.769   5.558   3.110 -0.9065 -2.3965  0.8660
  164SAPE   C2718355   6.566   5.518   3.177  0.3958 -0.1974  0.2009
  164SAPE   H7R18356   6.487   5.460   3.125  1.2007 -0.1884 -1.0849
  164SAPE   H7S18357   6.512   5.607   3.216  2.1957  0.8523  0.4210
  164SAPE   C2818358   6.619   5.438   3.285 -0.9225  0.1018 -0.6738
  164SAPE   H8R18359   6.729   5.429   3.289 -0.5715  3.2125 -0.5049
  164SAPE   C2918360   6.539   5.382   3.380 -0.1823  0.7484 -0.0786
  164SAPE   H9R18361   6.591   5.330   3.462 -2.8208 -0.0674  1.1632
  164SAPE  C21018362   6.388   5.377   3.389 -0.8144 -0.3455 -0.1864
  164SAPE  H10R18363   6.350   5.459   3.325  0.2443  0.7432  0.5435
  164SAPE  H10S18364   6.362   5.403   3.494  0.1589 -0.6123  0.1285
  164SAPE  C21118365   6.347   5.239   3.354  0.0698 -0.3627 -0.1432
  164SAPE  H11R18366   6.363   5.206   3.250 -1.5026 -0.9326 -0.2312
  164SAPE  C21218367   6.284   5.157   3.442  0.0666  0.7505  0.1070
  164SAPE  H12R18368   6.246   5.066   3.393  0.1686  0.7147  0.0954
  164SAPE  C21318369   6.248   5.186   3.586 -0.7311  0.5444 -0.7414
  164SAPE  H13R18370   6.201   5.286   3.581  1.9771  1.8711 -1.3834
  164SAPE  H13S18371   6.345   5.197   3.638 -0.0895 -1.9188 -1.2699
  164SAPE  C21418372   6.160   5.080   3.654 -0.2192  0.1484 -0.1362
  164SAPE  H14R18373   6.209   4.989   3.693 -0.9440  0.4983  1.6965
  164SAPE  C21518374   6.027   5.071   3.632  0.4138  0.1088 -0.5369
  164SAPE  H15R18375   5.973   4.994   3.688 -0.1097  1.6196  1.1424
  164SAPE  C21618376   5.941   5.166   3.554 -0.0661  0.1296  0.6654
  164SAPE  H16R18377   5.900   5.116   3.463  0.2601  1.9404 -0.5517
  164SAPE  H16S18378   5.988   5.260   3.516  0.1932  0.2248  1.2139
  164SAPE  C21718379   5.819   5.208   3.643 -0.8575  0.3976 -0.1787
  164SAPE  H17R18380   5.773   5.124   3.699 -0.6554  1.1875  1.2026
  164SAPE  H17S18381   5.742   5.251   3.575 -1.5957  1.1033  1.0721
  164SAPE  C21818382   5.856   5.324   3.741 -0.1202 -0.0460 -0.1213
  164SAPE  H18R18383   5.914   5.400   3.684 -3.0285  2.5584  0.1405
  164SAPE  H18S18384   5.925   5.281   3.817 -0.7451 -2.7859 -1.0018
  164SAPE  C21918385   5.737   5.394   3.803  0.0180 -0.2948 -0.2577
  164SAPE  H19R18386   5.671   5.318   3.849 -0.0893 -0.0710 -0.0409
  164SAPE  H19S18387   5.671   5.444   3.728  0.6070  2.6766  1.0458
  164SAPE  C22018388   5.776   5.492   3.907  0.0754 -0.5319 -1.2043
  164SAPE  H20R18389   5.851   5.563   3.867  0.5099 -1.7243 -2.6086
  164SAPE  H20S18390   5.826   5.451   3.997 -0.2873 -0.4814 -0.9762
  164SAPE  H20T18391   5.685   5.553   3.929  0.6253 -0.5574  1.3868
  164SAPE   C3318392   5.607   5.473   3.260 -0.0533 -0.9524 -0.3224
  164SAPE   H3X18393   5.561   5.501   3.163  1.0666  1.5508 -0.1990
  164SAPE   H3Y18394   5.652   5.566   3.300  1.7491 -1.6284 -0.6447
  164SAPE   C3418395   5.488   5.426   3.345 -0.9236 -0.4013  0.0799
  164SAPE   H4X18396   5.524   5.385   3.442 -1.3532 -2.3471 -0.5479
  164SAPE   H4Y18397   5.438   5.343   3.290  0.5054 -1.5024  0.4051
  164SAPE   C3518398   5.382   5.540   3.355 -0.8333 -0.4976 -0.5170
  164SAPE   H5X18399   5.341   5.586   3.263  0.3796  0.6672 -0.4994
  164SAPE   H5Y18400   5.435   5.620   3.410 -1.0375 -0.5385 -0.2570
  164SAPE   C3618401   5.256   5.516   3.443  0.3801 -0.1186  0.4033
  164SAPE   H6X18402   5.295   5.475   3.539 -0.6854 -1.4666  0.2818
  164SAPE   H6Y18403   5.196   5.434   3.398 -1.9625  1.4246  0.5357
  164SAPE   C3718404   5.168   5.641   3.469 -0.7955  0.0847 -0.1059
  164SAPE   H7X18405   5.093   5.654   3.387 -1.7700 -0.8183  0.6135
  164SAPE   H7Y18406   5.230   5.733   3.474  0.2603 -0.6171  0.0035
  164SAPE   C3818407   5.088   5.618   3.595  0.2417 -1.0990 -0.2137
  164SAPE   H8X18408   5.020   5.701   3.624 -0.8799 -1.9870 -0.2100
  164SAPE   H8Y18409   5.157   5.592   3.678 -0.1264 -1.1544  0.0796
  164SAPE   C3918410   4.992   5.501   3.577 -0.0720  0.2335  0.0779
  164SAPE   H9X18411   5.057   5.412   3.564 -0.3813 -0.3203  2.0190
  164SAPE   H9Y18412   4.936   5.527   3.484  0.7298  1.1358 -0.1667
  164SAPE  C31018413   4.889   5.478   3.689  0.8340  0.5362 -0.0225
  164SAPE  H10X18414   4.813   5.407   3.650 -0.6306  0.6716  2.4097
  164SAPE  H10Y18415   4.840   5.576   3.703 -0.0774  0.1284 -0.3239
  164SAPE  C31118416   4.950   5.430   3.821 -0.2265 -0.0834 -0.1516
  164SAPE  H11X18417   5.054   5.468   3.833  0.5866 -2.1043 -0.3608
  164SAPE  H11Y18418   4.948   5.319   3.835  0.1372 -0.0918 -0.1480
  164SAPE  C31218419   4.873   5.493   3.942 -0.2977 -0.0108  0.1970
  164SAPE  H12X18420   4.765   5.492   3.920 -0.1084  0.9901 -0.8605
  164SAPE  H12Y18421   4.913   5.597   3.944  0.8356 -0.4235  0.0344
  164SAPE  C31318422   4.910   5.437   4.080  0.2479 -0.2758  0.4643
  164SAPE  H13X18423   4.882   5.511   4.157 -2.2293  1.9169 -2.3065
  164SAPE  H13Y18424   5.019   5.418   4.089  0.4275  0.7988  0.6264
  164SAPE  C31418425   4.842   5.304   4.113  0.4776  0.4456  0.5122
  164SAPE  H14X18426   4.867   5.227   4.038  1.3023 -0.0038  1.2324
  164SAPE  H14Y18427   4.732   5.316   4.107  0.6658  1.8609 -0.6590
  164SAPE  C31518428   4.884   5.236   4.244 -0.0396 -0.0257 -0.5619
  164SAPE  H15X18429   4.873   5.314   4.323 -0.2997  1.7502 -2.2719
  164SAPE  H15Y18430   4.989   5.202   4.231 -0.4929 -1.4752 -0.5368
  164SAPE  C31618431   4.797   5.120   4.294 -0.7860 -0.1533  0.1764
  164SAPE  H16X18432   4.836   5.028   4.246  3.0548  1.5487 -0.3189
  164SAPE  H16Y18433   4.690   5.132   4.267 -0.9057 -0.0825  0.6716
  164SAPE  C31718434   4.799   5.089   4.448  0.1264  0.5498 -0.1701
  164SAPE  H17X18435   4.754   5.183   4.487  0.2397 -0.2828  2.1117
  164SAPE  H17Y18436   4.904   5.080   4.483  0.1177  0.0095 -0.2761
  164SAPE  C31818437   4.710   4.967   4.493  0.2866  0.2408 -0.0388
  164SAPE  H18X18438   4.610   4.966   4.444  0.9110  0.5537 -1.3656
  164SAPE  H18Y18439   4.695   4.966   4.603 -1.5518 -0.7059 -0.2611
  164SAPE  H18Z18440   4.759   4.869   4.473 -0.8391 -0.5269  0.7759
  165SAPE     N18441   4.850   1.379   2.425  0.1174  0.4249 -0.0638
  165SAPE   HN118442   4.930   1.329   2.471 -1.4270 -2.1011  0.0685
  165SAPE   HN218443   4.875   1.415   2.331  2.7425 -2.2199 -0.5208
  165SAPE   HN318444   4.828   1.462   2.483  1.3275  1.6074 -1.2178
  165SAPE   C1218445   4.733   1.289   2.404 -0.3577  0.2168 -0.3124
  165SAPE  H12A18446   4.771   1.197   2.354  0.8781  1.0034 -0.8405
  165SAPE  H12B18447   4.664   1.340   2.334 -0.9631 -1.1141 -0.7262
  165SAPE   C1118448   4.668   1.261   2.540  0.7849 -0.0673 -0.9834
  165SAPE  H11A18449   4.569   1.211   2.537  1.4628 -1.5382  0.1421
  165SAPE  H11B18450   4.638   1.363   2.574  3.5261  0.7021 -0.6108
  165SAPE     P18451   4.757   1.049   2.657 -0.6048 -0.2691 -0.6561
  165SAPE   O1318452   4.809   1.000   2.522  0.1899  0.1385 -0.8949
  165SAPE   O1418453   4.842   1.003   2.767 -0.3060  0.4314  0.4269
  165SAPE   O1218454   4.753   1.205   2.651  0.0981  0.1297  0.6603
  165SAPE   O1118455   4.613   0.999   2.676  0.0132 -0.1366 -0.1613
  165SAPE    C118456   4.502   1.062   2.739 -0.1838 -0.2406 -0.1887
  165SAPE    HA18457   4.511   1.172   2.753 -1.3405 -0.3710  2.0651
  165SAPE    HB18458   4.411   1.030   2.685 -0.4853  2.1754 -1.2570
  165SAPE    C218459   4.473   1.006   2.877  0.1875 -0.2075 -0.2939
  165SAPE    HS18460   4.557   1.059   2.928 -0.4455  1.8111 -1.2362
  165SAPE   O2118461   4.480   0.867   2.883  0.3078 -0.1261 -0.1529
  165SAPE   C2118462   4.536   0.826   3.001  0.5607 -0.3318  0.3398
  165SAPE   O2218463   4.608   0.891   3.076 -0.1292  0.6190 -0.1997
  165SAPE   C2218464   4.500   0.682   3.037 -0.4208 -0.4073 -0.5902
  165SAPE   H2R18465   4.396   0.672   3.076 -1.0383 -0.5138 -2.1816
  165SAPE   H2S18466   4.508   0.624   2.943  0.4116 -0.8929 -0.2344
  165SAPE    C318467   4.340   1.069   2.931  0.2488 -0.2245  0.5594
  165SAPE    HX18468   4.250   1.021   2.886 -1.1924  3.9092 -1.5089
  165SAPE    HY18469   4.331   1.177   2.907 -1.5910 -0.7126 -1.1640
  165SAPE   O3118470   4.342   1.055   3.072  0.2033 -0.4014 -0.7125
  165SAPE   C3118471   4.426   1.127   3.148 -0.3256  0.0034  0.3989
  165SAPE   O3218472   4.502   1.214   3.101  0.1972  0.1443 -0.0564
  165SAPE   C3218473   4.402   1.087   3.296  0.2112 -0.1755 -0.3182
  165SAPE   H2X18474   4.317   1.152   3.326  1.1513  0.8967  0.0724
  165SAPE   H2Y18475   4.497   1.118   3.345  1.2378  0.0585 -2.3629
  165SAPE   C2318476   4.608   0.627   3.140  0.5218 -0.4391 -0.1972
  165SAPE   H3R18477   4.588   0.685   3.233  0.9062 -0.2254 -0.2482
  165SAPE   H3S18478   4.710   0.650   3.104 -0.2289  0.3204 -1.9579
  165SAPE   C2418479   4.582   0.478   3.171 -0.3830 -0.5409 -0.2369
  165SAPE   H4R18480   4.572   0.414   3.081 -3.5800 -0.8716  0.2337
  165SAPE   H4S18481   4.490   0.472   3.232 -0.0732  0.6911  0.3842
  165SAPE   C2518482   4.690   0.425   3.258 -0.3837  0.9187  0.6973
  165SAPE   H5R18483   4.789   0.429   3.211 -0.3587  1.7993  0.8001
  165SAPE   C2618484   4.679   0.396   3.389  0.3914  0.2868 -0.1112
  165SAPE   H6R18485   4.770   0.352   3.432 -0.1170 -1.0938 -0.3995
  165SAPE   C2718486   4.550   0.383   3.470  0.0618  0.6996  0.3255
  165SAPE   H7R18487   4.468   0.350   3.403  1.7827  0.2366 -1.6623
  165SAPE   H7S18488   4.523   0.480   3.516  2.3358  0.9874  1.2211
  165SAPE   C2818489   4.570   0.291   3.590 -0.1964  0.2471  0.4842
  165SAPE   H8R18490   4.614   0.195   3.559 -1.5384 -0.9336  2.0273
  165SAPE   C2918491   4.554   0.315   3.720  0.7844  0.4262 -0.1912
  165SAPE   H9R18492   4.581   0.238   3.793 -0.5704  2.7121  2.9429
  165SAPE  C21018493   4.516   0.443   3.790  0.1852  0.1263 -0.0142
  165SAPE  H10R18494   4.467   0.423   3.887  1.7926  0.8331  0.9814
  165SAPE  H10S18495   4.461   0.507   3.718  0.9296  0.0208 -0.6912
  165SAPE  C21118496   4.639   0.523   3.821  0.5454  0.7408 -0.0456
  165SAPE  H11R18497   4.638   0.625   3.780 -2.2458  0.8717  0.0980
  165SAPE  C21218498   4.748   0.499   3.899  0.3111  0.6535  0.8392
  165SAPE  H12R18499   4.820   0.577   3.928  2.2057 -0.4537 -0.6398
  165SAPE  C21318500   4.774   0.372   3.982  0.1545 -0.9789 -0.1251
  165SAPE  H13R18501   4.884   0.362   3.998  0.3938  0.5143 -0.6453
  165SAPE  H13S18502   4.742   0.285   3.921 -1.3659  0.1600 -1.0272
  165SAPE  C21418503   4.706   0.377   4.116 -0.5329  0.0396 -0.0415
  165SAPE  H14R18504   4.596   0.378   4.109 -0.6770  2.2356  1.5518
  165SAPE  C21518505   4.760   0.386   4.243  0.5635  0.3464  0.4651
  165SAPE  H15R18506   4.695   0.382   4.332 -0.9062 -1.2378 -0.5896
  165SAPE  C21618507   4.904   0.387   4.286 -0.4211  0.3421  0.1576
  165SAPE  H16R18508   4.912   0.475   4.353  2.0083 -0.1600  0.6210
  165SAPE  H16S18509   4.967   0.410   4.198 -0.7054 -1.3862 -0.5317
  165SAPE  C21718510   4.947   0.263   4.363 -0.2323  0.6780 -0.0282
  165SAPE  H17R18511   4.911   0.173   4.308 -0.3805  1.0872 -0.6063
  165SAPE  H17S18512   4.913   0.266   4.468  1.0643  1.2455  0.4025
  165SAPE  C21818513   5.106   0.252   4.373  0.4172 -0.2452 -0.3245
  165SAPE  H18R18514   5.149   0.354   4.370  0.6703 -0.3238  0.3338
  165SAPE  H18S18515   5.140   0.190   4.287 -1.7174 -1.4833 -0.3610
  165SAPE  C21918516   5.160   0.196   4.500  0.5899  0.2734  0.3843
  165SAPE  H19R18517   5.262   0.152   4.486  0.3750  0.0442 -0.4773
  165SAPE  H19S18518   5.087   0.118   4.530 -0.1037  1.3811  1.6495
  165SAPE  C22018519   5.163   0.296   4.617 -0.3467 -0.0489  0.3033
  165SAPE  H20R18520   5.068   0.354   4.615 -0.4005 -0.1459 -0.0640
  165SAPE  H20S18521   5.245   0.370   4.606  1.4244 -1.9330  0.0565
  165SAPE  H20T18522   5.178   0.238   4.711  3.6124 -1.7258 -1.1247
  165SAPE   C3318523   4.370   0.940   3.338 -0.7125 -0.1226  0.8269
  165SAPE   H3X18524   4.463   0.882   3.319  0.3756  1.5555  0.8784
  165SAPE   H3Y18525   4.288   0.899   3.275 -1.1992  1.3627  0.4616
  165SAPE   C3418526   4.319   0.928   3.477  0.6122  0.0787  0.2364
  165SAPE   H4X18527   4.298   0.820   3.497  0.4479 -0.1488 -1.0992
  165SAPE   H4Y18528   4.224   0.987   3.474  0.6640  0.1166 -1.1905
  165SAPE   C3518529   4.401   0.984   3.591  0.0434 -0.4416  0.2186
  165SAPE   H5X18530   4.341   0.975   3.684  1.1016 -0.6146  0.8942
  165SAPE   H5Y18531   4.410   1.094   3.576  0.2398 -0.4697  0.1316
  165SAPE   C3618532   4.545   0.936   3.608  0.5011 -1.2487  0.9987
  165SAPE   H6X18533   4.609   0.993   3.537 -1.6195 -0.8163 -0.6633
  165SAPE   H6Y18534   4.565   0.831   3.580 -0.2908 -0.8176 -1.4121
  165SAPE   C3718535   4.588   0.953   3.747 -0.5696  0.7617  0.5200
  165SAPE   H7X18536   4.536   0.883   3.816  2.2891 -0.4633  1.5846
  165SAPE   H7Y18537   4.585   1.062   3.772  0.6845  0.8211  0.4785
  165SAPE   C3818538   4.744   0.921   3.773  0.1829  0.3071 -0.0782
  165SAPE   H8X18539   4.801   0.981   3.699  0.9575  1.2117  1.2205
  165SAPE   H8Y18540   4.755   0.816   3.740  0.9160  0.8887 -1.7837
  165SAPE   C3918541   4.798   0.940   3.915  0.3211  0.0098  0.7391
  165SAPE   H9X18542   4.803   1.045   3.950  2.4662  0.6119 -1.1089
  165SAPE   H9Y18543   4.903   0.905   3.912  0.8070  1.4188  0.6081
  165SAPE  C31018544   4.719   0.865   4.028 -0.7129 -0.3622 -0.2630
  165SAPE  H10X18545   4.696   0.759   4.001  0.3828 -0.2790 -1.6501
  165SAPE  H10Y18546   4.622   0.915   4.047 -0.5097 -0.8852  2.6099
  165SAPE  C31118547   4.800   0.862   4.157  0.0157 -0.1791  0.3302
  165SAPE  H11X18548   4.824   0.966   4.189  1.2446 -0.8479  1.7196
  165SAPE  H11Y18549   4.897   0.813   4.132 -0.3935  0.2366 -2.3314
  165SAPE  C31218550   4.736   0.794   4.275 -0.0229 -0.3878  0.8708
  165SAPE  H12X18551   4.722   0.686   4.252  1.1624 -0.9304  2.5368
  165SAPE  H12Y18552   4.634   0.839   4.283  0.1162  0.4028 -1.1755
  165SAPE  C31318553   4.819   0.798   4.404 -0.3805  0.1787 -0.4058
  165SAPE  H13X18554   4.835   0.903   4.437 -1.4596 -0.6174  3.0819
  165SAPE  H13Y18555   4.918   0.753   4.378 -0.0570 -0.7306  2.1254
  165SAPE  C31418556   4.770   0.710   4.517  0.2445 -0.3322 -0.4052
  165SAPE  H14X18557   4.767   0.610   4.469 -0.2573 -0.0769 -0.9189
  165SAPE  H14Y18558   4.669   0.741   4.548  0.4836 -0.8943  1.0077
  165SAPE  C31518559   4.861   0.708   4.641 -0.2241 -0.7008  0.4211
  165SAPE  H15X18560   4.855   0.808   4.689  0.6131 -0.8654  0.8966
  165SAPE  H15Y18561   4.964   0.678   4.611  0.0003  0.8936 -0.4677
  165SAPE  C31618562   4.801   0.608   4.735  0.1999 -0.6594 -0.2089
  165SAPE  H16X18563   4.763   0.521   4.678  1.0154 -0.3252 -1.3013
  165SAPE  H16Y18564   4.718   0.659   4.788  0.0464  0.8056 -1.7720
  165SAPE  C31718565   4.899   0.555   4.840 -0.2788  0.3831 -0.3710
  165SAPE  H17X18566   4.921   0.638   4.910  2.0943 -0.1413 -0.4310
  165SAPE  H17Y18567   5.001   0.545   4.798 -0.6782  0.0462 -1.2924
  165SAPE  C31818568   4.867   0.417   4.910 -0.5450 -0.0864 -0.4516
  165SAPE  H18X18569   4.956   0.358   4.940 -1.9645 -1.6669  0.8208
  165SAPE  H18Y18570   4.791   0.372   4.842 -0.1264  1.3050 -1.9268
  165SAPE  H18Z18571   4.799   0.437   4.996 -0.1662 -1.4688  0.1891
  166SAPE     N18572   6.676   6.368   2.466  0.4083 -0.2037 -0.1491
  166SAPE   HN118573   6.723   6.329   2.382  0.5029 -1.7137  0.5667
  166SAPE   HN218574   6.643   6.285   2.520  1.8792 -2.1919 -2.1550
  166SAPE   HN318575   6.585   6.410   2.438 -2.1045 -3.2860  2.4684
  166SAPE   C1218576   6.757   6.462   2.542 -0.4583 -0.5689  0.2342
  166SAPE  H12A18577   6.763   6.563   2.496 -0.8222 -0.9799 -0.7419
  166SAPE  H12B18578   6.851   6.410   2.571 -1.4477 -1.7757  1.4696
  166SAPE   C1118579   6.691   6.484   2.677  0.4000  0.2923 -0.9797
  166SAPE  H11A18580   6.718   6.586   2.712 -0.0447 -0.2872  1.2540
  166SAPE  H11B18581   6.740   6.421   2.754 -1.2690 -1.7750 -1.5117
  166SAPE     P18582   6.444   6.572   2.690 -0.2490  0.1180  0.1221
  166SAPE   O1318583   6.448   6.661   2.568 -0.1298 -0.6951 -0.0495
  166SAPE   O1418584   6.315   6.507   2.717  0.4923  0.2223  0.3220
  166SAPE   O1218585   6.551   6.454   2.688 -0.0385 -0.3843 -0.2226
  166SAPE   O1118586   6.487   6.661   2.809 -0.2744  0.0780  0.2208
  166SAPE    C118587   6.478   6.617   2.943 -0.3524 -0.7038 -0.3380
  166SAPE    HA18588   6.406   6.533   2.956 -0.4005 -0.8613 -1.4781
  166SAPE    HB18589   6.577   6.586   2.982  1.1777  2.5356 -1.3272
  166SAPE    C218590   6.419   6.738   3.023  0.2941  0.1798  0.4327
  166SAPE    HS18591   6.333   6.774   2.963  1.8104  1.4852 -1.0881
  166SAPE   O2118592   6.514   6.844   3.051  0.2995 -0.1323  1.0436
  166SAPE   C2118593   6.504   6.959   2.975  0.5121  0.1335  0.0289
  166SAPE   O2218594   6.451   6.974   2.869 -0.0567 -0.2731 -0.0338
  166SAPE   C2218595   6.597   7.069   3.036 -0.7603  0.1179 -0.0089
  166SAPE   H2R18596   6.696   7.019   3.046 -1.6909 -1.9451 -0.5004
  166SAPE   H2S18597   6.608   7.140   2.951 -0.2682 -0.2292 -0.2348
  166SAPE    C318598   6.376   6.682   3.159 -0.0278 -0.4597  0.3785
  166SAPE    HX18599   6.350   6.772   3.219  3.1195  1.5859 -1.0921
  166SAPE    HY18600   6.453   6.615   3.203  1.5177  0.4711 -0.7985
  166SAPE   O3118601   6.250   6.611   3.136  0.4020 -0.6059 -0.2547
  166SAPE   C3118602   6.180   6.578   3.247  0.1731  0.1029  0.0796
  166SAPE   O3218603   6.217   6.600   3.361  0.1104  0.3888  0.4425
  166SAPE   C3218604   6.043   6.515   3.206 -0.2050  0.9334 -0.0208
  166SAPE   H2X18605   6.063   6.454   3.116  1.0244  1.3145 -0.0312
  166SAPE   H2Y18606   5.978   6.598   3.170 -1.8650  0.4463  1.6913
  166SAPE   C2318607   6.565   7.129   3.174  0.1861 -0.4261 -0.3253
  166SAPE   H3R18608   6.654   7.193   3.194  1.1738 -1.3405 -1.6667
  166SAPE   H3S18609   6.564   7.049   3.252 -0.0538 -0.1800 -0.0719
  166SAPE   C2418610   6.443   7.218   3.180  0.0035  0.7255  0.3038
  166SAPE   H4R18611   6.458   7.311   3.120 -0.5101  0.7385  0.1936
  166SAPE   H4S18612   6.429   7.235   3.289  1.7068 -1.5192  0.9310
  166SAPE   C2518613   6.311   7.163   3.113 -0.3415 -0.3473  0.1795
  166SAPE   H5R18614   6.306   7.187   3.006  3.6540 -2.6970 -0.7608
  166SAPE   C2618615   6.207   7.111   3.175 -0.2507  0.1535 -0.2629
  166SAPE   H6R18616   6.122   7.078   3.114  0.5105 -0.8161 -0.8252
  166SAPE   C2718617   6.193   7.095   3.325  0.4419  0.7868  0.2133
  166SAPE   H7R18618   6.088   7.106   3.360  1.0889  0.7746  2.2842
  166SAPE   H7S18619   6.247   7.173   3.383  2.4077  0.0790 -0.6012
  166SAPE   C2818620   6.214   6.957   3.378 -0.1493 -0.1475 -0.0096
  166SAPE   H8R18621   6.146   6.885   3.330 -0.2336  0.0114 -0.1269
  166SAPE   C2918622   6.294   6.916   3.477 -0.0213  0.6360  0.1777
  166SAPE   H9R18623   6.285   6.809   3.503  0.6111  0.7454  0.8765
  166SAPE  C21018624   6.373   6.997   3.575  0.5286  0.2334  0.5868
  166SAPE  H10R18625   6.444   7.060   3.516  0.2319  1.1268  1.1630
  166SAPE  H10S18626   6.440   6.937   3.641 -0.7047 -0.7599  0.9757
  166SAPE  C21118627   6.300   7.095   3.656  0.2251  0.0973  0.1769
  166SAPE  H11R18628   6.228   7.153   3.594  0.6475  0.9356  0.4518
  166SAPE  C21218629   6.283   7.106   3.787  0.4980 -0.3751  0.2542
  166SAPE  H12R18630   6.235   7.203   3.807  2.0911  0.9256 -1.7368
  166SAPE  C21318631   6.344   7.025   3.895  0.3272  0.0662  0.3398
  166SAPE  H13R18632   6.452   7.006   3.873  0.1132  0.2693 -0.9452
  166SAPE  H13S18633   6.307   6.921   3.885  0.0722 -0.2463  3.5035
  166SAPE  C21418634   6.326   7.088   4.028  0.5021  0.0429  0.2038
  166SAPE  H14R18635   6.396   7.167   4.059  1.4426 -0.6179 -0.1904
  166SAPE  C21518636   6.238   7.040   4.120 -0.0789  0.0347 -1.0054
  166SAPE  H15R18637   6.224   7.074   4.224 -2.5670 -2.0056 -0.5564
  166SAPE  C21618638   6.139   6.927   4.091 -0.2189 -0.3738 -0.1040
  166SAPE  H16R18639   6.198   6.832   4.093  0.8650  0.2858  0.6128
  166SAPE  H16S18640   6.098   6.942   3.989 -1.2050  1.4061  0.5097
  166SAPE  C21718641   6.030   6.912   4.202  1.1338  0.7142  0.4600
  166SAPE  H17R18642   5.962   6.827   4.178  2.5925 -0.2756 -0.3789
  166SAPE  H17S18643   5.971   7.005   4.208  2.0260  1.4013 -0.8939
  166SAPE  C21818644   6.096   6.889   4.345  0.2975 -0.2485 -0.0276
  166SAPE  H18R18645   6.143   6.985   4.375  1.1882 -1.0538  1.2613
  166SAPE  H18S18646   6.183   6.820   4.353  2.5559  2.4348  0.0330
  166SAPE  C21918647   5.992   6.864   4.461 -0.7375  0.1179  0.2069
  166SAPE  H19R18648   5.918   6.788   4.429 -1.2787  0.7442 -0.0581
  166SAPE  H19S18649   5.929   6.955   4.467  0.0722  0.6585  0.7960
  166SAPE  C22018650   6.046   6.830   4.601  0.1618  1.1078  0.1684
  166SAPE  H20R18651   6.112   6.914   4.633 -0.1543  1.6810 -0.6724
  166SAPE  H20S18652   6.106   6.737   4.603  0.6218  1.2941 -2.2304
  166SAPE  H20T18653   5.965   6.828   4.677  0.0448 -0.1344  0.0207
  166SAPE   C3318654   5.976   6.446   3.325  0.5557  0.2201  0.2903
  166SAPE   H3X18655   5.866   6.439   3.315  0.5588 -2.7974  1.4860
  166SAPE   H3Y18656   5.993   6.505   3.418  1.3649 -1.4437  1.2486
  166SAPE   C3418657   6.026   6.307   3.356 -0.3091  0.4028 -0.3123
  166SAPE   H4X18658   6.124   6.323   3.406 -0.5072  0.1092  0.1868
  166SAPE   H4Y18659   6.040   6.229   3.278  3.1309 -0.1535  0.7045
  166SAPE   C3518660   5.930   6.240   3.454 -0.6838  0.1401  0.1580
  166SAPE   H5X18661   5.943   6.130   3.441 -0.1100  0.0593  1.2550
  166SAPE   H5Y18662   5.826   6.278   3.439  0.1852  2.7879  0.3824
  166SAPE   C3618663   5.966   6.262   3.601 -0.1270 -0.1965  0.1112
  166SAPE   H6X18664   5.936   6.364   3.630 -0.8465  0.4102 -2.5552
  166SAPE   H6Y18665   6.077   6.253   3.608 -0.1032  0.3808  0.5624
  166SAPE   C3718666   5.906   6.160   3.698 -0.2869 -0.6818  0.3016
  166SAPE   H7X18667   5.963   6.067   3.674  0.3831 -0.1704 -0.1332
  166SAPE   H7Y18668   5.801   6.142   3.666 -0.2058  1.1661 -1.2156
  166SAPE   C3818669   5.910   6.197   3.846 -0.7832  0.4614  0.4380
  166SAPE   H8X18670   5.842   6.284   3.849 -1.6460 -0.1838 -0.1945
  166SAPE   H8Y18671   6.014   6.227   3.874 -0.5296 -0.4100  0.4641
  166SAPE   C3918672   5.834   6.087   3.929  0.0659 -0.1276 -0.7999
  166SAPE   H9X18673   5.896   5.995   3.921 -0.3295 -0.5098  0.3302
  166SAPE   H9Y18674   5.739   6.065   3.876  1.7895 -0.3044 -4.0513
  166SAPE  C31018675   5.799   6.125   4.070  0.7956  0.4995 -0.3144
  166SAPE  H10X18676   5.724   6.206   4.060  1.8491  1.4295 -0.9210
  166SAPE  H10Y18677   5.876   6.170   4.137  0.2015  1.0002  0.0384
  166SAPE  C31118678   5.721   6.013   4.137 -0.1763  0.5912 -0.0449
  166SAPE  H11X18679   5.638   5.986   4.069 -0.0009  0.4741 -0.2143
  166SAPE  H11Y18680   5.675   6.054   4.230 -1.5612  3.2847 -1.7893
  166SAPE  C31218681   5.809   5.887   4.165  0.2611  0.6482 -0.0054
  166SAPE  H12X18682   5.875   5.926   4.245 -4.6243  2.5488  3.6440
  166SAPE  H12Y18683   5.877   5.845   4.088  1.5846 -0.3398  1.6338
  166SAPE  C31318684   5.730   5.765   4.219 -0.5921  0.6099 -0.9956
  166SAPE  H13X18685   5.656   5.736   4.141 -0.6369  0.9004 -1.0621
  166SAPE  H13Y18686   5.678   5.802   4.310  0.5421 -0.6056  0.2007
  166SAPE  C31418687   5.817   5.647   4.251 -0.6483  0.4024  0.3380
  166SAPE  H14X18688   5.911   5.690   4.292 -0.1251  1.9049 -2.2403
  166SAPE  H14Y18689   5.845   5.596   4.157 -0.9374  0.1078  0.4130
  166SAPE  C31518690   5.757   5.540   4.329  0.1762  0.7169 -0.0375
  166SAPE  H15X18691   5.667   5.500   4.277  0.3909  0.0842  0.0589
  166SAPE  H15Y18692   5.726   5.585   4.425  1.6277  0.6765  0.4740
  166SAPE  C31618693   5.854   5.423   4.365 -0.2488 -0.5070  0.1140
  166SAPE  H16X18694   5.936   5.449   4.434  0.5632 -1.8923 -0.2866
  166SAPE  H16Y18695   5.907   5.389   4.273 -1.1993 -1.7542 -0.0104
  166SAPE  C31718696   5.781   5.314   4.433 -0.4560 -0.5749 -0.3726
  166SAPE  H17X18697   5.704   5.268   4.368 -1.2275 -0.6457  0.5764
  166SAPE  H17Y18698   5.726   5.351   4.522 -0.3875 -3.1327  0.8227
  166SAPE  C31818699   5.872   5.208   4.482 -0.5197 -0.1331 -0.3278
  166SAPE  H18X18700   5.947   5.177   4.406  0.7863  1.0586  0.4326
  166SAPE  H18Y18701   5.815   5.119   4.515 -0.1300 -0.4191 -0.4166
  166SAPE  H18Z18702   5.935   5.249   4.564  1.8442 -1.9091 -1.1514
  167SAPE     N18703   0.283   3.749   2.825  0.4592 -0.1752 -0.1494
  167SAPE   HN118704   0.299   3.785   2.922  2.3518  1.4760 -0.9909
  167SAPE   HN218705   0.256   3.649   2.824  0.7781 -0.2846  0.8039
  167SAPE   HN318706   0.376   3.740   2.778  0.8704  1.0494  0.3901
  167SAPE   C1218707   0.187   3.827   2.742 -0.1889 -0.8126 -0.4917
  167SAPE  H12A18708   0.080   3.819   2.772 -1.0588  3.6753 -1.6708
  167SAPE  H12B18709   0.199   3.803   2.634 -1.2947  0.6989 -0.9963
  167SAPE   C1118710   0.217   3.984   2.742  0.3376 -0.3567  0.2546
  167SAPE  H11A18711   0.144   4.031   2.673  0.1005  1.4454  1.6474
  167SAPE  H11B18712   0.321   4.001   2.705 -0.2125  2.8658 -0.0891
  167SAPE     P18713   0.092   4.135   2.912  0.2959  0.1134 -0.1581
  167SAPE   O1318714   0.148   4.268   2.906 -0.0562  0.3695  0.0079
  167SAPE   O1418715  -0.031   4.101   2.829 -0.4139  0.0711  0.1865
  167SAPE   O1218716   0.208   4.031   2.876  0.0402 -0.9826 -0.4006
  167SAPE   O1118717   0.059   4.098   3.061  0.1915  0.0821  0.1504
  167SAPE    C118718   0.064   3.964   3.106  0.1658  0.4570 -0.4286
  167SAPE    HA18719   0.140   3.905   3.050 -1.1327 -0.0637 -1.7291
  167SAPE    HB18720   0.081   3.967   3.216 -1.0288 -0.0395 -0.2073
  167SAPE    C218721  -0.063   3.882   3.077  0.2771  0.1030  0.0369
  167SAPE    HS18722  -0.079   3.896   2.968  1.3348 -0.1275 -0.1564
  167SAPE   O2118723  -0.175   3.940   3.148 -0.6588  0.0438 -0.2410
  167SAPE   C2118724  -0.293   3.897   3.109  0.5795 -0.6458  0.3096
  167SAPE   O2218725  -0.319   3.835   3.009 -0.1389 -0.3937 -0.3405
  167SAPE   C2218726  -0.388   3.921   3.228 -0.4795 -0.4941  0.1686
  167SAPE   H2R18727  -0.341   3.867   3.313  2.5771 -0.2370 -1.2265
  167SAPE   H2S18728  -0.390   4.026   3.264  1.3863 -0.3193 -0.1539
  167SAPE    C318729  -0.046   3.738   3.110 -0.2676  0.0991  0.2903
  167SAPE    HX18730   0.043   3.701   3.054  0.6102  1.2656  0.8857
  167SAPE    HY18731  -0.130   3.688   3.055 -0.1568 -0.3958  0.5637
  167SAPE   O3118732  -0.030   3.704   3.249 -0.6479 -0.5998  0.5157
  167SAPE   C3118733  -0.091   3.597   3.292  0.4676  0.5432 -0.6312
  167SAPE   O3218734  -0.160   3.524   3.227 -0.1035  0.4021  0.1195
  167SAPE   C3218735  -0.067   3.589   3.443 -0.3773 -0.2866  0.4140
  167SAPE   H2X18736   0.023   3.651   3.459 -0.0538 -0.9817  1.3841
  167SAPE   H2Y18737  -0.037   3.485   3.471  1.5482  0.7494  2.5602
  167SAPE   C2318738  -0.541   3.865   3.205 -0.3416  0.7600  0.4213
  167SAPE   H3R18739  -0.526   3.758   3.180 -2.5548 -0.0031  2.1256
  167SAPE   H3S18740  -0.587   3.911   3.114  1.2962 -0.3313 -1.0389
  167SAPE   C2418741  -0.620   3.859   3.333  0.5431 -0.2374 -0.4131
  167SAPE   H4R18742  -0.570   3.801   3.414  1.5729  3.0281  1.4935
  167SAPE   H4S18743  -0.721   3.815   3.322 -0.4883  1.7568  0.4209
  167SAPE   C2518744  -0.643   4.005   3.376  0.0324  0.9431  0.9303
  167SAPE   H5R18745  -0.642   4.078   3.294 -0.5754  1.3685  1.2882
  167SAPE   C2618746  -0.656   4.053   3.495 -0.2032 -0.0851 -0.3231
  167SAPE   H6R18747  -0.659   4.163   3.505  0.8071  0.0476 -1.2273
  167SAPE   C2718748  -0.645   3.984   3.624 -0.0631  0.5487 -0.3108
  167SAPE   H7R18749  -0.551   4.007   3.679  0.7586 -2.5793 -0.2051
  167SAPE   H7S18750  -0.662   3.876   3.607 -1.9544  0.6456  0.8091
  167SAPE   C2818751  -0.770   4.021   3.709  0.3196  0.6978 -0.0068
  167SAPE   H8R18752  -0.853   4.064   3.651 -0.9340 -1.1779  0.2949
  167SAPE   C2918753  -0.787   4.008   3.846  0.1408  0.4423 -0.5061
  167SAPE   H9R18754  -0.880   4.039   3.897  0.9403 -0.6701  1.7564
  167SAPE  C21018755  -0.687   3.942   3.943 -0.0487 -0.1000 -0.3432
  167SAPE  H10R18756  -0.582   3.941   3.909 -0.2993  1.8725 -1.3251
  167SAPE  H10S18757  -0.712   3.834   3.955  0.1813 -0.0518  0.6495
  167SAPE  C21118758  -0.676   4.013   4.076  0.1008 -0.1084  0.0149
  167SAPE  H11R18759  -0.602   4.094   4.079  0.2698 -0.1335 -2.0688
  167SAPE  C21218760  -0.737   3.978   4.193 -0.8826  0.6346 -0.2390
  167SAPE  H12R18761  -0.712   4.032   4.286  1.1322 -0.8149  0.1368
  167SAPE  C21318762  -0.838   3.873   4.223  0.2744  0.3918  0.2291
  167SAPE  H13R18763  -0.855   3.806   4.136  1.0938  1.5668 -0.8866
  167SAPE  H13S18764  -0.930   3.935   4.231 -1.0401 -1.1094 -2.0743
  167SAPE  C21418765  -0.848   3.793   4.350 -0.2710 -0.0799 -0.2259
  167SAPE  H14R18766  -0.814   3.688   4.344 -2.4978 -0.8145 -1.4127
  167SAPE  C21518767  -0.885   3.837   4.474  0.1265 -0.5065 -0.0619
  167SAPE  H15R18768  -0.894   3.775   4.565 -1.4716  0.1349  0.2548
  167SAPE  C21618769  -0.926   3.979   4.509 -0.0476 -0.1260  0.0788
  167SAPE  H16R18770  -0.950   4.047   4.424 -0.4031  2.9547  2.4595
  167SAPE  H16S18771  -0.852   4.032   4.572  0.0680 -0.5853  0.3328
  167SAPE  C21718772  -1.059   3.961   4.584 -0.8114 -0.1191  0.1417
  167SAPE  H17R18773  -1.053   3.894   4.673 -3.3017  3.2038  3.0923
  167SAPE  H17S18774  -1.133   3.920   4.512 -3.2391  0.3795  2.2125
  167SAPE  C21818775  -1.094   4.096   4.635  0.0673  0.2640  0.2195
  167SAPE  H18R18776  -1.114   4.158   4.544  0.7005 -2.0560 -1.6097
  167SAPE  H18S18777  -1.010   4.135   4.696  0.2867  0.0928  0.0299
  167SAPE  C21918778  -1.210   4.098   4.735 -0.2074  0.4306  0.0107
  167SAPE  H19R18779  -1.216   4.208   4.752 -0.7378  0.3818  0.1805
  167SAPE  H19S18780  -1.167   4.054   4.827 -1.7801  0.5843  0.8574
  167SAPE  C22018781  -1.344   4.035   4.701  0.2384  0.1952  0.4186
  167SAPE  H20R18782  -1.316   3.937   4.658  2.4382  0.6454  0.7091
  167SAPE  H20S18783  -1.403   4.101   4.634 -0.0522  0.3774  0.8535
  167SAPE  H20T18784  -1.405   4.007   4.789 -0.4989 -0.9219 -0.4278
  167SAPE   C3318785  -0.189   3.630   3.527  0.3034  0.3809  0.3423
  167SAPE   H3X18786  -0.178   3.571   3.621  0.8488  0.1321  0.1277
  167SAPE   H3Y18787  -0.285   3.602   3.480  0.7137 -1.4698  0.5471
  167SAPE   C3418788  -0.197   3.784   3.556  0.3547  0.8336  0.2740
  167SAPE   H4X18789  -0.195   3.840   3.460 -2.1435 -0.9497 -0.9293
  167SAPE   H4Y18790  -0.103   3.816   3.605 -0.2329  1.7174  0.8441
  167SAPE   C3518791  -0.327   3.817   3.636 -0.0011 -0.3960 -0.2143
  167SAPE   H5X18792  -0.419   3.774   3.590 -0.1900 -1.3194  1.0081
  167SAPE   H5Y18793  -0.337   3.928   3.641 -1.4545 -0.5705  2.3286
  167SAPE   C3618794  -0.321   3.762   3.779  0.4207  0.6672  0.3509
  167SAPE   H6X18795  -0.249   3.679   3.791 -0.2586  0.1344  0.7921
  167SAPE   H6Y18796  -0.424   3.735   3.813  0.3272  1.7653  1.0304
  167SAPE   C3718797  -0.270   3.860   3.883 -0.0888 -0.0671 -0.7614
  167SAPE   H7X18798  -0.328   3.954   3.872 -1.4720 -1.0043 -2.0667
  167SAPE   H7Y18799  -0.164   3.885   3.866 -0.0579 -0.0055 -0.4723
  167SAPE   C3818800  -0.298   3.812   4.023 -0.7810 -0.2982 -0.0605
  167SAPE   H8X18801  -0.249   3.713   4.039 -0.8973 -0.3942 -0.2991
  167SAPE   H8Y18802  -0.409   3.807   4.026 -0.7727 -0.1599  1.1421
  167SAPE   C3918803  -0.250   3.914   4.128 -0.5609  0.5695  0.0633
  167SAPE   H9X18804  -0.245   4.019   4.091  1.8481  1.5416  2.8078
  167SAPE   H9Y18805  -0.140   3.906   4.142 -0.6396  0.6653  0.7301
  167SAPE  C31018806  -0.335   3.898   4.256  0.4477 -0.0075 -0.0695
  167SAPE  H10X18807  -0.362   3.794   4.284 -1.1626  0.3104 -0.3637
  167SAPE  H10Y18808  -0.432   3.946   4.230  1.0256  1.4365  0.3412
  167SAPE  C31118809  -0.267   3.960   4.380  0.5821 -0.1808  0.3125
  167SAPE  H11X18810  -0.160   3.930   4.386  1.0139  0.8561 -1.4738
  167SAPE  H11Y18811  -0.313   3.924   4.475  0.8054 -0.1098  0.4482
  167SAPE  C31218812  -0.280   4.110   4.378  0.1946  0.5876  0.2304
  167SAPE  H12X18813  -0.385   4.144   4.366 -0.1869 -0.8466 -0.7779
  167SAPE  H12Y18814  -0.231   4.159   4.290 -0.3149  0.7927  0.0574
  167SAPE  C31318815  -0.217   4.171   4.504 -0.0375 -0.1808  0.4401
  167SAPE  H13X18816  -0.192   4.276   4.475 -2.5822 -0.0854 -1.8502
  167SAPE  H13Y18817  -0.124   4.117   4.533  0.3208  0.4408  0.4675
  167SAPE  C31418818  -0.317   4.169   4.618 -0.3131 -0.4559 -0.0990
  167SAPE  H14X18819  -0.337   4.063   4.643 -1.4363 -0.1847  0.2194
  167SAPE  H14Y18820  -0.418   4.204   4.586 -0.7618 -1.0957  0.5825
  167SAPE  C31518821  -0.277   4.250   4.735  0.7360  0.2802 -0.1028
  167SAPE  H15X18822  -0.212   4.335   4.706  1.8403 -0.0745  1.2005
  167SAPE  H15Y18823  -0.215   4.195   4.809 -0.7398  0.3161  1.2058
  167SAPE  C31618824  -0.405   4.311   4.808 -0.1097  0.2302  1.0979
  167SAPE  H16X18825  -0.478   4.229   4.824 -0.2161  0.0150 -0.3259
  167SAPE  H16Y18826  -0.455   4.382   4.739  0.7740 -0.4671 -0.3072
  167SAPE  C31718827  -0.363   4.369   4.943 -0.0519 -0.1337 -0.7824
  167SAPE  H17X18828  -0.267   4.424   4.927 -0.0473 -0.1935 -0.9603
  167SAPE  H17Y18829  -0.350   4.287   5.016 -2.5622  2.4370  2.8846
  167SAPE  C31818830  -0.454   4.468   4.999 -1.2171 -0.5461  0.3873
  167SAPE  H18X18831  -0.468   4.550   4.926  1.3660 -3.1875 -3.4391
  167SAPE  H18Y18832  -0.420   4.512   5.096 -2.8945  0.8646  0.3948
  167SAPE  H18Z18833  -0.554   4.422   5.018  0.2035 -3.6758  0.9174
  168SAPE     N18834   1.593   1.473   2.897  0.5615 -0.0068 -0.3963
  168SAPE   HN118835   1.680   1.529   2.904  1.5210 -1.5247  0.4870
  168SAPE   HN218836   1.617   1.385   2.846  0.2281 -1.3515  1.6265
  168SAPE   HN318837   1.519   1.521   2.843 -0.2389  0.1982  0.8574
  168SAPE   C1218838   1.536   1.447   3.038  0.0802  0.4101  0.2956
  168SAPE  H12A18839   1.529   1.550   3.078  0.5048  0.2385  0.8114
  168SAPE  H12B18840   1.616   1.402   3.099 -0.8438  0.5027  1.6032
  168SAPE   C1118841   1.402   1.381   3.030 -0.5331 -0.6179 -0.2728
  168SAPE  H11A18842   1.334   1.462   2.998 -0.2202 -0.4765 -0.5823
  168SAPE  H11B18843   1.365   1.351   3.131  2.1275  0.4868  1.1449
  168SAPE     P18844   1.438   1.127   2.987 -0.5157  0.0619  0.2511
  168SAPE   O1318845   1.334   1.066   3.069 -0.3076  0.0569  0.0121
  168SAPE   O1418846   1.487   1.058   2.873  0.4346  0.0402  0.2988
  168SAPE   O1218847   1.390   1.274   2.936 -0.6961  0.4976 -0.2252
  168SAPE   O1118848   1.558   1.159   3.078  0.2399 -0.6160  0.1474
  168SAPE    C118849   1.613   1.079   3.181 -0.1804 -0.8125  0.8396
  168SAPE    HA18850   1.539   1.075   3.264  0.0148  1.1180  1.1587
  168SAPE    HB18851   1.640   0.978   3.143  0.0898 -1.9533  3.8009
  168SAPE    C218852   1.731   1.142   3.253 -0.1762 -0.8237  0.1998
  168SAPE    HS18853   1.777   1.076   3.330  2.0056 -0.2772 -0.5593
  168SAPE   O2118854   1.691   1.271   3.302  1.0671  0.1578  0.0283
  168SAPE   C2118855   1.662   1.265   3.433 -0.2380  0.2434 -0.3565
  168SAPE   O2218856   1.664   1.163   3.500  0.0732  0.1958  0.0114
  168SAPE   C2218857   1.645   1.410   3.483 -0.1898  0.7544  0.3260
  168SAPE   H2R18858   1.701   1.426   3.578  2.7028  0.2096 -1.1795
  168SAPE   H2S18859   1.699   1.479   3.414  1.3823  0.2874  1.0361
  168SAPE    C318860   1.849   1.167   3.151 -0.0854 -0.1912  0.6617
  168SAPE    HX18861   1.805   1.232   3.073  0.2251  0.6057  1.1423
  168SAPE    HY18862   1.868   1.079   3.085  1.6040  0.6413 -0.0351
  168SAPE   O3118863   1.972   1.212   3.214 -0.0733  0.0880 -0.9686
  168SAPE   C3118864   1.973   1.343   3.215 -0.5379 -0.2663 -0.5400
  168SAPE   O3218865   1.915   1.423   3.151  0.1244  0.4432  0.2120
  168SAPE   C3218866   2.061   1.399   3.329  0.0261 -0.3269 -0.0194
  168SAPE   H2X18867   2.039   1.507   3.315 -2.4636 -1.1942 -4.5381
  168SAPE   H2Y18868   2.171   1.388   3.316  0.0954  0.1253  0.1355
  168SAPE   C2318869   1.492   1.442   3.499 -0.4788  0.4242  0.0966
  168SAPE   H3R18870   1.445   1.375   3.574 -0.1016  0.3711  0.2881
  168SAPE   H3S18871   1.438   1.428   3.403  0.9390  3.2316 -1.2195
  168SAPE   C2418872   1.472   1.587   3.558  0.3327 -0.2684  0.3944
  168SAPE   H4R18873   1.526   1.646   3.482  1.6420 -0.7067  0.9457
  168SAPE   H4S18874   1.526   1.597   3.655  1.1934  1.6051 -0.2281
  168SAPE   C2518875   1.330   1.639   3.559  0.0956  0.3116 -0.6112
  168SAPE   H5R18876   1.277   1.651   3.464  1.5028  1.4500 -1.2981
  168SAPE   C2618877   1.268   1.688   3.668  0.0198  0.7454 -0.1371
  168SAPE   H6R18878   1.162   1.718   3.668 -0.8643 -2.0251 -1.7966
  168SAPE   C2718879   1.326   1.686   3.803 -0.2540 -0.5132  0.2792
  168SAPE   H7R18880   1.248   1.729   3.870 -1.4817  0.1542 -1.5106
  168SAPE   H7S18881   1.409   1.760   3.797 -0.1790 -0.5089  1.1539
  168SAPE   C2818882   1.358   1.552   3.860 -0.4140  0.1200  0.3406
  168SAPE   H8R18883   1.371   1.471   3.786  0.6618 -1.5190  2.1995
  168SAPE   C2918884   1.373   1.516   3.988 -0.1020  0.2678  0.1998
  168SAPE   H9R18885   1.400   1.411   4.005 -0.2022 -0.0300 -1.2860
  168SAPE  C21018886   1.365   1.613   4.101 -0.0928 -0.1375  0.4134
  168SAPE  H10R18887   1.306   1.703   4.073 -0.4370 -0.8968 -1.4574
  168SAPE  H10S18888   1.472   1.642   4.114 -0.3172  1.9154 -1.6761
  168SAPE  C21118889   1.314   1.553   4.228  0.3751 -0.2240  0.3477
  168SAPE  H11R18890   1.221   1.495   4.219 -0.7515  1.5090  0.4954
  168SAPE  C21218891   1.373   1.556   4.348  0.1271  0.2247 -0.3100
  168SAPE  H12R18892   1.334   1.503   4.436  2.4678 -0.0465  0.6552
  168SAPE  C21318893   1.501   1.623   4.379  0.1352  0.7488 -0.0909
  168SAPE  H13R18894   1.480   1.694   4.463 -1.7118 -1.3500  1.3296
  168SAPE  H13S18895   1.534   1.690   4.296 -2.3541  0.8453 -1.0815
  168SAPE  C21418896   1.607   1.519   4.414 -0.4406  0.0634 -0.6325
  168SAPE  H14R18897   1.595   1.419   4.369  2.2715 -0.6121 -0.0132
  168SAPE  C21518898   1.709   1.518   4.504 -0.1600 -0.6308  0.0156
  168SAPE  H15R18899   1.772   1.428   4.517  0.1070 -0.8950 -2.6077
  168SAPE  C21618900   1.745   1.641   4.591  0.3328 -0.2926  0.1546
  168SAPE  H16R18901   1.706   1.738   4.554 -0.3915 -0.3745  0.6863
  168SAPE  H16S18902   1.854   1.657   4.580  0.4126 -2.0706 -2.4276
  168SAPE  C21718903   1.708   1.628   4.742  0.5713  0.2250  0.3339
  168SAPE  H17R18904   1.775   1.705   4.788  0.7915 -0.0096  0.4117
  168SAPE  H17S18905   1.742   1.533   4.789 -0.7769 -0.0118  0.8728
  168SAPE  C21818906   1.566   1.645   4.776 -0.5733 -0.1359  0.1100
  168SAPE  H18R18907   1.510   1.553   4.749  1.3780 -1.0119 -1.1555
  168SAPE  H18S18908   1.526   1.725   4.710  2.7201 -0.4989 -2.6269
  168SAPE  C21918909   1.544   1.686   4.924 -0.4030 -0.6976 -0.2934
  168SAPE  H19R18910   1.602   1.781   4.933  0.0194 -0.7365 -2.1430
  168SAPE  H19S18911   1.583   1.610   4.994 -1.9533 -1.9694 -0.7468
  168SAPE  C22018912   1.400   1.703   4.958 -1.2540 -0.5250  0.2902
  168SAPE  H20R18913   1.342   1.614   4.925 -0.1854 -0.9263 -0.5709
  168SAPE  H20S18914   1.356   1.796   4.917  1.1549  0.0016 -1.2968
  168SAPE  H20T18915   1.395   1.727   5.066  1.7953 -0.2074  0.4519
  168SAPE   C3318916   2.016   1.346   3.472 -0.4035 -0.3951 -0.2096
  168SAPE   H3X18917   1.916   1.300   3.460 -0.6338  0.4313 -1.8046
  168SAPE   H3Y18918   2.025   1.438   3.534  2.4322  1.4533 -3.0495
  168SAPE   C3418919   2.125   1.255   3.535 -0.5342  0.0696 -0.1146
  168SAPE   H4X18920   2.227   1.297   3.525  0.3512 -1.8080  0.6177
  168SAPE   H4Y18921   2.132   1.162   3.474 -1.6694 -0.3676  0.3807
  168SAPE   C3518922   2.100   1.219   3.682  0.7267  0.2424  0.4644
  168SAPE   H5X18923   2.157   1.124   3.690  0.8270  0.2188 -0.3974
  168SAPE   H5Y18924   1.993   1.197   3.703  0.1350  1.1485 -1.3428
  168SAPE   C3618925   2.149   1.327   3.782  0.2851  0.6470 -0.3396
  168SAPE   H6X18926   2.085   1.418   3.779  0.9526  1.4090  3.4285
  168SAPE   H6Y18927   2.257   1.348   3.763  0.3900 -1.1830 -2.1983
  168SAPE   C3718928   2.134   1.277   3.926  0.3275 -0.2949 -0.1096
  168SAPE   H7X18929   2.201   1.189   3.934 -1.1342 -1.3203  1.5368
  168SAPE   H7Y18930   2.026   1.257   3.943  0.4618  0.1048  1.3015
  168SAPE   C3818931   2.165   1.388   4.030 -0.4579 -0.2396 -0.5867
  168SAPE   H8X18932   2.086   1.466   4.032 -1.6838 -1.4223  2.2992
  168SAPE   H8Y18933   2.254   1.439   3.987 -1.2954 -0.6281 -2.9591
  168SAPE   C3918934   2.165   1.351   4.185  0.6410  0.7123  0.2830
  168SAPE   H9X18935   2.256   1.298   4.220 -1.0369 -0.6169  2.9423
  168SAPE   H9Y18936   2.074   1.290   4.202  1.2484 -0.5428 -0.8430
  168SAPE  C31018937   2.145   1.470   4.277 -0.1991  0.4771  0.4148
  168SAPE  H10X18938   2.039   1.502   4.287 -0.8408 -1.7992  1.6043
  168SAPE  H10Y18939   2.209   1.551   4.236 -0.6540 -0.3962 -2.1669
  168SAPE  C31118940   2.178   1.430   4.426 -0.2431 -0.4994 -0.4647
  168SAPE  H11X18941   2.288   1.440   4.432 -0.3017  0.9577 -1.3013
  168SAPE  H11Y18942   2.151   1.324   4.444 -0.8634 -0.2102  0.3936
  168SAPE  C31218943   2.114   1.521   4.529  0.2367  0.8610 -0.0784
  168SAPE  H12X18944   2.005   1.503   4.537 -0.1234  2.5355 -0.7217
  168SAPE  H12Y18945   2.121   1.628   4.497  1.8443  1.3345  1.6399
  168SAPE  C31318946   2.177   1.500   4.667 -1.0010  0.6260 -0.8451
  168SAPE  H13X18947   2.288   1.509   4.658 -0.2434 -2.5335  3.0013
  168SAPE  H13Y18948   2.162   1.395   4.699 -2.0082  0.4809 -1.7360
  168SAPE  C31418949   2.120   1.594   4.780  0.0411  0.0549  0.5717
  168SAPE  H14X18950   2.084   1.540   4.870 -1.3638  0.1376  0.0851
  168SAPE  H14Y18951   2.034   1.654   4.744  0.6818 -0.4787 -2.0210
  168SAPE  C31518952   2.232   1.690   4.828 -0.0135 -0.2171 -0.0417
  168SAPE  H15X18953   2.330   1.637   4.837 -0.4173 -1.0248 -0.3047
  168SAPE  H15Y18954   2.202   1.719   4.931  1.2946  4.1556 -0.6886
  168SAPE  C31618955   2.258   1.822   4.756 -0.0128 -0.5370  0.2187
  168SAPE  H16X18956   2.157   1.868   4.758 -0.1290 -0.8062  0.9121
  168SAPE  H16Y18957   2.275   1.810   4.647  0.0375  0.1965  0.1381
  168SAPE  C31718958   2.366   1.905   4.818 -0.3162 -0.3114  0.2172
  168SAPE  H17X18959   2.396   1.994   4.759  0.0680 -1.1602 -0.8961
  168SAPE  H17Y18960   2.458   1.843   4.813 -0.4272 -0.4177 -0.5682
  168SAPE  C31818961   2.344   1.953   4.965 -0.0776  0.3305  0.2489
  168SAPE  H18X18962   2.272   2.036   4.979  0.6364  1.2621 -1.2891
  168SAPE  H18Y18963   2.441   1.997   4.998 -1.9406  3.9040  1.4976
  168SAPE  H18Z18964   2.334   1.864   5.030  1.9121 -0.8326 -0.9173
  169SAPE     N18965   4.674   5.031   2.578  0.2898 -0.1128  0.3636
  169SAPE   HN118966   4.658   5.133   2.567 -0.3568 -0.4220 -2.1088
  169SAPE   HN218967   4.738   5.027   2.660 -2.0827  1.8733  2.4677
  169SAPE   HN318968   4.730   5.010   2.493 -1.2780 -3.2170 -0.0691
  169SAPE   C1218969   4.552   4.960   2.607  0.8340 -1.0191  0.1025
  169SAPE  H12A18970   4.574   4.853   2.631 -0.9781 -1.2199  1.0483
  169SAPE  H12B18971   4.489   4.968   2.516 -0.2538  0.1866  0.9265
  169SAPE   C1118972   4.473   5.017   2.720  0.0734  0.2354 -0.4743
  169SAPE  H11A18973   4.535   5.022   2.812 -0.9349  1.7925  0.1724
  169SAPE  H11B18974   4.382   4.959   2.746  0.0558  1.0077  1.3710
  169SAPE     P18975   4.497   5.285   2.716 -0.3251  0.2508 -0.1896
  169SAPE   O1318976   4.603   5.288   2.614  0.3574 -0.6078 -0.2093
  169SAPE   O1418977   4.391   5.388   2.727  0.1942  0.0604  0.3199
  169SAPE   O1218978   4.429   5.148   2.695  0.0057  0.1404  0.2257
  169SAPE   O1118979   4.568   5.264   2.854 -0.0106  0.2150 -0.6979
  169SAPE    C118980   4.490   5.282   2.974 -0.0405  0.3813  0.2807
  169SAPE    HA18981   4.418   5.368   2.970  0.0991  0.5655  1.4486
  169SAPE    HB18982   4.424   5.196   2.996 -0.7424  0.8805  0.1676
  169SAPE    C218983   4.579   5.303   3.105 -0.3352  0.2947 -1.4455
  169SAPE    HS18984   4.515   5.365   3.171  0.6461  1.2319 -1.3555
  169SAPE   O2118985   4.703   5.366   3.086 -0.2464 -0.7003  0.2610
  169SAPE   C2118986   4.725   5.461   2.998  0.2533 -0.2129 -0.0888
  169SAPE   O2218987   4.638   5.519   2.931 -0.3279  0.3920 -0.0813
  169SAPE   C2218988   4.873   5.506   3.011 -0.0049  0.7427 -0.1334
  169SAPE   H2R18989   4.932   5.415   2.987 -2.2568 -0.6628 -0.6079
  169SAPE   H2S18990   4.886   5.585   2.934  2.5297 -0.3315 -0.9387
  169SAPE    C318991   4.609   5.172   3.174 -0.4053  0.3100  0.2430
  169SAPE    HX18992   4.701   5.129   3.129 -0.2649 -0.5520  1.3232
  169SAPE    HY18993   4.518   5.110   3.158 -1.4759  1.2864  2.1621
  169SAPE   O3118994   4.633   5.189   3.313  0.0238 -0.4248 -0.1330
  169SAPE   C3118995   4.530   5.204   3.392  0.7069  0.4439 -0.9819
  169SAPE   O3218996   4.414   5.196   3.351  0.2388 -0.4188  0.3629
  169SAPE   C3218997   4.566   5.255   3.523 -0.2226 -0.9942 -1.0756
  169SAPE   H2X18998   4.578   5.365   3.516 -2.9979 -0.7074 -2.6152
  169SAPE   H2Y18999   4.669   5.229   3.555  0.2198  1.2449 -0.5001
  169SAPE   C2319000   4.897   5.580   3.139  0.2452  0.0777  0.0314
  169SAPE   H3R19001   5.007   5.576   3.155  0.5508  3.3271 -0.5513
  169SAPE   H3S19002   4.843   5.534   3.225  1.0688 -0.3612  0.3230
  169SAPE   C2419003   4.862   5.723   3.141  0.4028 -0.1791  0.5617
  169SAPE   H4R19004   4.842   5.747   3.247 -2.4971  1.3195 -0.2141
  169SAPE   H4S19005   4.758   5.732   3.103  0.9577  1.6033 -0.7139
  169SAPE   C2519006   4.967   5.818   3.088  0.0296  0.2638 -0.1560
  169SAPE   H5R19007   4.980   5.810   2.979 -3.2483  3.1139 -0.9225
  169SAPE   C2619008   5.040   5.906   3.160 -0.6185  0.7011 -0.7015
  169SAPE   H6R19009   5.117   5.959   3.102  0.5218 -1.2438 -1.0415
  169SAPE   C2719010   5.048   5.944   3.306  0.1769 -0.0191  0.3273
  169SAPE   H7R19011   5.094   6.044   3.312 -1.2489  0.6959 -0.2265
  169SAPE   H7S19012   5.123   5.875   3.352 -1.0379  0.3621  3.0976
  169SAPE   C2819013   4.920   5.950   3.391 -0.7550  0.5029 -0.0261
  169SAPE   H8R19014   4.837   5.910   3.331 -0.6222  0.0041  0.1174
  169SAPE   C2919015   4.903   5.998   3.518 -0.5970 -0.0868 -0.3809
  169SAPE   H9R19016   4.805   5.991   3.568 -0.1498 -0.4983  0.4601
  169SAPE  C21019017   5.017   6.051   3.605 -0.0438  0.2552  0.3503
  169SAPE  H10R19018   5.071   6.129   3.548 -0.1195  1.3169  1.7046
  169SAPE  H10S19019   5.092   5.972   3.627 -0.9659 -0.7257  0.0578
  169SAPE  C21119020   4.977   6.115   3.736 -0.4682  0.0747 -0.1100
  169SAPE  H11R19021   4.962   6.224   3.732  0.3636  0.2562  1.1725
  169SAPE  C21219022   4.944   6.057   3.854 -0.5774 -0.3897 -0.2609
  169SAPE  H12R19023   4.895   6.124   3.927  1.1652  2.5496 -1.6245
  169SAPE  C21319024   4.937   5.906   3.882  0.3803 -0.1151 -0.1703
  169SAPE  H13R19025   5.025   5.870   3.940 -1.3827 -0.7397  2.3068
  169SAPE  H13S19026   4.946   5.832   3.799  0.0179  0.2479 -0.5358
  169SAPE  C21419027   4.816   5.867   3.968  0.0306 -0.5587  0.1990
  169SAPE  H14R19028   4.728   5.834   3.911 -1.0258 -0.2778  1.6050
  169SAPE  C21519029   4.811   5.880   4.099  0.5874  0.2541 -0.5107
  169SAPE  H15R19030   4.717   5.866   4.155  0.1590  3.1236 -0.3688
  169SAPE  C21619031   4.911   5.933   4.198 -0.5903  0.3157 -0.5804
  169SAPE  H16R19032   5.015   5.915   4.162 -0.8624  0.6335 -1.5604
  169SAPE  H16S19033   4.896   5.867   4.286  0.6575  0.1758 -0.4474
  169SAPE  C21719034   4.891   6.073   4.233 -0.1011  0.2974  0.1382
  169SAPE  H17R19035   4.899   6.139   4.144 -0.2312 -0.6360 -0.5752
  169SAPE  H17S19036   4.972   6.106   4.302  2.1471 -0.9629 -1.7746
  169SAPE  C21819037   4.753   6.108   4.292 -1.2475 -0.4695 -0.3269
  169SAPE  H18R19038   4.677   6.082   4.216  0.7132 -2.3129 -1.7868
  169SAPE  H18S19039   4.742   6.217   4.308  1.3245 -0.1011 -0.6701
  169SAPE  C21919040   4.724   6.028   4.421 -0.8204  0.1215  0.3066
  169SAPE  H19R19041   4.724   5.917   4.409  2.2091 -0.1766  2.0333
  169SAPE  H19S19042   4.618   6.039   4.452 -1.1126 -0.7853 -0.3367
  169SAPE  C22019043   4.817   6.057   4.547 -0.3721 -0.3925  0.7070
  169SAPE  H20R19044   4.753   6.114   4.617 -1.3470 -0.7887  0.1538
  169SAPE  H20S19045   4.906   6.112   4.511 -2.5936  1.9722 -1.5354
  169SAPE  H20T19046   4.841   5.961   4.600  1.3683 -0.7216 -0.5894
  169SAPE   C3319047   4.465   5.203   3.632 -0.1093  0.1799 -0.2474
  169SAPE   H3X19048   4.445   5.094   3.623  0.7461  0.0831 -1.2370
  169SAPE   H3Y19049   4.365   5.250   3.622 -1.0171 -1.2348  1.5096
  169SAPE   C3419050   4.493   5.238   3.785 -0.2385  0.7932  0.6986
  169SAPE   H4X19051   4.472   5.346   3.802 -1.6605  0.7827 -0.8010
  169SAPE   H4Y19052   4.596   5.210   3.814 -1.4555 -2.9513  2.0185
  169SAPE   C3519053   4.419   5.139   3.860 -0.2257 -0.5539  0.2996
  169SAPE   H5X19054   4.457   5.034   3.859 -0.8223 -0.8898  3.2723
  169SAPE   H5Y19055   4.317   5.128   3.819  0.0267 -1.7333 -0.0454
  169SAPE   C3619056   4.403   5.191   4.012  1.1019  0.4187  0.0247
  169SAPE   H6X19057   4.351   5.289   4.008 -0.1350 -0.2287 -0.3916
  169SAPE   H6Y19058   4.500   5.212   4.061  1.1065  0.3973  0.0248
  169SAPE   C3719059   4.314   5.092   4.088 -0.1843  0.1808 -0.4798
  169SAPE   H7X19060   4.386   5.009   4.104  1.3346  1.9299  3.0590
  169SAPE   H7Y19061   4.242   5.050   4.016  0.9914 -3.3315  0.2052
  169SAPE   C3819062   4.268   5.133   4.230  0.5259  0.4037  0.0555
  169SAPE   H8X19063   4.353   5.149   4.299  0.4272 -0.0516  0.2882
  169SAPE   H8Y19064   4.197   5.054   4.261 -1.5370  1.9583 -0.4334
  169SAPE   C3919065   4.166   5.253   4.226  0.3254 -0.6953  0.2030
  169SAPE   H9X19066   4.075   5.226   4.169  1.8856  0.8562 -3.3456
  169SAPE   H9Y19067   4.216   5.342   4.181 -1.8365  1.5957  1.9844
  169SAPE  C31019068   4.129   5.310   4.363 -0.1657  0.6726 -0.3989
  169SAPE  H10X19069   4.217   5.321   4.430 -1.2585 -2.2910  1.7199
  169SAPE  H10Y19070   4.057   5.239   4.408 -1.1634  1.5726 -0.5198
  169SAPE  C31119071   4.056   5.442   4.351  0.3629 -0.2959  0.3574
  169SAPE  H11X19072   4.056   5.477   4.245 -0.1591  0.4227  0.5890
  169SAPE  H11Y19073   4.116   5.514   4.411  1.5782 -0.8914 -0.1033
  169SAPE  C31219074   3.920   5.433   4.410  0.2026  0.0077  0.6475
  169SAPE  H12X19075   3.930   5.387   4.511  0.4937 -0.3897  0.4452
  169SAPE  H12Y19076   3.862   5.361   4.349  0.6275  0.6588 -0.5639
  169SAPE  C31319077   3.839   5.567   4.416 -0.0029  0.5189 -0.2300
  169SAPE  H13X19078   3.840   5.609   4.313  1.4765  0.0121 -0.4547
  169SAPE  H13Y19079   3.895   5.644   4.474 -0.1679 -0.0377  0.6783
  169SAPE  C31419080   3.692   5.539   4.458  0.3763 -0.1335  0.7638
  169SAPE  H14X19081   3.654   5.464   4.386 -0.6360 -2.2082  3.2990
  169SAPE  H14Y19082   3.622   5.624   4.444 -1.1699 -1.2764  1.2342
  169SAPE  C31519083   3.670   5.468   4.590  0.6852  0.4160 -0.8540
  169SAPE  H15X19084   3.702   5.364   4.568 -1.8773 -0.5943 -0.1359
  169SAPE  H15Y19085   3.561   5.465   4.607  0.5765  1.1356 -1.3598
  169SAPE  C31619086   3.740   5.540   4.707 -0.1841 -0.7137 -0.1146
  169SAPE  H16X19087   3.700   5.644   4.712  0.9982 -0.3050  3.7538
  169SAPE  H16Y19088   3.847   5.558   4.683  0.0653 -3.0064 -1.0035
  169SAPE  C31719089   3.719   5.478   4.843 -0.4640 -0.0597 -0.2597
  169SAPE  H17X19090   3.769   5.537   4.922  1.5917 -0.4690 -1.2093
  169SAPE  H17Y19091   3.759   5.375   4.845 -0.9937 -0.2575  0.5230
  169SAPE  C31819092   3.571   5.456   4.892 -0.6750  0.7700  0.0910
  169SAPE  H18X19093   3.573   5.429   5.000  0.9704  2.5514  0.5749
  169SAPE  H18Y19094   3.527   5.372   4.836 -0.0320 -1.3830  2.6098
  169SAPE  H18Z19095   3.508   5.546   4.875 -2.3667 -0.6163 -1.3059
  170SAPE     N19096   1.883   0.565   2.698  0.1556 -0.4294 -0.3884
  170SAPE   HN119097   1.883   0.668   2.685  1.7839 -0.4646 -0.8624
  170SAPE   HN219098   1.972   0.522   2.666  0.4849  0.1232 -0.2179
  170SAPE   HN319099   1.810   0.535   2.631  0.0542 -0.4240 -0.2798
  170SAPE   C1219100   1.843   0.521   2.836 -0.4536  0.1107 -0.7010
  170SAPE  H12A19101   1.739   0.560   2.847 -0.7882 -0.1491 -2.5326
  170SAPE  H12B19102   1.908   0.563   2.915  1.2527  0.8033 -2.3938
  170SAPE   C1119103   1.847   0.369   2.852  0.7078  0.0684  0.2401
  170SAPE  H11A19104   1.819   0.320   2.948 -2.3160 -0.4985 -0.8199
  170SAPE  H11B19105   1.953   0.341   2.834  0.6533  0.2624 -0.4077
  170SAPE     P19106   1.623   0.273   2.748  0.1384 -0.1240  0.2339
  170SAPE   O1319107   1.562   0.398   2.699  0.4993 -0.0623 -0.2707
  170SAPE   O1419108   1.598   0.152   2.668 -0.0808 -0.8203  0.2520
  170SAPE   O1219109   1.781   0.301   2.746  0.5639  0.3162 -0.5860
  170SAPE   O1119110   1.587   0.254   2.901 -0.6918 -0.3765 -0.1398
  170SAPE    C119111   1.618   0.136   2.972 -0.6349  0.0590  0.7835
  170SAPE    HA19112   1.606   0.044   2.910  0.6008  0.4277 -0.0257
  170SAPE    HB19113   1.726   0.138   2.996 -0.5372  0.9603  0.2897
  170SAPE    C219114   1.547   0.119   3.107 -0.1051  0.5231  0.2131
  170SAPE    HS19115   1.438   0.112   3.087 -0.1636  0.8506  0.4169
  170SAPE   O2119116   1.590   0.224   3.196 -0.1023  0.1151 -0.1221
  170SAPE   C2119117   1.494   0.264   3.277 -0.6246 -0.1143 -0.7020
  170SAPE   O2219118   1.374   0.252   3.254 -0.4615 -0.3737 -0.0980
  170SAPE   C2219119   1.549   0.331   3.405 -0.6623 -0.0042  0.2422
  170SAPE   H2R19120   1.481   0.280   3.476 -0.3197 -0.8406 -0.0253
  170SAPE   H2S19121   1.647   0.281   3.419 -1.7028 -1.3701  3.5781
  170SAPE    C319122   1.581  -0.020   3.175  0.3076  0.3465 -0.4943
  170SAPE    HX19123   1.692  -0.015   3.174  0.3541 -0.0506  0.5799
  170SAPE    HY19124   1.563  -0.104   3.105 -1.1476 -0.0329  0.2673
  170SAPE   O3119125   1.528  -0.042   3.308  0.2077  0.5425 -0.0948
  170SAPE   C3119126   1.407  -0.096   3.301  0.2528  0.0037  0.1587
  170SAPE   O3219127   1.341  -0.105   3.201  0.1737 -0.4075 -0.2793
  170SAPE   C3219128   1.356  -0.141   3.439 -0.6351  0.3871 -0.2394
  170SAPE   H2X19129   1.422  -0.217   3.486 -2.4662 -0.3629  1.2595
  170SAPE   H2Y19130   1.260  -0.196   3.426 -0.1981 -1.0653  2.0185
  170SAPE   C2319131   1.540   0.482   3.416 -0.1512  0.1001 -0.9124
  170SAPE   H3R19132   1.576   0.537   3.327  2.5438 -0.4557 -0.2423
  170SAPE   H3S19133   1.613   0.498   3.498  1.2249 -0.2494 -2.0319
  170SAPE   C2419134   1.396   0.525   3.468  0.0083 -0.8105  0.3909
  170SAPE   H4R19135   1.368   0.456   3.550  2.0832 -2.4939 -0.2332
  170SAPE   H4S19136   1.331   0.504   3.380  0.1760  2.3579 -0.6014
  170SAPE   C2519137   1.381   0.675   3.492  0.6703 -0.6756  1.0052
  170SAPE   H5R19138   1.350   0.743   3.412  0.3349  0.8402  2.3715
  170SAPE   C2619139   1.396   0.736   3.604 -0.2158  0.3678 -0.7838
  170SAPE   H6R19140   1.362   0.840   3.612 -1.1512  0.3654 -3.7704
  170SAPE   C2719141   1.426   0.648   3.725 -0.0309  0.1125 -0.6441
  170SAPE   H7R19142   1.509   0.576   3.708 -1.4128 -0.9167 -3.8319
  170SAPE   H7S19143   1.337   0.582   3.733 -0.1822  0.4116  0.2476
  170SAPE   C2819144   1.433   0.726   3.855  0.3228  0.3477 -0.2348
  170SAPE   H8R19145   1.465   0.829   3.837 -0.8143  0.8931  0.7056
  170SAPE   C2919146   1.410   0.685   3.978 -0.5875 -0.0645  0.6942
  170SAPE   H9R19147   1.415   0.763   4.056  0.1764  0.9651 -0.3531
  170SAPE  C21019148   1.370   0.548   4.023  0.5024  0.6967  0.2846
  170SAPE  H10R19149   1.455   0.518   4.088  0.4049 -0.6131 -0.1757
  170SAPE  H10S19150   1.384   0.476   3.939 -0.1375  2.4457 -1.4056
  170SAPE  C21119151   1.226   0.545   4.088 -0.1463  0.5307 -0.0954
  170SAPE  H11R19152   1.158   0.479   4.032 -0.7876  0.6080  0.5803
  170SAPE  C21219153   1.186   0.585   4.213  0.0013  0.2159  0.2929
  170SAPE  H12R19154   1.078   0.582   4.234  0.0339  2.8202  1.1336
  170SAPE  C21319155   1.260   0.687   4.300  0.3127 -0.6101 -0.7253
  170SAPE  H13R19156   1.201   0.781   4.307  0.1568 -0.7332 -0.3625
  170SAPE  H13S19157   1.363   0.717   4.270  1.1739 -1.7693  0.9102
  170SAPE  C21419158   1.269   0.626   4.436  0.2631  0.3284 -0.6036
  170SAPE  H14R19159   1.305   0.522   4.439 -1.2984 -0.2120  0.6633
  170SAPE  C21519160   1.229   0.683   4.556 -0.4755 -0.5294  0.4192
  170SAPE  H15R19161   1.241   0.618   4.645  0.2847 -0.3446  0.4557
  170SAPE  C21619162   1.163   0.819   4.597  0.1312  0.3775  0.3814
  170SAPE  H16R19163   1.071   0.789   4.651 -0.5519 -1.6747 -1.7831
  170SAPE  H16S19164   1.132   0.876   4.507  0.3743  1.3952  0.9143
  170SAPE  C21719165   1.258   0.902   4.688 -0.0042 -0.2043 -0.1814
  170SAPE  H17R19166   1.203   0.992   4.722  0.6214 -0.3047  1.1402
  170SAPE  H17S19167   1.338   0.941   4.622 -0.1721  0.8039  0.2013
  170SAPE  C21819168   1.310   0.831   4.815  0.7054  0.3290  0.0420
  170SAPE  H18R19169   1.361   0.739   4.779  0.6053 -0.2988  1.4327
  170SAPE  H18S19170   1.223   0.793   4.873  1.0967 -1.2007 -0.3312
  170SAPE  C21919171   1.396   0.920   4.905  0.7731 -0.0070 -0.8481
  170SAPE  H19R19172   1.414   0.875   5.005 -0.5860  0.2736 -0.4419
  170SAPE  H19S19173   1.330   1.004   4.938  1.6533  0.8702 -1.2605
  170SAPE  C22019174   1.516   0.980   4.840 -0.2281 -0.1414 -0.3048
  170SAPE  H20R19175   1.588   0.896   4.831  0.9081  0.5609  1.5820
  170SAPE  H20S19176   1.580   1.049   4.898 -1.1793  0.3657  0.1651
  170SAPE  H20T19177   1.498   1.017   4.737 -1.3284  1.4082  0.4128
  170SAPE   C3319178   1.354  -0.010   3.533 -0.7368  0.4264 -0.2509
  170SAPE   H3X19179   1.272   0.060   3.504 -0.7803  0.6111  0.2914
  170SAPE   H3Y19180   1.440   0.060   3.531 -1.9846  2.0364 -0.5593
  170SAPE   C3419181   1.340  -0.040   3.689 -0.1741  0.0075  0.6685
  170SAPE   H4X19182   1.431  -0.091   3.728 -0.7508 -0.9488  0.7807
  170SAPE   H4Y19183   1.258  -0.115   3.698  0.2634 -0.3220  2.1502
  170SAPE   C3519184   1.323   0.093   3.764  0.0997 -0.3050  0.4864
  170SAPE   H5X19185   1.217   0.123   3.745  0.3326 -0.0902 -0.5592
  170SAPE   H5Y19186   1.391   0.173   3.729 -1.1548  0.8554  0.6407
  170SAPE   C3619187   1.345   0.069   3.912  0.1600  0.0331 -0.3867
  170SAPE   H6X19188   1.309  -0.034   3.932  0.8587  0.1942  2.0945
  170SAPE   H6Y19189   1.275   0.138   3.965  1.1551 -0.2885  1.4481
  170SAPE   C3719190   1.488   0.090   3.964 -0.0210 -0.0584 -0.1348
  170SAPE   H7X19191   1.548   0.059   3.876 -1.2032 -0.5963 -0.7700
  170SAPE   H7Y19192   1.513   0.016   4.043  0.1289 -0.6012 -0.6901
  170SAPE   C3819193   1.528   0.235   4.011 -0.1012  0.5102  0.1330
  170SAPE   H8X19194   1.489   0.258   4.113  0.1627  0.2651  0.2887
  170SAPE   H8Y19195   1.467   0.297   3.941 -0.1328 -0.0249 -0.3160
  170SAPE   C3919196   1.678   0.251   4.002  0.4058  0.5479  0.1868
  170SAPE   H9X19197   1.727   0.256   3.903 -0.5765  0.0812 -0.3343
  170SAPE   H9Y19198   1.717   0.162   4.056 -1.2916  0.8875  2.0937
  170SAPE  C31019199   1.719   0.382   4.076 -0.1840  0.0336 -0.2377
  170SAPE  H10X19200   1.685   0.372   4.182  2.0318  1.6615  0.7030
  170SAPE  H10Y19201   1.671   0.468   4.024  1.4576 -0.3076 -2.4549
  170SAPE  C31119202   1.875   0.411   4.068  0.4174 -1.0305  0.5536
  170SAPE  H11X19203   1.904   0.445   3.967  0.2889  2.3727  1.5474
  170SAPE  H11Y19204   1.924   0.312   4.078  3.2424  0.2398  0.0220
  170SAPE  C31219205   1.945   0.509   4.161 -0.2673 -0.2641  0.6212
  170SAPE  H12X19206   1.907   0.613   4.152 -0.0063 -0.2129  0.0513
  170SAPE  H12Y19207   2.051   0.497   4.130  0.0073  0.6375  1.1756
  170SAPE  C31319208   1.916   0.459   4.299  0.5876  0.1677  0.8475
  170SAPE  H13X19209   1.946   0.353   4.310  1.8751  0.6460  2.4136
  170SAPE  H13Y19210   1.810   0.457   4.333  1.4051  0.9572  3.8195
  170SAPE  C31419211   2.013   0.521   4.394  0.0788 -0.0648 -1.0043
  170SAPE  H14X19212   2.009   0.632   4.386  2.7578  0.5243  3.0166
  170SAPE  H14Y19213   2.117   0.502   4.359 -0.3341 -0.5328 -2.0327
  170SAPE  C31519214   1.987   0.494   4.543  0.0362 -0.6562 -0.4039
  170SAPE  H15X19215   1.884   0.533   4.562  0.6508  0.5027  0.7224
  170SAPE  H15Y19216   2.046   0.559   4.611 -0.3566  0.6810 -1.2943
  170SAPE  C31619217   2.001   0.353   4.599  0.1659 -0.0747  0.1837
  170SAPE  H16X19218   2.108   0.326   4.588 -0.2405 -0.8899 -2.8508
  170SAPE  H16Y19219   1.949   0.283   4.528  2.4964 -0.9136 -0.7911
  170SAPE  C31719220   1.939   0.323   4.744 -0.2114 -0.1177 -0.1123
  170SAPE  H17X19221   1.833   0.355   4.759  0.6237  3.0913 -0.3388
  170SAPE  H17Y19222   2.000   0.382   4.816  0.9239  0.4405 -1.4774
  170SAPE  C31819223   1.944   0.179   4.771  0.4742 -0.1700 -0.8177
  170SAPE  H18X19224   1.929   0.112   4.684  0.2117  0.8615 -1.5700
  170SAPE  H18Y19225   1.873   0.147   4.850  1.3903 -1.8706 -0.6286
  170SAPE  H18Z19226   2.043   0.159   4.817  0.8153  3.1228  0.1053
  171SAPE     N19227   0.013   5.513   2.711 -0.1065 -0.2112 -0.1891
  171SAPE   HN119228  -0.064   5.555   2.657  1.3250 -0.2225 -2.3409
  171SAPE   HN219229  -0.014   5.437   2.777 -3.6655 -0.8814 -2.1607
  171SAPE   HN319230   0.061   5.589   2.765 -1.9125 -0.7260  2.3435
  171SAPE   C1219231   0.111   5.467   2.610  0.1130 -0.3308  0.1130
  171SAPE  H12A19232   0.111   5.546   2.532  3.2556  2.2007  2.3893
  171SAPE  H12B19233   0.070   5.373   2.568 -2.5982  0.8481 -0.1313
  171SAPE   C1119234   0.249   5.444   2.678 -0.0294 -0.0263  0.8645
  171SAPE  H11A19235   0.321   5.435   2.594 -0.0278  2.1495  0.5918
  171SAPE  H11B19236   0.240   5.344   2.726  3.2781 -0.7069  0.3352
  171SAPE     P19237   0.384   5.658   2.749 -0.1552  0.2490 -0.3194
  171SAPE   O1319238   0.395   5.700   2.608  0.2613 -0.1957  0.0591
  171SAPE   O1419239   0.358   5.770   2.846  0.1691 -0.1461 -0.0314
  171SAPE   O1219240   0.285   5.537   2.772  0.4973  0.3743  0.3195
  171SAPE   O1119241   0.521   5.593   2.775  0.3797  0.2723 -0.8937
  171SAPE    C119242   0.572   5.481   2.844 -0.0522  0.3244 -0.4599
  171SAPE    HA19243   0.512   5.393   2.814  0.3048  0.4247 -1.4947
  171SAPE    HB19244   0.676   5.467   2.807 -0.2498  0.8377 -1.2209
  171SAPE    C219245   0.556   5.496   3.006  0.4528 -0.3930  0.2718
  171SAPE    HS19246   0.602   5.401   3.042  0.5103  0.0413  1.3713
  171SAPE   O2119247   0.417   5.513   3.044 -0.2200  0.4562  0.1541
  171SAPE   C2119248   0.363   5.401   3.106 -0.3497 -0.0489  0.3132
  171SAPE   O2219249   0.430   5.311   3.151  0.3349  0.5803  0.4005
  171SAPE   C2219250   0.207   5.412   3.100  0.4161 -0.1867  0.0929
  171SAPE   H2R19251   0.185   5.521   3.101 -0.4130 -0.3324 -0.7453
  171SAPE   H2S19252   0.175   5.384   2.997 -0.0052 -2.7087  0.8468
  171SAPE    C319253   0.638   5.618   3.049  0.6120 -0.2365 -0.0027
  171SAPE    HX19254   0.586   5.707   3.007 -1.6580 -0.8051  1.4353
  171SAPE    HY19255   0.741   5.606   3.009  1.7032 -2.3803  3.0671
  171SAPE   O3119256   0.641   5.644   3.190 -0.2288  0.2839 -0.1749
  171SAPE   C3119257   0.726   5.555   3.255  0.5590 -0.3746  0.5397
  171SAPE   O3219258   0.794   5.472   3.199  0.1263 -0.0656 -0.2615
  171SAPE   C3219259   0.728   5.589   3.401 -0.0909  0.5796  0.1747
  171SAPE   H2X19260   0.623   5.613   3.429 -0.0723  1.0967 -0.1780
  171SAPE   H2Y19261   0.796   5.674   3.421  1.4007 -0.1718 -1.3986
  171SAPE   C2319262   0.144   5.327   3.213 -0.7105 -0.1131  0.3328
  171SAPE   H3R19263   0.186   5.224   3.211  0.8380  0.4584  1.6207
  171SAPE   H3S19264   0.034   5.311   3.200 -0.8995 -0.5084  2.1046
  171SAPE   C2419265   0.167   5.378   3.358 -0.8306 -0.5792 -0.2224
  171SAPE   H4R19266   0.077   5.340   3.411 -2.8232  1.8953 -1.6225
  171SAPE   H4S19267   0.167   5.489   3.364 -0.6001 -0.2571 -4.0091
  171SAPE   C2519268   0.298   5.336   3.421 -0.5585  0.2451  0.0372
  171SAPE   H5R19269   0.336   5.234   3.407  0.5190  0.6320  0.0073
  171SAPE   C2619270   0.369   5.404   3.518  0.1883  0.2385  0.6401
  171SAPE   H6R19271   0.469   5.362   3.539  0.9848  0.7512 -1.7473
  171SAPE   C2719272   0.338   5.540   3.581 -0.0651  0.3850  0.1536
  171SAPE   H7R19273   0.323   5.610   3.496 -0.7487 -1.1675 -1.0533
  171SAPE   H7S19274   0.432   5.580   3.626  0.0278 -0.6341  0.8773
  171SAPE   C2819275   0.224   5.547   3.680 -0.7921  0.1542  0.8848
  171SAPE   H8R19276   0.134   5.554   3.617  0.4534  1.7490 -0.8188
  171SAPE   C2919277   0.227   5.546   3.813  0.5255 -0.2017 -0.4055
  171SAPE   H9R19278   0.130   5.555   3.866  0.3075  0.1933 -0.8625
  171SAPE  C21019279   0.351   5.546   3.905  0.2580 -0.6368 -0.0272
  171SAPE  H10R19280   0.446   5.542   3.848 -0.9917  2.0748 -2.5694
  171SAPE  H10S19281   0.351   5.451   3.962  1.3050 -0.5659  0.0978
  171SAPE  C21119282   0.358   5.669   3.991  0.3338  0.4198  0.4491
  171SAPE  H11R19283   0.338   5.768   3.947  2.0195  1.0436  1.0183
  171SAPE  C21219284   0.388   5.668   4.124  0.5804  0.1706  0.6189
  171SAPE  H12R19285   0.391   5.765   4.174 -0.6930  0.2446  0.5787
  171SAPE  C21319286   0.410   5.557   4.213  0.0595  0.0870 -0.2738
  171SAPE  H13R19287   0.415   5.455   4.169  0.6772 -0.5839  1.2691
  171SAPE  H13S19288   0.328   5.562   4.288  0.0202 -0.8170 -0.2446
  171SAPE  C21419289   0.544   5.585   4.284 -0.6728  0.9725  0.0556
  171SAPE  H14R19290   0.621   5.611   4.210 -0.2608  1.0906  0.5202
  171SAPE  C21519291   0.570   5.602   4.417  0.4331  0.9432  0.2832
  171SAPE  H15R19292   0.670   5.623   4.457 -0.2215  1.1395  1.8919
  171SAPE  C21619293   0.459   5.557   4.512 -0.7025  0.0987  0.2956
  171SAPE  H16R19294   0.497   5.516   4.608 -1.2387  1.5290  1.1637
  171SAPE  H16S19295   0.396   5.475   4.472 -0.3788  0.4613 -1.0081
  171SAPE  C21719296   0.355   5.671   4.542 -0.1411  0.3166  0.3081
  171SAPE  H17R19297   0.306   5.716   4.454  0.9500  3.6240  1.2584
  171SAPE  H17S19298   0.408   5.760   4.582 -0.5290  0.7768 -0.1909
  171SAPE  C21819299   0.242   5.626   4.636  0.4024  0.1576  0.0946
  171SAPE  H18R19300   0.195   5.527   4.615 -2.1600  1.3418 -0.1252
  171SAPE  H18S19301   0.155   5.694   4.645  0.4327  0.0934  0.9687
  171SAPE  C21919302   0.301   5.632   4.778 -0.5541 -0.0856 -0.1362
  171SAPE  H19R19303   0.333   5.737   4.800 -0.9727 -0.0870  0.4829
  171SAPE  H19S19304   0.389   5.564   4.772 -1.5363 -1.3723 -0.2825
  171SAPE  C22019305   0.206   5.584   4.889 -0.3005 -0.0290 -0.4727
  171SAPE  H20R19306   0.167   5.482   4.868  1.2310 -1.0356  1.3079
  171SAPE  H20S19307   0.123   5.658   4.889 -1.6243 -1.4766  0.0319
  171SAPE  H20T19308   0.253   5.578   4.989  0.3319 -0.2730 -0.7804
  171SAPE   C3319309   0.774   5.467   3.495  0.3040 -0.8568 -0.4415
  171SAPE   H3X19310   0.862   5.414   3.453  1.7382  1.0819 -0.0138
  171SAPE   H3Y19311   0.690   5.395   3.484 -0.0867 -0.2558 -1.4281
  171SAPE   C3419312   0.781   5.519   3.638 -0.7703 -0.1901 -0.3471
  171SAPE   H4X19313   0.694   5.585   3.656  0.0588  0.8590 -0.1081
  171SAPE   H4Y19314   0.871   5.584   3.646 -1.4312  0.6693  0.2507
  171SAPE   C3519315   0.791   5.423   3.747  0.2220  0.2046  0.1496
  171SAPE   H5X19316   0.877   5.353   3.735  1.7019  1.9754 -0.2109
  171SAPE   H5Y19317   0.697   5.367   3.764 -0.2859  1.2800  0.9982
  171SAPE   C3619318   0.804   5.494   3.880  0.2086 -0.4482  0.0324
  171SAPE   H6X19319   0.784   5.603   3.870 -0.7880 -0.3590  2.3728
  171SAPE   H6Y19320   0.909   5.478   3.911  0.7090 -2.0570 -2.2282
  171SAPE   C3719321   0.711   5.427   3.991 -0.3785 -0.5838 -0.1983
  171SAPE   H7X19322   0.615   5.429   3.936  0.2818  0.7517 -1.3770
  171SAPE   H7Y19323   0.704   5.503   4.071  0.5369  1.2270 -1.7324
  171SAPE   C3819324   0.756   5.293   4.041  0.3352  0.1616 -0.5681
  171SAPE   H8X19325   0.852   5.294   4.097 -0.2896 -1.6133  0.6189
  171SAPE   H8Y19326   0.763   5.218   3.960  0.4986  0.6462 -1.0071
  171SAPE   C3919327   0.642   5.244   4.134 -0.4001 -0.8029  0.6154
  171SAPE   H9X19328   0.546   5.237   4.078 -0.7183 -1.0081  1.1732
  171SAPE   H9Y19329   0.625   5.324   4.209  0.2510 -0.1323  0.0555
  171SAPE  C31019330   0.668   5.112   4.207  0.2030  0.2372  0.3694
  171SAPE  H10X19331   0.763   5.122   4.265  0.7140  0.3255 -0.4630
  171SAPE  H10Y19332   0.690   5.032   4.133  2.0524  0.1983  0.9150
  171SAPE  C31119333   0.549   5.066   4.292 -0.0174 -0.6227  0.0016
  171SAPE  H11X19334   0.475   5.010   4.230 -0.5921  1.6058 -1.4296
  171SAPE  H11Y19335   0.503   5.154   4.342  1.5200 -0.1213  0.6006
  171SAPE  C31219336   0.592   4.968   4.403  0.3062  0.0671  0.8135
  171SAPE  H12X19337   0.651   4.887   4.356 -2.3963 -1.5121 -0.0615
  171SAPE  H12Y19338   0.498   4.916   4.429 -1.9240  2.2725 -2.1668
  171SAPE  C31319339   0.669   5.011   4.524 -0.5126  0.0370  0.0667
  171SAPE  H13X19340   0.763   5.055   4.483 -0.9385  1.3637  0.4590
  171SAPE  H13Y19341   0.692   4.922   4.586 -1.8277 -0.8907 -0.7218
  171SAPE  C31419342   0.606   5.119   4.608  0.3294  0.6107  0.2388
  171SAPE  H14X19343   0.512   5.085   4.657 -0.1527  1.0407 -0.3632
  171SAPE  H14Y19344   0.573   5.198   4.537  1.3145 -0.5094 -1.5629
  171SAPE  C31519345   0.706   5.172   4.709  0.0417 -0.6349  0.2335
  171SAPE  H15X19346   0.796   5.195   4.649 -0.9990 -1.5041 -1.7755
  171SAPE  H15Y19347   0.726   5.085   4.776 -1.3374  0.2254  1.8306
  171SAPE  C31619348   0.658   5.301   4.773 -0.0294  0.2873  0.7264
  171SAPE  H16X19349   0.567   5.277   4.832 -1.1647  0.7336 -0.7765
  171SAPE  H16Y19350   0.631   5.377   4.697 -0.3582 -0.6351 -0.1162
  171SAPE  C31719351   0.758   5.361   4.861 -0.4046  0.9863 -0.5810
  171SAPE  H17X19352   0.846   5.373   4.794  0.7907  0.6600  0.8960
  171SAPE  H17Y19353   0.790   5.295   4.944 -0.8921  0.7924 -0.5425
  171SAPE  C31819354   0.716   5.491   4.927  0.0580 -0.4545  0.3273
  171SAPE  H18X19355   0.802   5.529   4.985 -0.0432 -0.5257  0.5246
  171SAPE  H18Y19356   0.629   5.472   4.994 -0.5404  3.4623  0.8981
  171SAPE  H18Z19357   0.686   5.571   4.855 -0.0987 -2.0493 -1.4453
  172SAPE     N19358   0.394   2.001   2.570  0.1272  0.4567 -0.5817
  172SAPE   HN119359   0.380   1.935   2.649  2.1099  0.6521 -0.0199
  172SAPE   HN219360   0.304   2.010   2.518 -0.0615 -0.0106 -0.3428
  172SAPE   HN319361   0.466   1.967   2.503  2.3043  2.9833  0.3299
  172SAPE   C1219362   0.437   2.139   2.624  0.4120  0.8583  0.6416
  172SAPE  H12A19363   0.347   2.198   2.653  0.7164  1.7606 -0.1981
  172SAPE  H12B19364   0.489   2.199   2.546  1.0265  0.0487  0.4245
  172SAPE   C1119365   0.538   2.134   2.740  0.9975 -0.4967 -0.3920
  172SAPE  H11A19366   0.480   2.109   2.832  1.6313 -0.7975 -0.0719
  172SAPE  H11B19367   0.588   2.232   2.755  0.3001 -0.2695  0.5899
  172SAPE     P19368   0.787   2.054   2.739  0.0195 -0.0230 -0.4668
  172SAPE   O1319369   0.859   1.973   2.644 -0.3052  0.1857  0.2278
  172SAPE   O1419370   0.823   2.195   2.742 -0.3173 -0.7198 -0.9789
  172SAPE   O1219371   0.632   2.038   2.717 -0.6643  0.6496  0.3025
  172SAPE   O1119372   0.803   1.994   2.884 -0.5941  0.3412  0.1852
  172SAPE    C119373   0.734   1.871   2.920  0.0007 -1.3364  0.5505
  172SAPE    HA19374   0.716   1.801   2.836 -1.3695 -2.1299  1.4662
  172SAPE    HB19375   0.806   1.813   2.981  1.5313 -1.5889 -1.3835
  172SAPE    C219376   0.606   1.898   3.016 -0.9316  0.6888  0.6187
  172SAPE    HS19377   0.524   1.937   2.951  0.1734 -0.3954 -1.5390
  172SAPE   O2119378   0.642   1.988   3.119  0.3232  0.6774 -0.0563
  172SAPE   C2119379   0.550   2.083   3.148  0.3261 -0.5592 -0.4453
  172SAPE   O2219380   0.444   2.094   3.093 -0.0524 -0.0733 -0.0435
  172SAPE   C2219381   0.593   2.165   3.272 -0.8395 -0.6695  0.2714
  172SAPE   H2R19382   0.528   2.131   3.355 -0.4139  0.0537  0.9238
  172SAPE   H2S19383   0.692   2.121   3.296 -0.3310  0.0878 -0.3968
  172SAPE    C319384   0.545   1.772   3.078  0.5137 -0.2429  0.0756
  172SAPE    HX19385   0.505   1.703   3.000  0.7549 -0.0358 -0.2342
  172SAPE    HY19386   0.456   1.799   3.137  0.5452 -0.7373  0.3558
  172SAPE   O3119387   0.638   1.704   3.166 -0.1960  0.2865 -0.8777
  172SAPE   C3119388   0.643   1.730   3.296  0.4330 -0.6313 -0.1530
  172SAPE   O3219389   0.570   1.809   3.350  0.7001 -0.2834 -0.1422
  172SAPE   C3219390   0.745   1.648   3.362 -1.1084  0.0917  0.6606
  172SAPE   H2X19391   0.839   1.657   3.304 -0.9888  1.4340  1.0275
  172SAPE   H2Y19392   0.723   1.539   3.361  1.6490 -0.5509  1.4188
  172SAPE   C2319393   0.585   2.321   3.258  0.2171 -0.6803  0.0735
  172SAPE   H3R19394   0.480   2.352   3.240  0.6473  0.1433 -1.1320
  172SAPE   H3S19395   0.638   2.342   3.163 -1.3281 -0.3551 -0.7531
  172SAPE   C2419396   0.651   2.390   3.386  0.4251 -0.3559 -0.3038
  172SAPE   H4R19397   0.654   2.496   3.354 -1.4014  0.3063  1.5029
  172SAPE   H4S19398   0.751   2.342   3.393  0.5559 -0.1262 -0.5650
  172SAPE   C2519399   0.557   2.382   3.508 -0.7810  0.1869 -0.0798
  172SAPE   H5R19400   0.459   2.430   3.499 -0.4958  0.3219 -4.0032
  172SAPE   C2619401   0.583   2.313   3.625 -0.3121 -0.0495  0.0794
  172SAPE   H6R19402   0.507   2.302   3.704  0.0992 -2.6111  0.2183
  172SAPE   C2719403   0.706   2.222   3.642  0.2525 -0.7680 -0.1793
  172SAPE   H7R19404   0.764   2.263   3.728 -2.3369  2.6075  0.1678
  172SAPE   H7S19405   0.756   2.209   3.544 -1.2074 -1.4488 -0.8621
  172SAPE   C2819406   0.635   2.088   3.661 -0.5958 -0.8291  0.0768
  172SAPE   H8R19407   0.577   2.053   3.574 -2.1096  2.0559 -0.1992
  172SAPE   C2919408   0.628   2.016   3.777  0.0613  0.6872  1.0071
  172SAPE   H9R19409   0.593   1.913   3.767  2.2628  0.0762 -1.8799
  172SAPE  C21019410   0.700   2.049   3.904  0.5248  0.7448  0.0898
  172SAPE  H10R19411   0.667   2.144   3.951  1.9818  1.2200  0.1903
  172SAPE  H10S19412   0.808   2.056   3.878  0.6239 -2.3653 -0.7902
  172SAPE  C21119413   0.681   1.938   4.007 -0.8884 -0.6449 -0.5836
  172SAPE  H11R19414   0.756   1.857   4.003 -0.3667 -0.1201 -2.2446
  172SAPE  C21219415   0.566   1.926   4.078 -0.6949 -0.4569 -0.7504
  172SAPE  H12R19416   0.555   1.844   4.151  0.9350 -0.3765 -0.3606
  172SAPE  C21319417   0.445   2.019   4.065  0.1468 -0.4732 -0.6081
  172SAPE  H13R19418   0.412   2.013   3.959  0.4151 -1.0079 -0.6657
  172SAPE  H13S19419   0.477   2.125   4.076  2.8806 -1.1062 -1.6872
  172SAPE  C21419420   0.333   1.996   4.163  0.1018  0.0661  0.2719
  172SAPE  H14R19421   0.242   1.957   4.113  1.3514 -0.8876 -1.3625
  172SAPE  C21519422   0.325   2.016   4.302 -0.7018 -0.1260  0.2593
  172SAPE  H15R19423   0.233   1.992   4.358  0.9411 -0.6154  2.9067
  172SAPE  C21619424   0.449   2.069   4.375 -0.2172  0.0603 -0.6275
  172SAPE  H16R19425   0.513   2.140   4.318 -3.1979  3.0001 -0.5818
  172SAPE  H16S19426   0.504   1.982   4.417  0.7065  1.5251  1.3384
  172SAPE  C21719427   0.424   2.159   4.502  0.2193  0.3624 -0.4049
  172SAPE  H17R19428   0.374   2.251   4.464 -1.0648  0.0126  0.3759
  172SAPE  H17S19429   0.523   2.175   4.549  0.4403 -0.3737 -0.6180
  172SAPE  C21819430   0.330   2.100   4.611  0.2905  0.4408 -0.1728
  172SAPE  H18R19431   0.226   2.086   4.575 -0.2339  0.2127  1.3699
  172SAPE  H18S19432   0.323   2.174   4.693  0.8221 -0.9450  1.1842
  172SAPE  C21919433   0.385   1.970   4.674 -0.4700  0.2294 -0.0483
  172SAPE  H19R19434   0.389   1.894   4.593  0.8798  1.1435 -0.8881
  172SAPE  H19S19435   0.317   1.931   4.752 -0.9670 -0.7892 -0.9522
  172SAPE  C22019436   0.525   1.984   4.729 -0.3822 -0.5884  0.1610
  172SAPE  H20R19437   0.551   1.899   4.795  0.6322  0.8730  1.7356
  172SAPE  H20S19438   0.526   2.075   4.793  0.4768  1.6187 -2.7646
  172SAPE  H20T19439   0.590   1.990   4.640  0.2097  0.8187  0.6559
  172SAPE   C3319440   0.759   1.688   3.508  0.1339 -0.5868 -0.2214
  172SAPE   H3X19441   0.660   1.674   3.558  0.0696 -0.3133 -0.2709
  172SAPE   H3Y19442   0.797   1.792   3.516  2.6167 -1.4371 -0.1558
  172SAPE   C3419443   0.857   1.598   3.586  0.4748  0.3998 -0.8109
  172SAPE   H4X19444   0.956   1.596   3.535  1.0949  2.7954  0.1461
  172SAPE   H4Y19445   0.814   1.496   3.585 -0.6074  0.8434 -0.9572
  172SAPE   C3519446   0.864   1.628   3.739 -0.1622  1.2818 -0.2879
  172SAPE   H5X19447   0.766   1.657   3.783 -0.2552  0.5528  0.0026
  172SAPE   H5Y19448   0.919   1.721   3.760  1.3906  0.7525 -1.8452
  172SAPE   C3619449   0.936   1.513   3.818  0.5249 -0.6112 -0.2160
  172SAPE   H6X19450   1.039   1.496   3.780  1.4727 -0.2365  2.0239
  172SAPE   H6Y19451   0.878   1.419   3.805  0.2505 -0.2897 -1.4718
  172SAPE   C3719452   0.958   1.538   3.966 -0.1809 -0.1525  0.2961
  172SAPE   H7X19453   0.997   1.640   3.985 -0.3208 -0.3686  1.8126
  172SAPE   H7Y19454   1.020   1.454   4.003 -0.1033 -0.0185  0.4684
  172SAPE   C3819455   0.829   1.521   4.052 -0.4733 -0.2224 -0.6394
  172SAPE   H8X19456   0.788   1.418   4.047 -0.6627 -0.2075  0.3111
  172SAPE   H8Y19457   0.754   1.586   4.002 -0.7785 -1.2156 -1.5278
  172SAPE   C3919458   0.859   1.558   4.211 -0.3684  0.3967  0.3065
  172SAPE   H9X19459   0.962   1.516   4.219 -0.9124 -0.9923  0.2711
  172SAPE   H9Y19460   0.794   1.491   4.271 -3.5879  1.8745 -1.3116
  172SAPE  C31019461   0.872   1.706   4.255  0.0874  0.3302  0.4468
  172SAPE  H10X19462   0.772   1.755   4.253 -1.1709 -2.1115 -0.7191
  172SAPE  H10Y19463   0.942   1.760   4.187  2.1306 -1.5479  0.9382
  172SAPE  C31119464   0.933   1.720   4.391 -0.2870 -0.4003  0.0725
  172SAPE  H11X19465   1.041   1.729   4.368  0.9869  1.9708  5.3713
  172SAPE  H11Y19466   0.916   1.632   4.457  0.7534  0.6012  1.7744
  172SAPE  C31219467   0.891   1.853   4.461 -0.2158  0.2466 -0.2171
  172SAPE  H12X19468   0.781   1.858   4.469 -0.0657  0.6431  2.3692
  172SAPE  H12Y19469   0.924   1.931   4.389 -1.1922  1.6578  0.8252
  172SAPE  C31319470   0.956   1.870   4.601  0.8461 -0.3312  0.3984
  172SAPE  H13X19471   0.954   1.978   4.627  2.2110 -0.0739 -0.4334
  172SAPE  H13Y19472   1.060   1.838   4.580  0.9552  0.3096 -0.0872
  172SAPE  C31419473   0.893   1.782   4.707  0.5799 -0.2084 -0.3846
  172SAPE  H14X19474   0.883   1.680   4.663  1.4342  0.2230 -1.6168
  172SAPE  H14Y19475   0.788   1.809   4.734  0.4051 -1.5842  0.4036
  172SAPE  C31519476   0.965   1.764   4.834 -0.2253 -0.2041 -0.5943
  172SAPE  H15X19477   1.072   1.742   4.810 -0.3029 -1.3651  0.0515
  172SAPE  H15Y19478   0.932   1.675   4.891 -0.0960  0.5858  0.7503
  172SAPE  C31619479   0.980   1.884   4.929 -0.4855  0.0633  0.4155
  172SAPE  H16X19480   0.879   1.913   4.963 -0.6179 -0.1531  0.2083
  172SAPE  H16Y19481   1.014   1.970   4.867 -2.2330  1.5983  1.4851
  172SAPE  C31719482   1.074   1.852   5.044 -0.3256 -0.3843 -0.0632
  172SAPE  H17X19483   1.177   1.846   5.001 -0.3851  4.2665 -1.3445
  172SAPE  H17Y19484   1.054   1.749   5.080  0.3880 -0.1158  1.1624
  172SAPE  C31819485   1.063   1.958   5.153 -0.3370  0.3167 -0.1773
  172SAPE  H18X19486   1.112   2.052   5.120 -0.1888  0.4938  0.5299
  172SAPE  H18Y19487   1.122   1.926   5.242  0.3048 -0.4813 -0.8737
  172SAPE  H18Z19488   0.957   1.978   5.180 -0.7495 -0.7141 -0.9657
  173SLPC     N19489   6.027   2.230   7.362 -0.0736 -0.0153 -0.1153
  173SLPC   C1319490   6.010   2.163   7.489 -0.0733  0.1793 -0.7730
  173SLPC  H13A19491   6.041   2.221   7.574 -1.5186 -1.5910  1.0727
  173SLPC  H13B19492   5.904   2.152   7.505 -0.2810  1.2295 -1.3871
  173SLPC  H13C19493   6.067   2.071   7.490 -1.5264 -0.7641  0.6265
  173SLPC   C1419494   5.929   2.341   7.358 -0.0919  0.2098 -0.0154
  173SLPC  H14A19495   5.828   2.309   7.381 -0.0294  1.2099  1.8114
  173SLPC  H14B19496   5.959   2.417   7.428  1.0730  0.3643 -0.6638
  173SLPC  H14C19497   5.920   2.397   7.266 -0.8416 -2.4430 -1.7136
  173SLPC   C1519498   5.992   2.135   7.254  1.2176 -0.4359  0.1013
  173SLPC  H15A19499   6.003   2.188   7.160  2.8674 -1.5766 -0.3751
  173SLPC  H15B19500   6.055   2.048   7.248  1.3627 -0.5264  2.1733
  173SLPC  H15C19501   5.891   2.097   7.250  2.3559 -3.6988 -0.5020
  173SLPC   C1219502   6.176   2.272   7.337 -0.0082 -0.6220  0.2319
  173SLPC  H12A19503   6.238   2.186   7.361 -1.3930 -1.7308 -0.0329
  173SLPC  H12B19504   6.198   2.351   7.407 -2.4036 -1.4692  2.0914
  173SLPC   C1119505   6.223   2.317   7.191 -0.2599  0.1157  0.2046
  173SLPC  H11A19506   6.184   2.259   7.105 -3.3097  0.5558  1.1601
  173SLPC  H11B19507   6.332   2.298   7.184 -0.1182 -0.9067  3.4265
  173SLPC     P19508   6.284   2.573   7.217 -0.0601 -0.4244  0.0446
  173SLPC   O1319509   6.205   2.694   7.250 -0.0389 -0.2697  0.2495
  173SLPC   O1419510   6.356   2.519   7.331  0.3452 -0.2358  0.1213
  173SLPC   O1219511   6.190   2.458   7.167 -0.1268  0.9219  0.0287
  173SLPC   O1119512   6.384   2.597   7.103 -0.2937  0.1101 -0.2145
  173SLPC    C119513   6.347   2.601   6.963  0.0226  0.2134 -0.0287
  173SLPC    HA19514   6.285   2.514   6.934 -1.5124  1.3402 -0.2898
  173SLPC    HB19515   6.292   2.697   6.950  0.0636  0.7363  2.9062
  173SLPC    C219516   6.471   2.601   6.868 -0.1183  0.0684 -0.4074
  173SLPC    HS19517   6.535   2.690   6.890  1.4822 -1.6969  2.7605
  173SLPC   O2119518   6.418   2.606   6.735 -0.7237 -0.0248  0.5734
  173SLPC   C2119519   6.498   2.604   6.635 -1.1049 -0.4465  0.2795
  173SLPC   O2219520   6.619   2.603   6.633  0.1479  0.5031 -0.6070
  173SLPC   C2219521   6.416   2.583   6.505 -0.1330  0.2474  0.7662
  173SLPC   H2R19522   6.365   2.484   6.503 -0.1068  0.2194 -1.7015
  173SLPC   H2S19523   6.330   2.654   6.509 -0.0464  0.4303 -0.3733
  173SLPC    C319524   6.551   2.468   6.888 -0.1317  0.0577  0.9662
  173SLPC    HX19525   6.599   2.483   6.987 -0.0918  2.9150  0.5933
  173SLPC    HY19526   6.634   2.472   6.814 -1.2372 -0.9675 -0.3558
  173SLPC   O3119527   6.465   2.354   6.857 -0.3897 -0.1953  0.1335
  173SLPC   C3119528   6.525   2.240   6.886  0.1913 -0.3970  1.2430
  173SLPC   O3219529   6.639   2.227   6.931 -0.0353  0.0046  0.3544
  173SLPC   C3219530   6.435   2.115   6.864  0.2294  0.5302  0.5275
  173SLPC   H2X19531   6.329   2.144   6.884  0.0560 -0.2196  0.7336
  173SLPC   H2Y19532   6.470   2.035   6.933 -1.2519  0.3517  1.1182
  173SLPC   C2319533   6.494   2.608   6.373  0.3875  0.0940 -0.6729
  173SLPC   H3R19534   6.588   2.550   6.389 -0.5718 -1.0955  1.1258
  173SLPC   H3S19535   6.529   2.712   6.356 -0.0819  0.3116 -0.3332
  173SLPC   C2419536   6.425   2.552   6.253  0.2325 -0.9920  0.5373
  173SLPC   H4R19537   6.343   2.625   6.239  1.9025  1.0562  0.9196
  173SLPC   H4S19538   6.375   2.454   6.271 -1.4367 -0.2839 -0.0060
  173SLPC   C2519539   6.514   2.553   6.127 -0.1873  0.4148  0.2102
  173SLPC   H5R19540   6.591   2.478   6.156 -0.5708  0.5392  1.6281
  173SLPC   H5S19541   6.562   2.651   6.109 -1.4123  0.7965 -1.1432
  173SLPC   C2619542   6.439   2.525   5.996  0.2409 -0.0748 -0.2157
  173SLPC   H6R19543   6.355   2.596   5.983 -0.2346 -0.4304  0.7744
  173SLPC   H6S19544   6.390   2.425   5.998 -0.2385  0.1453 -0.8009
  173SLPC   C2719545   6.534   2.539   5.874 -0.2374  0.0299  0.2622
  173SLPC   H7R19546   6.627   2.482   5.895  0.1123  0.3939 -0.2787
  173SLPC   H7S19547   6.566   2.645   5.875  2.4623 -0.7010 -0.0831
  173SLPC   C2819548   6.476   2.502   5.738  0.2071 -0.2139 -0.4033
  173SLPC   H8R19549   6.456   2.393   5.753  2.9111 -0.8681 -0.9136
  173SLPC   H8S19550   6.555   2.500   5.660  0.4881  0.6079 -0.1434
  173SLPC   C2919551   6.351   2.568   5.683  0.0187 -0.4889  0.0126
  173SLPC   H9R19552   6.250   2.537   5.713  0.3839 -0.4360  1.3889
  173SLPC  C21019553   6.357   2.656   5.581  0.3721  0.1876  0.2599
  173SLPC  H10R19554   6.263   2.693   5.537  1.0110  2.6976  0.8400
  173SLPC  C21119555   6.481   2.693   5.507  0.5339  0.8141 -0.3933
  173SLPC  H11R19556   6.569   2.698   5.575  0.2246  1.1622 -0.0168
  173SLPC  H11S19557   6.472   2.795   5.466 -1.3260  2.0880  2.7989
  173SLPC  C21219558   6.518   2.595   5.402 -0.2954 -0.0544 -0.2888
  173SLPC  H12R19559   6.466   2.499   5.386 -1.2453  0.2659  0.7684
  173SLPC  C21319560   6.628   2.607   5.324  0.3921  0.4978  0.1241
  173SLPC  H13R19561   6.640   2.529   5.247 -0.8312 -0.5165  0.9188
  173SLPC  C21419562   6.727   2.714   5.339  0.2490  0.1864  0.4521
  173SLPC  H14R19563   6.710   2.798   5.410  3.9646  0.3575  1.3494
  173SLPC  H14S19564   6.734   2.751   5.235  1.0230 -3.7923 -1.0953
  173SLPC  C21519565   6.845   2.638   5.408 -0.0674  0.0691  0.1757
  173SLPC  H15R19566   6.891   2.560   5.344  3.3610  2.0418 -0.0096
  173SLPC  H15S19567   6.809   2.597   5.505  0.6239 -1.5575 -0.2292
  173SLPC  C21619568   6.951   2.744   5.431  0.1249  0.7115  0.1257
  173SLPC  H16R19569   6.911   2.828   5.491  0.3876  0.0802  1.2093
  173SLPC  H16S19570   6.972   2.782   5.328 -1.9775  0.8504 -0.2823
  173SLPC  C21719571   7.078   2.685   5.494 -0.4787  0.3031  0.3286
  173SLPC  H17R19572   7.105   2.592   5.439 -2.9783 -0.6035  0.5139
  173SLPC  H17S19573   7.050   2.659   5.598 -2.5571  1.8988  0.2577
  173SLPC  C21819574   7.202   2.780   5.509  0.6338 -0.2213  0.6125
  173SLPC  H18R19575   7.255   2.806   5.415  3.9548 -0.7344  2.1963
  173SLPC  H18S19576   7.283   2.729   5.565  1.1858 -2.1617 -1.7859
  173SLPC  H18T19577   7.168   2.874   5.559 -0.6498 -0.1333 -0.3715
  173SLPC   C3319578   6.448   2.071   6.710  0.5674 -0.0350 -0.3866
  173SLPC   H3X19579   6.414   2.157   6.648  1.3335 -0.1477 -0.9781
  173SLPC   H3Y19580   6.381   1.982   6.707 -1.4479  1.2649  2.4822
  173SLPC   C3419581   6.589   2.043   6.658 -0.5004 -0.1992  0.3953
  173SLPC   H4X19582   6.625   1.967   6.731  0.9163 -0.3425 -0.4047
  173SLPC   H4Y19583   6.658   2.130   6.668 -0.4002 -0.3312  0.9022
  173SLPC   C3519584   6.589   1.992   6.518  0.2570 -0.3062  0.5293
  173SLPC   H5X19585   6.524   1.903   6.509  0.9866 -0.7877 -0.2079
  173SLPC   H5Y19586   6.694   1.964   6.493  0.3615  1.3446 -1.1480
  173SLPC   C3619587   6.549   2.103   6.412  0.0282  1.1063  0.8366
  173SLPC   H6X19588   6.640   2.167   6.404  0.2532  0.5774 -2.1850
  173SLPC   H6Y19589   6.462   2.162   6.446 -1.9199 -1.0646 -0.1703
  173SLPC   C3719590   6.508   2.037   6.273  0.1198 -0.3055 -1.1044
  173SLPC   H7X19591   6.458   2.116   6.214 -2.4403  0.1991  1.5195
  173SLPC   H7Y19592   6.430   1.965   6.306  0.3659  0.3681  1.0614
  173SLPC   C3819593   6.621   1.969   6.199 -0.1624  0.3360  0.3129
  173SLPC   H8X19594   6.643   1.901   6.284  0.7648  0.7691  0.4309
  173SLPC   H8Y19595   6.699   2.043   6.171  0.3142  0.6888  2.3737
  173SLPC   C3919596   6.579   1.895   6.072  0.1387  0.1057  0.3631
  173SLPC   H9X19597   6.473   1.860   6.068  0.0542  0.4612 -1.8154
  173SLPC   H9Y19598   6.635   1.800   6.065  0.3957  0.2380  0.5819
  173SLPC  C31019599   6.610   1.972   5.942 -0.1118  0.2025 -0.1515
  173SLPC  H10X19600   6.715   2.007   5.947 -0.6011  1.6535  0.5800
  173SLPC  H10Y19601   6.540   2.058   5.942 -1.2726 -0.7095 -0.7153
  173SLPC  C31119602   6.580   1.877   5.827  0.0437 -0.4613  0.0482
  173SLPC  H11X19603   6.472   1.853   5.824  0.1295 -0.8112 -1.5884
  173SLPC  H11Y19604   6.629   1.777   5.837 -0.5304 -0.5849  1.8885
  173SLPC  C31219605   6.624   1.941   5.691  0.5792 -0.6294 -0.0574
  173SLPC  H12X19606   6.735   1.945   5.696  0.6278  2.1250 -1.3718
  173SLPC  H12Y19607   6.586   2.045   5.691 -4.8042 -2.3081  0.5310
  173SLPC  C31319608   6.588   1.875   5.560 -0.3795 -0.6077  0.2456
  173SLPC  H13X19609   6.477   1.866   5.556 -0.5464  0.0918  2.0644
  173SLPC  H13Y19610   6.631   1.773   5.564 -0.6489 -0.8235 -1.6584
  173SLPC  C31419611   6.640   1.944   5.428  0.5311 -0.0183  0.1856
  173SLPC  H14X19612   6.629   1.872   5.344  0.8441  0.1782 -0.0271
  173SLPC  H14Y19613   6.747   1.971   5.442  0.6926 -1.2973  1.6208
  173SLPC  C31519614   6.567   2.078   5.402 -0.2607  0.6952  0.2563
  173SLPC  H15X19615   6.594   2.145   5.486  0.7785  0.8916 -0.2201
  173SLPC  H15Y19616   6.458   2.058   5.404 -0.4721  1.6115 -0.8587
  173SLPC  C31619617   6.611   2.143   5.268  0.2977 -0.6431  0.2169
  173SLPC  H16X19618   6.571   2.246   5.256 -0.2623 -0.8368  0.4104
  173SLPC  H16Y19619   6.576   2.079   5.184  0.7831 -0.0534 -0.4396
  173SLPC  C31719620   6.761   2.148   5.240 -0.0205 -0.0352 -0.5642
  173SLPC  H17X19621   6.787   2.179   5.136  0.6125  1.4500  0.0068
  173SLPC  H17Y19622   6.805   2.047   5.256  1.9477  0.9534  0.6104
  173SLPC  C31819623   6.841   2.252   5.327  0.6846 -0.3629  0.3118
  173SLPC  H18X19624   6.823   2.228   5.434 -0.8629 -3.7658 -0.5848
  173SLPC  H18Y19625   6.801   2.353   5.303 -0.9296 -0.8205  0.9859
  173SLPC  H18Z19626   6.950   2.255   5.306  0.5737  0.4122 -0.1918
  174SLPC     N19627   6.621   4.806   7.325  0.0620 -0.1676 -0.3002
  174SLPC   C1319628   6.607   4.770   7.468  1.0729  0.3436  0.2558
  174SLPC  H13A19629   6.663   4.678   7.481  0.0691 -0.3977 -0.5005
  174SLPC  H13B19630   6.663   4.845   7.521  2.3636  0.0808 -0.6945
  174SLPC  H13C19631   6.509   4.766   7.512  2.0944  2.5576  3.0373
  174SLPC   C1419632   6.769   4.801   7.282  0.1176 -0.1111 -0.4295
  174SLPC  H14A19633   6.782   4.830   7.179  1.5701  0.1058 -0.2054
  174SLPC  H14B19634   6.828   4.879   7.328 -2.2124  0.5443  1.6809
  174SLPC  H14C19635   6.809   4.701   7.296 -1.1022 -0.4909  0.4984
  174SLPC   C1519636   6.583   4.948   7.306 -0.0805 -0.0311  0.6394
  174SLPC  H15A19637   6.578   4.971   7.200  0.2987 -3.0504 -0.1148
  174SLPC  H15B19638   6.490   4.961   7.360 -1.0145  0.2630 -0.9510
  174SLPC  H15C19639   6.655   5.010   7.357  0.3770 -0.0967  0.0825
  174SLPC   C1219640   6.537   4.711   7.238  0.1822  0.1030 -0.0458
  174SLPC  H12A19641   6.430   4.723   7.250  0.2915  1.8817 -0.6003
  174SLPC  H12B19642   6.572   4.612   7.260 -0.1261 -0.2639 -1.1094
  174SLPC   C1119643   6.539   4.733   7.083  0.0541  0.3677 -0.2804
  174SLPC  H11A19644   6.473   4.655   7.039  2.4410 -0.9529 -1.7026
  174SLPC  H11B19645   6.644   4.728   7.048  0.0117 -1.2930 -0.2326
  174SLPC     P19646   6.336   4.894   7.021  0.0344 -0.4230 -0.1570
  174SLPC   O1319647   6.251   4.795   7.086 -0.1444  0.1395 -0.4304
  174SLPC   O1419648   6.303   5.035   7.049  0.2631 -0.2779 -0.5221
  174SLPC   O1219649   6.489   4.861   7.045 -0.0084 -0.2061 -0.7100
  174SLPC   O1119650   6.325   4.881   6.870 -0.0244 -0.6145  0.0804
  174SLPC    C119651   6.427   4.954   6.788 -0.8694  0.0614  0.4737
  174SLPC    HA19652   6.410   5.063   6.774  0.5892  0.1746 -0.7443
  174SLPC    HB19653   6.529   4.949   6.832 -1.1157 -1.7006  0.9191
  174SLPC    C219654   6.448   4.877   6.654 -0.2746 -0.3719  0.5141
  174SLPC    HS19655   6.520   4.935   6.593 -2.4324  2.1317  0.1545
  174SLPC   O2119656   6.332   4.848   6.572 -0.2368 -0.0924  0.4155
  174SLPC   C2119657   6.270   4.956   6.531  0.2907 -0.1226 -0.1471
  174SLPC   O2219658   6.309   5.073   6.545  0.4958 -0.2091 -0.2482
  174SLPC   C2219659   6.144   4.919   6.451  0.7921  0.4423 -0.8698
  174SLPC   H2R19660   6.167   4.843   6.373 -1.2809 -0.9867 -0.1901
  174SLPC   H2S19661   6.070   4.863   6.511  1.0909  2.2905  1.3287
  174SLPC    C319662   6.518   4.742   6.701  0.4921  0.0341 -0.4477
  174SLPC    HX19663   6.436   4.698   6.762  0.1812  0.6696 -0.4012
  174SLPC    HY19664   6.609   4.768   6.759  0.0609 -0.7302  0.6046
  174SLPC   O3119665   6.559   4.664   6.585  0.0853 -0.4381  0.1923
  174SLPC   C3119666   6.471   4.570   6.551 -0.4190 -0.2773 -0.5791
  174SLPC   O3219667   6.380   4.530   6.622  0.0609  0.4164  0.1174
  174SLPC   C3219668   6.500   4.522   6.409 -0.3393  0.4089 -0.4740
  174SLPC   H2X19669   6.484   4.412   6.407  5.6256 -0.7858 -0.1482
  174SLPC   H2Y19670   6.609   4.537   6.395 -0.4297 -0.5068 -2.3589
  174SLPC   C2319671   6.076   5.039   6.381 -0.7752 -0.5002 -0.0977
  174SLPC   H3R19672   6.076   5.133   6.440  0.0317 -0.6258  0.1164
  174SLPC   H3S19673   5.975   5.014   6.344 -0.2579 -1.2992 -1.0092
  174SLPC   C2419674   6.155   5.085   6.248 -0.6408 -0.1040 -0.9152
  174SLPC   H4R19675   6.261   5.107   6.274 -0.7342  0.9989 -1.4165
  174SLPC   H4S19676   6.122   5.187   6.220 -0.2350  0.3789  0.2749
  174SLPC   C2519677   6.135   4.995   6.124 -0.2225  0.0111  0.1778
  174SLPC   H5R19678   6.025   4.977   6.125 -0.6256  2.0458 -1.3974
  174SLPC   H5S19679   6.168   4.892   6.151 -1.2612  0.0208  1.5857
  174SLPC   C2619680   6.184   5.044   5.996  0.4384  0.3217 -0.1115
  174SLPC   H6R19681   6.285   5.090   6.001  1.1879 -1.1736 -0.7774
  174SLPC   H6S19682   6.119   5.127   5.962  0.0418  0.8157  1.7519
  174SLPC   C2719683   6.172   4.937   5.887 -0.0851 -0.0427  0.1874
  174SLPC   H7R19684   6.083   4.874   5.905 -0.0048  0.2395  1.7267
  174SLPC   H7S19685   6.262   4.871   5.886  0.0802  0.0165  2.9404
  174SLPC   C2819686   6.178   4.997   5.744 -0.2558 -0.1453 -0.1588
  174SLPC   H8R19687   6.283   5.032   5.728 -0.0288  0.3840  2.1168
  174SLPC   H8S19688   6.122   5.093   5.750  0.2031  0.0505  3.1206
  174SLPC   C2919689   6.126   4.910   5.631 -0.1818  0.3300  0.0198
  174SLPC   H9R19690   6.068   4.829   5.676 -0.2238  2.2583  3.8584
  174SLPC  C21019691   6.156   4.895   5.499 -0.1950 -0.1305  0.1421
  174SLPC  H10R19692   6.102   4.818   5.443  1.7392 -1.7206  0.3402
  174SLPC  C21119693   6.258   4.976   5.425 -0.9876 -0.8255  1.2076
  174SLPC  H11R19694   6.340   5.000   5.497 -1.4704  2.2139  0.8569
  174SLPC  H11S19695   6.204   5.071   5.407  2.0853  0.9326  0.5870
  174SLPC  C21219696   6.308   4.919   5.291 -0.0454 -0.2077  0.4701
  174SLPC  H12R19697   6.284   4.978   5.201  1.1719  0.2496  0.4298
  174SLPC  C21319698   6.384   4.806   5.273 -0.2715  0.6792  0.0617
  174SLPC  H13R19699   6.423   4.767   5.178  2.3807 -0.1091  1.3833
  174SLPC  C21419700   6.448   4.730   5.384  0.3821 -0.2690  0.4380
  174SLPC  H14R19701   6.480   4.631   5.345  1.3113 -0.4396  1.5663
  174SLPC  H14S19702   6.379   4.730   5.471 -0.7593  0.5782 -0.4424
  174SLPC  C21519703   6.578   4.799   5.415  0.0576 -0.3303  0.2681
  174SLPC  H15R19704   6.551   4.893   5.467  1.5189  0.7881 -0.9213
  174SLPC  H15S19705   6.637   4.821   5.323  0.9976 -0.6963  0.7668
  174SLPC  C21619706   6.666   4.711   5.500  0.2787 -0.2319  0.0492
  174SLPC  H16R19707   6.759   4.762   5.534 -0.5719  0.5081  1.3997
  174SLPC  H16S19708   6.694   4.624   5.438 -0.5593 -1.4575  1.3349
  174SLPC  C21719709   6.588   4.661   5.621 -0.6959  0.5076 -0.3907
  174SLPC  H17R19710   6.507   4.589   5.594  0.5009 -1.2667  0.5045
  174SLPC  H17S19711   6.546   4.752   5.668 -0.7335 -0.9159  2.5642
  174SLPC  C21819712   6.671   4.582   5.715 -0.2359 -0.1448 -0.8369
  174SLPC  H18R19713   6.619   4.578   5.814  0.0205 -0.7904 -0.7243
  174SLPC  H18S19714   6.773   4.623   5.727  0.6473 -1.3101 -3.6647
  174SLPC  H18T19715   6.670   4.475   5.684 -0.5475 -0.2377 -0.5167
  174SLPC   C3319716   6.411   4.601   6.313 -0.8454 -0.1323  0.5727
  174SLPC   H3X19717   6.458   4.699   6.295 -0.3811 -0.6290 -1.0363
  174SLPC   H3Y19718   6.311   4.612   6.360 -0.3698 -1.2071  1.9368
  174SLPC   C3419719   6.391   4.525   6.180 -0.1933 -0.1425 -0.4896
  174SLPC   H4X19720   6.364   4.421   6.209 -3.3650  1.2265  2.0467
  174SLPC   H4Y19721   6.488   4.518   6.126  1.2850 -0.8086  2.0738
  174SLPC   C3519722   6.284   4.580   6.084 -0.3111  0.0343  0.3400
  174SLPC   H5X19723   6.280   4.690   6.098 -1.6146  0.3270 -1.8096
  174SLPC   H5Y19724   6.186   4.540   6.117 -1.4215  0.7869 -1.8339
  174SLPC   C3619725   6.306   4.555   5.936 -0.1059  0.1993  0.4269
  174SLPC   H6X19726   6.404   4.596   5.904  0.0844 -0.3296  0.3170
  174SLPC   H6Y19727   6.223   4.611   5.887  0.3808  1.1890  0.7181
  174SLPC   C3719728   6.304   4.408   5.880 -0.1334 -0.8035  0.3253
  174SLPC   H7X19729   6.221   4.354   5.931  1.7052 -1.4521  2.8394
  174SLPC   H7Y19730   6.391   4.359   5.929  0.4755 -0.2145 -0.1520
  174SLPC   C3819731   6.305   4.382   5.723 -0.2942  0.1445 -0.0469
  174SLPC   H8X19732   6.315   4.272   5.712  0.9966  0.3083 -0.7196
  174SLPC   H8Y19733   6.388   4.435   5.670 -0.2073  3.0912  2.7258
  174SLPC   C3919734   6.177   4.427   5.655  0.0519  0.7655 -0.0240
  174SLPC   H9X19735   6.161   4.537   5.656  0.9383  0.9253 -1.2532
  174SLPC   H9Y19736   6.092   4.368   5.696 -0.6150  1.5198 -0.3006
  174SLPC  C31019737   6.184   4.389   5.504 -0.4228 -0.2090 -0.0447
  174SLPC  H10X19738   6.257   4.457   5.455  1.5053 -1.3443  1.1253
  174SLPC  H10Y19739   6.092   4.412   5.446 -0.0308  3.4345  0.5219
  174SLPC  C31119740   6.226   4.243   5.469 -0.4070 -0.2369  0.1015
  174SLPC  H11X19741   6.162   4.163   5.514 -1.1861  1.1317  1.5310
  174SLPC  H11Y19742   6.334   4.227   5.485 -0.4378  0.3908  0.9840
  174SLPC  C31219743   6.232   4.217   5.311  0.0162 -0.1848 -0.3434
  174SLPC  H12X19744   6.301   4.289   5.262 -0.0157  0.5670  0.6871
  174SLPC  H12Y19745   6.130   4.243   5.274  0.0003 -0.4544 -0.4901
  174SLPC  C31319746   6.269   4.075   5.277  0.2853  0.2427  0.3072
  174SLPC  H13X19747   6.214   4.011   5.349 -0.0978 -1.3730 -1.3385
  174SLPC  H13Y19748   6.375   4.044   5.290  0.2766  0.1006  0.0486
  174SLPC  C31419749   6.236   4.040   5.135 -0.2383  0.5507 -0.1326
  174SLPC  H14X19750   6.322   4.050   5.066 -0.8140  0.4492 -0.8824
  174SLPC  H14Y19751   6.160   4.115   5.102  1.5519  2.1270 -0.8455
  174SLPC  C31519752   6.169   3.902   5.116 -0.5652  2.1691  0.9902
  174SLPC  H15X19753   6.073   3.891   5.170 -0.8493 -0.0972  0.1297
  174SLPC  H15Y19754   6.241   3.828   5.156 -1.4510 -0.6854 -2.2568
  174SLPC  C31619755   6.152   3.853   4.967 -0.0179  0.1132 -0.4486
  174SLPC  H16X19756   6.095   3.759   4.954 -1.8847  1.2071 -0.5622
  174SLPC  H16Y19757   6.254   3.858   4.925  0.3527 -1.1011  0.2606
  174SLPC  C31719758   6.069   3.961   4.882  0.5656  0.2738  0.9064
  174SLPC  H17X19759   6.002   4.022   4.947 -2.6021  0.2868 -2.0648
  174SLPC  H17Y19760   6.005   3.900   4.815  0.2421  1.5255  0.0322
  174SLPC  C31819761   6.154   4.063   4.797  0.2163 -0.8381 -0.6487
  174SLPC  H18X19762   6.224   4.116   4.865  1.9875 -2.9986 -0.7043
  174SLPC  H18Y19763   6.088   4.140   4.749  1.0170 -0.5682 -1.3455
  174SLPC  H18Z19764   6.207   4.013   4.714  0.3133 -0.5989 -0.7330
  175SLPC     N19765   4.460   0.162   7.092  0.2127  0.0497 -0.3383
  175SLPC   C1319766   4.364   0.043   7.113  0.3066 -0.1714  0.4083
  175SLPC  H13A19767   4.294   0.055   7.194 -0.6657 -2.3278 -0.0494
  175SLPC  H13B19768   4.308   0.026   7.022  2.6312  1.7334 -1.5355
  175SLPC  H13C19769   4.408  -0.049   7.148 -0.6767 -1.2445 -1.0691
  175SLPC   C1419770   4.388   0.284   7.081 -0.2351 -0.4092  0.2457
  175SLPC  H14A19771   4.452   0.370   7.092  0.3864 -0.9291  0.7441
  175SLPC  H14B19772   4.340   0.285   6.984 -0.1464 -2.6916  0.1315
  175SLPC  H14C19773   4.309   0.296   7.153 -1.1981 -1.3336 -0.6117
  175SLPC   C1519774   4.543   0.131   6.967  0.6900  0.0472 -0.1344
  175SLPC  H15A19775   4.598   0.221   6.945  2.6922 -0.4748  2.3555
  175SLPC  H15B19776   4.618   0.055   6.983  2.3303  2.0215  2.0316
  175SLPC  H15C19777   4.486   0.097   6.881  1.0211 -0.5671 -0.1172
  175SLPC   C1219778   4.554   0.171   7.213 -0.2780  0.5479  0.6510
  175SLPC  H12A19779   4.635   0.099   7.203  1.0173  2.2257 -2.5449
  175SLPC  H12B19780   4.491   0.147   7.297 -1.2290  1.0830  0.1132
  175SLPC   C1119781   4.641   0.302   7.239  0.5983  0.7317  0.6300
  175SLPC  H11A19782   4.720   0.280   7.315  0.0660  1.2286  1.3448
  175SLPC  H11B19783   4.575   0.376   7.288  1.6799  1.2127  1.4209
  175SLPC     P19784   4.725   0.498   7.104 -0.3954  0.2777 -0.0661
  175SLPC   O1319785   4.593   0.555   7.068  0.8144 -0.3325 -0.2729
  175SLPC   O1419786   4.805   0.563   7.210 -0.3539 -0.2852 -0.3823
  175SLPC   O1219787   4.719   0.342   7.128  0.1815  0.2686 -0.0552
  175SLPC   O1119788   4.808   0.509   6.968 -0.0120 -0.1346 -0.3089
  175SLPC    C119789   4.773   0.434   6.852 -0.4550 -0.2582 -0.2165
  175SLPC    HA19790   4.853   0.358   6.837 -0.2386  0.3018 -2.3389
  175SLPC    HB19791   4.680   0.375   6.867 -0.1889 -0.2534  1.6347
  175SLPC    C219792   4.754   0.527   6.734  0.1425  0.9232  0.1764
  175SLPC    HS19793   4.727   0.462   6.649  0.7304  1.3478 -0.3486
  175SLPC   O2119794   4.878   0.590   6.696 -0.3012  0.4063 -0.1489
  175SLPC   C2119795   4.958   0.514   6.628 -0.5527  1.0502  0.0208
  175SLPC   O2219796   4.946   0.397   6.584 -0.2923 -0.1445  0.0885
  175SLPC   C2219797   5.086   0.596   6.594  0.8332 -0.5568 -0.4404
  175SLPC   H2R19798   5.146   0.593   6.687 -0.3025  0.2719  0.3463
  175SLPC   H2S19799   5.139   0.547   6.509  0.4574 -2.2732  0.2699
  175SLPC    C319800   4.652   0.638   6.749 -0.6254  0.4086 -0.0704
  175SLPC    HX19801   4.697   0.692   6.835 -0.1022  1.0291 -0.7148
  175SLPC    HY19802   4.560   0.586   6.784 -0.3488 -2.0793 -2.6298
  175SLPC   O3119803   4.620   0.706   6.629 -0.2763 -0.0103  0.7727
  175SLPC   C3119804   4.638   0.833   6.608 -0.0019  0.4512 -0.3943
  175SLPC   O3219805   4.667   0.906   6.701 -0.1891 -0.4496  0.5890
  175SLPC   C3219806   4.606   0.885   6.465  0.1975 -0.3392  0.1159
  175SLPC   H2X19807   4.547   0.808   6.412 -0.2218  0.0434  0.0305
  175SLPC   H2Y19808   4.707   0.889   6.418 -0.8362  0.9862 -2.1224
  175SLPC   C2319809   5.065   0.747   6.568 -0.8555 -0.0794 -0.0333
  175SLPC   H3R19810   5.166   0.793   6.571 -1.2239  0.9054 -1.4414
  175SLPC   H3S19811   5.005   0.801   6.645 -0.2500 -1.3223  1.3594
  175SLPC   C2419812   4.991   0.785   6.437  0.2048  0.0945 -0.9368
  175SLPC   H4R19813   4.993   0.896   6.442 -1.3340  0.1017  0.7656
  175SLPC   H4S19814   4.889   0.746   6.458  0.3559 -0.7204 -1.6522
  175SLPC   C2519815   5.060   0.741   6.310 -0.2458 -0.7376 -0.2553
  175SLPC   H5R19816   5.084   0.633   6.317  0.9138 -0.5030 -0.3735
  175SLPC   H5S19817   5.154   0.796   6.290 -0.5966 -0.5087 -1.3409
  175SLPC   C2619818   4.972   0.774   6.183  0.1624  0.0266 -0.8193
  175SLPC   H6R19819   5.030   0.760   6.090  0.9432 -0.3401 -0.2917
  175SLPC   H6S19820   4.955   0.884   6.188  1.2433  0.1808  0.3108
  175SLPC   C2719821   4.839   0.697   6.170  0.5723  0.3354  0.3556
  175SLPC   H7R19822   4.778   0.731   6.257  1.0132  1.8246  0.1112
  175SLPC   H7S19823   4.862   0.588   6.170 -1.8767 -0.2709  1.4584
  175SLPC   C2819824   4.776   0.697   6.028 -0.6593 -0.2785 -0.0319
  175SLPC   H8R19825   4.688   0.629   6.034 -2.4468  1.7556 -1.6782
  175SLPC   H8S19826   4.853   0.652   5.962 -0.8161  1.9727 -1.8888
  175SLPC   C2919827   4.725   0.839   6.016 -0.4623  0.5095 -0.7541
  175SLPC   H9R19828   4.699   0.887   6.111 -0.8278  0.2591 -0.7258
  175SLPC  C21019829   4.715   0.917   5.905 -0.1063  0.2041 -0.3643
  175SLPC  H10R19830   4.684   1.021   5.921  1.9916  0.5647  1.9994
  175SLPC  C21119831   4.750   0.873   5.764 -0.0650 -0.0186  0.4939
  175SLPC  H11R19832   4.683   0.930   5.696 -0.5621 -2.4790 -1.2078
  175SLPC  H11S19833   4.736   0.765   5.745  2.6926 -0.0827 -1.7756
  175SLPC  C21219834   4.894   0.912   5.741  0.1897 -0.1334  0.6157
  175SLPC  H12R19835   4.938   0.997   5.794 -2.8654  3.4246 -1.9791
  175SLPC  C21319836   4.977   0.861   5.654 -0.4127  0.3304  0.2570
  175SLPC  H13R19837   5.084   0.885   5.669 -0.3926 -1.0283  3.0673
  175SLPC  C21419838   4.945   0.752   5.547 -0.2607  0.3390 -1.0047
  175SLPC  H14R19839   4.911   0.656   5.592 -0.5426 -0.2679 -2.4632
  175SLPC  H14S19840   5.035   0.736   5.483  0.2351 -1.3966  0.0545
  175SLPC  C21519841   4.828   0.799   5.460  0.4588  0.3454  0.2347
  175SLPC  H15R19842   4.828   0.905   5.427 -2.1823 -0.1184 -1.6444
  175SLPC  H15S19843   4.735   0.782   5.519 -0.1713 -1.5295 -1.2268
  175SLPC  C21619844   4.819   0.713   5.328  0.1082 -0.3641  0.1271
  175SLPC  H16R19845   4.760   0.623   5.357 -0.5251 -0.1645 -0.5037
  175SLPC  H16S19846   4.922   0.679   5.306 -0.2687 -1.0699 -0.5965
  175SLPC  C21719847   4.750   0.775   5.209  0.1697  0.0218 -0.1169
  175SLPC  H17R19848   4.652   0.816   5.245  0.5235  0.3160  0.5235
  175SLPC  H17S19849   4.721   0.703   5.129  0.8674 -1.2083  0.7262
  175SLPC  C21819850   4.837   0.889   5.149  0.5339  0.2734  0.2822
  175SLPC  H18R19851   4.921   0.849   5.088  1.2090  2.1387 -0.0891
  175SLPC  H18S19852   4.874   0.939   5.241 -0.2433  0.9790  0.2250
  175SLPC  H18T19853   4.773   0.965   5.099 -0.0121 -1.0613 -1.0953
  175SLPC   C3319854   4.536   1.025   6.488 -0.6576  0.9214 -0.3204
  175SLPC   H3X19855   4.597   1.081   6.562 -1.9883  2.4312 -0.3037
  175SLPC   H3Y19856   4.443   1.000   6.543  1.2598  0.5785  3.0230
  175SLPC   C3419857   4.494   1.107   6.363 -0.7042  0.6852 -0.4917
  175SLPC   H4X19858   4.399   1.058   6.331 -1.1644  1.5361 -0.4615
  175SLPC   H4Y19859   4.555   1.087   6.273  1.2096  2.9766  0.1885
  175SLPC   C3519860   4.467   1.259   6.378 -0.4357 -0.1060 -0.1338
  175SLPC   H5X19861   4.564   1.313   6.382  0.5410 -1.4874 -2.5213
  175SLPC   H5Y19862   4.407   1.281   6.468 -0.4191  0.1342 -0.1824
  175SLPC   C3619863   4.395   1.316   6.257 -0.8206 -0.2449 -0.4121
  175SLPC   H6X19864   4.364   1.420   6.283  1.1884  0.2602  0.1038
  175SLPC   H6Y19865   4.314   1.240   6.250  0.6888 -1.7985 -2.1412
  175SLPC   C3719866   4.464   1.315   6.124 -1.0098  0.2890  0.1581
  175SLPC   H7X19867   4.509   1.214   6.111 -2.8669 -0.4678 -0.7903
  175SLPC   H7Y19868   4.543   1.393   6.131 -1.3064  0.4459  2.5649
  175SLPC   C3819869   4.375   1.355   6.009  0.1582 -0.5887 -0.4219
  175SLPC   H8X19870   4.328   1.453   6.032  2.4881  0.2546  1.0533
  175SLPC   H8Y19871   4.294   1.279   6.006  0.7760 -1.2356 -0.9288
  175SLPC   C3919872   4.445   1.355   5.877  0.3257 -0.5708 -0.5160
  175SLPC   H9X19873   4.521   1.436   5.877  0.0615 -0.3186 -0.9881
  175SLPC   H9Y19874   4.375   1.383   5.795  0.5506 -2.9892 -1.5966
  175SLPC  C31019875   4.495   1.218   5.836 -0.3148  0.8138  0.4085
  175SLPC  H10X19876   4.416   1.145   5.864  0.7450 -0.9872 -1.0720
  175SLPC  H10Y19877   4.579   1.185   5.901 -0.4329  1.1479  0.7318
  175SLPC  C31119878   4.543   1.210   5.689  0.2467 -0.1214 -0.1162
  175SLPC  H11X19879   4.484   1.276   5.622  3.1139  1.4267 -1.2950
  175SLPC  H11Y19880   4.545   1.106   5.651  3.7634  0.3856 -1.6927
  175SLPC  C31219881   4.694   1.257   5.667  0.0637 -0.8213 -0.5409
  175SLPC  H12X19882   4.766   1.197   5.727  0.0227 -0.9691 -0.6388
  175SLPC  H12Y19883   4.697   1.361   5.705 -0.5147 -0.7896 -0.5763
  175SLPC  C31319884   4.747   1.247   5.521 -0.2300 -0.3477 -0.0032
  175SLPC  H13X19885   4.716   1.147   5.485 -1.6113  0.6310 -1.6522
  175SLPC  H13Y19886   4.856   1.268   5.522 -0.4654  1.0340 -1.1746
  175SLPC  C31419887   4.667   1.343   5.438 -0.2699  0.2978  0.3609
  175SLPC  H14X19888   4.685   1.447   5.474  0.5931  0.3900 -0.3184
  175SLPC  H14Y19889   4.558   1.325   5.450 -0.2943 -0.3233 -0.6391
  175SLPC  C31519890   4.708   1.336   5.287 -0.3296 -0.6302  0.5713
  175SLPC  H15X19891   4.754   1.236   5.270  1.1055  0.2194 -0.8138
  175SLPC  H15Y19892   4.785   1.413   5.266 -2.3819  0.9645 -1.6743
  175SLPC  C31619893   4.599   1.356   5.186  0.0931  0.0232 -0.0886
  175SLPC  H16X19894   4.545   1.452   5.196  1.0522  0.5638 -0.0565
  175SLPC  H16Y19895   4.515   1.283   5.192  0.2529 -0.3713 -1.9097
  175SLPC  C31719896   4.646   1.352   5.036  0.0511  0.5957  0.1129
  175SLPC  H17X19897   4.687   1.449   5.000 -2.1907  1.2991 -0.7538
  175SLPC  H17Y19898   4.548   1.336   4.986  0.0776 -1.5306  0.6312
  175SLPC  C31819899   4.726   1.226   5.000  0.3380  0.0143  0.0432
  175SLPC  H18X19900   4.806   1.228   5.077  0.8688  1.3542 -0.5122
  175SLPC  H18Y19901   4.783   1.222   4.905  1.8826  0.9269  0.8850
  175SLPC  H18Z19902   4.668   1.131   4.998  0.4272 -0.0228 -1.4255
  176SLPC     N19903   0.846   3.401   7.193 -0.5745  0.6082 -0.6316
  176SLPC   C1319904   0.795   3.528   7.268 -0.6416  0.2008  0.3180
  176SLPC  H13A19905   0.876   3.557   7.334 -0.2840 -0.6036  0.2489
  176SLPC  H13B19906   0.777   3.609   7.199 -1.7583  0.4638  0.9033
  176SLPC  H13C19907   0.704   3.507   7.321 -2.8578  1.8658 -2.5603
  176SLPC   C1419908   0.748   3.346   7.101 -0.6033  0.0327  0.2918
  176SLPC  H14A19909   0.723   3.424   7.030  1.9150  1.7654  1.1738
  176SLPC  H14B19910   0.781   3.260   7.046  0.0044  0.6168 -0.2835
  176SLPC  H14C19911   0.667   3.297   7.153 -0.0834 -1.4703 -0.2574
  176SLPC   C1519912   0.874   3.295   7.295  0.0251 -0.4749  0.6907
  176SLPC  H15A19913   0.929   3.216   7.246 -0.6837  0.1435 -1.1659
  176SLPC  H15B19914   0.932   3.327   7.380  1.4089  0.6569 -0.6314
  176SLPC  H15C19915   0.777   3.250   7.311 -1.0786  0.5445 -2.3979
  176SLPC   C1219916   0.984   3.427   7.135 -0.6149  0.2967 -0.0232
  176SLPC  H12A19917   1.013   3.338   7.080  1.2363  0.2748  0.9037
  176SLPC  H12B19918   1.050   3.436   7.220 -2.4824 -1.0376  1.6867
  176SLPC   C1119919   0.995   3.549   7.034  0.2909  0.1254  0.6046
  176SLPC  H11A19920   1.102   3.577   7.018  1.4883 -1.2361  4.8099
  176SLPC  H11B19921   0.952   3.639   7.083  1.4061  0.7515  0.4699
  176SLPC     P19922   0.912   3.604   6.798 -0.5225 -0.3177 -0.1165
  176SLPC   O1319923   0.795   3.693   6.802 -0.1947  0.0814  0.4275
  176SLPC   O1419924   1.042   3.666   6.774 -0.3248  0.4391  0.1469
  176SLPC   O1219925   0.923   3.509   6.916 -0.3931  0.1578 -0.3100
  176SLPC   O1119926   0.887   3.501   6.680  0.0083  0.3260  0.2526
  176SLPC    C119927   0.951   3.372   6.692  0.1445  0.0603  0.6875
  176SLPC    HA19928   1.061   3.387   6.695  0.2044  0.2189 -1.1384
  176SLPC    HB19929   0.919   3.329   6.789  0.4585 -1.5726  0.0920
  176SLPC    C219930   0.925   3.270   6.577 -0.1898  0.6809 -0.7789
  176SLPC    HS19931   1.006   3.193   6.576 -0.8550 -0.1882  2.5471
  176SLPC   O2119932   0.909   3.335   6.447  0.2811  0.5371 -0.4991
  176SLPC   C2119933   1.007   3.328   6.367 -0.8947 -1.0272  0.3518
  176SLPC   O2219934   1.111   3.262   6.387 -0.2038 -0.3740 -0.1584
  176SLPC   C2219935   0.991   3.418   6.246 -0.0709 -0.2315  0.0431
  176SLPC   H2R19936   0.903   3.384   6.187 -2.0088 -1.0174  3.1602
  176SLPC   H2S19937   0.976   3.518   6.292  0.5999 -0.7595  1.4697
  176SLPC    C319938   0.796   3.184   6.606 -0.0789  0.3357  0.7062
  176SLPC    HX19939   0.714   3.258   6.602  1.2876  1.8749  0.0795
  176SLPC    HY19940   0.813   3.132   6.703 -0.5043  1.4389  1.3897
  176SLPC   O3119941   0.776   3.081   6.499  0.0452  0.3994 -0.1218
  176SLPC   C3119942   0.652   3.031   6.494  0.9285  0.4300 -0.1580
  176SLPC   O3219943   0.558   3.054   6.568  0.8584 -0.0387 -0.1470
  176SLPC   C3219944   0.645   2.940   6.366  0.1575  0.3644  0.6606
  176SLPC   H2X19945   0.542   2.899   6.352  0.6509 -1.3696  1.7608
  176SLPC   H2Y19946   0.712   2.855   6.391  0.7296  0.7743  0.5225
  176SLPC   C2319947   1.118   3.425   6.160 -0.1113  0.0792 -0.2754
  176SLPC   H3R19948   1.125   3.327   6.109 -0.0931  0.3538 -0.8195
  176SLPC   H3S19949   1.213   3.434   6.216 -0.8611 -1.3332  1.3036
  176SLPC   C2419950   1.125   3.544   6.059  0.3320 -0.0806  0.1169
  176SLPC   H4R19951   1.156   3.642   6.102  3.5530 -1.5780  1.5954
  176SLPC   H4S19952   1.026   3.554   6.011 -0.6981  0.5141  2.2558
  176SLPC   C2519953   1.216   3.508   5.936  0.6522  0.3842 -0.1149
  176SLPC   H5R19954   1.176   3.411   5.899  0.3165  1.1758 -1.8996
  176SLPC   H5S19955   1.325   3.499   5.955  0.9467 -0.1500 -1.8936
  176SLPC   C2619956   1.206   3.621   5.829 -0.4998  0.0395 -0.2465
  176SLPC   H6R19957   1.249   3.721   5.853 -0.6525  0.3027 -1.0499
  176SLPC   H6S19958   1.096   3.630   5.817 -1.0811 -2.9727  1.6409
  176SLPC   C2719959   1.275   3.576   5.701 -0.2104 -0.3105 -0.3485
  176SLPC   H7R19960   1.247   3.473   5.672  2.7944 -1.3834  0.3144
  176SLPC   H7S19961   1.385   3.575   5.711 -0.4232 -0.0094  2.9940
  176SLPC   C2819962   1.235   3.664   5.580  0.4852 -0.5758  0.2262
  176SLPC   H8R19963   1.261   3.769   5.606 -1.7479 -0.0360  0.5067
  176SLPC   H8S19964   1.125   3.663   5.560  0.5759  1.9951 -0.7815
  176SLPC   C2919965   1.306   3.624   5.453  0.1026 -0.7407  0.2300
  176SLPC   H9R19966   1.408   3.664   5.460 -0.8722  2.4419 -1.8353
  176SLPC  C21019967   1.258   3.568   5.336  0.3655  0.1566 -0.3965
  176SLPC  H10R19968   1.333   3.543   5.260  0.5543 -0.2975 -0.0668
  176SLPC  C21119969   1.115   3.520   5.322 -0.1574 -0.6738  0.0192
  176SLPC  H11R19970   1.058   3.565   5.238  0.6797 -1.6478 -1.1060
  176SLPC  H11S19971   1.062   3.544   5.416 -0.1427  1.7163 -0.5231
  176SLPC  C21219972   1.097   3.375   5.290 -1.0571  0.0097 -0.3857
  176SLPC  H12R19973   1.176   3.337   5.223 -0.0973  1.2520 -0.0065
  176SLPC  C21319974   1.002   3.302   5.343  0.5873  0.3897  0.4581
  176SLPC  H13R19975   0.988   3.195   5.321 -0.3623  0.8519 -1.4349
  176SLPC  C21419976   0.895   3.357   5.431 -0.1873 -0.4140 -0.1263
  176SLPC  H14R19977   0.795   3.321   5.398 -0.6738  2.1998 -1.7540
  176SLPC  H14S19978   0.876   3.466   5.426 -3.2894 -0.8593 -0.3522
  176SLPC  C21519979   0.923   3.313   5.569  0.1975  0.2140 -0.0689
  176SLPC  H15R19980   1.017   3.363   5.601 -0.9223  3.3907 -1.3511
  176SLPC  H15S19981   0.928   3.203   5.583 -0.1912  0.3497  1.4229
  176SLPC  C21619982   0.825   3.371   5.677 -0.1015  0.3539  0.2353
  176SLPC  H16R19983   0.736   3.304   5.672 -1.2422  1.8907 -1.6873
  176SLPC  H16S19984   0.797   3.475   5.650 -0.1658  0.0143 -1.0829
  176SLPC  C21719985   0.894   3.382   5.817 -0.5032 -0.1571 -0.4670
  176SLPC  H17R19986   0.825   3.421   5.895 -0.1732 -0.5621  0.0358
  176SLPC  H17S19987   0.976   3.457   5.805 -0.0487 -0.5123  0.3102
  176SLPC  C21819988   0.935   3.247   5.869  0.3748 -0.4144  0.3921
  176SLPC  H18R19989   0.868   3.161   5.850  1.1557 -0.8716 -0.3652
  176SLPC  H18S19990   0.937   3.259   5.979 -0.9893 -0.9394  0.4854
  176SLPC  H18T19991   1.040   3.233   5.835  0.9982  0.4412  1.8734
  176SLPC   C3319992   0.706   2.992   6.236 -0.7469  0.2067 -0.3093
  176SLPC   H3X19993   0.724   2.908   6.167 -2.8802 -0.4107 -0.1902
  176SLPC   H3Y19994   0.802   3.044   6.256  0.2609 -1.6000 -0.3061
  176SLPC   C3419995   0.618   3.094   6.166 -0.4177  0.3766  0.1079
  176SLPC   H4X19996   0.516   3.052   6.153 -0.5969  0.7625  0.2428
  176SLPC   H4Y19997   0.662   3.113   6.066 -1.4103 -1.0093 -0.6292
  176SLPC   C3519998   0.585   3.228   6.235  0.0787 -0.0744  0.1138
  176SLPC   H5X19999   0.668   3.267   6.297 -1.2858  0.3692  1.7006
  176SLPC   H5Y20000   0.501   3.202   6.303  0.3684 -0.4254  0.3454
  176SLPC   C3620001   0.540   3.324   6.127 -0.1329 -0.6321  0.5476
  176SLPC   H6X20002   0.453   3.286   6.070  1.0289 -0.6332 -1.3138
  176SLPC   H6Y20003   0.615   3.328   6.045 -1.3955 -0.1723 -0.6330
  176SLPC   C3720004   0.497   3.462   6.177  0.5714  0.6500  0.6082
  176SLPC   H7X20005   0.579   3.499   6.243  0.7964 -0.4543  0.9762
  176SLPC   H7Y20006   0.407   3.450   6.241 -1.0219 -0.7429 -1.7606
  176SLPC   C3820007   0.464   3.569   6.078  0.3152  0.2090  0.5801
  176SLPC   H8X20008   0.404   3.647   6.129 -0.5232 -0.6334  0.9024
  176SLPC   H8Y20009   0.398   3.519   6.004  0.6255  0.9887 -0.2471
  176SLPC   C3920010   0.594   3.623   6.021  0.4950 -0.3211 -0.0587
  176SLPC   H9X20011   0.663   3.540   5.993  0.9789 -0.3069  1.0324
  176SLPC   H9Y20012   0.644   3.688   6.097 -0.9768 -0.9916  1.5355
  176SLPC  C31020013   0.570   3.690   5.885  0.2378  0.3849  0.5145
  176SLPC  H10X20014   0.509   3.780   5.909 -2.3318 -1.3126  0.6920
  176SLPC  H10Y20015   0.506   3.617   5.832  1.4702 -0.6891  0.4566
  176SLPC  C31120016   0.686   3.739   5.804 -0.2882  0.1577 -0.5219
  176SLPC  H11X20017   0.750   3.653   5.777  0.4787 -0.4390  2.7615
  176SLPC  H11Y20018   0.752   3.807   5.863 -1.4362  0.1138  0.8683
  176SLPC  C31220019   0.646   3.807   5.669 -0.2279  0.5107  0.1875
  176SLPC  H12X20020   0.603   3.908   5.685 -1.3673  0.4102 -1.8491
  176SLPC  H12Y20021   0.574   3.740   5.616 -0.7413  1.1106  0.1108
  176SLPC  C31320022   0.762   3.834   5.568 -0.4951 -0.4329  0.3352
  176SLPC  H13X20023   0.834   3.752   5.587 -0.1826 -0.4429 -0.8310
  176SLPC  H13Y20024   0.812   3.932   5.584  0.2546 -0.9646  1.3565
  176SLPC  C31420025   0.713   3.821   5.426  0.3245  0.0358  0.2135
  176SLPC  H14X20026   0.613   3.865   5.413 -0.8674 -2.8162 -1.2195
  176SLPC  H14Y20027   0.686   3.715   5.408  1.8908 -0.2086 -0.9322
  176SLPC  C31520028   0.821   3.864   5.324  0.5021  0.5459 -1.1265
  176SLPC  H15X20029   0.903   3.792   5.345 -0.2542 -0.1384 -0.4522
  176SLPC  H15Y20030   0.853   3.968   5.347  0.2940  0.4361 -0.3151
  176SLPC  C31620031   0.777   3.863   5.179  0.6791  0.0168 -0.2819
  176SLPC  H16X20032   0.677   3.912   5.179  1.9098  2.7695  1.2150
  176SLPC  H16Y20033   0.766   3.760   5.141 -1.6041 -0.4715  1.4994
  176SLPC  C31720034   0.866   3.952   5.090 -0.2600 -0.0649  0.2227
  176SLPC  H17X20035   0.893   4.026   5.169 -0.6789  0.7280 -0.3554
  176SLPC  H17Y20036   0.795   3.978   5.009 -0.2796 -1.1529 -0.1219
  176SLPC  C31820037   0.986   3.879   5.030 -0.0522  0.2178 -0.3745
  176SLPC  H18X20038   1.042   3.839   5.118 -1.3225  2.1144  1.3918
  176SLPC  H18Y20039   1.057   3.943   4.973 -0.6904  0.3519 -1.0296
  176SLPC  H18Z20040   0.951   3.794   4.967 -2.5187 -1.4795  2.9456
  177SLPC     N20041   3.247   0.855   7.094 -0.0341  0.8833  0.6168
  177SLPC   C1320042   3.387   0.897   7.095  0.0551  0.4610  0.7628
  177SLPC  H13A20043   3.453   0.827   7.143 -0.8275 -1.1572 -0.3143
  177SLPC  H13B20044   3.417   0.912   6.992 -0.7449  1.2220  0.6190
  177SLPC  H13C20045   3.393   0.995   7.140 -0.5272  0.5963  0.5562
  177SLPC   C1420046   3.152   0.938   6.998  0.2235  0.3643  0.0700
  177SLPC  H14A20047   3.056   0.889   6.996 -0.3673  1.4792  0.1783
  177SLPC  H14B20048   3.124   1.030   7.046  0.3720  0.3802  0.1267
  177SLPC  H14C20049   3.190   0.949   6.898 -0.6814 -0.0025 -0.3256
  177SLPC   C1520050   3.198   0.860   7.230  0.1559 -0.6397 -0.2747
  177SLPC  H15A20051   3.167   0.948   7.283 -0.9612 -1.3763  0.3548
  177SLPC  H15B20052   3.123   0.783   7.240  0.5267 -1.2145 -1.6457
  177SLPC  H15C20053   3.280   0.810   7.279  1.4716  1.6230 -0.0686
  177SLPC   C1220054   3.254   0.708   7.044  0.0446 -0.8259 -0.7710
  177SLPC  H12A20055   3.310   0.640   7.106 -2.4568 -2.0400  0.2983
  177SLPC  H12B20056   3.304   0.687   6.950 -0.3491 -0.9713 -0.9504
  177SLPC   C1120057   3.117   0.641   7.021  0.1248 -0.3520  0.2502
  177SLPC  H11A20058   3.054   0.697   6.948 -0.0756  0.6003  1.1284
  177SLPC  H11B20059   3.054   0.632   7.112  0.2367 -0.9033  0.2735
  177SLPC     P20060   3.190   0.451   6.850 -0.2276  0.3847  0.1817
  177SLPC   O1320061   3.319   0.522   6.822 -0.4018  0.0091 -0.1863
  177SLPC   O1420062   3.202   0.305   6.853  0.2629  0.4266 -0.4765
  177SLPC   O1220063   3.131   0.509   6.981  0.3273  0.2644 -0.0934
  177SLPC   O1120064   3.075   0.493   6.759 -0.1144  0.6169 -0.2401
  177SLPC    C120065   2.941   0.457   6.796 -1.0152 -0.0025  0.1326
  177SLPC    HA20066   2.926   0.382   6.876 -0.9603  0.2406  0.3753
  177SLPC    HB20067   2.901   0.556   6.825 -0.1426  0.8600 -1.4764
  177SLPC    C220068   2.848   0.428   6.672 -0.1076 -0.0012  0.2779
  177SLPC    HS20069   2.739   0.439   6.694 -0.7248  0.7377 -2.8078
  177SLPC   O2120070   2.882   0.297   6.624  0.2979 -0.1167 -0.3107
  177SLPC   C2120071   2.843   0.194   6.690 -0.3764 -0.1068 -0.3694
  177SLPC   O2220072   2.768   0.200   6.786 -1.0539  0.1012 -0.7014
  177SLPC   C2220073   2.905   0.066   6.627 -0.5003 -0.0105 -0.2197
  177SLPC   H2R20074   3.006   0.097   6.593  0.6328 -0.8196  2.2054
  177SLPC   H2S20075   2.910  -0.013   6.705 -1.0373  1.6789  1.6194
  177SLPC    C320076   2.876   0.539   6.563 -0.0766 -0.7910  0.6908
  177SLPC    HX20077   2.985   0.555   6.549  0.3061 -1.5064  2.4903
  177SLPC    HY20078   2.838   0.629   6.616  1.3760 -0.0041  0.4573
  177SLPC   O3120079   2.797   0.525   6.441  0.5258 -0.0318 -0.6276
  177SLPC   C3120080   2.872   0.498   6.333  0.3893 -0.6916  0.2363
  177SLPC   O3220081   2.986   0.465   6.328 -0.1220 -0.2798  0.5099
  177SLPC   C3220082   2.781   0.516   6.211  0.4594  0.7361  0.7421
  177SLPC   H2X20083   2.743   0.621   6.216 -0.2870  0.4661  0.7740
  177SLPC   H2Y20084   2.703   0.438   6.197 -0.4675  1.9870 -1.6711
  177SLPC   C2320085   2.833   0.014   6.500 -0.7670  0.6356  0.0319
  177SLPC   H3R20086   2.725   0.025   6.524 -0.9363  0.7686 -0.7684
  177SLPC   H3S20087   2.853  -0.094   6.480  0.9190  1.2232 -1.6810
  177SLPC   C2420088   2.857   0.092   6.369 -0.0804 -0.3284 -0.7953
  177SLPC   H4R20089   2.949   0.060   6.316 -0.9783 -2.0292 -1.4090
  177SLPC   H4S20090   2.856   0.200   6.397  0.7291 -0.4868 -0.1034
  177SLPC   C2520091   2.734   0.085   6.278  0.2759  0.3544 -0.2773
  177SLPC   H5R20092   2.659   0.141   6.337  0.0586  0.7788 -0.9488
  177SLPC   H5S20093   2.682  -0.012   6.265 -0.9525  0.8332  0.8139
  177SLPC   C2620094   2.759   0.154   6.143  0.0229  0.3361 -0.7168
  177SLPC   H6R20095   2.838   0.231   6.152 -1.5500  1.9405  0.0310
  177SLPC   H6S20096   2.664   0.205   6.117 -0.9322 -1.8693 -1.7846
  177SLPC   C2720097   2.784   0.049   6.032  0.2841 -0.2135  0.6234
  177SLPC   H7R20098   2.706  -0.029   6.046  1.4068 -1.2705  1.1257
  177SLPC   H7S20099   2.876  -0.011   6.050  0.4060 -0.2632 -0.1399
  177SLPC   C2820100   2.770   0.103   5.890 -0.3817  0.1137 -0.0300
  177SLPC   H8R20101   2.848   0.182   5.884  2.7740 -2.7944 -0.6971
  177SLPC   H8S20102   2.666   0.142   5.887 -1.3795 -2.2645  0.9151
  177SLPC   C2920103   2.796  -0.001   5.786  0.0395 -0.4667 -0.8093
  177SLPC   H9R20104   2.861  -0.078   5.831  0.3648  0.4377  0.2991
  177SLPC  C21020105   2.743   0.011   5.667  0.1715  0.0714 -0.0398
  177SLPC  H10R20106   2.761  -0.069   5.594 -1.2218 -0.9011  0.6453
  177SLPC  C21120107   2.655   0.129   5.610 -0.2299  0.3929  0.1802
  177SLPC  H11R20108   2.720   0.201   5.555 -0.7801  2.1462  1.7470
  177SLPC  H11S20109   2.625   0.194   5.695 -2.3839 -0.9172  0.4795
  177SLPC  C21220110   2.529   0.085   5.540  0.2116 -0.0176  0.2631
  177SLPC  H12R20111   2.453   0.051   5.612 -1.2894  1.5068 -0.5274
  177SLPC  C21320112   2.499   0.086   5.410 -0.2032 -1.1828 -0.4660
  177SLPC  H13R20113   2.398   0.054   5.381 -0.5911 -2.6547  2.2102
  177SLPC  C21420114   2.593   0.140   5.302 -0.2188 -0.3849 -0.2543
  177SLPC  H14R20115   2.698   0.151   5.339 -1.1171 -0.8084  2.7081
  177SLPC  H14S20116   2.572   0.246   5.275 -0.1805  0.2753  2.0870
  177SLPC  C21520117   2.587   0.063   5.174  0.2259 -0.2918  0.1311
  177SLPC  H15R20118   2.565  -0.045   5.186  3.5958 -1.0832  0.1060
  177SLPC  H15S20119   2.681   0.068   5.115 -0.5465  0.1630 -1.0815
  177SLPC  C21620120   2.485   0.118   5.073  0.1037 -0.2682 -0.0027
  177SLPC  H16R20121   2.517   0.222   5.049 -0.3004  0.0011  0.6204
  177SLPC  H16S20122   2.388   0.116   5.127  1.5204 -0.0579  2.6700
  177SLPC  C21720123   2.468   0.040   4.941 -0.3078 -0.2728  0.2952
  177SLPC  H17R20124   2.467  -0.062   4.985  1.1046  0.2873  1.7268
  177SLPC  H17S20125   2.554   0.060   4.874 -2.0225 -0.6654 -2.1469
  177SLPC  C21820126   2.334   0.069   4.877  0.1689  0.1690  0.3953
  177SLPC  H18R20127   2.335   0.179   4.860  0.1802 -0.1041 -1.6189
  177SLPC  H18S20128   2.240   0.045   4.931  0.1560 -0.8636 -0.0770
  177SLPC  H18T20129   2.331   0.024   4.775 -0.8890 -0.6747  0.7884
  177SLPC   C3320130   2.877   0.499   6.087  0.3534  1.1038 -0.3802
  177SLPC   H3X20131   2.937   0.406   6.095  3.0165  2.6604 -1.0791
  177SLPC   H3Y20132   2.957   0.574   6.072  1.1927  0.4669  0.7841
  177SLPC   C3420133   2.796   0.481   5.963 -0.2643 -0.2499 -0.1609
  177SLPC   H4X20134   2.721   0.561   5.952 -0.6103 -0.0152  2.9554
  177SLPC   H4Y20135   2.742   0.384   5.974  0.1857 -0.4256  0.6006
  177SLPC   C3520136   2.880   0.476   5.834  0.1500 -0.0072  0.1823
  177SLPC   H5X20137   2.953   0.392   5.843  1.0845  0.4273 -2.5122
  177SLPC   H5Y20138   2.943   0.567   5.828 -2.1811  1.7150  0.3674
  177SLPC   C3620139   2.810   0.471   5.698  0.3703  0.4813 -0.2050
  177SLPC   H6X20140   2.769   0.571   5.674 -0.5352  0.3065  0.5567
  177SLPC   H6Y20141   2.731   0.395   5.715  0.3838  0.7643  1.2210
  177SLPC   C3720142   2.897   0.424   5.583 -0.1015 -0.1571 -0.5010
  177SLPC   H7X20143   2.848   0.361   5.505 -1.1012  1.5962 -1.3534
  177SLPC   H7Y20144   2.984   0.373   5.630  0.2811  0.7295 -0.2247
  177SLPC   C3820145   2.952   0.543   5.501  0.0480  0.3568  0.0904
  177SLPC   H8X20146   3.014   0.611   5.563 -0.2169  1.5268 -0.9094
  177SLPC   H8Y20147   2.865   0.599   5.464 -0.0320 -0.7795 -1.5560
  177SLPC   C3920148   3.032   0.494   5.381  0.4591 -0.7795  0.0621
  177SLPC   H9X20149   2.963   0.419   5.336 -2.8682  1.5926  0.8591
  177SLPC   H9Y20150   3.127   0.452   5.419  0.6081  2.5261  4.0969
  177SLPC  C31020151   3.064   0.601   5.280 -0.2119 -0.1280 -0.4525
  177SLPC  H10X20152   3.122   0.683   5.327 -3.6241  1.3468  1.5788
  177SLPC  H10Y20153   2.967   0.653   5.264  0.0765  0.0771 -1.5554
  177SLPC  C31120154   3.124   0.540   5.151 -0.1128  0.7824 -0.5187
  177SLPC  H11X20155   3.079   0.591   5.063 -0.5360  0.8060 -0.2918
  177SLPC  H11Y20156   3.081   0.438   5.148  0.1317  0.5975  1.3281
  177SLPC  C31220157   3.277   0.539   5.152 -0.1443  0.9343 -0.1767
  177SLPC  H12X20158   3.310   0.476   5.237  2.5563 -0.1204 -1.8934
  177SLPC  H12Y20159   3.316   0.642   5.162 -0.0643  0.9422 -0.5611
  177SLPC  C31320160   3.330   0.478   5.021 -0.2471 -0.6308 -0.3916
  177SLPC  H13X20161   3.438   0.500   5.008  0.0249 -0.9356  1.2011
  177SLPC  H13Y20162   3.278   0.530   4.938  1.4179 -0.1196 -1.1655
  177SLPC  C31420163   3.315   0.327   5.002  0.4240  0.3457  0.6924
  177SLPC  H14X20164   3.208   0.299   5.015  0.3391 -0.9028 -2.0042
  177SLPC  H14Y20165   3.379   0.279   5.080  0.8843 -0.2639 -0.0423
  177SLPC  C31520166   3.373   0.293   4.864  0.1741 -0.1894 -0.3460
  177SLPC  H15X20167   3.483   0.312   4.863  0.5348 -2.0856  0.2737
  177SLPC  H15Y20168   3.335   0.357   4.781  1.1772  0.4523 -0.3319
  177SLPC  C31620169   3.363   0.142   4.833 -0.5037 -0.1004 -0.5085
  177SLPC  H16X20170   3.258   0.110   4.813  0.1794 -3.1266  0.2170
  177SLPC  H16Y20171   3.411   0.098   4.923 -0.9840 -2.7427 -1.4721
  177SLPC  C31720172   3.447   0.114   4.707 -0.3241 -0.2400  0.0769
  177SLPC  H17X20173   3.534   0.180   4.729 -1.4729  1.3236  0.0881
  177SLPC  H17Y20174   3.403   0.158   4.616 -0.2071 -0.2405  0.0200
  177SLPC  C31820175   3.489  -0.030   4.688 -0.6684  0.0299  0.8794
  177SLPC  H18X20176   3.568  -0.032   4.610 -1.9377 -0.2565 -0.4584
  177SLPC  H18Y20177   3.405  -0.097   4.660 -0.6866 -0.0330  1.0820
  177SLPC  H18Z20178   3.531  -0.078   4.779 -0.1968 -1.9991 -0.3479
  178SLPC     N20179   3.801   2.580   7.128  0.1897  0.0306  0.2249
  178SLPC   C1320180   3.897   2.690   7.081  0.2713 -0.3885  0.1446
  178SLPC  H13A20181   3.994   2.660   7.116  1.2179 -0.1450 -2.0863
  178SLPC  H13B20182   3.907   2.696   6.974  2.8410  0.8564  0.3856
  178SLPC  H13C20183   3.858   2.783   7.121 -2.1787 -0.3869 -2.0011
  178SLPC   C1420184   3.660   2.622   7.082 -0.0440  0.5331 -0.3506
  178SLPC  H14A20185   3.582   2.549   7.101  0.3569 -0.1405 -1.2056
  178SLPC  H14B20186   3.626   2.716   7.122 -1.9899 -0.0638 -0.5136
  178SLPC  H14C20187   3.644   2.623   6.976 -1.6463 -1.5516 -0.2060
  178SLPC   C1520188   3.801   2.580   7.278  0.2857  0.2272 -0.8263
  178SLPC  H15A20189   3.719   2.513   7.299 -1.4821  1.8949 -2.0275
  178SLPC  H15B20190   3.889   2.538   7.324  1.3202  1.8147 -1.2996
  178SLPC  H15C20191   3.771   2.676   7.317 -0.1350 -0.1557 -0.1949
  178SLPC   C1220192   3.856   2.445   7.074  0.7300 -0.0623 -0.4215
  178SLPC  H12A20193   3.785   2.371   7.109 -1.9480  1.8761 -1.4410
  178SLPC  H12B20194   3.950   2.434   7.127  0.5869  0.1600 -0.1214
  178SLPC   C1120195   3.878   2.432   6.923 -0.6701 -0.8516  0.0060
  178SLPC  H11A20196   3.910   2.326   6.912 -1.6554 -1.0783 -0.8433
  178SLPC  H11B20197   3.966   2.496   6.899 -0.7809 -0.8451 -0.4031
  178SLPC     P20198   3.648   2.360   6.843  0.1336 -0.3238  0.4699
  178SLPC   O1320199   3.664   2.264   6.960  0.3508  0.1879  0.0665
  178SLPC   O1420200   3.523   2.435   6.838  1.2547 -0.4166 -0.1380
  178SLPC   O1220201   3.762   2.470   6.848 -0.2110  0.4816  0.2699
  178SLPC   O1120202   3.677   2.273   6.714  0.9230  0.5124  0.8812
  178SLPC    C120203   3.754   2.331   6.612 -0.3555 -0.3616  0.0536
  178SLPC    HA20204   3.821   2.413   6.646 -1.2725  0.5144 -0.1946
  178SLPC    HB20205   3.824   2.255   6.574  0.4110  0.2332  0.2522
  178SLPC    C220206   3.666   2.391   6.504  0.1848  0.1601  0.2675
  178SLPC    HS20207   3.628   2.489   6.539 -0.6084 -0.1193  0.2071
  178SLPC   O2120208   3.557   2.301   6.468 -0.5461 -0.5840  0.0656
  178SLPC   C2120209   3.463   2.367   6.409  0.2412 -0.2636 -0.7177
  178SLPC   O2220210   3.455   2.490   6.397 -0.4291 -0.4539  0.7234
  178SLPC   C2220211   3.353   2.275   6.351 -0.4795  0.4109  0.3476
  178SLPC   H2R20212   3.410   2.181   6.332  2.0187  2.0318 -0.7216
  178SLPC   H2S20213   3.279   2.262   6.433  2.6486 -0.2370  3.3043
  178SLPC    C320214   3.750   2.418   6.367 -0.6046  0.0481 -0.2041
  178SLPC    HX20215   3.673   2.465   6.301  0.8302 -0.3312 -2.2352
  178SLPC    HY20216   3.764   2.319   6.320 -1.0070 -0.8520  1.5069
  178SLPC   O3120217   3.874   2.487   6.379 -0.3358  0.2262  0.0965
  178SLPC   C3120218   3.855   2.622   6.392  0.2509  0.8585  0.0088
  178SLPC   O3220219   3.749   2.675   6.409  0.1967  0.7598  0.1132
  178SLPC   C3220220   3.989   2.692   6.385 -0.3529  0.0794 -0.0325
  178SLPC   H2X20221   4.053   2.668   6.472  0.4720  2.6030  0.1455
  178SLPC   H2Y20222   3.969   2.801   6.391  2.3257  0.6650 -0.3640
  178SLPC   C2320223   3.290   2.321   6.222 -0.0008  0.1951 -0.3377
  178SLPC   H3R20224   3.214   2.399   6.245 -1.1817 -1.0050  0.0122
  178SLPC   H3S20225   3.225   2.236   6.189  2.2696 -2.3697  1.3396
  178SLPC   C2420226   3.383   2.361   6.102 -0.5160  0.2303  0.1384
  178SLPC   H4R20227   3.433   2.266   6.073 -1.7569 -0.3733 -0.0667
  178SLPC   H4S20228   3.462   2.434   6.133  2.1052 -1.7688 -1.3757
  178SLPC   C2520229   3.320   2.412   5.970 -0.1278  0.0427  0.5044
  178SLPC   H5R20230   3.297   2.521   5.976 -0.9952  0.0442 -1.8872
  178SLPC   H5S20231   3.221   2.366   5.950 -0.3965  0.6595  0.3975
  178SLPC   C2620232   3.407   2.395   5.850  0.3472  0.0888 -0.1354
  178SLPC   H6R20233   3.432   2.287   5.846  0.6349  0.1768 -1.6657
  178SLPC   H6S20234   3.504   2.447   5.860  0.7560  0.1768 -3.3602
  178SLPC   C2720235   3.347   2.459   5.719 -0.4007  0.0749 -0.6831
  178SLPC   H7R20236   3.359   2.568   5.731  0.8643 -0.0012 -1.0485
  178SLPC   H7S20237   3.242   2.425   5.706  0.0587 -1.3878 -0.8539
  178SLPC   C2820238   3.431   2.424   5.597 -0.5169 -0.4330  0.5166
  178SLPC   H8R20239   3.533   2.408   5.636 -1.5792 -2.2315  2.7803
  178SLPC   H8S20240   3.433   2.508   5.524  0.2470 -0.3025  0.6871
  178SLPC   C2920241   3.374   2.299   5.533 -0.0450 -0.5791 -0.4230
  178SLPC   H9R20242   3.355   2.233   5.618  0.5731  3.0506  2.8086
  178SLPC  C21020243   3.335   2.281   5.405  0.1711  0.3760 -0.9134
  178SLPC  H10R20244   3.276   2.192   5.377  0.5267  0.0482 -0.6211
  178SLPC  C21120245   3.384   2.367   5.291 -0.2984 -0.1547  0.5372
  178SLPC  H11R20246   3.492   2.344   5.275 -0.7846 -2.6645  0.3663
  178SLPC  H11S20247   3.394   2.471   5.327  2.8176  0.0349 -0.5707
  178SLPC  C21220248   3.296   2.357   5.164 -0.5048  0.0848  0.4659
  178SLPC  H12R20249   3.205   2.296   5.171  0.2688 -1.0785  0.6563
  178SLPC  C21320250   3.343   2.398   5.041 -0.1396  0.0387  0.3493
  178SLPC  H13R20251   3.282   2.380   4.951 -0.8278 -1.5216  1.0960
  178SLPC  C21420252   3.477   2.457   5.013  0.8070  0.4010  0.1700
  178SLPC  H14R20253   3.531   2.492   5.104 -0.3623  0.5127  0.8341
  178SLPC  H14S20254   3.461   2.542   4.944  0.7507  1.0683  0.9998
  178SLPC  C21520255   3.573   2.358   4.943  0.4689 -0.1086  0.0293
  178SLPC  H15R20256   3.610   2.271   5.003 -0.0283 -0.6303 -0.4106
  178SLPC  H15S20257   3.658   2.422   4.911 -0.4938  0.4808 -1.4411
  178SLPC  C21620258   3.519   2.293   4.816 -0.3562  0.0022 -0.3180
  178SLPC  H16R20259   3.439   2.218   4.826  1.4459 -1.9921 -0.2104
  178SLPC  H16S20260   3.603   2.232   4.777  0.0267  1.0806 -1.2577
  178SLPC  C21720261   3.485   2.392   4.704  0.1173 -0.2924 -0.3950
  178SLPC  H17R20262   3.581   2.445   4.686 -0.9562  1.0382 -2.7088
  178SLPC  H17S20263   3.411   2.469   4.734 -0.4942 -0.4980 -1.3147
  178SLPC  C21820264   3.442   2.328   4.571  0.2008  0.3478  0.4977
  178SLPC  H18R20265   3.381   2.240   4.601 -0.8884  1.4014  1.4619
  178SLPC  H18S20266   3.532   2.297   4.512 -0.6679 -0.7572 -0.2902
  178SLPC  H18T20267   3.373   2.399   4.520 -1.0709 -0.4915  1.0156
  178SLPC   C3320268   4.075   2.658   6.256 -0.2709  0.1583 -0.6383
  178SLPC   H3X20269   4.126   2.559   6.265  0.1600  0.5474  1.7316
  178SLPC   H3Y20270   4.150   2.739   6.255 -1.3061  1.1948  1.0515
  178SLPC   C3420271   4.002   2.660   6.114 -0.4916 -0.7624 -0.0359
  178SLPC   H4X20272   4.077   2.715   6.054  1.4487  0.4999  3.2933
  178SLPC   H4Y20273   3.918   2.733   6.111 -0.2487 -0.5193 -1.5051
  178SLPC   C3520274   3.941   2.524   6.059 -0.4516 -0.8552 -0.4838
  178SLPC   H5X20275   3.855   2.510   6.129 -0.0315  0.8512  0.4200
  178SLPC   H5Y20276   4.019   2.446   6.072  0.1129 -0.1767  0.3045
  178SLPC   C3620277   3.886   2.537   5.921 -0.4598  0.5400 -0.1858
  178SLPC   H6X20278   3.818   2.624   5.908  0.2387  1.0484 -0.5204
  178SLPC   H6Y20279   3.825   2.446   5.903 -0.2866  0.1088  1.2968
  178SLPC   C3720280   4.000   2.541   5.817  0.3692 -0.0912 -0.2595
  178SLPC   H7X20281   4.066   2.452   5.820  2.5689  1.4953  2.0683
  178SLPC   H7Y20282   4.065   2.629   5.834 -0.8885  0.4228  2.5150
  178SLPC   C3820283   3.934   2.560   5.673 -0.0055  1.0329 -1.5544
  178SLPC   H8X20284   4.015   2.592   5.604  0.4871  1.2399 -0.8921
  178SLPC   H8Y20285   3.860   2.643   5.680 -2.7139 -1.2730 -0.8657
  178SLPC   C3920286   3.866   2.422   5.627  0.1997 -0.0457  0.6110
  178SLPC   H9X20287   3.800   2.391   5.711  0.8147 -1.5470  0.5622
  178SLPC   H9Y20288   3.943   2.342   5.623 -2.4296 -2.7269  0.0947
  178SLPC  C31020289   3.780   2.442   5.500  0.0096  0.2207  0.0089
  178SLPC  H10X20290   3.687   2.502   5.511 -1.0160 -0.6513 -2.9349
  178SLPC  H10Y20291   3.729   2.344   5.484 -0.5162  0.7199 -1.5636
  178SLPC  C31120292   3.854   2.480   5.370 -0.1086 -0.2456 -0.0255
  178SLPC  H11X20293   3.912   2.388   5.350  0.0298 -0.2787  0.4928
  178SLPC  H11Y20294   3.923   2.566   5.386  1.0028 -0.6319 -2.3928
  178SLPC  C31220295   3.766   2.523   5.253  0.1810 -0.4278 -0.9350
  178SLPC  H12X20296   3.721   2.621   5.281  0.0727 -1.1064  1.4494
  178SLPC  H12Y20297   3.690   2.443   5.243 -0.7550  0.4079 -0.6742
  178SLPC  C31320298   3.842   2.534   5.117 -0.3437 -1.1653 -0.3529
  178SLPC  H13X20299   3.914   2.617   5.124 -1.1490 -0.4787  0.0141
  178SLPC  H13Y20300   3.775   2.563   5.033  1.0824 -0.3016 -1.2250
  178SLPC  C31420301   3.910   2.405   5.075  0.5799  0.9839 -0.1200
  178SLPC  H14X20302   3.828   2.332   5.054  1.1808  0.6819 -1.5866
  178SLPC  H14Y20303   3.977   2.372   5.157 -1.0378  0.6859  1.1436
  178SLPC  C31520304   3.989   2.429   4.947 -0.2297  0.2382  0.8572
  178SLPC  H15X20305   4.064   2.509   4.965 -0.1341  0.4644 -0.4617
  178SLPC  H15Y20306   3.933   2.465   4.859 -1.4696 -0.6158  1.2638
  178SLPC  C31620307   4.070   2.302   4.923 -0.5471 -0.1168  0.2034
  178SLPC  H16X20308   4.000   2.222   4.889 -0.7155  0.2441 -0.3026
  178SLPC  H16Y20309   4.114   2.272   5.021 -0.8203  0.2753  0.4482
  178SLPC  C31720310   4.195   2.318   4.834 -0.3215 -0.4096  0.4354
  178SLPC  H17X20311   4.258   2.404   4.866 -0.8763 -0.3571  1.3953
  178SLPC  H17Y20312   4.165   2.335   4.728 -2.3383 -0.7822  0.9085
  178SLPC  C31820313   4.275   2.188   4.843 -0.1627  0.1724 -0.2577
  178SLPC  H18X20314   4.225   2.091   4.819  1.4069 -1.0872  1.2915
  178SLPC  H18Y20315   4.316   2.172   4.945  2.2983  0.2508 -1.1719
  178SLPC  H18Z20316   4.367   2.203   4.782  0.6980 -0.3105  0.8936
  179SLPC     N20317   3.040   2.973   2.471  0.2126  0.0396 -0.3036
  179SLPC   C1320318   2.998   2.883   2.581 -0.0949  0.6235 -0.4790
  179SLPC  H13A20319   3.033   2.781   2.574  2.2412  1.2215  1.1590
  179SLPC  H13B20320   3.025   2.919   2.679 -0.4547 -3.2913  1.2438
  179SLPC  H13C20321   2.892   2.868   2.583 -0.0416  0.3116  1.1922
  179SLPC   C1420322   2.977   2.924   2.342 -0.5983  0.4863  0.5680
  179SLPC  H14A20323   2.875   2.898   2.366 -0.0710 -2.3876  0.0575
  179SLPC  H14B20324   2.982   3.003   2.269  0.3808  0.4211  0.5542
  179SLPC  H14C20325   3.032   2.838   2.305  1.5077  1.7824  0.5304
  179SLPC   C1520326   3.190   2.953   2.457  1.0858  0.5008  0.1369
  179SLPC  H15A20327   3.234   2.981   2.552  2.7312  1.7017 -0.9186
  179SLPC  H15B20328   3.205   2.848   2.437 -0.6205  0.4774 -1.2659
  179SLPC  H15C20329   3.235   3.007   2.375 -3.1444  0.7664 -2.3090
  179SLPC   C1220330   3.000   3.117   2.490  0.3823  0.9421  0.4458
  179SLPC  H12A20331   2.896   3.121   2.520  0.4304  2.5345  0.4905
  179SLPC  H12B20332   3.002   3.165   2.393 -0.3525 -1.3721 -0.8024
  179SLPC   C1120333   3.066   3.205   2.606  0.4834  0.4805 -0.7600
  179SLPC  H11A20334   3.027   3.309   2.604  0.2993  0.5493  2.1816
  179SLPC  H11B20335   3.176   3.213   2.597  0.7132 -1.7761 -0.4366
  179SLPC     P20336   2.880   3.147   2.787 -0.2895  0.0403  0.0428
  179SLPC   O1320337   2.788   3.144   2.671  0.1188 -0.0047  0.1001
  179SLPC   O1420338   2.861   3.038   2.886  0.5123  0.1505 -0.4849
  179SLPC   O1220339   3.028   3.141   2.734  0.3231 -0.7251  0.1050
  179SLPC   O1120340   2.866   3.288   2.854 -0.0802 -0.2859 -0.6935
  179SLPC    C120341   2.945   3.348   2.957  0.8363 -0.5971  0.3101
  179SLPC    HA20342   3.052   3.346   2.925  1.3480 -2.3378  1.9948
  179SLPC    HB20343   2.908   3.453   2.964 -2.7053 -1.7712  0.9868
  179SLPC    C220344   2.945   3.273   3.090  0.5384 -0.2141 -0.5983
  179SLPC    HS20345   2.932   3.164   3.071  1.2930 -0.4664  0.2502
  179SLPC   O2120346   2.831   3.329   3.163 -0.1926  0.2974  0.2899
  179SLPC   C2120347   2.762   3.246   3.222  0.5125  0.2701  0.0532
  179SLPC   O2220348   2.796   3.134   3.259 -0.0213  0.3866  0.0319
  179SLPC   C2220349   2.625   3.316   3.245 -0.1810 -0.8678 -0.6672
  179SLPC   H2R20350   2.645   3.395   3.320 -1.9455 -1.4972  0.5221
  179SLPC   H2S20351   2.599   3.374   3.154 -1.7447  1.5830  1.2334
  179SLPC    C320352   3.072   3.301   3.172 -0.5713 -0.4463  0.0549
  179SLPC    HX20353   3.085   3.409   3.193 -1.5791 -0.2196 -0.4652
  179SLPC    HY20354   3.161   3.265   3.116  0.4840  1.4479  0.4196
  179SLPC   O3120355   3.075   3.248   3.308  0.3880 -0.1680 -0.4304
  179SLPC   C3120356   3.096   3.116   3.316  0.3885  0.0620  0.0042
  179SLPC   O3220357   3.135   3.048   3.222 -0.3962  0.1433 -0.4586
  179SLPC   C3220358   3.055   3.069   3.453  0.6287  0.3107 -0.3455
  179SLPC   H2X20359   2.944   3.070   3.449  0.5358  2.8158  0.7842
  179SLPC   H2Y20360   3.077   3.149   3.526 -2.6357 -0.1898  1.3683
  179SLPC   C2320361   2.514   3.222   3.295  0.6392 -0.2490  0.0367
  179SLPC   H3R20362   2.568   3.154   3.365  1.0842  0.3362  0.2714
  179SLPC   H3S20363   2.469   3.167   3.210 -1.6234  1.1921  0.2295
  179SLPC   C2420364   2.405   3.299   3.369 -0.1369 -0.4885  0.3415
  179SLPC   H4R20365   2.316   3.237   3.393 -2.3691  2.6522  0.7335
  179SLPC   H4S20366   2.369   3.381   3.304 -0.2082 -0.6099  0.2270
  179SLPC   C2520367   2.451   3.360   3.503 -0.0713 -0.6285 -0.4026
  179SLPC   H5R20368   2.536   3.427   3.480 -0.3018  0.3308  1.3681
  179SLPC   H5S20369   2.487   3.289   3.580  0.3069 -0.0179 -0.0093
  179SLPC   C2620370   2.330   3.438   3.563 -0.0219 -0.7697  0.3032
  179SLPC   H6R20371   2.249   3.361   3.565  0.1073 -0.9783 -1.4517
  179SLPC   H6S20372   2.278   3.503   3.491 -1.7968 -3.0761 -0.6411
  179SLPC   C2720373   2.363   3.517   3.690  0.3190 -0.0202 -0.8430
  179SLPC   H7R20374   2.272   3.566   3.731 -0.5540 -1.9251 -0.3894
  179SLPC   H7S20375   2.441   3.594   3.669 -0.9938  0.6923 -3.5283
  179SLPC   C2820376   2.414   3.429   3.805  0.3678  0.1282 -0.2217
  179SLPC   H8R20377   2.502   3.371   3.771  0.5706  0.8908 -1.0510
  179SLPC   H8S20378   2.338   3.349   3.821  0.8565 -0.2893  0.0280
  179SLPC   C2920379   2.442   3.517   3.924  0.2157  0.8754  0.9531
  179SLPC   H9R20380   2.515   3.595   3.898  1.2560  0.0453  1.3494
  179SLPC  C21020381   2.395   3.505   4.052 -0.2637 -0.0716  0.0543
  179SLPC  H10R20382   2.418   3.582   4.127 -0.8730 -0.4491  0.6386
  179SLPC  C21120383   2.302   3.406   4.101  0.6267  0.1211 -0.4792
  179SLPC  H11R20384   2.359   3.328   4.156 -1.5300 -0.9828  0.3103
  179SLPC  H11S20385   2.246   3.350   4.023  0.6567  0.5890 -0.8454
  179SLPC  C21220386   2.196   3.457   4.205  0.3132 -1.2107  0.1280
  179SLPC  H12R20387   2.091   3.461   4.173 -0.2831 -0.5393  2.0411
  179SLPC  C21320388   2.228   3.481   4.334  0.5217 -0.1308  0.2437
  179SLPC  H13R20389   2.146   3.505   4.403 -0.4232 -0.3571 -0.7639
  179SLPC  C21420390   2.366   3.476   4.401 -0.4975  0.0953  0.0561
  179SLPC  H14R20391   2.384   3.579   4.440 -1.4494  0.2822  0.0170
  179SLPC  H14S20392   2.444   3.458   4.324  0.7390 -1.6402  1.6175
  179SLPC  C21520393   2.378   3.361   4.511  0.1857  0.1209  0.1166
  179SLPC  H15R20394   2.402   3.262   4.468  2.0373 -0.2183  1.7533
  179SLPC  H15S20395   2.294   3.359   4.583 -0.2603 -1.5785 -0.4060
  179SLPC  C21620396   2.501   3.384   4.604  0.5866  0.2083 -0.3168
  179SLPC  H16R20397   2.488   3.482   4.655 -1.6846  0.6749 -1.6286
  179SLPC  H16S20398   2.595   3.381   4.545 -1.5586 -2.6688 -4.0686
  179SLPC  C21720399   2.520   3.267   4.710  0.3337 -0.0229 -0.4182
  179SLPC  H17R20400   2.565   3.175   4.668  1.0450 -0.2035  0.7074
  179SLPC  H17S20401   2.420   3.224   4.732  0.9580 -1.6875 -0.7070
  179SLPC  C21820402   2.577   3.313   4.846 -0.2326  0.3088 -0.4955
  179SLPC  H18R20403   2.611   3.235   4.918  0.7356  1.3286  0.1809
  179SLPC  H18S20404   2.496   3.371   4.895 -1.6158 -0.1934 -2.0730
  179SLPC  H18T20405   2.660   3.386   4.833  0.8148 -0.4793  1.3426
  179SLPC   C3320406   3.100   2.933   3.497  0.4520 -0.3486  0.0902
  179SLPC   H3X20407   3.203   2.933   3.538  0.4915  0.8364  0.0228
  179SLPC   H3Y20408   3.098   2.866   3.408  1.4456  0.5408 -0.6361
  179SLPC   C3420409   3.020   2.863   3.599  0.2228 -0.3005  0.6531
  179SLPC   H4X20410   3.005   2.757   3.569  1.1465 -0.0106 -0.9812
  179SLPC   H4Y20411   2.918   2.906   3.608 -0.4001 -1.0468 -2.0406
  179SLPC   C3520412   3.068   2.888   3.738  0.5543 -0.8216 -0.3949
  179SLPC   H5X20413   3.170   2.846   3.743  0.6716 -0.4000  1.6077
  179SLPC   H5Y20414   3.076   2.995   3.769 -2.3601 -0.6063 -0.0400
  179SLPC   C3620415   2.983   2.809   3.842 -0.3863  0.8105  0.4133
  179SLPC   H6X20416   3.007   2.701   3.845 -0.3475  0.8337  1.0240
  179SLPC   H6Y20417   2.884   2.811   3.792 -2.1589 -1.5868  3.4682
  179SLPC   C3720418   2.976   2.867   3.983  0.5390  0.5997 -0.5467
  179SLPC   H7X20419   2.901   2.813   4.045  0.3869  1.1336 -0.2576
  179SLPC   H7Y20420   2.932   2.968   3.970 -0.0567  0.4031 -0.1438
  179SLPC   C3820421   3.108   2.874   4.054  0.0042 -0.0448 -0.6035
  179SLPC   H8X20422   3.099   2.917   4.156 -2.6116 -0.0065 -0.7920
  179SLPC   H8Y20423   3.174   2.942   3.995  1.0822 -0.7395 -0.2380
  179SLPC   C3920424   3.171   2.727   4.063 -0.1029  0.2513  0.0438
  179SLPC   H9X20425   3.181   2.684   3.961  0.0739 -2.4019  1.0920
  179SLPC   H9Y20426   3.101   2.671   4.129 -0.3024 -0.3212 -0.6462
  179SLPC  C31020427   3.312   2.726   4.134 -0.2675  0.1861  0.0513
  179SLPC  H10X20428   3.315   2.817   4.198 -0.6038  0.9645 -1.0116
  179SLPC  H10Y20429   3.387   2.742   4.054 -1.4028  0.6876 -0.9560
  179SLPC  C31120430   3.338   2.591   4.204  0.4630  0.0962  0.3532
  179SLPC  H11X20431   3.308   2.520   4.124 -1.4688 -0.1017  1.2032
  179SLPC  H11Y20432   3.269   2.570   4.288 -0.2896 -2.6643 -0.8382
  179SLPC  C31220433   3.489   2.563   4.234 -0.0874  0.3445 -0.3650
  179SLPC  H12X20434   3.562   2.569   4.150 -1.5192  1.2036 -1.6205
  179SLPC  H12Y20435   3.490   2.459   4.272 -0.2079 -0.0013 -1.2852
  179SLPC  C31320436   3.537   2.659   4.343 -0.3434  0.2403 -0.8568
  179SLPC  H13X20437   3.466   2.668   4.429 -0.8870 -0.5542 -1.2060
  179SLPC  H13Y20438   3.532   2.761   4.299 -0.4212 -0.2711 -2.0511
  179SLPC  C31420439   3.683   2.630   4.391  1.1022  0.2563  0.4764
  179SLPC  H14X20440   3.739   2.615   4.296 -2.1845  1.1861 -1.7829
  179SLPC  H14Y20441   3.683   2.535   4.449  0.9969 -0.1936 -0.2471
  179SLPC  C31520442   3.755   2.746   4.458 -0.0449 -0.6177 -0.0606
  179SLPC  H15X20443   3.755   2.836   4.393  1.6510  0.1898  0.9781
  179SLPC  H15Y20444   3.862   2.731   4.485  0.5529  0.1102 -1.8800
  179SLPC  C31620445   3.699   2.786   4.593 -0.2065  0.1770 -0.0249
  179SLPC  H16X20446   3.588   2.779   4.598 -0.0901 -1.5545  1.1312
  179SLPC  H16Y20447   3.738   2.885   4.623  0.7426  0.1977 -1.2317
  179SLPC  C31720448   3.753   2.709   4.711  0.1734 -0.0705  0.2906
  179SLPC  H17X20449   3.863   2.722   4.708  0.5956 -2.4403  2.2322
  179SLPC  H17Y20450   3.723   2.602   4.704 -1.4524  0.3684 -0.0450
  179SLPC  C31820451   3.701   2.768   4.841 -0.0683 -0.0738  0.3603
  179SLPC  H18X20452   3.748   2.739   4.937  1.3553  1.0936  0.0527
  179SLPC  H18Y20453   3.591   2.751   4.845 -0.6860  1.3555 -4.4076
  179SLPC  H18Z20454   3.699   2.879   4.832 -1.2340 -0.0304  0.8933
  180SLPC     N20455   6.504   2.067   2.259  0.8370  0.2389 -0.8466
  180SLPC   C1320456   6.515   2.102   2.116  0.2255 -0.2631 -0.2320
  180SLPC  H13A20457   6.459   2.030   2.057 -1.4272  0.7697 -0.0100
  180SLPC  H13B20458   6.473   2.198   2.089 -0.3513 -0.8372 -1.4465
  180SLPC  H13C20459   6.618   2.108   2.085 -0.1821  1.3613 -1.4110
  180SLPC   C1420460   6.574   1.930   2.278  0.0641 -0.9609 -0.1630
  180SLPC  H14A20461   6.678   1.945   2.255 -0.1901  0.9381 -0.2030
  180SLPC  H14B20462   6.564   1.898   2.381 -2.7561  2.3672  0.7887
  180SLPC  H14C20463   6.529   1.855   2.214 -1.7806  0.9326 -1.2110
  180SLPC   C1520464   6.359   2.047   2.293 -0.0912  1.0908 -0.2836
  180SLPC  H15A20465   6.330   1.948   2.260 -1.1059  0.7456  1.5128
  180SLPC  H15B20466   6.339   2.045   2.399  1.1870 -0.5326 -0.0390
  180SLPC  H15C20467   6.293   2.112   2.237  1.8937  1.1102 -2.7860
  180SLPC   C1220468   6.569   2.173   2.352 -0.0858 -0.0447 -0.0431
  180SLPC  H12A20469   6.532   2.265   2.309  0.5178  0.3339  0.2526
  180SLPC  H12B20470   6.676   2.168   2.343 -0.0485 -2.4882  0.8479
  180SLPC   C1120471   6.539   2.166   2.502  0.0326  0.2471  0.4191
  180SLPC  H11A20472   6.429   2.169   2.515 -0.2306 -1.5528 -0.9139
  180SLPC  H11B20473   6.574   2.260   2.549 -0.2225  0.3075  0.4875
  180SLPC     P20474   6.743   2.042   2.603 -0.1666  0.0923 -0.0839
  180SLPC   O1320475   6.786   1.904   2.623 -0.5114  0.0898  0.0344
  180SLPC   O1420476   6.820   2.134   2.510 -0.1516  0.2317  0.4732
  180SLPC   O1220477   6.589   2.042   2.562 -0.3627 -0.5417  0.1954
  180SLPC   O1120478   6.739   2.103   2.742  1.1757 -0.2688  0.4178
  180SLPC    C120479   6.614   2.103   2.824 -0.4427  0.2891  0.2009
  180SLPC    HA20480   6.528   2.146   2.767  0.3308  1.9806  0.2370
  180SLPC    HB20481   6.593   2.005   2.870 -0.4258 -0.0961 -0.5981
  180SLPC    C220482   6.623   2.197   2.950  0.0591 -0.2779  0.3395
  180SLPC    HS20483   6.672   2.290   2.918  0.0311 -0.2666  0.3286
  180SLPC   O2120484   6.692   2.124   3.066 -0.0563  0.3650  0.4103
  180SLPC   C2120485   6.792   2.200   3.124 -1.4611 -0.7189  0.5220
  180SLPC   O2220486   6.813   2.317   3.083  0.3042  0.6180 -0.8813
  180SLPC   C2220487   6.872   2.123   3.232  0.6179  0.6239  0.5819
  180SLPC   H2R20488   6.793   2.129   3.310 -1.2698  1.3647 -1.2644
  180SLPC   H2S20489   6.892   2.018   3.201  2.6234  0.6694  1.6130
  180SLPC    C320490   6.486   2.245   2.996  0.4918 -0.7983  0.1379
  180SLPC    HX20491   6.411   2.165   2.983 -0.7648  0.2651  0.5395
  180SLPC    HY20492   6.444   2.321   2.925  2.9601  0.9712  0.4415
  180SLPC   O3120493   6.475   2.290   3.131  0.3105 -0.7367  0.0923
  180SLPC   C3120494   6.505   2.418   3.136 -0.1974  0.4661  0.0673
  180SLPC   O3220495   6.540   2.491   3.043 -0.1067 -1.0715  0.0788
  180SLPC   C3220496   6.459   2.456   3.278  0.0242  0.2985 -0.0226
  180SLPC   H2X20497   6.350   2.438   3.294  0.4590 -1.5132  1.3085
  180SLPC   H2Y20498   6.496   2.559   3.295 -0.8526  0.6148  0.0504
  180SLPC   C2320499   6.997   2.205   3.274 -0.8935  0.3636 -0.4136
  180SLPC   H3R20500   6.965   2.310   3.296  0.2835  0.7061 -0.2625
  180SLPC   H3S20501   7.065   2.208   3.186 -1.8222  2.8391 -1.1385
  180SLPC   C2420502   7.069   2.155   3.406  0.2234  0.5594 -0.4189
  180SLPC   H4R20503   7.164   2.209   3.422  1.7647 -2.2884  0.6835
  180SLPC   H4S20504   7.111   2.054   3.386  2.4431  1.1397  0.9518
  180SLPC   C2520505   6.973   2.150   3.531 -0.4796  0.2082 -0.3412
  180SLPC   H5R20506   6.899   2.067   3.523 -0.3831  0.2217 -1.6864
  180SLPC   H5S20507   6.918   2.246   3.545 -0.3760  0.1587  0.4210
  180SLPC   C2620508   7.054   2.129   3.661 -0.5354  0.1408  0.3849
  180SLPC   H6R20509   7.139   2.201   3.661 -1.3821  1.1616 -0.4064
  180SLPC   H6S20510   7.095   2.026   3.665 -1.0504 -0.0455  1.1253
  180SLPC   C2720511   6.976   2.142   3.793 -0.6866  0.5602  0.5867
  180SLPC   H7R20512   7.040   2.124   3.883 -0.2728 -1.4944 -0.0704
  180SLPC   H7S20513   6.920   2.047   3.785 -0.6072  0.5739 -0.2003
  180SLPC   C2820514   6.888   2.271   3.799 -0.6176 -0.1955 -0.3761
  180SLPC   H8R20515   6.818   2.254   3.884 -0.4815  2.2544  0.3028
  180SLPC   H8S20516   6.840   2.300   3.704  0.6113 -1.4071 -1.4061
  180SLPC   C2920517   6.982   2.380   3.834  0.4451 -0.1161  0.3034
  180SLPC   H9R20518   7.042   2.413   3.747  1.8552  2.3154  2.0713
  180SLPC  C21020519   7.002   2.437   3.960  0.4658 -0.9160  0.0010
  180SLPC  H10R20520   7.080   2.514   3.972 -0.3994  0.7587 -3.6595
  180SLPC  C21120521   6.930   2.406   4.091 -0.3868 -0.1528  0.5638
  180SLPC  H11R20522   6.847   2.336   4.067  2.2477 -3.0817 -0.8752
  180SLPC  H11S20523   6.884   2.498   4.132 -1.7419  0.2088 -1.6224
  180SLPC  C21220524   7.015   2.328   4.192 -0.0679 -0.5427 -0.4269
  180SLPC  H12R20525   7.109   2.291   4.147 -0.7488 -0.1860 -2.2222
  180SLPC  C21320526   6.992   2.337   4.323  0.8313  0.4219 -0.0608
  180SLPC  H13R20527   7.063   2.286   4.391 -2.1132 -2.6003  1.0339
  180SLPC  C21420528   6.874   2.398   4.399 -0.1097  0.3483 -0.0881
  180SLPC  H14R20529   6.785   2.368   4.339 -0.2785  1.2184 -0.2785
  180SLPC  H14S20530   6.870   2.509   4.396  0.7842  0.4260  0.8562
  180SLPC  C21520531   6.857   2.340   4.540 -0.2535  0.2209  0.1196
  180SLPC  H15R20532   6.883   2.410   4.623 -0.1571  0.1499  0.1504
  180SLPC  H15S20533   6.927   2.258   4.568 -0.2221  0.1534 -0.1569
  180SLPC  C21620534   6.707   2.300   4.570 -0.3247 -0.7255 -0.0655
  180SLPC  H16R20535   6.676   2.245   4.478  0.6364 -0.6494 -0.4479
  180SLPC  H16S20536   6.645   2.393   4.568 -0.7584 -0.9835  0.8200
  180SLPC  C21720537   6.678   2.231   4.699 -0.0427 -0.2037 -0.0467
  180SLPC  H17R20538   6.746   2.144   4.708  1.3074  0.7227 -1.0115
  180SLPC  H17S20539   6.571   2.201   4.700 -0.1033  0.0089 -0.0465
  180SLPC  C21820540   6.700   2.312   4.833  0.1683 -0.1473  0.4466
  180SLPC  H18R20541   6.691   2.422   4.814 -3.4787 -0.4803 -0.5091
  180SLPC  H18S20542   6.809   2.305   4.854  0.8159 -0.5877 -2.5817
  180SLPC  H18T20543   6.653   2.275   4.927  1.8645 -0.0994  1.3562
  180SLPC   C3320544   6.520   2.371   3.390 -0.0408  0.1457  0.2793
  180SLPC   H3X20545   6.630   2.387   3.390  0.1301 -0.9402  0.6938
  180SLPC   H3Y20546   6.499   2.262   3.384  0.3249  0.1353 -1.2393
  180SLPC   C3420547   6.459   2.420   3.523  0.4369 -0.0788 -0.2422
  180SLPC   H4X20548   6.349   2.403   3.513  0.0654  0.3530  2.3330
  180SLPC   H4Y20549   6.465   2.529   3.548  0.3976 -0.0803 -0.2264
  180SLPC   C3520550   6.494   2.318   3.635 -0.1810  0.3100  0.3365
  180SLPC   H5X20551   6.602   2.341   3.652 -0.7144  2.6221  0.9766
  180SLPC   H5Y20552   6.483   2.214   3.598 -1.3279 -0.0215  1.5592
  180SLPC   C3620553   6.418   2.338   3.764  0.2426  0.6065 -0.1748
  180SLPC   H6X20554   6.312   2.305   3.755 -0.0064  0.2039  3.0220
  180SLPC   H6Y20555   6.414   2.448   3.782  0.0513  0.4045  1.1244
  180SLPC   C3720556   6.484   2.278   3.889 -0.1472 -0.3032  0.1891
  180SLPC   H7X20557   6.594   2.290   3.896 -0.2368  0.9364 -0.3375
  180SLPC   H7Y20558   6.455   2.171   3.900  1.3200 -0.7801 -0.3286
  180SLPC   C3820559   6.414   2.345   4.017  0.1135  0.7357  0.7955
  180SLPC   H8X20560   6.308   2.315   4.028  0.6442 -1.1961  1.0533
  180SLPC   H8Y20561   6.430   2.455   4.010  1.7299  0.4242 -1.4200
  180SLPC   C3920562   6.489   2.317   4.149 -0.1165 -0.0875 -0.1389
  180SLPC   H9X20563   6.599   2.318   4.134  0.0224 -3.8792 -0.2051
  180SLPC   H9Y20564   6.469   2.217   4.193 -1.9781 -0.5988 -1.9650
  180SLPC  C31020565   6.469   2.422   4.261  0.2770  0.3450  0.0868
  180SLPC  H10X20566   6.498   2.524   4.229 -0.0954  0.3425 -0.2827
  180SLPC  H10Y20567   6.527   2.397   4.351  1.0921 -1.8538 -0.9792
  180SLPC  C31120568   6.320   2.442   4.288  0.0355 -0.1115  0.4847
  180SLPC  H11X20569   6.277   2.349   4.333 -1.3970  0.7068  0.8564
  180SLPC  H11Y20570   6.279   2.479   4.191  2.0601  4.1150  1.0327
  180SLPC  C31220571   6.278   2.542   4.396  0.0820 -0.3352 -0.1133
  180SLPC  H12X20572   6.168   2.556   4.386 -0.1065 -0.8154  1.0963
  180SLPC  H12Y20573   6.326   2.637   4.364  0.9952 -0.4402  0.8687
  180SLPC  C31320574   6.301   2.514   4.546 -0.1221  0.6453  0.4284
  180SLPC  H13X20575   6.410   2.491   4.555  0.0696  0.2441 -2.0468
  180SLPC  H13Y20576   6.242   2.425   4.575  0.0592  0.5540  0.5169
  180SLPC  C31420577   6.273   2.633   4.636 -0.1737 -0.6382  0.2731
  180SLPC  H14X20578   6.163   2.629   4.646 -0.5844 -1.4001 -3.3192
  180SLPC  H14Y20579   6.313   2.719   4.576 -1.3771 -1.1914 -1.3743
  180SLPC  C31520580   6.347   2.611   4.771  0.2502  0.0745 -0.0723
  180SLPC  H15X20581   6.452   2.646   4.769 -0.0415  0.9717 -0.9172
  180SLPC  H15Y20582   6.346   2.501   4.784  0.2475  0.2778  2.0111
  180SLPC  C31620583   6.273   2.692   4.877  0.5719  0.3677  0.3975
  180SLPC  H16X20584   6.165   2.668   4.884  0.7114  0.1629  2.5253
  180SLPC  H16Y20585   6.277   2.802   4.862  0.4712  0.4071  0.6613
  180SLPC  C31720586   6.327   2.652   5.025 -0.2442  0.6005 -0.5042
  180SLPC  H17X20587   6.262   2.710   5.094 -0.2146  0.4475 -0.3455
  180SLPC  H17Y20588   6.431   2.687   5.039 -0.2959  0.4338  0.3502
  180SLPC  C31820589   6.306   2.514   5.074  0.3772  0.4224  0.3881
  180SLPC  H18X20590   6.360   2.441   5.010  1.9572  1.6597  0.2336
  180SLPC  H18Y20591   6.201   2.480   5.071  0.3178  0.6817 -0.8012
  180SLPC  H18Z20592   6.348   2.497   5.176  1.6995  0.0584 -0.1998
  181SLPC     N20593   6.500   3.250   2.557  0.0235  0.1869 -0.2684
  181SLPC   C1320594   6.376   3.248   2.476  0.6494 -0.7639 -0.0528
  181SLPC  H13A20595   6.364   3.336   2.415 -2.5029  0.1378  1.6379
  181SLPC  H13B20596   6.360   3.160   2.414 -1.5878  0.6089 -1.5569
  181SLPC  H13C20597   6.281   3.240   2.527 -0.6430  3.8336 -1.3153
  181SLPC   C1420598   6.498   3.365   2.647  0.0671  0.6317  0.1021
  181SLPC  H14A20599   6.481   3.455   2.590  0.2417  0.0753 -0.8513
  181SLPC  H14B20600   6.419   3.341   2.717 -1.4477  0.8816 -1.4349
  181SLPC  H14C20601   6.592   3.378   2.698 -0.8183  3.2121  1.2399
  181SLPC   C1520602   6.613   3.257   2.459  0.2307 -0.3596 -0.4939
  181SLPC  H15A20603   6.588   3.327   2.380 -0.8443  0.9910  0.9676
  181SLPC  H15B20604   6.696   3.304   2.510 -0.9302  0.9610  0.2507
  181SLPC  H15C20605   6.636   3.158   2.422  1.1712 -0.0136 -0.8611
  181SLPC   C1220606   6.508   3.119   2.637  0.6664  0.1619 -0.5377
  181SLPC  H12A20607   6.601   3.120   2.693  0.2153  1.4778  0.2312
  181SLPC  H12B20608   6.512   3.031   2.574  0.0481  0.4309 -0.9662
  181SLPC   C1120609   6.395   3.103   2.745  0.2322 -0.1839 -0.2676
  181SLPC  H11A20610   6.384   3.177   2.827 -0.9739 -2.2749  1.5806
  181SLPC  H11B20611   6.424   3.013   2.803  0.1195 -0.7032 -1.0011
  181SLPC     P20612   6.226   2.934   2.640 -0.2740 -0.1567 -0.3349
  181SLPC   O1320613   6.102   2.944   2.554 -0.3996  0.2054 -0.8738
  181SLPC   O1420614   6.340   2.863   2.579  0.0104  0.0410 -0.3172
  181SLPC   O1220615   6.267   3.078   2.697 -0.0959  0.0881  0.0169
  181SLPC   O1120616   6.187   2.856   2.774  0.0301 -0.0240 -0.3785
  181SLPC    C120617   6.081   2.915   2.854 -0.5137  0.2357  0.0440
  181SLPC    HA20618   6.029   2.994   2.796  1.7237  0.2875 -2.0283
  181SLPC    HB20619   6.003   2.846   2.893 -0.8687  0.1352 -0.8114
  181SLPC    C220620   6.145   2.979   2.982 -0.2011 -0.2489  0.2834
  181SLPC    HS20621   6.215   3.056   2.943  0.0867 -0.9697 -0.6789
  181SLPC   O2120622   6.213   2.877   3.062 -0.3546 -0.0907 -0.1973
  181SLPC   C2120623   6.314   2.922   3.136 -0.4886  0.5976 -0.2127
  181SLPC   O2220624   6.360   3.031   3.124 -0.0802 -0.0853 -0.7548
  181SLPC   C2220625   6.365   2.816   3.238 -0.3544  0.7920 -0.0254
  181SLPC   H2R20626   6.288   2.738   3.255  0.3734  0.0443 -0.1177
  181SLPC   H2S20627   6.450   2.768   3.185  1.5585  1.6074  2.1342
  181SLPC    C320628   6.034   3.047   3.065 -0.6708 -0.1624  0.2549
  181SLPC    HX20629   5.958   2.967   3.080  0.3700 -1.1466  0.3415
  181SLPC    HY20630   5.981   3.129   3.010  2.0724  0.8504 -1.0636
  181SLPC   O3120631   6.080   3.104   3.191 -0.1197 -0.3926  0.0073
  181SLPC   C3120632   6.124   3.222   3.195 -0.0259  0.5027  0.2656
  181SLPC   O3220633   6.133   3.299   3.104  0.7948 -0.4373  0.0576
  181SLPC   C3220634   6.161   3.253   3.338 -0.8099 -0.6783  0.5592
  181SLPC   H2X20635   6.158   3.163   3.403 -2.1430 -0.4594  0.8196
  181SLPC   H2Y20636   6.088   3.330   3.370 -0.2651  1.8335 -3.5944
  181SLPC   C2320637   6.437   2.868   3.370 -0.0714  0.0180  0.0540
  181SLPC   H3R20638   6.484   2.967   3.349  0.4060  0.4101  2.5610
  181SLPC   H3S20639   6.516   2.802   3.412 -0.4216 -1.1959 -1.1573
  181SLPC   C2420640   6.333   2.881   3.487  0.4862 -0.1997 -0.0168
  181SLPC   H4R20641   6.291   2.788   3.531 -0.2360  1.1796  2.4244
  181SLPC   H4S20642   6.249   2.941   3.448  0.2771 -0.8250 -0.5328
  181SLPC   C2520643   6.385   2.964   3.599  0.3349 -0.3448 -0.3874
  181SLPC   H5R20644   6.423   3.055   3.549  0.3744 -0.2742 -0.2282
  181SLPC   H5S20645   6.466   2.908   3.651 -1.7567 -0.9675  2.4777
  181SLPC   C2620646   6.277   3.006   3.699 -0.0834  1.0529  0.0732
  181SLPC   H6R20647   6.234   2.909   3.732 -0.2591  0.9903 -0.3229
  181SLPC   H6S20648   6.199   3.063   3.643 -1.6504 -1.8638 -0.9399
  181SLPC   C2720649   6.329   3.075   3.822 -0.7963  0.2723  0.5737
  181SLPC   H7R20650   6.243   3.108   3.884 -2.5610 -1.2166 -0.9710
  181SLPC   H7S20651   6.379   3.167   3.784 -1.6616  0.2123 -0.7417
  181SLPC   C2820652   6.429   2.995   3.907  0.0237  0.6760  0.0857
  181SLPC   H8R20653   6.480   3.055   3.985  2.1979  0.1789 -0.8984
  181SLPC   H8S20654   6.520   2.974   3.847 -0.6483  1.6379 -1.3335
  181SLPC   C2920655   6.373   2.865   3.957  0.0149  0.4202 -0.1737
  181SLPC   H9R20656   6.369   2.784   3.882 -1.5756  0.5684 -0.2902
  181SLPC  C21020657   6.321   2.844   4.072 -0.2042  0.0397 -0.0749
  181SLPC  H10R20658   6.281   2.744   4.096 -0.0253  0.6874  3.4553
  181SLPC  C21120659   6.312   2.943   4.178 -0.4534  0.1508 -1.2319
  181SLPC  H11R20660   6.260   3.034   4.139 -0.8640  1.1745  1.5060
  181SLPC  H11S20661   6.414   2.978   4.204 -0.9229  0.4748  0.2991
  181SLPC  C21220662   6.238   2.903   4.306  0.2094  0.4339 -0.5911
  181SLPC  H12R20663   6.149   2.839   4.295  0.5235 -0.1909  0.3970
  181SLPC  C21320664   6.249   2.953   4.429  0.4057  0.3450 -0.0329
  181SLPC  H13R20665   6.194   2.905   4.510  0.1237  1.0824  0.2235
  181SLPC  C21420666   6.358   3.047   4.476 -0.1307  0.7137  0.0104
  181SLPC  H14R20667   6.336   3.153   4.453 -0.9977  1.1108  2.3597
  181SLPC  H14S20668   6.452   3.026   4.422  0.4127 -0.9804  1.5086
  181SLPC  C21520669   6.373   3.041   4.624 -0.2965 -0.0499 -0.7464
  181SLPC  H15R20670   6.470   3.093   4.640  0.3561 -1.2918 -0.4955
  181SLPC  H15S20671   6.389   2.936   4.657 -1.0172  0.3243  0.8859
  181SLPC  C21620672   6.268   3.115   4.712 -0.0621 -0.0944  0.6626
  181SLPC  H16R20673   6.174   3.055   4.711 -0.6934  0.7415 -2.5715
  181SLPC  H16S20674   6.247   3.219   4.678  1.1910 -0.4305 -1.2366
  181SLPC  C21720675   6.322   3.122   4.858  0.3957  0.1304  0.5714
  181SLPC  H17R20676   6.404   3.196   4.867 -1.1275  1.9613 -0.1233
  181SLPC  H17S20677   6.361   3.020   4.879 -2.3073 -0.8700  1.1804
  181SLPC  C21820678   6.204   3.148   4.959  0.1734  0.0264 -0.3283
  181SLPC  H18R20679   6.250   3.142   5.060  2.5009  2.8386 -1.0690
  181SLPC  H18S20680   6.132   3.065   4.948 -1.3288  1.5190 -2.6466
  181SLPC  H18T20681   6.171   3.254   4.965 -0.1206 -0.0694 -0.1976
  181SLPC   C3320682   6.304   3.304   3.337 -0.5776  0.2402  0.0978
  181SLPC   H3X20683   6.342   3.340   3.239 -1.5214 -0.5220 -0.5560
  181SLPC   H3Y20684   6.377   3.222   3.358 -0.1248  0.2727 -1.2440
  181SLPC   C3420685   6.333   3.414   3.433  0.0439 -0.1834  0.6809
  181SLPC   H4X20686   6.285   3.512   3.412  0.7367  0.5285  2.2488
  181SLPC   H4Y20687   6.439   3.447   3.434  0.5240 -1.6625  1.0448
  181SLPC   C3520688   6.285   3.376   3.580 -0.0096 -0.0459 -0.0565
  181SLPC   H5X20689   6.332   3.280   3.610 -0.1030 -0.9639 -2.5961
  181SLPC   H5Y20690   6.174   3.374   3.588  0.0568  1.9828  2.1958
  181SLPC   C3620691   6.328   3.479   3.681 -0.2234 -0.3044 -0.0262
  181SLPC   H6X20692   6.273   3.571   3.652 -2.5251 -1.0461  1.6735
  181SLPC   H6Y20693   6.437   3.493   3.689 -0.1084 -0.9721 -0.3838
  181SLPC   C3720694   6.272   3.445   3.827 -0.0859  0.1489  0.1421
  181SLPC   H7X20695   6.194   3.366   3.821 -1.2492  1.3015 -0.3367
  181SLPC   H7Y20696   6.217   3.535   3.859 -0.2232  0.0798  0.1055
  181SLPC   C3820697   6.382   3.427   3.927  0.0297 -0.3914 -0.5754
  181SLPC   H8X20698   6.464   3.496   3.896 -0.4776 -0.2019 -1.5101
  181SLPC   H8Y20699   6.421   3.323   3.934  0.7962  0.0176  3.0521
  181SLPC   C3920700   6.356   3.475   4.075 -0.2388 -1.3867  0.1609
  181SLPC   H9X20701   6.267   3.427   4.119 -0.4168 -1.2616 -0.0601
  181SLPC   H9Y20702   6.343   3.585   4.077  0.4547 -1.3057  2.1525
  181SLPC  C31020703   6.486   3.436   4.159 -0.4905 -0.4596 -0.0594
  181SLPC  H10X20704   6.574   3.489   4.117 -2.2662  1.3379 -1.7206
  181SLPC  H10Y20705   6.503   3.327   4.151  0.9904 -0.1800 -0.8984
  181SLPC  C31120706   6.478   3.485   4.301 -0.5158 -0.3985  0.9156
  181SLPC  H11X20707   6.396   3.435   4.357 -0.7246  0.3469  1.2912
  181SLPC  H11Y20708   6.459   3.594   4.302  1.1653 -0.0729  0.1752
  181SLPC  C31220709   6.608   3.475   4.388  0.2007 -0.7186  0.3809
  181SLPC  H12X20710   6.593   3.549   4.469  0.9010  1.5299 -1.4455
  181SLPC  H12Y20711   6.697   3.501   4.327 -0.5646 -3.2905 -2.0470
  181SLPC  C31320712   6.633   3.334   4.424  0.1495 -0.0131 -0.4283
  181SLPC  H13X20713   6.665   3.278   4.333 -1.9706  2.2625 -2.7513
  181SLPC  H13Y20714   6.536   3.293   4.460 -0.5242  0.7858 -1.2876
  181SLPC  C31420715   6.744   3.326   4.530  0.9816  0.4608 -0.3414
  181SLPC  H14X20716   6.822   3.400   4.501  1.1364 -0.1051 -1.4247
  181SLPC  H14Y20717   6.787   3.224   4.523 -0.3653 -0.5526  3.4936
  181SLPC  C31520718   6.692   3.359   4.670 -0.3648 -0.3032 -0.2234
  181SLPC  H15X20719   6.621   3.284   4.710  1.3744 -1.1237  1.4766
  181SLPC  H15Y20720   6.664   3.465   4.692  0.2481 -0.1660 -0.0861
  181SLPC  C31620721   6.819   3.354   4.760  1.0079 -0.1588 -0.2330
  181SLPC  H16X20722   6.903   3.413   4.718 -0.1034  1.9785  0.4192
  181SLPC  H16Y20723   6.848   3.246   4.768 -1.3568 -0.7929  0.4191
  181SLPC  C31720724   6.780   3.387   4.911 -0.3548 -0.1902  0.0129
  181SLPC  H17X20725   6.720   3.306   4.957 -0.7870 -0.9445 -1.7923
  181SLPC  H17Y20726   6.713   3.475   4.908  0.6385  0.9004  4.0501
  181SLPC  C31820727   6.903   3.405   4.998  0.3766  0.1725  0.1825
  181SLPC  H18X20728   6.956   3.310   5.019 -0.7617 -0.8547 -1.3400
  181SLPC  H18Y20729   6.868   3.452   5.093 -0.9486 -2.0727  0.8854
  181SLPC  H18Z20730   6.971   3.476   4.947  1.6735 -1.5630 -0.5900
  182SLPC     N20731   6.190   0.488   2.235  0.6547  0.4243 -0.2129
  182SLPC   C1320732   6.201   0.631   2.193 -0.4193 -0.5412  0.6145
  182SLPC  H13A20733   6.106   0.673   2.162 -0.5314  0.5032  2.2973
  182SLPC  H13B20734   6.245   0.685   2.275  0.5057 -0.4473  0.0705
  182SLPC  H13C20735   6.260   0.642   2.103  1.6993  2.0161  2.1712
  182SLPC   C1420736   6.320   0.420   2.258 -0.3137 -0.1199  0.0786
  182SLPC  H14A20737   6.386   0.480   2.320  1.2592 -0.4702 -1.1709
  182SLPC  H14B20738   6.314   0.322   2.301 -1.9722  0.1528  0.5322
  182SLPC  H14C20739   6.364   0.407   2.160 -1.8349  1.5004 -0.8827
  182SLPC   C1520740   6.108   0.415   2.134  0.3346  0.2474  0.0830
  182SLPC  H15A20741   6.003   0.443   2.137 -0.0211 -1.0946  1.3329
  182SLPC  H15B20742   6.146   0.428   2.034 -0.5875  0.5878 -0.2347
  182SLPC  H15C20743   6.113   0.308   2.149  2.0636  0.4552  1.1660
  182SLPC   C1220744   6.117   0.499   2.366 -0.2162 -0.6411  0.0277
  182SLPC  H12A20745   6.069   0.405   2.389 -0.0178 -0.8798 -0.5067
  182SLPC  H12B20746   6.038   0.572   2.360  0.9049  0.6425  0.5836
  182SLPC   C1120747   6.192   0.556   2.486  0.0598  0.5010 -0.6929
  182SLPC  H11A20748   6.272   0.484   2.513 -0.5147  0.7642  2.0269
  182SLPC  H11B20749   6.128   0.548   2.577  3.1706  3.5749  2.0359
  182SLPC     P20750   6.366   0.738   2.539  0.0244  0.2303 -0.1582
  182SLPC   O1320751   6.477   0.653   2.502  0.0032 -0.2620  0.6305
  182SLPC   O1420752   6.389   0.882   2.515  0.1667 -0.0574  0.2999
  182SLPC   O1220753   6.233   0.692   2.472  0.0807  0.1505 -0.6316
  182SLPC   O1120754   6.327   0.723   2.692 -0.2671  0.2538  0.4517
  182SLPC    C120755   6.209   0.778   2.743 -0.0377 -0.2347 -0.2482
  182SLPC    HA20756   6.192   0.878   2.698 -3.9725 -0.9740 -0.8322
  182SLPC    HB20757   6.129   0.704   2.720  0.4814 -2.1569  3.4646
  182SLPC    C220758   6.225   0.792   2.893 -0.4678  0.4755 -0.1913
  182SLPC    HS20759   6.125   0.771   2.936 -0.5402 -2.9305 -1.7408
  182SLPC   O2120760   6.281   0.922   2.933  0.4723 -0.0168  0.4995
  182SLPC   C2120761   6.194   1.018   2.924  0.4931  0.1523 -0.4513
  182SLPC   O2220762   6.081   1.011   2.876  0.2416 -0.3124 -0.0874
  182SLPC   C2220763   6.246   1.149   2.985 -0.5002 -0.4702  1.0020
  182SLPC   H2R20764   6.337   1.133   3.047  0.7887  2.6778  0.1096
  182SLPC   H2S20765   6.275   1.213   2.899  0.2129 -1.0163  0.8266
  182SLPC    C320766   6.313   0.676   2.945 -0.4625  0.3436  0.0291
  182SLPC    HX20767   6.420   0.691   2.916 -0.7098 -0.2269 -1.2326
  182SLPC    HY20768   6.272   0.587   2.893 -1.5604  0.0214  1.3880
  182SLPC   O3120769   6.316   0.665   3.087  0.2068  0.4510  0.6071
  182SLPC   C3120770   6.214   0.614   3.143  0.1040  0.2414  0.3562
  182SLPC   O3220771   6.117   0.563   3.088  0.1447 -0.0492  0.4434
  182SLPC   C3220772   6.232   0.619   3.294 -0.1573  0.7089  1.3955
  182SLPC   H2X20773   6.277   0.717   3.320  1.4058 -0.0538  1.7348
  182SLPC   H2Y20774   6.312   0.547   3.321  2.0292  2.4321 -0.0936
  182SLPC   C2320775   6.137   1.217   3.055  0.4550 -0.1671 -0.0695
  182SLPC   H3R20776   6.059   1.256   2.986  2.3678  0.8889 -1.7652
  182SLPC   H3S20777   6.184   1.311   3.091  1.8962 -0.5478 -0.9016
  182SLPC   C2420778   6.065   1.146   3.175 -0.4085 -0.3577 -0.9198
  182SLPC   H4R20779   6.001   1.067   3.131 -0.3339 -0.3229 -1.0887
  182SLPC   H4S20780   5.985   1.214   3.213 -0.3030 -1.1097  0.7509
  182SLPC   C2520781   6.154   1.092   3.280 -0.9109 -0.5192 -0.5734
  182SLPC   H5R20782   6.229   1.168   3.312 -0.5349 -0.2588 -1.9854
  182SLPC   H5S20783   6.213   1.007   3.240  1.6729  0.7941  0.1667
  182SLPC   C2620784   6.088   1.037   3.407  0.3264 -0.8123 -0.1689
  182SLPC   H6R20785   6.038   0.945   3.372  3.1458 -2.1405 -1.0549
  182SLPC   H6S20786   6.010   1.103   3.452 -0.6759  0.6791 -3.7184
  182SLPC   C2720787   6.199   0.993   3.510 -0.0156  0.3058 -0.4244
  182SLPC   H7R20788   6.278   1.072   3.514 -0.4795  0.8039 -1.1210
  182SLPC   H7S20789   6.240   0.893   3.485  1.2701  0.7188 -0.0659
  182SLPC   C2820790   6.139   0.977   3.648  0.4404  0.5590 -1.8451
  182SLPC   H8R20791   6.071   0.890   3.637  1.0871 -0.1068 -0.7576
  182SLPC   H8S20792   6.063   1.058   3.658  2.5664  2.3952  2.1213
  182SLPC   C2920793   6.242   0.969   3.758  0.1098  0.8435  0.0792
  182SLPC   H9R20794   6.339   0.978   3.708  1.8539  2.6582  3.4437
  182SLPC  C21020795   6.221   0.983   3.894 -0.2967  1.0532 -0.7308
  182SLPC  H10R20796   6.306   0.975   3.964 -0.1509 -1.1325 -1.0767
  182SLPC  C21120797   6.093   0.986   3.967  0.2721 -0.5856 -0.1026
  182SLPC  H11R20798   6.069   0.898   4.030 -0.5239 -0.9925 -0.9408
  182SLPC  H11S20799   6.020   0.998   3.884  1.1682  1.1199 -0.7013
  182SLPC  C21220800   6.086   1.110   4.050 -0.5335  0.4607 -0.0158
  182SLPC  H12R20801   6.048   1.201   4.001 -2.4532  0.4186  1.2784
  182SLPC  C21320802   6.135   1.122   4.177 -1.1512 -0.6204  0.1545
  182SLPC  H13R20803   6.148   1.225   4.214 -1.2489 -0.1190 -1.1469
  182SLPC  C21420804   6.169   1.011   4.270 -0.1500  0.4672  0.2571
  182SLPC  H14R20805   6.239   0.941   4.220  0.0276  0.0116  1.1240
  182SLPC  H14S20806   6.081   0.952   4.302 -1.1020  2.3445  1.2917
  182SLPC  C21520807   6.217   1.076   4.406  0.0406 -0.5278  0.1036
  182SLPC  H15R20808   6.313   1.127   4.387  1.1711 -1.8280  1.9436
  182SLPC  H15S20809   6.236   0.989   4.473 -0.3467 -2.0634 -1.7081
  182SLPC  C21620810   6.133   1.180   4.476  0.0654 -0.2333 -0.1073
  182SLPC  H16R20811   6.030   1.141   4.484  0.3104 -0.8336  0.1626
  182SLPC  H16S20812   6.134   1.282   4.430  0.7216  0.8857  2.2229
  182SLPC  C21720813   6.198   1.206   4.622  0.9961 -0.2346  0.5557
  182SLPC  H17R20814   6.306   1.225   4.611  1.3205 -2.5263 -0.8510
  182SLPC  H17S20815   6.184   1.119   4.690  0.2660 -0.0660  0.6373
  182SLPC  C21820816   6.128   1.327   4.683 -0.2846  0.7490  0.3235
  182SLPC  H18R20817   6.175   1.362   4.778 -0.2447  0.7716  0.2952
  182SLPC  H18S20818   6.021   1.305   4.706 -0.5943 -0.2632 -1.8652
  182SLPC  H18T20819   6.135   1.418   4.619 -0.4527 -0.3362 -1.2896
  182SLPC   C3320820   6.096   0.584   3.366  0.0316  0.3861  0.2587
  182SLPC   H3X20821   6.054   0.484   3.339 -1.4006  0.8657  0.6531
  182SLPC   H3Y20822   6.027   0.665   3.336 -0.1677 -0.3222 -1.3449
  182SLPC   C3420823   6.115   0.594   3.516 -0.6275  0.4091 -0.0473
  182SLPC   H4X20824   6.183   0.680   3.535 -2.1274  1.8483 -0.9124
  182SLPC   H4Y20825   6.159   0.508   3.569 -3.3850  0.3882  2.4597
  182SLPC   C3520826   5.981   0.629   3.579 -0.1168  0.0836 -0.3409
  182SLPC   H5X20827   5.912   0.544   3.562 -0.1375  0.2215 -0.9691
  182SLPC   H5Y20828   5.938   0.724   3.542 -0.9781  1.0694  2.8439
  182SLPC   C3620829   5.993   0.630   3.736 -0.0101 -0.3852  0.6560
  182SLPC   H6X20830   6.080   0.692   3.767  1.5085  0.5674 -4.5605
  182SLPC   H6Y20831   6.019   0.523   3.753  0.7025 -0.2188  0.6236
  182SLPC   C3720832   5.859   0.670   3.811  0.4933 -0.5045 -0.0676
  182SLPC   H7X20833   5.785   0.588   3.794  0.0854  0.0429 -1.0203
  182SLPC   H7Y20834   5.805   0.759   3.773 -0.9670 -1.2932  0.0664
  182SLPC   C3820835   5.878   0.672   3.962 -0.2517  0.2344 -0.3566
  182SLPC   H8X20836   5.774   0.677   4.001 -0.4600  1.3467 -1.0059
  182SLPC   H8Y20837   5.931   0.763   3.996  1.1174 -0.4687 -0.5531
  182SLPC   C3920838   5.962   0.562   4.037  0.0075 -0.2168  0.1500
  182SLPC   H9X20839   6.069   0.575   4.010 -0.1597  0.3207 -0.2520
  182SLPC   H9Y20840   5.922   0.468   3.992  0.3739 -0.1719 -0.2777
  182SLPC  C31020841   5.947   0.571   4.192 -0.1223 -0.1037  0.4647
  182SLPC  H10X20842   5.845   0.542   4.226  0.0057 -0.5428  0.4916
  182SLPC  H10Y20843   5.963   0.676   4.223  3.9406 -0.2449 -0.5520
  182SLPC  C31120844   6.048   0.484   4.253  0.2961 -0.2329 -0.2634
  182SLPC  H11X20845   6.137   0.482   4.186 -0.0531 -3.5758 -0.7852
  182SLPC  H11Y20846   6.017   0.378   4.247 -0.9733  0.0559  0.8518
  182SLPC  C31220847   6.094   0.546   4.386 -1.2405  0.2718  0.3253
  182SLPC  H12X20848   6.154   0.639   4.380 -2.1000  0.9082  1.3372
  182SLPC  H12Y20849   6.166   0.472   4.427 -0.2184  0.4231 -1.0934
  182SLPC  C31320850   5.988   0.549   4.493  1.0620 -0.4151 -0.3675
  182SLPC  H13X20851   5.935   0.451   4.488  1.6584 -0.9452  2.2469
  182SLPC  H13Y20852   5.917   0.628   4.462  0.3163 -1.1098 -0.4643
  182SLPC  C31420853   6.037   0.578   4.635  0.5314  0.6468  0.1445
  182SLPC  H14X20854   6.091   0.488   4.673  2.4145  1.9512  0.6953
  182SLPC  H14Y20855   5.943   0.580   4.694  1.8294 -1.7434  2.5481
  182SLPC  C31520856   6.125   0.701   4.635 -0.5165  0.2546 -0.4735
  182SLPC  H15X20857   6.075   0.790   4.591 -0.3989  0.1038 -0.9176
  182SLPC  H15Y20858   6.219   0.686   4.578  0.0910 -1.5064  0.8927
  182SLPC  C31620859   6.166   0.740   4.779 -0.6142  0.4779 -0.7725
  182SLPC  H16X20860   6.221   0.656   4.827 -1.8447  1.2192  2.1623
  182SLPC  H16Y20861   6.080   0.756   4.848  1.7906 -3.8362  3.8961
  182SLPC  C31720862   6.254   0.859   4.815 -0.5251 -0.5681  0.2604
  182SLPC  H17X20863   6.265   0.848   4.925 -1.2087 -1.9572  0.2077
  182SLPC  H17Y20864   6.199   0.956   4.809  1.9810  0.9646  0.4409
  182SLPC  C31820865   6.387   0.871   4.742  1.1705  0.3501 -0.1820
  182SLPC  H18X20866   6.444   0.777   4.744  0.2925 -0.2715  3.9840
  182SLPC  H18Y20867   6.449   0.949   4.791  1.7990  1.1767 -2.1909
  182SLPC  H18Z20868   6.366   0.901   4.637 -1.4819 -0.9534 -0.1290
  183SLPC     N20869   5.115   4.869   1.933  0.1447  0.5905 -0.6036
  183SLPC   C1320870   5.137   5.014   1.964 -0.4603  0.2251 -0.2061
  183SLPC  H13A20871   5.213   5.048   1.894 -0.2989  1.8008  0.6751
  183SLPC  H13B20872   5.047   5.074   1.953  0.8648  2.0411 -2.1874
  183SLPC  H13C20873   5.177   5.028   2.063  1.9739 -0.4274 -1.0183
  183SLPC   C1420874   5.245   4.804   1.958  0.3216  0.0488  0.3539
  183SLPC  H14A20875   5.326   4.841   1.898  0.9779 -2.5157 -0.4802
  183SLPC  H14B20876   5.264   4.797   2.064 -0.0926 -3.9855  0.3257
  183SLPC  H14C20877   5.235   4.698   1.937  1.3472 -0.0261  0.1999
  183SLPC   C1520878   5.073   4.855   1.789  0.2853  0.3211  0.3360
  183SLPC  H15A20879   4.983   4.912   1.770  0.0563 -0.6186 -1.5474
  183SLPC  H15B20880   5.161   4.879   1.731 -0.6698  0.6115 -1.0280
  183SLPC  H15C20881   5.044   4.758   1.752  0.9856  0.6933 -1.2613
  183SLPC   C1220882   5.011   4.807   2.018  0.8578  0.4475 -0.6028
  183SLPC  H12A20883   5.061   4.791   2.112 -0.6061 -0.1544  0.0999
  183SLPC  H12B20884   4.981   4.713   1.973  1.6112 -0.5159  0.8107
  183SLPC   C1120885   4.891   4.892   2.052 -0.3599  0.2350 -0.2958
  183SLPC  H11A20886   4.816   4.824   2.097 -0.6712  0.1095 -0.9882
  183SLPC  H11B20887   4.857   4.946   1.961  2.9656  0.0989 -1.8034
  183SLPC     P20888   4.947   4.975   2.298  0.1696 -0.2638 -0.0272
  183SLPC   O1320889   5.033   5.082   2.343  0.2569  0.4211 -0.0260
  183SLPC   O1420890   4.818   4.972   2.366  0.0972  0.7237  0.5379
  183SLPC   O1220891   4.918   4.997   2.148 -0.1606 -0.2818 -0.2534
  183SLPC   O1120892   5.022   4.842   2.307 -0.7088 -0.0214 -0.0361
  183SLPC    C120893   4.976   4.718   2.366 -0.3439  1.1824 -0.1613
  183SLPC    HA20894   4.870   4.690   2.344 -0.2860 -0.7978  1.7986
  183SLPC    HB20895   5.036   4.635   2.325 -1.9847  1.1248 -2.6999
  183SLPC    C220896   4.994   4.719   2.523  0.7848  0.5091  0.3020
  183SLPC    HS20897   4.952   4.817   2.553  1.4014  0.3744  1.6624
  183SLPC   O2120898   5.133   4.703   2.555 -0.2438 -0.3009  0.0830
  183SLPC   C2120899   5.161   4.761   2.677  0.4237 -0.3086  0.1108
  183SLPC   O2220900   5.085   4.845   2.728  0.2726  0.1441  0.1006
  183SLPC   C2220901   5.276   4.693   2.747  0.5026 -0.5348  0.1049
  183SLPC   H2R20902   5.273   4.584   2.729 -1.9060 -0.4666 -0.1633
  183SLPC   H2S20903   5.362   4.729   2.686  1.3810 -1.0914  0.9817
  183SLPC    C320904   4.902   4.605   2.580  0.3245 -0.3173 -0.1065
  183SLPC    HX20905   4.936   4.512   2.529 -1.5238 -1.0242 -0.1140
  183SLPC    HY20906   4.800   4.604   2.536  0.7773  0.5459 -1.2121
  183SLPC   O3120907   4.884   4.586   2.727 -0.3307 -0.0632 -0.5032
  183SLPC   C3120908   4.812   4.679   2.789 -0.5879  0.1942 -0.4314
  183SLPC   O3220909   4.754   4.771   2.739 -0.2918  0.2548 -0.0475
  183SLPC   C3220910   4.810   4.653   2.943 -0.6494  0.5541 -0.3895
  183SLPC   H2X20911   4.912   4.678   2.979 -0.9450  2.9376 -1.0351
  183SLPC   H2Y20912   4.785   4.546   2.957 -2.1828  0.9846  0.4810
  183SLPC   C2320913   5.286   4.719   2.894 -0.2037 -0.4381 -0.6104
  183SLPC   H3R20914   5.247   4.821   2.912  0.3322 -0.0897 -1.3612
  183SLPC   H3S20915   5.391   4.717   2.930 -0.6617  0.7752  0.8962
  183SLPC   C2420916   5.202   4.613   2.969  0.1903 -0.3029  0.1450
  183SLPC   H4R20917   5.252   4.514   2.974 -2.8956 -2.0143 -0.5295
  183SLPC   H4S20918   5.103   4.604   2.919 -0.0134 -0.3889  0.5634
  183SLPC   C2520919   5.173   4.660   3.114 -0.6130  0.1875 -0.7557
  183SLPC   H5R20920   5.121   4.759   3.113  2.5319  2.0061  0.3385
  183SLPC   H5S20921   5.273   4.681   3.157 -0.8170 -0.7772  0.2317
  183SLPC   C2620922   5.098   4.567   3.212  0.0411  0.1035 -0.1271
  183SLPC   H6R20923   5.144   4.466   3.211 -1.7016 -0.7181 -1.1937
  183SLPC   H6S20924   4.998   4.551   3.167  0.0894  0.7571 -0.4723
  183SLPC   C2720925   5.055   4.615   3.355  0.4025 -0.6774  0.0977
  183SLPC   H7R20926   4.974   4.690   3.347 -0.3487 -1.6385 -2.0571
  183SLPC   H7S20927   5.141   4.654   3.413 -0.4264  1.7776 -0.2279
  183SLPC   C2820928   4.983   4.496   3.428 -0.6340 -0.0053 -0.0465
  183SLPC   H8R20929   5.048   4.406   3.429 -0.9896 -0.2896  2.6157
  183SLPC   H8S20930   4.887   4.471   3.378  1.1248 -3.3913 -2.1514
  183SLPC   C2920931   4.970   4.528   3.574  0.3735 -0.4088  0.3042
  183SLPC   H9R20932   5.065   4.555   3.622  2.1802 -2.9887 -1.5570
  183SLPC  C21020933   4.855   4.509   3.650  0.1720 -0.5635 -0.1199
  183SLPC  H10R20934   4.855   4.536   3.756 -0.1926  0.1474 -0.2968
  183SLPC  C21120935   4.725   4.452   3.607 -0.5832 -0.6383 -0.5788
  183SLPC  H11R20936   4.741   4.343   3.624  1.3844 -0.4145 -0.7888
  183SLPC  H11S20937   4.705   4.475   3.500 -2.9954  2.8524  0.4290
  183SLPC  C21220938   4.611   4.503   3.692  0.3029 -0.2363  0.6219
  183SLPC  H12R20939   4.627   4.605   3.730 -2.1482  0.9912 -1.3232
  183SLPC  C21320940   4.499   4.432   3.715  0.0531  0.0160 -0.5082
  183SLPC  H13R20941   4.420   4.472   3.781 -0.7264 -1.7275 -0.3349
  183SLPC  C21420942   4.455   4.298   3.667  0.7922 -0.4629  0.3893
  183SLPC  H14R20943   4.437   4.230   3.754  0.4247 -0.6596  0.1577
  183SLPC  H14S20944   4.539   4.260   3.605  1.3914  0.6785  0.4687
  183SLPC  C21520945   4.338   4.297   3.567 -0.0684 -0.0613 -0.6100
  183SLPC  H15R20946   4.255   4.338   3.629  0.5073 -1.2947  1.0502
  183SLPC  H15S20947   4.304   4.196   3.537 -2.2615 -0.8807  3.8082
  183SLPC  C21620948   4.381   4.389   3.454 -0.1648 -0.0885 -0.5304
  183SLPC  H16R20949   4.482   4.362   3.415  0.9815  1.0444  1.5104
  183SLPC  H16S20950   4.391   4.495   3.483 -1.7801  0.0483 -0.4000
  183SLPC  C21720951   4.280   4.373   3.329 -0.5444 -0.6467  0.4028
  183SLPC  H17R20952   4.196   4.440   3.359 -0.2070 -0.6778  1.4216
  183SLPC  H17S20953   4.251   4.266   3.324  0.5584 -1.0018  1.4081
  183SLPC  C21820954   4.325   4.415   3.189 -0.2042  0.9472  0.3564
  183SLPC  H18R20955   4.377   4.513   3.191  1.7072 -0.0161  2.8741
  183SLPC  H18S20956   4.235   4.426   3.125 -1.6042  2.8316  2.4616
  183SLPC  H18T20957   4.388   4.330   3.155  0.2650  0.7709  1.6063
  183SLPC   C3320958   4.707   4.742   3.011  0.6145 -0.1254 -0.2891
  183SLPC   H3X20959   4.600   4.733   2.982  0.2635  2.5534 -0.0995
  183SLPC   H3Y20960   4.732   4.848   2.989 -1.4402  0.4556 -0.0715
  183SLPC   C3420961   4.706   4.748   3.165  0.7464  0.2839  0.1445
  183SLPC   H4X20962   4.782   4.820   3.204 -2.4356  2.3967  3.0026
  183SLPC   H4Y20963   4.723   4.644   3.201 -3.3417 -0.7793 -0.4449
  183SLPC   C3520964   4.569   4.786   3.219  0.0655 -0.0501  0.0823
  183SLPC   H5X20965   4.494   4.712   3.184  0.5274 -0.3858 -0.2075
  183SLPC   H5Y20966   4.536   4.888   3.189  0.5237 -0.2055 -0.9923
  183SLPC   C3620967   4.571   4.777   3.373 -0.0725  0.0504  0.6481
  183SLPC   H6X20968   4.630   4.860   3.419  0.1259 -0.6551  1.7106
  183SLPC   H6Y20969   4.609   4.674   3.389 -0.6138 -0.2702 -0.0939
  183SLPC   C3720970   4.431   4.798   3.430 -0.5834  0.5089 -0.2083
  183SLPC   H7X20971   4.373   4.715   3.383  0.9721 -0.9678  0.3613
  183SLPC   H7Y20972   4.395   4.897   3.396 -1.4834  0.5543  0.8335
  183SLPC   C3820973   4.412   4.790   3.577 -0.2201 -0.0995  0.7086
  183SLPC   H8X20974   4.472   4.865   3.632  1.0860 -0.6000  0.0160
  183SLPC   H8Y20975   4.437   4.687   3.610 -0.6552 -0.8317 -1.1061
  183SLPC   C3920976   4.267   4.816   3.622 -0.6442  0.0325 -0.2798
  183SLPC   H9X20977   4.206   4.738   3.570 -1.4231 -1.4857  2.6920
  183SLPC   H9Y20978   4.239   4.920   3.595 -0.2442 -0.5363 -3.1944
  183SLPC  C31020979   4.242   4.784   3.770 -0.0373  0.1675 -0.6025
  183SLPC  H10X20980   4.311   4.847   3.831  1.6447 -0.0379 -2.2095
  183SLPC  H10Y20981   4.269   4.678   3.791  0.0074 -0.1694 -2.2354
  183SLPC  C31120982   4.101   4.808   3.817 -0.2535 -1.2541 -0.0493
  183SLPC  H11X20983   4.036   4.735   3.765 -0.4189 -0.7910 -0.5034
  183SLPC  H11Y20984   4.063   4.907   3.785 -1.8453 -2.2451 -1.3620
  183SLPC  C31220985   4.086   4.791   3.967 -0.1952 -0.3702 -0.2811
  183SLPC  H12X20986   4.143   4.866   4.025  0.1887 -1.3413  0.6403
  183SLPC  H12Y20987   4.124   4.695   4.008 -2.3951 -0.7214  1.1319
  183SLPC  C31320988   3.937   4.801   4.005  0.0124  0.4464 -0.2961
  183SLPC  H13X20989   3.868   4.727   3.959 -1.5061  1.5536  0.1001
  183SLPC  H13Y20990   3.906   4.904   3.978 -0.2526  1.0685  2.1550
  183SLPC  C31420991   3.887   4.789   4.154 -0.2276  0.0109  0.6303
  183SLPC  H14X20992   3.914   4.692   4.203 -2.2645 -0.0638  1.7115
  183SLPC  H14Y20993   3.777   4.782   4.167 -0.2017 -1.5692  0.1732
  183SLPC  C31520994   3.945   4.892   4.249  0.2634  0.0559 -0.5430
  183SLPC  H15X20995   3.911   4.993   4.219 -1.9036  0.0359  1.6125
  183SLPC  H15Y20996   4.056   4.887   4.256  0.0811 -1.5566  2.9420
  183SLPC  C31620997   3.891   4.851   4.387 -0.1127  0.5043  0.7652
  183SLPC  H16X20998   3.952   4.761   4.412  0.9334  0.6330 -1.1656
  183SLPC  H16Y20999   3.784   4.823   4.377  0.2086 -0.7153  0.5610
  183SLPC  C31721000   3.932   4.946   4.503  0.2982  0.2766  0.8574
  183SLPC  H17X21001   4.030   4.995   4.484  1.3611 -2.2583 -0.7556
  183SLPC  H17Y21002   3.952   4.887   4.594 -1.3227 -1.7581 -0.0308
  183SLPC  C31821003   3.834   5.062   4.529 -0.3051 -0.8598 -0.4503
  183SLPC  H18X21004   3.727   5.032   4.526 -0.4937 -0.3255  0.4715
  183SLPC  H18Y21005   3.840   5.142   4.453 -1.0069  0.7030  1.0615
  183SLPC  H18Z21006   3.859   5.106   4.628 -2.6834  0.7041 -0.4678
  184SLPC     N21007   5.627   4.413   2.377  0.2714  0.0584  0.0556
  184SLPC   C1321008   5.620   4.301   2.275  0.4339  0.0569  0.5468
  184SLPC  H13A21009   5.622   4.347   2.178  0.1927  0.1293  0.5754
  184SLPC  H13B21010   5.702   4.233   2.293  1.5076  1.0998 -0.2370
  184SLPC  H13C21011   5.530   4.243   2.284 -1.3844  2.6808  0.3640
  184SLPC   C1421012   5.726   4.508   2.329 -0.0625  0.6679 -0.2073
  184SLPC  H14A21013   5.685   4.564   2.246 -2.0382  1.1906  1.0337
  184SLPC  H14B21014   5.737   4.579   2.410  1.4165  1.1814 -0.8286
  184SLPC  H14C21015   5.817   4.453   2.313 -0.2133  0.6590 -1.0470
  184SLPC   C1521016   5.680   4.368   2.505 -0.7998  0.6321 -0.3404
  184SLPC  H15A21017   5.626   4.288   2.553  0.5911 -0.8524 -1.1338
  184SLPC  H15B21018   5.781   4.334   2.490 -0.7223 -0.0398  1.5012
  184SLPC  H15C21019   5.675   4.449   2.576 -1.5261 -0.1160  0.4946
  184SLPC   C1221020   5.492   4.479   2.387  0.8860 -0.0203 -0.0885
  184SLPC  H12A21021   5.459   4.495   2.285  1.7441  1.0898 -0.2086
  184SLPC  H12B21022   5.511   4.576   2.431  0.6601  0.1925 -0.4511
  184SLPC   C1121023   5.382   4.414   2.475 -0.5790 -0.3002  0.1180
  184SLPC  H11A21024   5.298   4.486   2.484  0.5452  0.9239  1.4781
  184SLPC  H11B21025   5.412   4.411   2.582  1.1342  3.7013 -0.0591
  184SLPC     P21026   5.377   4.151   2.479  0.1055  0.2261 -0.0906
  184SLPC   O1321027   5.246   4.101   2.528  0.4800  0.6940  0.6619
  184SLPC   O1421028   5.464   4.068   2.393 -0.1179 -0.1294  0.2017
  184SLPC   O1221029   5.345   4.289   2.418  0.2439 -0.2840 -0.4498
  184SLPC   O1121030   5.468   4.183   2.603  0.2154  0.6167  0.1710
  184SLPC    C121031   5.520   4.087   2.693  0.4098  0.5391  0.7175
  184SLPC    HA21032   5.501   3.980   2.670 -1.9253  0.1369  3.8723
  184SLPC    HB21033   5.630   4.100   2.695  1.0247 -3.3698  1.5762
  184SLPC    C221034   5.466   4.095   2.840 -0.1444  0.5182 -0.1973
  184SLPC    HS21035   5.355   4.098   2.838 -0.1730 -0.1734  0.0450
  184SLPC   O2121036   5.518   4.208   2.903  0.5172  0.3135  0.3210
  184SLPC   C2121037   5.452   4.316   2.882  0.3795 -0.4403  0.3885
  184SLPC   O2221038   5.341   4.330   2.838  0.0417 -0.4876 -0.1877
  184SLPC   C2221039   5.547   4.435   2.915 -1.5674 -0.0616  0.5590
  184SLPC   H2R21040   5.650   4.400   2.891 -0.7741  3.0426 -1.0234
  184SLPC   H2S21041   5.533   4.521   2.846 -0.9105 -0.2131  0.2226
  184SLPC    C321042   5.527   3.973   2.915  0.4470  0.0962 -0.6809
  184SLPC    HX21043   5.635   3.964   2.888  0.5456 -0.4478 -0.1312
  184SLPC    HY21044   5.482   3.878   2.879 -0.9652  1.0020 -1.3768
  184SLPC   O3121045   5.490   3.975   3.055  1.0152  0.0122  0.0023
  184SLPC   C3121046   5.586   3.971   3.142  0.2317 -0.2739  0.5733
  184SLPC   O3221047   5.706   3.955   3.121  0.4921 -0.6782  0.9187
  184SLPC   C3221048   5.514   3.970   3.277 -0.3494  0.0644 -0.4859
  184SLPC   H2X21049   5.482   3.864   3.287 -0.6320 -0.0260 -2.1144
  184SLPC   H2Y21050   5.436   4.049   3.280 -1.8312 -1.3622  0.1513
  184SLPC   C2321051   5.541   4.469   3.064 -0.7068 -0.6069 -0.0576
  184SLPC   H3R21052   5.443   4.515   3.089 -1.9269 -3.1314  0.1009
  184SLPC   H3S21053   5.608   4.552   3.093  1.2830 -2.5688  1.2386
  184SLPC   C2421054   5.561   4.346   3.153 -0.1750 -0.5307  0.2877
  184SLPC   H4R21055   5.650   4.295   3.108 -0.5401 -0.0593 -0.9992
  184SLPC   H4S21056   5.477   4.274   3.151  0.2964 -1.0754 -0.4056
  184SLPC   C2521057   5.580   4.379   3.296 -0.1383 -0.1729 -1.2480
  184SLPC   H5R21058   5.622   4.482   3.307 -1.3760  0.1198  1.4200
  184SLPC   H5S21059   5.657   4.306   3.329  0.8784  1.4984  0.2521
  184SLPC   C2621060   5.455   4.379   3.374  0.2241  0.0381  0.0772
  184SLPC   H6R21061   5.417   4.276   3.364  0.9205 -0.1100 -1.3786
  184SLPC   H6S21062   5.378   4.444   3.325 -0.5757  0.3096  1.6528
  184SLPC   C2721063   5.480   4.442   3.510 -0.2764  0.3741 -0.1549
  184SLPC   H7R21064   5.531   4.539   3.494  0.6171 -0.3292 -1.7620
  184SLPC   H7S21065   5.559   4.382   3.559 -2.0138 -0.7102  1.4976
  184SLPC   C2821066   5.370   4.466   3.611 -0.2732 -0.2251  1.0153
  184SLPC   H8R21067   5.308   4.373   3.606  0.7571 -0.8848 -3.3530
  184SLPC   H8S21068   5.300   4.541   3.569 -1.6649  1.0141  5.0488
  184SLPC   C2921069   5.407   4.519   3.749  0.6308  0.4455 -0.0755
  184SLPC   H9R21070   5.506   4.563   3.764  0.6517  0.0276  1.1232
  184SLPC  C21021071   5.341   4.477   3.863 -0.1176 -0.2570 -0.3501
  184SLPC  H10R21072   5.382   4.510   3.959  1.2090 -0.6541 -0.7676
  184SLPC  C21121073   5.227   4.382   3.866  0.8376  0.9990 -0.1279
  184SLPC  H11R21074   5.251   4.289   3.810 -2.6468 -1.2033  1.6854
  184SLPC  H11S21075   5.135   4.427   3.825 -1.1600 -0.7038  2.2037
  184SLPC  C21221076   5.195   4.332   4.007 -0.3160 -0.1789 -0.8932
  184SLPC  H12R21077   5.255   4.244   4.036  0.2772  0.9517  1.5979
  184SLPC  C21321078   5.103   4.374   4.099 -0.5641  0.3973  0.2005
  184SLPC  H13R21079   5.082   4.307   4.184 -1.3672 -1.3364 -1.2813
  184SLPC  C21421080   5.007   4.485   4.085 -0.4128 -0.3304  0.9143
  184SLPC  H14R21081   4.981   4.522   3.983 -1.8001 -1.0334  0.9877
  184SLPC  H14S21082   5.039   4.579   4.135  0.8612 -0.4827  0.4180
  184SLPC  C21521083   4.863   4.464   4.139  0.5316  1.1702 -0.2966
  184SLPC  H15R21084   4.811   4.561   4.135  0.9537  1.3593 -1.2714
  184SLPC  H15S21085   4.876   4.426   4.243  2.0858 -2.3612 -1.5938
  184SLPC  C21621086   4.774   4.369   4.057 -0.5281 -0.1134  0.7342
  184SLPC  H16R21087   4.820   4.268   4.060 -2.2228 -1.0033 -1.0576
  184SLPC  H16S21088   4.764   4.407   3.953  0.9667 -1.4127  0.0739
  184SLPC  C21721089   4.634   4.332   4.100  0.0602  0.2369  0.4009
  184SLPC  H17R21090   4.589   4.277   4.015  3.2135 -0.4697 -0.9563
  184SLPC  H17S21091   4.572   4.422   4.119  0.3120  1.4093 -3.4348
  184SLPC  C21821092   4.633   4.231   4.215  0.0859  0.3952 -0.0340
  184SLPC  H18R21093   4.530   4.194   4.235  0.7938 -2.8926 -1.6975
  184SLPC  H18S21094   4.674   4.272   4.310  0.3064  1.8807 -0.7460
  184SLPC  H18T21095   4.689   4.137   4.191 -1.3591 -0.8359  1.2038
  184SLPC   C3321096   5.616   3.995   3.389 -0.1411 -0.0203 -0.2279
  184SLPC   H3X21097   5.693   4.070   3.360 -0.4213 -0.4181 -2.1740
  184SLPC   H3Y21098   5.653   3.896   3.422 -4.1656 -1.3615  0.8507
  184SLPC   C3421099   5.554   4.051   3.517  0.6269  0.0075 -0.0035
  184SLPC   H4X21100   5.460   3.994   3.527  0.9428 -0.8814 -1.7547
  184SLPC   H4Y21101   5.537   4.158   3.490 -0.7861 -0.6839 -2.1088
  184SLPC   C3521102   5.653   4.049   3.634 -0.3432  0.4320  0.5574
  184SLPC   H5X21103   5.743   4.110   3.608  0.4153 -0.3697  1.2391
  184SLPC   H5Y21104   5.687   3.951   3.674 -0.6182  0.4148  0.7504
  184SLPC   C3621105   5.592   4.119   3.762 -1.4213  0.5181  0.0861
  184SLPC   H6X21106   5.505   4.058   3.794 -0.2100 -1.3214  0.0080
  184SLPC   H6Y21107   5.558   4.217   3.723 -1.3634  0.4783 -0.0652
  184SLPC   C3721108   5.693   4.138   3.875  0.5231 -0.5529  0.2461
  184SLPC   H7X21109   5.775   4.199   3.830  0.5933 -0.2824  0.7313
  184SLPC   H7Y21110   5.749   4.050   3.914 -1.7670 -1.2192  2.2929
  184SLPC   C3821111   5.636   4.209   4.007 -0.8228 -0.2466  0.0243
  184SLPC   H8X21112   5.571   4.135   4.059 -1.2407  0.7958  1.0277
  184SLPC   H8Y21113   5.576   4.298   3.980  0.4528  1.0459  1.2869
  184SLPC   C3921114   5.748   4.236   4.114 -0.0872  0.0907  0.5109
  184SLPC   H9X21115   5.824   4.314   4.093  1.5611 -1.3184  1.0192
  184SLPC   H9Y21116   5.803   4.141   4.129 -1.0711 -0.6299 -0.3017
  184SLPC  C31021117   5.705   4.294   4.251 -0.4005 -0.4447  0.5766
  184SLPC  H10X21118   5.791   4.301   4.320  2.1684 -0.2181 -2.4135
  184SLPC  H10Y21119   5.615   4.251   4.300  0.0103 -1.4997  0.4460
  184SLPC  C31121120   5.669   4.444   4.228  0.1735  0.2405 -0.8230
  184SLPC  H11X21121   5.583   4.451   4.158 -0.8300 -1.7375  0.1436
  184SLPC  H11Y21122   5.753   4.503   4.184 -1.9145  2.5540 -1.9965
  184SLPC  C31221123   5.640   4.526   4.355  0.4105 -0.8428  0.4669
  184SLPC  H12X21124   5.601   4.628   4.334 -2.5661 -1.3646  2.7581
  184SLPC  H12Y21125   5.736   4.555   4.403  0.3823 -2.3352  1.4859
  184SLPC  C31321126   5.551   4.480   4.466  0.3054  0.4591 -0.4991
  184SLPC  H13X21127   5.537   4.558   4.544 -0.1697  1.0486 -1.1575
  184SLPC  H13Y21128   5.591   4.394   4.524 -1.7348  0.7297  1.4534
  184SLPC  C31421129   5.407   4.443   4.422  0.0433  0.0450 -0.0961
  184SLPC  H14X21130   5.426   4.363   4.348  1.8602  1.1938 -0.9479
  184SLPC  H14Y21131   5.350   4.535   4.396 -1.1305 -0.8951 -0.9296
  184SLPC  C31521132   5.320   4.376   4.523 -0.6372  0.0039  0.1655
  184SLPC  H15X21133   5.345   4.420   4.622 -1.1729  0.4907  0.0872
  184SLPC  H15Y21134   5.363   4.274   4.516  1.3395  0.8951 -1.6800
  184SLPC  C31621135   5.169   4.387   4.511  0.7537 -0.4396  0.1655
  184SLPC  H16X21136   5.118   4.320   4.583 -3.4255  2.4597  0.2310
  184SLPC  H16Y21137   5.134   4.365   4.408  0.7992  1.6989 -0.3653
  184SLPC  C31721138   5.119   4.529   4.545 -0.3900  0.0107  0.3233
  184SLPC  H17X21139   5.177   4.616   4.507 -1.3573  0.4714 -0.1434
  184SLPC  H17Y21140   5.134   4.535   4.655  1.9549  0.4906  0.0170
  184SLPC  C31821141   4.980   4.555   4.493  0.3016 -0.3889 -0.2082
  184SLPC  H18X21142   4.948   4.661   4.499  1.3537 -0.0398 -0.5219
  184SLPC  H18Y21143   4.906   4.485   4.537  3.2091 -2.3929  1.8188
  184SLPC  H18Z21144   4.971   4.519   4.388 -0.3961 -0.7831 -0.0211
  185POPC     N21145   1.998   4.558   7.378  0.0416 -0.2785  0.6137
  185POPC   C1221146   2.004   4.531   7.230  0.2058 -0.3496  0.8763
  185POPC  H12A21147   2.091   4.585   7.195  0.1391 -1.1900 -0.6864
  185POPC  H12B21148   1.917   4.560   7.173 -0.1195  0.5965  1.8205
  185POPC   C1321149   1.883   4.484   7.448  0.2368 -0.1477 -0.5153
  185POPC  H13A21150   1.874   4.380   7.421 -0.1901  0.1438 -1.5357
  185POPC  H13B21151   1.907   4.484   7.553  0.2126  3.1999 -0.4172
  185POPC  H13C21152   1.787   4.520   7.413 -0.0673 -0.3388  0.1031
  185POPC   C1421153   2.128   4.509   7.434  0.5125 -0.3229 -0.4004
  185POPC  H14A21154   2.156   4.409   7.402  0.9884  0.3370 -2.1229
  185POPC  H14B21155   2.208   4.571   7.397 -1.5853  2.2763 -0.7916
  185POPC  H14C21156   2.135   4.517   7.541  0.9649  4.2739 -0.5851
  185POPC   C1521157   1.989   4.703   7.410  0.1508  0.8243  0.6749
  185POPC  H15A21158   1.902   4.739   7.358  1.0323  0.3304 -1.2390
  185POPC  H15B21159   2.076   4.758   7.377  0.4854  1.0052  1.8252
  185POPC  H15C21160   1.988   4.721   7.516  0.5301 -1.6331  1.1487
  185POPC   C1121161   2.037   4.381   7.187 -0.0934 -0.7639  0.1950
  185POPC  H11A21162   2.010   4.375   7.080 -2.1098  0.3718  0.5933
  185POPC  H11B21163   1.981   4.302   7.240  0.4261 -0.9998  0.4011
  185POPC     P21164   2.300   4.406   7.135  0.2896 -0.2748  0.3446
  185POPC   O1321165   2.407   4.434   7.237  0.3628  0.0009  0.1167
  185POPC   O1421166   2.258   4.519   7.045 -0.0351  0.2856 -0.6260
  185POPC   O1221167   2.174   4.348   7.210  0.0097 -0.0733 -0.6950
  185POPC   O1121168   2.353   4.279   7.053  0.7656  0.3584  0.1686
  185POPC    C121169   2.271   4.203   6.971  0.6359  0.2709  0.3748
  185POPC    HA21170   2.162   4.227   6.974  0.0834 -1.7542 -1.0316
  185POPC    HB21171   2.282   4.102   7.014 -0.5985  0.6175  1.5967
  185POPC    C221172   2.307   4.206   6.821 -0.4970  0.7846 -0.5432
  185POPC    HS21173   2.408   4.160   6.816  0.7991  3.1379  1.5451
  185POPC   O2121174   2.297   4.340   6.777  0.2277 -0.6742  0.2444
  185POPC   C2121175   2.410   4.402   6.768  0.5432 -0.1243 -0.0421
  185POPC   O2221176   2.523   4.356   6.783  0.2837 -0.7035 -0.3250
  185POPC   C2221177   2.371   4.547   6.722 -0.6070  0.2281 -0.3657
  185POPC   H2R21178   2.386   4.604   6.816  0.6522 -2.7066  1.3431
  185POPC   H2S21179   2.262   4.547   6.697 -0.7074 -0.1019  0.0521
  185POPC    C321180   2.213   4.131   6.731  0.2197 -0.5409  0.2878
  185POPC    HX21181   2.108   4.162   6.746 -0.5677 -0.8112 -3.6452
  185POPC    HY21182   2.215   4.022   6.751 -0.1364 -0.2870  1.8259
  185POPC   O3121183   2.234   4.158   6.588 -0.5956 -0.4546  0.0049
  185POPC   C3121184   2.336   4.091   6.540 -1.1674  0.1270  0.2072
  185POPC   O3221185   2.407   4.014   6.605  0.1050 -0.1081  0.7713
  185POPC   C3221186   2.362   4.143   6.399  0.0889  0.4358  0.2435
  185POPC   H2X21187   2.393   4.248   6.416 -0.4764  0.1488  3.6323
  185POPC   H2Y21188   2.265   4.144   6.345 -1.1050  2.4851  2.2792
  185POPC   C2321189   2.450   4.610   6.609  0.0605  0.3806  0.2621
  185POPC   H3R21190   2.553   4.624   6.647 -0.9784 -0.6910  3.9125
  185POPC   H3S21191   2.400   4.707   6.585 -0.7283  0.2668  1.3655
  185POPC   C2421192   2.453   4.527   6.473 -0.3269  0.1852  0.0976
  185POPC   H4R21193   2.351   4.485   6.459 -0.5871 -0.0724  2.3552
  185POPC   H4S21194   2.512   4.433   6.481 -2.0865 -0.9600  0.3599
  185POPC   C2521195   2.495   4.609   6.348 -0.5878 -0.0177  0.2254
  185POPC   H5R21196   2.598   4.647   6.358  0.1835 -1.2259 -2.2152
  185POPC   H5S21197   2.419   4.690   6.337 -1.2928 -0.7146 -0.2168
  185POPC   C2621198   2.475   4.542   6.209 -0.6197 -0.4609 -0.7364
  185POPC   H6R21199   2.539   4.452   6.196 -1.2514 -0.9577 -0.4567
  185POPC   H6S21200   2.513   4.610   6.129  1.3798 -2.0241 -1.1941
  185POPC   C2721201   2.329   4.509   6.186 -0.5356  0.1966  0.5694
  185POPC   H7R21202   2.274   4.591   6.237  0.0128  1.3983 -0.7177
  185POPC   H7S21203   2.306   4.414   6.240 -0.6359 -0.6670 -0.9259
  185POPC   C2821204   2.292   4.500   6.037  0.2835 -0.0088 -0.6437
  185POPC   H8R21205   2.374   4.456   5.975 -1.3974 -0.3949 -2.6960
  185POPC   H8S21206   2.283   4.601   5.992 -0.0808  0.2198 -0.0675
  185POPC   C2921207   2.172   4.409   6.031  0.3035 -0.1917 -0.1689
  185POPC   H9121208   2.091   4.430   6.103  0.9633  0.1441  0.4875
  185POPC  C21021209   2.140   4.299   5.958  0.0665  0.2318  0.8688
  185POPC  H10121210   2.041   4.251   5.970 -0.2406  0.7588  0.5326
  185POPC  C21121211   2.228   4.226   5.855 -0.3263 -0.2841 -0.1185
  185POPC  H11R21212   2.256   4.123   5.888  1.2620  0.0003 -0.4866
  185POPC  H11S21213   2.323   4.276   5.827  0.3600  0.3866  3.0518
  185POPC  C21221214   2.161   4.210   5.716 -0.0455  0.1310 -0.2657
  185POPC  H12R21215   2.240   4.158   5.656  0.1994 -0.1286  0.2731
  185POPC  H12S21216   2.143   4.312   5.676  1.1350  0.6691  0.5195
  185POPC  C21321217   2.048   4.115   5.705  0.2401 -0.0429  0.6290
  185POPC  H13R21218   1.958   4.173   5.735 -0.0809 -0.7538  1.0612
  185POPC  H13S21219   2.055   4.039   5.786  1.2971  0.3882  0.9569
  185POPC  C21421220   2.018   4.058   5.566 -0.3269  0.2524  0.0792
  185POPC  H14R21221   1.916   4.014   5.564 -1.2984  2.3687 -0.6934
  185POPC  H14S21222   2.084   3.972   5.541 -2.9496 -2.1476  0.8401
  185POPC  C21521223   2.029   4.158   5.447  0.3130 -0.3108 -0.6968
  185POPC  H15R21224   2.133   4.191   5.430  0.5381 -0.8588 -0.4060
  185POPC  H15S21225   1.979   4.255   5.466  2.1789  0.7956 -1.1843
  185POPC  C21621226   1.983   4.088   5.322 -0.5831  0.8341  0.2735
  185POPC  H16R21227   1.877   4.059   5.311 -0.0612 -1.6214  1.0342
  185POPC  H16S21228   2.041   3.993   5.329  1.1316  1.7590 -0.6132
  185POPC  C21721229   2.030   4.143   5.192  0.4307  0.2587  0.3726
  185POPC  H17R21230   2.128   4.193   5.205  1.2878 -1.1759 -0.2742
  185POPC  H17S21231   1.960   4.221   5.155 -1.1096 -1.5505 -0.7254
  185POPC  C21821232   2.036   4.041   5.082 -0.2606 -0.5543  0.3422
  185POPC  H18R21233   2.124   3.973   5.084 -0.5408 -0.9534 -0.3383
  185POPC  H18S21234   2.034   4.093   4.984  1.3841 -0.7492  0.1845
  185POPC  H18T21235   1.940   3.989   5.060 -0.3280  0.3795 -1.8258
  185POPC   C3321236   2.473   4.066   6.315  0.6172  0.1681 -0.7368
  185POPC   H3X21237   2.446   3.959   6.323  0.7264  0.1208 -1.0029
  185POPC   H3Y21238   2.569   4.071   6.371  0.2617 -0.8776  0.0072
  185POPC   C3421239   2.492   4.119   6.170 -0.9931 -0.2668 -0.3013
  185POPC   H4X21240   2.531   4.223   6.174  2.2979 -1.4078  0.2920
  185POPC   H4Y21241   2.406   4.101   6.102 -0.3457  1.8856 -1.7768
  185POPC   C3521242   2.614   4.039   6.114  0.5621 -0.1753 -0.0223
  185POPC   H5X21243   2.696   4.041   6.189  0.5300 -0.6636  0.0300
  185POPC   H5Y21244   2.652   4.092   6.024  0.4859  0.7721  0.4899
  185POPC   C3621245   2.580   3.896   6.076 -0.3616  0.3218 -0.0538
  185POPC   H6X21246   2.559   3.834   6.166 -0.1987  0.5479  0.1410
  185POPC   H6Y21247   2.671   3.847   6.036  0.0382  0.2135  0.9845
  185POPC   C3721248   2.473   3.876   5.965  0.4950 -0.4502 -0.5880
  185POPC   H7X21249   2.379   3.915   6.009 -0.3739 -1.1150 -1.7824
  185POPC   H7Y21250   2.456   3.769   5.940  0.4943 -0.3062 -1.2324
  185POPC   C3821251   2.513   3.948   5.841 -0.7802 -0.9521  0.7250
  185POPC   H8X21252   2.619   3.926   5.820 -0.3401 -0.0762  1.9363
  185POPC   H8Y21253   2.499   4.057   5.856  2.4482 -0.2826 -0.4045
  185POPC   C3921254   2.423   3.909   5.726  0.0765 -0.2849  0.0771
  185POPC   H9X21255   2.315   3.927   5.743 -0.3539 -1.9277 -0.6571
  185POPC   H9Y21256   2.437   3.802   5.700  0.3191 -0.0507 -0.7892
  185POPC  C31021257   2.477   3.983   5.597 -0.1547  0.5254  0.7413
  185POPC  H10X21258   2.575   3.938   5.571 -1.4383 -0.5772 -2.8033
  185POPC  H10Y21259   2.484   4.085   5.639 -1.6064  0.0111  2.3653
  185POPC  C31121260   2.371   3.969   5.480 -0.1199  0.1063  0.6234
  185POPC  H11X21261   2.285   4.037   5.499  0.0529  0.5949 -0.2642
  185POPC  H11Y21262   2.329   3.866   5.480 -1.4352  0.6007 -0.4314
  185POPC  C31221263   2.417   4.008   5.330  0.1437 -0.7827 -0.2615
  185POPC  H12X21264   2.338   3.969   5.263 -1.5734 -0.1552  1.3083
  185POPC  H12Y21265   2.500   3.941   5.300  2.2578  1.4723  0.2735
  185POPC  C31321266   2.451   4.150   5.298 -0.2921 -0.4719  1.0798
  185POPC  H13X21267   2.394   4.222   5.360 -1.7206 -0.4648 -0.1709
  185POPC  H13Y21268   2.439   4.174   5.190 -1.4182  1.1358  1.5252
  185POPC  C31421269   2.599   4.181   5.310 -0.2231  0.0285 -0.0971
  185POPC  H14X21270   2.640   4.115   5.390  2.4811 -0.2602 -1.6206
  185POPC  H14Y21271   2.614   4.284   5.349  0.1129  0.2668 -0.8442
  185POPC  C31521272   2.685   4.162   5.180 -0.9336  0.1002 -0.2790
  185POPC  H15X21273   2.682   4.055   5.151 -0.0181  0.3789 -1.4766
  185POPC  H15Y21274   2.786   4.185   5.221 -0.3083 -0.8998 -1.2302
  185POPC  C31621275   2.657   4.262   5.067 -0.1925  0.5652 -0.2375
  185POPC  H16X21276   2.566   4.231   5.012 -0.7519  0.0874  0.9158
  185POPC  H16Y21277   2.745   4.247   5.001  1.2985 -1.1135  1.9543
  185POPC  H16Z21278   2.632   4.365   5.100  1.0404  0.7561  0.1757
  186POPC     N21279   3.550   1.383   7.362  0.1838  0.3716 -0.2611
  186POPC   C1221280   3.630   1.336   7.238  0.1902  0.4126 -0.2515
  186POPC  H12A21281   3.737   1.321   7.242 -0.1378 -2.1280  2.0221
  186POPC  H12B21282   3.613   1.409   7.160 -0.5602  2.6377  1.8923
  186POPC   C1321283   3.621   1.498   7.432 -0.3808 -0.1914  0.2312
  186POPC  H13A21284   3.619   1.592   7.378 -1.6864 -1.6698 -2.5223
  186POPC  H13B21285   3.562   1.512   7.521 -1.6272  2.4766 -0.9049
  186POPC  H13C21286   3.724   1.475   7.452 -1.1102 -1.8187  2.4966
  186POPC   C1421287   3.418   1.436   7.331  0.4019 -0.2371 -0.2997
  186POPC  H14A21288   3.349   1.458   7.411 -0.9588  1.7224 -1.9085
  186POPC  H14B21289   3.406   1.525   7.270 -3.4283 -0.7224 -0.4829
  186POPC  H14C21290   3.372   1.367   7.262  2.8989 -0.5780 -1.7288
  186POPC   C1521291   3.541   1.261   7.453  0.1265  0.7916  0.0055
  186POPC  H15A21292   3.514   1.290   7.554  0.1060 -1.7766  0.8043
  186POPC  H15B21293   3.636   1.211   7.466 -0.9753 -1.5197 -0.4348
  186POPC  H15C21294   3.471   1.188   7.415  1.4050 -0.4250 -0.0745
  186POPC   C1121295   3.594   1.197   7.175  0.0220  0.4098 -0.1279
  186POPC  H11A21296   3.616   1.121   7.253 -0.0512  0.0827 -0.4255
  186POPC  H11B21297   3.667   1.179   7.094 -1.1331 -0.9215 -0.9124
  186POPC     P21298   3.409   1.266   6.991 -0.2264  0.2206 -0.3496
  186POPC   O1321299   3.267   1.314   6.994 -0.1123 -0.2993  0.1885
  186POPC   O1421300   3.431   1.165   6.885 -0.3386  0.3736 -0.3088
  186POPC   O1221301   3.455   1.204   7.133 -0.4892 -0.1479  0.4019
  186POPC   O1121302   3.506   1.391   6.974  0.2753 -0.0894  0.2540
  186POPC    C121303   3.470   1.492   6.878  0.4392 -0.4503  0.3413
  186POPC    HA21304   3.511   1.593   6.896 -2.6545  0.9990 -0.0150
  186POPC    HB21305   3.360   1.509   6.882  0.3728 -0.4531 -1.0235
  186POPC    C221306   3.510   1.458   6.739 -0.7003  0.2571 -0.3293
  186POPC    HS21307   3.496   1.350   6.718 -2.7072  0.5411 -0.6207
  186POPC   O2121308   3.639   1.517   6.709  1.0500 -0.2187  0.2071
  186POPC   C2121309   3.746   1.437   6.722  1.0177 -0.6044  0.0348
  186POPC   O2221310   3.755   1.324   6.767 -0.2992  0.2207  0.1122
  186POPC   C2221311   3.857   1.513   6.666 -0.4878  0.3851 -0.3129
  186POPC   H2R21312   3.907   1.558   6.755 -0.8650 -0.4587  0.3395
  186POPC   H2S21313   3.827   1.588   6.590  0.1035 -0.5406 -1.4991
  186POPC    C321314   3.405   1.530   6.652 -0.0774  0.1101  0.9155
  186POPC    HX21315   3.439   1.635   6.670 -0.7890  0.3957  0.6306
  186POPC    HY21316   3.303   1.508   6.690 -0.2279 -1.9605 -0.5079
  186POPC   O3121317   3.413   1.482   6.513 -0.4205 -0.4139 -0.4159
  186POPC   C3121318   3.476   1.548   6.426 -0.1672 -0.7133 -0.9073
  186POPC   O3221319   3.540   1.652   6.442 -0.0095  0.3756  0.0946
  186POPC   C3221320   3.465   1.483   6.290  0.7757 -0.2088 -0.1539
  186POPC   H2X21321   3.362   1.473   6.250  0.8162  0.5722 -0.4927
  186POPC   H2Y21322   3.500   1.378   6.300 -0.9053 -1.1384 -2.8845
  186POPC   C2321323   3.975   1.429   6.604 -0.1346  0.4779  0.1998
  186POPC   H3R21324   4.004   1.351   6.677 -0.0920 -0.7768 -1.1106
  186POPC   H3S21325   4.059   1.500   6.593 -1.5364  2.2468  0.4984
  186POPC   C2421326   3.936   1.360   6.467  0.0252  0.6679  0.0253
  186POPC   H4R21327   3.881   1.436   6.407 -1.5831  0.8640  1.6578
  186POPC   H4S21328   3.862   1.279   6.486  1.6397 -0.6421  1.0679
  186POPC   C2521329   4.061   1.305   6.391  0.3722 -0.8111 -0.9914
  186POPC   H5R21330   4.107   1.223   6.450  0.1505 -0.8762 -0.9068
  186POPC   H5S21331   4.137   1.385   6.382 -1.7343  1.3072 -1.2348
  186POPC   C2621332   4.030   1.271   6.247 -0.1378 -0.0593 -0.3237
  186POPC   H6R21333   4.131   1.255   6.202  1.2202 -0.3261  2.5970
  186POPC   H6S21334   3.978   1.354   6.195 -0.4926  0.8232  1.4065
  186POPC   C2721335   3.947   1.145   6.215  0.0843  0.2375 -0.2759
  186POPC   H7R21336   3.840   1.156   6.243 -0.0520 -1.9503  0.1867
  186POPC   H7S21337   3.992   1.062   6.274  0.2408  0.0827 -0.6110
  186POPC   C2821338   3.949   1.117   6.068  0.5203 -0.2835  0.0446
  186POPC   H8R21339   3.880   1.030   6.065  0.4968 -0.4065  2.2346
  186POPC   H8S21340   4.050   1.084   6.036  0.7751  2.2849 -2.0919
  186POPC   C2921341   3.893   1.226   5.983 -0.2586  0.2509 -0.1510
  186POPC   H9121342   3.838   1.306   6.035 -1.7445 -0.2505 -0.8784
  186POPC  C21021343   3.892   1.233   5.850 -0.6724 -0.0848 -0.2754
  186POPC  H10121344   3.831   1.315   5.809  1.7035  1.9898  0.0747
  186POPC  C21121345   3.944   1.141   5.745 -0.0522  1.1350  0.7690
  186POPC  H11R21346   4.011   1.064   5.789  1.8420  1.8180 -0.7970
  186POPC  H11S21347   4.011   1.190   5.671  1.3073  0.4871  1.5331
  186POPC  C21221348   3.838   1.086   5.655  0.2410  0.5371  0.4976
  186POPC  H12R21349   3.779   1.170   5.613  2.7660  2.3973  0.4421
  186POPC  H12S21350   3.772   1.019   5.714 -1.6604  0.3832 -1.6367
  186POPC  C21321351   3.880   0.990   5.543  0.7352  0.3912  0.0950
  186POPC  H13R21352   3.910   0.886   5.568 -0.9095 -0.3607 -0.8823
  186POPC  H13S21353   3.965   1.037   5.488  0.4315  2.0356  0.9926
  186POPC  C21421354   3.762   0.973   5.437  0.1512  0.5307 -0.0155
  186POPC  H14R21355   3.724   1.068   5.395  0.3707  0.1310 -1.1659
  186POPC  H14S21356   3.677   0.944   5.501  1.6019 -1.3704  1.1763
  186POPC  C21521357   3.792   0.870   5.325 -0.2181  0.2107 -0.4934
  186POPC  H15R21358   3.706   0.857   5.256  0.6374  2.0145 -1.9997
  186POPC  H15S21359   3.828   0.774   5.369 -0.5521 -0.5441 -1.7971
  186POPC  C21621360   3.915   0.916   5.235  0.3210  0.1063  0.0455
  186POPC  H16R21361   3.998   0.922   5.309 -0.3840  0.4962  0.8252
  186POPC  H16S21362   3.903   1.017   5.191  4.4254  1.1869  0.9447
  186POPC  C21721363   3.948   0.814   5.133  0.1679  0.4184  0.7797
  186POPC  H17R21364   4.019   0.737   5.171  0.0430 -0.9887 -1.6010
  186POPC  H17S21365   4.006   0.869   5.056  1.3638 -1.7926  0.0182
  186POPC  C21821366   3.828   0.737   5.065  0.8377  0.4406 -0.2761
  186POPC  H18R21367   3.860   0.684   4.973  2.2722  0.7511  0.0143
  186POPC  H18S21368   3.758   0.815   5.027 -0.2056 -0.7270 -0.7991
  186POPC  H18T21369   3.774   0.673   5.138 -0.6362  0.9689 -0.8796
  186POPC   C3321370   3.541   1.564   6.184  0.5987 -0.6296  0.2614
  186POPC   H3X21371   3.649   1.585   6.201  0.7826 -1.0109 -0.4376
  186POPC   H3Y21372   3.480   1.657   6.188 -1.1532 -1.7255  0.2710
  186POPC   C3421373   3.515   1.506   6.046 -0.6867 -0.5288 -0.5792
  186POPC   H4X21374   3.405   1.495   6.031 -0.8501  0.4147 -0.1333
  186POPC   H4Y21375   3.559   1.405   6.032 -0.4849 -0.4193 -0.7394
  186POPC   C3521376   3.579   1.597   5.934  0.1096 -0.3217 -0.7236
  186POPC   H5X21377   3.681   1.612   5.975  0.7137 -3.1140 -0.9784
  186POPC   H5Y21378   3.539   1.700   5.943  2.1039  0.2978  2.4321
  186POPC   C3621379   3.566   1.532   5.794  0.9165  0.5780  0.8063
  186POPC   H6X21380   3.462   1.538   5.757  1.1020 -0.8483 -0.0178
  186POPC   H6Y21381   3.598   1.426   5.797  1.6007  0.7531 -0.0365
  186POPC   C3721382   3.646   1.599   5.683  0.0967  0.0308 -0.2730
  186POPC   H7X21383   3.752   1.578   5.711 -0.2024 -2.7686 -0.9247
  186POPC   H7Y21384   3.623   1.704   5.655  0.0409 -0.0077 -0.3709
  186POPC   C3821385   3.623   1.511   5.562  0.3419  0.5068  0.1177
  186POPC   H8X21386   3.514   1.494   5.544  0.3343  0.0054  0.5870
  186POPC   H8Y21387   3.654   1.406   5.582  0.2114  0.6166  0.9344
  186POPC   C3921388   3.697   1.557   5.441 -0.1651  0.2759 -0.5239
  186POPC   H9X21389   3.807   1.563   5.460 -0.0793 -3.0329  0.7398
  186POPC   H9Y21390   3.666   1.661   5.417 -0.4762  0.6764  1.4834
  186POPC  C31021391   3.691   1.454   5.331 -0.0337  0.1218  1.0000
  186POPC  H10X21392   3.585   1.424   5.312  0.2681  0.5195 -1.6618
  186POPC  H10Y21393   3.738   1.357   5.357 -1.9668 -1.2715 -0.3503
  186POPC  C31121394   3.751   1.510   5.196  0.9292  0.1734  1.4902
  186POPC  H11X21395   3.774   1.429   5.123  3.4750 -1.3954  3.8324
  186POPC  H11Y21396   3.852   1.549   5.221  0.5611  2.1415  0.1691
  186POPC  C31221397   3.676   1.624   5.133  0.7326  0.2481 -0.7147
  186POPC  H12X21398   3.666   1.714   5.197  2.6472  0.5606 -0.7856
  186POPC  H12Y21399   3.575   1.579   5.131  0.6490  0.2557  1.3543
  186POPC  C31321400   3.716   1.672   4.996 -0.5753  0.0200  0.8900
  186POPC  H13X21401   3.660   1.768   4.983 -0.5808  0.2975  2.7520
  186POPC  H13Y21402   3.702   1.605   4.908  0.5768  0.8745  0.0299
  186POPC  C31421403   3.861   1.716   4.985  0.4376 -0.1688 -0.0576
  186POPC  H14X21404   3.925   1.628   5.011 -0.0285 -1.0834 -1.8139
  186POPC  H14Y21405   3.877   1.806   5.047 -0.4764 -0.1328  0.1364
  186POPC  C31521406   3.898   1.767   4.843 -0.0121 -0.0686  0.1463
  186POPC  H15X21407   3.825   1.731   4.767  0.9733 -0.0357 -0.8404
  186POPC  H15Y21408   3.994   1.722   4.811  0.1439  0.9335 -0.8420
  186POPC  C31621409   3.912   1.918   4.825  0.2253  0.2139  0.7162
  186POPC  H16X21410   3.828   1.977   4.867 -1.3075 -1.0057 -0.5500
  186POPC  H16Y21411   3.920   1.943   4.717  0.3038 -1.0504  0.4224
  186POPC  H16Z21412   4.008   1.950   4.873  0.8374  2.8433 -1.9679
  187POPC     N21413   4.593   5.513   2.259 -0.3783 -0.5556 -0.1530
  187POPC   C1221414   4.503   5.603   2.342  0.8995  0.0245  1.1521
  187POPC  H12A21415   4.422   5.539   2.375  0.2099  1.9505  3.4492
  187POPC  H12B21416   4.458   5.673   2.274 -0.4475 -1.2589  0.6607
  187POPC   C1321417   4.499   5.439   2.176  0.2268  0.3597 -0.0612
  187POPC  H13A21418   4.547   5.397   2.089  0.3842 -0.4714  0.4120
  187POPC  H13B21419   4.435   5.363   2.218  1.5275 -1.0980 -0.6068
  187POPC  H13C21420   4.425   5.504   2.132  0.4667  0.3415 -0.4988
  187POPC   C1421421   4.677   5.589   2.166  0.3290  0.3787 -0.3837
  187POPC  H14A21422   4.621   5.672   2.126 -0.0367  0.0570 -0.5586
  187POPC  H14B21423   4.763   5.640   2.206 -0.4750  1.6930 -0.2760
  187POPC  H14C21424   4.715   5.531   2.083  0.9635  2.4902 -1.6362
  187POPC   C1521425   4.670   5.417   2.336  1.0141  0.4466  0.3292
  187POPC  H15A21426   4.606   5.340   2.376  1.4465 -0.0339  0.1097
  187POPC  H15B21427   4.727   5.460   2.417  0.3730 -1.0230  1.5992
  187POPC  H15C21428   4.729   5.360   2.265 -1.3472 -1.5621 -0.1392
  187POPC   C1121429   4.569   5.671   2.464 -0.5894  0.5643  0.0964
  187POPC  H11A21430   4.632   5.601   2.524 -0.8375  1.0092  0.8854
  187POPC  H11B21431   4.484   5.705   2.527 -0.8210  1.2443 -0.5726
  187POPC     P21432   4.613   5.928   2.403  0.0459  0.2694  0.0587
  187POPC   O1321433   4.511   5.922   2.298  0.0085  0.7031 -0.1789
  187POPC   O1421434   4.741   6.005   2.370 -0.3847 -0.0192  0.2375
  187POPC   O1221435   4.661   5.779   2.426  0.8714 -0.2175 -0.3951
  187POPC   O1121436   4.545   5.977   2.535  0.5484  0.2547  0.7834
  187POPC    C121437   4.600   5.953   2.664 -0.0600 -0.5003  0.4296
  187POPC    HA21438   4.673   6.031   2.692  1.5665 -1.2421 -1.5168
  187POPC    HB21439   4.652   5.855   2.671 -0.4271 -0.7261  0.0839
  187POPC    C221440   4.485   5.938   2.765 -0.4414  0.3801  0.2306
  187POPC    HS21441   4.421   5.851   2.738  0.5122  0.1547 -1.4556
  187POPC   O2121442   4.419   6.064   2.779 -0.2055 -0.1862 -0.4065
  187POPC   C2121443   4.288   6.071   2.792 -0.2662 -0.9809 -0.9761
  187POPC   O2221444   4.220   5.971   2.802  0.2588  0.3552 -0.3211
  187POPC   C2221445   4.226   6.210   2.806 -0.0648 -0.0377 -0.2023
  187POPC   H2R21446   4.165   6.238   2.717 -1.0480  1.0823  0.7807
  187POPC   H2S21447   4.315   6.273   2.825 -0.0906 -0.0777  0.0585
  187POPC    C321448   4.552   5.904   2.899 -0.8260  0.4876  0.3976
  187POPC    HX21449   4.603   5.805   2.893  1.5522  1.6391  0.6464
  187POPC    HY21450   4.465   5.893   2.968 -1.0137  1.4986  0.3283
  187POPC   O3121451   4.648   6.003   2.932 -0.8921  0.2777  0.9130
  187POPC   C3121452   4.630   6.070   3.050 -0.1167  0.2761 -0.5244
  187POPC   O3221453   4.544   6.043   3.130 -0.0502  0.0969 -0.8410
  187POPC   C3221454   4.723   6.185   3.053 -0.1653 -0.2811  0.1742
  187POPC   H2X21455   4.720   6.226   2.950 -1.2939 -1.0874 -0.1264
  187POPC   H2Y21456   4.827   6.152   3.075 -0.5184 -1.6507 -0.1563
  187POPC   C2321457   4.130   6.218   2.927  0.1516 -0.6909  0.2036
  187POPC   H3R21458   4.036   6.158   2.919 -2.2053  2.5195  1.8207
  187POPC   H3S21459   4.100   6.325   2.923  1.0595 -0.4359  0.0706
  187POPC   C2421460   4.197   6.199   3.066  0.4558  0.1024  0.0650
  187POPC   H4R21461   4.298   6.235   3.037 -0.7297  3.0683 -0.7449
  187POPC   H4S21462   4.215   6.091   3.083 -0.5770 -0.4086 -1.7692
  187POPC   C2521463   4.143   6.287   3.178  0.6508  0.5385  0.0928
  187POPC   H5R21464   4.037   6.274   3.208  0.0564  3.5470 -0.3415
  187POPC   H5S21465   4.144   6.395   3.152 -0.6729  0.6530  0.4025
  187POPC   C2621466   4.225   6.262   3.302  0.1541  0.5440 -0.6446
  187POPC   H6R21467   4.328   6.266   3.259  0.7550 -0.4524  0.6280
  187POPC   H6S21468   4.202   6.156   3.327  0.5017  0.9462  1.5375
  187POPC   C2721469   4.210   6.363   3.420  0.7606 -0.0638 -0.5899
  187POPC   H7R21470   4.100   6.375   3.433  0.3892 -2.1780 -1.2870
  187POPC   H7S21471   4.250   6.459   3.382 -0.9217  1.7893  1.9650
  187POPC   C2821472   4.271   6.311   3.548  0.2570  0.3722 -0.3828
  187POPC   H8R21473   4.380   6.299   3.533 -0.1954 -1.7764 -2.5963
  187POPC   H8S21474   4.218   6.215   3.565 -0.4698  0.6568 -0.9611
  187POPC   C2921475   4.245   6.412   3.655 -0.5025  0.0345  0.2182
  187POPC   H9121476   4.323   6.488   3.673 -0.2200  0.0443 -0.9620
  187POPC  C21021477   4.136   6.420   3.740 -0.8317  0.4370 -0.3148
  187POPC  H10121478   4.126   6.513   3.799 -0.6546  0.4882 -0.3664
  187POPC  C21121479   4.021   6.319   3.747 -0.0187  0.1728 -0.7615
  187POPC  H11R21480   4.034   6.237   3.674 -0.0229  0.3349 -0.9451
  187POPC  H11S21481   3.919   6.354   3.720 -0.4872 -1.8972 -1.8891
  187POPC  C21221482   4.027   6.260   3.889  0.2182  0.2507  1.1217
  187POPC  H12R21483   4.127   6.228   3.925  1.1881  0.3750 -1.2637
  187POPC  H12S21484   3.966   6.167   3.879 -0.6648  0.9934 -0.9711
  187POPC  C21321485   3.961   6.356   3.985  0.3888 -0.0668 -0.1877
  187POPC  H13R21486   3.852   6.356   3.965  0.1419 -1.1318  1.0158
  187POPC  H13S21487   3.996   6.459   3.965 -0.6765  0.3658  0.1503
  187POPC  C21421488   3.985   6.329   4.136 -0.0979 -0.3379 -0.4471
  187POPC  H14R21489   4.093   6.303   4.149  0.8143  1.8686 -2.8791
  187POPC  H14S21490   3.946   6.230   4.170  0.7591 -0.3013  0.7433
  187POPC  C21521491   3.944   6.433   4.232 -0.3872  0.2971 -0.2240
  187POPC  H15R21492   3.965   6.402   4.337 -0.6951 -2.2437 -0.8470
  187POPC  H15S21493   3.833   6.439   4.224 -0.4147 -1.1625 -1.3949
  187POPC  C21621494   4.012   6.567   4.227 -0.1915 -0.3423  0.2822
  187POPC  H16R21495   3.947   6.637   4.283  2.0199  0.7410  1.6130
  187POPC  H16S21496   4.021   6.607   4.124 -0.2709  1.1928  0.8556
  187POPC  C21721497   4.152   6.572   4.290 -0.2101 -0.0886  0.6240
  187POPC  H17R21498   4.222   6.510   4.229  1.3153  0.2530  1.9405
  187POPC  H17S21499   4.159   6.527   4.392  1.4533  0.1086  0.6324
  187POPC  C21821500   4.216   6.705   4.290 -0.0670 -0.1868 -0.2320
  187POPC  H18R21501   4.315   6.690   4.337 -0.0886 -1.4994 -0.5730
  187POPC  H18S21502   4.165   6.772   4.362 -0.3560 -0.3286 -0.3041
  187POPC  H18T21503   4.221   6.761   4.194  0.6028  3.1648  1.6092
  187POPC   C3321504   4.677   6.284   3.162  0.3391 -1.3089  0.3860
  187POPC   H3X21505   4.566   6.290   3.161  0.2006 -3.3531 -0.3304
  187POPC   H3Y21506   4.706   6.381   3.117 -0.1483 -0.0268  2.6856
  187POPC   C3421507   4.746   6.279   3.300 -0.3011  0.6611  0.0333
  187POPC   H4X21508   4.855   6.291   3.284 -0.2735 -0.1209 -0.4249
  187POPC   H4Y21509   4.739   6.172   3.327  3.4918  0.4650  0.7101
  187POPC   C3521510   4.697   6.375   3.408 -0.5863  0.8518  0.2332
  187POPC   H5X21511   4.589   6.352   3.424  0.1614 -1.2880  2.9193
  187POPC   H5Y21512   4.706   6.481   3.377 -1.5658  0.9543  0.2544
  187POPC   C3621513   4.762   6.339   3.539  0.1240 -0.1859 -0.0427
  187POPC   H6X21514   4.871   6.363   3.538  0.8805 -3.1074 -1.9448
  187POPC   H6Y21515   4.758   6.229   3.555 -1.4394 -0.1385  0.0412
  187POPC   C3721516   4.706   6.431   3.647 -0.4651 -0.0956 -0.3498
  187POPC   H7X21517   4.607   6.388   3.674 -0.9107  1.0415 -0.1149
  187POPC   H7Y21518   4.695   6.536   3.612  1.4334  0.1807 -0.1981
  187POPC   C3821519   4.796   6.435   3.771  0.1477 -0.4055  0.0717
  187POPC   H8X21520   4.898   6.470   3.743 -0.9038  1.4175 -1.7070
  187POPC   H8Y21521   4.798   6.336   3.822 -1.0145 -0.2982  0.3508
  187POPC   C3921522   4.745   6.549   3.866  0.4264 -0.5516  0.5839
  187POPC   H9X21523   4.732   6.638   3.801 -1.6279 -2.8504 -2.4261
  187POPC   H9Y21524   4.827   6.584   3.932  1.8281  0.0363 -1.3809
  187POPC  C31021525   4.620   6.505   3.954 -0.0936  0.0774  0.4744
  187POPC  H10X21526   4.597   6.405   3.913  1.8390  0.8951 -3.0062
  187POPC  H10Y21527   4.532   6.572   3.939  0.2322  0.7633  1.4789
  187POPC  C31121528   4.647   6.505   4.104  0.9116  0.1194 -0.1640
  187POPC  H11X21529   4.629   6.610   4.137  1.8354  0.0998  0.4248
  187POPC  H11Y21530   4.749   6.468   4.124  1.2814  1.0308 -0.2994
  187POPC  C31221531   4.547   6.407   4.169 -0.1561 -0.0114  0.1944
  187POPC  H12X21532   4.592   6.308   4.144 -0.7762  0.1986 -1.8918
  187POPC  H12Y21533   4.453   6.424   4.112  0.6982 -0.3569 -1.3567
  187POPC  C31321534   4.533   6.440   4.318 -0.2030  0.1257  0.0989
  187POPC  H13X21535   4.500   6.547   4.321  0.0511  0.2912 -1.7048
  187POPC  H13Y21536   4.622   6.441   4.384  1.6230 -0.2410 -2.2351
  187POPC  C31421537   4.426   6.348   4.388  0.0525 -0.2700 -0.0907
  187POPC  H14X21538   4.460   6.243   4.396  3.4569  0.6766 -0.1070
  187POPC  H14Y21539   4.330   6.346   4.334  0.5160  1.0244 -1.0277
  187POPC  C31521540   4.389   6.394   4.531 -0.1306 -0.8651  0.3116
  187POPC  H15X21541   4.293   6.345   4.555 -1.9854  1.5520 -1.6852
  187POPC  H15Y21542   4.373   6.503   4.515 -0.7799 -1.1547 -1.1025
  187POPC  C31621543   4.493   6.365   4.633 -0.6996 -0.3359  0.6610
  187POPC  H16X21544   4.584   6.428   4.640 -0.5916 -0.3749 -0.2760
  187POPC  H16Y21545   4.534   6.264   4.614  0.8645  0.8462 -3.1601
  187POPC  H16Z21546   4.444   6.363   4.733 -0.4545 -1.4664  0.7640
  188POPC     N21547   5.181   5.422   2.258 -0.7334 -0.6555  0.3758
  188POPC   C1221548   5.256   5.434   2.391  0.4190  0.6341  0.7291
  188POPC  H12A21549   5.260   5.335   2.434  2.9370 -0.2919 -1.3652
  188POPC  H12B21550   5.184   5.488   2.450 -2.3843 -0.5968 -1.3353
  188POPC   C1321551   5.170   5.556   2.202  0.4026  0.5274  0.6169
  188POPC  H13A21552   5.109   5.625   2.258 -1.5456 -1.1456  0.6481
  188POPC  H13B21553   5.266   5.601   2.178  1.0325 -1.2069 -0.3007
  188POPC  H13C21554   5.125   5.552   2.104 -0.6343 -0.9316  1.1305
  188POPC   C1421555   5.256   5.325   2.164  0.2734 -1.2455  0.1553
  188POPC  H14A21556   5.360   5.352   2.156  0.1677 -0.6856  0.5934
  188POPC  H14B21557   5.239   5.227   2.205  1.0860 -1.1164  0.8196
  188POPC  H14C21558   5.219   5.324   2.062 -0.6330  0.0943  0.4399
  188POPC   C1521559   5.045   5.365   2.282 -0.2713  0.8795  0.0059
  188POPC  H15A21560   4.989   5.355   2.190  0.8880 -0.8040 -0.5726
  188POPC  H15B21561   4.987   5.417   2.355  1.2617  2.2983  0.2772
  188POPC  H15C21562   5.065   5.265   2.318 -2.1600 -0.0145 -1.2325
  188POPC   C1121563   5.394   5.504   2.397  0.5892 -0.2484  0.0824
  188POPC  H11A21564   5.430   5.506   2.502  0.5523  1.2256  0.0875
  188POPC  H11B21565   5.378   5.611   2.374  0.3760 -0.0219  1.2034
  188POPC     P21566   5.563   5.311   2.363  0.3485  0.1021 -0.2244
  188POPC   O1321567   5.619   5.238   2.245  0.1400 -0.3742 -0.0209
  188POPC   O1421568   5.462   5.233   2.446 -0.1937 -0.3342  0.0776
  188POPC   O1221569   5.486   5.437   2.310 -0.2705 -0.1959 -0.3927
  188POPC   O1121570   5.672   5.377   2.454 -0.4347  0.6846 -0.4854
  188POPC    C121571   5.736   5.311   2.564  0.2001  0.4315  0.1752
  188POPC    HA21572   5.838   5.346   2.591  0.0501  0.9395  0.0906
  188POPC    HB21573   5.750   5.202   2.543 -2.1746  0.6454 -3.2128
  188POPC    C221574   5.650   5.322   2.697 -0.3265  0.1095 -0.0402
  188POPC    HS21575   5.556   5.269   2.674 -1.2855  1.4429  0.6809
  188POPC   O2121576   5.638   5.460   2.727 -0.1076 -0.2022 -0.3261
  188POPC   C2121577   5.514   5.504   2.771 -0.5661  0.2690 -0.1122
  188POPC   O2221578   5.418   5.431   2.775  0.2761 -0.5716  0.4535
  188POPC   C2221579   5.521   5.649   2.815  0.3605  0.3688  0.3114
  188POPC   H2R21580   5.573   5.714   2.741 -3.0341  0.2993 -2.3302
  188POPC   H2S21581   5.579   5.642   2.910  0.6032 -0.1127  0.1328
  188POPC    C321582   5.720   5.242   2.805 -0.0596 -0.6317 -0.6032
  188POPC    HX21583   5.812   5.298   2.834 -0.1277 -1.4575  1.3941
  188POPC    HY21584   5.759   5.144   2.770  3.7234  0.0178  1.2925
  188POPC   O3121585   5.633   5.230   2.927 -0.4846  0.5675  1.0766
  188POPC   C3121586   5.523   5.155   2.902 -0.0514 -0.7943 -0.0350
  188POPC   O3221587   5.517   5.075   2.809 -0.3410  0.0919  0.5589
  188POPC   C3221588   5.405   5.193   2.989  0.1525 -0.0422  0.2642
  188POPC   H2X21589   5.408   5.304   2.986 -0.2516 -0.0466 -0.6852
  188POPC   H2Y21590   5.427   5.156   3.092 -0.4317 -1.5437 -0.1190
  188POPC   C2321591   5.390   5.722   2.843  0.0616 -0.3214 -0.0882
  188POPC   H3R21592   5.320   5.650   2.890 -0.8572 -0.9362 -2.2962
  188POPC   H3S21593   5.342   5.774   2.758  2.5583  3.6871  0.7080
  188POPC   C2421594   5.410   5.848   2.933  0.4418  0.2297  0.4654
  188POPC   H4R21595   5.320   5.911   2.921  0.8681  0.8606  0.5432
  188POPC   H4S21596   5.501   5.906   2.907  0.3013 -0.5559 -2.0854
  188POPC   C2521597   5.422   5.809   3.081 -0.7244 -0.9434 -0.2630
  188POPC   H5R21598   5.500   5.731   3.095 -1.5394 -1.3850  2.4776
  188POPC   H5S21599   5.328   5.757   3.111  1.0454 -3.7890  0.8053
  188POPC   C2621600   5.444   5.942   3.167  1.0732  0.6502 -0.2361
  188POPC   H6R21601   5.350   6.001   3.167 -0.5708 -1.7870  1.0519
  188POPC   H6S21602   5.521   6.004   3.117  0.1907  1.4475 -0.6280
  188POPC   C2721603   5.491   5.906   3.311  0.6019 -0.4036  0.0331
  188POPC   H7R21604   5.583   5.843   3.310 -0.0132 -1.3809  1.5170
  188POPC   H7S21605   5.417   5.835   3.353  0.0707  0.8416  1.2637
  188POPC   C2821606   5.514   6.025   3.402 -0.1174 -0.2237  0.3445
  188POPC   H8R21607   5.414   6.071   3.416  0.4547  1.9624 -2.0267
  188POPC   H8S21608   5.563   6.103   3.341 -0.4993 -1.4791 -1.6691
  188POPC   C2921609   5.600   6.005   3.522  0.7735  0.1942 -0.0977
  188POPC   H9121610   5.700   5.969   3.492  0.5512  0.1362 -0.7783
  188POPC  C21021611   5.556   5.997   3.650 -1.4611 -0.7875  0.8658
  188POPC  H10121612   5.635   5.982   3.725 -1.2480 -1.4629  0.5127
  188POPC  C21121613   5.427   6.029   3.714  1.1301  0.2141 -0.6395
  188POPC  H11R21614   5.370   6.081   3.634 -2.2849 -0.2690  1.2644
  188POPC  H11S21615   5.438   6.098   3.800 -0.8259  0.7000 -0.7179
  188POPC  C21221616   5.347   5.901   3.743  0.7571 -0.0499 -0.4908
  188POPC  H12R21617   5.345   5.826   3.661  2.8288  0.2957 -0.9110
  188POPC  H12S21618   5.241   5.933   3.751  1.0871  0.7487  0.9463
  188POPC  C21321619   5.397   5.836   3.874  0.4536 -0.2832 -0.3605
  188POPC  H13R21620   5.396   5.906   3.960  0.2860  0.2765 -0.8169
  188POPC  H13S21621   5.499   5.797   3.855 -0.2817 -1.9971 -1.0049
  188POPC  C21421622   5.323   5.707   3.915 -0.4666 -0.2088 -0.4877
  188POPC  H14R21623   5.301   5.633   3.835  1.0523 -1.4401  0.1657
  188POPC  H14S21624   5.223   5.738   3.951 -0.1775 -0.3192  0.4525
  188POPC  C21521625   5.390   5.632   4.038  0.1691 -0.2033  0.0714
  188POPC  H15R21626   5.405   5.705   4.120  0.9722  0.0330 -0.2694
  188POPC  H15S21627   5.495   5.604   4.017  0.2598  0.3600 -0.2658
  188POPC  C21621628   5.298   5.517   4.079  0.3192 -0.1862  0.3342
  188POPC  H16R21629   5.276   5.459   3.987 -1.3140  1.5035 -0.3986
  188POPC  H16S21630   5.201   5.545   4.126 -1.5523 -0.5307 -2.9653
  188POPC  C21721631   5.374   5.423   4.176  0.5188  0.3056 -0.6657
  188POPC  H17R21632   5.414   5.482   4.261  0.0212 -1.0030  0.5215
  188POPC  H17S21633   5.457   5.370   4.124  0.6737 -0.8323  0.6695
  188POPC  C21821634   5.278   5.314   4.232 -0.1328 -0.0784  0.3859
  188POPC  H18R21635   5.331   5.234   4.289 -0.5669 -0.2742  0.5233
  188POPC  H18S21636   5.221   5.262   4.152 -0.4274 -1.3757  1.3959
  188POPC  H18T21637   5.208   5.355   4.307 -0.7770  0.0563 -0.2769
  188POPC   C3321638   5.272   5.142   2.944  0.7280  0.2037 -0.0836
  188POPC   H3X21639   5.274   5.034   2.971 -2.9682  0.4694  1.7708
  188POPC   H3Y21640   5.250   5.146   2.835 -0.4099 -2.0903  0.0062
  188POPC   C3421641   5.151   5.202   3.018 -0.1922 -0.1506  0.0098
  188POPC   H4X21642   5.062   5.165   2.963  0.1515  1.1192 -1.4553
  188POPC   H4Y21643   5.155   5.311   2.998 -1.3597 -0.0652  0.1498
  188POPC   C3521644   5.142   5.173   3.168  0.2277 -0.2935 -0.3645
  188POPC   H5X21645   5.218   5.231   3.224 -0.9779  1.7777 -0.7675
  188POPC   H5Y21646   5.175   5.068   3.188 -0.6042 -0.5894 -0.5045
  188POPC   C3621647   5.007   5.210   3.225  0.5314  0.3294  0.1269
  188POPC   H6X21648   4.919   5.164   3.176  0.5953  1.3447 -0.9941
  188POPC   H6Y21649   5.000   5.320   3.208  0.7221  0.1335 -1.3853
  188POPC   C3721650   4.978   5.167   3.370  0.3940 -0.1617 -0.4111
  188POPC   H7X21651   4.893   5.219   3.417 -0.0713  0.2830 -1.7175
  188POPC   H7Y21652   5.064   5.187   3.437 -0.0086  0.0968  0.0274
  188POPC   C3821653   4.961   5.012   3.376 -0.4936 -0.2311  0.3510
  188POPC   H8X21654   5.065   4.973   3.366 -0.1785  0.8967 -1.0994
  188POPC   H8Y21655   4.903   4.989   3.283 -0.5815  1.6659 -0.0980
  188POPC   C3921656   4.883   4.957   3.491  0.2186  0.2071  0.3344
  188POPC   H9X21657   4.872   4.850   3.463  0.5645  0.3907 -0.5239
  188POPC   H9Y21658   4.784   5.008   3.484  1.1055  1.7786 -2.3536
  188POPC  C31021659   4.935   4.982   3.635  0.7697 -0.1753 -0.2764
  188POPC  H10X21660   4.920   5.088   3.668 -2.0711 -0.9715  1.4020
  188POPC  H10Y21661   5.044   4.963   3.631  0.8163 -0.0762  0.3791
  188POPC  C31121662   4.863   4.888   3.732  0.2653 -0.4934  0.5269
  188POPC  H11X21663   4.898   4.786   3.702  1.6189  0.1346 -0.1078
  188POPC  H11Y21664   4.755   4.910   3.722 -0.1834 -2.3649  0.7722
  188POPC  C31221665   4.905   4.902   3.875 -0.3115 -0.3696  0.5639
  188POPC  H12X21666   4.899   5.006   3.913 -2.0912  0.2579 -1.2186
  188POPC  H12Y21667   5.010   4.865   3.878  0.4268  1.5167 -0.5420
  188POPC  C31321668   4.835   4.805   3.976  0.0477  0.2281  0.5262
  188POPC  H13X21669   4.880   4.805   4.078  1.1565  1.0468  0.0590
  188POPC  H13Y21670   4.861   4.704   3.937  1.8051  0.7904  0.1484
  188POPC  C31421671   4.684   4.815   3.980  0.6251 -0.1672  0.1773
  188POPC  H14X21672   4.638   4.823   3.879 -1.7712  0.5200  1.2637
  188POPC  H14Y21673   4.655   4.908   4.033 -3.3789 -1.4421  0.5694
  188POPC  C31521674   4.613   4.707   4.056  0.6556  0.0131 -0.0101
  188POPC  H15X21675   4.613   4.700   4.166  2.5209  1.6470  0.1419
  188POPC  H15Y21676   4.659   4.612   4.022  1.4736  0.1197  0.7896
  188POPC  C31621677   4.473   4.698   4.008  0.3919  0.5884 -0.4738
  188POPC  H16X21678   4.414   4.628   4.071  1.8762  0.0285  0.3487
  188POPC  H16Y21679   4.463   4.687   3.898 -1.9378  1.3671 -0.4167
  188POPC  H16Z21680   4.413   4.792   4.015  0.1212  0.4683 -1.1551
  189SAPI   C1221681   3.052   3.765   7.207 -0.3760 -0.0149  0.5383
  189SAPI    H221682   2.946   3.734   7.218 -0.4343  0.9926  3.5756
  189SAPI    O221683   3.088   3.807   7.342 -0.7979 -0.1856  0.4551
  189SAPI   HO221684   3.012   3.859   7.370 -0.5610  0.0829  0.6035
  189SAPI   C1321685   3.124   3.629   7.156  0.7266 -0.7448 -0.5480
  189SAPI    H321686   3.064   3.595   7.069 -1.7773 -2.3183  1.6513
  189SAPI    O321687   3.117   3.521   7.253 -0.2148 -0.3020 -0.4185
  189SAPI   HO321688   3.145   3.562   7.335  1.5499  0.4412 -1.3405
  189SAPI   C1421689   3.268   3.643   7.109  0.5774 -0.5807  0.3395
  189SAPI    H421690   3.318   3.648   7.208  0.2633 -1.1446  0.5240
  189SAPI    O421691   3.319   3.535   7.036 -0.6991  0.4548  0.7048
  189SAPI   HO421692   3.371   3.474   7.089 -2.2043 -0.7622  0.8596
  189SAPI   C1521693   3.317   3.778   7.054 -0.4877  0.6020  0.5610
  189SAPI    H521694   3.323   3.761   6.944  1.3670 -0.6241  0.7971
  189SAPI    O521695   3.461   3.811   7.074  0.6779  0.3603  0.1220
  189SAPI   HO521696   3.489   3.871   7.004 -1.8386  2.7153  0.9491
  189SAPI   C1621697   3.225   3.899   7.078 -0.1679 -1.2114 -0.6007
  189SAPI    H621698   3.242   3.946   7.177 -2.6420  0.2166 -0.7708
  189SAPI    O621699   3.249   4.002   6.981  0.2338 -0.9344 -0.2125
  189SAPI   HO621700   3.326   4.050   7.012  1.1397 -0.7209 -2.5799
  189SAPI   C1121701   3.072   3.871   7.090  0.8403 -0.1597 -0.2348
  189SAPI    H121702   3.052   3.820   6.994  0.1162  0.1555 -0.2544
  189SAPI     P21703   2.827   3.987   7.078 -0.0051  0.0024 -0.3468
  189SAPI   O1321704   2.765   4.072   7.184  0.2945  0.2670  0.3400
  189SAPI   O1421705   2.781   3.846   7.066 -0.4022  0.0171  0.4060
  189SAPI   O1221706   2.989   3.993   7.104 -0.7461  0.6921  0.4338
  189SAPI   O1121707   2.806   4.060   6.944 -0.1804 -0.3858  0.4091
  189SAPI    C121708   2.896   4.018   6.834  0.3326 -0.2036  0.2172
  189SAPI    HA21709   3.003   4.038   6.856 -0.3539  0.4098  3.7152
  189SAPI    HB21710   2.880   3.908   6.826  1.3642 -0.2985 -0.7656
  189SAPI    C221711   2.853   4.085   6.702 -0.4436 -0.2352  0.0717
  189SAPI    HS21712   2.923   4.057   6.621 -1.2867  2.0270 -1.5487
  189SAPI   O2121713   2.856   4.227   6.712  0.2831 -0.7867 -1.0554
  189SAPI   C2121714   2.968   4.298   6.693 -0.2867 -0.2411 -0.5854
  189SAPI   O2221715   3.072   4.251   6.656 -0.2634  0.2506  0.6920
  189SAPI   C2221716   2.934   4.450   6.706 -0.1311 -0.5562 -1.1940
  189SAPI   H2R21717   2.831   4.469   6.744 -0.1954 -0.3879 -1.4446
  189SAPI   H2S21718   3.005   4.480   6.786  1.0316  2.8465 -3.2878
  189SAPI    C321719   2.715   4.031   6.663 -0.1262 -0.4581  0.1890
  189SAPI    HX21720   2.675   4.089   6.576  2.8970 -0.1047 -1.0714
  189SAPI    HY21721   2.644   4.064   6.743  0.5775 -1.5743  1.3125
  189SAPI   O3121722   2.714   3.887   6.637  0.9699 -0.2072 -0.0472
  189SAPI   C3121723   2.747   3.840   6.523  0.2322  0.5032 -0.0361
  189SAPI   O3221724   2.780   3.904   6.423 -0.6413  0.4946  1.3865
  189SAPI   C3221725   2.729   3.689   6.529 -0.1374 -0.5829 -0.0950
  189SAPI   H2X21726   2.647   3.669   6.601  0.2954  1.1827  0.9544
  189SAPI   H2Y21727   2.816   3.640   6.576  0.6378  1.9153  1.2401
  189SAPI   C2321728   2.958   4.534   6.584 -0.2648  0.2016 -0.4401
  189SAPI   H3R21729   3.043   4.508   6.517  1.4779 -2.0202  2.3619
  189SAPI   H3S21730   2.986   4.636   6.621 -1.4235  0.2619  0.3157
  189SAPI   C2421731   2.839   4.558   6.490  0.5039  0.5938  0.0853
  189SAPI   H4R21732   2.868   4.610   6.397 -0.3158  0.2716 -0.3629
  189SAPI   H4S21733   2.748   4.605   6.533 -1.0302 -1.4783 -0.7015
  189SAPI   C2521734   2.782   4.419   6.461 -0.0657  0.0147  0.0873
  189SAPI   H5R21735   2.709   4.388   6.537  0.8854  0.8193  1.3894
  189SAPI   C2621736   2.836   4.333   6.374 -0.2992 -0.2880  0.0844
  189SAPI   H6R21737   2.782   4.239   6.353 -0.8837  0.3104 -1.2421
  189SAPI   C2721738   2.945   4.355   6.275 -0.2951 -0.4303 -0.4650
  189SAPI   H7R21739   2.991   4.454   6.294 -2.3158  0.4544 -0.0352
  189SAPI   H7S21740   2.896   4.364   6.176 -3.6491 -0.1385  1.0889
  189SAPI   C2821741   3.036   4.229   6.271  0.1888 -0.7898 -0.0587
  189SAPI   H8R21742   3.110   4.225   6.352  1.2491 -1.1200 -1.0292
  189SAPI   C2921743   3.050   4.136   6.177 -0.5247  0.5557  0.9000
  189SAPI   H9R21744   3.122   4.054   6.193 -0.2272  0.5880 -0.1874
  189SAPI  C21021745   2.967   4.133   6.050  0.3628 -0.1948  0.3274
  189SAPI  H10R21746   3.012   4.195   5.970  1.7788 -0.7747  0.6305
  189SAPI  H10S21747   2.870   4.183   6.073 -0.9695 -1.8610 -1.3937
  189SAPI  C21121748   2.929   3.994   6.000  0.3200  0.4247  0.3275
  189SAPI  H11R21749   2.856   3.938   6.060  0.6377 -1.2387 -0.7765
  189SAPI  C21221750   2.957   3.946   5.879  0.1700 -0.4349  0.2188
  189SAPI  H12R21751   2.922   3.843   5.860 -0.2119 -0.3344  0.3766
  189SAPI  C21321752   3.028   4.027   5.778 -0.9017  0.1844 -0.1414
  189SAPI  H13R21753   3.126   4.072   5.805  0.2689 -1.6400 -1.1156
  189SAPI  H13S21754   2.967   4.110   5.736  0.5901  1.5683  0.3350
  189SAPI  C21421755   3.064   3.938   5.656  0.3265 -0.1253  0.5572
  189SAPI  H14R21756   3.156   3.881   5.678  0.3569 -0.1323  0.4098
  189SAPI  C21521757   2.999   3.915   5.539 -0.1380 -0.3161 -0.2508
  189SAPI  H15R21758   3.038   3.844   5.465 -1.7811 -1.2236 -0.2966
  189SAPI  C21621759   2.854   3.950   5.509  0.5942 -0.3646  0.1186
  189SAPI  H16R21760   2.834   4.051   5.467 -0.4389  1.1258  3.7663
  189SAPI  H16S21761   2.779   3.932   5.589 -2.0926 -2.1811 -2.5943
  189SAPI  C21721762   2.788   3.867   5.401 -0.4792 -0.4824 -0.2508
  189SAPI  H17R21763   2.853   3.868   5.311  1.1707  2.8708  0.7997
  189SAPI  H17S21764   2.692   3.915   5.373  0.4451  3.7806  2.7786
  189SAPI  C21821765   2.762   3.728   5.465 -0.2455  0.7021  0.3689
  189SAPI  H18R21766   2.680   3.738   5.539 -0.5233  1.4259 -0.0383
  189SAPI  H18S21767   2.847   3.681   5.519 -0.6910  0.1464  0.6006
  189SAPI  C21921768   2.717   3.631   5.353  0.3361  0.8370  0.0364
  189SAPI  H19R21769   2.700   3.529   5.395 -0.3722  0.9775  0.1062
  189SAPI  H19S21770   2.797   3.606   5.280 -0.9213  0.7813 -1.3804
  189SAPI  C22021771   2.595   3.669   5.269  0.0888  0.1221 -0.5325
  189SAPI  H20R21772   2.509   3.677   5.339  0.4667  0.9572 -0.1470
  189SAPI  H20S21773   2.572   3.592   5.193  1.7076 -1.4604  0.4877
  189SAPI  H20T21774   2.606   3.769   5.223  1.2463 -0.7511 -2.2619
  189SAPI   C3321775   2.721   3.645   6.385  0.7339  0.0499  0.7592
  189SAPI   H3X21776   2.825   3.650   6.348  0.6023  0.3012  0.4145
  189SAPI   H3Y21777   2.662   3.708   6.315 -0.1821  0.7211  2.0872
  189SAPI   C3421778   2.667   3.502   6.365  0.1089  0.0587  0.1789
  189SAPI   H4X21779   2.565   3.510   6.408  0.0257 -0.8114  0.1463
  189SAPI   H4Y21780   2.729   3.427   6.419 -0.5768 -1.0387 -0.5268
  189SAPI   C3521781   2.672   3.462   6.215  0.2431 -0.4027 -0.1780
  189SAPI   H5X21782   2.679   3.351   6.215 -0.4928 -0.5421 -3.0533
  189SAPI   H5Y21783   2.759   3.506   6.163 -0.1395 -0.4347 -0.8586
  189SAPI   C3621784   2.546   3.500   6.132  0.8088  0.2914  0.1152
  189SAPI   H6X21785   2.516   3.607   6.133  0.2425  0.1323  0.6731
  189SAPI   H6Y21786   2.462   3.439   6.171  0.1147  0.7716 -0.6150
  189SAPI   C3721787   2.547   3.462   5.979 -0.0340 -0.2273 -0.4144
  189SAPI   H7X21788   2.458   3.518   5.946 -0.0479 -1.1242 -2.0023
  189SAPI   H7Y21789   2.544   3.352   5.964 -1.8189 -0.1774 -0.6475
  189SAPI   C3821790   2.669   3.519   5.904  0.1115 -0.8073  0.2805
  189SAPI   H8X21791   2.766   3.475   5.934  0.7619 -0.5150 -1.2949
  189SAPI   H8Y21792   2.676   3.628   5.923 -1.8786 -0.8592  1.6397
  189SAPI   C3921793   2.648   3.490   5.752  0.0993 -0.2559 -0.3066
  189SAPI   H9X21794   2.741   3.500   5.692  0.6364 -1.1904  0.3459
  189SAPI   H9Y21795   2.577   3.568   5.717 -0.4355 -0.4315  0.3676
  189SAPI  C31021796   2.608   3.342   5.730  0.0407 -0.0354  0.4234
  189SAPI  H10X21797   2.502   3.331   5.760 -0.6710 -2.9785 -2.5917
  189SAPI  H10Y21798   2.674   3.276   5.791 -0.3627 -0.5907  0.2613
  189SAPI  C31121799   2.603   3.303   5.575 -0.4254  0.0945  0.0031
  189SAPI  H11X21800   2.575   3.393   5.515 -0.1431 -0.7237 -1.3900
  189SAPI  H11Y21801   2.525   3.227   5.554  0.5280 -1.6590  2.3768
  189SAPI  C31221802   2.736   3.268   5.519 -0.1162  0.2529 -0.2154
  189SAPI  H12X21803   2.773   3.177   5.571 -2.5150  0.0530  1.3112
  189SAPI  H12Y21804   2.805   3.354   5.526 -0.6493  0.5508  1.9579
  189SAPI  C31321805   2.723   3.223   5.373  0.6636  0.7800 -0.7368
  189SAPI  H13X21806   2.651   3.291   5.323 -2.2165 -0.5589  1.3038
  189SAPI  H13Y21807   2.675   3.122   5.372  0.3149  0.9488 -1.1838
  189SAPI  C31421808   2.864   3.229   5.302  1.0103  0.3035 -0.0837
  189SAPI  H14X21809   2.942   3.167   5.352  0.0671 -0.7547  0.1351
  189SAPI  H14Y21810   2.904   3.332   5.312  1.4247  0.3689 -2.0529
  189SAPI  C31521811   2.844   3.190   5.156  0.1880  0.4677  0.5147
  189SAPI  H15X21812   2.783   3.269   5.106 -1.1870 -0.6018  0.4343
  189SAPI  H15Y21813   2.787   3.094   5.162 -1.4111  1.4099  0.9966
  189SAPI  C31621814   2.973   3.174   5.071 -0.8103 -0.0887 -1.0081
  189SAPI  H16X21815   3.041   3.102   5.121 -1.5013 -0.3874 -0.4798
  189SAPI  H16Y21816   3.025   3.272   5.064  1.1982 -1.0692 -0.6991
  189SAPI  C31721817   2.944   3.116   4.936 -0.3876  0.0023  0.0462
  189SAPI  H17X21818   2.883   3.189   4.879  0.0846  0.4912  0.1615
  189SAPI  H17Y21819   2.876   3.029   4.952 -1.1703  0.7490  0.9207
  189SAPI  C31821820   3.068   3.088   4.859  0.0877  0.0781  0.6798
  189SAPI  H18X21821   3.040   3.059   4.756 -1.2280  1.9567  0.4755
  189SAPI  H18Y21822   3.130   3.013   4.914  2.7898  0.3408 -1.7757
  189SAPI  H18Z21823   3.117   3.188   4.857  0.4340 -0.0680  1.3969
  190SAPI   C1221824   3.686   4.842   6.722 -0.3550 -0.3420 -0.0105
  190SAPI    H221825   3.653   4.823   6.618 -0.3354  0.8321 -0.2452
  190SAPI    O221826   3.768   4.952   6.718  0.3741  0.9576  0.0361
  190SAPI   HO221827   3.839   4.918   6.664 -0.8815  1.2772 -1.9303
  190SAPI   C1321828   3.550   4.867   6.787  0.3778  0.9433  0.2863
  190SAPI    H321829   3.491   4.775   6.773 -1.0125  1.9276 -0.5352
  190SAPI    O321830   3.475   4.969   6.723 -0.0883 -0.2408  0.3425
  190SAPI   HO321831   3.390   4.931   6.700  0.2156  1.1744 -4.3531
  190SAPI   C1421832   3.573   4.884   6.935 -0.0419 -0.0720  0.0291
  190SAPI    H421833   3.624   4.981   6.920 -1.5173  0.2348 -4.3784
  190SAPI    O421834   3.445   4.892   7.000 -0.0013 -0.3169 -0.7890
  190SAPI   HO421835   3.391   4.813   6.987 -1.2737  0.4407 -0.2485
  190SAPI   C1521836   3.665   4.788   7.006  0.2949 -0.2463 -0.7370
  190SAPI    H521837   3.607   4.695   7.026  0.7520 -0.4380 -0.2792
  190SAPI    O521838   3.704   4.841   7.130 -0.8268 -0.1497  0.4483
  190SAPI   HO521839   3.628   4.830   7.189 -0.5300  0.9018  1.0512
  190SAPI   C1621840   3.777   4.727   6.921  0.3072  0.2183 -0.1688
  190SAPI    H621841   3.863   4.798   6.925  0.6924 -0.2723  0.5794
  190SAPI    O621842   3.833   4.611   6.979 -0.3269  0.4314 -0.1471
  190SAPI   HO621843   3.827   4.542   6.913 -2.8563 -0.8336  1.2738
  190SAPI   C1121844   3.749   4.712   6.778  0.0640 -0.3570  0.2201
  190SAPI    H121845   3.673   4.631   6.769 -0.2208  0.0508 -1.2531
  190SAPI     P21846   3.902   4.525   6.669  0.2202  0.1690  0.3861
  190SAPI   O1321847   3.858   4.433   6.780  0.1879 -0.0512 -0.0738
  190SAPI   O1421848   4.046   4.515   6.640  0.0654 -0.2174 -0.1742
  190SAPI   O1221849   3.865   4.679   6.704  0.1744 -0.2064  0.3522
  190SAPI   O1121850   3.816   4.493   6.539 -0.0507  0.0983 -0.5470
  190SAPI    C121851   3.817   4.581   6.425 -0.2408  0.4487  0.2817
  190SAPI    HA21852   3.729   4.549   6.365 -0.6719  1.4647  0.3597
  190SAPI    HB21853   3.796   4.687   6.452  2.4340  1.2497 -0.4148
  190SAPI    C221854   3.950   4.571   6.343 -0.4731 -0.4290 -0.1583
  190SAPI    HS21855   4.027   4.616   6.409 -0.3488 -2.3189  1.0496
  190SAPI   O2121856   3.937   4.666   6.235 -0.0414  0.3516  0.1812
  190SAPI   C2121857   4.047   4.729   6.192  0.2267  0.1860 -0.1978
  190SAPI   O2221858   4.156   4.726   6.243  0.1680  0.3198  0.6995
  190SAPI   C2221859   4.009   4.820   6.076 -0.7023 -0.5514 -0.0578
  190SAPI   H2R21860   3.949   4.899   6.126 -0.4274 -0.5608  0.2882
  190SAPI   H2S21861   4.106   4.869   6.049 -0.2762 -1.3510 -0.0074
  190SAPI    C321862   3.988   4.428   6.303  0.5906 -0.1143 -0.0975
  190SAPI    HX21863   3.895   4.384   6.260  0.2625  1.2438 -0.8399
  190SAPI    HY21864   4.010   4.369   6.395  0.3908  1.1251  0.7718
  190SAPI   O3121865   4.090   4.427   6.203  0.3491  0.1235  0.5273
  190SAPI   C3121866   4.220   4.442   6.246 -0.3441  0.6102 -0.6100
  190SAPI   O3221867   4.255   4.439   6.362 -0.1161 -0.2171 -0.0015
  190SAPI   C3221868   4.307   4.458   6.122 -0.1622  0.6756 -0.1901
  190SAPI   H2X21869   4.413   4.469   6.152  0.4646 -0.2832 -1.9080
  190SAPI   H2Y21870   4.258   4.544   6.072  0.7118  0.2578 -1.8429
  190SAPI   C2321871   3.923   4.762   5.959 -0.2171  0.0186 -0.2529
  190SAPI   H3R21872   3.879   4.848   5.906 -0.9210  0.6437  1.2747
  190SAPI   H3S21873   3.839   4.696   5.990  0.0044  0.0946  0.5437
  190SAPI   C2421874   4.021   4.678   5.871  0.5561 -0.2719 -0.3836
  190SAPI   H4R21875   4.055   4.585   5.921 -0.9496 -0.2558  0.7227
  190SAPI   H4S21876   4.113   4.735   5.846 -0.0724  0.0258 -2.2421
  190SAPI   C2521877   3.952   4.650   5.741 -0.2522 -0.1793  0.8063
  190SAPI   H5R21878   3.962   4.726   5.663  0.3551 -1.2140 -0.1536
  190SAPI   C2621879   3.907   4.525   5.707  0.2740 -0.8840  0.6692
  190SAPI   H6R21880   3.847   4.523   5.615  2.7301  1.3220 -1.1377
  190SAPI   C2721881   3.912   4.403   5.798  0.6967 -0.3683  0.0459
  190SAPI   H7R21882   3.894   4.441   5.900 -0.3167 -0.3991 -0.1151
  190SAPI   H7S21883   4.012   4.354   5.788  0.6014 -0.1368 -3.2440
  190SAPI   C2821884   3.787   4.316   5.773  0.2400  0.1196 -0.1273
  190SAPI   H8R21885   3.699   4.359   5.823  1.5912  1.8674  0.8455
  190SAPI   C2921886   3.778   4.195   5.708  0.2203 -0.1208  0.0769
  190SAPI   H9R21887   3.681   4.143   5.699  0.1527  0.1191 -0.6834
  190SAPI  C21021888   3.893   4.122   5.647  0.0117 -0.0246 -0.0810
  190SAPI  H10R21889   3.979   4.118   5.717  1.0814 -1.1098 -1.4016
  190SAPI  H10S21890   3.926   4.176   5.556  1.8494 -0.2054  0.4380
  190SAPI  C21121891   3.866   3.980   5.615 -0.4076 -0.6183  0.3800
  190SAPI  H11R21892   3.797   3.921   5.676  0.7396 -2.0176  0.3561
  190SAPI  C21221893   3.913   3.916   5.508 -0.8245 -0.2447  0.2433
  190SAPI  H12R21894   3.885   3.810   5.501  1.7218 -1.0511  1.1040
  190SAPI  C21321895   3.996   3.984   5.403  0.4212 -0.0475  0.1256
  190SAPI  H13R21896   4.078   4.045   5.448 -0.7184  0.6996  1.2405
  190SAPI  H13S21897   3.933   4.061   5.354 -0.3046 -1.1899 -0.7733
  190SAPI  C21421898   4.039   3.882   5.300 -0.3926 -0.7446  0.3959
  190SAPI  H14R21899   4.107   3.805   5.340  0.9781  0.8843  1.3260
  190SAPI  C21521900   3.990   3.868   5.174  0.0237  0.1243 -0.6293
  190SAPI  H15R21901   4.030   3.790   5.108  2.9793  0.9375  0.0592
  190SAPI  C21621902   3.883   3.936   5.104  0.3279 -0.1522 -0.4722
  190SAPI  H16R21903   3.849   4.033   5.147  2.3238 -0.0736  1.0567
  190SAPI  H16S21904   3.794   3.872   5.084  0.9450 -0.5530 -2.1160
  190SAPI  C21721905   3.939   3.986   4.965  0.0587 -0.4949 -0.3444
  190SAPI  H17R21906   4.048   4.007   4.967 -0.3739  2.0201  0.0233
  190SAPI  H17S21907   3.900   4.082   4.924  2.2461  0.1074 -1.1286
  190SAPI  C21821908   3.920   3.882   4.854  0.1684 -0.2443  0.1905
  190SAPI  H18R21909   3.827   3.827   4.880 -0.9554  1.1765 -0.6915
  190SAPI  H18S21910   3.999   3.804   4.856 -2.1788 -2.8351 -0.9374
  190SAPI  C21921911   3.894   3.923   4.709 -0.1811 -0.0996 -0.1797
  190SAPI  H19R21912   3.811   3.997   4.702 -0.1716 -0.0256  0.4115
  190SAPI  H19S21913   3.872   3.839   4.641  0.2276 -0.4860  0.1572
  190SAPI  C22021914   4.016   4.006   4.660  0.5187  0.6059 -0.4696
  190SAPI  H20R21915   4.019   4.010   4.549 -0.0331 -0.8497 -0.5545
  190SAPI  H20S21916   4.113   3.957   4.683  1.2989  2.8661  1.4186
  190SAPI  H20T21917   4.030   4.107   4.705  0.0631 -0.1411  1.4812
  190SAPI   C3321918   4.299   4.342   6.026  0.2043 -0.3677 -1.1616
  190SAPI   H3X21919   4.194   4.308   6.011 -0.9999  1.8928  1.3160
  190SAPI   H3Y21920   4.355   4.256   6.069  0.5862  0.9750  1.2514
  190SAPI   C3421921   4.370   4.376   5.897 -0.0529 -0.0083 -0.2024
  190SAPI   H4X21922   4.479   4.390   5.917 -0.0830  0.6467 -0.4561
  190SAPI   H4Y21923   4.338   4.478   5.867 -0.4717 -0.6851 -2.2245
  190SAPI   C3521924   4.343   4.269   5.790 -0.6789  0.3644 -0.2495
  190SAPI   H5X21925   4.234   4.258   5.771 -0.5406 -1.9155 -0.0240
  190SAPI   H5Y21926   4.376   4.172   5.834 -1.8914  0.4754  0.9839
  190SAPI   C3621927   4.421   4.291   5.659 -0.3294  0.9545 -0.3242
  190SAPI   H6X21928   4.407   4.198   5.599 -0.0113  1.1200 -0.6590
  190SAPI   H6Y21929   4.532   4.295   5.671 -0.4262 -0.0702  1.1785
  190SAPI   C3721930   4.382   4.406   5.565  0.5360 -0.0679 -0.1922
  190SAPI   H7X21931   4.451   4.399   5.478  1.6038 -1.3852  0.7142
  190SAPI   H7Y21932   4.410   4.504   5.609 -0.8322 -0.5155  1.8412
  190SAPI   C3821933   4.231   4.403   5.540  0.0259 -0.2809  0.4022
  190SAPI   H8X21934   4.186   4.422   5.640 -0.8718  1.4233 -0.2870
  190SAPI   H8Y21935   4.198   4.302   5.506 -0.4099 -0.0100  0.0221
  190SAPI   C3921936   4.181   4.505   5.436 -0.6534  0.0692  0.8481
  190SAPI   H9X21937   4.235   4.602   5.444  0.8345 -0.7204  0.7773
  190SAPI   H9Y21938   4.072   4.514   5.456 -0.5574  1.8277  0.7264
  190SAPI  C31021939   4.206   4.459   5.286  0.3729  0.4559 -0.4392
  190SAPI  H10X21940   4.152   4.363   5.270 -0.5365  0.5666  1.6845
  190SAPI  H10Y21941   4.317   4.449   5.283  0.4911  1.1917  0.7633
  190SAPI  C31121942   4.161   4.561   5.185 -0.4328  0.9706  0.5242
  190SAPI  H11X21943   4.196   4.659   5.222  1.5663  0.2247  0.7176
  190SAPI  H11Y21944   4.050   4.557   5.179 -0.7860  5.0369  1.7918
  190SAPI  C31221945   4.226   4.529   5.047 -0.8087 -0.7348 -0.0169
  190SAPI  H12X21946   4.169   4.441   5.008 -2.8179  0.4294  0.1487
  190SAPI  H12Y21947   4.332   4.494   5.045 -0.6685 -0.3259 -2.0636
  190SAPI  C31321948   4.215   4.628   4.939 -0.8342 -0.2140 -0.4097
  190SAPI  H13X21949   4.304   4.691   4.960 -1.9283  0.8109  1.4133
  190SAPI  H13Y21950   4.127   4.696   4.947  0.3340  1.3588 -0.4930
  190SAPI  C31421951   4.243   4.566   4.805 -0.6139  0.5153  0.0879
  190SAPI  H14X21952   4.174   4.483   4.776  0.1339  0.2440 -0.9644
  190SAPI  H14Y21953   4.347   4.534   4.822 -1.0959 -2.8288 -2.1980
  190SAPI  C31521954   4.240   4.675   4.699  0.1254 -0.1771  0.2612
  190SAPI  H15X21955   4.321   4.749   4.711  0.3601 -0.0959 -1.4914
  190SAPI  H15Y21956   4.153   4.744   4.711  0.8267  0.8944 -0.6135
  190SAPI  C31621957   4.260   4.635   4.555  0.5225 -0.9776  0.4724
  190SAPI  H16X21958   4.177   4.567   4.524 -0.7240  0.1479  1.2200
  190SAPI  H16Y21959   4.365   4.599   4.550  1.0643  0.5872 -0.0577
  190SAPI  C31721960   4.262   4.751   4.454  0.0433  0.2716  0.0962
  190SAPI  H17X21961   4.332   4.833   4.480 -1.0667  1.1773  0.3160
  190SAPI  H17Y21962   4.156   4.781   4.464 -1.2596 -3.4984 -0.6213
  190SAPI  C31821963   4.290   4.710   4.306 -0.0955 -0.2943  0.0949
  190SAPI  H18X21964   4.386   4.655   4.305  0.0940 -0.0045  0.9915
  190SAPI  H18Y21965   4.293   4.800   4.241 -2.7056 -0.0976  0.1292
  190SAPI  H18Z21966   4.204   4.645   4.277 -1.0839  0.9495  0.1227
  191SAPI   C1221967   3.599   0.237   2.300 -0.1235  0.2724  0.7183
  191SAPI    H221968   3.546   0.251   2.398 -1.0885 -0.4673  0.3261
  191SAPI    O221969   3.530   0.138   2.221  0.2406  0.0588 -0.6538
  191SAPI   HO221970   3.527   0.067   2.286  2.1496  0.7033  0.2271
  191SAPI   C1321971   3.602   0.373   2.220  0.7095  1.0086 -0.9864
  191SAPI    H321972   3.666   0.438   2.284 -1.2181  0.1350  2.0060
  191SAPI    O321973   3.470   0.424   2.215  0.2551 -0.2788 -0.4801
  191SAPI   HO321974   3.423   0.349   2.179  3.3484 -1.9924 -1.2727
  191SAPI   C1421975   3.669   0.359   2.089  0.4481 -0.0133 -0.5318
  191SAPI    H421976   3.600   0.297   2.027  1.0839  0.2054 -1.4797
  191SAPI    O421977   3.689   0.486   2.024 -0.0244 -0.2180 -0.4349
  191SAPI   HO421978   3.721   0.473   1.935 -1.3053  0.7272 -1.0720
  191SAPI   C1521979   3.807   0.281   2.097 -0.1872  0.2561 -0.6890
  191SAPI    H521980   3.881   0.351   2.140 -0.2169 -1.0778  1.7196
  191SAPI    O521981   3.857   0.236   1.974  0.2550  0.1098 -0.5245
  191SAPI   HO521982   3.794   0.179   1.928 -0.0016 -0.2543  0.2625
  191SAPI   C1621983   3.817   0.168   2.195 -0.0934 -0.1772 -0.6703
  191SAPI    H621984   3.770   0.083   2.142  0.8106  0.6407 -2.8637
  191SAPI    O621985   3.959   0.122   2.223  0.4111 -0.4875  0.4973
  191SAPI   HO621986   3.957   0.128   2.319 -1.3138  0.8882  0.4284
  191SAPI   C1121987   3.734   0.186   2.324 -0.5032  0.1883 -0.4261
  191SAPI    H121988   3.778   0.267   2.387 -0.1693 -0.3420  0.0355
  191SAPI     P21989   3.831   0.014   2.510 -0.1191  0.3054  0.3650
  191SAPI   O1321990   3.968   0.059   2.466  0.0542  0.1059  0.0669
  191SAPI   O1421991   3.800  -0.128   2.541 -0.3800 -1.0578  0.1765
  191SAPI   O1221992   3.726   0.058   2.391 -0.1970 -0.5059 -1.1158
  191SAPI   O1121993   3.779   0.106   2.629  0.2423 -0.6756  0.0308
  191SAPI    C121994   3.679   0.081   2.725  0.4134  0.0272  0.1217
  191SAPI    HA21995   3.621   0.174   2.745 -0.5760 -0.5096 -0.1579
  191SAPI    HB21996   3.593   0.024   2.682 -0.3100  1.8969 -1.0343
  191SAPI    C221997   3.733   0.025   2.859  0.5683 -0.2738 -0.6170
  191SAPI    HS21998   3.745  -0.082   2.833  1.5207  0.0599 -1.6241
  191SAPI   O2121999   3.626   0.062   2.946  0.6081 -0.7599  0.3710
  191SAPI   C2122000   3.604  -0.027   3.042 -0.1007  0.0916 -0.4849
  191SAPI   O2222001   3.662  -0.137   3.050 -0.7868 -0.3758  0.6472
  191SAPI   C2222002   3.496   0.016   3.145  0.3403  0.2499  0.6122
  191SAPI   H2R22003   3.538   0.097   3.207 -0.1984  1.1873 -0.2175
  191SAPI   H2S22004   3.416   0.056   3.078 -0.8384 -1.1459  1.1111
  191SAPI    C322005   3.871   0.082   2.898  0.4487 -0.4593  0.3698
  191SAPI    HX22006   3.855   0.189   2.923  1.7690 -0.4020  0.9986
  191SAPI    HY22007   3.942   0.070   2.813 -0.5427  0.5290 -0.6446
  191SAPI   O3122008   3.925   0.024   3.015 -0.1443 -0.4104 -0.1987
  191SAPI   C3122009   3.981  -0.098   3.007 -0.3425 -0.0053  0.0687
  191SAPI   O3222010   4.010  -0.150   2.901  0.1703 -0.8282 -0.2049
  191SAPI   C3222011   3.999  -0.164   3.143 -0.7967  0.1652 -0.0969
  191SAPI   H2X22012   4.076  -0.242   3.128 -1.4423 -0.2638 -1.3713
  191SAPI   H2Y22013   3.895  -0.196   3.166 -1.1879  0.8907 -0.7717
  191SAPI   C2322014   3.434  -0.095   3.227 -0.1881  0.0969  0.0750
  191SAPI   H3R22015   3.415  -0.186   3.167 -0.7796  0.7889 -0.8148
  191SAPI   H3S22016   3.338  -0.051   3.263  0.0387  1.4663 -0.9130
  191SAPI   C2422017   3.513  -0.112   3.360  0.4213  0.4425 -0.5362
  191SAPI   H4R22018   3.501  -0.012   3.405 -2.2438  1.1638 -2.5700
  191SAPI   H4S22019   3.617  -0.113   3.321  0.0043  0.3553 -1.7016
  191SAPI   C2522020   3.488  -0.233   3.446  0.9521 -0.2981  0.4578
  191SAPI   H5R22021   3.528  -0.328   3.410  0.6806 -0.0148 -0.6332
  191SAPI   C2622022   3.449  -0.222   3.578 -0.1577 -0.2368 -0.7303
  191SAPI   H6R22023   3.431  -0.311   3.641  1.5658  0.8364  1.4337
  191SAPI   C2722024   3.401  -0.100   3.655 -0.4373 -0.1780  0.1504
  191SAPI   H7R22025   3.376  -0.021   3.581  0.5894  0.0197 -0.0055
  191SAPI   H7S22026   3.484  -0.070   3.722 -0.0266  0.2054 -0.5212
  191SAPI   C2822027   3.276  -0.120   3.739  0.5320  0.0338  0.4182
  191SAPI   H8R22028   3.271  -0.216   3.791  2.5931 -0.3620 -0.0216
  191SAPI   C2922029   3.169  -0.038   3.756  0.4916  0.3710 -0.2259
  191SAPI   H9R22030   3.094  -0.068   3.831  2.3362  0.7131  1.8424
  191SAPI  C21022031   3.143   0.094   3.679 -0.0311  0.5402  0.2634
  191SAPI  H10R22032   3.111   0.084   3.573 -0.5216 -3.4865  0.6326
  191SAPI  H10S22033   3.237   0.153   3.676 -0.1905  0.7905  0.0901
  191SAPI  C21122034   3.034   0.167   3.744 -0.1042 -0.2736  0.1738
  191SAPI  H11R22035   2.946   0.103   3.757  0.6486 -1.2461  0.6541
  191SAPI  C21222036   3.036   0.290   3.794  0.0380 -0.1958 -0.2545
  191SAPI  H12R22037   2.945   0.328   3.843 -1.3885 -2.2915 -1.1705
  191SAPI  C21322038   3.165   0.377   3.800 -0.2079 -0.1715 -0.0960
  191SAPI  H13R22039   3.212   0.380   3.700  0.2102 -1.0738  0.0700
  191SAPI  H13S22040   3.229   0.313   3.864  1.3553 -0.0373 -1.4743
  191SAPI  C21422041   3.150   0.513   3.859  0.3203  0.5412 -0.6690
  191SAPI  H14R22042   3.131   0.591   3.784 -0.2220 -0.5355 -1.6678
  191SAPI  C21522043   3.176   0.553   3.992 -0.1187  0.4471 -0.2976
  191SAPI  H15R22044   3.152   0.657   4.018 -0.2098  0.3839 -0.1261
  191SAPI  C21622045   3.219   0.453   4.098 -0.4245  0.2579 -0.1003
  191SAPI  H16R22046   3.327   0.429   4.101 -0.9389 -2.6368 -1.4389
  191SAPI  H16S22047   3.179   0.350   4.088 -0.1496  0.3441 -3.1104
  191SAPI  C21722048   3.167   0.516   4.221 -0.1526  0.1053 -0.2380
  191SAPI  H17R22049   3.057   0.532   4.218 -0.0246  1.0579 -0.2093
  191SAPI  H17S22050   3.226   0.603   4.256 -1.8649  1.2327 -0.0225
  191SAPI  C21822051   3.175   0.418   4.335 -0.3593 -0.0285 -0.1560
  191SAPI  H18R22052   3.278   0.387   4.359 -0.3935  1.2931  1.9091
  191SAPI  H18S22053   3.115   0.328   4.308  0.8866 -1.2169  0.9137
  191SAPI  C21922054   3.112   0.478   4.461 -0.0625 -0.4725  0.6689
  191SAPI  H19R22055   3.014   0.515   4.424  1.8684  2.6499 -1.8547
  191SAPI  H19S22056   3.163   0.560   4.515 -0.4496 -1.6072  2.8788
  191SAPI  C22022057   3.087   0.369   4.569  0.1448 -0.2273  0.4486
  191SAPI  H20R22058   3.039   0.272   4.543 -0.9946  0.3238  0.4502
  191SAPI  H20S22059   3.033   0.413   4.655  1.8101  2.3674  0.2607
  191SAPI  H20T22060   3.188   0.349   4.610 -0.6659 -1.2039  2.0586
  191SAPI   C3322061   4.055  -0.064   3.247 -0.0669 -0.1284  0.1717
  191SAPI   H3X22062   3.989   0.025   3.249 -1.3845 -1.0769 -0.0501
  191SAPI   H3Y22063   4.156  -0.029   3.217 -0.1842  0.0555 -0.0124
  191SAPI   C3422064   4.060  -0.126   3.394 -0.6880  0.0100  0.3172
  191SAPI   H4X22065   4.115  -0.050   3.452 -0.0040  0.5229 -0.9692
  191SAPI   H4Y22066   4.102  -0.229   3.392 -0.6809  0.0142  0.2380
  191SAPI   C3522067   3.921  -0.139   3.457  0.0930  0.6497 -0.1335
  191SAPI   H5X22068   3.854  -0.218   3.417 -0.2360  0.4943  0.6954
  191SAPI   H5Y22069   3.868  -0.041   3.450  2.2509  1.8443 -0.8002
  191SAPI   C3622070   3.948  -0.154   3.615  0.4505 -0.2178  0.2991
  191SAPI   H6X22071   4.031  -0.087   3.645  0.9451 -0.4510 -0.5061
  191SAPI   H6Y22072   3.998  -0.252   3.635  0.9512  0.0202  0.2332
  191SAPI   C3722073   3.823  -0.125   3.701 -0.7774 -0.2486 -0.0811
  191SAPI   H7X22074   3.743  -0.189   3.658  0.3398 -0.5391 -1.8822
  191SAPI   H7Y22075   3.795  -0.021   3.675  0.7089  0.4808  1.0390
  191SAPI   C3822076   3.847  -0.147   3.852 -0.4010  0.1182  0.3740
  191SAPI   H8X22077   3.911  -0.065   3.894 -0.9495  0.5045  0.4609
  191SAPI   H8Y22078   3.903  -0.241   3.871 -0.1223 -0.1687 -1.6250
  191SAPI   C3922079   3.720  -0.129   3.937 -0.6433  0.4157  0.1432
  191SAPI   H9X22080   3.668  -0.227   3.944 -0.9138  0.5961  0.7240
  191SAPI   H9Y22081   3.650  -0.059   3.887  1.1485  2.3417  0.2195
  191SAPI  C31022082   3.731  -0.060   4.076  0.3490 -0.0145 -1.0147
  191SAPI  H10X22083   3.776   0.040   4.057 -0.7825  0.5041 -1.0375
  191SAPI  H10Y22084   3.806  -0.115   4.137  1.7543 -1.3668 -3.7895
  191SAPI  C31122085   3.589  -0.035   4.142 -0.4125  0.5812  0.5914
  191SAPI  H11X22086   3.557  -0.139   4.165  1.3099 -0.5611 -1.6664
  191SAPI  H11Y22087   3.514   0.012   4.074 -1.0612  1.2986  1.7631
  191SAPI  C31222088   3.605   0.040   4.283  0.4103  0.1555  0.0761
  191SAPI  H12X22089   3.674  -0.015   4.350  0.2441 -0.8483 -0.5586
  191SAPI  H12Y22090   3.509   0.029   4.339  0.2455 -0.6715 -0.3503
  191SAPI  C31322091   3.645   0.186   4.281 -0.4181  0.3084 -0.2167
  191SAPI  H13X22092   3.599   0.246   4.200 -1.3523 -0.2146 -0.0953
  191SAPI  H13Y22093   3.750   0.198   4.248  0.2118 -2.1114  0.6238
  191SAPI  C31422094   3.622   0.234   4.417 -0.5289 -0.8863 -0.3240
  191SAPI  H14X22095   3.678   0.169   4.488 -1.3747  0.0942  1.3040
  191SAPI  H14Y22096   3.512   0.234   4.436 -0.6457 -0.4155 -0.9664
  191SAPI  C31522097   3.666   0.377   4.439  0.2086 -0.0352  0.2066
  191SAPI  H15X22098   3.621   0.437   4.358  0.0608  1.0877  1.0903
  191SAPI  H15Y22099   3.776   0.375   4.424  0.1554  0.0324 -0.1791
  191SAPI  C31622100   3.623   0.443   4.577  0.1047 -0.5484 -0.1493
  191SAPI  H16X22101   3.662   0.381   4.660  1.7793 -1.3050 -1.4592
  191SAPI  H16Y22102   3.512   0.454   4.580  0.3182  2.2603  1.0060
  191SAPI  C31722103   3.664   0.595   4.575  0.2970  0.4608  0.4348
  191SAPI  H17X22104   3.616   0.649   4.490  2.3519  1.6373 -0.0390
  191SAPI  H17Y22105   3.775   0.600   4.565  0.2591  0.1952 -0.1229
  191SAPI  C31822106   3.636   0.654   4.708 -0.1273 -0.2478 -0.0915
  191SAPI  H18X22107   3.663   0.582   4.788  0.5004 -0.0821 -0.1491
  191SAPI  H18Y22108   3.528   0.678   4.712 -0.0249  0.8251 -2.2265
  191SAPI  H18Z22109   3.697   0.744   4.730 -0.1209 -0.9376  3.1844
  192SAPI   C1222110   5.568   3.101   2.512 -1.3570  0.2396 -0.1010
  192SAPI    H222111   5.498   3.081   2.428 -0.3789  0.4718 -0.9916
  192SAPI    O222112   5.558   2.999   2.607  0.1070  0.2442 -0.0654
  192SAPI   HO222113   5.523   2.922   2.561  2.3699 -0.1988 -1.2036
  192SAPI   C1322114   5.698   3.115   2.446 -0.7321 -0.2127  0.1600
  192SAPI    H322115   5.691   3.202   2.377  1.0507 -0.6192 -0.5830
  192SAPI    O322116   5.720   3.001   2.356 -0.0549 -0.0148 -0.6223
  192SAPI   HO322117   5.702   2.919   2.404  0.1912 -0.8828 -1.9584
  192SAPI   C1422118   5.818   3.134   2.541  0.2645 -1.1453  0.3686
  192SAPI    H422119   5.845   3.035   2.583 -0.0261 -1.3987 -0.0275
  192SAPI    O422120   5.938   3.167   2.472  0.5399 -0.1787  0.0103
  192SAPI   HO422121   6.006   3.105   2.499 -0.0026 -1.7184 -1.9072
  192SAPI   C1522122   5.791   3.225   2.668  0.0693  0.8782  1.2616
  192SAPI    H522123   5.844   3.321   2.647  0.4744 -0.0795 -3.1224
  192SAPI    O522124   5.847   3.171   2.793 -0.2064  0.1397 -0.2076
  192SAPI   HO522125   5.801   3.095   2.827 -0.2675  0.4893  0.4979
  192SAPI   C1622126   5.639   3.256   2.692  0.6274 -0.6627 -0.0562
  192SAPI    H622127   5.612   3.185   2.774 -2.9935 -5.0747 -4.4660
  192SAPI    O622128   5.620   3.384   2.739 -0.7733 -0.0495  0.1844
  192SAPI   HO622129   5.545   3.376   2.799 -1.3406  1.8254 -0.1905
  192SAPI   C1122130   5.535   3.232   2.582 -0.0461 -0.0168  0.0418
  192SAPI    H122131   5.554   3.310   2.505  1.2840  0.1120  0.4803
  192SAPI     P22132   5.306   3.372   2.593  0.0707  0.2576  0.1740
  192SAPI   O1322133   5.169   3.322   2.585 -0.2208 -0.1332 -0.1257
  192SAPI   O1422134   5.365   3.436   2.470 -0.0025  0.2595 -0.3419
  192SAPI   O1222135   5.401   3.249   2.632 -0.4707  0.3881  0.1155
  192SAPI   O1122136   5.323   3.461   2.721 -0.3660  0.3894  0.1256
  192SAPI    C122137   5.265   3.420   2.845 -0.4561  0.3080 -0.2299
  192SAPI    HA22138   5.156   3.430   2.832 -0.5516 -0.1308  0.1885
  192SAPI    HB22139   5.285   3.318   2.886 -3.2020  0.5883  2.1628
  192SAPI    C222140   5.308   3.515   2.954 -0.3767 -0.2918 -0.1859
  192SAPI    HS22141   5.309   3.621   2.920  0.6891  0.0458  0.8119
  192SAPI   O2122142   5.438   3.464   2.990 -0.1490  0.4927 -0.0361
  192SAPI   C2122143   5.516   3.559   3.042 -0.6015 -0.0360  0.9912
  192SAPI   O2222144   5.492   3.677   3.044 -0.4371 -0.0555  0.7132
  192SAPI   C2222145   5.642   3.500   3.105  0.2640  0.4988  0.2501
  192SAPI   H2R22146   5.737   3.539   3.064  0.5504 -0.8713 -0.4342
  192SAPI   H2S22147   5.639   3.518   3.215  3.1315 -1.9024  0.8449
  192SAPI    C322148   5.209   3.510   3.074  0.2380  0.5678  0.2845
  192SAPI    HX22149   5.181   3.403   3.084  2.4007 -0.0051  0.7253
  192SAPI    HY22150   5.127   3.574   3.036 -0.0436 -0.9632 -1.9037
  192SAPI   O3122151   5.265   3.564   3.195 -0.0754  0.1652 -0.4336
  192SAPI   C3122152   5.193   3.656   3.265  0.8761 -0.1574 -0.0437
  192SAPI   O3222153   5.092   3.707   3.225  0.1257 -0.4011 -0.0903
  192SAPI   C3222154   5.266   3.689   3.396 -0.1290  0.1646  0.7848
  192SAPI   H2X22155   5.255   3.797   3.417  4.2643  1.0386 -0.4146
  192SAPI   H2Y22156   5.373   3.667   3.378  0.0650  0.4520  1.5629
  192SAPI   C2322157   5.644   3.340   3.103 -0.0927 -0.5942  0.4148
  192SAPI   H3R22158   5.621   3.306   2.999 -0.1360  0.5353  0.0304
  192SAPI   H3S22159   5.555   3.306   3.159 -0.1361  0.6281  1.1221
  192SAPI   C2422160   5.771   3.292   3.173 -0.3843  0.6602 -0.1962
  192SAPI   H4R22161   5.819   3.368   3.238  1.8860  1.5881 -2.7400
  192SAPI   H4S22162   5.853   3.288   3.098 -1.2664 -1.8597 -1.1453
  192SAPI   C2522163   5.756   3.159   3.250  0.7465  0.6313 -0.4179
  192SAPI   H5R22164   5.743   3.068   3.188  0.1668 -0.5699  1.3920
  192SAPI   C2622165   5.736   3.146   3.383  0.4302 -0.2467  0.6835
  192SAPI   H6R22166   5.721   3.047   3.428 -2.0056  0.2828  1.1589
  192SAPI   C2722167   5.728   3.266   3.476 -0.3429 -0.6018  0.0637
  192SAPI   H7R22168   5.683   3.354   3.424  1.5442  0.6295  0.4214
  192SAPI   H7S22169   5.829   3.308   3.496 -0.9708  0.9160  0.1735
  192SAPI   C2822170   5.640   3.240   3.589  0.6458 -0.2531 -0.3591
  192SAPI   H8R22171   5.534   3.218   3.568 -0.6709  1.5545  3.3888
  192SAPI   C2922172   5.681   3.226   3.714 -0.0342  0.7317  1.0189
  192SAPI   H9R22173   5.607   3.193   3.789 -0.6956 -0.1565  0.0109
  192SAPI  C21022174   5.826   3.226   3.771 -0.5347  0.7954 -0.6177
  192SAPI  H10R22175   5.823   3.314   3.839 -2.8407  2.9344 -3.2689
  192SAPI  H10S22176   5.907   3.259   3.703 -1.0157  1.7573 -0.7401
  192SAPI  C21122177   5.855   3.099   3.845 -0.3885  0.5096 -0.1805
  192SAPI  H11R22178   5.819   3.002   3.807  2.7318  0.0755 -2.3845
  192SAPI  C21222179   5.938   3.094   3.953  0.0895  0.0498 -0.0069
  192SAPI  H12R22180   5.969   2.996   3.991  1.8329  0.2451 -0.8154
  192SAPI  C21322181   5.995   3.212   4.031  0.3467 -0.4619  0.7069
  192SAPI  H13R22182   6.041   3.287   3.962 -0.9038  0.6903  1.0770
  192SAPI  H13S22183   6.082   3.179   4.090  0.6261  0.7606  1.0168
  192SAPI  C21422184   5.904   3.300   4.121 -0.2941  0.7854  0.6941
  192SAPI  H14R22185   5.807   3.330   4.077  1.4834  3.4225 -1.7997
  192SAPI  C21522186   5.941   3.348   4.242  0.0837 -0.2509  0.0196
  192SAPI  H15R22187   5.861   3.387   4.306  1.3314 -1.7753  2.6646
  192SAPI  C21622188   6.060   3.311   4.331  0.9593 -0.5556 -0.3990
  192SAPI  H16R22189   6.107   3.398   4.381 -1.2046 -0.6035  1.8449
  192SAPI  H16S22190   6.139   3.256   4.275  0.5813  0.7700 -2.3404
  192SAPI  C21722191   6.012   3.223   4.447  1.0334 -0.6555 -0.4413
  192SAPI  H17R22192   6.101   3.221   4.513 -0.0908 -0.0082  1.1610
  192SAPI  H17S22193   5.977   3.123   4.414 -0.3884  0.0571 -1.2103
  192SAPI  C21822194   5.917   3.298   4.538  0.0740  0.6393  0.7467
  192SAPI  H18R22195   5.883   3.231   4.620 -0.5707  2.5876  2.1510
  192SAPI  H18S22196   5.821   3.321   4.487 -1.9369 -4.1815  1.7523
  192SAPI  C21922197   5.981   3.417   4.612  0.3369  0.3880  0.3941
  192SAPI  H19R22198   5.988   3.502   4.540  3.5812 -1.0573 -1.1872
  192SAPI  H19S22199   6.085   3.382   4.627 -0.2466 -1.6811 -0.0316
  192SAPI  C22022200   5.919   3.474   4.743 -0.1295 -0.2576  0.2631
  192SAPI  H20R22201   5.908   3.394   4.820 -0.3924  0.4155  0.9379
  192SAPI  H20S22202   5.818   3.516   4.721 -0.7029 -1.6409  0.1410
  192SAPI  H20T22203   5.970   3.563   4.785 -2.5350  3.1235 -3.2132
  192SAPI   C3322204   5.216   3.598   3.505  0.1459 -0.3962 -0.1787
  192SAPI   H3X22205   5.223   3.495   3.466 -1.0052 -1.5051  2.2956
  192SAPI   H3Y22206   5.109   3.614   3.532 -0.3829  0.9614 -2.7728
  192SAPI   C3422207   5.304   3.584   3.625  0.3268  0.2017 -0.0538
  192SAPI   H4X22208   5.356   3.676   3.660  1.5606 -0.0826 -1.0581
  192SAPI   H4Y22209   5.384   3.512   3.597 -1.4902 -0.0706 -5.9628
  192SAPI   C3522210   5.228   3.530   3.746 -0.3930 -0.3021 -0.5169
  192SAPI   H5X22211   5.167   3.441   3.721 -0.0557 -1.3854  2.1348
  192SAPI   H5Y22212   5.162   3.603   3.797 -0.4937 -2.0012  2.0237
  192SAPI   C3622213   5.319   3.500   3.871 -0.2463  0.7353  0.1926
  192SAPI   H6X22214   5.372   3.594   3.895 -0.5312  2.2125 -4.0105
  192SAPI   H6Y22215   5.390   3.422   3.837  0.0356  1.7939 -1.8357
  192SAPI   C3722216   5.236   3.458   4.001  0.2983  0.1889  0.3878
  192SAPI   H7X22217   5.160   3.379   3.986 -0.7459  0.4643  3.5140
  192SAPI   H7Y22218   5.191   3.551   4.042 -0.0724 -0.2024  0.8843
  192SAPI   C3822219   5.329   3.404   4.106  0.3893  0.7486 -0.3028
  192SAPI   H8X22220   5.272   3.373   4.196  0.7168  0.7335 -0.0951
  192SAPI   H8Y22221   5.401   3.488   4.122  2.0832 -0.1865 -2.3808
  192SAPI   C3922222   5.408   3.277   4.068 -0.7254 -0.2704 -0.1223
  192SAPI   H9X22223   5.487   3.309   3.997 -1.4900  4.6551  0.8869
  192SAPI   H9Y22224   5.341   3.217   4.003 -1.2862  0.9545 -0.6962
  192SAPI  C31022225   5.465   3.196   4.184  0.5971  0.1442  0.2317
  192SAPI  H10X22226   5.381   3.132   4.219 -1.2514 -0.0771 -3.9881
  192SAPI  H10Y22227   5.485   3.271   4.263 -2.7067  0.9004  0.5031
  192SAPI  C31122228   5.574   3.090   4.139  0.7746 -0.5869  0.5512
  192SAPI  H11X22229   5.649   3.149   4.082 -1.8089  1.3864 -1.0639
  192SAPI  H11Y22230   5.530   3.011   4.074 -3.3734  0.9170  1.2308
  192SAPI  C31222231   5.636   3.031   4.261  0.3570 -0.5483 -0.2207
  192SAPI  H12X22232   5.565   2.980   4.330  2.0872 -3.2151 -0.2642
  192SAPI  H12Y22233   5.687   3.106   4.326 -0.2980  0.1075 -0.4408
  192SAPI  C31322234   5.750   2.938   4.235  0.4925  0.2636  0.9017
  192SAPI  H13X22235   5.839   3.002   4.222 -1.6873  3.3174 -0.2045
  192SAPI  H13Y22236   5.722   2.884   4.142  1.2024 -0.2458  0.9759
  192SAPI  C31422237   5.774   2.833   4.345  0.8935 -0.0991  0.4022
  192SAPI  H14X22238   5.878   2.796   4.340  0.9097 -0.1112  0.8182
  192SAPI  H14Y22239   5.708   2.745   4.327 -1.2678  1.2721  1.2702
  192SAPI  C31522240   5.757   2.882   4.489 -0.0030  0.1012  0.0269
  192SAPI  H15X22241   5.651   2.909   4.514 -0.1661 -2.5247  2.7325
  192SAPI  H15Y22242   5.824   2.970   4.501 -0.6497  0.4408  1.4331
  192SAPI  C31622243   5.797   2.775   4.593  0.0011  0.1881 -0.3641
  192SAPI  H16X22244   5.891   2.723   4.564 -0.3582  0.5295 -2.2623
  192SAPI  H16Y22245   5.719   2.697   4.603  1.6673 -1.3279  1.9465
  192SAPI  C31722246   5.822   2.838   4.728 -0.2066 -0.1648 -0.4058
  192SAPI  H17X22247   5.735   2.896   4.765  0.1780 -0.9527  1.8916
  192SAPI  H17Y22248   5.907   2.907   4.709 -1.4754  2.0291  1.4290
  192SAPI  C31822249   5.848   2.739   4.838 -1.0621  0.2678  1.0490
  192SAPI  H18X22250   5.890   2.780   4.932 -0.8945  2.2383  0.1721
  192SAPI  H18Y22251   5.914   2.653   4.812 -0.6283  0.3889  1.7251
  192SAPI  H18Z22252   5.752   2.686   4.857 -0.6255 -0.7572  0.4900
  193SOD    SOD22253   4.072   5.837   2.648  0.2869 -0.5750 -0.3015
  194SOD    SOD22254   5.330   6.065   6.957  0.2593 -0.6043 -0.0548
  195SOD    SOD22255   5.697   0.878   7.927  0.0066  0.0414 -0.2799
  196SOD    SOD22256   1.858   1.010   8.205 -0.2305 -0.6443  0.3460
  197SOD    SOD22257   1.593   2.272   0.480  0.4920  0.2231  0.0207
  198SOD    SOD22258   4.801   3.269   2.656 -0.1260 -0.6170  0.1121
  199SOD    SOD22259   4.348   0.677   2.433 -0.1355 -0.5334 -0.0513
  200SOD    SOD22260   0.370   6.353   1.372  0.3509  0.4582 -0.3556
  201SOD    SOD22261   5.797   1.002   7.382 -0.1245  0.2138  0.1996
  202SOD    SOD22262   4.831   0.398   8.555  0.3727 -0.1306 -0.3005
  203SOD    SOD22263   3.779   2.689   8.606  0.8199 -0.1957 -0.2457
  204SOD    SOD22264   6.478   6.589   7.609  0.3924  0.0669  0.1813
  205SOD    SOD22265   6.796   1.741   2.767  0.1004  0.1551  0.0740
  206SOD    SOD22266   4.974   2.802   7.507  0.1531 -0.4571  0.1654
  207SOD    SOD22267   6.310   5.248   7.997  0.4475  0.3447 -0.3165
  208SOD    SOD22268   0.382   0.191   7.561  0.2538  0.1146 -0.2137
  209SOD    SOD22269   0.013   0.891   7.945  0.5541 -0.2089  0.1505
  210SOD    SOD22270   1.514   3.840   8.125 -0.4123  0.0552 -0.2383
  211SOD    SOD22271   2.117   2.385   1.530  0.0170 -0.0870 -0.4833
  212SOD    SOD22272   5.569   0.209   1.910  0.3001  0.2340  0.1407
  213SOD    SOD22273   1.248   0.716   2.652 -0.0897 -0.0043 -0.1029
  214SOD    SOD22274   2.284   3.252   7.415  0.4705  0.0746 -0.0785
  215SOD    SOD22275   1.526   0.401   7.496 -0.2454 -0.2997  0.0878
  216SOD    SOD22276   6.024   2.701   2.190  0.0324 -0.3240  0.0056
  217SOD    SOD22277   4.500   4.895   6.461 -0.3042  0.5070 -0.0950
  218SOD    SOD22278   1.258   2.710   2.637 -0.2020  0.2312 -0.0411
  219SOD    SOD22279   2.424   0.098   8.090 -0.0778 -0.5269 -0.5986
  220SOD    SOD22280   3.940   4.509   1.416  0.0699 -0.1144  0.1896
  221SOD    SOD22281   2.631   1.167   2.848 -0.3501 -0.5461 -0.2322
  222SOD    SOD22282   3.222   0.068   1.798 -0.0602 -0.2145 -0.4486
  223SOD    SOD22283   2.475   1.138   7.318 -0.4887  0.5126 -0.2963
  224SOD    SOD22284   5.883   1.397   0.585  0.3876 -0.0328 -0.2817
  225SOD    SOD22285   6.522   3.745   2.765 -0.7006 -0.1769 -0.4492
  226SOD    SOD22286   2.280   5.099   2.724  0.0886 -0.4661 -0.3757
  227SOD    SOD22287   0.480   4.063   2.174  0.0621 -0.3902  0.2515
  228SOD    SOD22288   2.371   3.679   6.919  0.5946  0.2925  0.6579
  229SOD    SOD22289   2.213   1.687   7.790  0.0123 -0.3574 -0.0494
  230SOD    SOD22290   6.427   5.309   0.465  0.0792  0.1512  0.2867
  231SOD    SOD22291   0.351   2.191   7.735 -0.1137  0.5380 -0.2246
  232SOD    SOD22292   2.684   4.978   7.217  0.4653  0.0529  0.0467
  233SOD    SOD22293   1.516   1.339   0.884 -0.0347  0.1444 -0.2296
  234CLA    CLA22294   2.612   3.538   1.328 -0.3285 -0.3470  0.0008
  235CLA    CLA22295   2.949   6.609   1.508  0.0717 -0.1515  0.0526
  236CLA    CLA22296   6.865   6.354   1.986  0.1948 -0.7161 -0.1565
  237CLA    CLA22297   1.007   2.754   7.725 -0.2036  0.6752 -0.2276
  238CLA    CLA22298   4.729   4.313   0.995 -0.3314 -0.3264  0.2576
  239CLA    CLA22299   5.675   4.131   1.365 -0.1888 -0.1361 -0.2147
  240CLA    CLA22300   0.503   1.392   1.675  0.2825  0.7274  0.2975
  241CLA    CLA22301   6.010   1.582   1.051  0.0547 -0.1389 -0.1486
  242CLA    CLA22302   0.584   2.453   8.123 -0.2290 -0.1975 -0.2251
  243CLA    CLA22303   2.650   5.773   0.493 -0.0391 -0.0624 -0.0998
  244CLA    CLA22304   6.627   4.501   0.816  0.1419  0.1546  0.0977
  245CLA    CLA22305   2.624   1.866   0.098 -0.2557  0.2122  0.0086
  246CLA    CLA22306   0.526   0.764   0.240  0.0813 -0.0311  0.4397
  247CLA    CLA22307   6.419   4.235   7.630 -0.0166 -0.6036 -0.1873
  248CLA    CLA22308   2.411   6.821   1.759  0.2027 -0.1879  0.2150
  249CLA    CLA22309   6.526   4.189   8.227  0.0260 -0.1178 -0.0029
  250CLA    CLA22310   2.913   0.722   7.691 -0.0726  0.2173 -0.4229
  251TIP3   OH222311   3.271   1.332   1.947 -0.3839  0.4577  0.2422
  251TIP3    H122312   3.367   1.336   1.955 -0.4389  1.0621  0.7359
  251TIP3    H222313   3.240   1.379   2.024 -1.0846  0.1469  0.1498
  252TIP3   OH222314   5.157   0.586   0.175 -0.3000 -0.4531 -0.0941
  252TIP3    H122315   5.146   0.501   0.216  1.1257 -1.1887 -1.1665
  252TIP3    H222316   5.071   0.627   0.182 -1.6827 -2.8792 -1.5793
  253TIP3   OH222317   1.747   3.145   8.180  0.2760 -0.4712 -0.2528
  253TIP3    H122318   1.773   3.199   8.106  1.3932  0.9428  1.1332
  253TIP3    H222319   1.659   3.114   8.157 -0.1570  1.4473 -1.3551
  254TIP3   OH222320   0.382   2.440   0.250 -0.0769 -0.2732 -0.1313
  254TIP3    H122321   0.463   2.489   0.267  0.3478 -1.1483  0.4280
  254TIP3    H222322   0.408   2.369   0.192 -0.8601  0.6402 -1.6500
  255TIP3   OH222323   2.269   6.425   6.785 -0.5126  0.4358  0.2627
  255TIP3    H122324   2.259   6.433   6.880 -2.0876 -0.0299  0.1646
  255TIP3    H222325   2.281   6.332   6.770 -1.0405  0.4182 -0.0577
  256TIP3   OH222326   1.209   1.057   8.499 -0.8432  0.1741  0.6278
  256TIP3    H122327   1.168   1.143   8.492 -2.8358 -0.7619  0.1739
  256TIP3    H222328   1.163   1.014   8.571 -0.7391 -0.9572  0.0383
  257TIP3   OH222329   0.814   3.041   0.209 -0.1012 -0.0849 -0.1092
  257TIP3    H122330   0.792   3.091   0.287 -0.2685  1.1252 -0.9193
  257TIP3    H222331   0.730   3.021   0.168 -0.0093 -0.6572 -0.0337
  258TIP3   OH222332   5.839   0.073   8.444 -0.0158 -0.1596  0.5754
  258TIP3    H122333   5.934   0.080   8.439  0.0287 -0.6004  0.6874
  258TIP3    H222334   5.807   0.107   8.360  0.1762  0.9620  0.9494
  259TIP3   OH222335   0.630   5.435   0.620 -0.1751  1.1776  0.1582
  259TIP3    H122336   0.694   5.379   0.575 -0.8956  0.3108  0.1802
  259TIP3    H222337   0.607   5.386   0.699 -3.5299 -0.3492 -1.5546
  260TIP3   OH222338   1.419   2.459   7.669  0.7030 -0.4341 -0.2911
  260TIP3    H122339   1.382   2.442   7.756 -0.2621 -0.8687 -0.7654
  260TIP3    H222340   1.477   2.533   7.681  1.0855 -0.9049  0.8567
  261TIP3   OH222341   1.356   2.044   1.106 -0.0165 -0.0271  0.5042
  261TIP3    H122342   1.388   2.134   1.104  1.9583 -0.6964 -0.2996
  261TIP3    H222343   1.426   1.994   1.147  0.5480 -1.7313 -2.2672
  262TIP3   OH222344   1.101   3.387   1.993 -0.6839  0.3876  0.2336
  262TIP3    H122345   1.165   3.422   1.932 -1.3590  3.1761  0.9764
  262TIP3    H222346   1.080   3.300   1.959 -0.0975  1.3042 -2.7691
  263TIP3   OH222347   6.118   3.892   0.339 -0.4634 -0.2154  0.8767
  263TIP3    H122348   6.154   3.925   0.257  1.6639 -1.5457  1.2222
  263TIP3    H222349   6.065   3.817   0.313  2.2190 -2.2186  0.8242
  264TIP3   OH222350   2.114   4.195   8.493 -0.2113 -0.2345 -0.2569
  264TIP3    H122351   2.138   4.103   8.505  1.7809  0.0182 -1.7836
  264TIP3    H222352   2.135   4.214   8.402  1.1738  2.1892  0.4694
  265TIP3   OH222353   5.274   4.858   0.927 -0.0692  0.0436  0.2930
  265TIP3    H122354   5.202   4.841   0.866 -0.8504  0.4789  1.0668
  265TIP3    H222355   5.238   4.834   1.013  0.7807  0.0878  0.6714
  266TIP3   OH222356   4.283   3.966   0.272  0.1484  0.5385 -0.1465
  266TIP3    H122357   4.316   4.056   0.262  1.7100  0.0997  0.7796
  266TIP3    H222358   4.341   3.914   0.216 -0.0168 -0.0350  0.2123
  267TIP3   OH222359   1.749   1.539   8.428  1.6837  0.0277 -0.0124
  267TIP3    H122360   1.707   1.460   8.394  0.6737  0.0532  1.0920
  267TIP3    H222361   1.741   1.603   8.357  0.4407 -0.1836 -0.0890
  268TIP3   OH222362   0.811   6.413   1.294 -0.2662 -0.5000 -0.0124
  268TIP3    H122363   0.886   6.373   1.250 -1.1272 -0.0688 -1.9851
  268TIP3    H222364   0.795   6.493   1.245 -1.5958 -0.2194  0.8237
  269TIP3   OH222365   2.954   0.598   8.513  0.3513 -0.2024 -0.4451
  269TIP3    H122366   3.017   0.669   8.525  1.6572 -1.2414 -0.8976
  269TIP3    H222367   3.003   0.518   8.534 -1.6414 -0.8956  2.1497
  270TIP3   OH222368   4.661   4.447   0.428  0.0289  0.4081 -0.3730
  270TIP3    H122369   4.592   4.478   0.370 -1.1698 -0.3922  0.5880
  270TIP3    H222370   4.615   4.404   0.500  1.5536 -1.8345 -0.6397
  271TIP3   OH222371   4.380   3.504   1.267 -0.3124 -0.1169  0.8112
  271TIP3    H122372   4.318   3.496   1.194  0.3034 -0.6546  0.3326
  271TIP3    H222373   4.325   3.515   1.345 -0.9739  1.0741  0.2065
  272TIP3   OH222374   3.916   0.624   6.879 -0.4107 -0.8983 -0.2878
  272TIP3    H122375   3.886   0.712   6.902 -0.0993 -0.8252 -0.1615
  272TIP3    H222376   3.904   0.573   6.959 -0.6149 -0.9759 -0.3685
  273TIP3   OH222377   1.780   3.632   0.579 -0.1870 -0.2001 -0.1069
  273TIP3    H122378   1.776   3.727   0.594 -0.8421 -0.0539 -1.0817
  273TIP3    H222379   1.713   3.616   0.513  0.3562 -1.2560 -0.4243
  274TIP3   OH222380   1.914   5.562   0.556  0.2978  0.3057  0.4668
  274TIP3    H122381   1.845   5.570   0.622  0.5273  0.9647  0.6312
  274TIP3    H222382   1.894   5.480   0.511  0.1657 -0.1793  1.3798
  275TIP3   OH222383   4.305   1.624   2.639  0.2623  0.2131 -0.3147
  275TIP3    H122384   4.370   1.675   2.592  0.1386 -0.2322 -0.9918
  275TIP3    H222385   4.222   1.667   2.620  0.4152  1.2578  1.1980
  276TIP3   OH222386   5.349   1.912   2.401  0.4438 -0.2097  0.1811
  276TIP3    H122387   5.342   1.879   2.491  3.6577 -1.0389  0.2702
  276TIP3    H222388   5.396   1.995   2.410 -0.6697  0.5440 -0.6643
  277TIP3   OH222389   0.795   4.564   7.395  0.0606 -0.2840 -0.1576
  277TIP3    H122390   0.838   4.611   7.467  0.3409 -0.3934 -0.2522
  277TIP3    H222391   0.866   4.517   7.352  0.0758  0.6553 -1.1915
  278TIP3   OH222392   6.785   0.373   0.626 -0.2606  0.5077 -0.1907
  278TIP3    H122393   6.721   0.393   0.559 -0.3743 -0.9590 -0.5489
  278TIP3    H222394   6.867   0.361   0.578  0.0289  1.1503  0.1307
  279TIP3   OH222395   4.153   4.194   2.406  0.3559  0.4839  0.2629
  279TIP3    H122396   4.075   4.138   2.398 -0.7987  1.9593  0.6921
  279TIP3    H222397   4.189   4.171   2.491 -0.9281  1.3406  1.0755
  280TIP3   OH222398   0.576   1.920   2.027 -0.6060  0.5049 -0.1450
  280TIP3    H122399   0.632   1.852   1.991 -1.5916 -0.0645 -0.6349
  280TIP3    H222400   0.537   1.881   2.105 -1.0204  0.5699 -0.3167
  281TIP3   OH222401   5.496   0.088   7.384  0.0842  0.1181 -0.2486
  281TIP3    H122402   5.493   0.152   7.455  0.4589 -0.9114  0.7230
  281TIP3    H222403   5.405   0.083   7.353 -0.1421  0.3595  0.3528
  282TIP3   OH222404   0.859   0.504   2.570 -0.8728  0.2999 -0.8555
  282TIP3    H122405   0.848   0.453   2.490  1.6901 -1.0517 -0.4625
  282TIP3    H222406   0.811   0.455   2.637  0.6594 -1.1062 -0.7141
  283TIP3   OH222407   6.819   5.654   8.326 -0.2962  0.7157  0.2182
  283TIP3    H122408   6.758   5.684   8.394 -1.3720 -1.0966  0.1340
  283TIP3    H222409   6.801   5.560   8.319  0.2696  0.7356 -2.0908
  284TIP3   OH222410   2.002   5.334   0.979 -0.0795 -0.0542  0.1122
  284TIP3    H122411   1.986   5.426   0.999 -0.4242 -0.1426  0.2404
  284TIP3    H222412   2.032   5.296   1.062 -1.3869 -0.3922  0.4530
  285TIP3   OH222413   2.811   6.303   8.163  0.1403 -0.3773  0.7922
  285TIP3    H122414   2.799   6.372   8.098  0.5168 -1.1973 -0.1768
  285TIP3    H222415   2.733   6.309   8.219  0.4486  1.2024  1.1089
  286TIP3   OH222416   5.023   0.822   0.885  0.3020 -0.2937 -0.0537
  286TIP3    H122417   5.080   0.845   0.958 -1.0677 -0.5318  1.1318
  286TIP3    H222418   5.026   0.898   0.827 -0.3975  0.8901  1.4167
  287TIP3   OH222419   3.445   0.163   0.994 -0.0611  0.2191 -0.5362
  287TIP3    H122420   3.415   0.077   0.965 -1.0063  0.8229 -1.4146
  287TIP3    H222421   3.364   0.213   1.010  0.4347  1.5203 -1.8179
  288TIP3   OH222422   5.677   3.738   1.826 -0.0799 -0.2742  0.2965
  288TIP3    H122423   5.661   3.768   1.916  0.2977 -0.6026  0.4769
  288TIP3    H222424   5.612   3.784   1.774 -2.2066 -2.1898  1.1117
  289TIP3   OH222425   3.243   4.808   6.690  0.0163 -0.3801  0.0208
  289TIP3    H122426   3.252   4.718   6.659  1.1236  0.0631 -1.0263
  289TIP3    H222427   3.204   4.855   6.616 -0.3872  0.0398  0.4944
  290TIP3   OH222428   2.687   3.875   1.410 -0.4898  0.0557 -0.5313
  290TIP3    H122429   2.782   3.877   1.425 -0.5956  0.0091  0.2249
  290TIP3    H222430   2.663   3.784   1.426 -0.4343 -0.2886 -2.3149
  291TIP3   OH222431   2.593   2.434   0.597  0.1218  0.2816  0.3672
  291TIP3    H122432   2.555   2.442   0.510  1.0212  5.0152  0.1463
  291TIP3    H222433   2.525   2.466   0.656  0.3420 -0.7144  1.1991
  292TIP3   OH222434   1.794   1.284   1.773 -0.2261  0.0567  0.3629
  292TIP3    H122435   1.851   1.231   1.829  0.9661  2.3005  1.4141
  292TIP3    H222436   1.843   1.294   1.692 -1.3785 -2.0920 -0.6831
  293TIP3   OH222437   1.858   3.889   6.748  0.5546  0.5481  1.0877
  293TIP3    H122438   1.805   3.963   6.778 -1.1684 -0.1534 -0.0499
  293TIP3    H222439   1.846   3.888   6.653  0.4050 -1.2934  1.0981
  294TIP3   OH222440   0.358   1.704   1.962  0.1845 -0.3159  0.1958
  294TIP3    H122441   0.377   1.789   1.922 -2.8316  0.0910 -0.5908
  294TIP3    H222442   0.334   1.648   1.889 -2.1061 -0.5351  1.0370
  295TIP3   OH222443   0.434   4.119   1.944  0.3961  0.1644  0.1083
  295TIP3    H122444   0.491   4.181   1.898 -0.9886  1.2443 -0.2267
  295TIP3    H222445   0.357   4.111   1.888 -0.3024 -0.3336  1.1075
  296TIP3   OH222446   4.887   1.901   1.673  0.0279 -0.7591  0.2851
  296TIP3    H122447   4.835   1.849   1.612  1.0237  0.3141 -1.5944
  296TIP3    H222448   4.978   1.885   1.647  0.5057 -0.4780  1.6883
  297TIP3   OH222449   1.656   6.830   1.988  0.0651 -0.2259  0.0197
  297TIP3    H122450   1.591   6.793   2.049  0.4457 -0.0843  0.5148
  297TIP3    H222451   1.684   6.755   1.935  0.1483 -0.4704  0.4017
  298TIP3   OH222452   3.227   6.126   1.588  0.1815  0.2634  0.1963
  298TIP3    H122453   3.222   6.221   1.586  1.0348  0.3481  0.9654
  298TIP3    H222454   3.154   6.096   1.535 -0.9326  1.3366  1.0810
  299TIP3   OH222455   2.592   6.058   1.052  0.0665  0.0177 -0.2425
  299TIP3    H122456   2.581   6.016   0.967  0.2890 -0.8059  0.1256
  299TIP3    H222457   2.531   6.012   1.110  0.0007  0.4939  0.0765
  300TIP3   OH222458   0.626   6.031   1.981  0.2385 -0.3722  0.1151
  300TIP3    H122459   0.580   6.111   2.005  1.2570  0.2390  0.0785
  300TIP3    H222460   0.568   5.988   1.918 -1.1405 -0.5675  1.4667
  301TIP3   OH222461   5.255   6.043   8.195  0.1993  0.0624  0.2833
  301TIP3    H122462   5.243   5.951   8.217  0.1256  0.2906  1.2084
  301TIP3    H222463   5.316   6.042   8.121  1.4398 -0.6584  1.2710
  302TIP3   OH222464   6.022   0.517   6.879 -0.3762 -0.4737  0.1397
  302TIP3    H122465   5.971   0.436   6.877 -1.1794  0.0002  0.7278
  302TIP3    H222466   5.997   0.559   6.961 -0.7416  0.8599 -0.6221
  303TIP3   OH222467   2.708   3.777   1.163 -0.3323  0.6011 -0.7829
  303TIP3    H122468   2.697   3.683   1.180  1.2581  0.4561 -0.3325
  303TIP3    H222469   2.700   3.818   1.249  3.8007  0.2877 -0.0441
  304TIP3   OH222470   4.084   6.325   8.474 -0.0893 -0.0657 -0.2462
  304TIP3    H122471   4.075   6.402   8.531 -2.3158 -0.5940  0.2094
  304TIP3    H222472   4.175   6.299   8.484  0.8116  2.6255 -0.6001
  305TIP3   OH222473   5.690   0.656   1.130 -0.0614  0.0596 -0.0169
  305TIP3    H122474   5.659   0.678   1.042 -3.1314  1.8086  1.3170
  305TIP3    H222475   5.639   0.579   1.155  2.9051 -2.3074 -0.6906
  306TIP3   OH222476   4.925   5.695   1.168  0.7661  0.5042 -0.3983
  306TIP3    H122477   4.832   5.690   1.190  0.8366 -0.3031 -0.2549
  306TIP3    H222478   4.926   5.717   1.074  0.4027 -0.6442 -0.6876
  307TIP3   OH222479   1.608   3.075   2.335  0.5600 -0.2784 -0.2156
  307TIP3    H122480   1.522   3.106   2.362 -0.5329 -1.0164 -2.5842
  307TIP3    H222481   1.653   3.154   2.303 -0.2823 -0.2920 -1.4842
  308TIP3   OH222482   0.484   2.578   7.861  0.1892 -0.4976 -0.1125
  308TIP3    H122483   0.569   2.618   7.844  0.6161 -1.5757 -0.5496
  308TIP3    H222484   0.497   2.526   7.940 -0.7319  1.2669  1.3010
  309TIP3   OH222485   5.127   3.120   1.762 -0.5903 -0.5933 -0.0787
  309TIP3    H122486   5.133   3.176   1.685  0.4362 -0.3561  0.1612
  309TIP3    H222487   5.084   3.175   1.828  1.2932  0.2867  0.4620
  310TIP3   OH222488   1.103   2.429   7.895 -0.0090 -0.1224  0.4307
  310TIP3    H122489   1.039   2.395   7.958  0.3783  1.6337  1.8516
  310TIP3    H222490   1.055   2.433   7.812 -0.5128 -2.5286  0.5404
  311TIP3   OH222491   2.328   5.521   0.836 -0.0222  0.0105  0.3045
  311TIP3    H122492   2.288   5.574   0.766 -0.8406 -0.0325  0.7199
  311TIP3    H222493   2.333   5.581   0.910  0.8940  0.0689  0.1980
  312TIP3   OH222494   5.341   6.600   2.230  0.3170 -0.1420 -0.3275
  312TIP3    H122495   5.421   6.549   2.216  0.3617  0.2484 -1.6170
  312TIP3    H222496   5.346   6.627   2.322  1.3157 -0.7112 -0.1990
  313TIP3   OH222497   1.473   1.057   8.558 -0.8828  0.3004 -0.3451
  313TIP3    H122498   1.378   1.065   8.550 -0.8728  0.3951 -0.3640
  313TIP3    H222499   1.486   1.015   8.643 -0.9212  0.7182 -0.1299
  314TIP3   OH222500   5.810   6.682   6.662 -0.4775 -0.1237 -0.4288
  314TIP3    H122501   5.836   6.594   6.690 -1.1379  0.6663  3.1716
  314TIP3    H222502   5.723   6.695   6.700 -0.9241  1.6523 -1.9277
  315TIP3   OH222503   0.687   4.262   0.365 -0.4452  0.6282 -0.4421
  315TIP3    H122504   0.768   4.290   0.407 -0.7542  1.3427 -0.3026
  315TIP3    H222505   0.622   4.326   0.394 -1.3820 -0.7293  0.5880
  316TIP3   OH222506   1.627   2.663   1.050 -0.0763  0.0211 -0.1400
  316TIP3    H122507   1.568   2.731   1.018  1.7885  1.2291 -1.1932
  316TIP3    H222508   1.644   2.608   0.974  0.4766 -0.0497  0.0301
  317TIP3   OH222509   4.811   6.611   2.068  0.0935  0.1530 -0.2690
  317TIP3    H122510   4.728   6.642   2.105 -0.5838 -1.4396 -0.3646
  317TIP3    H222511   4.868   6.599   2.145 -1.1462 -2.6605  0.3554
  318TIP3   OH222512   2.479   4.448   0.033  0.2285  1.0861  0.1965
  318TIP3    H122513   2.573   4.433   0.042 -0.1150 -1.6576  0.1553
  318TIP3    H222514   2.451   4.482   0.118  1.0778  0.7917  0.5981
  319TIP3   OH222515   0.768   0.111   0.002 -0.3325  0.6427 -0.0557
  319TIP3    H122516   0.810   0.025   0.009  0.8112  1.1861  0.0472
  319TIP3    H222517   0.798   0.159   0.079 -1.4068  0.9562  0.1831
  320TIP3   OH222518   6.353   3.442   8.385  0.1713  0.7536 -0.3843
  320TIP3    H122519   6.377   3.527   8.423 -0.7868  1.0707 -0.4581
  320TIP3    H222520   6.437   3.402   8.361  0.8901  0.2796  2.5686
  321TIP3   OH222521   1.592   4.411   7.101  0.2047  0.7303  0.0601
  321TIP3    H122522   1.623   4.410   7.192  1.1333  1.4148 -0.2371
  321TIP3    H222523   1.644   4.479   7.059 -0.3385  0.5328 -0.9503
  322TIP3   OH222524   5.472   2.518   7.836  0.0090 -0.1104 -0.1621
  322TIP3    H122525   5.548   2.573   7.819  0.3474 -0.5212  0.0089
  322TIP3    H222526   5.508   2.438   7.874 -0.4769 -0.4610 -0.4279
  323TIP3   OH222527   4.503   2.778   1.144  0.6393  0.1024  0.2959
  323TIP3    H122528   4.437   2.791   1.212 -0.4341  0.3015 -0.7544
  323TIP3    H222529   4.458   2.801   1.062  1.6716 -0.8419 -0.5642
  324TIP3   OH222530   1.961   3.219   1.290  0.1987  0.3512  0.0718
  324TIP3    H122531   2.008   3.169   1.356 -0.7807 -0.8129 -0.0811
  324TIP3    H222532   1.869   3.196   1.304 -0.1144  0.8613 -1.0518
  325TIP3   OH222533   3.695   0.738   7.627  0.5827  0.1372 -0.2121
  325TIP3    H122534   3.679   0.671   7.560 -0.3341 -0.6825  0.7852
  325TIP3    H222535   3.672   0.695   7.709  0.9983  1.3553  0.5634
  326TIP3   OH222536   0.540   1.393   0.943 -0.9383 -0.4067 -0.2395
  326TIP3    H122537   0.545   1.489   0.949 -0.0383 -0.4383 -0.3193
  326TIP3    H222538   0.447   1.373   0.956 -1.1221  0.4690 -0.1209
  327TIP3   OH222539   4.560   5.074   0.366 -0.5233 -0.3016 -0.0163
  327TIP3    H122540   4.555   5.169   0.357 -1.8341 -0.0620  2.3732
  327TIP3    H222541   4.473   5.042   0.343 -0.1144 -0.9260 -0.7406
  328TIP3   OH222542   6.590   3.322   8.303 -0.2613 -0.8132  0.2675
  328TIP3    H122543   6.614   3.260   8.234  1.2564  0.2689 -0.2385
  328TIP3    H222544   6.655   3.309   8.371 -0.4389 -0.3665  0.5285
  329TIP3   OH222545   6.240   2.595   8.020 -0.1249  0.0493 -0.7711
  329TIP3    H122546   6.240   2.511   8.064  2.9610  0.4477  0.1903
  329TIP3    H222547   6.174   2.646   8.066 -1.9213 -1.7068 -1.2630
  330TIP3   OH222548   4.643   0.648   0.517  0.4487  0.6866  0.1008
  330TIP3    H122549   4.718   0.588   0.521 -0.0055  0.1324  0.5424
  330TIP3    H222550   4.615   0.646   0.426 -0.6552 -1.1685  0.4407
  331TIP3   OH222551   3.435   0.188   7.003  0.1109 -0.2029  0.3881
  331TIP3    H122552   3.459   0.278   7.024  1.5078 -0.3908 -0.2965
  331TIP3    H222553   3.362   0.196   6.942 -0.5029  0.4308  1.1816
  332TIP3   OH222554   1.052   4.195   0.142  0.2677 -0.1945 -0.2703
  332TIP3    H122555   1.100   4.112   0.146 -1.1350 -1.1108 -1.4044
  332TIP3    H222556   1.077   4.233   0.059 -0.7309 -0.5558 -0.7526
  333TIP3   OH222557   3.828   0.873   8.003 -0.2579 -0.1481  0.4842
  333TIP3    H122558   3.774   0.870   8.082  0.4601 -1.5871  0.9537
  333TIP3    H222559   3.816   0.788   7.962 -0.7446  0.6328 -1.0865
  334TIP3   OH222560   3.352   2.377   7.375 -0.3542 -0.7252 -0.5803
  334TIP3    H122561   3.436   2.337   7.352  0.1585 -0.2301  0.3889
  334TIP3    H222562   3.363   2.469   7.352  0.2926 -0.1394  1.8371
  335TIP3   OH222563   1.810   4.929   2.889  0.0579 -0.0478  0.3888
  335TIP3    H122564   1.715   4.927   2.897  0.0059  1.4973  0.4374
  335TIP3    H222565   1.827   4.994   2.820  1.1207  0.8617  1.4650
  336TIP3   OH222566   0.772   6.641   2.494 -0.0325  0.3391  0.0812
  336TIP3    H122567   0.760   6.546   2.484 -0.3757  0.5013 -1.2337
  336TIP3    H222568   0.805   6.651   2.583 -1.0338 -0.9211  0.6342
  337TIP3   OH222569   5.124   4.567   1.010  0.0914 -0.0704 -0.2515
  337TIP3    H122570   5.096   4.586   0.920  0.0784 -2.6229 -0.8552
  337TIP3    H222571   5.213   4.532   1.000 -0.0127 -0.6161  0.6992
  338TIP3   OH222572   1.652   3.240   0.911  0.0457 -0.6736  0.1472
  338TIP3    H122573   1.710   3.218   0.838  1.2697 -1.6256  1.3398
  338TIP3    H222574   1.647   3.335   0.910 -0.1037 -0.6734 -1.2707
  339TIP3   OH222575   3.545   1.859   0.010 -0.0441 -0.6385  0.2288
  339TIP3    H122576   3.633   1.823   0.021 -0.4927 -2.1084 -0.7619
  339TIP3    H222577   3.528   1.906   0.091  0.6271 -2.5548  1.5356
  340TIP3   OH222578   4.632   2.639   7.183 -0.0804  0.6538 -0.1606
  340TIP3    H122579   4.636   2.547   7.159  1.9369  1.0786 -1.7232
  340TIP3    H222580   4.620   2.686   7.101 -0.9168  1.8157  0.5871
  341TIP3   OH222581   3.494   3.554   0.729  0.1571  0.1284  0.3309
  341TIP3    H122582   3.476   3.625   0.791 -1.2791  0.4324 -0.3848
  341TIP3    H222583   3.430   3.486   0.751 -0.6334  0.3921 -1.0118
  342TIP3   OH222584   5.722   4.585   1.832 -0.4931  0.0781 -0.0871
  342TIP3    H122585   5.726   4.496   1.867  0.0015  0.5467  1.0904
  342TIP3    H222586   5.813   4.605   1.809 -0.5577  0.4066 -0.0479
  343TIP3   OH222587   6.158   5.043   0.757  0.4346 -0.0826  0.1473
  343TIP3    H122588   6.083   5.100   0.740  0.2981 -0.5147 -0.7299
  343TIP3    H222589   6.201   5.082   0.833 -0.0697  0.7787 -0.0003
  344TIP3   OH222590   6.481   0.759   2.131 -0.1382  0.3034 -0.3261
  344TIP3    H122591   6.445   0.823   2.193 -0.6432  0.9884 -1.2945
  344TIP3    H222592   6.481   0.805   2.047  0.7410 -0.5309 -0.7974
  345TIP3   OH222593   4.798   3.282   0.978  0.2025 -0.2477 -0.5912
  345TIP3    H122594   4.738   3.334   1.031 -0.4773 -1.4795 -0.1119
  345TIP3    H222595   4.785   3.314   0.889  1.8312  2.3125 -0.0092
  346TIP3   OH222596   0.181   4.407   1.933  0.4290 -0.2180 -0.3920
  346TIP3    H122597   0.267   4.377   1.905  0.8697 -0.0542  0.7200
  346TIP3    H222598   0.199   4.467   2.005 -0.6321 -0.5467  0.1683
  347TIP3   OH222599   2.230   4.677   1.837 -0.0967  0.1170 -0.0055
  347TIP3    H122600   2.180   4.620   1.778  1.8843  0.5314 -2.2670
  347TIP3    H222601   2.183   4.760   1.837 -1.3108 -0.5524  0.7952
  348TIP3   OH222602   4.287   5.091   0.291  0.3369  0.0294 -0.1770
  348TIP3    H122603   4.193   5.076   0.300 -0.1476  1.6234 -1.7949
  348TIP3    H222604   4.295   5.135   0.206  2.6231 -0.6216 -0.3555
  349TIP3   OH222605   6.062   4.114   0.854  0.3270  0.1812  0.2325
  349TIP3    H122606   5.994   4.087   0.917  1.4957 -0.0988  1.4245
  349TIP3    H222607   6.062   4.045   0.788 -0.8474  0.4203 -0.0474
  350TIP3   OH222608   6.747   6.070   1.319 -0.0333  0.2062  0.1133
  350TIP3    H122609   6.820   6.009   1.304  0.7822  1.5006 -1.5263
  350TIP3    H222610   6.708   6.082   1.232 -1.3598  0.6004  0.7422
  351TIP3   OH222611   1.840   6.035   1.482 -0.6387 -0.0713 -0.3786
  351TIP3    H122612   1.803   5.947   1.469 -1.5549  0.1293  0.6933
  351TIP3    H222613   1.932   6.019   1.504 -0.8261 -0.7823 -0.0675
  352TIP3   OH222614   2.376   4.107   2.522  0.1537 -0.1005 -0.0367
  352TIP3    H122615   2.448   4.152   2.566  0.4629  0.8365 -1.4334
  352TIP3    H222616   2.364   4.154   2.440  0.1538 -2.2338 -1.3557
  353TIP3   OH222617   1.082   2.149   7.331 -0.2146  0.4093  0.1379
  353TIP3    H122618   0.997   2.115   7.360 -1.0677  2.0004 -0.3307
  353TIP3    H222619   1.108   2.209   7.400  0.3719  0.1751  0.1209
  354TIP3   OH222620   3.337   2.757   0.352 -0.1300  0.0757 -0.9457
  354TIP3    H122621   3.260   2.772   0.406 -1.0762  3.1331 -2.8586
  354TIP3    H222622   3.303   2.715   0.273  1.0138 -3.0125  0.0608
  355TIP3   OH222623   0.920   5.896   0.035  0.0078 -0.6380  0.1848
  355TIP3    H122624   0.891   5.817   0.082  1.4150 -1.0997  0.3290
  355TIP3    H222625   0.850   5.913  -0.028 -1.2993 -0.7833  1.5342
  356TIP3   OH222626   3.732   6.722   6.712  0.2556 -0.2867  0.2950
  356TIP3    H122627   3.651   6.747   6.757 -0.3427  0.6992 -1.2491
  356TIP3    H222628   3.719   6.630   6.688  0.0155 -0.4254  0.9387
  357TIP3   OH222629   0.863   6.152   0.227 -0.2432  0.4143  0.2557
  357TIP3    H122630   0.848   6.097   0.150  0.9109 -0.1427  0.4135
  357TIP3    H222631   0.775   6.182   0.252 -1.1859 -2.5737  1.0569
  358TIP3   OH222632   3.194   1.813   0.955 -0.6527  0.1067  0.0534
  358TIP3    H122633   3.238   1.805   0.870 -0.3361  0.2579  0.1999
  358TIP3    H222634   3.237   1.748   1.010 -1.2375 -0.3794 -0.0542
  359TIP3   OH222635   3.440   5.369   0.069  0.7160  0.0406  0.2972
  359TIP3    H122636   3.373   5.436   0.077 -0.5601 -1.2279  0.7195
  359TIP3    H222637   3.508   5.408   0.014 -0.6825  1.1395 -0.6947
  360TIP3   OH222638   0.792   0.647   8.181  1.0560  0.3151  0.2390
  360TIP3    H122639   0.725   0.586   8.210 -0.2581  2.0201  1.0118
  360TIP3    H222640   0.858   0.593   8.138  0.5670 -1.7494  1.9296
  361TIP3   OH222641   6.824   0.588   2.795  0.5554  0.3890  0.6520
  361TIP3    H122642   6.898   0.559   2.742  0.4345  2.9367 -1.0704
  361TIP3    H222643   6.747   0.563   2.744  0.3801  1.2067  0.4976
  362TIP3   OH222644   4.436   4.222   1.048  0.1566 -0.4155 -0.0920
  362TIP3    H122645   4.464   4.164   1.119  1.9145 -0.8723 -1.1125
  362TIP3    H222646   4.516   4.266   1.019 -0.5016 -0.2615 -1.8071
  363TIP3   OH222647   6.320   6.485   8.427  0.0125 -0.3426  0.9796
  363TIP3    H122648   6.269   6.411   8.460  1.0723 -1.4144  0.3057
  363TIP3    H222649   6.256   6.555   8.415 -1.3301 -1.6620  0.0926
  364TIP3   OH222650   4.914   3.363   0.426  0.1409 -0.1846 -0.2158
  364TIP3    H122651   4.888   3.452   0.401  0.1073  0.2831  1.3651
  364TIP3    H222652   5.002   3.352   0.389  0.8728  1.1780  1.0491
  365TIP3   OH222653   1.613   3.433   1.174 -0.4396  0.1699  0.1923
  365TIP3    H122654   1.538   3.415   1.116 -0.4292 -0.8470  0.4849
  365TIP3    H222655   1.689   3.412   1.121 -0.4477 -1.4506  0.7848
  366TIP3   OH222656   0.524   4.553   1.719  0.1461  0.2041 -0.0165
  366TIP3    H122657   0.525   4.601   1.802 -0.1498  1.5413 -0.7475
  366TIP3    H222658   0.449   4.589   1.672 -1.6771 -2.7923  0.3610
  367TIP3   OH222659   2.068   6.105   8.540  0.1023  0.1109  0.0032
  367TIP3    H122660   2.142   6.076   8.593  0.3381  0.3366 -0.1975
  367TIP3    H222661   1.993   6.058   8.575  0.3739 -0.2620  0.0885
  368TIP3   OH222662   3.650   6.526   8.467 -0.3563  0.3809  0.1877
  368TIP3    H122663   3.562   6.508   8.501  0.2153 -1.5890  0.7919
  368TIP3    H222664   3.661   6.462   8.396  0.3811  1.0062 -0.2727
  369TIP3   OH222665   3.301   1.232   1.048 -0.7848  0.6126  0.3006
  369TIP3    H122666   3.267   1.301   0.991 -0.3850  2.0461  1.6902
  369TIP3    H222667   3.395   1.228   1.027 -1.2304 -1.4215 -1.6181
  370TIP3   OH222668   4.905   5.052   2.727  0.0269 -0.1144 -0.0683
  370TIP3    H122669   4.984   5.047   2.674 -0.5127 -2.0521 -0.7792
  370TIP3    H222670   4.910   4.975   2.784 -0.5327  0.6744  1.0824
  371TIP3   OH222671   4.323   5.800   7.036  0.0010  0.5246  0.2994
  371TIP3    H122672   4.244   5.782   6.985 -0.5425  1.9974  0.5730
  371TIP3    H222673   4.392   5.809   6.971 -0.2174  0.0673 -0.0033
  372TIP3   OH222674   3.954   1.701   0.993  0.2387  0.1189  0.3257
  372TIP3    H122675   3.906   1.760   0.936  2.1949  0.7758 -0.7665
  372TIP3    H222676   3.911   1.707   1.078 -0.2990  2.2693 -0.0520
  373TIP3   OH222677   4.131   2.455   8.361  0.4204 -0.2011  0.4676
  373TIP3    H122678   4.219   2.483   8.386  0.6472  1.7365 -2.0123
  373TIP3    H222679   4.145   2.376   8.310  0.6996 -0.1390  0.4413
  374TIP3   OH222680   0.631   2.617   0.181 -0.4196  0.9790 -0.4807
  374TIP3    H122681   0.698   2.674   0.221 -0.5359  1.6107 -1.1679
  374TIP3    H222682   0.559   2.677   0.161 -0.7680  0.4831 -0.7027
  375TIP3   OH222683   5.593   4.942   0.228  0.1730  0.8816 -0.0833
  375TIP3    H122684   5.649   4.880   0.181 -1.4022  0.2717 -1.2437
  375TIP3    H222685   5.537   4.980   0.161 -1.5251  0.6909  1.1607
  376TIP3   OH222686   4.198   3.929   2.166 -0.0976 -0.3480  0.0482
  376TIP3    H122687   4.145   3.914   2.087  0.8468  0.0537 -0.6738
  376TIP3    H222688   4.134   3.945   2.235 -0.9160  1.6771 -1.1111
  377TIP3   OH222689   6.701   2.161   0.621  0.0658  0.4661 -0.2112
  377TIP3    H122690   6.722   2.252   0.598 -1.1117  0.8823  0.3066
  377TIP3    H222691   6.623   2.167   0.676  0.6969 -0.7739  0.8814
  378TIP3   OH222692   1.696   0.382   7.344  0.2942 -0.2278 -0.1774
  378TIP3    H122693   1.719   0.375   7.252  0.4690  1.0728 -0.2449
  378TIP3    H222694   1.762   0.440   7.381 -1.1265  1.1823  0.2487
  379TIP3   OH222695   6.729   1.208   7.276 -0.8725  0.1679 -0.0674
  379TIP3    H122696   6.699   1.249   7.195 -1.2117 -3.2257 -1.8455
  379TIP3    H222697   6.649   1.186   7.323 -0.7941 -0.2489 -0.1232
  380TIP3   OH222698   6.376   0.157   7.695 -0.4475 -0.0774  0.2773
  380TIP3    H122699   6.308   0.215   7.729 -0.8217 -1.4763  2.0429
  380TIP3    H222700   6.439   0.216   7.654 -0.4452  1.6870  2.6180
  381TIP3   OH222701   3.309   0.404   2.466 -0.1929  1.1656 -0.1424
  381TIP3    H122702   3.357   0.394   2.384 -1.4865  1.5815 -0.9688
  381TIP3    H222703   3.287   0.314   2.492 -0.7984  1.0898 -0.8811
  382TIP3   OH222704   1.327   1.852   0.011 -0.1196  0.4895  0.0250
  382TIP3    H122705   1.367   1.774  -0.027 -0.4730 -0.1713  0.9718
  382TIP3    H222706   1.342   1.921  -0.054  1.5849  0.0170 -0.1364
  383TIP3   OH222707   4.977   0.185   1.640 -0.2692 -0.1957  0.1323
  383TIP3    H122708   4.936   0.252   1.586  0.5937  0.7595  0.6366
  383TIP3    H222709   5.051   0.154   1.588  0.2520  0.3546  0.5340
  384TIP3   OH222710   5.725   1.954   0.468  0.0069 -0.0750  0.2902
  384TIP3    H122711   5.744   2.029   0.413 -0.6933  1.1147  1.5918
  384TIP3    H222712   5.788   1.960   0.540 -0.2369 -0.5559  0.5523
  385TIP3   OH222713   6.183   2.048   1.251 -0.4684 -0.2687  0.7247
  385TIP3    H122714   6.155   1.990   1.181  1.9209  0.4244 -0.9659
  385TIP3    H222715   6.124   2.123   1.246  0.4838  0.4050 -1.5575
  386TIP3   OH222716   2.957   3.926   0.330 -0.4778 -0.1458  0.1087
  386TIP3    H122717   2.861   3.926   0.339 -0.3503 -0.1463  1.6858
  386TIP3    H222718   2.972   3.895   0.240 -1.9763  0.8255 -0.5262
  387TIP3   OH222719   4.636   6.187   8.121  0.0818 -0.3770 -0.4955
  387TIP3    H122720   4.623   6.192   8.027  1.1177 -1.7362 -0.7564
  387TIP3    H222721   4.724   6.221   8.135  0.2152 -0.8538 -0.1269
  388TIP3   OH222722   1.713   4.101   7.817 -0.3976  0.1291  0.1380
  388TIP3    H122723   1.662   4.110   7.737  0.8380  0.7518 -0.5894
  388TIP3    H222724   1.777   4.033   7.798 -1.0377 -0.8008  1.1234
  389TIP3   OH222725   1.229   3.875   7.554  0.2758 -0.5360 -0.2036
  389TIP3    H122726   1.161   3.910   7.611  1.3379  3.6084 -1.1745
  389TIP3    H222727   1.183   3.856   7.472  0.0189  0.7771 -0.3735
  390TIP3   OH222728   3.162   6.293   2.303  0.3319 -0.4469 -0.5158
  390TIP3    H122729   3.180   6.317   2.394  1.2384 -0.8857 -0.5669
  390TIP3    H222730   3.079   6.245   2.307  0.0200  0.1167 -0.0226
  391TIP3   OH222731   1.903   4.004   7.030 -0.5553 -0.1393  0.2457
  391TIP3    H122732   1.864   4.075   6.980  1.0631  0.5472 -0.1194
  391TIP3    H222733   1.934   3.942   6.963 -3.7610 -2.3317  0.5620
  392TIP3   OH222734   0.637   5.900   7.351  0.1554 -0.0170  0.2138
  392TIP3    H122735   0.699   5.898   7.424 -0.0494 -0.4959  0.3795
  392TIP3    H222736   0.681   5.952   7.284  0.3621  0.3986  0.6607
  393TIP3   OH222737   6.419   0.343   0.352  0.5584 -0.0910  0.3990
  393TIP3    H122738   6.471   0.263   0.358  2.0771  0.8738  0.6506
  393TIP3    H222739   6.398   0.366   0.442  1.4832  0.6163  0.4533
  394TIP3   OH222740   6.468   5.979   7.892  0.2524 -0.1572 -0.2833
  394TIP3    H122741   6.531   6.014   7.828  2.3443 -3.2980 -0.1761
  394TIP3    H222742   6.503   6.005   7.977  0.4635 -0.4249 -0.2850
  395TIP3   OH222743   3.088   5.553   0.800  0.1736  0.2065 -0.5704
  395TIP3    H122744   3.058   5.644   0.791  1.8318  0.6819 -1.6995
  395TIP3    H222745   3.077   5.534   0.893  0.1717  1.6980 -0.2316
  396TIP3   OH222746   0.465   6.850   7.042 -0.3019  0.2113 -0.2040
  396TIP3    H122747   0.486   6.788   6.973  0.8411  0.4338 -0.0777
  396TIP3    H222748   0.390   6.899   7.009  1.3105  1.5617 -2.1103
  397TIP3   OH222749   1.907   3.741   0.256  0.4565 -1.0832  0.1059
  397TIP3    H122750   1.954   3.809   0.209 -0.7045 -2.1690 -2.9062
  397TIP3    H222751   1.815   3.752   0.229 -0.0048 -2.8193  0.8110
  398TIP3   OH222752   4.049   4.744   0.500 -0.0302 -0.3402  0.7882
  398TIP3    H122753   4.001   4.697   0.569  0.2020  0.2994  1.3949
  398TIP3    H222754   4.136   4.758   0.536 -0.3878  1.4384  1.0467
  399TIP3   OH222755   0.677   0.503   1.373  0.4880 -0.1162 -0.1605
  399TIP3    H122756   0.712   0.427   1.325 -2.1318  0.7960 -4.0247
  399TIP3    H222757   0.589   0.477   1.399 -0.2138  1.2901 -0.9804
  400TIP3   OH222758   4.567   5.321   7.158 -0.2246  0.5957  0.2360
  400TIP3    H122759   4.561   5.332   7.253 -0.1037 -1.3472  0.5061
  400TIP3    H222760   4.533   5.233   7.142  2.5111 -0.2944 -1.1888
  401TIP3   OH222761   6.789   1.168   2.167  0.4965 -0.3379 -0.0973
  401TIP3    H122762   6.784   1.072   2.169  2.9947 -0.5442 -1.0981
  401TIP3    H222763   6.784   1.193   2.259  2.1164 -1.6352  0.4040
  402TIP3   OH222764   5.239   5.051   7.466 -0.5117  0.0248  0.2580
  402TIP3    H122765   5.230   4.959   7.442 -0.6718  0.1395 -0.1258
  402TIP3    H222766   5.163   5.094   7.428  0.3600  0.5854 -0.9596
  403TIP3   OH222767   2.267   0.988   0.098  0.2056 -0.1585 -0.3515
  403TIP3    H122768   2.318   1.065   0.123  0.9201 -0.9152  0.6015
  403TIP3    H222769   2.330   0.929   0.056  0.4096 -1.5106  1.6869
  404TIP3   OH222770   6.211   6.193   7.039 -0.7125 -0.0190  0.5196
  404TIP3    H122771   6.265   6.123   7.076 -2.3633 -1.3674  0.4996
  404TIP3    H222772   6.228   6.191   6.945 -2.2459 -1.8400  0.2203
  405TIP3   OH222773   4.340   0.140   8.090 -0.2510  0.0360  0.1715
  405TIP3    H122774   4.262   0.085   8.098 -0.1835 -0.1505 -0.3958
  405TIP3    H222775   4.372   0.149   8.180 -1.5396  1.0330  0.5661
  406TIP3   OH222776   1.212   3.277   0.861 -0.9387 -0.3053  0.0109
  406TIP3    H122777   1.173   3.241   0.941  2.0705 -2.4693  0.7028
  406TIP3    H222778   1.302   3.297   0.886 -0.1186 -0.3003 -2.6329
  407TIP3   OH222779   0.090   0.764   1.732  0.6846 -0.2333  0.4516
  407TIP3    H122780   0.059   0.853   1.743  0.2819 -0.4081  0.7568
  407TIP3    H222781   0.155   0.769   1.662 -0.8311 -0.0361 -0.9993
  408TIP3   OH222782   2.010   6.566   1.423 -0.0181 -0.6105  0.0246
  408TIP3    H122783   2.081   6.549   1.361  0.0350  1.2060 -0.4569
  408TIP3    H222784   2.054   6.585   1.506  0.2929  2.8488 -0.7950
  409TIP3   OH222785   3.329   6.440   7.661  0.8872  0.4932  0.2772
  409TIP3    H122786   3.391   6.405   7.598 -0.1424  0.0237 -0.4867
  409TIP3    H222787   3.320   6.371   7.727 -0.2395 -0.2179 -0.6025
  410TIP3   OH222788   1.908   5.126   1.276 -0.1462  0.5097  0.2983
  410TIP3    H122789   1.854   5.072   1.334  0.8002  1.2741  1.9585
  410TIP3    H222790   1.926   5.070   1.200  0.8448 -1.5756  1.9808
  411TIP3   OH222791   0.234   5.809   1.810  0.7704 -0.9335 -0.1750
  411TIP3    H122792   0.257   5.805   1.903  1.0982 -2.1398 -0.2899
  411TIP3    H222793   0.216   5.718   1.787 -0.3603 -0.5073 -1.0387
  412TIP3   OH222794   1.389   0.230   8.044 -0.0487  0.3072  0.8014
  412TIP3    H122795   1.343   0.192   7.969  0.6216 -1.9538  1.4664
  412TIP3    H222796   1.368   0.173   8.118 -0.2989  2.1924  2.2748
  413TIP3   OH222797   6.248   1.696   1.763  0.2697  0.1473  0.4190
  413TIP3    H122798   6.205   1.692   1.678 -1.0856  1.0111  1.0217
  413TIP3    H222799   6.341   1.682   1.744 -0.1991 -1.4354 -0.9740
  414TIP3   OH222800   2.890   1.546   7.715  0.5022  0.1472  0.2316
  414TIP3    H122801   2.938   1.629   7.709 -0.1487  0.5086 -0.0418
  414TIP3    H222802   2.863   1.527   7.625 -2.0026  1.2301  0.6813
  415TIP3   OH222803   2.922   2.360   8.102 -0.0072 -0.0584  0.2292
  415TIP3    H122804   2.895   2.427   8.039 -1.0908 -0.3401  0.3608
  415TIP3    H222805   2.998   2.318   8.062  0.4825  1.0177 -0.0067
  416TIP3   OH222806   4.591   6.234   1.025  0.2978  0.1011 -0.5211
  416TIP3    H122807   4.639   6.292   1.084 -1.7937  1.5495 -0.1534
  416TIP3    H222808   4.583   6.284   0.944  0.7267 -0.7623 -1.1142
  417TIP3   OH222809   5.155   5.401   2.719  0.5022  0.0468 -0.1152
  417TIP3    H122810   5.137   5.330   2.658 -0.1039 -0.9129  1.1455
  417TIP3    H222811   5.251   5.404   2.726  0.5582 -0.1153 -0.7584
  418TIP3   OH222812   6.101   3.001   0.523 -0.2171 -0.7176 -0.1866
  418TIP3    H122813   6.146   2.951   0.455 -1.2754 -1.9323 -0.0176
  418TIP3    H222814   6.022   2.951   0.542 -2.3223  1.9026 -1.2893
  419TIP3   OH222815   0.571   2.769   1.077 -0.5030  0.1406 -0.8891
  419TIP3    H122816   0.574   2.735   1.166  0.6233  1.0671 -0.5373
  419TIP3    H222817   0.644   2.726   1.033 -1.7713 -1.2127 -1.7387
  420TIP3   OH222818   4.150   4.613   2.055  0.9468 -0.1280 -0.1760
  420TIP3    H122819   4.091   4.562   1.999  0.3384  1.2859 -0.8853
  420TIP3    H222820   4.186   4.549   2.117 -2.3890 -0.8508  1.2271
  421TIP3   OH222821   4.119   2.183   1.991 -0.0012  0.1854 -0.1662
  421TIP3    H122822   4.133   2.271   2.027  2.6948  0.3012 -1.2877
  421TIP3    H222823   4.091   2.199   1.901  1.2416 -0.0489 -0.6177
  422TIP3   OH222824   5.497   4.489   0.124 -0.4079  0.2542 -0.5638
  422TIP3    H122825   5.480   4.561   0.063  0.4023 -0.4367 -1.6529
  422TIP3    H222826   5.438   4.506   0.198  0.0703  2.2633 -0.5742
  423TIP3   OH222827   1.257   6.623   6.876 -0.1924  0.1346 -0.2094
  423TIP3    H122828   1.302   6.539   6.872 -1.6959 -0.9018  2.1977
  423TIP3    H222829   1.174   6.608   6.829 -0.0313  0.6212 -0.6638
  424TIP3   OH222830   2.557   0.106   2.349 -0.3363  0.5117 -0.2180
  424TIP3    H122831   2.572   0.013   2.361 -1.2435  0.2739 -0.8068
  424TIP3    H222832   2.524   0.136   2.434  1.7966  0.7329  0.5996
  425TIP3   OH222833   2.632   5.502   0.967 -0.4786 -0.3258  0.2431
  425TIP3    H122834   2.642   5.412   0.999 -0.6080  0.5500  2.9789
  425TIP3    H222835   2.538   5.511   0.952 -0.4017 -0.7903 -0.5806
  426TIP3   OH222836   6.327   2.758   0.401  0.2667  0.4678  0.2659
  426TIP3    H122837   6.417   2.774   0.374  0.1545  0.9157  0.1493
  426TIP3    H222838   6.332   2.744   0.496  0.5960 -0.5979  0.1040
  427TIP3   OH222839   1.437   1.009   0.535 -0.2282  0.1054  0.2621
  427TIP3    H122840   1.401   0.925   0.562 -0.3201 -0.0563 -0.3405
  427TIP3    H222841   1.404   1.021   0.446  1.8308 -0.4205 -0.6299
  428TIP3   OH222842   1.251   1.351   1.983 -0.0454 -0.0088 -0.1114
  428TIP3    H122843   1.238   1.338   2.077 -1.5636  0.9520 -0.1447
  428TIP3    H222844   1.319   1.289   1.959  0.0241 -0.6149  1.5367
  429TIP3   OH222845   0.077   5.849   8.571 -0.4640  0.0235  0.5139
  429TIP3    H122846  -0.003   5.855   8.623 -1.7010 -0.9950 -1.1669
  429TIP3    H222847   0.056   5.895   8.489  0.1815 -1.3783 -0.4840
  430TIP3   OH222848   6.134   0.022   8.206  0.0949  0.1587 -0.1081
  430TIP3    H122849   6.157  -0.014   8.120 -1.3920 -0.1173 -0.4202
  430TIP3    H222850   6.157  -0.047   8.268 -0.7070 -0.4913 -0.5041
  431TIP3   OH222851   1.047   0.564   8.079  0.6780 -0.3149  0.0223
  431TIP3    H122852   1.080   0.508   8.150  1.9100  0.0334 -0.2566
  431TIP3    H222853   1.119   0.624   8.061  0.0710  0.1217 -0.9861
  432TIP3   OH222854   6.561   3.629   8.218  0.4050 -0.1805 -0.2551
  432TIP3    H122855   6.602   3.702   8.266 -0.2493 -0.0028  0.0377
  432TIP3    H222856   6.557   3.558   8.282 -0.9594  0.2257  0.1415
  433TIP3   OH222857   6.111   3.900   7.753  0.5609  0.5437 -0.1290
  433TIP3    H122858   6.198   3.940   7.750  0.2806  1.3147  1.5015
  433TIP3    H222859   6.067   3.940   7.828 -1.6669  1.0554 -1.6051
  434TIP3   OH222860   4.439   1.224   7.606 -0.0142  0.2941 -0.1889
  434TIP3    H122861   4.391   1.305   7.589  0.4926  0.8760  0.9828
  434TIP3    H222862   4.517   1.231   7.552  0.7793  1.3445  1.0163
  435TIP3   OH222863   4.672   6.483   7.603  0.4056  0.3880 -0.2317
  435TIP3    H122864   4.747   6.500   7.660  0.3636  1.1840 -0.4030
  435TIP3    H222865   4.608   6.439   7.660 -0.0045  1.9894  0.6169
  436TIP3   OH222866   0.089   6.358   1.701 -0.7210 -0.1937 -0.2213
  436TIP3    H122867   0.117   6.447   1.680 -1.1018 -0.1802 -0.7038
  436TIP3    H222868   0.007   6.370   1.749 -0.2338 -0.2528  0.6482
  437TIP3   OH222869   4.881   6.256   2.717  0.0541  0.1265 -0.1740
  437TIP3    H122870   4.947   6.283   2.780 -0.4441  0.7412  0.0976
  437TIP3    H222871   4.899   6.163   2.700 -0.1486 -0.2045  1.2970
  438TIP3   OH222872   5.069   6.714   7.915 -0.3479  0.1811  0.0856
  438TIP3    H122873   5.030   6.800   7.931 -0.5246  0.3264 -1.0272
  438TIP3    H222874   5.164   6.730   7.917 -0.3800  0.5837 -0.9361
  439TIP3   OH222875   6.189   3.246   1.487  0.2763  0.1691  0.0139
  439TIP3    H122876   6.179   3.304   1.411 -0.2251  0.2845  0.1649
  439TIP3    H222877   6.105   3.201   1.494  0.1877  0.4371  0.7348
  440TIP3   OH222878   5.733   0.020   7.626 -0.3815  0.3645  0.3354
  440TIP3    H122879   5.726  -0.011   7.716 -2.6140  0.9986  0.4495
  440TIP3    H222880   5.740   0.115   7.634  1.9772  0.2887 -0.1343
  441TIP3   OH222881   4.664   0.623   0.916  0.3167  0.7199  0.2116
  441TIP3    H122882   4.740   0.609   0.859  0.6138 -2.0020  1.1155
  441TIP3    H222883   4.595   0.653   0.857  1.5143  1.2410 -0.9889
  442TIP3   OH222884   6.200   0.029   0.617 -0.0755 -0.3336  0.0461
  442TIP3    H122885   6.172   0.070   0.699  0.5247  1.5331 -0.6389
  442TIP3    H222886   6.295   0.043   0.614 -0.2756  0.9454 -1.6413
  443TIP3   OH222887   6.189   4.061   8.395 -0.3455  0.0689 -0.1931
  443TIP3    H122888   6.146   3.976   8.401 -0.4117  0.0928 -0.3240
  443TIP3    H222889   6.260   4.057   8.459  0.8348 -0.7638 -1.5149
  444TIP3   OH222890   2.579   2.161   1.634 -0.2540 -0.2213  0.5019
  444TIP3    H122891   2.574   2.184   1.727  1.3743  2.1748  0.1004
  444TIP3    H222892   2.667   2.125   1.623 -0.4338 -0.4866 -0.1013
  445TIP3   OH222893   5.339   4.052   7.079 -0.3744 -0.3578 -0.0534
  445TIP3    H122894   5.244   4.065   7.082 -0.7201 -2.7035  1.3503
  445TIP3    H222895   5.357   4.024   6.989 -1.1788 -0.8556 -0.0681
  446TIP3   OH222896   5.680   2.607   1.953 -0.7864  0.4441  0.6735
  446TIP3    H122897   5.651   2.696   1.972 -2.4714 -0.0718  0.7098
  446TIP3    H222898   5.686   2.604   1.857 -1.5696  0.3838  0.6138
  447TIP3   OH222899   3.741   1.785   7.172 -0.1528  0.3916 -0.4480
  447TIP3    H122900   3.758   1.814   7.262 -1.6389 -1.6313  0.5532
  447TIP3    H222901   3.796   1.708   7.161 -1.2105 -0.3534 -0.6597
  448TIP3   OH222902   5.707   1.285   6.958  0.8005 -0.5200 -0.2638
  448TIP3    H122903   5.689   1.310   6.867  0.7432  0.6076  0.0407
  448TIP3    H222904   5.793   1.324   6.977  0.2949  0.2708  0.5108
  449TIP3   OH222905   5.586   6.786   6.789 -0.1976  1.3448  0.2947
  449TIP3    H122906   5.574   6.881   6.785 -0.6137  1.2869 -3.1057
  449TIP3    H222907   5.498   6.751   6.798 -0.8424  1.3239 -4.0473
  450TIP3   OH222908   3.763   4.133   2.844  0.7795  0.1730 -0.1066
  450TIP3    H122909   3.687   4.192   2.846  0.2331 -0.5006  2.3413
  450TIP3    H222910   3.801   4.139   2.932  2.3643 -1.0365 -0.6600
  451TIP3   OH222911   2.831   1.705   0.836  0.0582  0.0279  0.0328
  451TIP3    H122912   2.736   1.716   0.846  0.2724  1.9668  0.2547
  451TIP3    H222913   2.868   1.776   0.888  1.6099  0.1929 -1.2538
  452TIP3   OH222914   0.192   2.808   1.338  0.6753  0.1892 -0.5267
  452TIP3    H122915   0.282   2.776   1.335  0.7787  0.3433  0.6451
  452TIP3    H222916   0.195   2.893   1.294  1.1861  0.3652 -0.1607
  453TIP3   OH222917   3.113   3.375   8.267 -0.1433 -0.1088  0.5315
  453TIP3    H122918   3.086   3.409   8.182 -1.2525  1.7146  1.5488
  453TIP3    H222919   3.194   3.327   8.249  0.5265  1.5765 -1.2990
  454TIP3   OH222920   6.857   4.402   1.001 -0.2624 -0.1145 -0.0749
  454TIP3    H122921   6.825   4.446   1.080 -0.3711  0.7095 -0.5643
  454TIP3    H222922   6.783   4.406   0.940  0.1907  0.2355 -0.6034
  455TIP3   OH222923   3.606   0.661   6.997  0.1210 -0.1475  0.6878
  455TIP3    H122924   3.670   0.732   6.989 -2.7028  2.5500  0.2322
  455TIP3    H222925   3.570   0.651   6.909 -0.3142 -1.4125  0.9881
  456TIP3   OH222926   0.451   4.493   8.266  0.0775  0.1764  0.0911
  456TIP3    H122927   0.512   4.429   8.302  0.2180  0.5192  0.4776
  456TIP3    H222928   0.371   4.483   8.318 -0.7045 -1.2285 -1.3197
  457TIP3   OH222929   2.701   6.148   7.285 -0.3775  0.1402 -0.4730
  457TIP3    H122930   2.746   6.085   7.228  1.5169  1.3747 -0.4338
  457TIP3    H222931   2.697   6.228   7.233 -1.6912  0.3524 -0.0832
  458TIP3   OH222932   0.808   0.033   2.686 -0.1970 -0.1378 -0.2058
  458TIP3    H122933   0.741   0.064   2.746  0.2466 -1.5300  1.0744
  458TIP3    H222934   0.783   0.068   2.601 -2.7501 -0.9221  0.1542
  459TIP3   OH222935   2.006   6.356   7.761  0.0879  0.4139 -0.0836
  459TIP3    H122936   2.082   6.399   7.801 -0.2242  0.4356  0.4934
  459TIP3    H222937   1.933   6.380   7.817 -0.4075  0.6586 -0.8234
  460TIP3   OH222938   3.017   6.058   1.428  0.4095 -0.1133  0.6500
  460TIP3    H122939   2.972   5.994   1.372 -0.7393  0.8346  0.4444
  460TIP3    H222940   2.961   6.135   1.425  1.0813  0.4514  1.9640
  461TIP3   OH222941   1.049   6.160   2.146  0.1508  0.0180  0.2487
  461TIP3    H122942   1.063   6.239   2.094  2.0601 -0.5718 -0.2276
  461TIP3    H222943   1.134   6.142   2.186 -0.2177 -1.8321  0.2975
  462TIP3   OH222944   5.076   2.705   1.602  0.0769  0.1187  0.4317
  462TIP3    H122945   5.059   2.628   1.656 -0.5810 -0.6488 -0.8127
  462TIP3    H222946   5.005   2.765   1.624 -0.7570 -0.5805 -0.2293
  463TIP3   OH222947   2.394   5.647   1.056 -0.4579  0.3276  0.0508
  463TIP3    H122948   2.321   5.659   1.117 -1.0450 -1.0995 -0.3203
  463TIP3    H222949   2.465   5.700   1.093 -1.0352  0.0962  1.5851
  464TIP3   OH222950   3.520   0.902   0.945  0.2708  0.0661  0.5366
  464TIP3    H122951   3.583   0.840   0.907 -0.2834  0.5782 -1.2991
  464TIP3    H222952   3.568   0.985   0.949 -0.4293  0.5970 -1.4186
  465TIP3   OH222953   0.396   5.535   0.500 -0.1010 -0.4870 -0.5262
  465TIP3    H122954   0.425   5.583   0.422 -2.8585 -1.0339 -2.0135
  465TIP3    H222955   0.475   5.492   0.531  1.0364 -0.7530 -3.4185
  466TIP3   OH222956   6.573   6.103   8.113  0.6497  0.3071  0.4861
  466TIP3    H122957   6.559   6.197   8.118 -1.0513  0.2114 -1.2066
  466TIP3    H222958   6.521   6.067   8.185 -1.6339  0.5131 -0.9320
  467TIP3   OH222959   0.926   2.935   8.128  0.8194 -0.3191  0.1900
  467TIP3    H122960   0.866   3.001   8.093  2.3337  1.0165 -0.0052
  467TIP3    H222961   0.883   2.905   8.209 -0.4088  0.0935 -0.2751
  468TIP3   OH222962   5.517   5.253   0.075 -0.3707  0.0403 -0.3038
  468TIP3    H122963   5.478   5.292  -0.004 -1.6630  0.8572  0.7055
  468TIP3    H222964   5.572   5.183   0.041 -0.5512  0.6393 -1.9721
  469TIP3   OH222965   6.466   6.143   7.238  0.2591  0.0370 -0.0137
  469TIP3    H122966   6.553   6.113   7.263  0.2693 -0.2790 -0.4250
  469TIP3    H222967   6.475   6.173   7.148 -0.1936 -0.6203 -0.2942
  470TIP3   OH222968   3.463   0.195   0.522  0.3892  0.1897 -0.3320
  470TIP3    H122969   3.546   0.244   0.521  0.2041  0.5045 -0.7040
  470TIP3    H222970   3.485   0.111   0.561  0.8226  0.3833 -0.1504
  471TIP3   OH222971   2.357   4.517   1.481  0.1164 -0.0216  0.5308
  471TIP3    H122972   2.408   4.438   1.499  2.2188  1.3510  0.9725
  471TIP3    H222973   2.270   4.485   1.457  0.6189 -2.4090  1.6326
  472TIP3   OH222974   2.278   1.444   1.159  0.3637 -0.0619  0.0848
  472TIP3    H122975   2.211   1.382   1.189 -0.3829  0.9283  0.5223
  472TIP3    H222976   2.354   1.389   1.140  0.3766 -0.9068  2.2907
  473TIP3   OH222977   3.566   2.317   7.220 -0.2906  0.4883 -0.0317
  473TIP3    H122978   3.588   2.231   7.258 -2.2028  0.2749  0.7412
  473TIP3    H222979   3.614   2.320   7.137  1.5320 -0.3818  0.9308
  474TIP3   OH222980   6.133   2.605   2.394 -0.6330 -0.2771  0.2104
  474TIP3    H122981   6.086   2.651   2.463 -0.9739 -0.8843  0.3913
  474TIP3    H222982   6.122   2.512   2.416  1.5074 -0.4267  0.8386
  475TIP3   OH222983   3.423   3.307   1.400  0.2980 -0.0780  0.6276
  475TIP3    H122984   3.404   3.232   1.456 -0.2798 -0.1570  0.3303
  475TIP3    H222985   3.357   3.303   1.331  1.0343 -0.0146 -0.0935
  476TIP3   OH222986   4.833   3.449   6.715 -0.0369  0.0811  0.0643
  476TIP3    H122987   4.793   3.448   6.803 -0.1135 -0.2621  0.0270
  476TIP3    H222988   4.879   3.533   6.711  0.2948 -0.0659  0.5835
  477TIP3   OH222989   2.417   5.373   2.258 -0.3122  0.5324 -0.3679
  477TIP3    H122990   2.342   5.313   2.263 -1.0023  1.2384 -1.5044
  477TIP3    H222991   2.388   5.452   2.305  1.2470 -0.5688  2.6913
  478TIP3   OH222992   3.364   2.078   8.251 -0.0184  0.2526 -0.7435
  478TIP3    H122993   3.278   2.119   8.248  0.3657  1.1617 -0.0169
  478TIP3    H222994   3.374   2.049   8.342  0.1330 -0.5397 -1.0059
  479TIP3   OH222995   5.766   1.715   8.024  0.3423 -0.4579 -0.1629
  479TIP3    H122996   5.702   1.766   8.074  0.4759 -0.1733 -0.2783
  479TIP3    H222997   5.754   1.744   7.934  1.0425  0.0412 -0.1057
  480TIP3   OH222998   2.751   6.500   1.006  0.2758  0.7845  1.1359
  480TIP3    H122999   2.832   6.535   0.971 -0.2586  1.3765  0.4559
  480TIP3    H223000   2.764   6.405   1.008  0.0178  0.6269 -1.5634
  481TIP3   OH223001   1.294   2.577   2.352  0.2498  0.6100 -0.4024
  481TIP3    H123002   1.385   2.564   2.380  0.5666 -0.7612 -1.8528
  481TIP3    H223003   1.301   2.633   2.274  0.1823 -1.5644 -2.0761
  482TIP3   OH223004   0.381   4.308   1.524  0.2023  0.6070  0.4417
  482TIP3    H123005   0.379   4.394   1.565 -1.3475  0.6477  0.3527
  482TIP3    H223006   0.296   4.300   1.482  1.4855  0.3116 -2.2980
  483TIP3   OH223007   2.926   2.508   0.031  0.3602 -0.2039 -0.2004
  483TIP3    H123008   2.909   2.476  -0.057  0.0331 -1.9289  0.4621
  483TIP3    H223009   2.906   2.602   0.026 -0.4505 -0.4222 -1.7446
  484TIP3   OH223010   2.979   4.604   7.043 -0.1285  0.4689  0.0282
  484TIP3    H123011   3.019   4.691   7.044 -1.1402  1.1171 -3.6468
  484TIP3    H223012   3.053   4.544   7.042  0.7444  1.4883 -1.8946
  485TIP3   OH223013   3.347   3.310   0.351 -0.5466  0.0777 -0.2169
  485TIP3    H123014   3.281   3.242   0.366 -0.5456 -0.7097 -3.1534
  485TIP3    H223015   3.311   3.388   0.395 -1.1157 -1.4482  2.2046
  486TIP3   OH223016   3.675   6.486   0.337  0.2468 -0.1239 -0.3254
  486TIP3    H123017   3.666   6.446   0.423  1.3775  1.4355  0.5552
  486TIP3    H223018   3.760   6.456   0.305  0.5412  0.5529 -0.1978
  487TIP3   OH223019   5.504   2.387   1.290  0.0766  0.9036  0.2448
  487TIP3    H123020   5.435   2.321   1.292 -0.6934  1.6283 -0.8677
  487TIP3    H223021   5.585   2.337   1.280 -0.6177  0.1153 -2.3553
  488TIP3   OH223022   3.483   2.361   8.418  0.0523  0.0714  0.4912
  488TIP3    H123023   3.491   2.351   8.323 -0.8204 -0.5853  0.4816
  488TIP3    H223024   3.428   2.288   8.446 -1.5678  1.4953  1.2064
  489TIP3   OH223025   4.378   4.823   7.012  0.1392 -0.0923 -0.0652
  489TIP3    H123026   4.434   4.750   7.038  0.6587  0.3234 -0.0012
  489TIP3    H223027   4.415   4.853   6.929 -0.3460 -0.1826 -0.3196
  490TIP3   OH223028   5.798   1.778   0.892 -0.0602 -0.2292 -0.3436
  490TIP3    H123029   5.844   1.725   0.957 -0.2031  1.4243  1.1781
  490TIP3    H223030   5.837   1.752   0.809 -0.4414 -3.0128  0.2413
  491TIP3   OH223031   3.705   0.721   0.864  0.4426 -0.7397  0.7060
  491TIP3    H123032   3.792   0.723   0.824 -0.4438  0.3619 -1.3347
  491TIP3    H223033   3.657   0.656   0.813 -0.4973  0.1407  0.4153
  492TIP3   OH223034   2.261   0.638   0.691  0.3532  0.3768  0.0755
  492TIP3    H123035   2.235   0.730   0.692  0.2830  0.3528  0.5119
  492TIP3    H223036   2.356   0.640   0.707  0.2689  0.3448  0.5765
  493TIP3   OH223037   2.828   2.056   1.340  0.3036  0.0733  0.2563
  493TIP3    H123038   2.894   2.082   1.404 -0.3137 -0.4158  1.1241
  493TIP3    H223039   2.759   2.015   1.393 -0.2083 -0.3762 -0.7327
  494TIP3   OH223040   3.904   0.105   0.776 -0.3154  0.1806 -0.0154
  494TIP3    H123041   3.874   0.042   0.842 -2.1819  0.9799 -0.0382
  494TIP3    H223042   3.862   0.187   0.801  0.7528  1.0337 -0.9372
  495TIP3   OH223043   0.409   2.856   6.664  0.7681 -0.0632  0.1295
  495TIP3    H123044   0.432   2.934   6.612  2.1068  0.2232  1.0858
  495TIP3    H223045   0.322   2.832   6.634  0.7774  1.1514 -0.9776
  496TIP3   OH223046   1.777   1.436   1.254  0.4156  0.0697  0.2330
  496TIP3    H123047   1.845   1.427   1.187  0.3872  1.2951  0.0165
  496TIP3    H223048   1.740   1.348   1.262  2.4204 -0.8025  0.7986
  497TIP3   OH223049   0.061   0.457   0.996  0.4767  0.5113 -0.0509
  497TIP3    H123050   0.001   0.526   1.024 -0.9061  0.0191 -1.6792
  497TIP3    H223051   0.086   0.482   0.908  0.1346 -0.9394 -0.5797
  498TIP3   OH223052   5.667   5.273   1.666 -0.2292 -0.3239 -0.0052
  498TIP3    H123053   5.627   5.358   1.683  0.6044 -0.0187  0.4794
  498TIP3    H223054   5.690   5.239   1.752 -0.3408 -0.9412 -0.2121
  499TIP3   OH223055   2.557   2.557   1.118 -0.6425  0.6194  0.5013
  499TIP3    H123056   2.464   2.537   1.122 -0.7658  0.9294 -0.4820
  499TIP3    H223057   2.599   2.475   1.091 -0.8549  0.9534 -0.9223
  500TIP3   OH223058   1.778   0.797   0.601  0.3117  0.4548  0.4319
  500TIP3    H123059   1.762   0.711   0.562 -0.2485 -0.4360  2.5098
  500TIP3    H223060   1.713   0.805   0.670  1.2881  1.9219  1.2366
  501TIP3   OH223061   5.895   3.011   8.586 -0.0607 -0.8035 -0.2062
  501TIP3    H123062   5.832   2.948   8.550 -0.8245 -0.5429  0.6357
  501TIP3    H223063   5.842   3.067   8.644  0.5817  0.6518 -0.9736
  502TIP3   OH223064   1.168   1.566   3.169 -0.1877  0.3090  0.2774
  502TIP3    H123065   1.188   1.572   3.076 -1.7635  1.8846 -0.0136
  502TIP3    H223066   1.169   1.656   3.199 -0.5099 -0.1153  1.6179
  503TIP3   OH223067   1.178   2.847   8.086 -0.8628  0.0899  0.0192
  503TIP3    H123068   1.086   2.863   8.108 -1.1858 -1.1942 -0.3069
  503TIP3    H223069   1.177   2.763   8.040  0.4294  0.2652 -0.3584
  504TIP3   OH223070   3.798   4.352   7.382  0.2344 -0.1020 -0.4080
  504TIP3    H123071   3.735   4.384   7.317  0.0136  0.1024 -0.0919
  504TIP3    H223072   3.874   4.326   7.330  0.2942  0.6270 -0.7003
  505TIP3   OH223073   2.093   0.145   1.302 -0.0266 -0.1812  0.0463
  505TIP3    H123074   2.174   0.134   1.352  0.6538  0.8771 -0.7610
  505TIP3    H223075   2.040   0.204   1.355 -0.0732 -0.4967  0.3543
  506TIP3   OH223076   6.303   2.010   7.538  0.6842 -0.2226  0.6485
  506TIP3    H123077   6.311   2.074   7.609 -0.2382  0.3086  0.2980
  506TIP3    H223078   6.389   2.009   7.496  0.7198  0.7852  0.6694
  507TIP3   OH223079   0.365   3.224   1.350  0.2334  0.1598 -0.4246
  507TIP3    H123080   0.419   3.147   1.363  0.7395  0.6512  0.5591
  507TIP3    H223081   0.421   3.285   1.302  0.2489  0.3418 -0.1785
  508TIP3   OH223082   1.590   3.413   8.101  1.0851 -0.4036 -0.3088
  508TIP3    H123083   1.571   3.499   8.064  1.2797  0.0816  0.6926
  508TIP3    H223084   1.572   3.352   8.029  2.9658  0.6044 -1.7476
  509TIP3   OH223085   1.035   5.501   1.446 -0.4729 -0.2754  0.0717
  509TIP3    H123086   1.118   5.455   1.432 -0.9172 -0.4343 -2.2867
  509TIP3    H223087   1.061   5.583   1.489  0.8559 -0.5025 -0.2445
  510TIP3   OH223088   4.717   6.262   2.302  0.2955  0.3172  0.1835
  510TIP3    H123089   4.759   6.247   2.218 -0.7698 -0.3019 -0.2632
  510TIP3    H223090   4.713   6.175   2.342  0.0540  0.4723  0.5019
  511TIP3   OH223091   5.591   1.184   1.756  0.3605  0.1891 -0.3114
  511TIP3    H123092   5.596   1.138   1.672 -1.6529 -1.4348  0.3615
  511TIP3    H223093   5.680   1.178   1.791  0.7691 -0.9541 -1.4136
  512TIP3   OH223094   4.124   1.891   1.660 -0.1431 -0.3321 -0.4535
  512TIP3    H123095   4.134   1.797   1.648  2.7311 -0.0944 -0.5651
  512TIP3    H223096   4.118   1.903   1.755  1.4817 -0.5518 -0.2905
  513TIP3   OH223097   5.803   0.372   2.205 -0.3585  0.5566 -0.6800
  513TIP3    H123098   5.800   0.297   2.147  0.9468 -1.7608  2.0041
  513TIP3    H223099   5.722   0.421   2.186  0.0989  0.1357 -4.4438
  514TIP3   OH223100   2.375   4.701   7.768 -0.2797  0.2529 -0.1962
  514TIP3    H123101   2.294   4.656   7.793 -0.6081  1.0686  0.2448
  514TIP3    H223102   2.444   4.653   7.815 -0.3683 -1.0609 -1.3446
  515TIP3   OH223103   2.962   6.102   1.759  0.4347 -0.5436 -0.1126
  515TIP3    H123104   2.948   6.196   1.751  1.3060 -0.4460 -0.7259
  515TIP3    H223105   3.042   6.094   1.810  0.6024 -0.9347 -0.4249
  516TIP3   OH223106   3.403   2.507   7.681 -0.2763  0.2915  0.2026
  516TIP3    H123107   3.326   2.533   7.630 -0.4345 -1.2916 -0.4225
  516TIP3    H223108   3.475   2.557   7.643 -0.5493 -0.1897 -0.9695
  517TIP3   OH223109   3.074   2.129   8.270 -0.0807  0.1178 -0.7123
  517TIP3    H123110   3.004   2.065   8.256 -0.7129  1.0095 -1.7981
  517TIP3    H223111   3.079   2.178   8.188 -0.2852  2.0840  0.3831
  518TIP3   OH223112   4.367   4.897   1.238  0.2500 -0.3750 -0.1361
  518TIP3    H123113   4.446   4.951   1.236 -0.6415  0.9656 -0.3822
  518TIP3    H223114   4.312   4.932   1.168 -0.8065 -0.8918  0.4148
  519TIP3   OH223115   4.893   4.862   0.047 -0.0302 -0.5495 -0.2506
  519TIP3    H123116   4.895   4.955   0.022 -1.7923 -0.2839  0.4887
  519TIP3    H223117   4.813   4.853   0.099  0.3995 -2.3807  0.1425
  520TIP3   OH223118   2.899   6.397   7.362  0.0230 -0.0934 -0.0937
  520TIP3    H123119   2.943   6.436   7.286 -1.3567  0.4930 -0.6148
  520TIP3    H223120   2.971   6.377   7.423  1.0493  0.4363 -1.0862
  521TIP3   OH223121   0.235   3.598   1.946  0.5283 -0.5742 -0.3651
  521TIP3    H123122   0.274   3.529   1.893  0.4784 -0.4400 -0.5786
  521TIP3    H223123   0.288   3.675   1.927  0.5439 -0.5398 -0.1768
  522TIP3   OH223124   6.376   6.479   7.423  0.1995  0.2314 -0.6953
  522TIP3    H123125   6.337   6.408   7.374 -0.8474  0.4625 -0.2397
  522TIP3    H223126   6.432   6.525   7.360 -0.2717 -0.1142 -1.3737
  523TIP3   OH223127   4.380   3.397   0.503  0.2910  0.2029 -0.6427
  523TIP3    H123128   4.383   3.449   0.584  0.1468  1.6254 -1.5224
  523TIP3    H223129   4.452   3.335   0.513  1.7277  1.8374 -0.3636
  524TIP3   OH223130   1.986   0.591   0.870  0.6601 -0.0251  0.0219
  524TIP3    H123131   2.049   0.660   0.847 -1.2627  1.6674 -0.4306
  524TIP3    H223132   2.012   0.516   0.816  0.9276  1.3617 -1.8867
  525TIP3   OH223133   1.966   4.029   7.296 -0.1969 -0.2633 -0.3697
  525TIP3    H123134   1.952   4.002   7.206 -0.8961  0.6438 -0.5478
  525TIP3    H223135   2.054   4.068   7.297  0.2915 -1.3360 -0.3850
  526TIP3   OH223136   5.173   2.210   0.990  0.2282 -0.4362  0.4715
  526TIP3    H123137   5.172   2.230   0.896 -1.7675  1.1592  0.7556
  526TIP3    H223138   5.081   2.214   1.016  0.7909 -0.1755  2.6377
  527TIP3   OH223139   4.947   5.942   8.393  0.3604  0.3484 -0.4027
  527TIP3    H123140   4.921   5.875   8.456 -1.4554  1.1530 -0.2283
  527TIP3    H223141   4.997   5.894   8.327  0.1636 -0.9448  0.3439
  528TIP3   OH223142   3.777   1.864   7.434  0.0093  0.5015 -0.2209
  528TIP3    H123143   3.868   1.877   7.459 -0.3037 -0.5139  1.5963
  528TIP3    H223144   3.734   1.830   7.513 -1.2062 -2.2757 -1.9034
  529TIP3   OH223145   0.776   3.341   8.191  0.0353 -0.4387 -0.6484
  529TIP3    H123146   0.863   3.351   8.229  0.4517 -1.0490 -1.4114
  529TIP3    H223147   0.781   3.387   8.107 -0.6183  0.1852 -0.3584
  530TIP3   OH223148   0.346   5.091   0.754 -0.6013  0.1424 -0.1219
  530TIP3    H123149   0.321   5.062   0.841 -0.9039  1.1786  0.1443
  530TIP3    H223150   0.441   5.078   0.750 -0.8238 -1.7331 -0.3525
  531TIP3   OH223151   1.272   2.436   1.831  0.1013 -0.2138 -0.3002
  531TIP3    H123152   1.291   2.449   1.738 -0.9887  0.4768 -0.4451
  531TIP3    H223153   1.218   2.356   1.832 -0.3145  0.0602 -0.3312
  532TIP3   OH223154   6.118   0.192   8.500  0.7285 -0.0174 -0.0542
  532TIP3    H123155   6.091   0.219   8.587  0.0241 -1.3888  0.1871
  532TIP3    H223156   6.197   0.140   8.514  0.7618 -0.0205 -0.2510
  533TIP3   OH223157   0.145   0.516   8.239  0.3294  0.0207 -0.7740
  533TIP3    H123158   0.087   0.553   8.305 -0.0550 -0.8651 -0.5948
  533TIP3    H223159   0.233   0.536   8.271  0.1928 -1.3875  0.6600
  534TIP3   OH223160   1.704   6.624   8.119 -0.6128  0.0822 -0.0821
  534TIP3    H123161   1.640   6.623   8.190 -0.3250 -0.6047  0.1754
  534TIP3    H223162   1.782   6.582   8.155 -0.4258 -0.1846 -0.7648
  535TIP3   OH223163   5.484   6.569   8.370 -0.4209  0.0209  0.3559
  535TIP3    H123164   5.421   6.530   8.430  0.9838 -1.0410  1.2080
  535TIP3    H223165   5.499   6.657   8.404  2.8567 -1.5614  3.8214
  536TIP3   OH223166   5.115   5.792   6.680  0.6868  0.5911  0.3459
  536TIP3    H123167   5.169   5.784   6.759 -1.6394 -0.2971  1.9622
  536TIP3    H223168   5.055   5.864   6.699 -3.5727 -2.8948  1.9727
  537TIP3   OH223169   5.274   3.805   0.006  0.0381 -0.1388 -0.0217
  537TIP3    H123170   5.226   3.862   0.066  0.3542 -0.1970  0.2884
  537TIP3    H223171   5.252   3.838  -0.081 -1.4149 -0.8214  0.0619
  538TIP3   OH223172   2.522   0.710   0.767 -0.0480  0.8837  0.0453
  538TIP3    H123173   2.615   0.713   0.744  0.1895 -1.7708  0.3658
  538TIP3    H223174   2.490   0.799   0.751  2.1553  1.4359 -1.6964
  539TIP3   OH223175   4.225   6.157   8.002  0.2972  0.3974  0.2793
  539TIP3    H123176   4.182   6.241   8.017 -0.0797  0.1954  0.3341
  539TIP3    H223177   4.212   6.108   8.083  1.5176  0.7099  0.6889
  540TIP3   OH223178   0.347   6.032   7.552  0.1260  0.8579  0.7995
  540TIP3    H123179   0.410   6.077   7.609  1.1669  1.6590 -0.9047
  540TIP3    H223180   0.378   5.942   7.550  1.3211  1.2594 -0.0829
  541TIP3   OH223181   6.096   3.330   7.990 -0.0173  0.2928 -0.3287
  541TIP3    H123182   6.051   3.387   7.928 -0.5458 -1.0278 -1.2135
  541TIP3    H223183   6.184   3.367   7.998 -0.2497  1.0465 -1.1341
  542TIP3   OH223184   2.041   1.616   1.122 -0.1801 -0.0373  0.1074
  542TIP3    H123185   2.101   1.543   1.139  0.8545  0.7828  0.0798
  542TIP3    H223186   1.990   1.588   1.046 -2.0348 -2.0418  1.9544
  543TIP3   OH223187   3.231   4.964   7.496 -0.1997  0.0657  0.0021
  543TIP3    H123188   3.258   5.056   7.494 -1.6515  0.5127 -2.2902
  543TIP3    H223189   3.263   4.928   7.413  1.1190 -1.7932  1.2483
  544TIP3   OH223190   2.245   4.532   8.325  0.0887 -0.3174 -0.0644
  544TIP3    H123191   2.301   4.470   8.372 -0.7670 -2.2200 -1.4285
  544TIP3    H223192   2.168   4.543   8.380  0.0493 -0.8333 -0.0155
  545TIP3   OH223193   2.747   4.699   1.124 -0.0026 -0.0245 -0.2787
  545TIP3    H123194   2.801   4.620   1.132 -1.1432 -1.0194 -1.7905
  545TIP3    H223195   2.675   4.684   1.186  0.2266  0.2238  0.0482
  546TIP3   OH223196   3.391   5.998   1.191 -0.4323  0.0641  0.1462
  546TIP3    H123197   3.388   5.979   1.284  0.9532  0.1972  0.2450
  546TIP3    H223198   3.346   5.925   1.149 -0.5376 -0.2958  0.8847
  547TIP3   OH223199   1.834   5.289   0.450 -0.1478  0.2299 -0.0585
  547TIP3    H123200   1.773   5.257   0.384 -0.3684 -2.1350  1.1732
  547TIP3    H223201   1.816   5.234   0.527  1.4675  1.5187  1.3037
  548TIP3   OH223202   6.071   4.725   7.815  0.1107 -0.5511 -0.3960
  548TIP3    H123203   6.060   4.658   7.747 -0.9132 -1.7439  0.8675
  548TIP3    H223204   5.984   4.763   7.825 -0.4558 -2.2516  2.0092
  549TIP3   OH223205   5.567   3.935   1.655  1.0818 -0.2045  0.0472
  549TIP3    H123206   5.597   3.922   1.565 -1.0368 -1.0022 -0.6189
  549TIP3    H223207   5.478   3.899   1.655 -0.0571  2.3793  1.7278
  550TIP3   OH223208   4.254   6.433   1.941 -0.0083 -0.5164 -0.4548
  550TIP3    H123209   4.224   6.493   2.008 -0.8403  0.1771 -1.4223
  550TIP3    H223210   4.307   6.369   1.988  1.9631  1.6530  0.4582
  551TIP3   OH223211   2.627   3.032   2.498 -0.2874 -0.1799  0.5047
  551TIP3    H123212   2.622   2.939   2.520  0.1699 -0.6304 -1.1394
  551TIP3    H223213   2.685   3.069   2.565  1.5222 -1.5902 -0.1952
  552TIP3   OH223214   0.125   0.136   0.250  0.0524  0.1058 -0.6190
  552TIP3    H123215   0.169   0.055   0.274 -0.5736 -0.1409 -0.2782
  552TIP3    H223216   0.194   0.203   0.253  0.1292  0.0012  1.4024
  553TIP3   OH223217   1.850   0.599   7.504  0.2079 -0.1379 -0.2361
  553TIP3    H123218   1.930   0.555   7.535 -0.9818 -1.8464  0.5828
  553TIP3    H223219   1.795   0.606   7.582 -0.5232  0.9007 -0.8135
  554TIP3   OH223220   0.573   2.203   8.650  0.3800  0.5327  0.3678
  554TIP3    H123221   0.539   2.231   8.565  2.8340  0.7304 -0.6211
  554TIP3    H223222   0.642   2.141   8.629  0.1644 -0.4430  2.3096
  555TIP3   OH223223   6.379   6.797   1.791  0.2458 -0.3935  0.0166
  555TIP3    H123224   6.349   6.772   1.878 -2.1538  0.0909 -0.5829
  555TIP3    H223225   6.367   6.892   1.787  0.4731 -0.3859 -0.7746
  556TIP3   OH223226   6.120   2.319   0.994 -0.5264  0.2722 -0.7871
  556TIP3    H123227   6.177   2.326   1.070  0.0078  0.7420 -1.2202
  556TIP3    H223228   6.179   2.330   0.919 -1.0528 -0.1182 -1.2670
  557TIP3   OH223229   4.391   2.469   8.440 -0.2256 -0.1956 -0.3466
  557TIP3    H123230   4.459   2.534   8.424  1.2793 -1.8106 -0.8888
  557TIP3    H223231   4.416   2.427   8.522  0.6248 -2.1497 -1.5311
  558TIP3   OH223232   2.285   1.045   6.944  0.4123  0.5921  0.3876
  558TIP3    H123233   2.209   1.009   6.990  1.8100  0.5775  2.8360
  558TIP3    H223234   2.247   1.105   6.880 -1.7745 -1.8604 -0.8289
  559TIP3   OH223235   0.738   3.597   6.475 -0.1187  0.0166  0.5224
  559TIP3    H123236   0.800   3.650   6.425 -0.1540  0.1015  0.5693
  559TIP3    H223237   0.787   3.568   6.552 -0.1455  0.1056  0.5731
  560TIP3   OH223238   6.418   5.049   0.167 -0.1177  0.0126  0.1905
  560TIP3    H123239   6.342   5.091   0.208  0.2060  0.3322  0.4670
  560TIP3    H223240   6.400   4.956   0.174 -1.0174  0.0990 -0.7601
  561TIP3   OH223241   2.597   3.204   0.511 -0.4306  0.5342 -0.3158
  561TIP3    H123242   2.594   3.299   0.526 -1.3918  0.6353 -1.0144
  561TIP3    H223243   2.569   3.166   0.594  0.2938  0.8490  0.0791
  562TIP3   OH223244   0.737   4.263   0.965 -0.5528 -1.0452 -0.7063
  562TIP3    H123245   0.773   4.319   1.034 -1.5189  0.2688 -1.2343
  562TIP3    H223246   0.792   4.282   0.889  0.4416 -2.4123 -0.3816
  563TIP3   OH223247   3.042   3.675   8.575 -0.4949 -0.1637 -0.0413
  563TIP3    H123248   2.971   3.716   8.625  0.2747 -0.6819  1.5331
  563TIP3    H223249   2.997   3.625   8.508 -1.6866 -1.0501  1.3604
  564TIP3   OH223250   1.781   6.533   0.373  0.1763  0.3301 -0.2010
  564TIP3    H123251   1.749   6.592   0.305 -1.3190  0.5195  0.6188
  564TIP3    H223252   1.798   6.589   0.448  0.2489 -0.0756  0.0903
  565TIP3   OH223253   1.971   1.754   1.979  0.0230  0.1537 -0.4899
  565TIP3    H123254   1.903   1.802   1.931 -0.4357  0.2128  0.1940
  565TIP3    H223255   2.049   1.763   1.925 -0.2958  0.8441 -0.8567
  566TIP3   OH223256   3.069   4.331   1.690 -0.5005  0.0620 -0.3961
  566TIP3    H123257   3.028   4.268   1.749  0.7797 -0.9381 -0.5295
  566TIP3    H223258   3.007   4.404   1.686 -0.0520  0.8698  3.3469
  567TIP3   OH223259   2.680   1.207   8.121  0.5944  0.2468  0.2317
  567TIP3    H123260   2.754   1.194   8.181  2.4319 -2.2774 -2.3372
  567TIP3    H223261   2.614   1.143   8.149  1.2764 -0.6411 -0.1497
  568TIP3   OH223262   4.310   2.813   1.331  0.0980  1.2064  0.0976
  568TIP3    H123263   4.317   2.849   1.420 -0.7863  0.2545  0.5779
  568TIP3    H223264   4.238   2.749   1.337  0.6462  0.4527 -1.0747
  569TIP3   OH223265   1.518   5.173   0.723 -0.5000  0.2037  0.1222
  569TIP3    H123266   1.564   5.257   0.724  0.7946 -0.4850  1.5733
  569TIP3    H223267   1.586   5.108   0.702 -1.3655 -0.5539 -0.4246
  570TIP3   OH223268   6.262   2.311   2.722 -0.1200  0.3370  0.2673
  570TIP3    H123269   6.230   2.227   2.754  0.3264  0.4993  1.1753
  570TIP3    H223270   6.240   2.311   2.629  1.9123 -1.7704 -0.3214
  571TIP3   OH223271   1.039   4.506   1.370  0.0867 -0.0209 -0.1567
  571TIP3    H123272   1.067   4.585   1.324  2.3762 -1.4156 -1.3071
  571TIP3    H223273   1.114   4.483   1.425 -0.5861 -1.3643  0.2324
  572TIP3   OH223274   4.107   5.967   1.766 -0.1088  0.3941 -0.1512
  572TIP3    H123275   4.101   5.882   1.808 -1.9893  1.0447  1.0101
  572TIP3    H223276   4.076   6.030   1.831  3.1710  2.3102 -0.2066
  573TIP3   OH223277   1.773   4.265   8.017  0.2488  0.5947  0.4317
  573TIP3    H123278   1.688   4.274   8.061  1.3921  1.2168  2.6665
  573TIP3    H223279   1.752   4.228   7.931 -2.0713 -1.7393  1.8424
  574TIP3   OH223280   1.238   4.117   8.308  0.0323 -0.1950 -0.0942
  574TIP3    H123281   1.226   4.180   8.236 -0.9028 -1.0417 -0.7160
  574TIP3    H223282   1.209   4.164   8.386 -1.6011 -0.1292 -0.6902
  575TIP3   OH223283   0.261   6.495   1.894  0.1626 -0.4436 -0.2900
  575TIP3    H123284   0.174   6.465   1.919  0.0044 -0.3552 -0.7304
  575TIP3    H223285   0.246   6.556   1.821  0.4043  1.3806  1.1029
  576TIP3   OH223286   5.022   0.291   7.784  0.0069 -0.0422 -0.8074
  576TIP3    H123287   4.930   0.272   7.769  0.3068 -1.1582 -1.3773
  576TIP3    H223288   5.029   0.386   7.775 -1.5194  0.4089  1.7705
  577TIP3   OH223289   0.301   1.624   1.684  0.0639 -0.2044  0.4160
  577TIP3    H123290   0.342   1.538   1.673  0.4820 -0.0506  0.7667
  577TIP3    H223291   0.323   1.672   1.604  0.9170  0.0186  0.7747
  578TIP3   OH223292   0.474   4.982   0.040  0.0212 -0.5197  0.0862
  578TIP3    H123293   0.471   4.887   0.028 -0.2760 -0.3434 -1.4463
  578TIP3    H223294   0.391   5.013   0.003  0.0585  0.3346  0.6866
  579TIP3   OH223295   1.435   5.097   8.469  0.1682 -0.4544 -0.3927
  579TIP3    H123296   1.373   5.035   8.430 -0.5697 -1.2200  1.8426
  579TIP3    H223297   1.396   5.183   8.453 -0.9006 -0.8563 -0.0366
  580TIP3   OH223298   2.281   2.448   8.626  0.2457 -0.2415  0.1969
  580TIP3    H123299   2.196   2.468   8.589 -0.2511 -2.0798  0.2235
  580TIP3    H223300   2.310   2.529   8.667 -2.1814  0.0512  1.5295
  581TIP3   OH223301   5.390   2.787   0.020  0.1728  0.0342 -0.3063
  581TIP3    H123302   5.324   2.855   0.006 -0.1481 -0.1850  0.0997
  581TIP3    H223303   5.434   2.777  -0.065 -1.2916 -0.8390 -1.0023
  582TIP3   OH223304   0.583   1.287   2.759 -0.1487  0.1907 -0.2640
  582TIP3    H123305   0.512   1.223   2.756  0.8797 -1.1003  1.2354
  582TIP3    H223306   0.662   1.234   2.769  0.8241  1.6677  0.1496
  583TIP3   OH223307   5.993   4.613   1.836  0.3390  0.3934 -0.1732
  583TIP3    H123308   6.031   4.637   1.751 -0.4087  0.0717 -0.6100
  583TIP3    H223309   6.037   4.531   1.860  1.4702  1.1487  0.3701
  584TIP3   OH223310   6.691   3.951   1.240  0.2695  1.0122  0.1058
  584TIP3    H123311   6.724   3.936   1.151  0.8056 -0.6397  0.5413
  584TIP3    H223312   6.598   3.931   1.235  0.3083  0.8765 -0.0811
  585TIP3   OH223313   3.435   3.051   0.581 -0.4966 -0.2957  0.0152
  585TIP3    H123314   3.361   2.998   0.613 -0.9889  0.1321 -0.3994
  585TIP3    H223315   3.500   3.045   0.651 -0.6606 -1.2090  0.1072
  586TIP3   OH223316   4.200   2.146   8.293 -0.2012  0.0024  0.1349
  586TIP3    H123317   4.193   2.119   8.201 -1.6802 -2.7126  0.9303
  586TIP3    H223318   4.294   2.160   8.306  0.3291 -1.7448 -1.3009
  587TIP3   OH223319   6.086   5.985   8.536 -0.1304 -0.1713 -0.1516
  587TIP3    H123320   6.045   6.064   8.500 -0.1922 -1.7680 -4.0116
  587TIP3    H223321   6.016   5.940   8.583  0.1111  2.3245  2.9440
  588TIP3   OH223322   1.657   2.796   0.019 -0.2362 -0.2552 -0.3082
  588TIP3    H123323   1.659   2.756  -0.068  2.3191 -0.1495 -0.3634
  588TIP3    H223324   1.669   2.722   0.080  2.3385  0.0848 -0.3104
  589TIP3   OH223325   0.449   5.774   7.527  0.2898  0.3925 -1.0631
  589TIP3    H123326   0.492   5.706   7.578 -0.2758  0.6245 -0.2583
  589TIP3    H223327   0.455   5.743   7.437  0.6874 -0.3645 -0.7880
  590TIP3   OH223328   2.102   6.581   0.655  0.3709  0.0074 -0.0044
  590TIP3    H123329   2.018   6.535   0.651  0.5840 -0.6247  1.8689
  590TIP3    H223330   2.167   6.513   0.639  0.5516  0.4880 -1.4007
  591TIP3   OH223331   6.192   3.964   1.540 -0.0585  0.2894 -0.3144
  591TIP3    H123332   6.112   3.965   1.487 -0.4206  0.3586  0.2298
  591TIP3    H223333   6.163   3.936   1.627  0.4778  0.5182 -0.0609
  592TIP3   OH223334   6.814   1.971   1.990  0.3333  0.2192  0.0081
  592TIP3    H123335   6.856   1.927   2.065 -1.2336 -0.6301  0.4186
  592TIP3    H223336   6.786   1.900   1.933 -1.3552  0.6856  0.1997
  593TIP3   OH223337   1.055   1.084   1.219 -0.4202  0.3204 -0.2204
  593TIP3    H123338   0.962   1.097   1.235 -0.4209  2.0265 -1.3688
  593TIP3    H223339   1.059   1.029   1.141 -0.5255  2.2269 -1.6199
  594TIP3   OH223340   5.375   2.243   8.164  0.7205 -0.3669  0.4379
  594TIP3    H123341   5.304   2.308   8.164  1.6260  0.7152 -1.4004
  594TIP3    H223342   5.331   2.160   8.147 -0.2204  0.1434  0.3003
  595TIP3   OH223343   1.966   2.685   2.047 -0.0080 -0.3726  0.8986
  595TIP3    H123344   2.057   2.705   2.068  0.6391  0.7180 -2.2705
  595TIP3    H223345   1.916   2.760   2.080  0.2273 -0.8778  2.4683
  596TIP3   OH223346   1.971   2.803   1.792 -0.1755 -0.1260  0.2061
  596TIP3    H123347   1.933   2.775   1.875  0.6757 -1.4028  0.2020
  596TIP3    H223348   2.029   2.876   1.815  0.2774 -0.6551  0.8026
  597TIP3   OH223349   1.394   2.330   0.369 -0.1857  0.0243 -0.1892
  597TIP3    H123350   1.319   2.281   0.401  1.2768 -0.8499  2.1401
  597TIP3    H223351   1.358   2.414   0.340 -1.8833  0.4271  2.7166
  598TIP3   OH223352   5.440   0.336   7.530  0.5978 -0.0488  0.3555
  598TIP3    H123353   5.516   0.308   7.581  0.6424 -1.3901 -0.4075
  598TIP3    H223354   5.459   0.427   7.506  2.5923 -0.7361 -0.9055
  599TIP3   OH223355   2.558   4.769   0.703 -0.5861  0.8437  0.2714
  599TIP3    H123356   2.626   4.729   0.648 -1.5350  0.6603 -0.8020
  599TIP3    H223357   2.476   4.754   0.655 -0.9096  5.6869 -1.2972
  600TIP3   OH223358   1.628   6.076   8.421 -0.1771  0.6875 -0.3037
  600TIP3    H123359   1.609   6.169   8.408  2.6284  1.2356 -1.1956
  600TIP3    H223360   1.656   6.070   8.512  1.4848  1.1632 -0.7367
  601TIP3   OH223361   0.543   3.644   0.807  0.2198  0.3475 -0.1919
  601TIP3    H123362   0.551   3.553   0.777 -3.1329  0.5661 -2.2631
  601TIP3    H223363   0.584   3.695   0.737 -1.1155  0.5390 -0.8601
  602TIP3   OH223364   2.899   1.463   2.664  0.1898 -0.6396  0.0410
  602TIP3    H123365   2.810   1.498   2.659  0.7475  0.7795 -0.4825
  602TIP3    H223366   2.943   1.519   2.728  1.1126 -0.3368 -0.8270
  603TIP3   OH223367   3.713   1.041   0.546  0.0565  0.3602  0.1388
  603TIP3    H123368   3.710   0.948   0.568  1.1376  0.1262 -0.6092
  603TIP3    H223369   3.656   1.050   0.470 -1.0256  0.5486  0.9603
  604TIP3   OH223370   6.626   1.249   8.339  0.3447 -0.2850 -0.2047
  604TIP3    H123371   6.568   1.325   8.333  2.8146  1.8508  1.0888
  604TIP3    H223372   6.601   1.206   8.421 -2.7710 -2.6136 -2.0948
  605TIP3   OH223373   1.249   2.623   0.994  0.5162  0.2446 -0.1936
  605TIP3    H123374   1.313   2.660   1.055 -0.5651  0.4614  0.8489
  605TIP3    H223375   1.204   2.699   0.958 -0.0696  0.0500  0.1172
  606TIP3   OH223376   5.769   5.749   1.337 -0.4642 -0.7164 -0.0876
  606TIP3    H123377   5.705   5.786   1.277  0.1644 -0.2690 -0.4939
  606TIP3    H223378   5.772   5.655   1.315 -0.2231 -0.5549 -0.7791
  607TIP3   OH223379   2.586   4.651   8.190 -0.0778  0.2540  0.2248
  607TIP3    H123380   2.603   4.560   8.216 -0.9708  0.0089 -0.0311
  607TIP3    H223381   2.673   4.687   8.171  0.1414 -1.2514 -2.0371
  608TIP3   OH223382   2.575   1.199   1.533  0.0704 -0.8497  0.6593
  608TIP3    H123383   2.548   1.182   1.624 -0.7902  1.0506  0.8112
  608TIP3    H223384   2.624   1.280   1.537  2.8903 -2.3839 -0.1766
  609TIP3   OH223385   1.850   5.766   1.322  0.4815 -0.2203  0.4173
  609TIP3    H123386   1.936   5.724   1.313  0.2402 -0.6870  0.3148
  609TIP3    H223387   1.834   5.804   1.235  0.6165 -0.0688  0.4577
  610TIP3   OH223388   6.613   6.765   0.194 -0.0203 -0.2915 -0.5471
  610TIP3    H123389   6.520   6.747   0.186  0.2412 -1.7650 -0.5050
  610TIP3    H223390   6.653   6.681   0.214  1.0957  0.6758  1.6505
  611TIP3   OH223391   0.387   3.495   0.134  0.8778  0.0257  0.1623
  611TIP3    H123392   0.339   3.578   0.132  1.5432  0.4033 -0.7801
  611TIP3    H223393   0.321   3.429   0.114  0.5237  0.4247 -0.0083
  612TIP3   OH223394   2.582   4.569   1.329 -0.0294 -0.6730  0.1003
  612TIP3    H123395   2.494   4.580   1.367 -0.5534 -1.4985 -0.8319
  612TIP3    H223396   2.581   4.482   1.291  0.9802 -0.4263 -0.5253
  613TIP3   OH223397   0.028   5.681   2.278  0.0648 -0.1922  0.1151
  613TIP3    H123398   0.109   5.648   2.316 -0.5723 -1.4357  0.4352
  613TIP3    H223399   0.033   5.655   2.186  0.2785  0.2396  0.0008
  614TIP3   OH223400   5.345   3.881   7.415  0.1037  0.0566  0.4776
  614TIP3    H123401   5.388   3.927   7.486  0.7473  0.0508  0.0932
  614TIP3    H223402   5.413   3.866   7.350 -0.2393 -0.8556  0.3065
  615TIP3   OH223403   4.094   6.596   0.338 -0.5560  0.2120  0.3953
  615TIP3    H123404   4.002   6.613   0.320 -0.4568  1.6279  1.1047
  615TIP3    H223405   4.094   6.545   0.419 -0.7617 -1.2564 -0.4990
  616TIP3   OH223406   5.157   4.887   0.439  0.1901  0.2151 -0.3642
  616TIP3    H123407   5.063   4.896   0.454  0.0689 -1.0531 -0.2082
  616TIP3    H223408   5.197   4.931   0.513 -0.2855  0.6299 -0.3463
  617TIP3   OH223409   2.856   1.291   7.166  0.6330 -0.0429 -0.4268
  617TIP3    H123410   2.788   1.357   7.181  0.3201 -0.8899  2.4376
  617TIP3    H223411   2.935   1.342   7.147  0.2217  1.1788  0.9446
  618TIP3   OH223412   5.639   0.796   0.560  0.1039  0.1492 -0.3813
  618TIP3    H123413   5.673   0.878   0.596  2.5901 -1.0670  0.3103
  618TIP3    H223414   5.648   0.805   0.465  0.4708  0.6453 -0.2992
  619TIP3   OH223415   3.013   5.630   1.424  0.0126 -0.1517 -0.6866
  619TIP3    H123416   3.075   5.603   1.492  0.2527 -2.9935 -1.8927
  619TIP3    H223417   3.068   5.671   1.357  0.4360 -1.3081 -1.0780
  620TIP3   OH223418   4.459   1.917   0.702  0.3786  0.3659  0.2083
  620TIP3    H123419   4.472   2.010   0.719  0.5618  0.3795  0.0014
  620TIP3    H223420   4.369   1.900   0.728 -0.0943  0.8964 -1.0481
  621TIP3   OH223421   1.095   2.270   1.987 -0.5294 -0.1184  0.1282
  621TIP3    H123422   1.085   2.175   1.992 -0.9048 -0.0616  0.5453
  621TIP3    H223423   1.174   2.289   2.039 -1.2079 -0.0816  1.1771
  622TIP3   OH223424   6.355   1.051   7.043  0.3039  0.2826  0.2355
  622TIP3    H123425   6.363   1.089   7.130  0.6147 -0.2214  0.4305
  622TIP3    H223426   6.387   1.120   6.984 -1.0579  1.0953  0.3976
  623TIP3   OH223427   5.354   6.768   0.637  0.2232 -0.0343 -0.2159
  623TIP3    H123428   5.313   6.852   0.617  2.5509  1.1548 -0.3831
  623TIP3    H223429   5.410   6.750   0.562  0.9707 -0.9304  0.5238
  624TIP3   OH223430   5.509   4.220   0.119 -0.4146  0.1532 -0.0376
  624TIP3    H123431   5.522   4.314   0.130  0.1072  0.1440 -0.5232
  624TIP3    H223432   5.525   4.182   0.205 -0.5180  0.4985  0.1323
  625TIP3   OH223433   0.729   0.776   1.577 -0.1622  0.3891 -0.1151
  625TIP3    H123434   0.734   0.831   1.656  0.7500  0.1306  0.0141
  625TIP3    H223435   0.762   0.833   1.508 -0.0424  0.2860 -0.1405
  626TIP3   OH223436   4.049   3.181   8.143  0.2697  0.1056 -0.3885
  626TIP3    H123437   4.055   3.086   8.143  0.1384  0.0722 -1.7330
  626TIP3    H223438   4.071   3.207   8.232  0.9612 -1.1488 -0.1735
  627TIP3   OH223439   1.836   1.518   0.044 -0.2575 -0.0053  0.7362
  627TIP3    H123440   1.882   1.597   0.074 -2.3420  1.1896  1.0595
  627TIP3    H223441   1.847   1.518  -0.051  0.4071  0.2364  0.8072
  628TIP3   OH223442   1.247   2.212   2.615  0.2361  0.2401  0.4754
  628TIP3    H123443   1.279   2.171   2.696  0.8710 -0.6297 -0.2059
  628TIP3    H223444   1.306   2.180   2.547 -1.3081 -0.3815 -0.6146
  629TIP3   OH223445   2.894   2.953   0.445  0.2978  0.0774  0.3229
  629TIP3    H123446   2.889   3.048   0.431  0.3037  0.1965  1.0999
  629TIP3    H223447   2.966   2.941   0.506  0.3663 -0.4415  0.1438
  630TIP3   OH223448   3.883   2.595   1.938 -0.8075  0.0625 -0.2224
  630TIP3    H123449   3.912   2.613   2.027  1.2385  0.2495 -0.8703
  630TIP3    H223450   3.866   2.500   1.937  1.3439 -0.3858 -0.1411
  631TIP3   OH223451   2.401   0.905   1.757 -0.1717  0.7221 -0.0263
  631TIP3    H123452   2.441   0.837   1.703 -1.0525 -0.0199  0.2191
  631TIP3    H223453   2.307   0.896   1.741 -0.5425 -0.0176  2.1370
  632TIP3   OH223454   4.964   2.784   0.946 -0.0488 -0.4457 -0.6272
  632TIP3    H123455   5.037   2.739   0.988  0.6722 -1.5194 -2.8875
  632TIP3    H223456   4.899   2.795   1.016  1.4986 -1.1476  0.9852
  633TIP3   OH223457   1.930   0.326   1.448  0.1220 -0.0249  0.1364
  633TIP3    H123458   1.887   0.358   1.369  0.4869  0.5426  0.1648
  633TIP3    H223459   1.865   0.340   1.518  0.9187  2.4010  0.4819
  634TIP3   OH223460   4.798   4.795   1.480 -0.4725  0.3593  0.4016
  634TIP3    H123461   4.747   4.737   1.423 -1.5088  2.7817 -1.2761
  634TIP3    H223462   4.756   4.788   1.566  1.1062 -3.3564  1.0839
  635TIP3   OH223463   5.908   6.839   6.456  0.0932 -0.0643  0.9951
  635TIP3    H123464   5.875   6.798   6.536 -0.1846 -0.7316  0.5517
  635TIP3    H223465   5.933   6.765   6.400 -3.2918  0.1007 -1.0904
  636TIP3   OH223466   0.774   5.520   1.330 -0.5587 -0.3128 -1.3007
  636TIP3    H123467   0.786   5.477   1.246 -0.8101 -2.4577 -0.3107
  636TIP3    H223468   0.853   5.497   1.380 -1.0319 -0.2308 -0.5006
  637TIP3   OH223469   0.054   3.729   0.931 -0.7934  0.3220  0.0972
  637TIP3    H123470   0.089   3.645   0.962 -0.9861 -0.0217 -0.5891
  637TIP3    H223471   0.130   3.788   0.933  0.4966 -0.9282 -3.3408
  638TIP3   OH223472   1.132   1.947   2.550 -0.2155 -0.4805  0.6282
  638TIP3    H123473   1.061   1.983   2.603 -0.6450  0.2771 -0.4199
  638TIP3    H223474   1.160   1.870   2.598 -1.2979 -0.4214  1.4149
  639TIP3   OH223475   6.091   3.381   1.258  0.2241 -0.0955 -0.3356
  639TIP3    H123476   6.049   3.329   1.190 -1.1522 -0.7877  1.0001
  639TIP3    H223477   6.031   3.453   1.275  0.3208 -0.1912  0.4685
  640TIP3   OH223478   2.366   1.328   7.396 -0.1670 -0.3242 -0.2532
  640TIP3    H123479   2.410   1.407   7.427  0.7275 -1.3973  1.3303
  640TIP3    H223480   2.274   1.342   7.416  0.1271 -0.1077  1.0448
  641TIP3   OH223481   6.588   0.978   0.161 -0.0293 -0.5265  0.2727
  641TIP3    H123482   6.580   0.984   0.256 -1.4223 -1.0027  0.2085
  641TIP3    H223483   6.649   0.906   0.146  0.0075 -0.6066  0.8000
  642TIP3   OH223484   4.094   3.813   7.625  0.0789  0.6205  0.0623
  642TIP3    H123485   4.074   3.753   7.553 -0.2989 -0.3081  0.9265
  642TIP3    H223486   4.028   3.795   7.691  1.2461  0.4797  1.2331
  643TIP3   OH223487   6.745   2.020   7.429  0.9907  0.1339 -0.0482
  643TIP3    H123488   6.756   2.101   7.379 -0.3676  0.7872  0.6489
  643TIP3    H223489   6.793   1.954   7.378  1.5553  1.2258 -0.9892
  644TIP3   OH223490   3.624   0.433   7.656 -0.0829  0.0907 -0.0305
  644TIP3    H123491   3.717   0.428   7.678 -0.0443  0.0024 -0.2098
  644TIP3    H223492   3.622   0.440   7.560 -0.2908 -0.9733 -0.1170
  645TIP3   OH223493   2.017   0.743   1.206  0.9272  0.2991 -0.9015
  645TIP3    H123494   1.961   0.720   1.132 -2.6255 -0.5758  1.7691
  645TIP3    H223495   2.056   0.660   1.233 -0.7493 -0.1716  0.2915
  646TIP3   OH223496   1.822   1.621   2.987  0.4128  0.8255 -0.1182
  646TIP3    H123497   1.859   1.553   3.043  1.3121  0.1754 -1.4576
  646TIP3    H223498   1.852   1.703   3.025 -0.0714  0.4569  1.0907
  647TIP3   OH223499   6.321   0.417   1.905 -0.1253 -0.5454  0.1037
  647TIP3    H123500   6.296   0.405   1.814 -1.0399  1.9311 -0.0565
  647TIP3    H223501   6.416   0.424   1.904 -0.0306 -1.7974 -0.4646
  648TIP3   OH223502   6.703   0.709   2.354  0.1918 -0.0557  0.4074
  648TIP3    H123503   6.626   0.685   2.404  0.2586  3.7164  2.7333
  648TIP3    H223504   6.668   0.754   2.277  0.0694 -0.5941  0.1493
  649TIP3   OH223505   5.925   3.746   2.200  0.1681 -0.4712  0.1319
  649TIP3    H123506   5.958   3.792   2.123  4.0178  0.4376  2.0836
  649TIP3    H223507   5.854   3.801   2.233 -0.1667  0.1825 -1.6178
  650TIP3   OH223508   3.782   5.236   2.269 -0.3584  0.5940  0.0542
  650TIP3    H123509   3.705   5.281   2.235  0.7123  2.5434 -0.0000
  650TIP3    H223510   3.785   5.259   2.362 -1.7657 -2.4642  0.9799
  651TIP3   OH223511   3.638   4.057   0.037 -0.5607 -0.4068 -0.4688
  651TIP3    H123512   3.614   4.002  -0.038  0.7666  0.2938 -1.4607
  651TIP3    H223513   3.555   4.076   0.080 -1.3359 -1.0572 -1.5997
  652TIP3   OH223514   5.181   5.869   7.866 -0.4279 -0.5210  0.0908
  652TIP3    H123515   5.235   5.902   7.795 -0.4307 -0.4285  0.1316
  652TIP3    H223516   5.167   5.777   7.845  1.5046 -1.1042  1.1766
  653TIP3   OH223517   6.110   3.106   6.649 -0.2839 -0.5522 -0.2243
  653TIP3    H123518   6.113   3.189   6.602  0.5823 -0.5669 -0.2246
  653TIP3    H223519   6.105   3.131   6.741 -0.5676 -0.5062 -0.2519
  654TIP3   OH223520   6.841   5.718   8.059  0.2366 -0.5187 -0.1185
  654TIP3    H123521   6.828   5.711   8.154 -2.1525  2.1362 -0.1142
  654TIP3    H223522   6.838   5.812   8.042  1.4567 -0.8861 -2.7733
  655TIP3   OH223523   4.523   6.447   7.223  0.5407 -0.1099  0.3341
  655TIP3    H123524   4.508   6.365   7.270 -0.9131 -0.7801 -1.1719
  655TIP3    H223525   4.449   6.453   7.162  1.0632  1.9089 -0.1687
  656TIP3   OH223526   3.946   3.492   8.340 -0.0178  0.5836  0.4876
  656TIP3    H123527   3.951   3.545   8.420 -0.5221  1.6585 -0.1769
  656TIP3    H223528   4.000   3.415   8.359 -2.0984 -0.4435  2.8148
  657TIP3   OH223529   1.021   6.817   8.187  0.2431  0.1866  0.0079
  657TIP3    H123530   0.999   6.727   8.212 -0.3855  0.0252 -1.0510
  657TIP3    H223531   1.077   6.848   8.258 -0.5679 -0.6011  1.0348
  658TIP3   OH223532   6.354   3.346   0.615 -0.3198  0.5959  0.0221
  658TIP3    H123533   6.337   3.335   0.522 -0.8761  1.2196  0.0420
  658TIP3    H223534   6.415   3.275   0.637 -0.2790  0.3717 -0.7829
  659TIP3   OH223535   4.945   1.873   8.242  0.7441 -0.0237 -0.3093
  659TIP3    H123536   4.995   1.792   8.252  1.0109  0.1478 -0.2270
  659TIP3    H223537   4.926   1.900   8.332  1.5014  0.5191 -0.3019
  660TIP3   OH223538   0.195   5.293   7.195  0.1472  0.5808 -0.1966
  660TIP3    H123539   0.139   5.225   7.157  0.5384  0.2305 -0.1575
  660TIP3    H223540   0.138   5.369   7.203  0.4849  1.3340 -3.3489
  661TIP3   OH223541   3.089   6.100   8.297 -0.2310 -0.0871 -0.3458
  661TIP3    H123542   3.047   6.114   8.381  1.0726  1.2136  0.1132
  661TIP3    H223543   3.092   6.004   8.288  1.9267 -0.3828  2.3205
  662TIP3   OH223544   6.788   5.314   7.151  0.0545 -0.1886  0.3747
  662TIP3    H123545   6.731   5.303   7.074 -1.6957 -0.4020  1.6477
  662TIP3    H223546   6.820   5.403   7.144 -1.5552  0.4234  0.3169
  663TIP3   OH223547   3.802   1.098   1.904 -0.2556  0.3728  0.3445
  663TIP3    H123548   3.756   1.023   1.866  0.9055  0.7277 -1.8951
  663TIP3    H223549   3.774   1.098   1.996 -3.1108 -0.6119 -0.4091
  664TIP3   OH223550   5.172   3.860   2.600 -0.3767  0.0666 -0.3638
  664TIP3    H123551   5.118   3.838   2.524 -2.5902 -0.7290  1.3137
  664TIP3    H223552   5.206   3.948   2.581 -1.6328  0.2743 -1.8553
  665TIP3   OH223553   3.074   5.700   7.820 -0.1225 -0.3951  0.0527
  665TIP3    H123554   3.147   5.661   7.868  0.7784  0.7024 -0.3798
  665TIP3    H223555   3.040   5.629   7.766  1.5686 -0.5930 -0.8248
  666TIP3   OH223556   0.379   1.665   1.331 -0.0398 -0.1030  0.4229
  666TIP3    H123557   0.441   1.657   1.403 -0.5360 -1.1905  0.7530
  666TIP3    H223558   0.430   1.705   1.260  1.2600 -1.5931  0.4539
  667TIP3   OH223559   3.538   2.360   1.953 -0.3010 -0.1364 -0.2494
  667TIP3    H123560   3.539   2.270   1.920  1.2838 -0.1620 -0.2155
  667TIP3    H223561   3.477   2.406   1.895 -0.8416 -1.1437 -0.5003
  668TIP3   OH223562   6.866   1.507   0.475 -0.0247  0.0236 -0.4745
  668TIP3    H123563   6.896   1.589   0.516  0.6176  0.0850 -1.0519
  668TIP3    H223564   6.914   1.503   0.393 -1.8654  0.2814 -1.6130
  669TIP3   OH223565   6.339   5.502   7.234 -0.7257 -0.6255  0.9817
  669TIP3    H123566   6.372   5.430   7.180 -0.4111  0.2307  0.0133
  669TIP3    H223567   6.273   5.545   7.179 -0.0944  0.5188  1.0992
  670TIP3   OH223568   6.102   5.948   1.510 -0.4976  0.1134 -0.2226
  670TIP3    H123569   6.098   5.876   1.573 -0.2713 -0.7779 -1.2011
  670TIP3    H223570   6.181   5.997   1.535  0.4367 -1.0927 -0.6776
  671TIP3   OH223571   5.221   0.412   2.741  0.1221  0.1466 -0.6507
  671TIP3    H123572   5.298   0.457   2.705  0.2486  0.8727  0.4785
  671TIP3    H223573   5.196   0.350   2.672 -0.2977  2.1782 -2.4267
  672TIP3   OH223574   2.420   5.096   7.838  0.2572  0.2476 -0.3503
  672TIP3    H123575   2.404   5.018   7.785 -0.7882  0.0395  0.2451
  672TIP3    H223576   2.498   5.075   7.890 -0.4494 -0.6912  0.3499
  673TIP3   OH223577   4.593   0.942   1.205  0.3484  0.0660 -0.0603
  673TIP3    H123578   4.507   0.943   1.163 -0.2244  2.4109  0.9904
  673TIP3    H223579   4.639   0.869   1.164 -1.0308  0.6319 -2.8719
  674TIP3   OH223580   5.458   1.175   1.455  0.1417 -0.1157  0.5399
  674TIP3    H123581   5.375   1.208   1.420 -1.1510 -3.1640  0.4211
  674TIP3    H223582   5.518   1.249   1.449 -2.0337  1.6431 -1.1959
  675TIP3   OH223583   5.180   0.686   8.524  0.0686 -0.3014  0.4684
  675TIP3    H123584   5.168   0.685   8.619 -0.7545 -0.4127  0.3721
  675TIP3    H223585   5.251   0.624   8.508 -1.6708 -2.4895  0.7907
  676TIP3   OH223586   1.670   0.797   7.255  0.8849 -0.0412 -0.8281
  676TIP3    H123587   1.637   0.742   7.184 -0.5313  0.5997 -0.7034
  676TIP3    H223588   1.747   0.841   7.218  0.9956 -0.7845 -1.4925
  677TIP3   OH223589   3.593   2.827   0.060  0.4906 -0.4206  0.1707
  677TIP3    H123590   3.570   2.810   0.152 -1.3547  2.0885  0.2760
  677TIP3    H223591   3.642   2.909   0.063  0.5549 -0.4025 -1.0607
  678TIP3   OH223592   1.369   0.164   1.435  0.2474  0.2573 -0.3170
  678TIP3    H123593   1.382   0.090   1.494 -2.3540 -0.9070 -1.0424
  678TIP3    H223594   1.420   0.142   1.357  0.6297 -0.0739  0.0266
  679TIP3   OH223595   4.800   4.613   7.876  0.2013  0.2916  0.0778
  679TIP3    H123596   4.854   4.670   7.822  2.6418 -1.4018  0.5662
  679TIP3    H223597   4.715   4.611   7.832  1.3322  0.9289 -2.2863
  680TIP3   OH223598   3.406   1.683   0.530  0.0482 -0.9082 -0.3899
  680TIP3    H123599   3.499   1.706   0.531 -0.2508  0.4333 -1.1201
  680TIP3    H223600   3.368   1.735   0.602 -0.3437 -0.4298 -0.9310
  681TIP3   OH223601   5.194   0.916   1.844  0.0668  0.2611  0.5174
  681TIP3    H123602   5.149   0.919   1.929  0.6311 -0.9023  0.8736
  681TIP3    H223603   5.261   0.985   1.851 -0.2123  0.5074  0.8209
  682TIP3   OH223604   2.206   6.275   1.063  0.5355 -0.0903 -0.4392
  682TIP3    H123605   2.250   6.360   1.070  1.3595 -0.4333 -1.3053
  682TIP3    H223606   2.154   6.282   0.983 -1.6789  0.5796  0.9295
  683TIP3   OH223607   5.479   5.801   0.691  0.5690 -0.2246 -0.0385
  683TIP3    H123608   5.407   5.834   0.637  1.0304  0.5688 -0.1731
  683TIP3    H223609   5.544   5.870   0.690  2.2107 -1.6937 -1.5226
  684TIP3   OH223610   4.634   1.408   2.929 -0.7872  0.3701 -0.4088
  684TIP3    H123611   4.591   1.351   2.993 -0.8637 -0.5107 -1.2074
  684TIP3    H223612   4.582   1.396   2.849  1.5614 -1.6635 -1.7614
  685TIP3   OH223613   5.198   6.147   1.636 -0.1091  0.1994 -0.2856
  685TIP3    H123614   5.148   6.116   1.711  1.1226 -0.4541  0.2990
  685TIP3    H223615   5.216   6.069   1.585  3.7415 -0.4225  1.6343
  686TIP3   OH223616   6.424   5.110   2.259 -0.1681  0.1364 -0.3508
  686TIP3    H123617   6.482   5.118   2.184 -0.2221  1.7900 -0.2476
  686TIP3    H223618   6.337   5.096   2.221 -0.0151 -0.2534 -0.5590
  687TIP3   OH223619   6.842   3.467   0.202 -0.1317  0.5339  0.1914
  687TIP3    H123620   6.867   3.453   0.111 -2.1122 -1.5210 -0.1304
  687TIP3    H223621   6.925   3.482   0.248  1.3637 -2.1254 -1.3678
  688TIP3   OH223622   5.962   4.132   8.283  0.2617  0.4313  0.0463
  688TIP3    H123623   5.970   4.058   8.223  0.6805  0.7980 -0.3559
  688TIP3    H223624   6.039   4.124   8.340 -0.0017  0.2273  0.3740
  689TIP3   OH223625   3.106   1.446   0.219  0.7056 -0.3545  0.0814
  689TIP3    H123626   3.055   1.527   0.217  2.4233  0.7859  0.1588
  689TIP3    H223627   3.164   1.455   0.294  1.4844 -1.3002 -0.3679
  690TIP3   OH223628   5.090   6.640   2.152 -0.1979  0.1861 -0.8908
  690TIP3    H123629   5.156   6.597   2.207 -0.5764 -0.0760 -0.6337
  690TIP3    H223630   5.108   6.608   2.063 -0.1008 -0.0313 -0.7922
  691TIP3   OH223631   1.391   5.745   0.771 -0.1538 -0.0359 -0.1627
  691TIP3    H123632   1.421   5.662   0.732  1.1891 -0.0155  0.7581
  691TIP3    H223633   1.458   5.808   0.747 -0.6739  0.5745 -0.0293
  692TIP3   OH223634   1.865   6.107   2.100  0.2377  0.3620  0.4672
  692TIP3    H123635   1.791   6.168   2.110 -0.1351 -0.1092  0.6531
  692TIP3    H223636   1.825   6.020   2.108  0.6462  0.0720 -0.5786
  693TIP3   OH223637   1.747   6.391   8.631  0.0323  0.2811 -0.0048
  693TIP3    H123638   1.723   6.300   8.648  0.4157  0.1294 -0.2733
  693TIP3    H223639   1.827   6.405   8.682  2.4295 -0.8053 -3.1800
  694TIP3   OH223640   2.031   2.796   0.162  0.4336  0.6915 -0.5406
  694TIP3    H123641   1.951   2.822   0.115  1.1038  2.4664 -0.7753
  694TIP3    H223642   2.053   2.872   0.215  2.4413  0.5678 -1.1105
  695TIP3   OH223643   6.167   5.286   7.819  0.7995 -0.4987 -0.1207
  695TIP3    H123644   6.192   5.371   7.783  1.2677  0.4341  2.1872
  695TIP3    H223645   6.100   5.253   7.759  0.8962  1.3044 -1.2954
  696TIP3   OH223646   3.412   2.681   2.424 -0.1130  0.4674 -0.6434
  696TIP3    H123647   3.451   2.764   2.453 -0.5183  1.4852 -2.7970
  696TIP3    H223648   3.477   2.643   2.366 -0.9525  0.5706 -1.6793
  697TIP3   OH223649   6.284   5.929   6.878 -0.2270  0.3248 -0.0333
  697TIP3    H123650   6.229   5.875   6.821  0.2529  0.4329 -0.6085
  697TIP3    H223651   6.270   6.019   6.848 -0.5203  0.4624  0.4937
  698TIP3   OH223652   3.566   4.778   0.759  0.7944  0.2201  0.0195
  698TIP3    H123653   3.598   4.689   0.755 -2.0746 -1.0412  1.6426
  698TIP3    H223654   3.480   4.771   0.802 -0.7365  3.4281 -2.0741
  699TIP3   OH223655   4.555   0.814   1.852 -0.0378  0.9914  0.6400
  699TIP3    H123656   4.625   0.855   1.902  0.5397  0.0419  0.6411
  699TIP3    H223657   4.585   0.815   1.761  1.1847 -1.6440  0.9160
  700TIP3   OH223658   2.434   5.385   8.197 -0.3908  0.3082  0.3040
  700TIP3    H123659   2.525   5.394   8.226  0.2391  1.0120 -1.7485
  700TIP3    H223660   2.410   5.296   8.221  0.3692  0.5512  2.0874
  701TIP3   OH223661   2.557   0.523   2.107  0.1421 -0.1554  0.1374
  701TIP3    H123662   2.504   0.445   2.126  1.5091 -1.3151 -0.6677
  701TIP3    H223663   2.525   0.553   2.022  1.1671 -1.2340 -0.6535
  702TIP3   OH223664   0.509   5.608   7.872  0.1245 -0.0873 -0.0443
  702TIP3    H123665   0.460   5.552   7.812 -1.5372  0.4879  0.7243
  702TIP3    H223666   0.587   5.634   7.823  0.5460 -2.3796 -0.7041
  703TIP3   OH223667   6.200   4.399   2.694  0.0692  0.1617 -0.5821
  703TIP3    H123668   6.225   4.350   2.772  0.5502  0.7849 -0.3333
  703TIP3    H223669   6.233   4.347   2.621 -0.6702 -0.5902 -0.3945
  704TIP3   OH223670   1.600   4.803   7.292  0.0261  0.4974 -0.4332
  704TIP3    H123671   1.594   4.875   7.354  0.6205 -0.7721  1.1973
  704TIP3    H223672   1.540   4.826   7.221  1.7932  3.5839 -1.0805
  705TIP3   OH223673   3.010   0.947   1.402 -0.0612  0.0352  0.4672
  705TIP3    H123674   2.922   0.973   1.429 -0.5781 -0.0888 -1.0066
  705TIP3    H223675   3.046   1.024   1.360 -0.4863 -0.6670 -1.2763
  706TIP3   OH223676   5.645   1.160   0.388  0.0103  0.3951  0.0571
  706TIP3    H123677   5.629   1.254   0.398 -1.6520  0.3557 -1.6335
  706TIP3    H223678   5.711   1.154   0.320 -0.6655  0.3465 -0.6104
  707TIP3   OH223679   2.214   1.829   1.858 -0.3674  0.2219  0.1950
  707TIP3    H123680   2.255   1.865   1.780 -0.0044 -0.8634 -0.1193
  707TIP3    H223681   2.283   1.827   1.924 -0.3861  0.0742  0.2098
  708TIP3   OH223682   4.395   2.975   1.532  0.6915  0.2031 -0.1994
  708TIP3    H123683   4.478   2.994   1.576  0.5475  1.2028 -0.3292
  708TIP3    H223684   4.328   2.997   1.596  0.5089  0.0401 -0.3333
  709TIP3   OH223685   3.845   4.952   7.616 -0.1825 -0.2515  0.1362
  709TIP3    H123686   3.909   4.892   7.577 -1.5470 -1.5797 -0.1240
  709TIP3    H223687   3.850   4.934   7.710  0.9101  0.7762  0.3066
  710TIP3   OH223688   1.104   4.961   2.068  0.2513 -0.7173  0.6124
  710TIP3    H123689   1.076   4.967   1.977  2.8942 -0.9027 -0.2951
  710TIP3    H223690   1.094   4.868   2.090 -0.2579 -0.6971  0.4772
  711TIP3   OH223691   4.710   6.599   7.371 -0.2678  0.2722 -0.6500
  711TIP3    H123692   4.639   6.566   7.316  0.6221  0.2428 -1.7995
  711TIP3    H223693   4.699   6.551   7.454 -2.2406  1.0758 -0.3788
  712TIP3   OH223694   2.654   0.441   7.453 -0.6661 -0.1483 -0.1760
  712TIP3    H123695   2.618   0.372   7.398 -0.9063 -1.8359  1.9567
  712TIP3    H223696   2.736   0.405   7.485 -0.9461  0.4034  1.2224
  713TIP3   OH223697   5.698   4.230   8.350 -0.1080 -0.3378 -0.2203
  713TIP3    H123698   5.676   4.322   8.365  0.1184 -0.3301  0.0679
  713TIP3    H223699   5.794   4.229   8.348 -0.1175 -0.4917 -0.6990
  714TIP3   OH223700   1.880   0.752   0.080  0.2837 -0.1161  0.5677
  714TIP3    H123701   1.969   0.774   0.110  0.1670  0.8372  0.2502
  714TIP3    H223702   1.824   0.778   0.153  0.1471  0.6541  0.2022
  715TIP3   OH223703   4.078   6.832   2.028 -0.1532  0.1426  0.3461
  715TIP3    H123704   4.037   6.873   2.104  2.5552  0.5514  1.6822
  715TIP3    H223705   4.115   6.904   1.979 -0.7770 -0.2399 -0.7216
  716TIP3   OH223706   3.860   2.027   0.215 -0.2753  0.2266 -0.1457
  716TIP3    H123707   3.946   2.048   0.250 -0.4504 -0.3754  0.6725
  716TIP3    H223708   3.866   2.046   0.121  0.7325  0.2028 -0.0863
  717TIP3   OH223709   5.559   2.198   8.444 -0.5762 -0.1519  0.0953
  717TIP3    H123710   5.628   2.137   8.418 -2.0884 -2.5929  1.4342
  717TIP3    H223711   5.518   2.225   8.362 -1.2653 -2.7425 -0.4822
  718TIP3   OH223712   2.109   1.608   0.706  0.0812  0.4461  0.1305
  718TIP3    H123713   2.205   1.616   0.707 -0.0259  2.3532  2.2918
  718TIP3    H223714   2.089   1.577   0.618  2.6765  0.0732 -0.4112
  719TIP3   OH223715   0.009   0.269   7.920  0.4706 -0.8331 -0.2420
  719TIP3    H123716  -0.030   0.206   7.860 -1.1436  0.8481 -1.0527
  719TIP3    H223717  -0.063   0.298   7.976  0.8826  1.0865 -0.6248
  720TIP3   OH223718   5.176   2.619   1.318 -0.0117 -0.2596  0.2749
  720TIP3    H123719   5.134   2.669   1.389 -1.4435  0.3173 -0.9250
  720TIP3    H223720   5.214   2.685   1.261 -0.0252 -0.6418 -0.1872
  721TIP3   OH223721   4.625   4.738   0.954 -0.2422  0.5847 -0.4642
  721TIP3    H123722   4.717   4.757   0.933  0.0888 -0.9619 -0.5572
  721TIP3    H223723   4.631   4.674   1.025 -1.2917  1.6752  0.6579
  722TIP3   OH223724   4.380   4.475   1.393  0.2302 -0.1788 -0.0951
  722TIP3    H123725   4.403   4.395   1.439  0.6557  1.1226  2.0863
  722TIP3    H223726   4.464   4.514   1.369  0.1899  1.1205  1.6780
  723TIP3   OH223727   3.362   5.568   1.353 -0.0071 -0.8630 -0.2438
  723TIP3    H123728   3.358   5.493   1.294 -1.6492 -1.8402  1.0147
  723TIP3    H223729   3.292   5.552   1.417 -0.0209  1.4595  0.4102
  724TIP3   OH223730   3.409   5.319   7.409  0.8125 -0.3993 -0.1919
  724TIP3    H123731   3.493   5.318   7.455  0.5615 -0.1345  0.2756
  724TIP3    H223732   3.408   5.404   7.365  0.3993 -0.0226  0.5352
  725TIP3   OH223733   0.883   1.200   2.224  0.4045 -0.0022  0.0326
  725TIP3    H123734   0.890   1.184   2.130 -1.6562 -2.1953  0.1489
  725TIP3    H223735   0.945   1.138   2.263 -0.5096 -0.8587  0.1639
  726TIP3   OH223736   5.914   5.806   7.659 -0.1357  0.0071 -0.0458
  726TIP3    H123737   5.918   5.895   7.694 -0.1610 -0.5909  1.6053
  726TIP3    H223738   5.923   5.816   7.565 -2.5429  1.9274 -0.1502
  727TIP3   OH223739   2.681   3.705   0.573 -0.4377  0.0610 -0.2720
  727TIP3    H123740   2.746   3.776   0.577  0.9498 -1.1682 -0.2687
  727TIP3    H223741   2.698   3.653   0.651  0.2878 -1.6836 -1.5377
  728TIP3   OH223742   1.026   3.018   0.060 -0.0920 -0.2933 -0.0812
  728TIP3    H123743   0.960   2.998   0.126 -0.2167  0.3053 -0.0215
  728TIP3    H223744   1.042   2.934   0.016 -0.6615 -0.5061  0.1083
  729TIP3   OH223745   3.820   4.260   1.082 -0.5034 -0.1963 -0.1442
  729TIP3    H123746   3.820   4.224   0.994  0.3279 -1.5551  0.3772
  729TIP3    H223747   3.775   4.344   1.074 -2.2288 -1.1750 -1.4842
  730TIP3   OH223748   4.739   4.008   1.117  0.3880 -0.0428  0.1320
  730TIP3    H123749   4.750   4.099   1.088 -0.5448  0.4136  1.1605
  730TIP3    H223750   4.649   4.004   1.150  0.5424 -1.2460  0.4488
  731TIP3   OH223751   6.133   4.060   7.987  0.2168  0.6676  0.4541
  731TIP3    H123752   6.172   4.125   8.046 -0.0651  0.6235  0.6973
  731TIP3    H223753   6.204   4.002   7.964  0.6311  1.4590 -0.3093
  732TIP3   OH223754   4.790   5.977   1.518  0.1210 -0.2314  0.3316
  732TIP3    H123755   4.796   6.058   1.567  4.0458  1.0119 -1.7572
  732TIP3    H223756   4.859   5.921   1.554  0.6628 -0.6893 -1.2934
  733TIP3   OH223757   1.399   4.271   0.895 -0.3735  0.3135 -0.2202
  733TIP3    H123758   1.380   4.364   0.904  1.1455  0.7797 -1.3364
  733TIP3    H223759   1.338   4.241   0.827 -1.7217  0.1779  1.0206
  734TIP3   OH223760   1.526   1.944   2.057  0.1335  0.0093 -0.2179
  734TIP3    H123761   1.517   1.865   2.110  0.3639  0.6601  0.8118
  734TIP3    H223762   1.474   1.926   1.979 -0.1474 -0.9959  0.1838
  735TIP3   OH223763   2.052   0.702   2.400 -0.1468  0.0782 -1.2360
  735TIP3    H123764   2.092   0.759   2.466 -0.3650 -0.5474 -0.5522
  735TIP3    H223765   1.973   0.748   2.373  0.0196  0.4063 -1.1673
  736TIP3   OH223766   0.678   4.961   1.770  0.0612  0.2622  0.2159
  736TIP3    H123767   0.717   4.877   1.794 -0.8290  0.4248  2.3968
  736TIP3    H223768   0.585   4.951   1.789 -0.4682  1.0120 -1.7104
  737TIP3   OH223769   5.309   6.788   2.889  0.2084 -0.0158  0.2456
  737TIP3    H123770   5.393   6.785   2.844 -0.3935 -0.5963 -0.8835
  737TIP3    H223771   5.295   6.882   2.906  0.7481  0.1521 -0.2034
  738TIP3   OH223772   2.070   0.146   7.953  0.2447 -0.4301  0.0249
  738TIP3    H123773   2.153   0.099   7.948 -0.1944 -1.3311  0.8097
  738TIP3    H223774   2.051   0.172   7.863  0.0138 -2.6464 -0.6117
  739TIP3   OH223775   5.571   2.842   0.961  0.6945 -1.0551  0.2280
  739TIP3    H123776   5.615   2.925   0.977  0.6934 -1.0304  0.1025
  739TIP3    H223777   5.500   2.863   0.900  1.7594 -1.4400 -1.1877
  740TIP3   OH223778   2.333   0.065   1.466  0.2162  0.0984  0.1654
  740TIP3    H123779   2.312   0.053   1.559 -1.1604  1.9201  0.1497
  740TIP3    H223780   2.398   0.135   1.465  0.1953  0.1140 -0.2534
  741TIP3   OH223781   2.335   5.777   1.383 -0.4799  0.1779  0.3458
  741TIP3    H123782   2.360   5.835   1.311  0.3661 -0.5382  0.0380
  741TIP3    H223783   2.414   5.725   1.400 -0.9802 -0.3465  1.1266
  742TIP3   OH223784   0.893   2.369   8.040  0.5263  0.1008 -0.6662
  742TIP3    H123785   0.887   2.300   7.974  0.2760 -0.0772 -0.4620
  742TIP3    H223786   0.802   2.390   8.060  0.5790 -0.5796  0.3806
  743TIP3   OH223787   2.985   1.249   2.127 -0.4674  0.3603 -0.6241
  743TIP3    H123788   3.060   1.207   2.085  0.4253  1.5567 -0.3053
  743TIP3    H223789   2.955   1.186   2.192  0.9478  0.2565 -0.0320
  744TIP3   OH223790   2.245   3.011   7.462 -0.2034 -0.0151 -0.3350
  744TIP3    H123791   2.250   2.963   7.544 -0.4592  1.4962  0.6043
  744TIP3    H223792   2.201   2.952   7.402 -1.3349 -0.6088  1.0307
  745TIP3   OH223793   6.008   5.328   2.247  0.1222  0.2778 -0.3508
  745TIP3    H123794   6.010   5.300   2.339 -1.0461  1.7277  0.1547
  745TIP3    H223795   5.945   5.269   2.206  1.8735 -1.4796 -0.6694
  746TIP3   OH223796   2.075   6.117   8.007  0.5706  0.6914 -0.4053
  746TIP3    H123797   2.041   6.206   7.996 -0.9437  0.1484 -0.4612
  746TIP3    H223798   2.024   6.082   8.080  1.7307  0.1346  0.1507
  747TIP3   OH223799   1.856   2.233   8.150 -0.0343 -0.1680 -0.5219
  747TIP3    H123800   1.782   2.226   8.090  0.7899 -0.5469 -1.5231
  747TIP3    H223801   1.857   2.325   8.176 -0.5575 -0.0506 -0.9001
  748TIP3   OH223802   1.970   1.961   1.529  0.5578  0.5206  0.0393
  748TIP3    H123803   2.059   1.964   1.496 -0.1414  0.8453 -1.9462
  748TIP3    H223804   1.930   1.887   1.484  0.0821 -0.3000  1.7067
  749TIP3   OH223805   5.511   5.486   1.204  0.2092 -0.1634  0.1244
  749TIP3    H123806   5.476   5.440   1.128  1.2669 -1.6636  0.4885
  749TIP3    H223807   5.440   5.486   1.268  0.5704 -2.5853  0.6250
  750TIP3   OH223808   1.683   6.541   0.929 -0.0137  0.1439  0.1859
  750TIP3    H123809   1.691   6.619   0.984 -0.6984 -0.1107  0.6524
  750TIP3    H223810   1.592   6.515   0.936 -0.0672 -0.0304 -0.8980
  751TIP3   OH223811   0.147   4.359   0.253 -0.4057  0.2863  0.6194
  751TIP3    H123812   0.106   4.374   0.167 -1.5302 -1.0527  0.8961
  751TIP3    H223813   0.080   4.385   0.316  0.6268  1.8251  1.1327
  752TIP3   OH223814   3.698   0.296   1.615 -0.2982  0.1442  0.1202
  752TIP3    H123815   3.695   0.200   1.619  1.1742  0.0975  0.8131
  752TIP3    H223816   3.618   0.320   1.570 -1.3570 -1.3503  1.0978
  753TIP3   OH223817   5.736   0.957   0.945 -0.5655 -0.6584  0.1126
  753TIP3    H123818   5.809   0.909   0.907  1.1210  1.3945  0.5465
  753TIP3    H223819   5.668   0.955   0.878  0.1347 -2.0224 -0.5953
  754TIP3   OH223820   4.296   6.653   0.913 -0.5413 -0.3796  0.8470
  754TIP3    H123821   4.298   6.557   0.911 -2.7027 -0.4735 -0.1225
  754TIP3    H223822   4.387   6.679   0.920 -0.0021 -2.5108  3.2665
  755TIP3   OH223823   1.308   5.596   1.217 -0.0101 -0.1697  0.5888
  755TIP3    H123824   1.284   5.549   1.137 -1.1567 -0.3549  1.0298
  755TIP3    H223825   1.369   5.664   1.187 -1.0021  0.2553 -0.5681
  756TIP3   OH223826   1.746   2.973   0.715 -0.9188 -0.2420  0.0145
  756TIP3    H123827   1.822   2.948   0.768 -1.4189 -0.3716  0.6823
  756TIP3    H223828   1.757   2.924   0.633 -1.4232 -2.0061  0.9525
  757TIP3   OH223829   0.568   5.215   8.354  0.5327  0.5246 -0.2250
  757TIP3    H123830   0.628   5.142   8.336 -1.2141 -1.0137 -0.1400
  757TIP3    H223831   0.607   5.290   8.308  1.8979 -0.6890 -1.1414
  758TIP3   OH223832   4.598   6.771   6.771 -0.4578  0.2422  0.5223
  758TIP3    H123833   4.610   6.676   6.773  0.0266  0.1626 -2.3075
  758TIP3    H223834   4.509   6.783   6.737 -0.3416  0.7995  0.4024
  759TIP3   OH223835   2.023   4.408   0.874  0.0969 -0.3444  0.1812
  759TIP3    H123836   1.992   4.407   0.783  1.1386  2.2491 -0.2927
  759TIP3    H223837   2.038   4.316   0.895 -0.9941 -1.0947 -1.9626
  760TIP3   OH223838   6.432   3.072   1.354  0.2645 -0.6218  0.0314
  760TIP3    H123839   6.428   2.977   1.362 -1.2228 -0.6488 -0.7002
  760TIP3    H223840   6.363   3.104   1.412  2.2620  0.1955  2.1401
  761TIP3   OH223841   1.582   3.711   1.474  0.1700  0.1251  0.0186
  761TIP3    H123842   1.545   3.794   1.506  0.2887  0.6241 -1.1070
  761TIP3    H223843   1.581   3.719   1.379 -1.4273 -1.8926 -0.1983
  762TIP3   OH223844   6.389   0.125   8.501  0.1579 -0.3099 -0.3308
  762TIP3    H123845   6.358   0.179   8.429 -0.2363 -0.4806 -0.2957
  762TIP3    H223846   6.470   0.167   8.531 -0.8351  1.0468  0.5827
  763TIP3   OH223847   6.062   5.149   8.307  0.2635 -0.4077 -0.3564
  763TIP3    H123848   6.069   5.087   8.380  0.8346 -0.8551 -0.7851
  763TIP3    H223849   6.095   5.100   8.231 -1.0510 -0.2259 -1.0777
  764TIP3   OH223850   0.510   2.752   2.010  0.1551 -0.4030 -0.0845
  764TIP3    H123851   0.599   2.733   2.038  0.3375  1.2689  0.6277
  764TIP3    H223852   0.462   2.670   2.020  1.7366 -1.5011 -1.0899
  765TIP3   OH223853   5.426   1.504   8.562  0.9745 -0.0167 -0.3008
  765TIP3    H123854   5.438   1.428   8.620  2.2610 -0.1110 -0.6799
  765TIP3    H223855   5.388   1.571   8.619 -1.0946 -1.1936 -0.1604
  766TIP3   OH223856   5.631   5.773   7.712  0.1453  0.3285  0.1707
  766TIP3    H123857   5.631   5.685   7.748 -1.0269 -0.0579 -0.7323
  766TIP3    H223858   5.723   5.791   7.691  0.4519 -0.4801  0.7909
  767TIP3   OH223859   6.222   0.068   0.904 -0.5814  0.0959 -0.3164
  767TIP3    H123860   6.230   0.078   0.999 -0.9635  2.0506 -0.4349
  767TIP3    H223861   6.290   0.005   0.881  0.3784  0.5492  1.1158
  768TIP3   OH223862   6.644   2.665   2.115 -0.5666 -0.2493 -0.4088
  768TIP3    H123863   6.618   2.576   2.088 -1.4680 -0.2427  0.3793
  768TIP3    H223864   6.703   2.651   2.189 -0.1530 -0.2059 -0.7295
  769TIP3   OH223865   0.303   4.025   7.905 -0.4868  0.1993 -0.0771
  769TIP3    H123866   0.390   4.007   7.941  0.3933  2.2145 -0.9946
  769TIP3    H223867   0.311   4.004   7.812 -1.0036  0.3442 -0.1549
  770TIP3   OH223868   2.069   2.704   2.829  0.5251  0.0179 -0.4327
  770TIP3    H123869   2.132   2.697   2.901 -1.7042 -0.6062  1.5878
  770TIP3    H223870   2.109   2.656   2.757  2.7384  0.4549  0.4303
  771TIP3   OH223871   3.715   1.036   7.568  0.2621  0.0710  0.5032
  771TIP3    H123872   3.784   1.021   7.633  2.6062 -0.8912 -2.0149
  771TIP3    H223873   3.671   0.951   7.559  1.4986 -0.4807 -0.7466
  772TIP3   OH223874   6.114   1.351   7.923  0.0691 -0.0403  0.4050
  772TIP3    H123875   6.161   1.433   7.909  1.7155 -1.0130 -0.0294
  772TIP3    H223876   6.055   1.344   7.847 -0.9367  1.2526  1.0204
  773TIP3   OH223877   1.424   4.179   1.157  0.2440  0.8512  0.1552
  773TIP3    H123878   1.420   4.243   1.228  1.1735  1.3095 -0.1755
  773TIP3    H223879   1.387   4.224   1.082 -1.4961  0.0878  0.5036
  774TIP3   OH223880   1.675   6.792   1.087  0.8057  0.6413  0.1389
  774TIP3    H123881   1.768   6.809   1.102  0.7316  0.5327  0.7448
  774TIP3    H223882   1.636   6.791   1.174  0.6343 -1.6409  0.0999
  775TIP3   OH223883   2.188   4.056   7.810  0.2870 -0.1199  0.4899
  775TIP3    H123884   2.218   4.058   7.900 -1.8984  0.4286  1.2828
  775TIP3    H223885   2.191   4.148   7.782  0.1099 -0.1664  0.3174
  776TIP3   OH223886   6.223   5.842   8.075  0.2394 -0.5025  0.2444
  776TIP3    H123887   6.309   5.816   8.109 -0.5012 -2.2087  0.9302
  776TIP3    H223888   6.167   5.767   8.094 -1.0807  0.0047 -1.4683
  777TIP3   OH223889   4.967   6.712   0.824  0.1352  0.4059 -0.3734
  777TIP3    H123890   5.004   6.673   0.745 -0.4123 -0.4683 -0.2233
  777TIP3    H223891   4.958   6.638   0.884 -0.1655  0.9265  0.2271
  778TIP3   OH223892   3.909   3.029   0.581 -0.0797 -0.2881 -0.3393
  778TIP3    H123893   3.932   3.121   0.597  1.0990 -0.0350 -2.9498
  778TIP3    H223894   3.834   3.034   0.521  0.4182 -0.9907 -1.0401
  779TIP3   OH223895   4.810   2.865   2.563 -0.0862  0.2993  0.0130
  779TIP3    H123896   4.873   2.802   2.599 -0.9301  0.7016  2.3997
  779TIP3    H223897   4.751   2.813   2.509  0.3768 -0.6273  0.3897
  780TIP3   OH223898   0.514   1.583   0.266 -0.6824 -0.5564 -0.8885
  780TIP3    H123899   0.529   1.502   0.216 -0.2081  0.5355 -2.6001
  780TIP3    H223900   0.568   1.572   0.344  1.0360 -1.0581 -2.0785
  781TIP3   OH223901   5.698   6.807   7.888 -0.1226 -0.4187  0.1652
  781TIP3    H123902   5.727   6.888   7.930  0.2320 -0.9377  0.9448
  781TIP3    H223903   5.730   6.737   7.945  1.4709 -1.2201 -1.5946
  782TIP3   OH223904   1.684   0.831   0.319  0.3940 -0.1974 -0.2492
  782TIP3    H123905   1.736   0.850   0.397  1.4532 -2.0522 -0.4282
  782TIP3    H223906   1.612   0.778   0.352 -0.2727  0.6679 -0.2863
  783TIP3   OH223907   3.630   3.964   0.753 -0.4498  0.5039  0.3882
  783TIP3    H123908   3.537   3.979   0.739  0.0512  2.4990 -1.1565
  783TIP3    H223909   3.659   3.917   0.675 -0.1188 -0.0251  0.8203
  784TIP3   OH223910   0.800   1.642   1.305  0.1697 -0.0929  0.8966
  784TIP3    H123911   0.814   1.720   1.251 -0.1024 -0.7252 -0.1191
  784TIP3    H223912   0.724   1.663   1.359  0.4729  0.5655  1.0864
  785TIP3   OH223913   6.182   6.071   7.932  0.1984 -0.3019  0.2193
  785TIP3    H123914   6.272   6.102   7.920  0.7326 -1.6991  0.4308
  785TIP3    H223915   6.192   5.982   7.968 -1.2790  0.3045  2.3213
  786TIP3   OH223916   3.649   3.970   7.568 -0.7190 -0.3112  0.2753
  786TIP3    H123917   3.705   4.008   7.635  0.7225 -1.3834 -0.2810
  786TIP3    H223918   3.666   4.022   7.489 -0.5449 -0.5962  0.1225
  787TIP3   OH223919   6.711   3.036   6.788  0.4065  0.5064  0.1618
  787TIP3    H123920   6.762   3.100   6.739 -1.0517  0.8618 -0.9568
  787TIP3    H223921   6.690   3.079   6.870 -0.3244  1.3932 -0.4716
  788TIP3   OH223922   3.133   1.653   8.419 -0.3703  0.0905 -0.1241
  788TIP3    H123923   3.128   1.695   8.505  1.4487 -0.2661  0.1866
  788TIP3    H223924   3.088   1.570   8.430  1.5093 -0.8349  1.0898
  789TIP3   OH223925   3.779   5.812   2.313  0.9476  0.2907 -0.3119
  789TIP3    H123926   3.787   5.907   2.307  0.4021  0.3872  0.4757
  789TIP3    H223927   3.692   5.793   2.279  0.6204  0.1794  0.5765
  790TIP3   OH223928   4.608   4.220   7.628  0.3351 -0.1871  0.1506
  790TIP3    H123929   4.579   4.282   7.561 -1.5383 -1.3215 -0.1761
  790TIP3    H223930   4.548   4.235   7.702  1.6641  0.2887  1.1716
  791TIP3   OH223931   3.852   4.876   0.777  0.7074 -0.0240  0.3302
  791TIP3    H123932   3.792   4.877   0.852  0.3525 -2.6434  0.1493
  791TIP3    H223933   3.799   4.908   0.704 -0.0039 -0.7533  0.5091
  792TIP3   OH223934   5.136   2.466   1.058 -0.8217  0.0150 -0.7121
  792TIP3    H123935   5.082   2.476   1.137  0.4880  0.5320  0.1553
  792TIP3    H223936   5.174   2.378   1.067  0.4878  0.6229  0.0273
  793TIP3   OH223937   4.969   2.494   2.087  0.5805 -0.1845 -0.3975
  793TIP3    H123938   4.941   2.505   2.178  1.8200 -0.0457 -0.0116
  793TIP3    H223939   5.030   2.567   2.072  1.6061 -1.1075 -0.8274
  794TIP3   OH223940   0.108   2.011   0.302 -0.3099  0.3068 -0.1240
  794TIP3    H123941   0.178   2.054   0.253  0.3520  0.3040  0.8018
  794TIP3    H223942   0.106   1.922   0.267  0.0541  0.3456 -0.2464
  795TIP3   OH223943   4.885   6.816   2.385 -0.1813 -0.3523 -0.0752
  795TIP3    H123944   4.864   6.723   2.380  1.3835 -0.7741  0.5680
  795TIP3    H223945   4.953   6.829   2.319  1.0229 -0.1144  1.1652
  796TIP3   OH223946   0.144   3.694   7.907 -0.2795 -0.2440 -0.4041
  796TIP3    H123947   0.211   3.634   7.872 -0.2657  0.0010 -0.8108
  796TIP3    H223948   0.120   3.748   7.831  0.8258  1.3228  0.3037
  797TIP3   OH223949   3.905   3.002   7.914  0.8673 -0.4591  0.0453
  797TIP3    H123950   3.989   2.963   7.891  0.6234 -1.8269  1.3038
  797TIP3    H223951   3.927   3.089   7.949  1.5948 -0.2228 -0.9581
  798TIP3   OH223952   5.957   2.693   2.576  0.0639 -0.5559 -0.1155
  798TIP3    H123953   5.867   2.708   2.548 -0.0223  1.0914  0.9192
  798TIP3    H223954   5.997   2.780   2.576  1.3299 -1.1070  0.5770
  799TIP3   OH223955   4.681   0.714   8.310  0.6367  0.2275  0.6021
  799TIP3    H123956   4.761   0.761   8.285 -0.0357  0.1674 -2.0009
  799TIP3    H223957   4.712   0.630   8.344  1.7189 -0.5570 -2.0752
  800TIP3   OH223958   2.842   4.161   2.771  0.0976 -0.7557  0.3520
  800TIP3    H123959   2.885   4.230   2.823  0.9018 -0.9660 -0.0178
  800TIP3    H223960   2.905   4.140   2.703  0.6649 -3.1597  1.5248
  801TIP3   OH223961   2.697   5.186   7.583 -0.7856  0.5720  0.2808
  801TIP3    H123962   2.708   5.236   7.664  1.4134  0.3028  0.2229
  801TIP3    H223963   2.752   5.233   7.519  1.8477 -2.0905  0.3510
  802TIP3   OH223964   3.677   4.926   2.863  0.1208 -0.3693  0.2664
  802TIP3    H123965   3.651   5.014   2.838 -0.7230 -0.3330  1.2015
  802TIP3    H223966   3.771   4.932   2.880  0.0082  0.4262  0.6477
  803TIP3   OH223967   3.317   0.198   1.964 -1.0177 -0.1190  0.5714
  803TIP3    H123968   3.271   0.223   2.044 -1.1394  1.1683  0.1194
  803TIP3    H223969   3.399   0.161   1.996 -0.1372  2.2359  1.3204
  804TIP3   OH223970   0.054   0.026   2.323  0.4463  0.7240  0.4493
  804TIP3    H123971   0.051   0.120   2.340  2.3760  1.2481 -1.6511
  804TIP3    H223972   0.121  -0.007   2.383  0.4368  0.8523  0.5318
  805TIP3   OH223973   4.916   5.809   0.926 -0.1960 -0.2552 -0.4706
  805TIP3    H123974   4.969   5.889   0.926 -1.4608  0.7631 -3.7000
  805TIP3    H223975   4.826   5.841   0.935 -0.7046 -1.3267 -1.5430
  806TIP3   OH223976   1.169   0.847   8.131 -0.0133 -0.1934 -0.7321
  806TIP3    H123977   1.206   0.827   8.217  1.4713 -0.6939 -1.4417
  806TIP3    H223978   1.131   0.934   8.141 -0.8470 -0.6955  0.7127
  807TIP3   OH223979   1.345   6.573   0.346  0.0090 -0.1836 -0.0098
  807TIP3    H123980   1.326   6.492   0.394  1.6417 -0.5166  0.1328
  807TIP3    H223981   1.397   6.544   0.271  1.3852  0.8207  0.5320
  808TIP3   OH223982   6.584   5.351   1.580 -0.5635  0.4473  0.7381
  808TIP3    H123983   6.637   5.396   1.646  1.1754 -0.1109 -0.2205
  808TIP3    H223984   6.549   5.274   1.625  0.1982  0.3323  1.1386
  809TIP3   OH223985   2.205   3.583   1.191 -0.0075 -0.1223 -0.1110
  809TIP3    H123986   2.138   3.652   1.185 -0.5509 -0.3394  2.2562
  809TIP3    H223987   2.259   3.609   1.266  1.0496 -1.2214 -0.4682
  810TIP3   OH223988   6.336   4.547   7.601  0.7030 -0.6847  0.0496
  810TIP3    H123989   6.380   4.502   7.529  1.5621 -1.1751  0.8667
  810TIP3    H223990   6.283   4.480   7.643 -1.2050 -0.0153 -1.1725
  811TIP3   OH223991   5.023   6.337   3.102  0.3832  0.0075  0.2308
  811TIP3    H123992   4.981   6.401   3.045 -0.4313 -0.8774 -0.1864
  811TIP3    H223993   5.056   6.270   3.042 -0.5149 -0.9508  0.7712
  812TIP3   OH223994   1.752   1.469   7.051 -0.3134  0.5142 -0.1049
  812TIP3    H123995   1.808   1.512   6.987 -0.6440 -0.8995 -1.3926
  812TIP3    H223996   1.789   1.382   7.061 -2.0811 -0.3451 -0.7515
  813TIP3   OH223997   0.453   0.663   8.075  0.3148  0.2543  0.9446
  813TIP3    H123998   0.487   0.582   8.035  1.9916  1.3033  0.1384
  813TIP3    H223999   0.455   0.645   8.169  0.8794 -0.5676  0.7913
  814TIP3   OH224000   0.197   0.285   0.557 -0.4301  0.0778  0.3205
  814TIP3    H124001   0.241   0.294   0.472  2.6144  0.3342  1.7889
  814TIP3    H224002   0.200   0.191   0.575  0.9341  0.2566  1.0897
  815TIP3   OH224003   2.306   5.365   0.035 -0.0331 -0.3845 -0.0671
  815TIP3    H124004   2.309   5.360   0.130 -1.3408  0.4035  0.0366
  815TIP3    H224005   2.364   5.438   0.013  0.3701 -0.6512  0.1155
  816TIP3   OH224006   0.837   4.435   2.237 -0.2129  0.4488 -0.2622
  816TIP3    H124007   0.811   4.497   2.168 -2.7360 -1.0794 -0.8255
  816TIP3    H224008   0.817   4.480   2.319  0.6591  1.4155 -0.5600
  817TIP3   OH224009   2.707   3.606   8.047  0.0342 -0.3460 -0.1593
  817TIP3    H124010   2.634   3.591   8.108 -0.4773  0.0441 -0.6646
  817TIP3    H224011   2.735   3.695   8.066  0.0787 -0.3353 -0.2750
  818TIP3   OH224012   6.073   5.653   8.223 -0.2459  0.0072  0.7804
  818TIP3    H124013   6.025   5.736   8.228  1.3379  1.0486 -0.3378
  818TIP3    H224014   6.082   5.625   8.314 -0.8071  1.0547  1.1782
  819TIP3   OH224015   4.966   6.537   8.142 -0.2559 -0.5154  0.1066
  819TIP3    H124016   5.023   6.579   8.078 -1.1023 -0.6327 -0.7432
  819TIP3    H224017   5.020   6.468   8.181  0.6173  0.2765  0.3378
  820TIP3   OH224018   3.505   3.300   1.145 -0.3646  0.9808  0.2901
  820TIP3    H124019   3.443   3.238   1.106  0.4937  1.3245 -1.7702
  820TIP3    H224020   3.542   3.253   1.220 -2.0422  0.2408  0.7055
  821TIP3   OH224021   1.079   5.784   1.485 -0.4812  0.6295 -0.0699
  821TIP3    H124022   1.173   5.798   1.492 -0.3616  1.4799 -2.6489
  821TIP3    H224023   1.058   5.804   1.394 -2.6545 -2.5900 -0.4455
  822TIP3   OH224024   0.369   0.695   0.789 -0.3971 -0.4449 -0.1337
  822TIP3    H124025   0.370   0.662   0.699 -1.5274  0.6417 -0.5779
  822TIP3    H224026   0.378   0.617   0.844 -0.9813 -1.2583 -1.1624
  823TIP3   OH224027   3.497   4.467   7.685 -0.2100  0.4908 -0.3481
  823TIP3    H124028   3.413   4.471   7.640 -1.3444  0.7685  1.6462
  823TIP3    H224029   3.497   4.545   7.741 -0.0423 -1.0482  1.9504
  824TIP3   OH224030   4.194   6.009   6.757 -0.7717  0.2148 -0.2115
  824TIP3    H124031   4.252   5.973   6.690 -0.4916 -0.5094  0.4064
  824TIP3    H224032   4.168   5.933   6.810  0.6554  1.0215  1.7653
  825TIP3   OH224033   2.380   5.981   1.201 -0.2755 -0.5423 -0.0910
  825TIP3    H124034   2.305   5.994   1.143 -0.8001 -1.7202  0.2939
  825TIP3    H224035   2.385   6.062   1.251  0.1520  0.4846 -1.6970
  826TIP3   OH224036   2.791   5.247   1.012  0.4839 -0.5200  0.1534
  826TIP3    H124037   2.777   5.153   1.020  3.2352 -1.0431 -0.2319
  826TIP3    H224038   2.848   5.257   0.936  0.5880  1.4239  0.4234
  827TIP3   OH224039   5.470   2.733   8.414  0.4933  0.1732  0.2783
  827TIP3    H124040   5.442   2.749   8.324 -0.8449 -0.3598  0.5726
  827TIP3    H224041   5.429   2.650   8.438  0.2870  0.6250  1.5856
  828TIP3   OH224042   0.099   6.478   8.131  0.2594  0.0827 -0.0626
  828TIP3    H124043   0.026   6.451   8.186  1.6138 -1.8086  0.9455
  828TIP3    H224044   0.060   6.531   8.062 -1.8194  0.4596  1.3230
  829TIP3   OH224045   0.895   1.771   7.845  0.2698 -0.2854 -0.7527
  829TIP3    H124046   0.966   1.708   7.833 -0.5430 -1.6722  1.2979
  829TIP3    H224047   0.884   1.811   7.758  2.4088 -1.2048 -1.5228
  830TIP3   OH224048   1.285   2.926   7.669 -0.0849  0.8042 -0.3412
  830TIP3    H124049   1.203   2.934   7.717  0.5514 -0.7874  1.1192
  830TIP3    H224050   1.328   2.849   7.707  1.4039  0.6963 -2.0957
  831TIP3   OH224051   1.431   1.866   1.610 -0.1641 -0.5939  0.2637
  831TIP3    H124052   1.433   1.867   1.706 -0.7534  0.4091  0.2786
  831TIP3    H224053   1.478   1.786   1.586  2.6220  0.6038  1.3089
  832TIP3   OH224054   3.754   2.837   1.873 -0.3466 -0.2027 -0.1214
  832TIP3    H124055   3.788   2.750   1.895  0.4547  0.1155 -0.0579
  832TIP3    H224056   3.661   2.833   1.893 -0.0147 -0.5380  1.4686
  833TIP3   OH224057   1.237   3.712   7.913 -0.1438  0.7086 -0.5109
  833TIP3    H124058   1.278   3.705   7.999 -0.7124  0.7847 -0.2284
  833TIP3    H224059   1.256   3.629   7.871 -2.7472 -0.7915  0.9903
  834TIP3   OH224060   5.832   1.368   0.350 -0.2820 -0.5202  0.2872
  834TIP3    H124061   5.861   1.310   0.279 -3.0606 -1.1918 -0.4489
  834TIP3    H224062   5.768   1.426   0.308  0.9712  1.8118  1.4506
  835TIP3   OH224063   4.272   5.546   7.538 -0.0897 -0.4647 -0.4451
  835TIP3    H124064   4.354   5.565   7.492  0.0418  1.0449  0.3490
  835TIP3    H224065   4.296   5.543   7.630 -0.4859 -2.7239 -0.3650
  836TIP3   OH224066   3.398   4.374   0.899  0.0024 -0.3212  0.3266
  836TIP3    H124067   3.357   4.415   0.975  1.0301 -1.4577  1.5252
  836TIP3    H224068   3.350   4.410   0.824 -1.0507  0.8004  1.4949
  837TIP3   OH224069   4.282   5.370   0.097 -0.1242 -0.2304  0.1615
  837TIP3    H124070   4.204   5.389   0.044  0.2640  0.6452 -0.1154
  837TIP3    H224071   4.270   5.422   0.176  0.1870 -0.0756  0.1093
  838TIP3   OH224072   6.394   0.240   1.272  0.1319  0.4022  0.1552
  838TIP3    H124073   6.459   0.307   1.251  0.6563  0.1578  0.9673
  838TIP3    H224074   6.409   0.219   1.364 -0.8775  0.0912  0.2673
  839TIP3   OH224075   3.678   4.035   7.301 -0.3357  0.1225  0.1555
  839TIP3    H124076   3.769   4.025   7.328 -0.4659 -1.1573  0.1984
  839TIP3    H224077   3.682   4.084   7.219  0.3654  0.3002  0.2940
  840TIP3   OH224078   4.417   2.835   0.889 -0.3199  0.0417  0.1131
  840TIP3    H124079   4.454   2.913   0.848  0.2406  0.3749  1.2211
  840TIP3    H224080   4.332   2.824   0.846 -0.4982  1.3833  0.0852
  841TIP3   OH224081   6.435   4.388   0.429  0.3289 -0.4386  0.0776
  841TIP3    H124082   6.378   4.435   0.490 -2.0737 -0.9483 -1.5906
  841TIP3    H224083   6.479   4.322   0.482 -0.7432 -0.0923  1.4560
  842TIP3   OH224084   5.152   3.235   7.699 -0.8892 -0.5569  0.2122
  842TIP3    H124085   5.065   3.237   7.659 -1.1867 -2.8902  0.6275
  842TIP3    H224086   5.205   3.291   7.642 -2.6019  0.8748 -0.0843
  843TIP3   OH224087   5.218   1.580   8.078 -0.3848  0.5646 -0.2566
  843TIP3    H124088   5.264   1.499   8.100  0.7007  1.4836  1.0389
  843TIP3    H224089   5.288   1.644   8.063 -1.2187  1.6163  0.2049
  844TIP3   OH224090   5.815   4.372   7.477 -0.4337  0.5846 -0.1200
  844TIP3    H124091   5.787   4.462   7.492  3.5962  1.8592  0.8490
  844TIP3    H224092   5.801   4.328   7.562 -0.8019  0.7535 -0.0907
  845TIP3   OH224093   5.764   3.834   1.318 -0.4150  0.0767 -0.2178
  845TIP3    H124094   5.773   3.925   1.344  0.1725 -0.9201  3.6204
  845TIP3    H224095   5.685   3.833   1.264  0.5704  3.0494 -1.9481
  846TIP3   OH224096   0.767   5.173   7.627  0.4027  0.2279 -0.3867
  846TIP3    H124097   0.691   5.174   7.568  1.1422  0.3398 -1.3661
  846TIP3    H224098   0.748   5.103   7.690 -0.8634  0.7828 -0.1242
  847TIP3   OH224099   5.156   0.073   1.890  0.2658 -0.0724  0.0192
  847TIP3    H124100   5.065   0.062   1.917  0.2833  1.2915  0.7093
  847TIP3    H224101   5.152   0.089   1.796 -0.0723 -1.4342 -0.2172
  848TIP3   OH224102   3.346   0.329   1.366  0.0828 -0.1063  0.4133
  848TIP3    H124103   3.334   0.253   1.308 -0.2433  0.5950 -0.4508
  848TIP3    H224104   3.307   0.402   1.319  0.3564  0.6026  1.2602
  849TIP3   OH224105   0.485   0.938   7.353 -0.3803  0.2734 -0.1586
  849TIP3    H124106   0.450   0.849   7.350 -0.0130  0.0746  0.8578
  849TIP3    H224107   0.572   0.928   7.392 -0.5926  1.1398  0.5868
  850TIP3   OH224108   1.354   5.816   1.536  0.1271  0.3021 -0.3200
  850TIP3    H124109   1.430   5.782   1.584 -0.2332  0.0952  0.1086
  850TIP3    H224110   1.357   5.911   1.551 -0.5222  0.1458  0.9259
  851TIP3   OH224111   4.588   4.564   7.672 -0.5922 -0.0879  0.3862
  851TIP3    H124112   4.566   4.634   7.611 -0.7054 -0.9145 -0.5439
  851TIP3    H224113   4.514   4.561   7.733 -0.8568  0.2192  0.0787
  852TIP3   OH224114   6.264   2.343   8.150  0.4017 -0.1145  0.1132
  852TIP3    H124115   6.245   2.285   8.223 -1.5503  1.3030  0.8241
  852TIP3    H224116   6.358   2.332   8.133  0.7523 -0.9872  2.3703
  853TIP3   OH224117   4.484   2.991   2.508  0.0039  0.6503 -0.4837
  853TIP3    H124118   4.394   3.011   2.534 -0.4507 -0.2790 -1.2291
  853TIP3    H224119   4.497   2.900   2.536  0.0571  0.1696 -1.9700
  854TIP3   OH224120   1.271   5.482   0.892 -0.4261  0.9158  0.2443
  854TIP3    H124121   1.189   5.478   0.844  0.1972 -0.4019 -0.7747
  854TIP3    H224122   1.338   5.500   0.825  0.4377 -0.8004  0.5943
  855TIP3   OH224123   0.204   0.950   0.863 -0.2004  0.4579  0.5646
  855TIP3    H124124   0.172   0.923   0.949 -2.2633 -3.4687 -1.1707
  855TIP3    H224125   0.263   0.879   0.836 -2.7159 -0.6153 -2.7322
  856TIP3   OH224126   6.504   3.303   1.540 -1.1900  0.8453 -0.4659
  856TIP3    H124127   6.550   3.300   1.456  0.0303 -0.9306  0.2005
  856TIP3    H224128   6.472   3.214   1.553  0.9931  0.3059  2.1373
  857TIP3   OH224129   4.396   5.884   6.636 -0.3265  0.0371 -0.6190
  857TIP3    H124130   4.485   5.899   6.665 -0.4243  1.5973 -1.0031
  857TIP3    H224131   4.402   5.810   6.576  0.5964 -0.2957 -0.1271
  858TIP3   OH224132   5.992   5.465   0.289 -0.0123 -0.3718 -0.4369
  858TIP3    H124133   6.004   5.525   0.363 -0.3032 -0.5581 -0.2367
  858TIP3    H224134   5.958   5.520   0.219  1.0574 -0.0300 -0.7021
  859TIP3   OH224135   3.419   2.268   1.668  0.2495 -0.3489 -0.5858
  859TIP3    H124136   3.458   2.181   1.674 -0.5024 -0.6342  0.4026
  859TIP3    H224137   3.325   2.253   1.681  0.1112  0.6085 -0.3865
  860TIP3   OH224138   3.356   3.911   7.650  0.2323 -0.3099 -0.5719
  860TIP3    H124139   3.329   4.003   7.646  0.7741 -0.1415 -0.4236
  860TIP3    H224140   3.431   3.906   7.591 -0.9849 -1.0882 -2.1170
  861TIP3   OH224141   2.915   2.460   8.370 -0.3065  0.4642 -0.2619
  861TIP3    H124142   2.828   2.497   8.385 -0.9635 -1.2830  0.4932
  861TIP3    H224143   2.912   2.430   8.279  0.6844  3.2739 -1.3345
  862TIP3   OH224144   4.336   5.042   2.163  0.3081 -0.4569 -0.3128
  862TIP3    H124145   4.288   4.973   2.209  0.7659  0.2223  1.2373
  862TIP3    H224146   4.428   5.021   2.178  0.6234 -1.7759 -3.3032
  863TIP3   OH224147   2.092   5.896   1.479 -1.2790  0.7178 -1.0714
  863TIP3    H124148   2.179   5.857   1.487 -1.8501 -0.1960  1.8814
  863TIP3    H224149   2.105   5.973   1.424  1.6523  1.2750  0.2094
  864TIP3   OH224150   3.820   2.453   0.380 -0.0752  0.3357  0.6025
  864TIP3    H124151   3.855   2.497   0.458  0.6877 -0.1821  0.5601
  864TIP3    H224152   3.750   2.396   0.414  0.6057 -0.2811  0.9818
  865TIP3   OH224153   2.617   2.027   2.345  0.1197 -0.6101  0.1599
  865TIP3    H124154   2.620   1.942   2.389  1.2567 -0.4560  0.4198
  865TIP3    H224155   2.561   2.081   2.400  2.0025 -0.2338  1.8170
  866TIP3   OH224156   0.835   1.130   8.455 -0.3587  0.0586  0.3171
  866TIP3    H124157   0.862   1.160   8.368  0.1688  1.2780  0.8888
  866TIP3    H224158   0.779   1.199   8.489 -0.9478 -0.6268  0.7720
  867TIP3   OH224159   3.732   0.834   1.820 -0.0567  0.1687  0.6295
  867TIP3    H124160   3.777   0.803   1.899 -0.6227  1.5739  1.5433
  867TIP3    H224161   3.701   0.754   1.778  0.5877 -0.6355  1.6225
  868TIP3   OH224162   5.140   3.309   0.289 -0.3462 -0.5763  0.5258
  868TIP3    H124163   5.215   3.361   0.319 -0.4002  0.2556 -0.7136
  868TIP3    H224164   5.179   3.235   0.243 -0.2154  0.5318 -1.2693
  869TIP3   OH224165   2.731   3.473   7.035  0.7646 -0.2857  0.1830
  869TIP3    H124166   2.783   3.436   7.106  0.1337 -0.7332  0.4285
  869TIP3    H224167   2.745   3.413   6.962  1.8865  0.5036 -0.2692
  870TIP3   OH224168   5.992   0.196   0.845 -0.5769 -0.5623 -0.0256
  870TIP3    H124169   5.947   0.216   0.927 -0.5939  1.1236 -0.4197
  870TIP3    H224170   6.049   0.122   0.867 -1.9416 -1.3668  1.0182
  871TIP3   OH224171   4.843   5.230   7.529  0.0545  0.4145 -0.3964
  871TIP3    H124172   4.868   5.141   7.553 -1.8972  0.5383  2.5387
  871TIP3    H224173   4.756   5.221   7.490  0.1196  0.9793 -0.6781
  872TIP3   OH224174   6.688   0.161   7.770  0.2677  0.2629  0.2728
  872TIP3    H124175   6.616   0.159   7.707  1.5763  1.7671 -1.3577
  872TIP3    H224176   6.656   0.108   7.844 -2.0986  0.0790 -0.7830
  873TIP3   OH224177   2.766   3.450   0.517 -0.0129  0.2452  0.1799
  873TIP3    H124178   2.845   3.454   0.571  0.5065  2.1548 -0.6489
  873TIP3    H224179   2.742   3.541   0.502 -2.0145 -0.2816 -0.1631
  874TIP3   OH224180   5.427   3.692   2.649  0.0884 -0.3073  0.3647
  874TIP3    H124181   5.395   3.610   2.687 -1.1429 -0.0544 -0.0947
  874TIP3    H224182   5.349   3.738   2.620  0.6510  1.4800  1.4710
  875TIP3   OH224183   3.625   2.601   8.463 -0.0219 -0.3703  0.1661
  875TIP3    H124184   3.575   2.520   8.460  1.0035 -0.9765 -1.5664
  875TIP3    H224185   3.629   2.631   8.372  0.5946  1.0313  0.6159
  876TIP3   OH224186   0.538   1.816   7.707  0.0602 -0.1286  0.2474
  876TIP3    H124187   0.617   1.868   7.694 -0.9133  2.0749  2.3782
  876TIP3    H224188   0.523   1.773   7.622  3.0061  0.0409 -0.4702
  877TIP3   OH224189   2.840   0.134   8.648  0.3108 -0.5140  0.8093
  877TIP3    H124190   2.897   0.060   8.668  0.6275 -0.6847 -0.6378
  877TIP3    H224191   2.901   0.207   8.632  0.0166 -0.0393  1.7987
  878TIP3   OH224192   6.031   3.833   8.497 -0.0290  0.0854 -0.0853
  878TIP3    H124193   5.937   3.846   8.505 -0.0049 -0.6541  2.4722
  878TIP3    H224194   6.042   3.737   8.495  0.5799  0.1009 -3.5455
  879TIP3   OH224195   0.381   4.069   1.062  0.2938  0.1022  0.6573
  879TIP3    H124196   0.327   4.011   1.009 -0.5566  1.1254  0.3637
  879TIP3    H224197   0.398   4.019   1.142 -1.5085 -0.0943  0.9606
  880TIP3   OH224198   3.797   3.358   8.568 -0.2546 -0.0341 -0.1496
  880TIP3    H124199   3.892   3.371   8.568  0.0524 -1.7944  1.6090
  880TIP3    H224200   3.770   3.387   8.656 -1.3307  0.3210 -0.5889
  881TIP3   OH224201   5.129   4.760   0.210 -0.1801  0.1160  0.4078
  881TIP3    H124202   5.049   4.800   0.176  0.3674  1.5716  0.7445
  881TIP3    H224203   5.154   4.816   0.283  1.4168 -0.0159 -0.0020
  882TIP3   OH224204   2.578   1.183   0.293 -0.2054 -0.1062 -0.4669
  882TIP3    H124205   2.664   1.141   0.284  1.0341  1.9025  1.0072
  882TIP3    H224206   2.572   1.241   0.217 -0.1563 -0.1191 -0.4811
  883TIP3   OH224207   2.545   6.118   0.113 -0.4673 -0.1514  0.2938
  883TIP3    H124208   2.556   6.213   0.105 -1.3737 -0.1408 -1.2440
  883TIP3    H224209   2.600   6.094   0.187  1.0510  1.3526 -0.2761
  884TIP3   OH224210   4.504   5.344   0.315 -0.1991  0.2981 -0.2054
  884TIP3    H124211   4.417   5.378   0.292 -0.8902 -1.5466 -0.4559
  884TIP3    H224212   4.562   5.380   0.249 -0.4941  2.6386  0.7177
  885TIP3   OH224213   3.266   1.442   0.884  0.1441 -0.2279  0.3173
  885TIP3    H124214   3.325   1.499   0.834 -1.2095 -0.6943 -1.9493
  885TIP3    H224215   3.180   1.459   0.846 -0.6643 -1.9628  1.2926
  886TIP3   OH224216   5.186   5.308   8.125  0.4924 -0.1761 -0.0444
  886TIP3    H124217   5.114   5.281   8.181  1.1781 -0.3716  0.7671
  886TIP3    H224218   5.171   5.401   8.108 -0.3950 -0.4096 -0.5882
  887TIP3   OH224219   0.791   4.950   6.801 -0.1966  0.2507 -0.4957
  887TIP3    H124220   0.859   5.013   6.826 -0.0674 -0.6564  1.6662
  887TIP3    H224221   0.833   4.895   6.734 -0.0827  1.9588 -1.8968
  888TIP3   OH224222   5.713   2.547   1.663 -0.5248 -0.0946 -0.4041
  888TIP3    H124223   5.635   2.495   1.648 -0.7507 -0.1824  0.9547
  888TIP3    H224224   5.706   2.620   1.600 -2.2160  0.4529  0.3693
  889TIP3   OH224225   3.865   4.665   1.258  0.1631 -0.1577 -0.2758
  889TIP3    H124226   3.779   4.692   1.227  0.4496 -0.7186 -1.6203
  889TIP3    H224227   3.927   4.712   1.202  0.7951  0.8483  1.1675
  890TIP3   OH224228   0.710   2.106   1.084 -0.3775  0.0958  0.0756
  890TIP3    H124229   0.775   2.133   1.018 -0.3442 -0.8163 -0.2837
  890TIP3    H224230   0.640   2.171   1.077  0.1379  0.6422 -0.0858
  891TIP3   OH224231   4.643   6.062   0.444 -0.3666 -0.1995 -0.3823
  891TIP3    H124232   4.685   6.112   0.514  0.5976  0.4889 -1.4194
  891TIP3    H224233   4.669   5.972   0.460  2.8814  0.3290 -1.7922
  892TIP3   OH224234   1.186   0.649   1.285 -0.6862  0.4240 -0.1777
  892TIP3    H124235   1.189   0.654   1.190 -1.2989  2.6060 -0.1214
  892TIP3    H224236   1.155   0.735   1.314 -1.2854 -0.4281  1.9648
  893TIP3   OH224237   5.359   5.218   1.770  0.4928 -0.0027  0.7074
  893TIP3    H124238   5.437   5.199   1.822  1.6182 -0.0326 -0.9155
  893TIP3    H224239   5.325   5.133   1.743  1.5544  0.0344 -0.8817
  894TIP3   OH224240   4.449   0.648   0.710  0.6361 -0.0018 -0.7701
  894TIP3    H124241   4.378   0.621   0.651  0.0450  1.8646 -0.9904
  894TIP3    H224242   4.518   0.679   0.652  0.2416  1.3932 -0.5405
  895TIP3   OH224243   5.555   3.239   0.830 -0.2897  0.3685 -0.1852
  895TIP3    H124244   5.540   3.162   0.775 -0.8699  0.1692  0.2432
  895TIP3    H224245   5.487   3.301   0.804 -0.6520  0.2212  0.3998
  896TIP3   OH224246   2.755   3.563   1.995  0.3372  0.1091  0.1828
  896TIP3    H124247   2.802   3.646   2.002  0.8750 -0.0392 -1.4230
  896TIP3    H224248   2.719   3.549   2.083  1.2963  1.4029  0.8167
  897TIP3   OH224249   2.285   2.941   2.823  0.0004 -0.7745 -0.4220
  897TIP3    H124250   2.263   2.873   2.886 -0.5262 -0.6380 -0.4579
  897TIP3    H224251   2.379   2.956   2.836 -0.2015 -0.3717  0.7077
  898TIP3   OH224252   4.890   0.637   0.733 -0.3577 -0.9988  0.3802
  898TIP3    H124253   4.950   0.614   0.662  0.0934 -1.0111  0.7605
  898TIP3    H224254   4.933   0.709   0.778 -1.5027  0.2896 -0.4692
  899TIP3   OH224255   6.751   0.217   2.543  0.2582  0.1141 -0.2912
  899TIP3    H124256   6.714   0.301   2.570  0.7836  0.5883 -1.0114
  899TIP3    H224257   6.690   0.152   2.577 -1.3635  0.8595 -1.6220
  900TIP3   OH224258   2.884   0.730   2.440  0.0664  0.2972  0.1015
  900TIP3    H124259   2.961   0.716   2.495  0.0312  0.2568  0.1407
  900TIP3    H224260   2.842   0.644   2.436  0.6160  0.0570 -0.8169
  901TIP3   OH224261   4.411   4.227   1.521  0.0170  0.3963  0.3648
  901TIP3    H124262   4.501   4.198   1.525  0.1560  0.8007  0.2849
  901TIP3    H224263   4.391   4.258   1.609  0.4013  1.5668  0.0655
  902TIP3   OH224264   6.083   3.251   1.762  0.0091 -0.0479  0.1106
  902TIP3    H124265   6.107   3.310   1.690  0.1700 -0.5018 -0.2141
  902TIP3    H224266   6.010   3.295   1.806  0.1389  0.4015 -0.1136
  903TIP3   OH224267   5.185   1.892   1.089 -0.4953 -0.0034 -0.1275
  903TIP3    H124268   5.102   1.907   1.134 -0.4381 -0.9325  0.2988
  903TIP3    H224269   5.178   1.946   1.010  0.1016  3.0452  1.7346
  904TIP3   OH224270   5.387   5.002   2.589  0.2887  0.1988  0.1600
  904TIP3    H124271   5.441   5.064   2.541  0.3780  0.3825  0.4967
  904TIP3    H224272   5.417   5.009   2.680  1.0726 -1.1241  0.0416
  905TIP3   OH224273   4.519   1.450   8.204 -0.4175 -0.0197 -0.6010
  905TIP3    H124274   4.601   1.494   8.182  0.8964 -2.5689 -1.1362
  905TIP3    H224275   4.498   1.481   8.292  0.6032  1.3927 -0.8252
  906TIP3   OH224276   6.862   3.398   7.718  0.2357 -0.0437 -0.1828
  906TIP3    H124277   6.813   3.480   7.715 -0.6423 -0.5669 -0.4493
  906TIP3    H224278   6.813   3.342   7.778  0.2007 -0.7528 -0.8550
  907TIP3   OH224279   5.715   1.570   0.549  0.3045  0.2682  0.0096
  907TIP3    H124280   5.638   1.611   0.588 -0.8913 -0.1914 -1.7305
  907TIP3    H224281   5.716   1.602   0.459  1.9157 -0.0933 -0.1356
  908TIP3   OH224282   2.194   5.583   2.281  0.0792  0.1914  0.1952
  908TIP3    H124283   2.253   5.585   2.356 -0.2563 -1.3055  0.5449
  908TIP3    H224284   2.135   5.509   2.299  0.7100 -0.9386 -2.0499
  909TIP3   OH224285   6.816   1.056   0.774 -0.4387  0.4063 -0.6171
  909TIP3    H124286   6.808   1.089   0.863 -0.8158  0.5290 -0.6951
  909TIP3    H224287   6.899   1.008   0.774 -0.2066  0.7990 -0.3304
  910TIP3   OH224288   5.909   0.753   1.353 -0.6038 -0.3642  0.5068
  910TIP3    H124289   5.864   0.704   1.284  0.9224 -1.2866  0.1152
  910TIP3    H224290   5.877   0.716   1.435  0.2280 -1.7705  0.2221
  911TIP3   OH224291   2.987   3.837   7.997  0.8704 -0.3237 -0.2397
  911TIP3    H124292   3.006   3.930   7.986  0.9256 -0.6150 -5.0728
  911TIP3    H224293   2.950   3.830   8.085  0.6065  4.2740  0.2712
  912TIP3   OH224294   2.727   4.581   6.952  0.2753  0.5092 -0.4776
  912TIP3    H124295   2.705   4.488   6.958 -0.3367  0.6328 -0.7499
  912TIP3    H224296   2.821   4.584   6.970  0.0144  0.0254  1.1255
  913TIP3   OH224297   4.676   1.247   7.796 -0.2893  0.0403 -0.5495
  913TIP3    H124298   4.697   1.261   7.704  0.3679  0.7388 -0.3012
  913TIP3    H224299   4.580   1.241   7.798 -0.2803 -0.6596 -1.3555
  914TIP3   OH224300   5.623   3.930   0.875  0.1626 -0.1008  0.1144
  914TIP3    H124301   5.708   3.887   0.880  0.2789  0.3049  2.4196
  914TIP3    H224302   5.643   4.024   0.875 -0.2715  0.0486  2.5714
  915TIP3   OH224303   5.543   5.717   8.023 -0.1953  0.0981 -0.5441
  915TIP3    H124304   5.553   5.672   8.107 -1.2626  1.0011  0.1095
  915TIP3    H224305   5.469   5.673   7.981  0.3798 -0.3940 -1.0492
  916TIP3   OH224306   6.159   4.660   2.913 -0.1572  0.3769  0.0096
  916TIP3    H124307   6.187   4.633   3.001  0.1364  1.3475  0.2190
  916TIP3    H224308   6.107   4.739   2.927 -1.5941 -0.4163 -0.5404
  917TIP3   OH224309   1.114   2.396   0.983 -0.1621 -0.2201  0.4936
  917TIP3    H124310   1.175   2.467   1.002 -1.2765  1.4637 -1.7577
  917TIP3    H224311   1.033   2.420   1.029 -0.0549 -0.9677  1.1128
  918TIP3   OH224312   0.719   6.520   7.680 -0.0045  0.2670  0.2645
  918TIP3    H124313   0.664   6.511   7.602  1.0328  0.4098 -0.5064
  918TIP3    H224314   0.657   6.530   7.752 -0.9851  2.0642 -0.7610
  919TIP3   OH224315   3.172   5.784   7.298  0.3125  0.3178  0.6237
  919TIP3    H124316   3.241   5.819   7.355  1.3805  1.6394 -1.3891
  919TIP3    H224317   3.091   5.803   7.345  1.2081 -0.1441  2.4591
  920TIP3   OH224318   6.726   3.842   8.280  0.4038  0.3149 -0.0175
  920TIP3    H124319   6.721   3.910   8.213 -1.2921  1.5632  1.2864
  920TIP3    H224320   6.803   3.865   8.332  1.9076 -0.8289 -1.6183
  921TIP3   OH224321   4.098   3.967   2.834  0.6165 -0.3698  0.3545
  921TIP3    H124322   4.028   3.943   2.894 -0.3456 -0.4899 -0.7702
  921TIP3    H224323   4.175   3.922   2.867 -0.1569 -1.3852  0.8278
  922TIP3   OH224324   0.858   4.462   8.220  0.0496 -0.3312 -0.3683
  922TIP3    H124325   0.895   4.524   8.282 -1.0984  2.5972 -2.3731
  922TIP3    H224326   0.865   4.506   8.135 -3.9294 -1.3830 -1.4490
  923TIP3   OH224327   3.298   4.897   8.591  0.5064  0.0329 -0.7535
  923TIP3    H124328   3.385   4.869   8.619 -0.2822  0.1030  2.0570
  923TIP3    H224329   3.291   4.988   8.620 -0.2021  0.3147 -1.7495
  924TIP3   OH224330   6.125   3.840   1.790  0.3341  0.1047 -0.2499
  924TIP3    H124331   6.204   3.792   1.817 -0.6318 -1.3701  0.0787
  924TIP3    H224332   6.053   3.790   1.827 -0.7927  1.2279 -0.8475
  925TIP3   OH224333   1.096   0.005   0.104 -0.1560 -0.0550 -0.0502
  925TIP3    H124334   1.164  -0.012   0.170  0.3763  1.4823 -0.1476
  925TIP3    H224335   1.087   0.100   0.105 -1.1499 -0.1282 -1.2175
  926TIP3   OH224336   3.726   0.248   6.901  0.4216  0.2814 -1.1151
  926TIP3    H124337   3.783   0.312   6.858 -0.3064  2.1178  0.4811
  926TIP3    H224338   3.641   0.259   6.858  0.6135 -0.5940 -1.7358
  927TIP3   OH224339   4.309   6.390   0.965  0.6146  0.4377  0.3239
  927TIP3    H124340   4.340   6.431   1.045 -1.1021  1.9106  0.3112
  927TIP3    H224341   4.245   6.325   0.994  0.5387  0.4481  0.1824
  928TIP3   OH224342   1.163   3.366   1.534  0.0614 -0.0786  0.0461
  928TIP3    H124343   1.095   3.373   1.466  0.3192 -1.4726 -0.3871
  928TIP3    H224344   1.140   3.434   1.598 -0.4551  0.9597 -1.1971
  929TIP3   OH224345   3.256   2.409   6.763 -0.0540 -0.7106  0.0219
  929TIP3    H124346   3.291   2.322   6.745 -0.3171 -0.5890 -1.1011
  929TIP3    H224347   3.332   2.460   6.792 -0.0738 -1.5662  1.7087
  930TIP3   OH224348   0.891   3.515   7.994  0.2811  0.3808 -0.8708
  930TIP3    H124349   0.901   3.605   8.026  0.5475 -1.3348  5.1554
  930TIP3    H224350   0.980   3.490   7.968  1.1960  0.7479  1.5896
  931TIP3   OH224351   4.115   6.541   0.005 -0.0905  0.1141 -0.2814
  931TIP3    H124352   4.040   6.584  -0.037 -0.5933  0.1400  0.6299
  931TIP3    H224353   4.167   6.613   0.038  0.9258  0.1497 -1.8453
  932TIP3   OH224354   4.027   5.828   1.513  0.6567  0.3242 -0.4090
  932TIP3    H124355   4.048   5.873   1.595 -0.2514 -0.8805  0.5218
  932TIP3    H224356   4.096   5.855   1.453  0.3276  2.7124  0.1689
  933TIP3   OH224357   5.584   5.681   2.181 -0.6594  0.1822 -0.4748
  933TIP3    H124358   5.592   5.612   2.247  0.0858  0.6843 -0.0174
  933TIP3    H224359   5.536   5.641   2.109 -0.8857 -0.5846  0.0909
  934TIP3   OH224360   5.560   4.311   7.733  0.4109 -0.7199 -0.7665
  934TIP3    H124361   5.465   4.303   7.740  0.4595 -1.4294 -0.8053
  934TIP3    H224362   5.592   4.281   7.819  0.6296 -1.2700 -1.0352
  935TIP3   OH224363   6.631   6.097   1.080  0.2247 -0.5483 -0.4161
  935TIP3    H124364   6.561   6.162   1.071 -1.2191 -1.9433  0.3339
  935TIP3    H224365   6.690   6.116   1.008 -1.3054  0.2197 -1.5281
  936TIP3   OH224366   5.763   1.640   2.045 -0.4520 -0.4782  0.2792
  936TIP3    H124367   5.729   1.576   1.982  1.1399 -0.9399 -0.1659
  936TIP3    H224368   5.782   1.588   2.123 -0.2641 -0.3487  0.3222
  937TIP3   OH224369   2.916   6.365   1.721 -0.1225  0.1590 -0.5331
  937TIP3    H124370   2.863   6.397   1.794  0.6851 -0.4458  0.3320
  937TIP3    H224371   2.941   6.444   1.674 -1.5101  0.4811 -0.7759
  938TIP3   OH224372   1.963   6.708   8.492 -0.3038 -0.0369  0.2562
  938TIP3    H124373   2.006   6.724   8.576 -1.6801 -0.1019  1.0189
  938TIP3    H224374   1.929   6.793   8.465 -0.5163 -0.1525  0.1510
  939TIP3   OH224375   1.924   6.326   0.358 -0.6957  0.0694  0.6427
  939TIP3    H124376   1.885   6.265   0.420  1.6986 -0.1912  2.0199
  939TIP3    H224377   1.856   6.391   0.341 -2.5294 -1.6865  0.9126
  940TIP3   OH224378   5.585   3.288   7.496  0.2730  0.6641 -0.3332
  940TIP3    H124379   5.604   3.212   7.442  0.5726  0.6423 -0.1978
  940TIP3    H224380   5.670   3.327   7.516  0.1278  0.9922 -0.3382
  941TIP3   OH224381   6.380   5.927   3.024  0.6672  0.3286 -0.3044
  941TIP3    H124382   6.409   6.009   3.064 -0.0428  0.8880 -0.9139
  941TIP3    H224383   6.408   5.934   2.933 -0.7613  0.5939 -0.7434
  942TIP3   OH224384   5.780   4.722   6.731  0.3392 -0.5394  0.0020
  942TIP3    H124385   5.782   4.663   6.655  3.0912 -2.6093  1.4876
  942TIP3    H224386   5.872   4.744   6.746 -0.1614  0.0820  2.5084
  943TIP3   OH224387   5.763   2.991   0.644 -0.4648  0.4112 -0.3973
  943TIP3    H124388   5.750   2.903   0.609  0.5821  0.4624 -0.9517
  943TIP3    H224389   5.685   3.039   0.619 -1.0192 -0.3400 -0.1460
  944TIP3   OH224390   2.786   4.737   8.027 -0.0433  0.1840 -0.2290
  944TIP3    H124391   2.827   4.702   7.948 -0.1997  0.4773 -0.4445
  944TIP3    H224392   2.849   4.801   8.060 -1.0678  1.9895 -1.5796
  945TIP3   OH224393   3.536   1.337   1.297 -0.2991 -0.0529 -0.7494
  945TIP3    H124394   3.456   1.363   1.343  0.2208  0.2892 -0.0239
  945TIP3    H224395   3.512   1.343   1.205 -1.6695 -1.7234 -0.5583
  946TIP3   OH224396   4.296   1.398   8.083 -0.0080  0.0629 -0.1832
  946TIP3    H124397   4.373   1.399   8.141 -1.1786  0.7422  1.4485
  946TIP3    H224398   4.255   1.484   8.097 -0.9494 -0.2059 -1.1862
  947TIP3   OH224399   1.043   0.996   1.879 -0.1695  0.4154 -0.0774
  947TIP3    H124400   1.083   0.948   1.951 -0.5736  1.9894  1.2428
  947TIP3    H224401   1.011   0.927   1.820  1.7233 -0.8893  0.3271
  948TIP3   OH224402   0.565   2.628   1.695  0.1215  0.3313 -0.2823
  948TIP3    H124403   0.524   2.545   1.671 -0.3958 -0.2486  2.2797
  948TIP3    H224404   0.649   2.603   1.735  0.4439  1.1219 -0.4437
  949TIP3   OH224405   3.326   6.538   7.255  0.0997 -0.4736  0.0782
  949TIP3    H124406   3.398   6.561   7.312  0.8423 -0.4410 -0.8503
  949TIP3    H224407   3.317   6.443   7.264  0.6037 -0.5497 -0.1837
  950TIP3   OH224408   0.291   2.894   2.908  0.0644  0.6363 -0.3827
  950TIP3    H124409   0.202   2.913   2.879 -0.2490 -0.7003 -0.3742
  950TIP3    H224410   0.280   2.825   2.974  1.0527  0.9901  0.1745
  951TIP3   OH224411   4.412   6.605   2.713  0.7039  0.0286  0.2114
  951TIP3    H124412   4.439   6.692   2.743  0.6225  0.2065 -0.2267
  951TIP3    H224413   4.466   6.589   2.636  1.6154 -0.8407  1.0045
  952TIP3   OH224414   6.399   6.168   1.934  0.0103  1.1031  0.7206
  952TIP3    H124415   6.482   6.168   1.887 -0.2696 -0.0978  0.2046
  952TIP3    H224416   6.333   6.175   1.865 -0.3892 -0.3225  0.9390
  953TIP3   OH224417   1.491   1.687   2.187 -0.4074 -0.5023  0.0552
  953TIP3    H124418   1.404   1.660   2.216 -1.4659  1.5842 -0.9283
  953TIP3    H224419   1.551   1.644   2.246 -2.2599  0.3914  2.7770
  954TIP3   OH224420   0.329   4.242   2.226  0.1572  0.5775  0.6811
  954TIP3    H124421   0.377   4.265   2.306  0.3890 -1.8943  1.3260
  954TIP3    H224422   0.237   4.247   2.251  0.2357 -0.7494  1.3226
  955TIP3   OH224423   3.531   1.895   1.318 -0.0322 -0.0655 -0.3959
  955TIP3    H124424   3.611   1.866   1.362 -0.2495 -1.2414 -0.7228
  955TIP3    H224425   3.542   1.989   1.308  0.4566  0.0859  1.2540
  956TIP3   OH224426   4.170   1.846   8.208  0.6470  0.2355  0.5712
  956TIP3    H124427   4.253   1.827   8.253 -0.1837 -0.0562  2.0557
  956TIP3    H224428   4.170   1.940   8.195  0.0155  0.6871  3.1907
  957TIP3   OH224429   6.565   0.142   1.008 -0.3714 -0.0971 -0.5233
  957TIP3    H124430   6.527   0.056   1.025  0.3010 -0.3168 -0.0852
  957TIP3    H224431   6.597   0.171   1.093  2.8044 -1.0774 -1.2293
  958TIP3   OH224432   1.519   4.632   8.084 -0.1893  0.3758  0.0889
  958TIP3    H124433   1.558   4.590   8.161  0.4594 -1.5275 -1.1737
  958TIP3    H224434   1.584   4.697   8.057 -0.5964  1.3407  1.3244
  959TIP3   OH224435   1.102   6.001   0.307 -0.2826  0.0646 -0.0812
  959TIP3    H124436   1.112   6.058   0.383 -1.4682 -1.6166  1.4359
  959TIP3    H224437   1.017   6.025   0.270 -1.3213 -1.3595  1.2354
  960TIP3   OH224438   0.422   6.146   8.465  0.7974 -0.2325  0.1741
  960TIP3    H124439   0.345   6.157   8.409  0.8600 -0.7137 -0.0046
  960TIP3    H224440   0.472   6.227   8.452  1.4573 -0.8804 -1.4694
  961TIP3   OH224441   0.517   5.485   0.997  0.0624 -0.0765  0.1359
  961TIP3    H124442   0.524   5.424   0.925 -0.6617 -0.3738  0.3096
  961TIP3    H224443   0.604   5.485   1.038  0.5448  0.2654 -0.8521
  962TIP3   OH224444   0.172   1.254   0.326 -0.1294 -0.3378  0.4608
  962TIP3    H124445   0.148   1.169   0.363 -0.2341 -0.4781  0.0780
  962TIP3    H224446   0.231   1.292   0.391 -0.6595 -0.3842  0.9805
  963TIP3   OH224447   2.716   3.339   2.482 -0.2660  0.2173  0.4234
  963TIP3    H124448   2.737   3.261   2.533  1.7766 -0.8253 -1.7840
  963TIP3    H224449   2.712   3.410   2.546 -0.5919 -1.4335  2.3023
  964TIP3   OH224450   6.127   6.730   2.269 -0.1151  0.4370 -0.4682
  964TIP3    H124451   6.221   6.744   2.271 -0.1886  0.8205  1.1704
  964TIP3    H224452   6.114   6.646   2.314 -0.6136  0.7423 -0.0346
  965TIP3   OH224453   1.798   2.912   2.131  0.0752 -0.2322 -0.1056
  965TIP3    H124454   1.736   2.980   2.105  0.2941  0.1796  0.4238
  965TIP3    H224455   1.857   2.956   2.193  0.9888 -0.5725 -0.7158
  966TIP3   OH224456   2.360   4.921   7.588  0.0090  0.3846  0.2632
  966TIP3    H124457   2.335   4.855   7.652  0.6973 -1.4656 -1.2784
  966TIP3    H224458   2.303   4.904   7.513  4.0547 -2.6663 -2.5796
  967TIP3   OH224459   4.800   0.487   0.324 -0.0854 -0.2063 -0.2516
  967TIP3    H124460   4.766   0.400   0.306  0.9560 -0.3010 -2.0310
  967TIP3    H224461   4.890   0.485   0.290 -0.7648  2.2198 -2.5157
  968TIP3   OH224462   1.915   4.751   8.162  0.3770  0.2861  0.2349
  968TIP3    H124463   2.004   4.765   8.131  0.4662  2.1357  1.1773
  968TIP3    H224464   1.916   4.663   8.200  0.4382 -1.8177 -4.0903
  969TIP3   OH224465   3.831   2.122   8.556  0.2760 -0.0156 -0.3489
  969TIP3    H124466   3.809   2.102   8.465  2.1541  1.7490 -1.2825
  969TIP3    H224467   3.918   2.085   8.569  0.7079  1.1417  0.1903
  970TIP3   OH224468   4.362   0.477   0.247  0.0166  0.0003  0.5004
  970TIP3    H124469   4.430   0.545   0.236 -0.4746  0.2471 -1.1539
  970TIP3    H224470   4.380   0.414   0.178 -0.0438 -1.1601  1.5192
  971TIP3   OH224471   4.640   1.982   0.097  0.3134  0.3400 -0.3301
  971TIP3    H124472   4.662   2.074   0.115  0.9655  0.0624  0.3639
  971TIP3    H224473   4.575   1.986   0.027 -0.7048  1.3910  0.6347
  972TIP3   OH224474   3.058   2.606   1.939 -0.8495 -0.7301 -0.7042
  972TIP3    H124475   3.024   2.535   1.994 -0.5033 -0.1511  0.3028
  972TIP3    H224476   3.010   2.599   1.857 -1.6689 -1.3905 -0.1811
  973TIP3   OH224477   4.078   6.116   0.028  0.2626  0.0318 -0.0308
  973TIP3    H124478   4.106   6.202   0.058  0.2457 -0.5894  1.8852
  973TIP3    H224479   4.026   6.134  -0.051  0.6286  1.7224  0.0742
  974TIP3   OH224480   0.591   2.048   1.442 -0.6622  0.3269  0.4327
  974TIP3    H124481   0.660   2.115   1.439  0.8421 -1.1421  0.5311
  974TIP3    H224482   0.635   1.968   1.414 -2.2190 -0.7878  1.0466
  975TIP3   OH224483   6.726   0.376   2.192  0.4938  0.4185 -0.3939
  975TIP3    H124484   6.729   0.439   2.264  0.4518 -0.6308  0.5566
  975TIP3    H224485   6.676   0.420   2.123  0.3715  1.3672  0.2849
  976TIP3   OH224486   4.940   2.436   1.254  0.0832 -0.1941  0.7822
  976TIP3    H124487   4.901   2.506   1.307  0.4153 -0.2992  1.1685
  976TIP3    H224488   4.892   2.357   1.279 -1.6299  0.1755 -1.0492
  977TIP3   OH224489   3.582   5.483   2.399 -0.7758 -0.0707 -0.6993
  977TIP3    H124490   3.500   5.527   2.422 -1.9856 -1.7096 -1.6271
  977TIP3    H224491   3.591   5.414   2.465  0.8144  1.1636  0.4314
  978TIP3   OH224492   1.093   6.328   0.173 -0.6056  0.2033  0.0045
  978TIP3    H124493   1.079   6.415   0.211  0.7892  0.5698 -0.2558
  978TIP3    H224494   1.019   6.276   0.203 -0.7581  1.1207  1.2772
  979TIP3   OH224495   3.562   6.088   7.325  0.6123 -0.1608  0.0058
  979TIP3    H124496   3.495   6.051   7.268 -0.7832  0.0996  1.4083
  979TIP3    H224497   3.621   6.015   7.344  1.7534 -0.0213 -2.5542
  980TIP3   OH224498   1.256   6.136   1.029 -0.6503  0.1614 -0.2546
  980TIP3    H124499   1.207   6.076   0.973  0.5344 -1.0428 -0.0473
  980TIP3    H224500   1.298   6.080   1.094  0.9092  1.1429 -0.3581
  981TIP3   OH224501   3.710   2.731   1.368  0.4819 -0.2406  0.1633
  981TIP3    H124502   3.694   2.723   1.462 -0.8126  0.7867  0.0740
  981TIP3    H224503   3.759   2.653   1.345  0.6439 -0.6133  1.6567
  982TIP3   OH224504   0.829   2.312   8.494  0.4089  0.0997  0.7123
  982TIP3    H124505   0.866   2.323   8.406  2.2594 -1.1715  1.2809
  982TIP3    H224506   0.773   2.389   8.505  2.7817  2.1380 -0.2908
  983TIP3   OH224507   4.161   5.743   7.820  0.0115 -0.0283  0.2120
  983TIP3    H124508   4.118   5.820   7.783  0.2906 -0.3205 -0.7543
  983TIP3    H224509   4.131   5.740   7.911 -1.8669 -0.1029 -0.3562
  984TIP3   OH224510   5.655   2.940   7.114 -0.6993  0.3290 -0.1216
  984TIP3    H124511   5.719   2.889   7.064 -0.2167  0.1130  0.7037
  984TIP3    H224512   5.620   2.878   7.178 -0.6835  0.8260  0.3696
  985TIP3   OH224513   1.695   0.470   0.821  0.7709  0.3963 -0.0928
  985TIP3    H124514   1.729   0.392   0.866 -1.2583 -0.7588 -0.4570
  985TIP3    H224515   1.773   0.513   0.786  2.0053 -1.0984  0.6789
  986TIP3   OH224516   3.277   1.082   8.145  0.1619 -0.7902 -0.2823
  986TIP3    H124517   3.267   1.147   8.214  1.1302  0.7533 -1.5273
  986TIP3    H224518   3.206   1.100   8.083 -0.3987 -1.8431  0.0152
  987TIP3   OH224519   6.172   6.616   0.842 -0.3265  0.0041 -0.1630
  987TIP3    H124520   6.144   6.552   0.907 -0.1101  1.7641  1.7754
  987TIP3    H224521   6.199   6.564   0.766  0.2493 -2.1892  1.4666
  988TIP3   OH224522   0.647   3.564   2.033  0.1706 -0.1991 -0.5290
  988TIP3    H124523   0.732   3.540   2.070  0.2558 -0.0945 -0.6546
  988TIP3    H224524   0.651   3.532   1.943 -1.5235 -4.1015  0.5546
  989TIP3   OH224525   1.807   5.298   0.810  0.5761  0.0172 -0.8362
  989TIP3    H124526   1.885   5.305   0.865 -0.1118  1.8344 -0.0238
  989TIP3    H224527   1.805   5.379   0.760 -1.7446  0.8886  0.5252
  990TIP3   OH224528   3.564   3.270   8.019  0.1929  0.0023 -0.1439
  990TIP3    H124529   3.585   3.332   7.949 -0.7249 -0.6984 -1.0784
  990TIP3    H224530   3.548   3.187   7.973 -0.7051 -0.4085  0.8654
  991TIP3   OH224531   0.175   0.315   2.046  0.4039 -0.2352 -0.3750
  991TIP3    H124532   0.091   0.275   2.067  0.4278 -1.0642 -1.7669
  991TIP3    H224533   0.158   0.409   2.045 -0.0285 -0.2661  1.3147
  992TIP3   OH224534   0.341   5.852   2.080  0.0062  0.2589 -0.6023
  992TIP3    H124535   0.413   5.915   2.074 -0.0245  0.2892 -0.6605
  992TIP3    H224536   0.330   5.836   2.174 -0.0831  0.4534 -0.5801
  993TIP3   OH224537   3.522   2.789   2.020 -0.4613 -0.2759  0.3888
  993TIP3    H124538   3.443   2.768   1.971 -1.1184 -1.8295  2.0163
  993TIP3    H224539   3.507   2.877   2.055 -1.6678 -0.7368  1.0563
  994TIP3   OH224540   2.823   2.746   0.945  0.1093  0.0680 -0.5965
  994TIP3    H124541   2.768   2.815   0.984 -0.8479 -0.6211 -0.6760
  994TIP3    H224542   2.793   2.741   0.854  0.8272  0.1792 -0.8420
  995TIP3   OH224543   2.609   5.669   1.434  0.7022  0.5725 -0.3457
  995TIP3    H124544   2.652   5.751   1.408  1.6437  0.3427  0.4556
  995TIP3    H224545   2.668   5.600   1.405  1.4147  0.2806  1.6559
  996TIP3   OH224546   6.271   3.018   2.276 -0.0235 -0.0976  0.4897
  996TIP3    H124547   6.298   2.929   2.300 -0.5330 -0.2002  0.7040
  996TIP3    H224548   6.230   3.009   2.190  1.2641  0.1749 -0.1680
  997TIP3   OH224549   6.458   2.236   1.755  0.5500 -0.1498 -0.1665
  997TIP3    H124550   6.497   2.223   1.668 -0.4194 -2.2534 -0.3697
  997TIP3    H224551   6.368   2.262   1.737  0.2857 -0.7921  0.1899
  998TIP3   OH224552   0.602   5.270   0.885  0.0833  0.0732 -0.2668
  998TIP3    H124553   0.580   5.183   0.849 -0.0676  0.2813 -0.6851
  998TIP3    H224554   0.607   5.256   0.979  1.4611 -0.7040 -0.4235
  999TIP3   OH224555   4.483   0.384   8.650 -0.1245 -0.7985  0.0715
  999TIP3    H124556   4.532   0.307   8.678  1.1980  0.2859  0.8469
  999TIP3    H224557   4.550   0.445   8.617 -1.2770 -0.5658 -2.0362
 1000TIP3   OH224558   6.039   6.110   1.958 -0.3823  0.1755  0.0040
 1000TIP3    H124559   5.947   6.104   1.935 -0.1372  0.9155 -1.2819
 1000TIP3    H224560   6.042   6.097   2.053 -2.0540  2.3273  0.4131
 1001TIP3   OH224561   2.008   1.982   2.402 -0.1070 -0.4362 -0.1791
 1001TIP3    H124562   1.929   1.933   2.423 -0.9026  0.5476 -0.8010
 1001TIP3    H224563   2.064   1.971   2.479 -1.6836  0.5101  1.1875
 1002TIP3   OH224564   2.826   2.478   1.808 -0.1559  0.0136 -0.2609
 1002TIP3    H124565   2.795   2.422   1.879 -0.5707 -1.1393 -1.3107
 1002TIP3    H224566   2.823   2.422   1.730  0.9129  1.0401 -1.0777
 1003TIP3   OH224567   4.734   3.726   0.990  0.2021  0.0481  0.0893
 1003TIP3    H124568   4.687   3.793   1.041 -0.1758 -0.2545  0.1442
 1003TIP3    H224569   4.671   3.697   0.925  0.6145  0.2709 -0.4139
 1004TIP3   OH224570   6.122   2.885   8.286 -0.6136 -0.5567 -0.3426
 1004TIP3    H124571   6.100   2.974   8.257 -0.2186 -0.6882 -1.0835
 1004TIP3    H224572   6.180   2.898   8.361 -0.9633 -0.1918 -0.1351
 1005TIP3   OH224573   4.020   6.472   1.198  0.6443  0.6668  0.2775
 1005TIP3    H124574   3.930   6.458   1.166  0.1153  0.9943  1.5789
 1005TIP3    H224575   4.070   6.399   1.160 -0.5389 -0.5589  0.9614
 1006TIP3   OH224576   5.118   4.385   6.855  0.4630 -0.7247 -0.2993
 1006TIP3    H124577   5.184   4.321   6.828  3.2605  2.0168 -0.6163
 1006TIP3    H224578   5.147   4.467   6.815 -1.5475  1.2464  1.9486
 1007TIP3   OH224579   0.873   1.885   0.852 -0.3016 -0.3179  0.6850
 1007TIP3    H124580   0.930   1.932   0.792 -0.4994 -3.4429 -2.3203
 1007TIP3    H224581   0.795   1.940   0.859 -0.1247  0.3640 -1.7638
 1008TIP3   OH224582   4.527   1.534   7.839  0.4344 -0.2892  0.0649
 1008TIP3    H124583   4.610   1.489   7.857 -0.2873 -1.4268  0.6701
 1008TIP3    H224584   4.508   1.580   7.921  0.8705  0.6663 -0.3548
 1009TIP3   OH224585   1.748   1.693   1.673  0.8297 -0.0511  0.2979
 1009TIP3    H124586   1.702   1.662   1.751 -1.9748  1.3551 -0.6972
 1009TIP3    H224587   1.795   1.771   1.703  0.6514 -0.1296  0.7951
 1010TIP3   OH224588   4.759   2.680   1.132 -0.3756 -0.2525  0.4471
 1010TIP3    H124589   4.667   2.708   1.130  0.1016  1.3575 -1.2369
 1010TIP3    H224590   4.779   2.676   1.226 -2.2789 -1.1448  0.8783
 1011TIP3   OH224591   6.812   6.003   8.007 -0.3555 -0.5399  0.2240
 1011TIP3    H124592   6.721   6.031   8.013 -0.2104  0.1404 -0.5308
 1011TIP3    H224593   6.862   6.085   8.010  0.4650 -1.0233  3.8274
 1012TIP3   OH224594   0.447   6.013   0.814 -0.0085 -0.3347  0.1939
 1012TIP3    H124595   0.400   6.005   0.897  0.5183 -0.8481  0.4525
 1012TIP3    H224596   0.463   5.922   0.787  2.3510 -0.2218  0.9921
 1013TIP3   OH224597   2.917   1.294   1.727  0.0916  0.2776  0.2114
 1013TIP3    H124598   2.903   1.209   1.767  0.5166  0.6422  1.1800
 1013TIP3    H224599   3.012   1.302   1.720  0.0322  0.2869 -0.7597
 1014TIP3   OH224600   5.207   5.808   0.106  0.1543 -0.6191 -0.3209
 1014TIP3    H124601   5.219   5.842   0.017  0.5913 -0.1583 -0.0894
 1014TIP3    H224602   5.233   5.716   0.100  0.4707 -0.5130 -0.6042
 1015TIP3   OH224603   2.367   0.967   8.430  0.2379  0.5349 -0.4258
 1015TIP3    H124604   2.407   0.928   8.509  0.8391  1.2844 -0.3436
 1015TIP3    H224605   2.313   1.038   8.464 -0.3309  0.1992 -0.6227
 1016TIP3   OH224606   1.032   4.975   1.802 -0.4395 -0.1280  0.2253
 1016TIP3    H124607   0.954   5.028   1.789 -0.2458  0.1532  0.2065
 1016TIP3    H224608   1.099   5.016   1.747 -0.5649 -0.9902 -0.6007
 1017TIP3   OH224609   4.198   5.199   7.843  0.2145  0.5484 -0.1266
 1017TIP3    H124610   4.222   5.291   7.843 -0.8804  0.8445 -0.5013
 1017TIP3    H224611   4.103   5.198   7.852  0.2586 -0.5664  0.5724
 1018TIP3   OH224612   3.117   1.609   1.911  0.3115  0.2334 -0.4186
 1018TIP3    H124613   3.062   1.549   1.962  0.9140  1.3678  1.6830
 1018TIP3    H224614   3.150   1.556   1.839  1.4398 -2.2246  1.7347
 1019TIP3   OH224615   5.602   2.004   0.825 -0.6982 -0.4231  0.1251
 1019TIP3    H124616   5.669   1.935   0.826  0.9594  1.1360 -0.1211
 1019TIP3    H224617   5.542   1.979   0.895 -0.4326 -2.3836 -0.2799
 1020TIP3   OH224618   5.184   0.960   6.948  0.1411  0.4077  0.1885
 1020TIP3    H124619   5.093   0.929   6.945 -0.3851  1.2908  3.3197
 1020TIP3    H224620   5.182   1.044   6.903 -0.5481  0.3343  0.0660
 1021TIP3   OH224621   2.229   5.583   8.283  0.7260  0.4703 -0.0346
 1021TIP3    H124622   2.158   5.520   8.295  1.5244 -0.3698  0.3739
 1021TIP3    H224623   2.303   5.530   8.250  1.1417  1.3392 -0.5344
 1022TIP3   OH224624   6.327   3.427   1.718  0.6433 -0.4039 -0.2466
 1022TIP3    H124625   6.387   3.366   1.675  0.7690 -1.2887  1.1244
 1022TIP3    H224626   6.250   3.428   1.661  2.2833  1.6303 -2.6756
 1023TIP3   OH224627   4.129   6.424   7.997  0.2420  0.9671  0.0593
 1023TIP3    H124628   4.126   6.506   7.947 -1.0496  1.4939  0.9383
 1023TIP3    H224629   4.125   6.452   8.089  2.2127  0.0122  0.4844
 1024TIP3   OH224630   5.607   4.524   1.065  1.0273  0.1182 -0.0094
 1024TIP3    H124631   5.615   4.435   1.100 -3.0648 -0.8669 -1.0440
 1024TIP3    H224632   5.565   4.574   1.136  1.9170  0.8312  0.0254
 1025TIP3   OH224633   4.868   0.269   8.126 -0.0811 -0.2263 -0.6753
 1025TIP3    H124634   4.826   0.329   8.064 -1.0365  0.5736  0.6851
 1025TIP3    H224635   4.808   0.194   8.131 -0.8189  0.4031  0.4023
 1026TIP3   OH224636   3.860   5.454   7.186  0.4672 -0.4460 -0.1302
 1026TIP3    H124637   3.778   5.464   7.138  1.1027 -0.8410 -1.3171
 1026TIP3    H224638   3.902   5.540   7.181  0.1511 -0.2528  0.4499
 1027TIP3   OH224639   5.579   6.776   0.082 -0.1116 -0.0801 -0.0707
 1027TIP3    H124640   5.668   6.749   0.061 -0.3695 -0.9966 -0.0095
 1027TIP3    H224641   5.588   6.832   0.159  0.5699  1.1323 -0.9947
 1028TIP3   OH224642   2.334   2.812   0.414 -0.9566 -0.4288  0.1926
 1028TIP3    H124643   2.408   2.872   0.412 -0.2719 -1.2809 -1.2485
 1028TIP3    H224644   2.338   2.771   0.501  1.2581 -1.6466 -0.4253
 1029TIP3   OH224645   3.904   3.927   8.464  0.0751  0.1271  0.1028
 1029TIP3    H124646   3.876   3.919   8.373  0.2698 -0.3323  0.0774
 1029TIP3    H224647   3.824   3.911   8.515  0.1511 -0.5469  0.0218
 1030TIP3   OH224648   6.219   5.740   6.533 -0.2211 -0.1332  0.5391
 1030TIP3    H124649   6.275   5.675   6.491 -1.7747 -1.0108 -0.2143
 1030TIP3    H224650   6.217   5.814   6.472 -0.7974 -0.5667  0.0258
 1031TIP3   OH224651   3.182   1.346   1.692  0.0104 -0.6292  0.0503
 1031TIP3    H124652   3.225   1.291   1.626  1.6181  1.3648 -0.6624
 1031TIP3    H224653   3.232   1.329   1.773  0.0205 -0.7617  0.0172
 1032TIP3   OH224654   1.385   6.864   2.619 -0.2013  0.1429 -0.1085
 1032TIP3    H124655   1.371   6.836   2.709 -0.0786  0.1239 -0.0961
 1032TIP3    H224656   1.465   6.916   2.622  2.4856 -3.5321 -0.9604
 1033TIP3   OH224657   6.413   5.230   2.504  0.2038  0.5722  0.3511
 1033TIP3    H124658   6.419   5.190   2.417  3.2222  0.8734  0.2968
 1033TIP3    H224659   6.361   5.309   2.491  1.4168  1.1339 -1.4558
 1034TIP3   OH224660   0.643   5.424   6.959 -0.4366  0.5917 -0.1992
 1034TIP3    H124661   0.635   5.344   6.908  2.1419  0.2819 -0.2625
 1034TIP3    H224662   0.586   5.410   7.035  2.6099 -3.0410  1.7471
 1035TIP3   OH224663   3.305   6.076   7.641 -0.1019 -0.6304 -0.1132
 1035TIP3    H124664   3.250   6.109   7.570 -0.5082 -2.6461 -0.8010
 1035TIP3    H224665   3.242   6.041   7.705  0.2785  0.6850  1.0133
 1036TIP3   OH224666   4.365   0.027   2.502 -0.6042  0.2483 -0.1953
 1036TIP3    H124667   4.449   0.011   2.459  0.1812  1.9771  0.5844
 1036TIP3    H224668   4.382   0.014   2.595 -1.3959 -0.1229 -0.0986
 1037TIP3   OH224669   6.629   3.113   0.277  0.0198  0.3544 -0.4402
 1037TIP3    H124670   6.610   3.187   0.333 -0.2198 -0.5707  0.7352
 1037TIP3    H224671   6.591   3.136   0.192 -0.8255  1.1841  0.1546
 1038TIP3   OH224672   1.337   0.767   2.437  0.5019  0.2449 -0.3451
 1038TIP3    H124673   1.332   0.847   2.384  0.3416 -0.3649 -1.2862
 1038TIP3    H224674   1.366   0.700   2.375 -1.6041 -0.9260 -0.1307
 1039TIP3   OH224675   1.379   4.762   0.045 -0.3651 -0.4055 -0.5577
 1039TIP3    H124676   1.305   4.771   0.105 -0.7689 -0.8463 -0.9818
 1039TIP3    H224677   1.339   4.742  -0.039  0.2683 -1.4234 -0.6285
 1040TIP3   OH224678   2.258   6.369   8.085 -0.3777  0.1928  0.4840
 1040TIP3    H124679   2.220   6.430   8.022  0.4331  0.6703  0.4367
 1040TIP3    H224680   2.183   6.329   8.128 -0.9522 -0.0784 -0.7131
 1041TIP3   OH224681   1.906   5.985   8.237 -0.1403  0.3523 -0.0190
 1041TIP3    H124682   1.924   5.900   8.275  0.0818  0.5586  0.3399
 1041TIP3    H224683   1.810   5.990   8.233 -0.2234  0.9549  1.9487
 1042TIP3   OH224684   5.211   1.187   1.113 -0.4338  0.0112 -0.1875
 1042TIP3    H124685   5.276   1.118   1.099  0.8520  0.5513  2.5550
 1042TIP3    H224686   5.215   1.239   1.032  2.2990 -0.2123 -0.3152
 1043TIP3   OH224687   3.473   1.845   7.170 -0.0386  0.1070  0.1482
 1043TIP3    H124688   3.563   1.813   7.175  0.2379  0.5152 -1.6011
 1043TIP3    H224689   3.472   1.903   7.094 -1.8680 -0.2018 -0.1185
 1044TIP3   OH224690   3.167   0.566   0.540 -0.6407 -0.1555  1.4169
 1044TIP3    H124691   3.072   0.577   0.550 -1.0282 -1.6855 -0.0568
 1044TIP3    H224692   3.183   0.474   0.561  0.1458 -0.5101 -0.4875
 1045TIP3   OH224693   5.857   0.839   2.206 -0.0509  0.5322 -0.0994
 1045TIP3    H124694   5.928   0.844   2.271 -0.6459  0.2275  0.5925
 1045TIP3    H224695   5.790   0.898   2.239 -0.9219 -0.6398  0.2992
 1046TIP3   OH224696   1.173   5.036   8.578 -0.4834 -0.0586  0.3194
 1046TIP3    H124697   1.161   5.106   8.514 -2.2806 -0.4364  0.2010
 1046TIP3    H224698   1.178   5.082   8.662  0.1152  0.3177  0.0862
 1047TIP3   OH224699   0.444   5.526   1.578 -0.0083  0.6955 -0.2219
 1047TIP3    H124700   0.472   5.501   1.490  0.8254 -2.4622  0.8118
 1047TIP3    H224701   0.349   5.513   1.577  0.2434 -1.5686 -0.1050
 1048TIP3   OH224702   5.995   5.216   0.098 -0.3202 -0.1875 -0.0639
 1048TIP3    H124703   6.040   5.139   0.133  0.3727  0.4231  0.4408
 1048TIP3    H224704   6.041   5.290   0.138  0.1948  0.5379 -1.9250
 1049TIP3   OH224705   3.364   0.484   0.835 -0.8314  0.6481  0.2184
 1049TIP3    H124706   3.451   0.508   0.807 -1.1975  0.9869 -0.6468
 1049TIP3    H224707   3.371   0.476   0.931  0.7588 -1.8589 -0.0144
 1050TIP3   OH224708   2.899   5.103   8.086 -0.2762 -0.0174 -0.3155
 1050TIP3    H124709   2.928   5.182   8.131  0.7062 -0.1960 -0.6152
 1050TIP3    H224710   2.899   5.035   8.153 -1.4869  0.2926  0.0322
 1051TIP3   OH224711   4.587   5.285   7.440  0.5252 -0.8056 -0.0072
 1051TIP3    H124712   4.498   5.250   7.443 -0.3621  1.1231 -1.5933
 1051TIP3    H224713   4.599   5.328   7.524 -0.8274  0.5806 -0.4781
 1052TIP3   OH224714   0.130   4.314   8.076  0.4042 -0.1141  0.7362
 1052TIP3    H124715   0.143   4.238   8.132  0.0877 -0.9772 -0.3160
 1052TIP3    H224716   0.036   4.316   8.059  0.5537 -0.2234 -0.2041
 1053TIP3   OH224717   6.621   1.393   2.560 -0.5295  0.7418  0.3945
 1053TIP3    H124718   6.527   1.377   2.566 -0.3508 -0.6516 -0.1265
 1053TIP3    H224719   6.648   1.413   2.649 -1.3771  1.5731  0.4769
 1054TIP3   OH224720   3.721   2.924   6.850 -0.6199 -0.9463 -0.3462
 1054TIP3    H124721   3.691   2.993   6.789 -0.6945  0.5667  1.3153
 1054TIP3    H224722   3.645   2.906   6.905 -0.3810 -1.8653 -0.3028
 1055TIP3   OH224723   1.005   3.923   2.950 -0.6406  0.6307 -0.5827
 1055TIP3    H124724   1.033   3.832   2.961 -0.9032  0.4213 -1.5194
 1055TIP3    H224725   1.064   3.959   2.883  1.4749  2.1046  1.8994
 1056TIP3   OH224726   1.290   0.812   3.129  0.1905 -0.2416  0.2577
 1056TIP3    H124727   1.196   0.808   3.149  0.0212 -0.2948 -0.5365
 1056TIP3    H224728   1.310   0.906   3.126  0.0178 -0.2217 -0.2465
 1057TIP3   OH224729   5.593   4.380   7.158 -0.0480  0.1973 -0.3683
 1057TIP3    H124730   5.562   4.356   7.070 -0.0248 -0.4195 -0.2163
 1057TIP3    H224731   5.594   4.297   7.206  1.0234  0.3394 -0.1145
 1058TIP3   OH224732   6.235   0.045   1.169 -0.4946  0.1603  0.2547
 1058TIP3    H124733   6.279   0.124   1.202 -0.8683  0.1374  0.8215
 1058TIP3    H224734   6.169   0.026   1.235 -1.2985  0.1448 -0.5417
 1059TIP3   OH224735   0.006   0.828   8.563 -0.0161  0.1040 -0.2172
 1059TIP3    H124736   0.100   0.818   8.551 -0.3345 -0.9777 -2.2868
 1059TIP3    H224737  -0.012   0.919   8.542  0.6084  0.4915  0.8284
 1060TIP3   OH224738   0.688   1.293   1.450  0.2290  0.2793  0.2142
 1060TIP3    H124739   0.618   1.315   1.511 -0.5736  0.9340 -0.9014
 1060TIP3    H224740   0.756   1.359   1.467 -0.9179  1.8738 -1.0565
 1061TIP3   OH224741   2.859   2.122   8.564  0.2366  0.7295 -0.2187
 1061TIP3    H124742   2.885   2.200   8.514 -0.1148  0.3179 -1.0745
 1061TIP3    H224743   2.763   2.121   8.558  0.2508  0.1041 -0.4332
 1062TIP3   OH224744   0.938   5.522   8.309 -0.0914  0.4061  0.7016
 1062TIP3    H124745   0.924   5.507   8.402  0.5581  1.8932  1.0693
 1062TIP3    H224746   0.962   5.615   8.303 -0.1302  0.3378 -0.9452
 1063TIP3   OH224747   1.662   3.775   1.216  0.3555  0.2844 -0.2068
 1063TIP3    H124748   1.728   3.844   1.222  0.6418 -0.1117  1.7603
 1063TIP3    H224749   1.711   3.696   1.195  0.3222  0.2544 -0.1733
 1064TIP3   OH224750   0.357   4.012   1.383 -0.1523  0.4018 -0.0893
 1064TIP3    H124751   0.283   4.072   1.382 -0.8947 -0.4110  1.8936
 1064TIP3    H224752   0.355   3.972   1.469  1.2019 -1.3964 -0.8212
 1065TIP3   OH224753   0.350   5.966   8.046  0.3231  0.1305  0.2288
 1065TIP3    H124754   0.285   6.015   8.097 -2.6162 -1.4184 -1.7065
 1065TIP3    H224755   0.337   5.875   8.072  0.2248 -0.4491 -1.6892
 1066TIP3   OH224756   3.320   4.124   8.537  0.5271  0.3898  0.0390
 1066TIP3    H124757   3.285   4.190   8.478 -2.5544 -1.2559 -0.2016
 1066TIP3    H224758   3.379   4.072   8.482 -1.7405 -0.6761 -1.5659
 1067TIP3   OH224759   2.630   5.009   1.291  0.0759 -0.9123  0.1533
 1067TIP3    H124760   2.640   5.088   1.344 -0.7707 -0.7965  0.1592
 1067TIP3    H224761   2.665   4.938   1.345  0.6800 -0.5699  0.2171
 1068TIP3   OH224762   0.950   4.195   8.169 -0.1163 -0.4515 -0.2127
 1068TIP3    H124763   0.917   4.158   8.251  0.5252  1.0036  0.7294
 1068TIP3    H224764   0.918   4.285   8.168 -0.7027 -0.6387 -1.9273
 1069TIP3   OH224765   1.832   5.018   8.306  0.1180 -0.4239  0.0179
 1069TIP3    H124766   1.853   4.925   8.307 -1.2935 -0.9284  4.2303
 1069TIP3    H224767   1.906   5.059   8.352 -0.0667  0.3091 -0.3259
 1070TIP3   OH224768   3.270   4.106   7.991  0.2254  0.5802  0.4321
 1070TIP3    H124769   3.249   4.032   8.049  1.0007  0.5814  0.7205
 1070TIP3    H224770   3.302   4.174   8.049  0.7357  0.6853  0.0376
 1071TIP3   OH224771   4.125   5.712   1.118 -0.1525  0.0257 -0.7172
 1071TIP3    H124772   4.091   5.790   1.075 -1.7749 -0.2595 -0.0148
 1071TIP3    H224773   4.214   5.703   1.084  0.6575  3.0261  0.2610
 1072TIP3   OH224774   6.661   6.584   1.956  0.3737  0.1724 -0.3428
 1072TIP3    H124775   6.709   6.502   1.960 -0.6008 -0.4873 -1.3431
 1072TIP3    H224776   6.684   6.621   1.870  1.0473  1.1138  0.2247
 1073TIP3   OH224777   5.313   4.134   8.611 -0.7188  0.7475 -0.3813
 1073TIP3    H124778   5.228   4.117   8.652 -0.1302 -2.2078 -0.1715
 1073TIP3    H224779   5.375   4.137   8.685 -0.0959 -1.4098 -0.7648
 1074TIP3   OH224780   6.757   2.569   2.392  0.0472 -0.1861  0.1143
 1074TIP3    H124781   6.832   2.623   2.369  0.2029 -0.6641 -0.5233
 1074TIP3    H224782   6.790   2.510   2.460  0.4836 -0.9456 -0.7423
 1075TIP3   OH224783   4.152   1.661   1.541  0.2676  0.8769 -0.0473
 1075TIP3    H124784   4.181   1.602   1.471 -1.1519 -0.0351  0.0952
 1075TIP3    H224785   4.089   1.610   1.591 -1.2357  2.6089 -0.0736
 1076TIP3   OH224786   3.455   6.238   1.341 -0.2492 -0.5395 -0.0231
 1076TIP3    H124787   3.461   6.175   1.269 -0.2515 -2.4736  1.5784
 1076TIP3    H224788   3.378   6.291   1.320  0.8890  0.3105 -2.4147
 1077TIP3   OH224789   6.531   5.283   8.648 -0.3335  0.4191 -0.2807
 1077TIP3    H124790   6.582   5.312   8.572  0.5285  0.0139  0.1225
 1077TIP3    H224791   6.468   5.220   8.612  1.0967 -0.9710 -0.4763
 1078TIP3   OH224792   1.741   0.581   0.429 -0.2583  0.0401 -0.2222
 1078TIP3    H124793   1.679   0.509   0.444 -0.8450  0.3577 -1.0493
 1078TIP3    H224794   1.787   0.556   0.349  1.2420 -0.5546  0.7866
 1079TIP3   OH224795   0.896   4.273   8.520  0.4726  0.5472  0.0707
 1079TIP3    H124796   0.837   4.245   8.590  0.7442  0.1384  0.1334
 1079TIP3    H224797   0.859   4.356   8.491 -1.7913 -1.0159 -1.8258
 1080TIP3   OH224798   3.946   5.772   8.563 -0.9549  0.2205  0.1929
 1080TIP3    H124799   3.938   5.730   8.649  0.0810  2.5791  1.5500
 1080TIP3    H224800   3.890   5.849   8.569  0.5876  1.4390 -0.5192
 1081TIP3   OH224801   5.099   0.323   0.459 -0.3601 -0.5016  0.2683
 1081TIP3    H124802   5.074   0.414   0.474 -0.1479 -0.6020  1.2983
 1081TIP3    H224803   5.044   0.273   0.519 -2.1542 -1.2951 -1.9057
 1082TIP3   OH224804   4.577   0.205   8.284 -0.0529  0.2226 -0.1670
 1082TIP3    H124805   4.546   0.136   8.343 -1.7323  0.2793 -0.9189
 1082TIP3    H224806   4.577   0.164   8.197 -2.4937  1.4875 -0.8640
 1083TIP3   OH224807   4.155   0.381   0.415  0.4005  0.0716  0.4115
 1083TIP3    H124808   4.206   0.411   0.340  0.6183 -0.7803  0.2061
 1083TIP3    H224809   4.088   0.448   0.427 -0.2831 -0.2768 -1.1967
 1084TIP3   OH224810   6.393   3.705   0.330 -0.5670  0.3024  0.0955
 1084TIP3    H124811   6.473   3.683   0.282 -1.5086 -3.3738 -0.0927
 1084TIP3    H224812   6.350   3.770   0.275  2.0109  2.1398  0.0360
 1085TIP3   OH224813   5.464   0.970   7.094  0.5058 -0.0625 -0.0887
 1085TIP3    H124814   5.428   1.058   7.098  0.4336 -0.0366 -1.0729
 1085TIP3    H224815   5.520   0.970   7.016  0.4351 -0.9112 -0.1485
 1086TIP3   OH224816   4.625   5.121   8.341  0.1991  0.2303 -0.2570
 1086TIP3    H124817   4.580   5.141   8.423  0.9490 -0.2603  0.2837
 1086TIP3    H224818   4.560   5.140   8.273  0.3686  3.1167  0.2780
 1087TIP3   OH224819   5.976   0.247   0.085 -0.1572 -0.6687 -0.0082
 1087TIP3    H124820   5.909   0.261   0.152 -0.8891  1.3020 -1.1020
 1087TIP3    H224821   6.050   0.211   0.134 -1.0161 -0.2342  1.6939
 1088TIP3   OH224822   3.154   4.923   8.378 -0.5151  0.6275  0.5606
 1088TIP3    H124823   3.174   4.888   8.465  1.8588  1.5222  0.4508
 1088TIP3    H224824   3.234   4.909   8.328 -1.7224  0.4384 -1.4109
 1089TIP3   OH224825   1.116   6.695   7.446 -0.0895 -0.2347  0.1522
 1089TIP3    H124826   1.096   6.670   7.356  1.0747 -1.1217  0.1080
 1089TIP3    H224827   1.031   6.705   7.489 -0.7206  1.7545 -1.4185
 1090TIP3   OH224828   2.343   2.058   0.802 -0.5055  0.5376  0.0024
 1090TIP3    H124829   2.398   2.029   0.729  1.1811  0.1104  1.3936
 1090TIP3    H224830   2.259   2.014   0.786  0.4442 -1.1522 -0.6284
 1091TIP3   OH224831   4.533   5.908   1.455  0.0846 -0.1603  0.1105
 1091TIP3    H124832   4.468   5.914   1.525 -0.0429  1.4140 -0.1093
 1091TIP3    H224833   4.617   5.919   1.500  0.1164 -0.6684  0.1896
 1092TIP3   OH224834   5.679   1.773   7.763  0.5713  0.5110 -0.8652
 1092TIP3    H124835   5.732   1.698   7.737  0.0027 -0.3017  0.2280
 1092TIP3    H224836   5.600   1.766   7.709 -0.3568 -0.8489  0.5751
 1093TIP3   OH224837   6.386   6.785   2.352  0.3987  0.4476 -0.5806
 1093TIP3    H124838   6.433   6.868   2.351  1.4983 -0.0812  1.2018
 1093TIP3    H224839   6.416   6.742   2.432 -1.0428 -1.1574 -0.8430
 1094TIP3   OH224840   4.152   2.970   6.674  0.3211  0.5623 -0.4793
 1094TIP3    H124841   4.120   2.881   6.689 -1.6677  1.0922 -1.2459
 1094TIP3    H224842   4.125   3.019   6.752 -0.7736  1.0057 -1.1134
 1095TIP3   OH224843   4.813   1.839   7.304 -0.3378 -0.1689  0.2652
 1095TIP3    H124844   4.905   1.868   7.301  0.5604 -2.8660 -0.5011
 1095TIP3    H224845   4.768   1.897   7.242  0.6858  1.5549  1.0475
 1096TIP3   OH224846   5.248   4.288   1.970  0.5328 -0.8692  0.3002
 1096TIP3    H124847   5.268   4.359   1.909  1.3073 -1.4155 -0.0998
 1096TIP3    H224848   5.153   4.291   1.980  0.4997 -0.1670 -0.1955
 1097TIP3   OH224849   6.867   0.288   1.451  0.7734  0.2153  0.1966
 1097TIP3    H124850   6.840   0.379   1.438  1.8622  0.5035 -0.1605
 1097TIP3    H224851   6.891   0.257   1.363  0.0722 -0.5399  0.2578
 1098TIP3   OH224852   0.046   3.575   2.609  0.1112  0.0825  0.4912
 1098TIP3    H124853   0.123   3.605   2.561 -0.2624  1.4807  0.7328
 1098TIP3    H224854   0.058   3.480   2.616  0.0695 -0.2404 -2.5601
 1099TIP3   OH224855   0.862   0.637   1.210  0.0545  0.6368 -0.0493
 1099TIP3    H124856   0.875   0.731   1.222 -3.9164  1.7940 -2.5558
 1099TIP3    H224857   0.797   0.613   1.277 -1.6636  0.6901 -1.5955
 1100TIP3   OH224858   1.315   1.149   1.265 -0.0402  0.0870  0.1100
 1100TIP3    H124859   1.223   1.143   1.239  0.3416  0.1363 -1.3261
 1100TIP3    H224860   1.337   1.062   1.298 -0.3645 -0.1750 -0.3665
 1101TIP3   OH224861   2.472   2.279   1.873 -0.0737 -0.1239 -0.0507
 1101TIP3    H124862   2.429   2.350   1.920  1.1205  1.9926 -1.9428
 1101TIP3    H224863   2.548   2.257   1.926 -0.3350  0.1659  0.4514
 1102TIP3   OH224864   3.517   0.057   1.495  0.2254 -0.8670 -0.0120
 1102TIP3    H124865   3.476  -0.021   1.531 -1.3477 -0.2428 -0.3898
 1102TIP3    H224866   3.534   0.036   1.403  0.0588 -0.8579 -0.0445
 1103TIP3   OH224867   1.571   4.595   7.444 -0.1531  0.2337  0.2168
 1103TIP3    H124868   1.524   4.528   7.393 -2.3882  0.3200  1.9941
 1103TIP3    H224869   1.589   4.665   7.382 -1.9553 -0.0609 -0.7101
 1104TIP3   OH224870   1.701   5.255   8.030 -0.1332 -0.1598  0.6158
 1104TIP3    H124871   1.782   5.251   8.081 -0.4745 -0.5054  1.1270
 1104TIP3    H224872   1.631   5.237   8.093 -0.7278  1.4057  0.4695
 1105TIP3   OH224873   3.060   1.464   1.313 -0.0310  0.3688  0.0761
 1105TIP3    H124874   3.001   1.497   1.381 -1.4458 -0.3633 -0.7484
 1105TIP3    H224875   3.007   1.465   1.233  1.5744  1.1645 -1.0416
 1106TIP3   OH224876   1.158   4.942   0.759  0.0891  0.0507  0.0008
 1106TIP3    H124877   1.171   4.960   0.666  0.4806  1.3692  0.2978
 1106TIP3    H224878   1.146   5.028   0.799  0.5556 -0.4557  1.2743
 1107TIP3   OH224879   2.356   3.476   0.467  0.3820  0.0107  0.1250
 1107TIP3    H124880   2.320   3.562   0.447  0.7825  0.1703  0.0753
 1107TIP3    H224881   2.364   3.475   0.562 -0.6157 -0.3801  0.2171
 1108TIP3   OH224882   6.572   1.775   0.335 -0.5006 -0.1248  0.5188
 1108TIP3    H124883   6.556   1.681   0.344  1.1264 -0.3782  1.0446
 1108TIP3    H224884   6.613   1.801   0.417 -0.2687  0.9029  0.0955
 1109TIP3   OH224885   4.426   2.244   1.659  0.3043 -0.1902 -0.0199
 1109TIP3    H124886   4.503   2.268   1.608  0.5721  0.6209  0.7358
 1109TIP3    H224887   4.376   2.325   1.666 -1.0528 -0.8902 -1.2001
 1110TIP3   OH224888   1.092   1.582   7.879  0.0972 -0.2392  0.4296
 1110TIP3    H124889   1.136   1.537   7.952 -0.2988 -0.2588  0.6540
 1110TIP3    H224890   1.058   1.510   7.825  0.6644 -0.2321  0.0523
 1111TIP3   OH224891   1.812   2.091   6.990 -0.4165  0.5572 -0.3956
 1111TIP3    H124892   1.728   2.075   7.033 -0.3465  0.1956 -0.3909
 1111TIP3    H224893   1.826   2.185   6.997 -1.1336  0.7142 -0.9697
 1112TIP3   OH224894   6.836   4.791   2.174  0.0824  0.5914  0.2280
 1112TIP3    H124895   6.931   4.784   2.181  0.0391  0.8431  1.1779
 1112TIP3    H224896   6.802   4.708   2.209 -0.0842  1.0762  1.2427
 1113TIP3   OH224897   4.362   6.237   8.481 -0.0332  0.3936 -0.0141
 1113TIP3    H124898   4.406   6.316   8.450 -2.1760  1.4837 -0.4731
 1113TIP3    H224899   4.433   6.179   8.507  1.8089  0.9040 -3.3048
 1114TIP3   OH224900   0.498   3.434   2.233  0.3051  0.1431 -0.1005
 1114TIP3    H124901   0.539   3.402   2.314 -1.0968 -1.1205  0.1526
 1114TIP3    H224902   0.572   3.460   2.177  1.3717 -0.6583  0.8917
 1115TIP3   OH224903   1.856   3.064   1.076 -0.4905 -0.3941 -0.4159
 1115TIP3    H124904   1.832   3.107   1.158 -1.9091  0.4783 -1.2447
 1115TIP3    H224905   1.774   3.058   1.027  0.3540 -0.7053 -1.8568
 1116TIP3   OH224906   3.460   6.019   0.008 -0.3093  0.0945 -0.1187
 1116TIP3    H124907   3.494   5.994   0.094 -0.2518 -0.9205 -0.4304
 1116TIP3    H224908   3.365   6.021   0.020 -0.2721  0.6091  0.1324
 1117TIP3   OH224909   3.517   5.543   2.086  0.2434  0.5902 -0.3709
 1117TIP3    H124910   3.522   5.620   2.030  1.4404  1.7635  1.2638
 1117TIP3    H224911   3.532   5.576   2.175  0.5753 -1.4908  0.4136
 1118TIP3   OH224912   5.003   6.005   2.367  0.1667 -0.0110  0.5960
 1118TIP3    H124913   5.036   6.094   2.360  1.3847 -0.5807 -1.8077
 1118TIP3    H224914   4.909   6.016   2.382  0.5476  1.6321  2.1113
 1119TIP3   OH224915   2.813   3.141   6.829  0.3506  0.2501  0.1461
 1119TIP3    H124916   2.869   3.213   6.802  0.1170  0.4196  0.1191
 1119TIP3    H224917   2.875   3.076   6.865  0.7670 -0.3977 -1.6613
 1120TIP3   OH224918   1.386   0.909   0.973 -0.1400  0.3538 -0.1122
 1120TIP3    H124919   1.397   0.827   0.924  1.1259 -0.2452  1.1292
 1120TIP3    H224920   1.436   0.896   1.053 -0.8262  1.9448  0.6071
 1121TIP3   OH224921   4.723   0.542   0.058  0.3267 -0.2886 -0.1932
 1121TIP3    H124922   4.682   0.557   0.143  1.0241  0.6252  0.0067
 1121TIP3    H224923   4.699   0.619   0.006 -0.2394 -0.9245 -0.8809
 1122TIP3   OH224924   0.303   5.624   2.379  0.1446  0.2563  0.0470
 1122TIP3    H124925   0.340   5.654   2.462 -1.4950 -0.3528  1.0468
 1122TIP3    H224926   0.328   5.532   2.374 -0.5080  0.0530  0.3390
 1123TIP3   OH224927   2.543   5.949   1.617 -0.1643 -0.0676 -0.5707
 1123TIP3    H124928   2.521   6.033   1.576 -1.5617  0.7566  1.6956
 1123TIP3    H224929   2.638   5.952   1.626 -0.1849  1.2746 -0.5331
 1124TIP3   OH224930   3.321   6.270   7.293  0.8392 -0.1103  0.4819
 1124TIP3    H124931   3.398   6.250   7.345  0.1043  1.4967  2.3189
 1124TIP3    H224932   3.251   6.215   7.329  0.6873 -0.1458  0.1393
 1125TIP3   OH224933   1.101   5.001   0.486 -0.3472  0.3431  0.4979
 1125TIP3    H124934   1.052   5.008   0.404  0.0190  2.1308  0.3868
 1125TIP3    H224935   1.173   5.064   0.476  2.2119 -2.3685  0.5083
 1126TIP3   OH224936   1.054   4.373   0.924  0.2961 -0.4877  0.0312
 1126TIP3    H124937   0.985   4.393   0.860  1.6988 -0.0595 -1.4055
 1126TIP3    H224938   1.066   4.455   0.972  0.7988 -0.1227 -0.7076
 1127TIP3   OH224939   3.287   2.138   7.877 -0.6631  0.5065  0.2554
 1127TIP3    H124940   3.262   2.051   7.910  1.9882  0.2903  1.9655
 1127TIP3    H224941   3.256   2.199   7.944 -1.3631  0.8048 -0.3166
 1128TIP3   OH224942   0.542   1.115   0.622 -0.0168 -0.1399 -0.3018
 1128TIP3    H124943   0.619   1.158   0.660 -0.9256 -0.2505  1.7972
 1128TIP3    H224944   0.471   1.136   0.682 -1.8248  0.5307 -2.5614
 1129TIP3   OH224945   2.220   3.551   7.090  0.1918  0.0494 -0.0891
 1129TIP3    H124946   2.153   3.513   7.033  0.6460 -0.2958 -0.4017
 1129TIP3    H224947   2.184   3.543   7.178  0.1515 -0.8544 -0.1744
 1130TIP3   OH224948   5.611   1.773   2.297 -0.0711 -0.3114  0.2500
 1130TIP3    H124949   5.647   1.752   2.383  0.4228 -0.9172 -0.0976
 1130TIP3    H224950   5.530   1.821   2.316  0.8629  1.0123  1.0439
 1131TIP3   OH224951   2.572   4.262   0.884  0.4949  0.0788  0.3595
 1131TIP3    H124952   2.498   4.216   0.845  0.8411 -1.2600  1.2100
 1131TIP3    H224953   2.570   4.349   0.844 -0.4304 -0.5316 -0.9897
 1132TIP3   OH224954   5.711   0.587   7.743  0.3525 -0.3048  0.1700
 1132TIP3    H124955   5.686   0.576   7.834 -1.2700 -0.3864 -0.2624
 1132TIP3    H224956   5.644   0.645   7.706  0.1314 -1.4621 -1.3176
 1133TIP3   OH224957   1.835   5.839   7.194 -0.1615 -0.3403 -0.0626
 1133TIP3    H124958   1.896   5.851   7.267 -1.0758 -0.2442  0.7035
 1133TIP3    H224959   1.825   5.744   7.186  1.2790 -0.4288 -1.2243
 1134TIP3   OH224960   1.693   1.957   2.949 -0.3319 -0.0301 -0.1424
 1134TIP3    H124961   1.678   1.903   2.872  0.6000  0.7886 -0.9286
 1134TIP3    H224962   1.759   2.020   2.921  0.7491 -0.3178  1.5998
 1135TIP3   OH224963   2.214   4.925   7.353 -0.0679 -0.5720 -0.1297
 1135TIP3    H124964   2.195   4.912   7.260 -1.2031  0.4424 -0.0721
 1135TIP3    H224965   2.242   5.016   7.359 -1.9707  0.0070  0.7609
 1136TIP3   OH224966   2.653   2.699   2.242  0.0956 -0.2851 -0.4771
 1136TIP3    H124967   2.710   2.775   2.250  0.2822 -0.3382 -1.1923
 1136TIP3    H224968   2.708   2.625   2.269 -0.5540 -0.0207  1.7389
 1137TIP3   OH224969   3.952   3.265   1.192 -0.1409  0.0616 -0.3867
 1137TIP3    H124970   4.037   3.297   1.224 -0.7547  2.1103 -0.6438
 1137TIP3    H224971   3.968   3.174   1.168  2.7847  1.1006 -3.1587
 1138TIP3   OH224972   3.776   5.056   1.211 -0.1035  0.2795  0.8762
 1138TIP3    H124973   3.822   5.096   1.284 -1.4508  1.9602  0.8524
 1138TIP3    H224974   3.685   5.084   1.221 -0.9476 -1.9786  0.2686
 1139TIP3   OH224975   4.519   6.233   1.856  0.3574 -0.5052  0.2700
 1139TIP3    H124976   4.494   6.156   1.908 -2.2262 -0.1403 -0.3172
 1139TIP3    H224977   4.532   6.302   1.921 -2.5240 -0.1377  0.5544
 1140TIP3   OH224978   2.652   5.674   2.506 -0.4507 -0.6744  0.3481
 1140TIP3    H124979   2.696   5.736   2.563  0.3759 -0.7453 -0.2002
 1140TIP3    H224980   2.714   5.602   2.496 -0.8823 -0.9961 -0.0549
 1141TIP3   OH224981   4.500   6.205   7.351  0.1870 -0.0990 -0.4710
 1141TIP3    H124982   4.513   6.119   7.310  0.7493 -0.5531  0.6163
 1141TIP3    H224983   4.508   6.188   7.444 -1.0186  0.9300 -0.1595
 1142TIP3   OH224984   0.686   2.116   6.869  0.0071 -0.4311 -0.7846
 1142TIP3    H124985   0.719   2.202   6.896 -0.4568 -0.5627  0.2088
 1142TIP3    H224986   0.600   2.135   6.831  0.6676 -0.2430 -2.2605
 1143TIP3   OH224987   4.223   4.182   7.115 -0.0442 -0.4750 -0.0937
 1143TIP3    H124988   4.160   4.156   7.047  0.0864  0.1743 -0.4686
 1143TIP3    H224989   4.269   4.257   7.078  1.3954 -1.3141 -0.0854
 1144TIP3   OH224990   1.326   1.387   2.552  0.1447  0.3972 -0.3280
 1144TIP3    H124991   1.282   1.311   2.590  0.7250  1.4165  2.7550
 1144TIP3    H224992   1.307   1.458   2.614  1.3777  2.2376 -1.9472
 1145TIP3   OH224993   1.042   6.139   8.593 -0.0768 -0.4242 -0.0735
 1145TIP3    H124994   1.019   6.065   8.649  0.6198 -1.0348 -0.5778
 1145TIP3    H224995   1.067   6.099   8.509 -0.4055  0.4245 -0.5956
 1146TIP3   OH224996   0.466   4.668   2.278  0.0751  0.2374 -0.2102
 1146TIP3    H124997   0.504   4.647   2.364 -0.0579  1.0439  0.0513
 1146TIP3    H224998   0.452   4.763   2.281 -1.2473  0.0731 -0.5946
 1147TIP3   OH224999   2.833   0.886   0.086  0.1093  0.0610  0.2964
 1147TIP3    H125000   2.892   0.823   0.129 -0.8000 -1.4401 -0.5537
 1147TIP3    H225001   2.824   0.957   0.149  1.6476 -0.3735  1.0656
 1148TIP3   OH225002   6.350   5.556   8.313 -0.2130  0.2103 -0.0345
 1148TIP3    H125003   6.367   5.521   8.400 -0.4542 -1.8132 -0.7446
 1148TIP3    H225004   6.263   5.597   8.320 -0.3495 -0.1742  0.6156
 1149TIP3   OH225005   3.755   5.093   1.917  0.1054  0.4047  0.3183
 1149TIP3    H125006   3.734   5.180   1.951 -1.2523  0.5414 -0.7372
 1149TIP3    H225007   3.689   5.035   1.955  0.1427  0.0948 -0.0760
 1150TIP3   OH225008   4.007   4.564   0.992 -0.7943  0.2728 -0.3622
 1150TIP3    H125009   4.081   4.512   1.024  0.7464  1.3270 -2.0251
 1150TIP3    H225010   3.933   4.536   1.047  1.5951  2.3399  4.5916
 1151TIP3   OH225011   6.288   5.813   7.123 -0.3665  0.3553 -0.9371
 1151TIP3    H125012   6.276   5.871   7.048 -1.9917  0.4914 -0.6091
 1151TIP3    H225013   6.259   5.727   7.092  0.9479 -0.0597 -1.0754
 1152TIP3   OH225014   3.623   6.782   8.342  0.2711 -0.5261 -0.3764
 1152TIP3    H125015   3.628   6.815   8.431  0.5875  0.5473 -0.7708
 1152TIP3    H225016   3.595   6.691   8.351  1.5411 -0.8232  0.8920
 1153TIP3   OH225017   6.491   1.211   0.816  1.0369 -0.0209 -0.0561
 1153TIP3    H125018   6.510   1.237   0.906  1.0713  1.0550 -0.3644
 1153TIP3    H225019   6.403   1.245   0.799  0.6535 -1.0151 -0.1399
 1154TIP3   OH225020   5.216   0.083   7.680  0.0589  0.6270 -0.4888
 1154TIP3    H125021   5.163   0.129   7.746 -0.9247 -0.1043 -0.7400
 1154TIP3    H225022   5.305   0.086   7.714 -0.3784  0.5552  0.7246
 1155TIP3   OH225023   2.131   6.104   2.197 -0.2816 -0.2744  0.1924
 1155TIP3    H125024   2.039   6.103   2.172 -0.3226 -0.6892  0.3537
 1155TIP3    H225025   2.145   6.020   2.242  0.0771 -0.0487  0.5102
 1156TIP3   OH225026   4.835   2.822   0.700 -0.4134 -0.0085 -0.0297
 1156TIP3    H125027   4.907   2.820   0.637 -0.8086 -2.2357 -0.4889
 1156TIP3    H225028   4.878   2.810   0.785 -0.2222 -2.2729 -0.3740
 1157TIP3   OH225029   0.633   4.300   8.398 -0.6339  0.3751  0.1015
 1157TIP3    H125030   0.573   4.226   8.386 -2.1644  1.8466 -2.1495
 1157TIP3    H225031   0.719   4.265   8.373 -0.7689 -1.3253  1.7845
 1158TIP3   OH225032   6.101   4.561   0.175  0.5184 -0.1365 -0.2627
 1158TIP3    H125033   6.058   4.475   0.176 -1.7114  0.8986  0.0152
 1158TIP3    H225034   6.193   4.542   0.191 -0.2238 -2.3114  2.1084
 1159TIP3   OH225035   1.172   1.418   8.206 -0.2414 -0.4031  0.5461
 1159TIP3    H125036   1.098   1.422   8.267 -0.3435  0.4783  0.3743
 1159TIP3    H225037   1.235   1.360   8.250 -1.1016 -1.3334  0.5965
 1160TIP3   OH225038   6.066   5.559   7.775 -0.0681 -0.0215 -0.0707
 1160TIP3    H125039   5.991   5.555   7.717  1.0017  1.2559 -1.6318
 1160TIP3    H225040   6.034   5.603   7.854 -0.7533  1.3872 -1.1059
 1161TIP3   OH225041   1.067   0.144   2.752  0.7462  0.2233 -0.7866
 1161TIP3    H125042   0.985   0.095   2.756  0.3005  1.0399  0.2747
 1161TIP3    H225043   1.102   0.124   2.665 -0.7401  0.1341 -1.3877
 1162TIP3   OH225044   1.172   2.202   0.454  0.6494 -0.0802 -0.3152
 1162TIP3    H125045   1.121   2.176   0.531  2.1431 -1.4002  0.2852
 1162TIP3    H225046   1.107   2.227   0.389 -0.7110 -0.6635  0.7831
 1163TIP3   OH225047   4.260   0.615   8.442  0.2518  0.2191 -0.6669
 1163TIP3    H125048   4.293   0.564   8.368  0.8676  0.3967 -0.5218
 1163TIP3    H225049   4.169   0.586   8.453  0.1166  0.2649 -1.5528
 1164TIP3   OH225050   2.838   2.158   0.951  0.6720 -0.9811 -0.0860
 1164TIP3    H125051   2.795   2.193   1.030 -0.7359 -3.6909  0.4652
 1164TIP3    H225052   2.842   2.233   0.891 -1.2011  0.3830  1.3531
 1165TIP3   OH225053   0.688   4.507   7.714  0.1963  0.1403  0.1754
 1165TIP3    H125054   0.714   4.510   7.622  0.4460  0.7937  0.2665
 1165TIP3    H225055   0.594   4.488   7.711  0.0911  0.6847 -0.2323
 1166TIP3   OH225056   3.467   6.095   1.684  0.3955 -0.0092  0.3714
 1166TIP3    H125057   3.489   6.159   1.752 -1.5493  0.3472  0.7333
 1166TIP3    H225058   3.378   6.119   1.657  0.1310 -1.7533 -0.4363
 1167TIP3   OH225059   4.816   6.678   6.993  0.0832  0.3292  0.3788
 1167TIP3    H125060   4.748   6.628   6.948  0.7034  0.0125 -0.2366
 1167TIP3    H225061   4.898   6.641   6.960  0.5972 -0.7529  2.6923
 1168TIP3   OH225062   3.897   2.043   1.523  0.9275 -0.7833 -0.4991
 1168TIP3    H125063   3.980   1.998   1.508  1.1211 -0.4558 -0.4113
 1168TIP3    H225064   3.851   2.037   1.440  1.3321 -0.3633 -0.7592
 1169TIP3   OH225065   2.154   1.887   2.168 -0.4750 -0.4223 -0.7450
 1169TIP3    H125066   2.095   1.870   2.094 -1.0429  3.2058 -1.3488
 1169TIP3    H225067   2.099   1.932   2.232  1.1133  1.2828 -0.4898
 1170TIP3   OH225068   5.172   1.561   0.522 -0.5249 -0.5049 -0.5038
 1170TIP3    H125069   5.102   1.623   0.538  0.2178  0.9564 -2.4745
 1170TIP3    H225070   5.129   1.475   0.520 -1.8997  0.1374  0.2893
 1171TIP3   OH225071   6.786   1.010   1.104 -0.5726 -0.5985 -0.3872
 1171TIP3    H125072   6.713   0.967   1.061 -1.2212  1.8817 -1.9485
 1171TIP3    H225073   6.746   1.069   1.167  0.0472  0.7147 -1.1881
 1172TIP3   OH225074   5.744   5.091   0.034 -0.1924 -0.3098 -0.0146
 1172TIP3    H125075   5.825   5.118   0.077  0.0002 -1.1544  0.1565
 1172TIP3    H225076   5.771   5.024  -0.028 -0.8082 -0.8084  0.2541
 1173TIP3   OH225077   4.015   0.732   7.445  0.1101 -0.5821 -0.6307
 1173TIP3    H125078   3.968   0.656   7.412  0.2601 -0.5116 -1.0124
 1173TIP3    H225079   3.964   0.761   7.520 -0.0159 -0.9841 -0.5606
 1174TIP3   OH225080   6.106   5.600   8.472 -0.1489  0.0331  0.4515
 1174TIP3    H125081   6.173   5.618   8.538  0.8909 -3.7823  0.7180
 1174TIP3    H225082   6.042   5.545   8.518 -1.0473 -0.1701 -0.9700
 1175TIP3   OH225083   2.951   2.547   2.888  0.2224 -0.2205  0.2317
 1175TIP3    H125084   2.933   2.519   2.798  0.8900 -1.1769  0.3874
 1175TIP3    H225085   3.029   2.498   2.913 -0.2800 -0.3796  1.5298
 1176TIP3   OH225086   6.600   5.650   1.087 -0.2204  0.2159 -0.2097
 1176TIP3    H125087   6.522   5.705   1.075 -1.3974 -1.2852  0.2883
 1176TIP3    H225088   6.593   5.618   1.176  1.0128  0.0673 -0.1480
 1177TIP3   OH225089   2.402   1.340   7.726 -0.2036  0.2971  0.1369
 1177TIP3    H125090   2.416   1.332   7.820  0.4208  1.0774  0.1277
 1177TIP3    H225091   2.426   1.255   7.690 -1.0708 -0.2166  0.7417
 1178TIP3   OH225092   5.714   3.970   8.266  0.0080 -0.5916  0.8749
 1178TIP3    H125093   5.757   3.975   8.181 -3.1315 -0.4903 -0.8376
 1178TIP3    H225094   5.709   4.061   8.296  0.3695 -0.5364  0.7684
 1179TIP3   OH225095   5.957   6.200   7.337  0.1935 -0.4679 -0.3410
 1179TIP3    H125096   6.003   6.116   7.345  0.3922 -0.4841 -1.5420
 1179TIP3    H225097   5.933   6.206   7.245  0.2953  0.8556 -0.3022
 1180TIP3   OH225098   2.451   6.003   0.762  0.5465 -0.0954 -0.5867
 1180TIP3    H125099   2.535   6.031   0.725  0.3061 -0.1186 -1.1638
 1180TIP3    H225100   2.398   5.979   0.686 -0.4045  1.0574 -0.3237
 1181TIP3   OH225101   5.639   0.520   0.493 -0.0313  0.1006  0.5121
 1181TIP3    H125102   5.698   0.495   0.564 -0.8709 -0.2449  1.1113
 1181TIP3    H225103   5.614   0.610   0.512  1.8649  0.9765 -0.8593
 1182TIP3   OH225104   3.516   5.789   2.240  0.1186 -0.2564  0.9515
 1182TIP3    H125105   3.504   5.855   2.173  1.3197 -0.9243  0.0300
 1182TIP3    H225106   3.427   5.766   2.268 -0.3743  0.5068  0.0671
 1183TIP3   OH225107   1.030   2.166   6.910 -0.0987  0.1376  0.2352
 1183TIP3    H125108   0.958   2.125   6.863  1.0548 -1.8441  0.1047
 1183TIP3    H225109   0.988   2.220   6.976 -1.7151 -1.1554  0.3151
 1184TIP3   OH225110   5.957   4.519   2.705 -0.4556  0.1190  0.0388
 1184TIP3    H125111   6.043   4.525   2.746 -1.1160  3.5805  1.1792
 1184TIP3    H225112   5.901   4.478   2.772 -0.1558 -0.2066  0.0917
 1185TIP3   OH225113   3.859   0.508   7.121 -0.2946  0.0130 -0.1638
 1185TIP3    H125114   3.774   0.553   7.124  0.9582  2.6329 -0.3721
 1185TIP3    H225115   3.845   0.426   7.167 -3.1828 -0.1258 -1.1200
 1186TIP3   OH225116   2.382   3.163   8.354  0.4215 -0.3058  0.4527
 1186TIP3    H125117   2.326   3.103   8.402  1.0215 -0.3078  1.1741
 1186TIP3    H225118   2.393   3.124   8.268 -2.9829  1.0629 -0.7648
 1187TIP3   OH225119   6.807   2.816   1.235  0.1592 -0.3063  0.2508
 1187TIP3    H125120   6.748   2.826   1.310  1.1514 -0.4663  1.0764
 1187TIP3    H225121   6.893   2.800   1.274  0.6759 -0.5230 -0.9289
 1188TIP3   OH225122   5.529   3.528   1.336  0.6928  0.4732 -0.1228
 1188TIP3    H125123   5.470   3.482   1.277  0.2859  1.1343 -0.2411
 1188TIP3    H225124   5.597   3.464   1.358 -0.8242 -0.7646  1.1358
 1189TIP3   OH225125   5.963   4.145   1.470  0.1379  0.4631 -0.6746
 1189TIP3    H125126   5.973   4.233   1.506  0.0374  0.9967 -1.9007
 1189TIP3    H225127   5.868   4.134   1.458  0.2006  0.4997 -1.2457
 1190TIP3   OH225128   5.195   0.398   2.089 -0.4471 -0.3632  0.0457
 1190TIP3    H125129   5.109   0.365   2.062 -0.4982  0.6731 -1.0848
 1190TIP3    H225130   5.200   0.375   2.182 -0.8608 -2.7053 -0.4386
 1191TIP3   OH225131   0.716   6.439   0.153  0.3400 -0.1830  0.0096
 1191TIP3    H125132   0.796   6.431   0.100 -0.2034  0.4867 -0.9156
 1191TIP3    H225133   0.667   6.359   0.134  0.9162 -0.7498  0.8247
 1192TIP3   OH225134   5.413   6.010   7.951 -0.3150 -0.1137 -0.3558
 1192TIP3    H125135   5.431   5.967   7.868 -0.9989 -1.0242 -0.0583
 1192TIP3    H225136   5.470   5.966   8.014 -1.6498 -1.2393  0.1139
 1193TIP3   OH225137   0.471   2.872   7.454 -0.0190  0.0185  0.4887
 1193TIP3    H125138   0.480   2.908   7.366  1.1996  1.0514  1.0120
 1193TIP3    H225139   0.385   2.901   7.483 -0.8472 -1.1186 -0.6755
 1194TIP3   OH225140   0.452   1.062   1.685  0.5795 -0.2214  0.1286
 1194TIP3    H125141   0.457   1.061   1.589  0.4007  0.9277  0.0937
 1194TIP3    H225142   0.494   1.144   1.710 -1.2501  0.5236  0.9040
 1195TIP3   OH225143   5.529   0.509   1.344 -0.0612 -0.1697  0.1233
 1195TIP3    H125144   5.576   0.433   1.310 -0.3524  0.3287 -1.4718
 1195TIP3    H225145   5.439   0.477   1.357 -0.4960  0.1484 -1.7119
 1196TIP3   OH225146   5.297   1.446   2.857  0.4018  0.5291 -0.2900
 1196TIP3    H125147   5.257   1.422   2.941  1.1929 -0.7262 -0.2519
 1196TIP3    H225148   5.360   1.514   2.879  0.4576  0.3537  0.1026
 1197TIP3   OH225149   3.810   4.413   2.068 -0.1334 -0.0526 -0.2338
 1197TIP3    H125150   3.840   4.452   2.150  1.8148 -0.3092 -0.7766
 1197TIP3    H225151   3.777   4.327   2.094  1.9268 -0.7838  0.1421
 1198TIP3   OH225152   6.815   0.140   0.780  0.3206  0.1732  0.3917
 1198TIP3    H125153   6.821   0.194   0.701 -0.5928 -0.4780 -0.1496
 1198TIP3    H225154   6.751   0.186   0.835  2.4415  1.7186  1.6930
 1199TIP3   OH225155   4.600   2.347   8.061  0.1248  0.4040  0.2710
 1199TIP3    H125156   4.629   2.363   7.972 -0.9762 -0.1273 -0.2118
 1199TIP3    H225157   4.626   2.256   8.078  1.2129  0.8107  0.8705
 1200TIP3   OH225158   6.626   6.676   1.077  0.0232  0.1852 -0.4044
 1200TIP3    H125159   6.582   6.608   1.026  0.4781 -0.0904 -0.4352
 1200TIP3    H225160   6.597   6.660   1.167 -0.9394  0.7963 -0.5815
 1201TIP3   OH225161   4.061   0.581   1.104 -0.1008  0.8441  0.6827
 1201TIP3    H125162   4.123   0.526   1.151 -0.5178 -2.3659 -2.1371
 1201TIP3    H225163   4.111   0.619   1.032 -0.7528  0.5416  0.0497
 1202TIP3   OH225164   1.646   4.900   8.037 -0.1868  0.4395  0.0331
 1202TIP3    H125165   1.732   4.901   8.078  0.4478 -0.3469 -1.2111
 1202TIP3    H225166   1.585   4.916   8.109  0.9850  1.0148  0.9336
 1203TIP3   OH225167   5.814   2.695   1.264  0.3324 -0.6167  0.0945
 1203TIP3    H125168   5.791   2.626   1.202 -0.1958  0.6684 -1.2193
 1203TIP3    H225169   5.731   2.718   1.306  0.0372  0.6999 -1.1122
 1204TIP3   OH225170   3.694   3.122   1.830 -0.0031  0.2812 -0.5250
 1204TIP3    H125171   3.708   3.138   1.737 -2.4418 -1.4754 -1.3125
 1204TIP3    H225172   3.719   3.030   1.843 -3.0424 -0.6487 -0.3990
 1205TIP3   OH225173   4.045   0.316   8.073 -0.1189  0.1339  0.0963
 1205TIP3    H125174   4.108   0.290   8.140  0.5614  1.3797 -0.0324
 1205TIP3    H225175   3.962   0.278   8.102  0.6923 -1.7083  0.1707
 1206TIP3   OH225176   5.240   0.646   7.979  0.1092 -0.2125 -0.0052
 1206TIP3    H125177   5.191   0.728   7.970 -0.8933 -0.8549 -0.5761
 1206TIP3    H225178   5.287   0.655   8.062 -1.8668 -0.0047  1.1497
 1207TIP3   OH225179   1.057   0.444   1.604 -0.0974 -0.0695  0.0486
 1207TIP3    H125180   1.041   0.445   1.509  2.0168 -2.1288 -0.4234
 1207TIP3    H225181   0.970   0.434   1.642 -1.0760  1.4383 -1.5870
 1208TIP3   OH225182   3.747   2.090   7.677  0.8307  0.4928 -0.3132
 1208TIP3    H125183   3.748   2.083   7.773  0.7013 -1.4115 -0.4234
 1208TIP3    H225184   3.677   2.153   7.659  0.0222 -0.0488  0.8027
 1209TIP3   OH225185   2.035   0.379   7.372  0.5096  0.4421 -0.8012
 1209TIP3    H125186   1.982   0.305   7.340  2.8929 -0.8467 -2.0197
 1209TIP3    H225187   2.115   0.339   7.404  0.4213  2.2517  1.9802
 1210TIP3   OH225188   0.440   3.763   1.940 -0.0076  0.4842  0.3985
 1210TIP3    H125189   0.475   3.827   2.001 -1.0803 -0.8860  2.5901
 1210TIP3    H225190   0.501   3.690   1.943 -0.4973  0.0687  0.5001
 1211TIP3   OH225191   2.803   6.681   8.195 -0.2110  0.2209  0.1407
 1211TIP3    H125192   2.893   6.709   8.205 -0.3578  0.6849  0.1759
 1211TIP3    H225193   2.799   6.642   8.108 -0.2266  1.1754 -0.2969
 1212TIP3   OH225194   2.281   3.503   7.368  0.8484  0.1728  0.6710
 1212TIP3    H125195   2.213   3.550   7.416  0.0786  1.4187 -1.4830
 1212TIP3    H225196   2.342   3.571   7.341 -0.8731  0.3661 -3.4706
 1213TIP3   OH225197   3.537   6.425   1.112 -0.1191 -0.2631  0.2749
 1213TIP3    H125198   3.473   6.356   1.095  0.6612 -0.8949 -0.2250
 1213TIP3    H225199   3.504   6.471   1.189 -1.5044 -0.1437 -0.3648
 1214TIP3   OH225200   0.493   2.336   8.403 -0.2951  0.3868 -0.4044
 1214TIP3    H125201   0.527   2.371   8.321  1.4681  0.1715  0.1920
 1214TIP3    H225202   0.452   2.410   8.446 -2.1792  0.2911 -1.8907
 1215TIP3   OH225203   4.918   6.366   7.458  0.0050 -0.3506  0.1306
 1215TIP3    H125204   4.824   6.353   7.473 -0.0105  0.0778  0.4166
 1215TIP3    H225205   4.939   6.447   7.505  0.2347  0.2835 -1.0332
 1216TIP3   OH225206   4.522   5.096   6.583 -0.2754  0.3461 -0.1155
 1216TIP3    H125207   4.444   5.146   6.560  0.7258  1.6143 -0.8547
 1216TIP3    H225208   4.549   5.131   6.668 -0.7911 -0.4732  0.4061
 1217TIP3   OH225209   4.397   3.427   1.962  0.4777  0.3323 -0.0524
 1217TIP3    H125210   4.367   3.355   2.018  1.2188  0.4257  0.4798
 1217TIP3    H225211   4.320   3.450   1.910 -0.4642  0.7079  1.4239
 1218TIP3   OH225212   6.660   3.544   2.313  0.0338  0.5958  0.2916
 1218TIP3    H125213   6.644   3.591   2.231  0.5787 -0.7880 -0.6525
 1218TIP3    H225214   6.738   3.492   2.296  0.2448  0.3861  1.7611
 1219TIP3   OH225215   5.065   0.034   0.104  0.2867 -0.5554  0.7696
 1219TIP3    H125216   5.047   0.000   0.191 -1.6270  0.4503  0.8188
 1219TIP3    H225217   5.029  -0.032   0.045  0.9422 -0.8926  0.7332
 1220TIP3   OH225218   4.464   4.005   1.226 -0.3850  0.6729 -0.1752
 1220TIP3    H125219   4.448   3.956   1.145 -0.9932  2.0207 -0.9038
 1220TIP3    H225220   4.377   4.033   1.254 -0.3406 -0.8301  1.6852
 1221TIP3   OH225221   6.701   5.846   0.046  0.2154  0.4304  0.3022
 1221TIP3    H125222   6.687   5.940   0.056  0.2478  0.6511 -1.4305
 1221TIP3    H225223   6.619   5.806   0.075 -0.1527  1.0470  0.1275
 1222TIP3   OH225224   0.226   3.491   2.868  0.3621 -0.5551  0.3022
 1222TIP3    H125225   0.161   3.477   2.937 -0.6595  0.1536 -0.4820
 1222TIP3    H225226   0.229   3.407   2.822 -0.8132 -0.2885 -0.3055
 1223TIP3   OH225227   0.796   3.728   1.606  0.1190  0.2821  0.4091
 1223TIP3    H125228   0.859   3.742   1.677  2.4482 -1.5328 -1.1249
 1223TIP3    H225229   0.822   3.791   1.538  0.4215 -0.5846 -0.2990
 1224TIP3   OH225230   2.083   1.823   7.647  0.2089  0.2585 -0.1123
 1224TIP3    H125231   2.053   1.791   7.562 -0.1114 -0.0310  0.1110
 1224TIP3    H225232   2.019   1.890   7.671  1.5070  1.9906 -1.1355
 1225TIP3   OH225233   3.001   4.606   0.788 -0.0136 -0.1817 -0.7716
 1225TIP3    H125234   3.000   4.692   0.830  0.0937 -0.1580 -0.8192
 1225TIP3    H225235   2.948   4.551   0.846 -3.0763  0.7354 -2.4478
 1226TIP3   OH225236   0.074   0.581   2.430 -0.2598 -0.5226 -0.5075
 1226TIP3    H125237   0.138   0.646   2.403 -0.0130 -0.5856 -0.0736
 1226TIP3    H225238  -0.011   0.622   2.410 -0.1062 -0.0761 -0.2539
 1227TIP3   OH225239   3.348   5.247   1.675  0.6973  0.0170 -0.2923
 1227TIP3    H125240   3.313   5.184   1.738 -0.5013  0.4725 -0.4790
 1227TIP3    H225241   3.432   5.275   1.713  0.4175 -0.3863  0.6530
 1228TIP3   OH225242   2.203   4.735   8.572 -0.4083 -0.5381 -0.4525
 1228TIP3    H125243   2.166   4.663   8.623  0.4644 -0.6682  0.0160
 1228TIP3    H225244   2.293   4.709   8.555 -0.1775  0.2950 -0.5622
 1229TIP3   OH225245   1.207   3.390   2.440  0.4915  0.2991 -0.3857
 1229TIP3    H125246   1.124   3.434   2.424  0.1937 -0.2816 -0.4778
 1229TIP3    H225247   1.236   3.362   2.354 -1.1325 -2.8667 -0.0467
 1230TIP3   OH225248   1.379   4.007   8.005 -0.6747 -0.1851  0.3002
 1230TIP3    H125249   1.284   3.999   7.996 -0.4879 -0.3159 -2.1631
 1230TIP3    H225250   1.412   4.002   7.916  1.5629  1.2331  0.9735
 1231TIP3   OH225251   2.590   3.554   1.754 -0.3163 -0.0104  0.7025
 1231TIP3    H125252   2.597   3.546   1.849 -0.9731  2.6271  1.0547
 1231TIP3    H225253   2.505   3.595   1.739 -0.1913 -0.2790 -1.0487
 1232TIP3   OH225254   0.662   6.866   8.400 -0.1796  0.0671 -0.1090
 1232TIP3    H125255   0.580   6.820   8.421  0.2791 -1.5059 -1.5416
 1232TIP3    H225256   0.660   6.944   8.455 -1.7547 -0.8751  1.2760
 1233TIP3   OH225257   1.766   2.773   7.740  0.2129  0.6705 -0.6821
 1233TIP3    H125258   1.791   2.839   7.675  1.2593 -0.8689 -1.9188
 1233TIP3    H225259   1.793   2.810   7.824  0.0948  2.1076 -1.2501
 1234TIP3   OH225260   4.877   3.242   7.582 -0.3419 -0.3588 -0.2478
 1234TIP3    H125261   4.847   3.301   7.650 -1.1348 -2.3229  1.1967
 1234TIP3    H225262   4.828   3.269   7.504 -2.1405 -0.2859  0.8438
 1235TIP3   OH225263   2.800   1.868   8.481 -0.2378  0.2408 -0.4458
 1235TIP3    H125264   2.738   1.847   8.550 -0.8118  1.4033 -0.5771
 1235TIP3    H225265   2.842   1.949   8.510 -0.3428  0.6366 -1.3543
 1236TIP3   OH225266   0.224   6.193   1.452  0.2670  0.7227  0.2056
 1236TIP3    H125267   0.138   6.232   1.468  0.2717  1.5548 -1.4858
 1236TIP3    H225268   0.204   6.108   1.411  0.2620  0.2232  1.2260
 1237TIP3   OH225269   4.529   6.035   0.757 -0.1538  0.1473  0.2753
 1237TIP3    H125270   4.447   5.986   0.761  0.0772 -0.3493 -0.7058
 1237TIP3    H225271   4.502   6.123   0.730 -0.2353 -0.5012 -1.9624
 1238TIP3   OH225272   1.171   0.520   0.754 -0.4744 -0.6404  0.6387
 1238TIP3    H125273   1.247   0.463   0.740  0.4916  0.7342  0.1155
 1238TIP3    H225274   1.104   0.462   0.792  1.3598 -1.5806  2.6658
 1239TIP3   OH225275   4.155   4.302   7.523 -0.8557  0.1427  0.0931
 1239TIP3    H125276   4.176   4.214   7.554  0.9629  0.1852 -0.8763
 1239TIP3    H225277   4.126   4.348   7.602 -0.3816 -0.9003  0.9197
 1240TIP3   OH225278   2.150   1.094   7.649  0.3033 -0.6630 -0.2955
 1240TIP3    H125279   2.243   1.085   7.626 -0.1029 -0.0636 -2.3191
 1240TIP3    H225280   2.108   1.126   7.570 -1.6898 -1.0628  0.5337
 1241TIP3   OH225281   5.552   2.066   2.158  0.0436 -0.5211  0.4825
 1241TIP3    H125282   5.551   2.159   2.137 -1.1330 -0.0882  2.2554
 1241TIP3    H225283   5.569   2.062   2.252  1.4386 -2.1878  0.2236
 1242TIP3   OH225284   4.062   1.756   0.513 -0.0363 -0.4743 -0.7759
 1242TIP3    H125285   4.122   1.751   0.587  0.2548 -0.0555 -0.9832
 1242TIP3    H225286   4.095   1.691   0.450  0.7629  0.4174 -1.2953
 1243TIP3   OH225287   4.657   3.106   2.733 -0.9973 -0.0737 -0.0898
 1243TIP3    H125288   4.575   3.123   2.781 -0.7502 -0.1836  0.3774
 1243TIP3    H225289   4.632   3.043   2.665 -1.4090  0.2982 -0.2857
 1244TIP3   OH225290   3.536   0.487   7.224  0.3577 -0.5713  0.7548
 1244TIP3    H125291   3.451   0.520   7.253  0.1294 -2.0505  1.8825
 1244TIP3    H225292   3.575   0.560   7.177 -1.5377  0.1334  0.1928
 1245TIP3   OH225293   5.742   1.914   2.024  0.2052 -0.6483  0.1692
 1245TIP3    H125294   5.726   1.820   2.023  1.2376 -0.8377 -0.3052
 1245TIP3    H225295   5.658   1.953   2.048 -1.1393 -1.5262 -2.7190
 1246TIP3   OH225296   0.715   4.142   3.034 -0.7018  0.0713  0.2636
 1246TIP3    H125297   0.664   4.221   3.020  0.7370  0.9475 -0.2730
 1246TIP3    H225298   0.653   4.070   3.022 -2.1398  1.1012  1.2300
 1247TIP3   OH225299   5.709   5.960   7.984 -0.0624 -0.3119  0.0634
 1247TIP3    H125300   5.724   5.981   7.892 -0.0290  0.8424  0.3235
 1247TIP3    H225301   5.665   5.875   7.982  0.7504 -0.7280 -0.9764
 1248TIP3   OH225302   4.229   4.186   2.670  0.4988  0.1411 -0.0312
 1248TIP3    H125303   4.226   4.265   2.724 -0.6399  0.1219 -0.0556
 1248TIP3    H225304   4.187   4.119   2.724 -2.0257  0.4605 -1.4660
 1249TIP3   OH225305   0.504   3.047   2.792  0.4458 -0.1638  0.1475
 1249TIP3    H125306   0.478   2.973   2.846  1.6776 -0.2372  0.6824
 1249TIP3    H225307   0.533   3.114   2.855  3.9372 -1.0108 -0.3457
 1250TIP3   OH225308   5.835   1.812   8.524 -0.4001 -0.1572  0.1182
 1250TIP3    H125309   5.846   1.744   8.590  0.7597  0.9386  1.1058
 1250TIP3    H225310   5.815   1.764   8.443 -0.3954 -1.6093  0.9490
 1251TIP3   OH225311   0.177   5.412   1.516 -0.6478  0.3706  0.9996
 1251TIP3    H125312   0.171   5.317   1.506 -1.9679  0.0852  3.5781
 1251TIP3    H225313   0.124   5.447   1.445 -1.7588 -0.9113  1.1590
 1252TIP3   OH225314   4.936   0.064   2.619  0.0937 -0.4301  0.1099
 1252TIP3    H125315   4.907   0.041   2.531  0.4503  0.9825 -0.3919
 1252TIP3    H225316   4.891   0.146   2.640  1.0890 -0.0053  0.6732
 1253TIP3   OH225317   6.189   3.725   7.145 -0.1860  0.3786 -0.0159
 1253TIP3    H125318   6.186   3.747   7.052  2.1041  0.5992 -0.1029
 1253TIP3    H225319   6.253   3.654   7.150 -0.6424  0.0420  1.3439
 1254TIP3   OH225320   3.862   6.728   0.247  0.7457  0.6874  0.4213
 1254TIP3    H125321   3.830   6.705   0.334 -0.1212  0.4011  0.0410
 1254TIP3    H225322   3.867   6.824   0.249 -1.4511  0.8650  0.0888
 1255TIP3   OH225323   2.311   3.631   7.987 -0.4299  0.4359  0.0848
 1255TIP3    H125324   2.258   3.609   7.911 -1.0555  1.4586  0.2086
 1255TIP3    H225325   2.259   3.695   8.035  0.7272  1.1327  0.4396
 1256TIP3   OH225326   5.867   0.749   3.120 -0.1556  0.1669  0.0675
 1256TIP3    H125327   5.888   0.704   3.039 -0.7114 -1.7115  0.9075
 1256TIP3    H225328   5.844   0.679   3.181 -0.7389  1.5853  1.5548
 1257TIP3   OH225329   3.954   0.765   0.133 -0.1311 -0.2791 -0.1184
 1257TIP3    H125330   3.889   0.701   0.102 -1.1536  0.9898 -0.6925
 1257TIP3    H225331   3.979   0.813   0.054 -0.2108  0.7429  0.4649
 1258TIP3   OH225332   0.892   3.875   2.122 -0.3930  0.3679 -0.0396
 1258TIP3    H125333   0.948   3.853   2.197  1.9215 -0.0624 -1.7901
 1258TIP3    H225334   0.916   3.965   2.100 -1.2532  0.5809 -0.1322
 1259TIP3   OH225335   4.428   4.155   2.221  0.3151  0.1822  0.2092
 1259TIP3    H125336   4.356   4.093   2.235 -1.1079  2.1628  2.4031
 1259TIP3    H225337   4.499   4.101   2.188 -1.7061 -2.1190 -0.7465
 1260TIP3   OH225338   0.673   2.279   7.543 -0.3998 -0.4946  0.4445
 1260TIP3    H125339   0.624   2.248   7.620 -0.0981  0.1685  0.9153
 1260TIP3    H225340   0.739   2.211   7.528 -0.1063 -0.3660  1.1139
 1261TIP3   OH225341   1.939   0.061   1.097 -0.3617 -0.1251  0.1741
 1261TIP3    H125342   1.986   0.020   1.024  0.9769  0.0162  0.9264
 1261TIP3    H225343   2.006   0.079   1.162 -1.3064  1.0679  0.8658
 1262TIP3   OH225344   0.633   1.411   1.990  0.0679  0.5098 -0.3096
 1262TIP3    H125345   0.609   1.319   1.995 -3.2443  1.2548  0.0056
 1262TIP3    H225346   0.584   1.445   1.915 -1.2372  2.5433  1.3285
 1263TIP3   OH225347   5.877   6.551   2.085  0.1225  0.5404  0.5758
 1263TIP3    H125348   5.875   6.561   2.180 -0.8875  0.2991  0.5988
 1263TIP3    H225349   5.868   6.457   2.070  0.3660  0.5684  0.2468
 1264TIP3   OH225350   2.052   3.562   2.327  0.3450 -0.5049 -0.6891
 1264TIP3    H125351   2.052   3.466   2.327 -0.0773 -0.5064 -0.7614
 1264TIP3    H225352   2.046   3.586   2.419  0.6924 -0.5459 -0.6543
 1265TIP3   OH225353   6.291   6.190   0.489 -0.4383  0.5383 -0.0608
 1265TIP3    H125354   6.249   6.132   0.426  0.1494 -1.3603  1.1801
 1265TIP3    H225355   6.373   6.216   0.447  0.2323 -1.1862  0.0809
 1266TIP3   OH225356   1.111   1.009   0.081  0.4974 -0.2872 -0.1968
 1266TIP3    H125357   1.086   1.098   0.104  2.8756  0.6639 -1.0521
 1266TIP3    H225358   1.092   0.958   0.160 -1.8925  0.6996 -0.0507
 1267TIP3   OH225359   5.225   6.062   2.107 -0.0530  0.1364  0.1962
 1267TIP3    H125360   5.228   6.097   2.196 -0.0787  0.5001  0.0524
 1267TIP3    H225361   5.315   6.071   2.075 -0.9686  5.0605 -1.7762
 1268TIP3   OH225362   2.333   5.326   1.021  0.5860  0.0594  0.0599
 1268TIP3    H125363   2.238   5.318   1.015  0.4430  1.2453  0.4336
 1268TIP3    H225364   2.357   5.383   0.948  1.0753 -0.6197 -0.3163
 1269TIP3   OH225365   0.378   2.101   7.514 -0.8243 -0.4169 -0.0545
 1269TIP3    H125366   0.349   2.179   7.466  0.4078  0.5351  0.6638
 1269TIP3    H225367   0.422   2.047   7.449  2.5975  1.7741  0.2270
 1270TIP3   OH225368   1.896   3.930   8.264 -0.1135  0.0893  0.2735
 1270TIP3    H125369   1.957   4.001   8.243  1.4136 -1.4463 -0.7688
 1270TIP3    H225370   1.825   3.940   8.200  0.8988 -0.2287 -0.9493
 1271TIP3   OH225371   0.562   0.154   1.885 -0.3237  0.4605  0.0068
 1271TIP3    H125372   0.531   0.119   1.968  2.0100  1.1646  1.2751
 1271TIP3    H225373   0.501   0.119   1.819 -1.3500 -1.3427  1.8133
 1272TIP3   OH225374   1.091   3.542   0.745 -0.1240  0.1615  0.0818
 1272TIP3    H125375   1.088   3.497   0.660  0.4536 -0.8994  0.6023
 1272TIP3    H225376   1.165   3.503   0.791 -1.8781 -1.1293  2.0492
 1273TIP3   OH225377   4.961   5.445   1.569  0.1015  0.4140  0.2063
 1273TIP3    H125378   4.971   5.533   1.604 -2.5431  0.5070  0.9014
 1273TIP3    H225379   4.954   5.389   1.646  0.3188 -0.2313 -0.2313
 1274TIP3   OH225380   6.642   5.404   2.577 -0.6775  0.6762  0.3400
 1274TIP3    H125381   6.556   5.361   2.581 -0.4566  0.2685  0.7275
 1274TIP3    H225382   6.645   5.441   2.489 -0.9647  0.0879  0.0752
 1275TIP3   OH225383   0.261   6.711   7.234  0.1181  0.7808  0.2151
 1275TIP3    H125384   0.186   6.653   7.220  2.1122 -1.4669 -2.3004
 1275TIP3    H225385   0.250   6.781   7.169  0.6736 -0.1130 -0.8635
 1276TIP3   OH225386   3.051   1.112   8.014  0.4155  0.0918 -0.2077
 1276TIP3    H125387   3.043   1.164   7.934  1.8139 -0.9198 -1.0496
 1276TIP3    H225388   2.989   1.040   8.002  0.6974 -0.1151 -0.4349
 1277TIP3   OH225389   3.643   1.604   0.922  0.3579 -0.4710 -0.1919
 1277TIP3    H125390   3.581   1.624   0.992  0.1303 -0.0243 -0.5105
 1277TIP3    H225391   3.697   1.533   0.956 -0.8267 -1.4126 -0.1812
 1278TIP3   OH225392   4.951   4.620   6.938 -0.0242  0.4150 -0.0317
 1278TIP3    H125393   4.939   4.647   6.847 -0.6442 -1.4295 -0.5508
 1278TIP3    H225394   5.018   4.551   6.933  0.8348  1.1300  1.0913
 1279TIP3   OH225395   1.691   3.901   0.580  0.2618 -0.3668 -0.9220
 1279TIP3    H125396   1.684   3.990   0.547  0.5539 -0.4505 -1.2170
 1279TIP3    H225397   1.631   3.898   0.654  0.8337  0.3112 -0.4069
 1280TIP3   OH225398   4.750   6.378   8.406 -0.2266 -0.0702 -0.5342
 1280TIP3    H125399   4.767   6.302   8.350 -1.8427  1.6399 -3.6132
 1280TIP3    H225400   4.655   6.387   8.408 -0.1564  0.8191  1.3630
 1281TIP3   OH225401   0.551   2.320   1.342  0.1077  0.3504 -0.0012
 1281TIP3    H125402   0.514   2.290   1.259 -0.3988  1.4568 -0.1818
 1281TIP3    H225403   0.645   2.305   1.332 -0.1453 -1.5816  0.0911
 1282TIP3   OH225404   6.850   2.520   7.203 -0.6053  0.2469 -0.1705
 1282TIP3    H125405   6.764   2.555   7.182 -0.6503  0.2716  0.0462
 1282TIP3    H225406   6.904   2.597   7.220 -0.5412  0.2315 -0.3100
 1283TIP3   OH225407   3.065   1.613   7.473 -0.3765  0.0543 -0.1994
 1283TIP3    H125408   3.089   1.696   7.433  1.1976  0.2620  1.0715
 1283TIP3    H225409   2.969   1.610   7.468 -0.3726  1.3302 -1.4192
 1284TIP3   OH225410   4.329   2.460   0.444  0.8713 -0.1088 -0.0554
 1284TIP3    H125411   4.240   2.443   0.473  0.9869 -0.2590  0.2187
 1284TIP3    H225412   4.326   2.547   0.404  0.4575 -0.4064 -0.6917
 1285TIP3   OH225413   4.277   1.659   0.145  0.2159 -0.0144 -0.2549
 1285TIP3    H125414   4.212   1.674   0.076 -0.4554  0.8253  0.5257
 1285TIP3    H225415   4.297   1.747   0.178  0.7951 -0.3733  0.3676
 1286TIP3   OH225416   6.871   6.832   7.660 -0.0301  0.4971 -0.0306
 1286TIP3    H125417   6.826   6.907   7.697  1.2121  1.1004  0.2907
 1286TIP3    H225418   6.885   6.855   7.568 -0.8100  0.0886 -0.2635
 1287TIP3   OH225419   2.226   0.055   7.124 -0.5182  0.4797 -0.3519
 1287TIP3    H125420   2.267   0.043   7.210  0.3653 -1.0550 -0.9508
 1287TIP3    H225421   2.207   0.149   7.119  2.6073  1.2469  0.1363
 1288TIP3   OH225422   3.163   3.104   0.420  0.0466  0.4150  0.4253
 1288TIP3    H125423   3.196   3.015   0.432 -0.4345  0.3133  1.0347
 1288TIP3    H225424   3.123   3.127   0.504 -2.8045 -0.0496 -0.6846
 1289TIP3   OH225425   0.103   6.341   0.391 -0.0893 -0.1219 -0.2526
 1289TIP3    H125426   0.083   6.392   0.313 -2.9574  0.5063  0.7567
 1289TIP3    H225427   0.093   6.250   0.364  1.2152 -0.0297 -1.1222
 1290TIP3   OH225428   4.620   0.034   2.376 -0.0541  0.0959  0.0384
 1290TIP3    H125429   4.712   0.013   2.393  0.0972 -1.1626 -2.0754
 1290TIP3    H225430   4.615   0.129   2.389  1.2775  0.0363  1.2243
 1291TIP3   OH225431   6.455   5.909   0.870 -0.4877 -0.3625  0.6168
 1291TIP3    H125432   6.384   5.845   0.877  0.5336 -1.4940  0.9920
 1291TIP3    H225433   6.476   5.931   0.961  0.1338 -0.6041  0.5341
 1292TIP3   OH225434   5.072   5.013   7.946  0.3244  0.2722  0.2908
 1292TIP3    H125435   5.113   4.942   7.996 -2.0841 -0.8764  0.7860
 1292TIP3    H225436   5.068   5.087   8.008  1.1031  0.2262  0.4053
 1293TIP3   OH225437   6.493   2.468   2.355 -0.3624  0.4852 -0.5901
 1293TIP3    H125438   6.434   2.543   2.352  0.2060  0.9261 -1.3189
 1293TIP3    H225439   6.581   2.506   2.361 -0.1356 -0.1525  0.2703
 1294TIP3   OH225440   6.446   6.740   2.061 -0.1327  0.0014 -0.3034
 1294TIP3    H125441   6.467   6.721   2.152  1.2144  0.5652 -0.4680
 1294TIP3    H225442   6.524   6.713   2.012 -0.5774  0.3107 -1.2090
 1295TIP3   OH225443   0.166   6.606   1.640  0.2414  0.2924  0.2372
 1295TIP3    H125444   0.156   6.696   1.609  0.3192  0.2611  0.1190
 1295TIP3    H225445   0.212   6.561   1.569 -0.2032  0.0483  0.0990
 1296TIP3   OH225446   1.178   4.599   7.421  0.4998 -0.1213 -0.3771
 1296TIP3    H125447   1.162   4.649   7.500  2.2396 -0.4659  0.2353
 1296TIP3    H225448   1.245   4.649   7.374  0.7719 -0.8419 -0.7640
 1297TIP3   OH225449   5.668   5.496   7.544 -0.3586 -0.5978 -0.0423
 1297TIP3    H125450   5.727   5.480   7.617 -0.4891 -1.1397 -0.0494
 1297TIP3    H225451   5.703   5.442   7.473 -1.9646 -2.5206  0.5289
 1298TIP3   OH225452   1.004   5.760   2.141 -0.1004 -0.8194  0.1557
 1298TIP3    H125453   0.974   5.833   2.088  1.7428 -0.7449 -0.8640
 1298TIP3    H225454   1.010   5.796   2.230 -2.2731 -0.6805  0.3089
 1299TIP3   OH225455   5.904   5.330   8.476  0.1502 -0.1735  0.8012
 1299TIP3    H125456   5.910   5.251   8.531 -0.3438  0.3048  1.5627
 1299TIP3    H225457   5.902   5.297   8.387 -1.8208 -1.1489  1.1540
 1300TIP3   OH225458   2.484   4.871   8.082  0.4691 -0.5204 -0.6932
 1300TIP3    H125459   2.551   4.809   8.111  0.7779  0.5266  0.9192
 1300TIP3    H225460   2.402   4.835   8.115  0.6320 -0.1610  0.1248
 1301TIP3   OH225461   0.229   0.555   0.516 -0.3558 -0.1562  0.4679
 1301TIP3    H125462   0.171   0.580   0.443  0.5293 -0.7220 -0.4514
 1301TIP3    H225463   0.214   0.462   0.528  2.2867 -0.9784 -1.6354
 1302TIP3   OH225464   5.404   5.424   1.582  0.0940  0.0275 -0.6932
 1302TIP3    H125465   5.352   5.426   1.501  1.1149 -1.8012 -1.4696
 1302TIP3    H225466   5.383   5.339   1.621  0.5820  0.3584  0.3099
 1303TIP3   OH225467   6.732   1.342   0.915 -1.0879 -0.1306 -0.1756
 1303TIP3    H125468   6.741   1.285   0.838  0.7508  0.4619 -0.4495
 1303TIP3    H225469   6.660   1.401   0.893 -0.4419  0.1794 -1.5599
 1304TIP3   OH225470   5.084   6.118   8.577  0.4499 -0.3039 -0.3397
 1304TIP3    H125471   5.001   6.138   8.620 -0.2169  1.0715 -2.1443
 1304TIP3    H225472   5.060   6.083   8.492  1.7401 -1.9678 -0.0708
 1305TIP3   OH225473   2.897   1.671   1.402  0.1606 -0.3128 -0.3325
 1305TIP3    H125474   2.972   1.724   1.376 -1.3018  1.9142 -0.3232
 1305TIP3    H225475   2.892   1.681   1.497 -1.2160  1.1917 -0.5185
 1306TIP3   OH225476   1.429   0.448   8.293 -0.1592  0.0106 -0.2499
 1306TIP3    H125477   1.507   0.491   8.328  1.3148 -1.9202 -0.9660
 1306TIP3    H225478   1.417   0.487   8.206  0.8008 -0.5766 -0.6538
 1307TIP3   OH225479   4.604   2.425   0.309  0.0949 -0.6896  0.4665
 1307TIP3    H125480   4.621   2.518   0.326 -0.6199 -0.8324  2.0852
 1307TIP3    H225481   4.512   2.413   0.330  0.2968 -1.8627  0.7508
 1308TIP3   OH225482   4.312   5.174   1.422 -0.4583 -0.5830  0.6345
 1308TIP3    H125483   4.369   5.140   1.491  0.5070 -1.5859 -0.6058
 1308TIP3    H225484   4.249   5.229   1.468  0.5983 -0.6344  2.2281
 1309TIP3   OH225485   4.349   1.759   1.219 -0.2437  1.0006  0.0269
 1309TIP3    H125486   4.382   1.764   1.129  1.7312 -2.3142  0.3890
 1309TIP3    H225487   4.421   1.793   1.272  0.6744 -1.4809  0.5228
 1310TIP3   OH225488   2.080   0.992   8.263  0.3274  0.1324 -0.2988
 1310TIP3    H125489   2.117   1.035   8.340  1.4405 -0.3501 -0.5445
 1310TIP3    H225490   2.084   0.899   8.282 -0.7818  0.0570 -0.3458
 1311TIP3   OH225491   6.115   3.501   8.259  0.1195  0.0674 -0.0241
 1311TIP3    H125492   6.193   3.498   8.313  0.6070 -2.7570 -0.7483
 1311TIP3    H225493   6.074   3.416   8.270 -0.8690  0.1321 -2.4801
 1312TIP3   OH225494   4.358   4.470   8.210  0.4761 -0.5077 -0.8890
 1312TIP3    H125495   4.313   4.554   8.200  0.1257 -0.7362 -1.2599
 1312TIP3    H225496   4.288   4.405   8.203  0.4664 -0.7827  1.0774
 1313TIP3   OH225497   1.786   1.609   0.503  0.2736 -0.8206  0.4662
 1313TIP3    H125498   1.726   1.620   0.429 -1.1793 -0.6151  1.6319
 1313TIP3    H225499   1.855   1.552   0.470 -0.9587 -1.6847 -0.7002
 1314TIP3   OH225500   6.738   4.709   1.738 -0.1998 -0.4110  0.4006
 1314TIP3    H125501   6.643   4.700   1.741 -0.1599 -0.5853  1.2315
 1314TIP3    H225502   6.756   4.789   1.788 -0.0219  0.5554 -1.1310
 1315TIP3   OH225503   3.792   3.123   7.696 -0.1710  0.0898 -0.0264
 1315TIP3    H125504   3.784   3.101   7.789 -0.3975  1.2526  0.2481
 1315TIP3    H225505   3.752   3.209   7.688  3.1647  1.7757 -0.4622
 1316TIP3   OH225506   2.985   4.617   7.855  0.5759  0.2887 -0.9486
 1316TIP3    H125507   3.031   4.622   7.939  1.6538 -0.0654 -1.4896
 1316TIP3    H225508   3.038   4.670   7.796  0.7528 -0.7633 -1.7769
 1317TIP3   OH225509   2.512   4.046   7.511 -0.2668  0.0613 -0.2258
 1317TIP3    H125510   2.537   3.954   7.502 -0.1035 -0.0235  0.9919
 1317TIP3    H225511   2.594   4.094   7.497  0.0214 -0.0776  0.8809
 1318TIP3   OH225512   0.524   3.725   1.106  0.2819 -0.0719  0.5567
 1318TIP3    H125513   0.486   3.698   1.022  0.0003 -0.5715  0.8404
 1318TIP3    H225514   0.608   3.765   1.082  0.1070 -0.0120  0.0190
 1319TIP3   OH225515   6.405   1.018   1.487  0.7445  0.9125  0.4760
 1319TIP3    H125516   6.349   1.095   1.477  1.6191  1.6682  1.2200
 1319TIP3    H225517   6.475   1.047   1.545  1.5762 -0.1959  0.0486
 1320TIP3   OH225518   2.724   0.071   2.955 -0.3972  0.0920 -0.0230
 1320TIP3    H125519   2.754   0.161   2.943  0.0039 -0.0041  0.2369
 1320TIP3    H225520   2.682   0.071   3.041  0.2145 -0.1223  0.2843
 1321TIP3   OH225521   1.724   2.448   2.223  0.7168 -0.1738  0.9442
 1321TIP3    H125522   1.805   2.454   2.173  1.1675 -0.6857  1.6036
 1321TIP3    H225523   1.655   2.470   2.159  1.3486  0.0788  0.3355
 1322TIP3   OH225524   3.311   5.142   1.391 -0.9940  0.2587  0.1159
 1322TIP3    H125525   3.338   5.147   1.483  1.6467 -0.1784 -0.5635
 1322TIP3    H225526   3.277   5.229   1.372 -1.3324  0.4418  1.4037
 1323TIP3   OH225527   1.041   6.389   2.008 -0.0676 -0.1135  0.0827
 1323TIP3    H125528   1.038   6.460   2.071 -1.0703  0.1693 -0.2701
 1323TIP3    H225529   1.052   6.432   1.924 -1.1874 -0.3182 -0.1893
 1324TIP3   OH225530   1.664   5.300   1.251 -0.5318 -0.1182  0.3463
 1324TIP3    H125531   1.743   5.282   1.302 -0.4303 -0.4303  0.0868
 1324TIP3    H225532   1.654   5.395   1.254 -0.3541 -0.1090  0.6879
 1325TIP3   OH225533   6.374   0.650   8.225  0.1830  0.1408 -0.0424
 1325TIP3    H125534   6.365   0.728   8.169 -1.1042 -0.6126 -0.9312
 1325TIP3    H225535   6.339   0.578   8.172  0.4963 -0.8916  1.1100
 1326TIP3   OH225536   3.862   2.575   0.637 -0.1480 -0.6138  0.0490
 1326TIP3    H125537   3.793   2.515   0.663 -1.2177  0.3793 -0.3893
 1326TIP3    H225538   3.825   2.662   0.652  0.7873 -0.0492 -0.7835
 1327TIP3   OH225539   3.696   5.200   0.851  0.5999 -0.0631 -0.1748
 1327TIP3    H125540   3.642   5.254   0.908 -0.2906 -0.9669 -0.1348
 1327TIP3    H225541   3.784   5.207   0.888  0.0369 -0.6288  1.3271
 1328TIP3   OH225542   1.383   3.675   6.827  0.1591  0.4026  0.3244
 1328TIP3    H125543   1.406   3.767   6.843  1.9498 -0.0006  0.3559
 1328TIP3    H225544   1.293   3.678   6.796  0.5664  2.3014 -0.8723
 1329TIP3   OH225545   2.040   2.740   7.549  0.3446 -0.4716 -0.1128
 1329TIP3    H125546   2.073   2.741   7.459  0.5105 -0.7441 -0.0570
 1329TIP3    H225547   1.949   2.713   7.542  0.2241 -0.0361 -0.2398
 1330TIP3   OH225548   3.367   5.543   7.280 -0.7535  0.5242  0.5983
 1330TIP3    H125549   3.368   5.606   7.353 -0.3673  1.2858 -0.0524
 1330TIP3    H225550   3.382   5.597   7.202  0.6314 -0.5046  0.1309
 1331TIP3   OH225551   2.288   0.621   7.744 -0.5857 -0.2093  0.1877
 1331TIP3    H125552   2.361   0.672   7.779 -0.8957 -1.1096  2.3218
 1331TIP3    H225553   2.326   0.573   7.670  0.1937  1.5248 -0.5934
 1332TIP3   OH225554   0.930   3.503   2.383  0.4820 -0.2216 -0.0139
 1332TIP3    H125555   0.882   3.559   2.444  0.9408 -1.1326  1.2113
 1332TIP3    H225556   0.906   3.414   2.407  1.8493 -0.6545 -0.1411
 1333TIP3   OH225557   3.389   1.468   2.521 -0.0038 -0.6104  0.7238
 1333TIP3    H125558   3.472   1.426   2.546 -0.2811 -1.8360 -0.3362
 1333TIP3    H225559   3.334   1.397   2.488 -0.6926  0.4894 -0.6405
 1334TIP3   OH225560   0.786   1.313   2.527 -0.0600  0.6287  0.3381
 1334TIP3    H125561   0.804   1.250   2.597 -1.0627  0.1263  0.1567
 1334TIP3    H225562   0.873   1.337   2.494  0.3949  0.3585  1.2916
 1335TIP3   OH225563   4.150   2.991   0.194  0.0947 -0.2161 -0.4561
 1335TIP3    H125564   4.123   2.932   0.264 -1.6638  1.0869  0.0196
 1335TIP3    H225565   4.205   3.056   0.238  1.8367 -1.2830 -0.9395
 1336TIP3   OH225566   0.325   5.300   1.791  0.0089  0.1134  0.3320
 1336TIP3    H125567   0.407   5.292   1.742  1.0590  2.2589  1.5817
 1336TIP3    H225568   0.343   5.255   1.874  0.4525  1.7422  1.1523
 1337TIP3   OH225569   5.221   3.619   2.011 -0.0907  0.9954 -0.8170
 1337TIP3    H125570   5.145   3.576   1.972 -1.8395  3.2163 -0.0675
 1337TIP3    H225571   5.207   3.611   2.106  1.2680  0.4202 -0.6362
 1338TIP3   OH225572   5.335   5.177   7.902 -0.2120  0.5947 -0.4407
 1338TIP3    H125573   5.264   5.225   7.945  0.9045 -0.0486  2.3713
 1338TIP3    H225574   5.297   5.092   7.881 -0.3252  0.2578  1.0353
 1339TIP3   OH225575   0.439   4.581   7.023 -0.0362 -0.7542  0.5541
 1339TIP3    H125576   0.521   4.568   6.975 -0.4349  0.7748 -0.6210
 1339TIP3    H225577   0.465   4.615   7.108  0.5438  2.1954 -0.6889
 1340TIP3   OH225578   3.170   3.692   0.898  0.2188 -0.2782 -0.3312
 1340TIP3    H125579   3.237   3.636   0.936  0.8019 -0.2894 -1.3395
 1340TIP3    H225580   3.219   3.752   0.841 -0.3964  1.1526  0.5802
 1341TIP3   OH225581   4.287   3.655   7.969 -0.1328 -0.1770  0.9363
 1341TIP3    H125582   4.280   3.613   7.883  1.1396 -0.1673  0.8171
 1341TIP3    H225583   4.222   3.609   8.023 -1.9823  0.7626 -0.3596
 1342TIP3   OH225584   0.410   5.946   0.333  0.0248  0.6280  0.0095
 1342TIP3    H125585   0.362   5.931   0.251  0.7307  0.6097 -0.4097
 1342TIP3    H225586   0.343   5.976   0.395 -0.4607  0.9496 -0.6594
 1343TIP3   OH225587   3.804   1.383   7.767  0.0201 -0.2584 -0.0594
 1343TIP3    H125588   3.714   1.382   7.734  0.1238  1.0479 -0.4626
 1343TIP3    H225589   3.857   1.412   7.692  0.8020 -1.1158  0.1442
 1344TIP3   OH225590   2.058   2.379   0.223 -0.5222 -0.3666  0.5821
 1344TIP3    H125591   1.977   2.333   0.244 -1.6637  1.4107  0.2900
 1344TIP3    H225592   2.046   2.466   0.262  1.2446 -0.0586  0.5088
 1345TIP3   OH225593   1.671   1.067   8.078  0.0064 -0.2886 -0.6198
 1345TIP3    H125594   1.696   1.143   8.025  0.5518  0.8104  1.1377
 1345TIP3    H225595   1.575   1.065   8.072  0.0376  0.0076 -1.3808
 1346TIP3   OH225596   4.508   2.470   2.065  0.2544 -0.0972  0.3430
 1346TIP3    H125597   4.451   2.423   2.126  0.6821  0.1389  0.9272
 1346TIP3    H225598   4.588   2.488   2.115  0.3857  0.6011 -0.1092
 1347TIP3   OH225599   3.247   0.351   8.318 -0.1757  0.4672  0.2657
 1347TIP3    H125600   3.189   0.367   8.244 -0.0859  0.5046  0.2035
 1347TIP3    H225601   3.318   0.413   8.307 -0.3356  0.7042  0.5725
 1348TIP3   OH225602   5.952   6.411   7.533 -0.0002 -0.5718 -0.4469
 1348TIP3    H125603   5.857   6.402   7.530 -0.0643  0.3281 -1.8151
 1348TIP3    H225604   5.985   6.326   7.504 -0.3287 -1.4995  1.7487
 1349TIP3   OH225605   0.087   5.826   1.574  0.3255 -0.4216  0.2970
 1349TIP3    H125606   0.064   5.917   1.589 -1.8564 -0.7948 -0.3875
 1349TIP3    H225607   0.161   5.810   1.632 -1.1030  0.9930  2.6767
 1350TIP3   OH225608   3.277   3.939   1.101  0.7037 -0.2832  0.4164
 1350TIP3    H125609   3.352   3.973   1.052 -0.6473 -0.1261 -1.6684
 1350TIP3    H225610   3.250   3.862   1.052 -1.8988  0.9844 -0.2784
 1351TIP3   OH225611   5.303   4.716   7.869 -0.7511  0.3001 -0.0166
 1351TIP3    H125612   5.297   4.758   7.955  0.1892  2.2702 -0.8688
 1351TIP3    H225613   5.341   4.782   7.812 -1.2579 -0.9991 -1.9582
 1352TIP3   OH225614   2.917   4.121   1.828 -0.2020  0.0663 -0.3793
 1352TIP3    H125615   2.892   4.044   1.776 -0.3868  0.3876 -0.7776
 1352TIP3    H225616   3.009   4.107   1.849 -0.7560 -1.3110  1.4009
 1353TIP3   OH225617   0.470   3.833   7.203 -0.1748 -0.4769 -0.5780
 1353TIP3    H125618   0.551   3.815   7.154  0.1882 -0.3879 -0.0130
 1353TIP3    H225619   0.404   3.846   7.135  0.4853  0.3882 -1.0713
 1354TIP3   OH225620   0.816   2.861   8.408  0.0561  0.2599  0.3361
 1354TIP3    H125621   0.895   2.875   8.462 -0.8683  2.3411  1.2727
 1354TIP3    H225622   0.750   2.917   8.449 -1.6610 -0.7353 -0.9807
 1355TIP3   OH225623   0.257   1.917   0.733  0.2652  0.3567  0.5473
 1355TIP3    H125624   0.315   1.986   0.700  1.7715 -0.7838  0.7041
 1355TIP3    H225625   0.304   1.836   0.716 -1.1905 -0.6133  0.9432
 1356TIP3   OH225626   3.960   6.210   7.292 -0.0206  0.3257  0.0201
 1356TIP3    H125627   3.956   6.114   7.285  0.9100  0.2309  0.5388
 1356TIP3    H225628   4.053   6.230   7.283 -0.1814  1.1656  0.1506
 1357TIP3   OH225629   0.148   6.784   8.563 -0.2222  0.8819  0.2488
 1357TIP3    H125630   0.112   6.723   8.499 -0.2143  1.1282  0.0070
 1357TIP3    H225631   0.072   6.816   8.612 -0.1929  0.4491  0.5805
 1358TIP3   OH225632   3.988   0.350   0.111 -0.1062 -0.0546 -0.0830
 1358TIP3    H125633   4.052   0.365   0.041  0.5001 -0.4332  0.3879
 1358TIP3    H225634   3.944   0.435   0.122  0.4658  0.2654 -0.2552
 1359TIP3   OH225635   0.259   5.273   1.290 -0.2571  0.3791  0.3863
 1359TIP3    H125636   0.183   5.218   1.310  1.0832 -1.5546  0.3735
 1359TIP3    H225637   0.254   5.287   1.195  1.3523 -2.9882 -0.3522
 1360TIP3   OH225638   4.693   5.562   1.275 -0.3277 -0.0867  0.4135
 1360TIP3    H125639   4.706   5.531   1.365 -1.6553 -0.9507  0.3310
 1360TIP3    H225640   4.654   5.488   1.229  1.7991 -0.2006 -1.3258
 1361TIP3   OH225641   0.829   4.774   0.048 -0.0761 -0.0488 -0.0990
 1361TIP3    H125642   0.775   4.781  -0.031 -0.6269 -1.8034  0.0769
 1361TIP3    H225643   0.915   4.745   0.016 -0.1548 -0.2784 -0.1048
 1362TIP3   OH225644   3.037   3.619   1.735  0.1842  0.1491 -0.3508
 1362TIP3    H125645   3.061   3.705   1.768 -4.4304  0.9716  1.5864
 1362TIP3    H225646   2.951   3.631   1.696 -0.0091 -3.3522 -1.4113
 1363TIP3   OH225647   0.441   4.431   0.409 -0.2333 -0.2463  0.4123
 1363TIP3    H125648   0.393   4.384   0.341  1.4068 -0.8572 -0.3797
 1363TIP3    H225649   0.383   4.503   0.434 -1.3214 -0.6363 -0.8649
 1364TIP3   OH225650   3.826   3.231   0.246 -0.1649 -0.0839  0.4476
 1364TIP3    H125651   3.800   3.323   0.243  0.1047  0.0376  1.3261
 1364TIP3    H225652   3.792   3.200   0.330  0.7122 -0.4755  0.6676
 1365TIP3   OH225653   0.592   4.114   1.286 -1.0227 -0.2251  0.4154
 1365TIP3    H125654   0.516   4.073   1.326 -1.5095 -0.6082 -0.8357
 1365TIP3    H225655   0.561   4.200   1.256 -1.1484 -0.6117 -0.6152
 1366TIP3   OH225656   4.345   0.320   0.603  0.7764  0.5035  0.0858
 1366TIP3    H125657   4.283   0.360   0.541  1.0712  0.3896 -0.2831
 1366TIP3    H225658   4.299   0.243   0.636  1.9987 -1.6558 -2.8316
 1367TIP3   OH225659   1.331   1.479   0.864  0.2851 -0.5488 -0.2601
 1367TIP3    H125660   1.302   1.509   0.951  0.0755 -0.4161 -0.3733
 1367TIP3    H225661   1.357   1.559   0.818 -1.5736 -0.3276 -1.0457
 1368TIP3   OH225662   2.680   4.823   1.761  0.2361  0.0728 -0.7246
 1368TIP3    H125663   2.634   4.746   1.793  0.3139  0.3558  0.0883
 1368TIP3    H225664   2.630   4.897   1.794  0.1822  0.3861 -1.4688
 1369TIP3   OH225665   3.193   4.894   2.261  0.5210  0.8275  0.5529
 1369TIP3    H125666   3.158   4.827   2.319  0.0587  1.9947  1.6514
 1369TIP3    H225667   3.272   4.925   2.304  1.3361  0.2661 -0.4820
 1370TIP3   OH225668   5.376   4.623   7.590  0.2046 -0.2956  0.1723
 1370TIP3    H125669   5.346   4.609   7.680  0.1972  0.5266  0.3007
 1370TIP3    H225670   5.470   4.607   7.594 -0.1412 -3.0720 -0.2694
 1371TIP3   OH225671   1.918   1.620   6.908 -0.2886 -0.1012 -0.7911
 1371TIP3    H125672   1.856   1.648   6.840  1.7845  1.0520 -2.3603
 1371TIP3    H225673   1.931   1.698   6.962 -2.2140 -1.1191  1.2827
 1372TIP3   OH225674   1.574   1.314   8.603  0.3848 -0.1944 -0.3458
 1372TIP3    H125675   1.543   1.240   8.551 -0.0794 -0.7276  0.6693
 1372TIP3    H225676   1.667   1.296   8.618  0.2797 -0.5630 -0.1282
 1373TIP3   OH225677   0.616   0.277   8.162 -0.3307  0.5964  0.6489
 1373TIP3    H125678   0.626   0.205   8.100  1.3384 -1.0952  2.7742
 1373TIP3    H225679   0.558   0.243   8.230 -0.5918  1.7465  1.0259
 1374TIP3   OH225680   4.791   3.575   8.482  0.0771 -0.1006  0.5958
 1374TIP3    H125681   4.789   3.481   8.464 -1.0830  0.0675 -0.2807
 1374TIP3    H225682   4.788   3.616   8.395 -1.7759  0.7274  0.9910
 1375TIP3   OH225683   5.375   6.548   1.185  0.6566 -0.6460 -0.1043
 1375TIP3    H125684   5.406   6.511   1.268  0.0188 -1.7129 -0.3208
 1375TIP3    H225685   5.378   6.475   1.124  0.9795  0.1000 -0.9907
 1376TIP3   OH225686   5.177   2.250   1.757  0.6034 -0.0051  0.2752
 1376TIP3    H125687   5.245   2.305   1.794 -0.0429  0.5459  0.6661
 1376TIP3    H225688   5.212   2.161   1.762  0.6714  0.0948  1.9145
 1377TIP3   OH225689   4.429   3.576   0.174 -0.0976 -0.3519  0.3561
 1377TIP3    H125690   4.337   3.558   0.154 -0.3723  0.5438  0.7514
 1377TIP3    H225691   4.431   3.670   0.193  0.6873 -0.5724  1.4759
 1378TIP3   OH225692   5.231   0.055   8.212  0.5765  0.1285 -0.6005
 1378TIP3    H125693   5.154   0.005   8.240  0.5608  0.5979  0.2296
 1378TIP3    H225694   5.258   0.014   8.130 -1.5345  0.9709 -1.7915
 1379TIP3   OH225695   3.433   5.751   8.067 -0.1144  0.7880 -0.2456
 1379TIP3    H125696   3.463   5.696   8.140 -0.1411  1.3940  0.2265
 1379TIP3    H225697   3.513   5.767   8.016  0.2192  1.6635  0.5229
 1380TIP3   OH225698   0.458   0.461   2.385 -0.1114  0.7999 -0.7075
 1380TIP3    H125699   0.426   0.377   2.354 -1.6915  1.6609 -1.4810
 1380TIP3    H225700   0.472   0.513   2.306  0.4568  1.4225 -0.2174
 1381TIP3   OH225701   5.457   4.784   2.447  0.5801 -0.1163 -0.0461
 1381TIP3    H125702   5.414   4.859   2.488 -1.2515 -1.5100  0.7361
 1381TIP3    H225703   5.518   4.753   2.513  1.6695  0.8978 -0.5380
 1382TIP3   OH225704   0.740   5.378   8.072 -0.0448  0.1079  0.2887
 1382TIP3    H125705   0.773   5.385   7.982 -0.5852  0.1855  0.0927
 1382TIP3    H225706   0.737   5.468   8.103  1.3491 -0.0048  0.8413
 1383TIP3   OH225707   5.057   4.577   1.574  0.2566 -0.7106  0.1637
 1383TIP3    H125708   5.027   4.491   1.604  1.8408 -1.5383 -0.5259
 1383TIP3    H225709   5.054   4.571   1.479  2.0231 -0.6580  0.0694
 1384TIP3   OH225710   3.251   3.403   0.100 -0.2196  0.2276 -0.0720
 1384TIP3    H125711   3.286   3.383   0.187  1.1889  0.1085 -0.6474
 1384TIP3    H225712   3.326   3.437   0.051 -0.6614 -0.9795 -1.6684
 1385TIP3   OH225713   2.655   2.778   2.601 -0.1161 -0.0553 -0.9240
 1385TIP3    H125714   2.628   2.690   2.576  0.3672  0.0417 -1.8641
 1385TIP3    H225715   2.711   2.765   2.678 -1.8246 -0.3486  0.3323
 1386TIP3   OH225716   6.802   4.487   7.422  0.6065 -0.4281  0.0890
 1386TIP3    H125717   6.826   4.456   7.334  0.4079 -0.9178  0.2056
 1386TIP3    H225718   6.713   4.456   7.435  0.0348  1.0401 -0.1779
 1387TIP3   OH225719   5.047   4.686   7.742 -0.3322  0.2750  0.3003
 1387TIP3    H125720   5.132   4.679   7.785  0.5565  0.0116 -1.3976
 1387TIP3    H225721   5.049   4.620   7.673 -1.2661  1.3510 -0.8050
 1388TIP3   OH225722   6.073   4.846   1.424 -0.2151 -0.9978 -0.1037
 1388TIP3    H125723   5.992   4.809   1.460 -1.2754  0.7468 -0.5906
 1388TIP3    H225724   6.063   4.836   1.329  0.2206 -0.9185 -0.1582
 1389TIP3   OH225725   2.555   4.920   8.402 -0.6310 -0.4212  0.0732
 1389TIP3    H125726   2.540   4.830   8.372  1.8051 -1.2268  1.0506
 1389TIP3    H225727   2.572   4.912   8.495  0.3223  0.9724  0.0432
 1390TIP3   OH225728   1.083   6.015   8.331 -0.2005 -1.0370  0.3046
 1390TIP3    H125729   1.018   6.068   8.285  0.1170 -1.3643 -0.5428
 1390TIP3    H225730   1.043   5.928   8.335 -0.7126 -0.7659  1.6742
 1391TIP3   OH225731   2.380   4.676   0.920  0.0042 -0.0507 -0.1726
 1391TIP3    H125732   2.337   4.653   1.002 -0.2613  0.6553 -0.0996
 1391TIP3    H225733   2.465   4.633   0.924 -0.7698 -1.6887 -0.4287
 1392TIP3   OH225734   3.631   6.354   0.553 -0.3758 -0.1131  0.1962
 1392TIP3    H125735   3.686   6.329   0.627  1.6577  0.4302 -1.0665
 1392TIP3    H225736   3.542   6.333   0.581  0.3851 -0.3935  2.5749
 1393TIP3   OH225737   1.526   1.142   1.677 -0.1283  0.2614  0.5704
 1393TIP3    H125738   1.608   1.169   1.719  0.5458 -0.0003 -0.5362
 1393TIP3    H225739   1.475   1.223   1.670 -0.3765  0.2548  2.1298
 1394TIP3   OH225740   0.790   6.680   1.186 -0.2778  0.5108  0.5873
 1394TIP3    H125741   0.772   6.693   1.093 -0.2812 -0.1252  0.4961
 1394TIP3    H225742   0.805   6.769   1.220  1.1188  0.6590 -0.3041
 1395TIP3   OH225743   5.357   2.728   1.625  0.3379  0.3622  0.1643
 1395TIP3    H125744   5.285   2.691   1.573  0.0092  1.6232 -0.3114
 1395TIP3    H225745   5.402   2.652   1.661 -0.0510 -0.5112 -1.1334
 1396TIP3   OH225746   3.938   2.790   0.055 -0.9021 -0.2226 -0.1738
 1396TIP3    H125747   4.022   2.757   0.022 -0.8252  2.7408 -3.5749
 1396TIP3    H225748   3.962   2.859   0.117 -0.9059 -0.6723  0.3372
 1397TIP3   OH225749   0.716   1.369   8.473  0.3873  0.2103 -0.2622
 1397TIP3    H125750   0.630   1.388   8.510  1.0187  0.0719  1.3651
 1397TIP3    H225751   0.727   1.432   8.403 -1.1437  0.0553 -0.6713
 1398TIP3   OH225752   5.642   2.297   2.323 -0.1424 -0.4981 -0.6834
 1398TIP3    H125753   5.729   2.292   2.285  1.3708 -0.2579  2.5056
 1398TIP3    H225754   5.640   2.381   2.369 -0.5798 -2.1257  2.5050
 1399TIP3   OH225755   2.128   0.908   7.855 -0.5819 -0.3509 -0.3345
 1399TIP3    H125756   2.118   0.984   7.798  0.8383  0.2114  0.1341
 1399TIP3    H225757   2.151   0.837   7.795 -0.7013 -0.1389 -0.6376
 1400TIP3   OH225758   4.288   0.644   7.535  0.0489  0.7701  0.2612
 1400TIP3    H125759   4.299   0.682   7.448 -2.0704  0.3509 -0.2313
 1400TIP3    H225760   4.303   0.551   7.522 -0.4228  0.6871  0.3082
 1401TIP3   OH225761   2.667   6.231   7.680 -0.8479 -0.2597 -0.7631
 1401TIP3    H125762   2.685   6.157   7.737 -0.6516 -0.8136 -1.5292
 1401TIP3    H225763   2.600   6.281   7.726 -0.4643 -0.5192  0.0949
 1402TIP3   OH225764   5.121   1.983   2.237  0.5357  0.2753  0.5952
 1402TIP3    H125765   5.152   1.941   2.157 -1.3012 -3.2180  1.4916
 1402TIP3    H225766   5.181   1.953   2.305 -0.7701 -0.9690  1.2539
 1403TIP3   OH225767   4.115   0.834   7.690 -0.1823 -0.1222 -0.8154
 1403TIP3    H125768   4.148   0.758   7.642  0.4941  0.0465 -0.6251
 1403TIP3    H225769   4.193   0.886   7.710 -0.5051  0.0262  0.0979
 1404TIP3   OH225770   1.224   4.691   2.415  0.2842  0.2307  0.6484
 1404TIP3    H125771   1.184   4.620   2.464  0.2864  1.1176  1.9959
 1404TIP3    H225772   1.318   4.674   2.421  0.3362  0.8104  1.7592
 1405TIP3   OH225773   1.718   0.956   2.828  0.2247 -0.3044  0.0735
 1405TIP3    H125774   1.715   0.888   2.895 -0.5991 -0.7815 -0.4439
 1405TIP3    H225775   1.647   1.016   2.851  0.0742 -0.3551 -0.2557
 1406TIP3   OH225776   6.210   2.941   8.540 -0.1640  0.6185 -0.6064
 1406TIP3    H125777   6.252   3.014   8.585  2.1617 -0.6756 -0.5590
 1406TIP3    H225778   6.129   2.927   8.590  0.5766  1.5309  0.9382
 1407TIP3   OH225779   3.293   1.254   2.353 -0.5474  0.8125 -0.0628
 1407TIP3    H125780   3.352   1.190   2.314  0.2562  0.3651  1.7611
 1407TIP3    H225781   3.219   1.202   2.385 -0.2943  0.8890  0.6689
 1408TIP3   OH225782   3.970   5.087   6.902 -0.6178 -0.7568 -0.3280
 1408TIP3    H125783   3.897   5.048   6.854 -0.4713 -0.7503 -0.5597
 1408TIP3    H225784   4.045   5.031   6.881 -0.5463 -0.7368 -0.1276
 1409TIP3   OH225785   3.649   1.247   8.051  0.4210  0.0099  0.1086
 1409TIP3    H125786   3.717   1.232   7.985 -0.5470  0.2508 -0.9711
 1409TIP3    H225787   3.583   1.180   8.033 -0.3811  0.7826  0.1152
 1410TIP3   OH225788   5.584   0.912   0.251 -0.0540 -0.1748  0.0685
 1410TIP3    H125789   5.664   0.859   0.252 -0.2339 -0.4848 -0.8462
 1410TIP3    H225790   5.609   0.994   0.294  0.0003 -1.2761  2.3032
 1411TIP3   OH225791   0.208   2.302   2.958 -0.1842  0.3407 -0.1846
 1411TIP3    H125792   0.120   2.335   2.973 -0.4756 -1.4633  3.0695
 1411TIP3    H225793   0.202   2.208   2.978  2.0774 -0.2210 -1.7884
 1412TIP3   OH225794   4.326   1.408   0.977  0.0021  0.2378 -0.3253
 1412TIP3    H125795   4.301   1.484   0.924 -1.5316 -0.4305 -0.6354
 1412TIP3    H225796   4.250   1.349   0.971  0.1489 -0.2730  1.8488
 1413TIP3   OH225797   2.654   0.927   2.466 -0.5108 -0.0477  0.1275
 1413TIP3    H125798   2.616   0.936   2.379 -0.1673  1.6156  0.1222
 1413TIP3    H225799   2.720   0.858   2.456 -0.9234 -0.3223 -0.7652
 1414TIP3   OH225800   6.261   2.800   1.300 -0.4956  0.0208  0.4789
 1414TIP3    H125801   6.201   2.872   1.281 -1.4033 -0.4399  1.4932
 1414TIP3    H225802   6.223   2.756   1.376  0.5343 -0.9753  0.4507
 1415TIP3   OH225803   0.257   0.003   0.620  0.6654 -0.4962  0.3014
 1415TIP3    H125804   0.284  -0.029   0.534 -2.8490  0.5023 -1.3267
 1415TIP3    H225805   0.202  -0.066   0.655  2.1546 -0.9383  1.9146
 1416TIP3   OH225806   1.886   6.697   3.061  0.2744 -0.1814  0.7388
 1416TIP3    H125807   1.949   6.638   3.020  0.5240  2.0562 -2.4596
 1416TIP3    H225808   1.816   6.706   2.997  0.1433  2.7294  1.1693
 1417TIP3   OH225809   2.170   6.560   7.905  0.0836 -0.4377 -0.2313
 1417TIP3    H125810   2.215   6.587   7.825  0.2422 -0.6388 -0.2109
 1417TIP3    H225811   2.081   6.592   7.894  0.2651  0.0745 -0.2172
 1418TIP3   OH225812   4.721   1.789   2.325  0.0237  0.1438 -0.2154
 1418TIP3    H125813   4.769   1.860   2.367  3.5046 -0.3923 -2.8285
 1418TIP3    H225814   4.734   1.714   2.383 -0.9777  0.8536  0.9755
 1419TIP3   OH225815   5.546   0.292   7.162  0.6342  0.3392 -0.4123
 1419TIP3    H125816   5.527   0.351   7.235 -0.9059 -0.5027 -0.0878
 1419TIP3    H225817   5.559   0.207   7.203 -1.0214 -0.3073 -1.1235
 1420TIP3   OH225818   0.825   1.077   1.575 -0.7578  0.8500 -0.5122
 1420TIP3    H125819   0.789   1.106   1.659  2.0343  2.6854  0.1741
 1420TIP3    H225820   0.821   1.154   1.519  0.5673  0.6684 -0.8938
 1421TIP3   OH225821   5.378   1.512   1.704 -0.3638 -0.0404  0.3741
 1421TIP3    H125822   5.412   1.433   1.745 -2.5699 -0.9605  0.5644
 1421TIP3    H225823   5.289   1.522   1.739 -1.2670  0.7828 -1.9195
 1422TIP3   OH225824   2.660   4.425   7.244 -0.6002 -0.1973 -0.6273
 1422TIP3    H125825   2.566   4.440   7.234 -0.5827  0.1176 -0.3548
 1422TIP3    H225826   2.693   4.415   7.154 -1.1008 -1.6788 -0.6655
 1423TIP3   OH225827   0.907   1.447   1.477 -0.1716 -0.0823  0.0024
 1423TIP3    H125828   0.991   1.413   1.446 -0.0121  0.2422  0.0724
 1423TIP3    H225829   0.883   1.513   1.411 -0.5359 -0.4106 -0.1972
 1424TIP3   OH225830   2.781   0.196   2.196 -0.1456  0.1054  0.0133
 1424TIP3    H125831   2.784   0.107   2.162  0.7586  0.1170  0.0552
 1424TIP3    H225832   2.694   0.203   2.235 -0.7801 -0.2834 -1.2650
 1425TIP3   OH225833   4.437   3.812   7.628 -0.0535 -0.0020  0.1896
 1425TIP3    H125834   4.395   3.726   7.635 -0.4218  0.1821  0.2748
 1425TIP3    H225835   4.374   3.866   7.580  0.7096 -0.1202 -0.9810
 1426TIP3   OH225836   2.018   0.805   0.350  0.0654 -0.7276  0.0331
 1426TIP3    H125837   1.995   0.873   0.413 -0.1427 -0.5462 -0.2337
 1426TIP3    H225838   2.078   0.747   0.397 -0.5254 -0.9071  0.5807
 1427TIP3   OH225839   1.339   6.694   7.994  0.5894  0.0462 -1.0428
 1427TIP3    H125840   1.350   6.751   8.070  1.3358  2.8989 -3.1047
 1427TIP3    H225841   1.296   6.615   8.028  1.6134  0.8411  2.3954
 1428TIP3   OH225842   1.560   2.670   0.554  0.2782  0.0915  0.6495
 1428TIP3    H125843   1.600   2.751   0.523 -0.0161  0.4448  1.1727
 1428TIP3    H225844   1.466   2.690   0.560  0.0110 -0.7168 -0.5476
 1429TIP3   OH225845   4.392   1.405   2.803 -0.0900  0.2073  0.1290
 1429TIP3    H125846   4.378   1.496   2.778  0.9286  0.2239 -0.4535
 1429TIP3    H225847   4.313   1.360   2.774 -1.5642  1.2170  2.3172
 1430TIP3   OH225848   2.459   1.804   7.498  0.2214  0.0501 -0.1955
 1430TIP3    H125849   2.487   1.716   7.523 -2.6470 -0.9327 -0.0675
 1430TIP3    H225850   2.414   1.792   7.414 -1.0342  1.2086  0.2629
 1431TIP3   OH225851   6.530   0.940   1.024  0.0267 -0.1285  0.8189
 1431TIP3    H125852   6.467   0.870   1.010  0.0181  0.2652 -1.5153
 1431TIP3    H225853   6.476   1.016   1.047 -0.0083 -0.6545  2.6673
 1432TIP3   OH225854   6.515   0.572   7.977 -0.5199  0.2034 -0.0694
 1432TIP3    H125855   6.483   0.647   7.927 -2.6526 -0.1583  0.6425
 1432TIP3    H225856   6.547   0.609   8.059  0.0986  0.4887 -0.4329
 1433TIP3   OH225857   2.257   1.248   0.597 -0.0467 -0.1804 -0.0201
 1433TIP3    H125858   2.314   1.316   0.560 -0.0637 -0.1000  0.1016
 1433TIP3    H225859   2.239   1.277   0.686 -0.9508  0.2231 -0.3149
 1434TIP3   OH225860   6.255   6.024   6.415 -0.6894  0.5881 -0.1974
 1434TIP3    H125861   6.333   6.065   6.452 -0.6349 -0.9814  1.5691
 1434TIP3    H225862   6.195   6.096   6.399  0.3369  1.6090  0.4232
 1435TIP3   OH225863   0.969   0.231   2.398  0.3370 -0.1607 -0.1585
 1435TIP3    H125864   1.021   0.167   2.448 -0.1821  0.3032  1.0161
 1435TIP3    H225865   0.883   0.230   2.440  0.0752  0.7108 -0.6449
 1436TIP3   OH225866   1.778   2.993   1.632 -0.6870  0.5529  0.6135
 1436TIP3    H125867   1.737   2.995   1.545 -1.2003  1.2258  0.8688
 1436TIP3    H225868   1.845   2.925   1.624 -0.4803  0.8565 -0.4215
 1437TIP3   OH225869   1.320   5.319   1.117  0.8823  0.2749  0.3415
 1437TIP3    H125870   1.415   5.313   1.106  1.0825  1.8130  1.0075
 1437TIP3    H225871   1.288   5.358   1.035  0.9706  0.8541  0.5811
 1438TIP3   OH225872   6.271   4.420   8.563  0.9287  0.5075  0.0248
 1438TIP3    H125873   6.312   4.438   8.478  0.6147  1.3587  0.0375
 1438TIP3    H225874   6.344   4.403   8.622  1.4009  3.0484  0.2966
 1439TIP3   OH225875   2.390   3.601   2.509  0.8400  0.0521  0.9858
 1439TIP3    H125876   2.411   3.637   2.596 -0.7501  0.4512  1.2260
 1439TIP3    H225877   2.329   3.530   2.528 -0.3633  0.8347  0.1280
 1440TIP3   OH225878   5.341   6.305   8.024 -0.3488  0.3483 -0.1749
 1440TIP3    H125879   5.282   6.239   7.987  1.4575 -0.3484 -1.9984
 1440TIP3    H225880   5.412   6.255   8.062 -0.4353  1.2011  1.1579
 1441TIP3   OH225881   3.815   6.623   7.304 -0.0539 -0.0145  0.6873
 1441TIP3    H125882   3.736   6.671   7.330 -0.6938 -0.2903 -0.6466
 1441TIP3    H225883   3.811   6.541   7.353 -1.0758 -0.4016 -0.0066
 1442TIP3   OH225884   0.923   5.967   1.967 -0.8441 -0.4314  0.5731
 1442TIP3    H125885   0.837   5.998   1.995 -1.7180 -1.9993 -0.2162
 1442TIP3    H225886   0.982   6.040   1.985 -2.2771  0.5681  1.4267
 1443TIP3   OH225887   0.550   3.169   8.052 -0.1497 -0.3503  0.1214
 1443TIP3    H125888   0.538   3.173   7.957 -3.5481 -1.9487  0.3384
 1443TIP3    H225889   0.640   3.199   8.066  0.4657 -0.0066 -3.5598
 1444TIP3   OH225890   5.472   1.973   7.554  0.0288 -0.2046 -0.0993
 1444TIP3    H125891   5.496   1.881   7.560  0.2769 -0.0675  1.4752
 1444TIP3    H225892   5.404   1.976   7.487  0.0181 -1.5321 -0.1705
 1445TIP3   OH225893   6.144   1.766   0.383 -0.5672 -0.3113 -0.2112
 1445TIP3    H125894   6.238   1.770   0.399 -0.2594  0.3995 -2.0460
 1445TIP3    H225895   6.121   1.853   0.350 -1.9665 -0.3372  0.6234
 1446TIP3   OH225896   0.755   1.462   8.027 -0.1450  0.7136 -0.2563
 1446TIP3    H125897   0.737   1.506   7.944  0.6303  1.1951 -0.1778
 1446TIP3    H225898   0.668   1.439   8.061 -0.4636  0.3603 -1.2669
 1447TIP3   OH225899   3.020   5.199   1.175 -0.1582 -0.0428  0.5308
 1447TIP3    H125900   2.941   5.252   1.162 -0.6724 -0.5375  1.4983
 1447TIP3    H225901   2.989   5.109   1.177  0.7320 -0.4296 -1.2397
 1448TIP3   OH225902   2.771   5.639   1.140  0.3562 -0.1698 -0.5851
 1448TIP3    H125903   2.724   5.588   1.074  0.2349  0.0514 -0.6712
 1448TIP3    H225904   2.744   5.601   1.223 -1.0828  0.8437 -0.5427
 1449TIP3   OH225905   2.433   4.999   0.795  0.1765 -0.0528  0.1493
 1449TIP3    H125906   2.479   4.915   0.784 -1.4176 -0.9753  0.2910
 1449TIP3    H225907   2.452   5.024   0.886 -0.6899 -1.1372  0.6589
 1450TIP3   OH225908   0.786   6.263   2.010 -0.4597 -0.6767 -0.3255
 1450TIP3    H125909   0.878   6.277   2.032 -0.3573 -2.3188  0.4177
 1450TIP3    H225910   0.746   6.349   2.021  1.0076  0.1267 -0.8923
 1451TIP3   OH225911   4.836   4.348   1.333  0.0770  0.5321  0.2325
 1451TIP3    H125912   4.926   4.380   1.331  1.1700 -2.0524  2.3781
 1451TIP3    H225913   4.819   4.317   1.243  1.4456  0.7144 -0.0995
 1452TIP3   OH225914   0.826   6.078   1.686 -0.1380 -0.2596  0.3152
 1452TIP3    H125915   0.919   6.100   1.692 -0.8666  3.6715  0.2472
 1452TIP3    H225916   0.788   6.111   1.767 -1.7267  0.2398 -0.5811
 1453TIP3   OH225917   6.366   1.946   0.282 -0.0402  0.1546  0.5212
 1453TIP3    H125918   6.419   2.026   0.281 -0.7207  0.6502  1.5880
 1453TIP3    H225919   6.429   1.875   0.292  0.5604  0.5686 -0.2686
 1454TIP3   OH225920   0.016   0.651   1.288 -0.0784 -0.3978 -0.4827
 1454TIP3    H125921   0.048   0.729   1.242 -0.0511 -0.6378 -0.8781
 1454TIP3    H225922  -0.025   0.685   1.367  1.1570 -0.0777  0.0448
 1455TIP3   OH225923   3.653   1.121   1.458  0.2411 -0.4100  0.8743
 1455TIP3    H125924   3.572   1.100   1.504 -0.7211  0.0507 -0.5286
 1455TIP3    H225925   3.637   1.208   1.420  1.3091 -0.4007  0.4162
 1456TIP3   OH225926   5.255   3.909   2.015 -0.0887  0.2815  0.1125
 1456TIP3    H125927   5.280   3.888   2.105 -1.3553  0.0354  0.4251
 1456TIP3    H225928   5.237   3.825   1.974  0.6465  0.3791 -0.4384
 1457TIP3   OH225929   6.321   1.074   1.133  0.3765 -0.0213  0.3362
 1457TIP3    H125930   6.271   1.027   1.199 -1.2100  1.1154 -0.0127
 1457TIP3    H225931   6.262   1.142   1.100  1.2970 -0.1884 -1.8795
 1458TIP3   OH225932   6.150   1.391   1.799  0.4877 -0.5494 -0.0566
 1458TIP3    H125933   6.212   1.465   1.803  0.3981 -0.4613 -0.2939
 1458TIP3    H225934   6.106   1.394   1.884 -0.9223  0.9070 -0.7814
 1459TIP3   OH225935   1.122   2.066   8.435 -0.2026  0.2013 -0.0185
 1459TIP3    H125936   1.214   2.049   8.453 -0.5300 -0.3121  1.3449
 1459TIP3    H225937   1.121   2.148   8.386  0.9043  0.9552  1.1584
 1460TIP3   OH225938   3.736   5.567   0.870 -0.8495  0.1672 -0.1391
 1460TIP3    H125939   3.769   5.655   0.853 -1.7890  0.7230  0.7844
 1460TIP3    H225940   3.812   5.510   0.861 -0.2599  1.0430 -0.9011
 1461TIP3   OH225941   5.210   2.867   1.849  0.2498  0.1415 -0.7063
 1461TIP3    H125942   5.170   2.936   1.795  1.2656  0.6167 -0.8836
 1461TIP3    H225943   5.253   2.810   1.785 -0.7390 -0.7650 -0.5706
 1462TIP3   OH225944   1.289   4.578   0.349 -0.4640  0.0085 -0.3948
 1462TIP3    H125945   1.292   4.486   0.373  1.5020  0.3791  1.0770
 1462TIP3    H225946   1.292   4.625   0.432  1.2393  1.3740 -1.1557
 1463TIP3   OH225947   1.956   3.896   0.689  0.6885 -0.4529  0.3970
 1463TIP3    H125948   1.881   3.915   0.633  1.4325  0.9121 -0.1928
 1463TIP3    H225949   2.031   3.894   0.630  1.1105 -2.0510  0.9420
 1464TIP3   OH225950   2.369   1.257   2.499  0.1727 -0.6601 -0.0425
 1464TIP3    H125951   2.341   1.326   2.559  3.4243  0.7833  0.0359
 1464TIP3    H225952   2.326   1.178   2.530 -0.4014  0.5727  2.5058
 1465TIP3   OH225953   0.644   5.619   8.610 -0.2256  0.0623 -0.5728
 1465TIP3    H125954   0.572   5.557   8.600 -0.3319  0.2991 -1.3619
 1465TIP3    H225955   0.616   5.696   8.561  0.4763  0.2344 -0.7129
 1466TIP3   OH225956   1.351   2.514   2.702 -0.0753  0.0864 -0.6487
 1466TIP3    H125957   1.416   2.484   2.766 -0.6138 -0.1562 -0.2030
 1466TIP3    H225958   1.346   2.444   2.637  0.4117  0.2946 -0.9144
 1467TIP3   OH225959   3.635   0.294   7.395  0.0888  0.1312  0.2469
 1467TIP3    H125960   3.595   0.368   7.350  1.2208  0.3006 -0.5404
 1467TIP3    H225961   3.708   0.268   7.338  1.5105  0.2855  1.8936
 1468TIP3   OH225962   5.773   3.750   7.795  0.3963 -0.2819  0.4468
 1468TIP3    H125963   5.690   3.711   7.822  1.4567 -0.6652  3.6547
 1468TIP3    H225964   5.830   3.674   7.779  0.8374 -0.0655  0.9470
 1469TIP3   OH225965   2.222   4.278   7.677 -0.2394 -0.3321 -0.3016
 1469TIP3    H125966   2.293   4.281   7.613  0.1963 -0.1705  0.1826
 1469TIP3    H225967   2.143   4.299   7.626  0.2580  0.9467 -0.5744
 1470TIP3   OH225968   3.970   1.446   2.592 -0.2273  0.2098  0.2982
 1470TIP3    H125969   4.000   1.536   2.579 -0.6610  0.2981 -0.1071
 1470TIP3    H225970   3.890   1.439   2.540 -1.4526  0.2676  2.0979
 1471TIP3   OH225971   0.399   0.159   8.347 -0.6009  0.0152 -0.0620
 1471TIP3    H125972   0.392   0.083   8.405 -0.5279 -0.0566 -0.1469
 1471TIP3    H225973   0.327   0.216   8.373 -0.3004  0.1867  0.3980
 1472TIP3   OH225974   3.228   6.371   6.766  0.0576  0.2120 -0.4543
 1472TIP3    H125975   3.214   6.444   6.827  0.4456  0.2767 -0.4395
 1472TIP3    H225976   3.183   6.297   6.806  0.5475  0.1843  0.0537
 1473TIP3   OH225977   1.358   1.200   8.298  0.4705 -0.1281 -0.4409
 1473TIP3    H125978   1.356   1.149   8.218  0.3440 -1.9862  0.6886
 1473TIP3    H225979   1.301   1.152   8.359  2.5661 -0.2370  1.5725
 1474TIP3   OH225980   4.128   4.396   2.216 -0.8784  0.0819  0.2041
 1474TIP3    H125981   4.168   4.322   2.260  1.4710 -0.7487 -2.9285
 1474TIP3    H225982   4.047   4.413   2.264 -0.6867 -3.4094  2.0292
 1475TIP3   OH225983   1.816   3.098   7.122 -0.0702 -0.2351 -0.3652
 1475TIP3    H125984   1.850   3.176   7.166  0.3504 -0.6990  0.1515
 1475TIP3    H225985   1.887   3.034   7.128 -0.6457 -0.8719 -0.2077
 1476TIP3   OH225986   1.217   1.900   2.188  0.4011  0.5668 -0.1825
 1476TIP3    H125987   1.209   1.804   2.186 -2.3396  0.7006 -2.1111
 1476TIP3    H225988   1.168   1.929   2.111 -1.4684  3.6534  1.9468
 1477TIP3   OH225989   5.140   2.935   0.782 -0.3766  0.0793  0.3145
 1477TIP3    H125990   5.193   2.885   0.721  0.7323  0.4931  0.9040
 1477TIP3    H225991   5.090   2.869   0.830 -0.8044 -0.2821 -0.6083
 1478TIP3   OH225992   2.220   1.569   7.597 -0.2732  0.0557  0.3200
 1478TIP3    H125993   2.234   1.477   7.620 -0.4333  0.3613  1.7332
 1478TIP3    H225994   2.232   1.572   7.502  1.1324 -1.1564  0.4217
 1479TIP3   OH225995   4.294   3.251   2.125 -0.0499 -0.1207  0.2337
 1479TIP3    H125996   4.205   3.285   2.128 -0.8934 -1.7976 -2.2993
 1479TIP3    H225997   4.315   3.232   2.216 -2.2590  0.3456  0.9132
 1480TIP3   OH225998   3.104   4.515   0.083 -0.3768  0.6002  0.4283
 1480TIP3    H125999   3.198   4.521   0.098 -0.2762  0.0426  0.0731
 1480TIP3    H226000   3.071   4.465   0.158 -0.4102  0.8968  0.6132
 1481TIP3   OH226001   5.470   3.869   0.291  0.1131 -0.3477 -0.5515
 1481TIP3    H126002   5.379   3.888   0.266 -0.1138 -0.3284  0.2433
 1481TIP3    H226003   5.472   3.884   0.386  1.0441  0.0031 -0.6155
 1482TIP3   OH226004   1.122   1.153   0.831 -0.0156  0.5221  0.4625
 1482TIP3    H126005   1.059   1.224   0.843 -2.0248 -0.8448 -1.1636
 1482TIP3    H226006   1.202   1.184   0.872 -0.4867  4.1292 -1.0046
 1483TIP3   OH226007   1.392   4.260   1.659 -0.0215  0.0413  0.0627
 1483TIP3    H126008   1.343   4.265   1.741 -0.9100 -0.7393 -0.4030
 1483TIP3    H226009   1.358   4.333   1.606 -4.0808 -2.9468 -1.9983
 1484TIP3   OH226010   3.561   2.700   8.118 -0.2343 -0.6413  0.3313
 1484TIP3    H126011   3.477   2.723   8.158 -1.1660 -1.5618 -1.0099
 1484TIP3    H226012   3.616   2.776   8.135 -0.8341 -0.6039  2.5292
 1485TIP3   OH226013   0.723   6.166   8.270  0.3790  0.0515 -1.2349
 1485TIP3    H126014   0.652   6.122   8.221  0.0230 -0.5661 -0.1971
 1485TIP3    H226015   0.685   6.250   8.296  0.5356  0.3399 -1.9334
 1486TIP3   OH226016   3.212   3.546   0.432  0.3087  0.1105  0.3667
 1486TIP3    H126017   3.182   3.559   0.342 -0.3500  2.7972  0.8568
 1486TIP3    H226018   3.131   3.531   0.482  0.5785 -0.4633  0.6378
 1487TIP3   OH226019   4.521   6.385   2.477 -0.0127 -0.0382  0.2985
 1487TIP3    H126020   4.600   6.353   2.432 -0.6160 -1.6888  0.3589
 1487TIP3    H226021   4.525   6.346   2.564  0.4871  2.1252  1.3158
 1488TIP3   OH226022   4.234   3.410   1.530  0.2312  0.4006  0.2193
 1488TIP3    H126023   4.150   3.412   1.576 -0.0013  1.2548 -0.2217
 1488TIP3    H226024   4.262   3.501   1.527  2.2985 -0.0641  2.3255
 1489TIP3   OH226025   2.463   6.848   6.604  0.0463  0.3557  0.3267
 1489TIP3    H126026   2.485   6.933   6.643 -0.6731 -0.2954  2.2802
 1489TIP3    H226027   2.525   6.787   6.643 -0.5608 -0.3025  0.2757
 1490TIP3   OH226028   1.341   2.756   1.401 -0.3600  0.5990  0.4722
 1490TIP3    H126029   1.309   2.785   1.486 -0.2192  0.3757  0.6029
 1490TIP3    H226030   1.378   2.669   1.418 -0.9025  0.2822  0.0576
 1491TIP3   OH226031   6.081   5.630   1.318 -0.3792 -0.2517  0.0016
 1491TIP3    H126032   6.048   5.571   1.387  1.4989  0.9894  2.0589
 1491TIP3    H226033   6.006   5.687   1.299 -1.6324 -2.0240 -0.6646
 1492TIP3   OH226034   2.819   0.926   7.457 -0.0414  0.9066 -0.2330
 1492TIP3    H126035   2.769   0.868   7.400  0.6443 -0.2841  0.3503
 1492TIP3    H226036   2.845   0.872   7.531 -2.1700  2.7590  2.0631
 1493TIP3   OH226037   2.428   3.030   7.852 -0.6967  0.0070 -0.0720
 1493TIP3    H126038   2.478   3.008   7.773 -0.1480 -0.5100  0.4074
 1493TIP3    H226039   2.479   3.099   7.894 -0.8656  0.1186 -0.0526
 1494TIP3   OH226040   0.793   2.197   1.800  0.3800 -0.2125 -0.1151
 1494TIP3    H126041   0.846   2.148   1.737 -0.5565 -0.9203 -0.3722
 1494TIP3    H226042   0.704   2.192   1.766  0.0999  0.7858  0.4194
 1495TIP3   OH226043   4.537   2.446   0.025 -0.9225  0.5363  0.0032
 1495TIP3    H126044   4.592   2.371   0.001  0.4247  1.6089 -0.4040
 1495TIP3    H226045   4.583   2.487   0.097 -1.8974  0.7241  0.5364
 1496TIP3   OH226046   4.784   4.705   7.136 -0.0945  0.3124 -0.1138
 1496TIP3    H126047   4.842   4.658   7.077  0.3143  0.5887  0.0589
 1496TIP3    H226048   4.746   4.638   7.193  0.4614  0.1915  0.1140
 1497TIP3   OH226049   6.572   4.064   1.593 -0.5704 -0.6170 -0.4058
 1497TIP3    H126050   6.561   4.002   1.520 -0.9561 -1.3171  0.2324
 1497TIP3    H226051   6.502   4.042   1.653  0.6345 -1.0693  0.8889
 1498TIP3   OH226052   3.594   5.027   8.417  0.2772  1.1135 -0.1967
 1498TIP3    H126053   3.527   4.966   8.387  1.9390 -1.0764  0.3459
 1498TIP3    H226054   3.604   5.089   8.344 -1.0952  0.4366 -0.9923
 1499TIP3   OH226055   4.077   1.841   1.333 -0.7183  0.1495  0.1536
 1499TIP3    H126056   4.097   1.784   1.407 -0.6076 -1.6561 -1.2188
 1499TIP3    H226057   4.155   1.838   1.278 -0.8157  1.4495 -0.0918
 1500TIP3   OH226058   6.372   1.693   0.564 -0.3945  0.1441  0.2460
 1500TIP3    H126059   6.439   1.626   0.555  0.8314  1.2498  0.7568
 1500TIP3    H226060   6.344   1.688   0.655 -1.2679 -0.5359 -0.0496
 1501TIP3   OH226061   4.528   0.054   0.675  0.8999 -0.1287 -0.3822
 1501TIP3    H126062   4.528   0.145   0.702  0.9358  0.2015 -1.4552
 1501TIP3    H226063   4.506   0.005   0.755  0.5887  0.8281  0.1332
 1502TIP3   OH226064   0.722   6.770   2.236  0.0236  0.3173  0.0500
 1502TIP3    H126065   0.765   6.743   2.317  1.7473 -1.7917 -1.4553
 1502TIP3    H226066   0.630   6.745   2.249  0.2391  0.0835  1.3560
 1503TIP3   OH226067   4.888   1.741   2.121  0.1132  0.2655  0.2659
 1503TIP3    H126068   4.926   1.655   2.139 -2.1690 -1.2267 -1.3627
 1503TIP3    H226069   4.809   1.743   2.175 -1.8027 -0.3442 -2.2828
 1504TIP3   OH226070   6.840   2.681   8.057 -0.0461 -0.2472  0.1982
 1504TIP3    H126071   6.932   2.695   8.080  0.3809 -0.9575 -0.9999
 1504TIP3    H226072   6.831   2.586   8.053 -1.4465 -0.2802  2.6006
 1505TIP3   OH226073   6.215   3.453   2.186  0.0097 -0.0658 -0.2239
 1505TIP3    H126074   6.163   3.373   2.182 -1.5588  0.9752 -1.8792
 1505TIP3    H226075   6.267   3.452   2.106 -0.5673  0.9001 -0.6218
 1506TIP3   OH226076   5.470   3.932   1.206 -0.1164 -0.9040  0.5876
 1506TIP3    H126077   5.517   4.002   1.252 -0.9444  0.4126 -0.5003
 1506TIP3    H226078   5.449   3.869   1.275  0.2503  0.1423  1.6960
 1507TIP3   OH226079   0.273   0.042   7.420  0.2432 -0.1731 -0.3463
 1507TIP3    H126080   0.306  -0.004   7.343 -0.6975 -0.2825 -0.6863
 1507TIP3    H226081   0.179   0.029   7.418 -0.0261  1.5280 -0.3069
 1508TIP3   OH226082   0.248   1.398   8.330 -0.7608 -0.3176  0.2117
 1508TIP3    H126083   0.250   1.303   8.343  0.0806 -0.2288  0.8427
 1508TIP3    H226084   0.155   1.420   8.323 -0.9360 -1.2824 -0.7234
 1509TIP3   OH226085   5.075   3.700   7.578  0.4405 -0.2020  0.3511
 1509TIP3    H126086   5.033   3.689   7.493 -0.9475  1.5470  0.7381
 1509TIP3    H226087   5.169   3.704   7.558  0.0519  2.7491 -1.5177
 1510TIP3   OH226088   3.452   4.266   7.492  0.2279  0.0672  0.1830
 1510TIP3    H126089   3.439   4.202   7.421 -0.6619  1.1490 -0.6634
 1510TIP3    H226090   3.428   4.218   7.572 -0.3157 -0.6931 -0.4210
 1511TIP3   OH226091   5.218   3.051   0.069 -0.0930  0.7777 -0.2079
 1511TIP3    H126092   5.303   3.081   0.101 -0.2057  0.5541  0.3001
 1511TIP3    H226093   5.187   3.124   0.015  0.2657  1.0025 -0.1224
 1512TIP3   OH226094   6.331   6.053   7.547 -0.0400 -0.8169 -0.3024
 1512TIP3    H126095   6.281   6.036   7.467 -0.6920  0.4217 -0.1761
 1512TIP3    H226096   6.289   6.130   7.586  0.0824 -1.5779  1.3931
 1513TIP3   OH226097   5.387   3.273   8.112 -0.2168  0.2138  0.4153
 1513TIP3    H126098   5.469   3.305   8.074 -0.0300 -1.1899 -0.4582
 1513TIP3    H226099   5.318   3.317   8.062  0.0315  0.0249 -0.1035
 1514TIP3   OH226100   0.220   4.858   1.430 -0.1067  0.0499  0.3057
 1514TIP3    H126101   0.184   4.841   1.517 -1.8070  1.0877 -0.1379
 1514TIP3    H226102   0.313   4.877   1.446 -0.1378 -0.8364  1.7450
 1515TIP3   OH226103   5.444   1.243   7.924 -0.3414 -0.0265 -0.4418
 1515TIP3    H126104   5.418   1.331   7.898 -0.5357  0.3316  0.8967
 1515TIP3    H226105   5.383   1.185   7.879 -1.4508  0.6378  0.1807
 1516TIP3   OH226106   5.678   1.026   2.045 -0.1202  0.1055  0.6238
 1516TIP3    H126107   5.752   1.085   2.060  0.6320 -0.4215 -0.7664
 1516TIP3    H226108   5.639   1.013   2.132  0.1302  2.0382  1.0638
 1517TIP3   OH226109   2.396   1.076   7.994 -0.0498  0.1462 -0.2238
 1517TIP3    H126110   2.306   1.048   7.978  1.0175 -3.6954 -0.4995
 1517TIP3    H226111   2.415   1.047   8.083  1.8552 -2.3874 -1.3326
 1518TIP3   OH226112   6.292   5.389   1.200 -0.1057  0.4059 -0.2151
 1518TIP3    H126113   6.325   5.457   1.259 -0.8362 -0.5243  1.3377
 1518TIP3    H226114   6.262   5.320   1.259 -1.5581 -0.2635 -1.6744
 1519TIP3   OH226115   4.352   6.015   7.523  0.2410 -0.0709 -0.5685
 1519TIP3    H126116   4.370   6.063   7.604 -0.2025 -1.7068  0.5353
 1519TIP3    H226117   4.257   6.003   7.523 -0.0711  1.7746 -2.4617
 1520TIP3   OH226118   3.123   3.778   6.774 -0.0612  0.0425  0.4123
 1520TIP3    H126119   3.168   3.862   6.770  1.4762 -0.7196  0.8747
 1520TIP3    H226120   3.088   3.765   6.686  0.1691  0.9147  0.1864
 1521TIP3   OH226121   3.756   6.477   6.604  0.6886 -0.0185  0.6141
 1521TIP3    H126122   3.818   6.418   6.562 -0.3588 -2.0611  1.7706
 1521TIP3    H226123   3.670   6.449   6.570  0.3201  3.3537 -1.7007
 1522TIP3   OH226124   4.869   5.128   8.633  0.1754  0.3828 -0.6471
 1522TIP3    H126125   4.776   5.145   8.645  0.3292  0.9508 -0.2018
 1522TIP3    H226126   4.909   5.153   8.717  0.4072 -2.4328  0.1974
 1523TIP3   OH226127   6.784   2.105   1.732 -0.0930 -0.3563 -0.4129
 1523TIP3    H126128   6.804   2.068   1.818  1.2502 -1.9608 -1.3429
 1523TIP3    H226129   6.711   2.053   1.700  0.9777 -1.4468 -1.1970
 1524TIP3   OH226130   3.843   4.083   7.999 -0.2764  0.0203  0.1817
 1524TIP3    H126131   3.843   4.092   7.904  0.2745 -0.0436  0.1746
 1524TIP3    H226132   3.896   4.004   8.016 -0.4496 -0.0257  0.5351
 1525TIP3   OH226133   2.189   6.106   7.253 -0.3348  0.4776  0.0014
 1525TIP3    H126134   2.119   6.057   7.296 -0.5626  0.3253 -0.5313
 1525TIP3    H226135   2.269   6.078   7.299 -0.4802 -0.2578 -0.1686
 1526TIP3   OH226136   0.433   2.144   0.616 -0.7973  0.5478 -0.4940
 1526TIP3    H126137   0.448   2.205   0.688 -0.6492 -0.7930  0.6676
 1526TIP3    H226138   0.345   2.165   0.585 -0.6378  1.5317 -0.3189
 1527TIP3   OH226139   1.185   6.458   2.523  0.3428  0.8792 -0.1485
 1527TIP3    H126140   1.111   6.424   2.474  0.2168  2.0823 -0.8139
 1527TIP3    H226141   1.146   6.509   2.594  0.5451  0.8755 -0.0306
 1528TIP3   OH226142   2.593   3.808   2.153  0.4019 -0.0216 -0.6460
 1528TIP3    H126143   2.510   3.855   2.150  0.9103  0.9569 -0.1356
 1528TIP3    H226144   2.656   3.869   2.114  1.1149 -0.1749  0.2188
 1529TIP3   OH226145   2.721   4.215   8.584 -0.3110 -0.2848 -0.2022
 1529TIP3    H126146   2.695   4.302   8.555  2.6886  1.0084  0.5878
 1529TIP3    H226147   2.810   4.205   8.552  0.9006 -1.3329  3.0538
 1530TIP3   OH226148   6.163   6.101   0.246  0.0225 -0.0402 -0.0740
 1530TIP3    H126149   6.188   6.009   0.258  0.2509  0.0829  0.4474
 1530TIP3    H226150   6.074   6.097   0.211  1.6501 -0.5912 -4.8607
 1531TIP3   OH226151   3.553   4.215   8.409 -0.8113 -0.1158  0.5980
 1531TIP3    H126152   3.522   4.132   8.372 -1.3757  1.0090 -1.6347
 1531TIP3    H226153   3.642   4.197   8.437  0.0684 -0.9053 -2.2814
 1532TIP3   OH226154   6.578   0.193   1.759 -0.1215 -0.1914  0.3588
 1532TIP3    H126155   6.578   0.197   1.855 -0.5969  1.1291  0.3264
 1532TIP3    H226156   6.667   0.216   1.734 -0.0899 -0.1732  0.4860
 1533TIP3   OH226157   1.002   4.428   1.887  0.0191 -0.2293  0.2685
 1533TIP3    H126158   0.919   4.399   1.850 -0.4132  0.1211  0.9550
 1533TIP3    H226159   1.043   4.479   1.816 -0.5116 -0.1051  0.0470
 1534TIP3   OH226160   0.285   2.372   2.250  0.4647  0.3060  0.0551
 1534TIP3    H126161   0.310   2.441   2.312  0.9106 -0.8909  1.2789
 1534TIP3    H226162   0.211   2.329   2.291 -0.4008  0.5997 -1.1391
 1535TIP3   OH226163   4.689   1.201   1.822  0.2065  0.6077 -0.2288
 1535TIP3    H126164   4.727   1.214   1.735 -1.0562  1.7639 -0.6502
 1535TIP3    H226165   4.594   1.200   1.807 -0.0440  0.9838  1.1433
 1536TIP3   OH226166   4.435   2.722   2.664  0.2344  0.5385 -0.5084
 1536TIP3    H126167   4.341   2.706   2.678  0.6569 -0.4970  1.4245
 1536TIP3    H226168   4.476   2.636   2.671  1.7430  1.3832  2.6919
 1537TIP3   OH226169   5.618   0.248   0.999 -0.4889 -0.0379 -0.5125
 1537TIP3    H126170   5.662   0.163   0.996  1.4660  0.9035 -0.4196
 1537TIP3    H226171   5.611   0.275   0.908 -0.3506  0.0627 -0.4937
 1538TIP3   OH226172   0.338   0.881   1.163  0.0018  0.1957 -0.3221
 1538TIP3    H126173   0.383   0.797   1.161 -0.6165 -0.1559 -2.9344
 1538TIP3    H226174   0.375   0.930   1.090 -3.4942 -0.0265 -2.5069
 1539TIP3   OH226175   6.314   6.793   8.010 -0.2163 -0.5127  0.4416
 1539TIP3    H126176   6.267   6.723   8.056 -1.7627  0.2348  0.0894
 1539TIP3    H226177   6.299   6.774   7.917  0.0351 -0.1564  0.3278
 1540TIP3   OH226178   1.161   3.357   7.945 -0.3957 -0.5461 -0.3875
 1540TIP3    H126179   1.150   3.262   7.940 -0.5964 -0.4954 -1.0055
 1540TIP3    H226180   1.203   3.381   7.863  2.1624 -0.4151  0.8614
 1541TIP3   OH226181   4.563   1.821   2.594 -0.8875 -0.0797 -0.1153
 1541TIP3    H126182   4.621   1.877   2.542  2.5944 -0.9114  2.4649
 1541TIP3    H226183   4.520   1.881   2.655 -1.3474  0.3522 -0.8552
 1542TIP3   OH226184   4.537   1.588   2.016  0.4262  0.2248 -0.1641
 1542TIP3    H126185   4.472   1.576   2.084 -1.1029  2.6510 -1.0789
 1542TIP3    H226186   4.619   1.556   2.054 -0.5979  0.4149  2.3340
 1543TIP3   OH226187   2.351   3.878   0.779  0.1610  0.8962  0.2529
 1543TIP3    H126188   2.360   3.840   0.692  0.6557  0.0890  0.6405
 1543TIP3    H226189   2.441   3.901   0.804  0.4827 -1.4975  1.6707
 1544TIP3   OH226190   1.589   5.219   0.997 -0.3463  0.1535  0.0376
 1544TIP3    H126191   1.626   5.257   1.076 -0.1503  0.8403 -0.3748
 1544TIP3    H226192   1.653   5.240   0.928 -0.1376 -1.0738 -0.1816
 1545TIP3   OH226193   5.760   3.953   7.146 -0.8445  0.4305  0.3044
 1545TIP3    H126194   5.818   3.931   7.073  0.5684 -1.3345  1.8685
 1545TIP3    H226195   5.792   4.038   7.177 -0.5898  0.5532 -0.2847
 1546TIP3   OH226196   3.586   2.980   1.326 -0.2381 -0.5777  0.0312
 1546TIP3    H126197   3.630   2.895   1.317  0.6332 -0.1178 -0.2569
 1546TIP3    H226198   3.497   2.964   1.294  0.6397 -0.8007 -2.6052
 1547TIP3   OH226199   0.853   2.939   1.904 -0.2885  0.4498  0.0614
 1547TIP3    H126200   0.880   2.983   1.823 -1.3037  0.2931 -0.3805
 1547TIP3    H226201   0.759   2.953   1.908 -0.1815  0.9167  1.5082
 1548TIP3   OH226202   1.131   6.147   1.371 -0.5938  0.3361 -0.5364
 1548TIP3    H126203   1.093   6.218   1.422 -1.4458 -0.5186  0.0614
 1548TIP3    H226204   1.106   6.068   1.419  2.6256 -0.2856  0.3740
 1549TIP3   OH226205   3.580   6.605   0.089 -0.1200 -0.5715  0.1901
 1549TIP3    H126206   3.643   6.551   0.040 -1.3435 -1.5701 -0.3254
 1549TIP3    H226207   3.614   6.604   0.178  1.1306 -0.2692 -0.2559
 1550TIP3   OH226208   6.718   2.676   0.832  0.5283  0.2831  0.3518
 1550TIP3    H126209   6.743   2.754   0.782  1.3082 -0.9969 -1.3797
 1550TIP3    H226210   6.622   2.676   0.830  0.5387  0.1740 -1.3535
 1551TIP3   OH226211   0.510   3.715   6.387  0.0784 -0.4134 -0.7117
 1551TIP3    H126212   0.581   3.651   6.390  0.8342  0.3792 -1.1764
 1551TIP3    H226213   0.462   3.701   6.468  2.0744  0.4946  0.7049
 1552TIP3   OH226214   2.009   2.338   7.810 -0.1209  0.8595 -0.5616
 1552TIP3    H126215   2.060   2.400   7.757 -1.7838  2.0515 -0.8195
 1552TIP3    H226216   1.940   2.390   7.850  0.7271 -0.0941  2.4356
 1553TIP3   OH226217   3.189   0.903   7.639  0.5039 -0.0648 -0.4335
 1553TIP3    H126218   3.114   0.855   7.674  1.3475 -1.5268 -0.5954
 1553TIP3    H226219   3.154   0.949   7.562 -0.5903  0.5821  0.4129
 1554TIP3   OH226220   1.214   2.046   0.189  0.1729  0.3676  0.2685
 1554TIP3    H126221   1.248   1.975   0.134 -0.4003  0.4798 -0.2415
 1554TIP3    H226222   1.187   2.002   0.269 -0.9851 -0.1557 -0.3726
 1555TIP3   OH226223   4.062   4.152   0.916 -0.0899 -0.1467  0.4647
 1555TIP3    H126224   3.974   4.173   0.884  0.3791 -0.2626 -0.9946
 1555TIP3    H226225   4.114   4.228   0.892  0.1288  0.1175  1.7348
 1556TIP3   OH226226   6.557   4.729   2.199  0.0243 -0.2195  1.1975
 1556TIP3    H126227   6.491   4.672   2.238 -1.0345  0.6573  0.7457
 1556TIP3    H226228   6.555   4.707   2.106  0.7854 -0.5932  1.2692
 1557TIP3   OH226229   5.201   5.820   2.391 -0.4870  0.2782  0.0243
 1557TIP3    H126230   5.150   5.776   2.459  1.3702  0.3601  1.5778
 1557TIP3    H226231   5.147   5.893   2.363 -1.3928  0.1376  1.3053
 1558TIP3   OH226232   6.264   6.183   0.844  0.3325 -0.3192 -0.0902
 1558TIP3    H126233   6.327   6.252   0.827 -0.3916  0.7226  1.2121
 1558TIP3    H226234   6.316   6.104   0.854  1.2830  0.2492 -0.4603
 1559TIP3   OH226235   3.419   0.642   1.766  0.5867  0.4863  0.5760
 1559TIP3    H126236   3.501   0.632   1.717  0.3314  1.8455 -0.1925
 1559TIP3    H226237   3.378   0.720   1.729 -0.7076  0.2703  1.4609
 1560TIP3   OH226238   2.765   0.301   1.883 -0.4728  0.0377  0.1911
 1560TIP3    H126239   2.709   0.244   1.829  0.2003  0.9864 -1.5814
 1560TIP3    H226240   2.712   0.318   1.961 -1.6664 -1.0375 -0.3302
 1561TIP3   OH226241   4.430   4.504   0.255  0.0294 -0.3814 -0.3004
 1561TIP3    H126242   4.368   4.432   0.246  0.6162 -0.7553 -1.4961
 1561TIP3    H226243   4.402   4.569   0.190  0.5844 -0.3368 -0.5047
 1562TIP3   OH226244   5.759   5.549   1.805 -0.6006 -0.1973 -0.2767
 1562TIP3    H126245   5.849   5.551   1.773 -0.7307  1.1828 -0.6324
 1562TIP3    H226246   5.765   5.512   1.893  0.3518  0.1552 -0.1841
 1563TIP3   OH226247   0.022   3.572   1.207 -0.1271  0.8800  0.3501
 1563TIP3    H126248   0.077   3.637   1.251  0.5015  0.7808 -0.2863
 1563TIP3    H226249   0.079   3.530   1.143 -0.7911  0.3826  0.0656
 1564TIP3   OH226250   5.498   0.812   8.483 -0.0799 -0.1838 -0.4219
 1564TIP3    H126251   5.453   0.872   8.542  3.4604  1.6178  0.7732
 1564TIP3    H226252   5.477   0.725   8.516 -1.0135  0.6405  1.2923
 1565TIP3   OH226253   4.566   5.981   8.572  0.4005  0.5826  0.5215
 1565TIP3    H126254   4.497   5.918   8.554 -0.3987  1.3008  1.0044
 1565TIP3    H226255   4.574   5.981   8.668  2.7928 -1.2900  0.4213
 1566TIP3   OH226256   1.341   4.486   8.389 -0.0865  0.0617 -0.0603
 1566TIP3    H126257   1.291   4.563   8.417 -0.1165 -0.1631  0.5309
 1566TIP3    H226258   1.330   4.483   8.294 -0.0676  0.7940 -0.0877
 1567TIP3   OH226259   2.121   5.304   2.442  0.2755 -0.1493 -0.8393
 1567TIP3    H126260   2.199   5.294   2.497  0.3929  1.6072 -0.6276
 1567TIP3    H226261   2.125   5.231   2.382  1.4386 -0.7828 -0.0420
 1568TIP3   OH226262   6.352   4.714   8.516  0.6242  0.0768 -0.1462
 1568TIP3    H126263   6.413   4.766   8.463  0.7277 -1.8018 -2.0087
 1568TIP3    H226264   6.353   4.628   8.475 -3.9620  0.1041 -0.9045
 1569TIP3   OH226265   3.006   1.017   0.667 -0.5910 -0.4830 -0.3265
 1569TIP3    H126266   3.049   0.982   0.745 -1.0733 -1.5394 -0.5298
 1569TIP3    H226267   2.920   0.975   0.665 -1.8131  1.7915  0.2330
 1570TIP3   OH226268   4.036   3.074   8.589 -0.4706  0.2215  0.4038
 1570TIP3    H126269   3.954   3.039   8.555 -1.3363  0.9702  1.6610
 1570TIP3    H226270   4.050   3.026   8.671  1.5580 -1.5330 -0.8580
 1571TIP3   OH226271   4.812   3.104   2.469  0.4139 -0.0395 -0.1224
 1571TIP3    H126272   4.817   3.019   2.513  0.0744 -0.9597 -1.8083
 1571TIP3    H226273   4.763   3.087   2.388  0.7042  1.6781 -0.6972
 1572TIP3   OH226274   4.103   5.697   8.104  0.5286  0.2326  0.1124
 1572TIP3    H126275   4.100   5.775   8.159  0.4061  0.1255  0.2574
 1572TIP3    H226276   4.177   5.646   8.139  0.6524  0.3163 -0.0263
 1573TIP3   OH226277   2.556   0.239   1.434 -0.6145  0.0107 -0.5940
 1573TIP3    H126278   2.594   0.324   1.413  0.8799 -1.0196 -2.3028
 1573TIP3    H226279   2.607   0.176   1.383 -2.3799 -1.8205 -0.2317
 1574TIP3   OH226280   5.106   6.019   1.077 -0.2029 -0.3657 -1.0521
 1574TIP3    H126281   5.162   5.958   1.029 -0.0819 -2.3089  1.3355
 1574TIP3    H226282   5.043   5.962   1.123  0.0703  1.2369  1.5177
 1575TIP3   OH226283   2.513   3.909   0.512  0.8695 -0.4578 -0.4130
 1575TIP3    H126284   2.431   3.864   0.490 -0.0636  1.8804 -2.1533
 1575TIP3    H226285   2.573   3.839   0.537 -1.3511 -2.3469 -0.0413
 1576TIP3   OH226286   6.547   1.033   2.889 -0.0496  0.3239  0.0099
 1576TIP3    H126287   6.499   1.062   2.812 -0.4363  0.3059  0.2421
 1576TIP3    H226288   6.516   0.944   2.905  0.2422  0.2210  0.0174
 1577TIP3   OH226289   6.215   4.144   0.022 -0.1496 -0.8321 -0.3866
 1577TIP3    H126290   6.135   4.098   0.047 -0.4968  0.1504  0.3568
 1577TIP3    H226291   6.186   4.216  -0.034  0.1359 -0.1392  0.3243
 1578TIP3   OH226292   6.050   1.902   2.648  0.1311 -0.2841 -0.6511
 1578TIP3    H126293   6.098   1.977   2.682  1.4094 -1.9728  1.5543
 1578TIP3    H226294   6.097   1.878   2.568  1.3917 -0.3000  0.0571
 1579TIP3   OH226295   5.375   6.405   2.596  0.0033 -0.3893  0.3022
 1579TIP3    H126296   5.354   6.355   2.674  2.4316 -0.2761  1.1165
 1579TIP3    H226297   5.425   6.345   2.540 -0.8735 -0.1784 -0.7527
 1580TIP3   OH226298   1.652   0.574   2.514 -0.1080 -0.0193 -0.0285
 1580TIP3    H126299   1.589   0.520   2.562 -0.7509  0.7842  0.0451
 1580TIP3    H226300   1.689   0.515   2.448  0.1823 -0.9086  0.9074
 1581TIP3   OH226301   4.713   0.234   0.355  0.4714  0.3537 -0.0037
 1581TIP3    H126302   4.719   0.142   0.381  0.5014  0.5469  0.6829
 1581TIP3    H226303   4.665   0.276   0.426 -0.1063  0.7527 -0.6153
 1582TIP3   OH226304   6.559   0.889   1.890 -0.0557  0.1215  0.1966
 1582TIP3    H126305   6.513   0.905   1.807  1.0934 -0.3056 -0.5513
 1582TIP3    H226306   6.555   0.973   1.935 -1.1980  0.2023 -0.0287
 1583TIP3   OH226307   3.557   6.509   6.894  0.1823 -0.1687  0.0274
 1583TIP3    H126308   3.564   6.494   6.989  0.7671  0.8906  0.1639
 1583TIP3    H226309   3.552   6.604   6.885  1.1346 -0.2099 -1.0657
 1584TIP3   OH226310   2.496   4.085   7.183  0.4158  0.0900  0.6219
 1584TIP3    H126311   2.473   4.134   7.104 -1.1961 -1.3988  0.1365
 1584TIP3    H226312   2.592   4.081   7.181  0.6091  2.8009  0.4654
 1585TIP3   OH226313   2.239   3.765   8.528  0.0306 -0.1726  0.2333
 1585TIP3    H126314   2.158   3.815   8.527  1.1493  1.7242 -0.5287
 1585TIP3    H226315   2.219   3.687   8.580 -1.4201  1.6947  2.6862
 1586TIP3   OH226316   1.078   2.746   8.630 -0.3123  0.4895 -0.2570
 1586TIP3    H126317   1.054   2.740   8.538  0.6734  0.0226 -0.4901
 1586TIP3    H226318   1.174   2.750   8.630 -0.3188  0.8970  0.7258
 1587TIP3   OH226319   3.647   2.233   0.426  0.3911  0.5983 -1.1772
 1587TIP3    H126320   3.723   2.214   0.481 -0.1067  1.1784 -0.2633
 1587TIP3    H226321   3.629   2.150   0.382 -0.2104 -0.4135  0.8140
 1588TIP3   OH226322   3.648   5.136   7.211 -0.1076 -0.9765  0.0067
 1588TIP3    H126323   3.736   5.143   7.176  1.0710  0.8921  3.0163
 1588TIP3    H226324   3.659   5.095   7.297 -2.3515 -1.8528 -0.0475
 1589TIP3   OH226325   0.019   1.300   0.067  0.0136  0.0631  0.1577
 1589TIP3    H126326   0.066   1.283   0.149  0.5229 -1.5681 -0.4309
 1589TIP3    H226327  -0.074   1.300   0.092  0.1308 -1.0686  0.6473
 1590TIP3   OH226328   4.132   5.112   8.420 -0.0575 -0.1991  0.2700
 1590TIP3    H126329   4.054   5.106   8.364  0.7885 -0.8493 -0.8789
 1590TIP3    H226330   4.161   5.021   8.429 -0.5687 -0.2107  2.4018
 1591TIP3   OH226331   1.559   4.720   0.241 -0.1014  0.1715 -0.3693
 1591TIP3    H126332   1.474   4.730   0.199 -0.3772 -0.2739  0.0784
 1591TIP3    H226333   1.552   4.769   0.323  0.1930  0.4179 -0.4850
 1592TIP3   OH226334   5.636   4.708   6.982  0.4336 -0.2584 -0.6227
 1592TIP3    H126335   5.603   4.796   6.968  1.8363  0.1675 -1.4452
 1592TIP3    H226336   5.708   4.699   6.920  0.9258 -1.6507  0.1027
 1593TIP3   OH226337   5.307   5.949   0.522 -0.0684 -0.2609 -0.2646
 1593TIP3    H126338   5.344   5.950   0.434 -0.5609  1.2035 -0.4900
 1593TIP3    H226339   5.250   6.027   0.525 -0.3980 -0.5240  1.1975
 1594TIP3   OH226340   3.029   1.521   8.130 -0.0289  0.2027  0.5824
 1594TIP3    H126341   3.065   1.448   8.181  0.1381 -0.0003  0.1778
 1594TIP3    H226342   3.085   1.526   8.052 -2.0550 -1.4325 -1.0752
 1595TIP3   OH226343   3.179   6.852   7.757  0.4417  0.2236  0.3371
 1595TIP3    H126344   3.104   6.819   7.806  0.4237 -0.4472 -0.1257
 1595TIP3    H226345   3.251   6.793   7.779  0.5563  0.2069 -0.0644
 1596TIP3   OH226346   2.761   2.040   7.730 -0.2004  0.0857 -0.1994
 1596TIP3    H126347   2.733   2.123   7.768 -2.6162  0.2314 -2.0467
 1596TIP3    H226348   2.850   2.027   7.763  1.2791  4.6223 -1.6973
 1597TIP3   OH226349   0.323   4.656   2.662  0.5401  0.1169 -0.0078
 1597TIP3    H126350   0.401   4.621   2.619 -0.6867 -0.7753 -1.6306
 1597TIP3    H226351   0.315   4.745   2.627  0.1270 -0.2430 -0.8473
 1598TIP3   OH226352   3.849   5.120   0.482 -0.7445 -0.0658  0.7813
 1598TIP3    H126353   3.770   5.092   0.527 -0.1934 -0.1340  1.7420
 1598TIP3    H226354   3.919   5.109   0.547  0.1907 -0.8087 -0.3157
 1599TIP3   OH226355   1.334   0.128   2.250  0.1286  0.0680 -0.2724
 1599TIP3    H126356   1.314   0.035   2.234  0.1686  0.0299 -0.1069
 1599TIP3    H226357   1.333   0.168   2.164  0.9865 -0.2580 -0.4427
 1600TIP3   OH226358   2.735   1.437   1.594  0.0073  0.5858  0.3211
 1600TIP3    H126359   2.801   1.371   1.618  0.0244 -0.1133 -1.4961
 1600TIP3    H226360   2.781   1.520   1.601  1.1923  0.0917 -1.1162
 1601TIP3   OH226361   2.263   1.313   0.873 -0.1867 -0.1303 -0.2063
 1601TIP3    H126362   2.335   1.377   0.875 -0.4513  0.1720  1.8818
 1601TIP3    H226363   2.282   1.255   0.946 -1.1133 -1.1559 -0.7694
 1602TIP3   OH226364   6.404   0.271   7.985  0.2616 -0.0161  0.1883
 1602TIP3    H126365   6.387   0.356   7.945 -1.1867 -0.2875  0.1600
 1602TIP3    H226366   6.360   0.208   7.928 -1.0228 -0.4987  1.6344
 1603TIP3   OH226367   6.724   1.259   0.430  0.0708  0.1871  0.1212
 1603TIP3    H126368   6.809   1.302   0.419  0.9841 -2.0496 -3.1585
 1603TIP3    H226369   6.746   1.167   0.442 -1.8207 -0.6215 -2.0191
 1604TIP3   OH226370   1.189   0.204   0.684 -0.2176 -0.0035 -0.3087
 1604TIP3    H126371   1.243   0.125   0.673  0.8325  0.8909 -1.8830
 1604TIP3    H226372   1.251   0.272   0.709 -1.1424  0.3216  1.1955
 1605TIP3   OH226373   0.625   0.514   0.391  0.1409 -0.1891 -0.2808
 1605TIP3    H126374   0.610   0.579   0.322  0.8526  1.2959  0.8935
 1605TIP3    H226375   0.559   0.533   0.457 -0.7472 -1.8119 -0.6440
 1606TIP3   OH226376   0.389   5.336   2.054 -0.5461  0.8386  0.5599
 1606TIP3    H126377   0.401   5.407   1.992 -1.4435  1.4874  1.1028
 1606TIP3    H226378   0.404   5.376   2.140  1.4113 -0.2129  0.7472
 1607TIP3   OH226379   4.082   5.041   0.643 -0.4519  0.2048 -0.3421
 1607TIP3    H126380   4.155   4.987   0.612  0.5989  1.7802 -0.7059
 1607TIP3    H226381   4.043   4.990   0.714  0.7588 -0.8367 -0.3833
 1608TIP3   OH226382   5.419   3.625   7.595  0.2889  0.0867  0.0351
 1608TIP3    H126383   5.501   3.635   7.547  0.6166  3.9116  1.1091
 1608TIP3    H226384   5.444   3.629   7.687 -0.9760 -0.5857  0.4380
 1609TIP3   OH226385   1.237   4.355   0.474 -0.2044 -0.0430 -0.3446
 1609TIP3    H126386   1.261   4.263   0.480  0.3049 -0.0469 -2.1030
 1609TIP3    H226387   1.254   4.389   0.562  1.8138 -1.0980 -0.2610
 1610TIP3   OH226388   0.922   5.726   0.734  1.0080  0.0977  0.1134
 1610TIP3    H126389   0.913   5.739   0.640  0.7332 -0.6165  0.0399
 1610TIP3    H226390   0.832   5.729   0.767  1.2336  2.7632  0.6947
 1611TIP3   OH226391   2.343   6.191   6.662 -0.3734 -0.1254  0.5628
 1611TIP3    H126392   2.412   6.133   6.629 -2.5637 -1.8946 -1.2976
 1611TIP3    H226393   2.280   6.196   6.590 -1.7339  2.2019  1.8153
 1612TIP3   OH226394   3.275   4.910   7.792 -0.0573  0.2026 -0.0010
 1612TIP3    H126395   3.198   4.936   7.843  0.8141  3.1817 -0.0294
 1612TIP3    H226396   3.258   4.943   7.704  1.6039  1.8134  0.2280
 1613TIP3   OH226397   4.762   6.828   7.223 -0.8112  0.3540 -0.0259
 1613TIP3    H126398   4.780   6.806   7.132  0.9176 -0.6168  0.5045
 1613TIP3    H226399   4.779   6.748   7.272  2.3906  1.8142  1.5883
 1614TIP3   OH226400   3.931   6.108   8.157 -0.1967  0.4459 -0.2486
 1614TIP3    H126401   3.881   6.039   8.200 -0.9882  1.0437 -0.1843
 1614TIP3    H226402   3.910   6.098   8.064  1.0135 -0.4469 -0.4400
 1615TIP3   OH226403   0.743   2.500   0.988 -0.2680  0.4563 -0.1154
 1615TIP3    H126404   0.802   2.519   1.061 -2.0808  3.4097  0.7517
 1615TIP3    H226405   0.799   2.506   0.910  1.4578 -1.5663  0.8593
 1616TIP3   OH226406   5.693   4.081   0.565 -0.7428  0.0873  0.2357
 1616TIP3    H126407   5.622   4.085   0.628  0.2280 -0.1622  1.3724
 1616TIP3    H226408   5.652   4.105   0.481 -2.2141 -0.3746  0.7956
 1617TIP3   OH226409   1.947   2.603   0.351  0.5297 -0.6462 -0.1545
 1617TIP3    H126410   1.965   2.652   0.431  0.7797 -0.3719 -0.3796
 1617TIP3    H226411   1.961   2.665   0.280 -1.6226 -0.2926 -0.3472
 1618TIP3   OH226412   1.049   6.500   0.975  0.1095 -0.1241 -0.4860
 1618TIP3    H126413   1.039   6.430   1.040 -2.1408  0.7846  0.2303
 1618TIP3    H226414   1.050   6.455   0.891  0.1461 -1.1028  0.0218
 1619TIP3   OH226415   1.968   6.313   0.899 -0.1209  0.6419 -0.3310
 1619TIP3    H126416   1.928   6.360   0.826  1.8727  1.0214 -1.2244
 1619TIP3    H226417   1.927   6.352   0.977 -0.8947  1.5531 -1.1657
 1620TIP3   OH226418   3.053   6.253   1.129  0.4712  0.5151 -0.3156
 1620TIP3    H126419   3.082   6.267   1.219 -0.1814 -3.8904  0.8082
 1620TIP3    H226420   2.958   6.245   1.135  0.5470 -1.4573 -1.0107
 1621TIP3   OH226421   6.660   1.383   1.733  0.0215  0.4253  0.4720
 1621TIP3    H126422   6.742   1.420   1.700 -0.9883  2.0421 -0.3787
 1621TIP3    H226423   6.659   1.408   1.826  0.1251  1.1286  0.2943
 1622TIP3   OH226424   5.780   3.177   7.049 -0.3125  0.1820 -0.2334
 1622TIP3    H126425   5.730   3.096   7.053 -2.1209  1.3179  1.8851
 1622TIP3    H226426   5.715   3.245   7.035  0.8227  1.5422  0.8460
 1623TIP3   OH226427   1.056   4.060   2.363  0.1467  0.2918 -0.1121
 1623TIP3    H126428   1.057   4.115   2.441  0.4217  1.0464 -0.6336
 1623TIP3    H226429   1.128   3.998   2.376  0.9304  1.1519 -0.2697
 1624TIP3   OH226430   3.537   3.770   0.148  0.8429 -0.1293 -0.5057
 1624TIP3    H126431   3.484   3.840   0.185  3.9253  1.1281  1.9949
 1624TIP3    H226432   3.553   3.710   0.221  0.7511 -1.8894 -1.8576
 1625TIP3   OH226433   2.817   0.193   8.351  0.0825 -0.5171  0.2152
 1625TIP3    H126434   2.897   0.148   8.324 -1.3153 -2.9134 -0.1452
 1625TIP3    H226435   2.815   0.185   8.446  0.1975 -0.5413  0.2158
 1626TIP3   OH226436   2.706   5.439   1.307  0.1952  0.1441  0.3895
 1626TIP3    H126437   2.744   5.368   1.358 -1.9502 -0.1780  1.6818
 1626TIP3    H226438   2.614   5.413   1.295  0.1580  1.1221 -2.0657
 1627TIP3   OH226439   1.691   2.384   7.890  0.0744  0.3010  0.1480
 1627TIP3    H126440   1.724   2.439   7.961 -0.5985  1.0083 -0.0815
 1627TIP3    H226441   1.712   2.432   7.810 -1.8919  1.0057  0.0083
 1628TIP3   OH226442   3.776   6.826   1.890  0.0156  0.4096 -0.3503
 1628TIP3    H126443   3.823   6.763   1.945 -1.1028 -0.2275 -0.1065
 1628TIP3    H226444   3.842   6.855   1.826  1.1836  0.7716  0.9746
 1629TIP3   OH226445   1.003   1.698   2.361  0.3584  0.1464 -0.1021
 1629TIP3    H126446   0.920   1.702   2.408  0.2610  0.1375 -0.2757
 1629TIP3    H226447   1.029   1.790   2.350 -0.6302  0.2527 -1.8387
 1630TIP3   OH226448   6.596   6.383   0.199  0.5655 -0.2524  0.4355
 1630TIP3    H126449   6.509   6.366   0.165  0.4709  0.0692  0.5179
 1630TIP3    H226450   6.583   6.401   0.292  0.6246  0.5816  0.2889
 1631TIP3   OH226451   5.267   5.540   1.331  0.0706 -0.6364 -0.0449
 1631TIP3    H126452   5.181   5.580   1.343 -0.0246 -0.3630 -1.4827
 1631TIP3    H226453   5.248   5.446   1.324  0.0520 -0.7241  0.9495
 1632TIP3   OH226454   4.046   1.432   0.897 -0.0703 -0.0766 -0.2565
 1632TIP3    H126455   3.999   1.400   0.820 -1.3567 -1.1747  0.9157
 1632TIP3    H226456   3.982   1.488   0.942  0.7559  0.7738 -0.1207
 1633TIP3   OH226457   1.515   3.438   7.076 -0.5424 -0.6771  0.3233
 1633TIP3    H126458   1.590   3.490   7.105 -1.9152  1.3941  0.3728
 1633TIP3    H226459   1.550   3.383   7.006  0.7177  1.4494 -0.8458
 1634TIP3   OH226460   6.276   4.260   6.510 -0.5539 -0.2092 -0.2017
 1634TIP3    H126461   6.286   4.209   6.430 -0.6234 -0.0688 -0.2999
 1634TIP3    H226462   6.365   4.269   6.544 -0.4662  0.1568 -0.5278
 1635TIP3   OH226463   0.445   0.251   7.773  0.4265 -0.1004  0.2103
 1635TIP3    H126464   0.443   0.316   7.844  0.6189 -1.3997  1.4619
 1635TIP3    H226465   0.408   0.172   7.813 -1.0431 -0.4158 -1.6573
 1636TIP3   OH226466   0.793   1.520   1.724  0.1322 -0.2933 -0.4491
 1636TIP3    H126467   0.709   1.473   1.724  0.9761 -1.8583 -1.1338
 1636TIP3    H226468   0.836   1.493   1.643  0.2589  2.4729 -1.4100
 1637TIP3   OH226469   4.094   5.666   7.162 -0.0713 -0.1608  0.3797
 1637TIP3    H126470   4.039   5.730   7.118 -0.4442 -1.6475 -1.4104
 1637TIP3    H226471   4.174   5.714   7.184  0.0443  0.7086 -1.7668
 1638TIP3   OH226472   0.815   2.277   1.354 -0.2857  0.6192  0.0871
 1638TIP3    H126473   0.859   2.302   1.435 -0.6406  0.1793  0.4205
 1638TIP3    H226474   0.885   2.243   1.298 -0.0961  0.5786  0.3466
 1639TIP3   OH226475   4.340   2.037   1.145 -0.1132  0.8811 -0.6057
 1639TIP3    H126476   4.316   2.045   1.237  1.2279  0.4780 -0.1942
 1639TIP3    H226477   4.258   2.047   1.097 -1.0562 -0.2668  0.7026
 1640TIP3   OH226478   2.568   1.760   0.879 -0.6189 -0.2375  0.4919
 1640TIP3    H126479   2.553   1.811   0.799  2.4630  0.4690  0.2399
 1640TIP3    H226480   2.484   1.762   0.924 -2.3390 -0.2472 -2.4462
 1641TIP3   OH226481   6.002   2.668   7.645  0.4820 -0.6406  0.2079
 1641TIP3    H126482   5.969   2.625   7.724 -1.7065  1.1118  0.3360
 1641TIP3    H226483   6.097   2.667   7.655  0.2918 -1.2748  2.4177
 1642TIP3   OH226484   1.956   4.835   1.947 -0.0465 -0.1994  0.0634
 1642TIP3    H126485   1.993   4.773   2.009  0.9387  0.3253  0.0209
 1642TIP3    H226486   1.877   4.792   1.914  0.7920 -1.5824 -0.2208
 1643TIP3   OH226487   5.723   0.343   1.241 -0.1245 -0.2667 -0.7123
 1643TIP3    H126488   5.795   0.284   1.264 -0.0904 -0.2937 -0.8867
 1643TIP3    H226489   5.675   0.297   1.172  0.1765  0.1065 -1.1774
 1644TIP3   OH226490   3.720   5.497   1.157  0.1480  0.4215 -0.2405
 1644TIP3    H126491   3.722   5.518   1.063  0.7718 -1.6936 -0.7453
 1644TIP3    H226492   3.811   5.500   1.184  0.2814 -1.5123 -0.3546
 1645TIP3   OH226493   6.512   3.671   2.501 -1.2984 -0.2712  0.1125
 1645TIP3    H126494   6.566   3.609   2.451 -0.4897  0.0204  0.6077
 1645TIP3    H226495   6.422   3.643   2.484 -1.0108 -0.6170 -0.9321
 1646TIP3   OH226496   0.942   4.654   7.629  0.3538 -0.3361  0.2686
 1646TIP3    H126497   1.014   4.712   7.653 -0.0304  0.0244  0.5541
 1646TIP3    H226498   0.961   4.572   7.675  1.2337 -0.6551 -0.6446
 1647TIP3   OH226499   5.902   4.843   1.156 -0.0873 -0.5024  0.2641
 1647TIP3    H126500   5.873   4.859   1.066 -1.9814  2.0428  1.2047
 1647TIP3    H226501   5.832   4.879   1.211  2.1030  0.2995  2.7576
 1648TIP3   OH226502   1.288   4.470   2.076  0.8181 -0.0554 -0.5354
 1648TIP3    H126503   1.217   4.429   2.125 -0.2757  0.8473 -1.3152
 1648TIP3    H226504   1.317   4.403   2.015  2.3263 -1.2657  1.3916
 1649TIP3   OH226505   3.018   0.773   0.301  0.1421  0.1918  0.4486
 1649TIP3    H126506   3.064   0.811   0.376  0.2123  0.2587  0.3727
 1649TIP3    H226507   2.992   0.686   0.330  1.3036 -0.2832  0.1188
 1650TIP3   OH226508   2.876   2.352   1.294  0.2330 -0.7642  0.2679
 1650TIP3    H126509   2.798   2.299   1.310 -0.2594  0.1025  0.8986
 1650TIP3    H226510   2.866   2.383   1.204 -0.2504 -0.5177  0.3992
 1651TIP3   OH226511   2.202   6.297   1.511  0.2589  0.0732  0.2193
 1651TIP3    H126512   2.278   6.342   1.548  0.3530 -0.3647  0.5604
 1651TIP3    H226513   2.137   6.298   1.582 -0.3222  1.0825 -0.3051
 1652TIP3   OH226514   1.736   2.860   1.384 -0.9518  0.4796  0.5015
 1652TIP3    H126515   1.813   2.804   1.373 -0.1467  1.7292 -0.4867
 1652TIP3    H226516   1.662   2.800   1.374 -0.1625 -0.9112  2.3394
 1653TIP3   OH226517   4.589   6.295   7.875  0.1859  0.0415  0.3485
 1653TIP3    H126518   4.559   6.359   7.940  0.0200  0.2770  0.0407
 1653TIP3    H226519   4.682   6.315   7.863  0.6701 -1.1264  1.8134
 1654TIP3   OH226520   1.746   6.638   7.247 -0.1018 -0.1331 -0.1373
 1654TIP3    H126521   1.721   6.608   7.160  0.7468  1.2526 -0.8977
 1654TIP3    H226522   1.820   6.696   7.232  0.3219 -0.1826  1.5606
 1655TIP3   OH226523   0.482   2.194   2.148  0.4860  0.2123  0.0861
 1655TIP3    H126524   0.431   2.114   2.158 -0.7153  0.9793  0.4102
 1655TIP3    H226525   0.426   2.263   2.185  1.0553  1.3518 -1.0707
 1656TIP3   OH226526   2.883   4.554   7.526 -0.6266  0.3234 -0.3528
 1656TIP3    H126527   2.790   4.570   7.514 -0.5459  0.1062 -1.4014
 1656TIP3    H226528   2.902   4.584   7.615 -1.7344  0.1606 -0.0499
 1657TIP3   OH226529   4.221   4.193   0.064  0.2033  0.1050  0.0912
 1657TIP3    H126530   4.251   4.206  -0.026 -3.9946  2.0471 -1.2805
 1657TIP3    H226531   4.295   4.219   0.119  2.9610 -1.2686 -2.7152
 1658TIP3   OH226532   1.703   3.495   0.842 -0.9835  0.1251 -0.3713
 1658TIP3    H126533   1.638   3.544   0.791 -2.3787 -1.2669  0.0060
 1658TIP3    H226534   1.769   3.560   0.864 -0.5520  0.9090 -3.5094
 1659TIP3   OH226535   4.587   2.179   0.761  0.1388 -0.2239  0.5169
 1659TIP3    H126536   4.662   2.182   0.700 -0.8588 -0.6819 -0.7882
 1659TIP3    H226537   4.534   2.255   0.738 -0.7658 -0.9576  0.0699
 1660TIP3   OH226538   5.016   3.275   6.625  0.3349 -0.5326  0.3292
 1660TIP3    H126539   4.980   3.196   6.584 -1.2986 -0.2022  1.0507
 1660TIP3    H226540   4.939   3.328   6.646  1.3502  0.8201  0.7324
 1661TIP3   OH226541   0.768   4.553   0.513  0.3859  0.1092  0.1365
 1661TIP3    H126542   0.729   4.589   0.434  1.2599  0.2441 -0.2438
 1661TIP3    H226543   0.736   4.609   0.584 -1.0318 -0.4835 -0.0037
 1662TIP3   OH226544   1.155   6.640   1.539  0.5096  0.0106  0.3965
 1662TIP3    H126545   1.148   6.639   1.443 -0.1738  0.1279  0.4468
 1662TIP3    H226546   1.083   6.695   1.568  0.5024 -0.3129  0.9995
 1663TIP3   OH226547   1.463   0.769   7.994  0.5168  0.1044 -0.1800
 1663TIP3    H126548   1.487   0.729   8.077 -0.7841 -2.0689 -0.7590
 1663TIP3    H226549   1.418   0.850   8.018  0.2466 -0.4472  1.2357
 1664TIP3   OH226550   2.182   5.178   2.199  0.5042 -0.3930 -0.2816
 1664TIP3    H126551   2.199   5.108   2.136 -1.9768 -1.7314  0.3957
 1664TIP3    H226552   2.104   5.222   2.167  1.1476  1.1430  0.1263
 1665TIP3   OH226553   0.321   4.234   0.682 -0.9079  0.0560 -0.4615
 1665TIP3    H126554   0.227   4.219   0.679 -0.9272  0.3730 -1.8025
 1665TIP3    H226555   0.360   4.153   0.649 -0.7510  0.2875 -0.8471
 1666TIP3   OH226556   6.790   2.482   1.616  0.0823  0.1512  0.6694
 1666TIP3    H126557   6.824   2.531   1.541  0.7169 -0.7437  0.3684
 1666TIP3    H226558   6.843   2.403   1.620 -0.7032 -0.3556  1.3691
 1667TIP3   OH226559   1.964   1.951   7.323 -0.8712 -0.3234  0.2655
 1667TIP3    H126560   1.969   1.868   7.370 -0.5573  0.5738  1.9064
 1667TIP3    H226561   2.049   1.993   7.340 -0.7709  0.0658 -1.0864
 1668TIP3   OH226562   5.110   3.482   6.893  0.8159  0.0729 -0.0710
 1668TIP3    H126563   5.138   3.432   6.969  4.1051  0.1417 -1.0942
 1668TIP3    H226564   5.103   3.572   6.926 -1.5204 -0.3875  0.9152
 1669TIP3   OH226565   6.686   6.758   0.761 -0.3124  0.0059  0.2011
 1669TIP3    H126566   6.728   6.838   0.790 -0.3482 -0.2210  0.9027
 1669TIP3    H226567   6.665   6.711   0.842 -2.6699  0.4840 -0.0614
 1670TIP3   OH226568   2.505   6.485   8.182 -0.1004  0.4207  0.1724
 1670TIP3    H126569   2.566   6.506   8.112  1.3141  1.7230  1.7284
 1670TIP3    H226570   2.438   6.432   8.140  1.2473  0.2865 -1.9307
 1671TIP3   OH226571   0.376   5.156   7.702 -0.7489  0.4480  0.6093
 1671TIP3    H126572   0.329   5.136   7.621 -0.4034 -0.5174  0.6392
 1671TIP3    H226573   0.449   5.094   7.703 -0.1740  1.1220  1.1673
 1672TIP3   OH226574   4.955   3.875   0.783  0.2104 -0.1795 -0.5035
 1672TIP3    H126575   4.974   3.818   0.857 -1.1563 -0.1724 -0.1199
 1672TIP3    H226576   4.860   3.886   0.784  0.2449  0.5141 -1.7520
 1673TIP3   OH226577   5.503   5.140   7.416  0.3977  0.5788  0.4290
 1673TIP3    H126578   5.541   5.087   7.486  1.1340 -0.5849 -0.8112
 1673TIP3    H226579   5.408   5.136   7.433  0.3883 -1.5074  0.1628
 1674TIP3   OH226580   1.236   5.585   7.638 -0.8515 -0.0038 -0.2273
 1674TIP3    H126581   1.266   5.506   7.683 -1.9473  0.4815  1.4484
 1674TIP3    H226582   1.248   5.655   7.701 -1.1229  0.9682 -1.2157
 1675TIP3   OH226583   4.623   1.246   0.352 -0.4938  0.1209  0.0577
 1675TIP3    H126584   4.535   1.213   0.338 -0.8236  1.1594 -0.4674
 1675TIP3    H226585   4.624   1.330   0.306  0.8294  0.0318 -0.1054
 1676TIP3   OH226586   0.974   0.532   7.628  0.0447  0.4296  0.0681
 1676TIP3    H126587   0.992   0.467   7.696  0.0126  2.0207  1.6824
 1676TIP3    H226588   0.889   0.568   7.651 -0.4450  0.3145 -1.4394
 1677TIP3   OH226589   2.417   5.378   0.388 -1.0284  0.3450  0.2982
 1677TIP3    H126590   2.331   5.339   0.372 -0.5763 -0.5512 -0.0591
 1677TIP3    H226591   2.452   5.330   0.463  0.6149 -1.8998 -1.7120
 1678TIP3   OH226592   5.897   0.437   2.741 -0.1557  0.6079  0.7259
 1678TIP3    H126593   5.863   0.472   2.659 -1.5769 -1.1321  0.5277
 1678TIP3    H226594   5.966   0.376   2.715 -0.4536  0.2244  0.8230
 1679TIP3   OH226595   6.189   2.978   7.823  0.4744  0.7161 -0.0123
 1679TIP3    H126596   6.216   2.978   7.731 -0.5975 -2.3196 -0.4442
 1679TIP3    H226597   6.186   2.885   7.847 -1.5624  1.2886  2.3796
 1680TIP3   OH226598   4.174   4.612   2.413 -0.2044  0.0083  0.1534
 1680TIP3    H126599   4.089   4.611   2.369  0.4131  1.3623 -1.1369
 1680TIP3    H226600   4.208   4.524   2.399 -1.1326 -0.3686  0.1674
 1681TIP3   OH226601   4.098   6.603   2.692  0.1398 -0.3503  0.0134
 1681TIP3    H126602   4.193   6.615   2.692  0.4367 -2.2385  0.6754
 1681TIP3    H226603   4.068   6.654   2.768  0.8223 -0.8130  0.6158
 1682TIP3   OH226604   2.775   4.672   0.565  0.3753 -0.2935  0.3503
 1682TIP3    H126605   2.805   4.582   0.550 -0.2515 -0.6402  1.0796
 1682TIP3    H226606   2.817   4.724   0.496 -1.1590 -1.5264 -1.6136
 1683TIP3   OH226607   3.264   1.107   0.389 -0.1378  0.1695 -0.3855
 1683TIP3    H126608   3.303   1.124   0.303  0.5442 -0.7834 -0.2832
 1683TIP3    H226609   3.196   1.173   0.398 -0.3190  0.1890 -1.7254
 1684TIP3   OH226610   0.347   1.427   0.460  0.4896  0.3085  0.2359
 1684TIP3    H126611   0.428   1.476   0.444 -0.7355  1.7832 -1.9494
 1684TIP3    H226612   0.284   1.463   0.397 -1.4510 -1.8356  0.8075
 1685TIP3   OH226613   4.858   4.840   0.816  0.3942  0.2727 -0.3357
 1685TIP3    H126614   4.948   4.857   0.787  0.9866 -1.3754  0.4465
 1685TIP3    H226615   4.817   4.795   0.742 -0.1015  1.7838 -1.0331
 1686TIP3   OH226616   3.984   5.312   7.395 -0.3652  0.0770 -0.4103
 1686TIP3    H126617   4.065   5.286   7.351  0.0264 -0.2074  0.4687
 1686TIP3    H226618   3.943   5.374   7.334  1.1056  1.1723 -0.3348
 1687TIP3   OH226619   2.302   3.336   1.302 -0.3264  0.0563  0.2066
 1687TIP3    H126620   2.227   3.338   1.243 -0.4133  1.1288  0.3302
 1687TIP3    H226621   2.344   3.422   1.291  1.6682 -0.9834 -0.8378
 1688TIP3   OH226622   4.934   2.623   7.661 -0.0481  0.5437  0.3892
 1688TIP3    H126623   4.927   2.625   7.756 -1.3977 -0.7359  0.3567
 1688TIP3    H226624   4.883   2.546   7.635  1.9241 -0.3011 -1.2258
 1689TIP3   OH226625   2.244   4.355   0.246  0.2432  1.0914 -0.3252
 1689TIP3    H126626   2.285   4.280   0.287  0.4671  1.3464 -0.0787
 1689TIP3    H226627   2.284   4.431   0.289  0.9176  1.3718 -1.4039
 1690TIP3   OH226628   6.216   1.034   7.491 -0.1792 -0.1623 -0.6684
 1690TIP3    H126629   6.295   1.075   7.457  0.4001 -1.0676 -0.4435
 1690TIP3    H226630   6.145   1.075   7.441  0.4956 -0.0202 -1.5459
 1691TIP3   OH226631   2.291   5.308   7.952 -0.5095 -0.0933  0.5735
 1691TIP3    H126632   2.343   5.232   7.926 -1.1573 -1.1010  2.0745
 1691TIP3    H226633   2.329   5.336   8.035 -1.9500 -0.4835  1.3993
 1692TIP3   OH226634   5.381   3.513   1.830 -0.3780  0.0300  0.2501
 1692TIP3    H126635   5.350   3.595   1.868  0.4074  0.1901  0.5679
 1692TIP3    H226636   5.337   3.445   1.881 -1.3457  0.2451 -0.2829
 1693TIP3   OH226637   6.830   4.584   1.207 -0.3615 -0.5215 -0.2759
 1693TIP3    H126638   6.736   4.602   1.210 -0.8124 -2.3883 -1.2039
 1693TIP3    H226639   6.848   4.539   1.290 -1.0569 -3.0996 -1.4203
 1694TIP3   OH226640   2.533   4.393   0.497 -0.4634 -0.0649  0.3027
 1694TIP3    H126641   2.510   4.302   0.479  3.2276 -1.3947  1.3862
 1694TIP3    H226642   2.485   4.415   0.577 -0.8286 -1.3600  0.4560
 1695TIP3   OH226643   3.388   4.290   8.173  0.0326 -0.3795  0.0159
 1695TIP3    H126644   3.440   4.357   8.219 -1.9085  0.6115  0.8632
 1695TIP3    H226645   3.454   4.235   8.130  1.9203 -0.5190  2.8092
 1696TIP3   OH226646   2.682   1.278   2.106  0.3109  0.3333  0.1245
 1696TIP3    H126647   2.759   1.222   2.100  0.4554  0.2080  2.3624
 1696TIP3    H226648   2.634   1.245   2.183 -1.7382  0.7098 -0.9256
 1697TIP3   OH226649   0.680   2.583   0.507 -0.3155 -0.2395  0.0154
 1697TIP3    H126650   0.585   2.576   0.506 -0.2811 -1.3606  1.3637
 1697TIP3    H226651   0.710   2.492   0.501  0.6023 -0.1369  2.3058
 1698TIP3   OH226652   2.944   6.712   7.051 -0.6109 -0.6382  0.2312
 1698TIP3    H126653   2.903   6.777   6.993  0.0154  0.9273  1.4575
 1698TIP3    H226654   3.027   6.691   7.008 -1.1048 -1.1288 -0.4976
 1699TIP3   OH226655   4.137   6.867   8.628 -0.2274  0.2463 -0.3985
 1699TIP3    H126656   4.182   6.888   8.710 -1.1205  0.3267  0.0833
 1699TIP3    H226657   4.052   6.910   8.636 -0.9714 -1.1260 -0.6533
 1700TIP3   OH226658   0.678   0.727   2.049 -0.4716 -0.1835  0.6268
 1700TIP3    H126659   0.649   0.807   2.006 -0.6916  0.0670  1.2302
 1700TIP3    H226660   0.766   0.746   2.080  0.3074 -0.8762 -1.0231
 1701TIP3   OH226661   4.283   0.437   1.855 -0.1555  0.5048 -0.7100
 1701TIP3    H126662   4.238   0.509   1.811 -0.3414  1.5387  1.0546
 1701TIP3    H226663   4.339   0.479   1.920 -2.2463 -0.8864  2.2583
 1702TIP3   OH226664   6.661   0.075   1.392 -0.5618  0.3634  0.4853
 1702TIP3    H126665   6.599   0.128   1.441  0.7088  2.5129 -0.1210
 1702TIP3    H226666   6.743   0.124   1.395  0.4287 -1.0960 -0.9312
 1703TIP3   OH226667   2.713   5.405   8.158 -0.2400 -0.4445 -0.0125
 1703TIP3    H126668   2.656   5.437   8.088  1.5083  0.1376 -1.2313
 1703TIP3    H226669   2.802   5.422   8.127  0.6471 -1.9429  1.5200
 1704TIP3   OH226670   4.770   6.666   2.924  0.2917  0.0929 -0.1987
 1704TIP3    H126671   4.693   6.611   2.933  2.1577 -3.2400 -2.3786
 1704TIP3    H226672   4.737   6.749   2.889 -2.3165 -0.8924 -0.2735
 1705TIP3   OH226673   4.449   4.763   0.402 -0.2699 -0.3940  0.1923
 1705TIP3    H126674   4.410   4.678   0.381  0.0727 -0.3653 -0.5844
 1705TIP3    H226675   4.392   4.799   0.471 -1.6957 -0.3107 -0.9725
 1706TIP3   OH226676   3.603   3.059   2.275 -0.0665  0.2503 -0.0525
 1706TIP3    H126677   3.511   3.084   2.267  0.1228  0.8949 -0.2614
 1706TIP3    H226678   3.650   3.141   2.284  0.3463 -0.1481  1.6740
 1707TIP3   OH226679   6.459   4.808   1.471  0.0693 -0.0763 -0.4259
 1707TIP3    H126680   6.448   4.751   1.546 -0.2986 -3.6477 -2.9226
 1707TIP3    H226681   6.554   4.813   1.458  0.2647  2.2533  1.3079
 1708TIP3   OH226682   3.202   2.468   8.366  0.0972 -0.4989  0.6880
 1708TIP3    H126683   3.251   2.512   8.435  0.9043 -1.1200  0.5153
 1708TIP3    H226684   3.114   2.506   8.373  0.7384  1.1003  0.5755
 1709TIP3   OH226685   0.474   4.363   2.428 -0.5886  0.5528 -0.6526
 1709TIP3    H126686   0.428   4.332   2.506 -1.8763 -1.8115 -2.2204
 1709TIP3    H226687   0.510   4.448   2.453 -0.4832 -0.3472  2.6475
 1710TIP3   OH226688   2.822   4.422   7.900 -0.6252 -0.5167 -0.6362
 1710TIP3    H126689   2.884   4.357   7.934  1.1850  2.2124  1.8228
 1710TIP3    H226690   2.877   4.495   7.871 -2.5588  0.1118 -2.9892
 1711TIP3   OH226691   4.606   5.185   8.625  0.1289 -0.5621  0.0488
 1711TIP3    H126692   4.594   5.250   8.695 -0.1469  1.3379 -1.6775
 1711TIP3    H226693   4.519   5.149   8.611 -0.3493  0.9067 -0.9830
 1712TIP3   OH226694   3.722   4.767   8.226  0.0864  0.1288  0.6845
 1712TIP3    H126695   3.727   4.810   8.312 -1.8234 -0.7502  1.2866
 1712TIP3    H226696   3.632   4.736   8.220  0.2641 -0.1061 -1.5350
 1713TIP3   OH226697   4.528   0.176   1.435 -0.0953  0.0920  0.6360
 1713TIP3    H126698   4.450   0.214   1.476 -1.1259 -1.2686  0.0073
 1713TIP3    H226699   4.538   0.091   1.476  0.9258  0.1419  0.5224
 1714TIP3   OH226700   6.360   3.919   2.777 -0.1565 -0.0982  0.6283
 1714TIP3    H126701   6.365   4.014   2.787  0.3712 -0.2124  1.4780
 1714TIP3    H226702   6.277   3.895   2.819 -0.6636  0.0578 -0.2478
 1715TIP3   OH226703   6.157   3.068   1.979  0.1110  0.4095  0.3171
 1715TIP3    H126704   6.114   3.128   2.040 -0.0954  0.9272 -0.3279
 1715TIP3    H226705   6.111   3.080   1.896  1.1266  0.5677 -0.2424
 1716TIP3   OH226706   1.784   2.363   1.362  0.3720  0.7807  0.1592
 1716TIP3    H126707   1.785   2.277   1.404  0.1535  0.4256 -0.5582
 1716TIP3    H226708   1.719   2.413   1.412  0.4596  0.5138  0.5439
 1717TIP3   OH226709   0.136   6.152   0.977  0.1003 -0.1219  0.1228
 1717TIP3    H126710   0.137   6.106   0.893  0.7791 -1.4277  0.8025
 1717TIP3    H226711   0.071   6.221   0.967 -1.8596 -1.9771 -0.5994
 1718TIP3   OH226712   1.969   4.423   0.593  0.2062 -0.1121 -0.6284
 1718TIP3    H126713   1.959   4.517   0.603  3.2253  0.1025  1.5318
 1718TIP3    H226714   1.881   4.388   0.604 -0.4751  2.2191  2.5670
 1719TIP3   OH226715   6.616   2.632   7.205 -0.2073 -0.1349 -0.0740
 1719TIP3    H126716   6.535   2.622   7.157  1.2988 -0.3159 -2.7571
 1719TIP3    H226717   6.640   2.724   7.193  0.5366 -0.3496 -0.2883
 1720TIP3   OH226718   0.817   2.581   7.158 -0.0809  0.4410  0.2396
 1720TIP3    H126719   0.765   2.645   7.109  1.9528  0.0410 -2.7341
 1720TIP3    H226720   0.754   2.520   7.194 -1.8593  2.1243  0.1211
 1721TIP3   OH226721   2.038   3.952   0.064  0.1467 -0.2580 -0.3539
 1721TIP3    H126722   2.111   4.014   0.052 -0.4094  0.5438  0.2510
 1721TIP3    H226723   2.030   3.908  -0.020  0.0485  1.0858 -1.0863
 1722TIP3   OH226724   2.614   5.776   7.945  0.1673  0.0686  0.3734
 1722TIP3    H126725   2.609   5.680   7.943  1.7064 -0.0267 -0.4051
 1722TIP3    H226726   2.559   5.801   8.020  0.4058 -1.4837  1.1133
 1723TIP3   OH226727   3.006   0.507   1.951 -0.0048 -0.2648 -0.5371
 1723TIP3    H126728   3.068   0.485   1.881  3.2833  2.4553  1.2168
 1723TIP3    H226729   2.977   0.422   1.984  1.4036 -1.6639 -2.6138
 1724TIP3   OH226730   1.158   1.379   1.367  0.4238  0.1442  0.0852
 1724TIP3    H126731   1.190   1.289   1.355  1.4778  0.4846  0.2786
 1724TIP3    H226732   1.111   1.398   1.286 -0.5801 -0.8800  0.3876
 1725TIP3   OH226733   2.982   4.254   8.401  0.0860  0.0385 -0.3186
 1725TIP3    H126734   3.056   4.312   8.419  0.7949 -0.7869 -0.4743
 1725TIP3    H226735   3.016   4.166   8.417 -0.1813 -0.5194 -2.4869
 1726TIP3   OH226736   3.245   6.303   2.566 -0.6094  0.0561 -0.1703
 1726TIP3    H126737   3.331   6.321   2.604  0.9984 -0.6383 -3.2265
 1726TIP3    H226738   3.194   6.267   2.639  1.2867  1.4989  1.9994
 1727TIP3   OH226739   3.129   4.517   1.103  0.1484 -0.6573 -0.4085
 1727TIP3    H126740   3.189   4.443   1.115  1.1846  0.3258  0.6887
 1727TIP3    H226741   3.185   4.594   1.097 -0.8392 -0.0196 -2.7948
 1728TIP3   OH226742   0.662   1.649   2.141 -0.1418  0.1413  0.4844
 1728TIP3    H126743   0.656   1.571   2.086  2.4157 -1.7380  2.5627
 1728TIP3    H226744   0.583   1.646   2.195 -0.8075 -0.1421 -0.4773
 1729TIP3   OH226745   4.021   4.395   1.890 -0.0363  0.1276 -0.0894
 1729TIP3    H126746   4.053   4.305   1.882  0.0458  0.0473  0.9552
 1729TIP3    H226747   3.961   4.393   1.964 -0.8741  0.7213 -0.7308
 1730TIP3   OH226748   5.686   4.728   7.864  0.3612  0.1805  0.3024
 1730TIP3    H126749   5.640   4.786   7.924 -0.2131  0.2861 -0.2281
 1730TIP3    H226750   5.742   4.674   7.920  0.8203  1.1595  0.8128
 1731TIP3   OH226751   0.169   2.033   2.423 -0.2040  0.2646 -0.1252
 1731TIP3    H126752   0.079   2.056   2.445 -0.3432 -0.5717  0.2275
 1731TIP3    H226753   0.162   1.977   2.346  0.0200  0.3238 -0.1885
 1732TIP3   OH226754   5.571   6.178   2.649  0.2128 -0.4122  0.1968
 1732TIP3    H126755   5.636   6.218   2.592 -0.7435  0.3845 -0.3621
 1732TIP3    H226756   5.521   6.119   2.592 -1.9498  1.7449 -0.3259
 1733TIP3   OH226757   1.350   6.323   0.858  0.3119  0.0470 -0.3878
 1733TIP3    H126758   1.397   6.264   0.799 -0.7431 -0.4870 -0.7253
 1733TIP3    H226759   1.310   6.265   0.923  1.0434  0.5875  0.5781
 1734TIP3   OH226760   6.253   5.461   2.527 -0.2551 -0.3539  0.0393
 1734TIP3    H126761   6.307   5.539   2.516  1.0618 -1.0355  1.3674
 1734TIP3    H226762   6.165   5.495   2.544  0.0735  0.8155 -0.5411
 1735TIP3   OH226763   4.064   2.333   2.477 -0.1064 -0.3050 -0.2801
 1735TIP3    H126764   4.007   2.279   2.423 -0.8889  2.1658 -2.0689
 1735TIP3    H226765   4.153   2.313   2.446 -0.5189  0.8399 -2.4010
 1736TIP3   OH226766   6.243   6.201   1.114  0.7192  0.0561 -0.0449
 1736TIP3    H126767   6.184   6.126   1.124  1.0583 -0.1799  0.2126
 1736TIP3    H226768   6.239   6.223   1.021 -0.1725  0.3713  0.0503
 1737TIP3   OH226769   1.495   1.903   0.245 -0.6882  0.3718  0.1697
 1737TIP3    H126770   1.436   1.893   0.171  0.0284  1.4684 -0.5717
 1737TIP3    H226771   1.563   1.838   0.231 -0.8713  0.1680  0.2067
 1738TIP3   OH226772   1.923   4.707   7.763 -0.0046 -0.1518  0.3615
 1738TIP3    H126773   1.973   4.763   7.822 -1.7971  0.8289  1.0204
 1738TIP3    H226774   1.955   4.618   7.780  1.8252  0.4807  0.3795
 1739TIP3   OH226775   3.070   1.040   7.451  0.0396  0.4611  0.6793
 1739TIP3    H126776   3.061   1.132   7.426 -2.5997  0.4524  1.3235
 1739TIP3    H226777   2.981   1.012   7.471  0.7433 -2.3351  0.2465
 1740TIP3   OH226778   3.753   2.791   7.851 -0.2089  0.0273 -0.1546
 1740TIP3    H126779   3.807   2.850   7.904 -0.3187 -0.3589  0.3988
 1740TIP3    H226780   3.686   2.759   7.912 -2.3838  2.0682 -1.2823
 1741TIP3   OH226781   2.822   2.460   1.046 -0.2370 -0.3958  0.2911
 1741TIP3    H126782   2.831   2.431   0.955  1.3999 -1.2223  0.6694
 1741TIP3    H226783   2.854   2.550   1.046 -1.1223 -0.0674 -0.0948
 1742TIP3   OH226784   5.895   3.510   7.887  0.9439 -0.9848  0.0769
 1742TIP3    H126785   5.916   3.557   7.967  0.4383 -1.1258  0.2995
 1742TIP3    H226786   5.828   3.446   7.913  0.7545 -1.0147 -0.4583
 1743TIP3   OH226787   2.244   2.251   1.091  0.0032 -0.4400  0.1246
 1743TIP3    H126788   2.176   2.218   1.032  0.7031 -0.1543 -0.8627
 1743TIP3    H226789   2.298   2.175   1.110 -1.2360 -0.9484  1.8768
 1744TIP3   OH226790   4.143   6.579   2.170 -0.7325  0.3978  0.0161
 1744TIP3    H126791   4.156   6.671   2.148 -0.8780  0.8359  1.6160
 1744TIP3    H226792   4.210   6.562   2.237 -1.2915 -0.4013  0.3812
 1745TIP3   OH226793   1.431   4.724   7.657 -0.4156 -0.4286 -0.0249
 1745TIP3    H126794   1.476   4.676   7.588  1.1271 -1.1921  1.4419
 1745TIP3    H226795   1.413   4.658   7.724 -1.1016  0.4496  0.6807
 1746TIP3   OH226796   4.162   2.805   0.752  0.0501  0.1611 -0.1524
 1746TIP3    H126797   4.093   2.860   0.716 -0.6809 -0.6629 -0.0666
 1746TIP3    H226798   4.201   2.762   0.676 -2.7510 -3.0455 -0.0168
 1747TIP3   OH226799   1.200   2.929   0.585  0.1950 -0.2605 -0.1592
 1747TIP3    H126800   1.256   2.939   0.662  0.7260  0.6738 -0.6555
 1747TIP3    H226801   1.255   2.886   0.520  0.0987 -0.0345 -0.3921
 1748TIP3   OH226802   6.190   6.157   2.452 -0.2930 -0.2490 -0.0384
 1748TIP3    H126803   6.214   6.159   2.360 -1.4834 -1.3815 -0.4102
 1748TIP3    H226804   6.260   6.109   2.495 -0.8841 -1.8419 -0.7808
 1749TIP3   OH226805   3.289   1.370   1.422  0.1874 -0.2546 -0.8193
 1749TIP3    H126806   3.225   1.413   1.366  2.0143 -0.8772 -3.6049
 1749TIP3    H226807   3.284   1.278   1.398  1.1132 -0.5233 -0.0414
 1750TIP3   OH226808   4.992   4.473   8.244  0.4197 -0.2698  0.2425
 1750TIP3    H126809   5.052   4.399   8.244  0.5858 -0.1663 -1.4252
 1750TIP3    H226810   4.905   4.434   8.252  0.5803 -0.5440  0.6786
 1751TIP3   OH226811   3.590   6.229   8.515  0.7315  0.4581 -0.6735
 1751TIP3    H126812   3.527   6.286   8.473  0.6183  0.3994 -0.5839
 1751TIP3    H226813   3.543   6.191   8.590  1.1427  1.0923 -0.0836
 1752TIP3   OH226814   3.692   3.303   7.463 -0.1160  0.1475 -0.0516
 1752TIP3    H126815   3.699   3.394   7.493 -1.3727  0.3610 -0.3701
 1752TIP3    H226816   3.777   3.286   7.421  0.2479  1.0643  0.2774
 1753TIP3   OH226817   5.513   0.081   8.263  0.6408 -0.1498  0.1044
 1753TIP3    H126818   5.420   0.081   8.242  0.4889  2.7592  0.2912
 1753TIP3    H226819   5.523   0.013   8.330 -1.7918  0.8294  1.6147
 1754TIP3   OH226820   2.811   5.571   0.091 -0.1856  0.5275  0.5790
 1754TIP3    H126821   2.751   5.645   0.079 -0.8839 -0.0908  0.1532
 1754TIP3    H226822   2.818   5.561   0.186  0.2489  1.3983  0.6477
 1755TIP3   OH226823   5.148   4.221   7.890 -0.2411 -0.0643  0.4491
 1755TIP3    H126824   5.109   4.305   7.916 -1.8803  0.1249 -2.1973
 1755TIP3    H226825   5.078   4.175   7.845  1.2455 -1.9563 -0.0697
 1756TIP3   OH226826   5.324   2.200   7.874  0.9834 -0.3224 -0.2492
 1756TIP3    H126827   5.282   2.183   7.959 -0.2159  0.5783 -0.6234
 1756TIP3    H226828   5.396   2.138   7.870  0.7768 -0.7078  1.2276
 1757TIP3   OH226829   3.115   4.747   1.505 -0.0125 -0.7240  0.0584
 1757TIP3    H126830   3.091   4.815   1.441  4.2343  0.0698 -1.0248
 1757TIP3    H226831   3.107   4.665   1.456  0.5457 -0.3831 -0.6348
 1758TIP3   OH226832   4.620   6.556   8.043 -0.3536  0.0443  0.3978
 1758TIP3    H126833   4.653   6.589   8.127  1.0149 -1.1335  0.3689
 1758TIP3    H226834   4.698   6.552   7.987 -0.8340 -1.2518 -0.2214
 1759TIP3   OH226835   5.851   2.015   6.956  0.2027  0.0557 -0.2714
 1759TIP3    H126836   5.775   1.957   6.964  0.1302  0.2745  0.7557
 1759TIP3    H226837   5.813   2.102   6.942  0.3160 -0.1596 -2.1920
 1760TIP3   OH226838   6.117   1.760   2.409  0.5488 -0.2897  0.1686
 1760TIP3    H126839   6.033   1.755   2.363  1.3068 -0.7260 -1.2158
 1760TIP3    H226840   6.134   1.671   2.439  0.6865 -0.2656  0.1622
 1761TIP3   OH226841   1.120   5.556   2.704  0.0609  0.1748 -0.5432
 1761TIP3    H126842   1.148   5.485   2.761  0.6583  1.7206  1.1989
 1761TIP3    H226843   1.040   5.524   2.663 -0.0384 -1.2447  0.6873
 1762TIP3   OH226844   1.707   5.601   0.042 -0.3220 -0.1654 -0.2837
 1762TIP3    H126845   1.627   5.549   0.036 -1.2453  1.1244  0.2729
 1762TIP3    H226846   1.710   5.651  -0.040  0.6277 -1.1307 -0.8738
 1763TIP3   OH226847   5.935   6.231   7.085 -0.6559 -0.2329 -0.0066
 1763TIP3    H126848   6.023   6.239   7.049 -1.1323  1.7065 -0.8603
 1763TIP3    H226849   5.879   6.216   7.009 -1.0828 -1.7479  0.5559
 1764TIP3   OH226850   1.567   2.232   2.782  0.0703  0.1870 -0.2201
 1764TIP3    H126851   1.490   2.184   2.812  0.4321 -0.7850 -0.8179
 1764TIP3    H226852   1.552   2.244   2.689 -0.2549  1.7158  0.0021
 1765TIP3   OH226853   6.739   6.145   7.297  0.2562  0.4965 -0.1208
 1765TIP3    H126854   6.724   6.065   7.245 -3.0517  0.9710 -0.1414
 1765TIP3    H226855   6.775   6.114   7.379 -1.9235 -1.2592  0.2858
 1766TIP3   OH226856   2.141   6.586   1.703  0.2957 -0.4462 -0.5569
 1766TIP3    H126857   2.211   6.648   1.682 -0.9355  0.7547 -1.3175
 1766TIP3    H226858   2.165   6.551   1.789  2.8504 -1.6140 -1.6538
 1767TIP3   OH226859   5.938   2.477   1.119  0.7421 -0.0899  0.1103
 1767TIP3    H126860   6.002   2.458   1.050 -1.6675 -3.3461 -1.5319
 1767TIP3    H226861   5.857   2.497   1.072 -0.3567  0.2661  2.0427
 1768TIP3   OH226862   1.735   6.660   2.828 -0.1824 -0.5620 -0.6144
 1768TIP3    H126863   1.642   6.637   2.826 -0.3979  0.2122 -2.8786
 1768TIP3    H226864   1.776   6.598   2.767  0.8838 -1.1002  0.5856
 1769TIP3   OH226865   5.673   3.897   2.347 -0.7052 -0.1613  0.0270
 1769TIP3    H126866   5.615   3.973   2.349 -0.1000  0.3048  0.2662
 1769TIP3    H226867   5.735   3.912   2.419  0.6792  0.1611 -1.1736
 1770TIP3   OH226868   1.993   2.944   7.265 -0.3767  0.3937 -0.5718
 1770TIP3    H126869   1.981   2.850   7.254 -1.4680  0.4942 -0.3686
 1770TIP3    H226870   2.067   2.966   7.209 -2.0451 -0.0606 -3.1143
 1771TIP3   OH226871   4.303   6.497   1.213  0.6389  0.0648  0.2265
 1771TIP3    H126872   4.273   6.478   1.302 -0.3470  2.0462  0.3580
 1771TIP3    H226873   4.261   6.579   1.190  0.3208 -0.7389 -2.3667
 1772TIP3   OH226874   5.848   6.498   0.858  0.2103  0.0903 -0.3192
 1772TIP3    H126875   5.806   6.445   0.925 -0.8974  2.2646  0.8216
 1772TIP3    H226876   5.885   6.572   0.907  2.6784 -0.1401 -1.6811
 1773TIP3   OH226877   3.434   1.530   8.342 -0.3459  0.4922 -0.2630
 1773TIP3    H126878   3.394   1.555   8.425  0.2290 -2.1029  0.8998
 1773TIP3    H226879   3.524   1.562   8.348 -0.0535 -0.4382  0.5323
 1774TIP3   OH226880   3.608   0.533   0.355 -0.6384 -0.3240 -0.3439
 1774TIP3    H126881   3.518   0.527   0.322  0.1847 -1.0567 -2.6615
 1774TIP3    H226882   3.619   0.625   0.378 -2.1773 -0.3534  0.6476
 1775TIP3   OH226883   6.233   4.735   2.021 -0.2412  0.1199  0.1842
 1775TIP3    H126884   6.185   4.712   2.101  0.2778  1.2942  0.8699
 1775TIP3    H226885   6.165   4.745   1.954 -0.8608  0.6739  0.8709
 1776TIP3   OH226886   6.132   4.615   6.677 -0.0841 -0.3737 -0.1083
 1776TIP3    H126887   6.095   4.527   6.664 -0.1752 -0.0719 -2.0669
 1776TIP3    H226888   6.227   4.602   6.672 -0.0902 -0.3803 -0.1965
 1777TIP3   OH226889   0.634   5.243   7.398  0.3893  0.1233  0.1326
 1777TIP3    H126890   0.661   5.320   7.348  0.3314  1.0944  1.5399
 1777TIP3    H226891   0.554   5.213   7.354 -0.9663  2.3246  0.9209
 1778TIP3   OH226892   6.415   1.766   2.045  0.0033  0.0218  0.0550
 1778TIP3    H126893   6.390   1.846   1.998  1.4935  1.1907  1.1260
 1778TIP3    H226894   6.479   1.724   1.987 -0.9256 -0.5286 -0.5987
 1779TIP3   OH226895   0.167   2.491   0.472  0.2108 -0.5390 -0.3282
 1779TIP3    H126896   0.183   2.495   0.377 -1.1208 -0.5277 -0.5621
 1779TIP3    H226897   0.207   2.408   0.499  2.1302  0.2402 -0.5634
 1780TIP3   OH226898   2.389   1.752   8.599 -0.0962  1.0421  0.2821
 1780TIP3    H126899   2.480   1.761   8.628 -0.1129 -0.8761  1.0483
 1780TIP3    H226900   2.344   1.826   8.639  0.9747  1.5955  0.5067
 1781TIP3   OH226901   4.318   0.861   8.505  0.2121 -0.0426  0.1713
 1781TIP3    H126902   4.334   0.820   8.590  2.3364  0.6121  0.1500
 1781TIP3    H226903   4.305   0.787   8.446 -1.6757 -0.5006  1.0860
 1782TIP3   OH226904   3.766   3.861   8.209 -0.0894 -0.1080  0.5929
 1782TIP3    H126905   3.703   3.797   8.244 -1.0004 -0.3972 -1.3923
 1782TIP3    H226906   3.730   3.885   8.124  1.5684  1.1529  0.1929
 1783TIP3   OH226907   2.773   1.479   8.124  0.7521  0.2345 -1.1092
 1783TIP3    H126908   2.754   1.385   8.115  1.2616 -0.0652  0.6086
 1783TIP3    H226909   2.869   1.483   8.124  0.7348  0.6904 -0.6153
 1784TIP3   OH226910   6.232   2.640   2.933  0.0585 -0.5545 -0.1893
 1784TIP3    H126911   6.230   2.725   2.889 -1.0504 -0.0805  0.7349
 1784TIP3    H226912   6.146   2.601   2.914  0.0686 -0.9056  0.4531
 1785TIP3   OH226913   2.171   6.573   0.942  0.0594  0.4048  0.0132
 1785TIP3    H126914   2.136   6.549   0.856 -0.1457  0.2858  0.1281
 1785TIP3    H226915   2.258   6.608   0.923  0.0739  0.2469 -0.2305
 1786TIP3   OH226916   3.149   6.505   1.835 -0.0152  0.1504 -0.5401
 1786TIP3    H126917   3.179   6.572   1.897 -0.2518  0.5967 -0.8967
 1786TIP3    H226918   3.112   6.437   1.890  1.5954 -0.4092 -0.0786
 1787TIP3   OH226919   4.507   3.009   7.910  0.1558 -0.4916 -0.4359
 1787TIP3    H126920   4.466   2.945   7.851 -1.6634  0.2500 -0.0568
 1787TIP3    H226921   4.476   3.094   7.877  1.1836  0.0836  0.0654
 1788TIP3   OH226922   5.706   4.068   1.865  0.7039 -0.2125 -0.1949
 1788TIP3    H126923   5.691   4.015   1.787  1.4117 -1.5339  0.5255
 1788TIP3    H226924   5.619   4.082   1.902  0.3387  0.6016 -1.3043
 1789TIP3   OH226925   1.596   5.918   0.705 -0.1246  0.4885 -0.4426
 1789TIP3    H126926   1.623   5.952   0.620 -0.7886  0.6469 -0.5980
 1789TIP3    H226927   1.672   5.931   0.762  0.6990 -0.5710 -1.2594
 1790TIP3   OH226928   2.042   3.531   2.605 -0.1953  0.2850  0.1520
 1790TIP3    H126929   2.125   3.485   2.600  0.3069  1.0639  1.0906
 1790TIP3    H226930   2.052   3.592   2.678 -1.0626  1.4210 -0.6370
 1791TIP3   OH226931   5.304   3.972   8.373  0.0655 -0.6057 -0.6556
 1791TIP3    H126932   5.332   4.025   8.447  0.6877 -2.0302  0.1622
 1791TIP3    H226933   5.300   4.034   8.300 -0.3451  0.7770  0.5004
 1792TIP3   OH226934   4.405   0.446   8.231  0.3106  0.3602  0.0745
 1792TIP3    H126935   4.462   0.371   8.247 -0.6640 -0.4754 -0.2776
 1792TIP3    H226936   4.388   0.443   8.137  0.1652  0.9616  0.0785
 1793TIP3   OH226937   6.258   2.970   0.751  0.0704 -0.4149 -0.1355
 1793TIP3    H126938   6.216   2.908   0.811 -1.5232 -0.3629 -1.1473
 1793TIP3    H226939   6.196   2.981   0.679  0.2967  2.3623 -0.0103
 1794TIP3   OH226940   5.918   5.803   7.347  0.8533 -0.2219  0.2359
 1794TIP3    H126941   5.920   5.707   7.347 -1.3790 -0.3389  1.3634
 1794TIP3    H226942   5.838   5.825   7.300  0.1303  0.9659  1.9154
 1795TIP3   OH226943   2.727   2.160   0.228  0.5253 -0.5859  0.3552
 1795TIP3    H126944   2.729   2.137   0.321  0.4833  0.4355  0.6209
 1795TIP3    H226945   2.700   2.080   0.184 -1.1181 -0.6418  1.3925
 1796TIP3   OH226946   0.770   5.388   1.617  0.2270  0.2437 -0.5016
 1796TIP3    H126947   0.734   5.476   1.628  0.0354  0.2774 -1.2722
 1796TIP3    H226948   0.864   5.398   1.631  0.5182  1.0075 -2.6121
 1797TIP3   OH226949   4.478   3.955   0.467 -0.1515 -0.2001  0.3390
 1797TIP3    H126950   4.555   3.996   0.427 -1.4712  3.9125  1.5399
 1797TIP3    H226951   4.407   3.974   0.406 -0.9287 -0.1035  1.2617
 1798TIP3   OH226952   0.282   6.551   0.455 -0.4491  0.2466  1.5978
 1798TIP3    H126953   0.227   6.575   0.530 -0.7156  1.5985  1.0024
 1798TIP3    H226954   0.235   6.478   0.414  0.1468 -1.1097  3.2125
 1799TIP3   OH226955   4.886   1.907   0.683 -0.3279 -0.1718 -0.1395
 1799TIP3    H126956   4.881   1.815   0.658 -3.2481 -0.4215  0.9982
 1799TIP3    H226957   4.820   1.950   0.629  0.2108  1.0648  0.1498
 1800TIP3   OH226958   4.716   1.576   8.072  0.9937  0.2376  0.1994
 1800TIP3    H126959   4.760   1.647   8.024  0.0733  1.0191  0.4907
 1800TIP3    H226960   4.780   1.504   8.071  1.1367  0.3213 -1.9369
 1801TIP3   OH226961   2.322   0.816   0.315  0.0392  0.4880 -0.0103
 1801TIP3    H126962   2.284   0.852   0.235  0.2709  0.6462 -0.0482
 1801TIP3    H226963   2.270   0.737   0.332  0.4975  0.0130 -0.7578
 1802TIP3   OH226964   3.246   2.893   0.771 -0.0372  0.3930  0.7208
 1802TIP3    H126965   3.186   2.960   0.802 -0.0869  0.0558  1.3577
 1802TIP3    H226966   3.259   2.835   0.846  1.8766  1.0242  0.9221
 1803TIP3   OH226967   1.646   2.555   0.803 -0.6673  0.0302 -0.3801
 1803TIP3    H126968   1.609   2.558   0.715  0.1014  1.0859 -0.6747
 1803TIP3    H226969   1.729   2.509   0.793 -0.3180  0.6441 -0.2987
 1804TIP3   OH226970   0.415   0.455   0.918  0.2351 -0.2255  0.0902
 1804TIP3    H126971   0.495   0.446   0.968  0.8921 -0.3987 -0.9489
 1804TIP3    H226972   0.388   0.365   0.899 -0.7715 -0.2019  1.2646
 1805TIP3   OH226973   2.557   6.834   8.229 -0.1257 -0.2528 -0.0023
 1805TIP3    H126974   2.503   6.776   8.283  1.0980  0.5980  2.2748
 1805TIP3    H226975   2.639   6.787   8.217  0.3666  0.4094  0.6803
 1806TIP3   OH226976   2.702   3.957   0.329  0.0465  0.2450  0.4004
 1806TIP3    H126977   2.638   3.955   0.400 -1.3785  2.3885 -0.7352
 1806TIP3    H226978   2.650   3.968   0.250  1.7168 -0.0340 -0.7861
 1807TIP3   OH226979   3.034   4.213   0.159  0.3708 -0.0408 -0.5967
 1807TIP3    H126980   3.090   4.197   0.235  0.1319  0.2373 -0.3577
 1807TIP3    H226981   3.057   4.144   0.097  1.5017  0.4947 -0.7955
 1808TIP3   OH226982   3.392   2.756   1.211 -0.5327  0.5908  0.0202
 1808TIP3    H126983   3.310   2.806   1.205 -0.9092 -0.0348 -0.2151
 1808TIP3    H226984   3.388   2.714   1.297 -0.4287  0.6085  0.0336
 1809TIP3   OH226985   2.990   0.868   8.236  0.3427  0.3863  0.1833
 1809TIP3    H126986   3.085   0.857   8.232  0.3799  0.9270 -1.1910
 1809TIP3    H226987   2.966   0.897   8.148 -1.0584  0.5712  0.6004
 1810TIP3   OH226988   5.897   5.234   0.414  0.3038 -1.0019  0.5863
 1810TIP3    H126989   5.953   5.295   0.367  1.1593 -0.8697  1.7128
 1810TIP3    H226990   5.953   5.157   0.429  0.6656 -0.4026  2.7843
 1811TIP3   OH226991   0.166   5.515   1.778  0.2228  1.1330  0.3089
 1811TIP3    H126992   0.148   5.491   1.687  0.8572  1.0990  0.1914
 1811TIP3    H226993   0.238   5.458   1.804  0.4531  1.5699  0.6406
 1812TIP3   OH226994   0.246   0.396   7.578  0.3537 -0.4827  0.2270
 1812TIP3    H126995   0.281   0.471   7.625 -2.4741  1.6289 -0.7702
 1812TIP3    H226996   0.156   0.386   7.611  0.1765 -2.5698 -0.6773
 1813TIP3   OH226997   1.533   1.820   2.450  0.5124 -0.1858 -0.0712
 1813TIP3    H126998   1.478   1.742   2.446  0.0032 -0.0059  1.9100
 1813TIP3    H226999   1.470   1.893   2.452  0.8206  0.0764  1.1022
 1814TIP3   OH227000   2.859   5.845   1.329  0.0139  0.2211  0.1951
 1814TIP3    H127001   2.920   5.774   1.344 -2.2930 -1.5725  1.7236
 1814TIP3    H227002   2.824   5.829   1.241 -0.0765 -0.2272  0.3100
 1815TIP3   OH227003   6.625   5.127   2.954  0.5969 -0.2960 -0.8107
 1815TIP3    H127004   6.670   5.042   2.947  0.1006 -0.6560  0.1340
 1815TIP3    H227005   6.534   5.104   2.969  0.4649  0.4088 -0.5202
 1816TIP3   OH227006   5.026   2.466   1.747  0.1591 -0.3923  0.4779
 1816TIP3    H127007   5.093   2.399   1.758  0.9508  0.0137 -1.3183
 1816TIP3    H227008   4.966   2.454   1.820  0.3975 -2.8843  0.3207
 1817TIP3   OH227009   3.055   5.250   7.793  0.7138  0.1709 -0.4188
 1817TIP3    H127010   3.051   5.337   7.753 -0.0166 -0.3322 -1.4957
 1817TIP3    H227011   3.086   5.266   7.882 -1.3238  1.7738  0.0946
 1818TIP3   OH227012   4.588   2.430   1.183  0.2482 -0.0956  0.0973
 1818TIP3    H127013   4.601   2.344   1.144 -0.9891  0.3181 -1.2948
 1818TIP3    H227014   4.669   2.477   1.163  1.1899 -1.0704  1.3873
 1819TIP3   OH227015   6.581   5.317   7.754  0.3066  0.5652  0.1744
 1819TIP3    H127016   6.653   5.380   7.750 -0.4748  1.3955 -1.8498
 1819TIP3    H227017   6.503   5.370   7.771 -0.0685 -0.1417  0.7429
 1820TIP3   OH227018   3.878   2.966   1.211  0.1336  0.8901 -0.2518
 1820TIP3    H127019   3.793   2.960   1.255  0.4283 -0.9553  0.1780
 1820TIP3    H227020   3.941   2.977   1.282  0.4379 -0.1946 -0.3253
 1821TIP3   OH227021   1.083   4.699   2.142  0.3643 -0.5981  0.0584
 1821TIP3    H127022   1.104   4.608   2.125  2.6786 -0.0474 -0.4443
 1821TIP3    H227023   1.099   4.710   2.236  0.6162 -0.5996  0.0170
 1822TIP3   OH227024   2.111   6.814   1.966 -0.1550  0.2365 -0.0771
 1822TIP3    H127025   2.153   6.886   2.013  0.7790  1.6572 -2.8710
 1822TIP3    H227026   2.178   6.746   1.961  1.0858  1.4978 -2.2947
 1823TIP3   OH227027   2.408   3.063   1.477 -1.0850 -0.1565  0.1005
 1823TIP3    H127028   2.467   2.996   1.511  0.0120  0.6721 -0.1418
 1823TIP3    H227029   2.436   3.144   1.519 -2.1215  0.2382  0.0555
 1824TIP3   OH227030   5.627   4.708   2.613 -0.0661 -0.7228  0.5148
 1824TIP3    H127031   5.715   4.726   2.580  0.0101 -1.7064  0.1493
 1824TIP3    H227032   5.630   4.739   2.704 -0.0152  1.2066 -0.0981
 1825TIP3   OH227033   3.650   4.988   0.611  0.0575 -0.3457  0.0641
 1825TIP3    H127034   3.616   4.915   0.663  1.9542  0.3927  2.5652
 1825TIP3    H227035   3.590   5.061   0.630  1.4895  0.3219  2.6135
 1826TIP3   OH227036   4.523   6.836   1.928 -0.1418  0.2663  0.5006
 1826TIP3    H127037   4.562   6.784   1.998  0.6514 -0.5480 -0.5146
 1826TIP3    H227038   4.459   6.892   1.972  0.1972 -0.3687  1.8368
 1827TIP3   OH227039   4.836   2.853   1.622 -0.4126 -0.2861 -0.1691
 1827TIP3    H127040   4.745   2.883   1.624 -0.4193 -0.2445 -0.8128
 1827TIP3    H227041   4.879   2.911   1.559  0.0131 -0.4356 -0.0203
 1828TIP3   OH227042   3.261   4.593   0.417  0.7146 -0.0929  0.5605
 1828TIP3    H127043   3.276   4.683   0.447  1.0987 -0.1954  0.6815
 1828TIP3    H227044   3.305   4.588   0.332  1.0886 -0.2956  0.7619
 1829TIP3   OH227045   1.744   0.704   1.030 -0.3878  0.5136 -0.1710
 1829TIP3    H127046   1.657   0.683   0.998 -0.6038 -0.1741  0.8168
 1829TIP3    H227047   1.803   0.658   0.970 -0.6807  1.2641 -1.0474
 1830TIP3   OH227048   4.098   2.809   7.815  0.1704 -0.3049  0.2037
 1830TIP3    H127049   4.122   2.751   7.742  0.9773  1.2159 -0.8251
 1830TIP3    H227050   4.125   2.896   7.784 -3.3194  1.0451  0.5770
 1831TIP3   OH227051   1.155   4.793   2.945 -0.5406  0.2095  0.4294
 1831TIP3    H127052   1.189   4.724   2.888  0.4594  1.4194 -0.4980
 1831TIP3    H227053   1.060   4.784   2.941 -0.4812  0.1201 -1.2807
 1832TIP3   OH227054   1.314   1.355   2.262 -0.4543 -0.4226  0.0459
 1832TIP3    H127055   1.320   1.416   2.336  2.0114 -1.2680  0.6380
 1832TIP3    H227056   1.405   1.335   2.240 -1.1535 -1.1081 -2.4971
 1833TIP3   OH227057   6.065   4.426   7.333 -0.2252 -0.7512  0.2471
 1833TIP3    H127058   6.141   4.374   7.308 -0.4855 -0.9277 -0.1899
 1833TIP3    H227059   6.011   4.367   7.386  0.8838 -0.0351  2.2975
 1834TIP3   OH227060   5.815   0.457   2.478 -0.5623  0.0017 -0.8245
 1834TIP3    H127061   5.742   0.515   2.499  0.7546  1.4396  0.0010
 1834TIP3    H227062   5.825   0.465   2.383 -0.6751  0.8127 -0.7776
 1835TIP3   OH227063   1.980   4.422   7.828 -0.0244  0.7300 -0.1174
 1835TIP3    H127064   2.062   4.421   7.876 -0.4801 -0.0860  0.6570
 1835TIP3    H227065   1.918   4.376   7.884 -1.0749  1.5077 -0.5914
 1836TIP3   OH227066   6.854   6.619   8.373  0.0990 -0.3694  0.0555
 1836TIP3    H127067   6.778   6.604   8.429 -0.3920 -1.3736 -0.8536
 1836TIP3    H227068   6.817   6.652   8.291  0.5907 -1.3243 -0.5637
 1837TIP3   OH227069   6.761   4.848   0.508 -0.7072  0.3781 -0.0108
 1837TIP3    H127070   6.666   4.841   0.517 -0.4856 -0.0356  2.8113
 1837TIP3    H227071   6.793   4.872   0.595  1.7981  0.4231 -0.8387
 1838TIP3   OH227072   3.876   6.749   7.575 -0.3237 -0.6504 -0.2178
 1838TIP3    H127073   3.959   6.736   7.529 -1.0664 -3.0307 -1.0138
 1838TIP3    H227074   3.847   6.835   7.547  2.2936  0.6904  0.8212
 1839TIP3   OH227075   0.829   5.280   0.497 -0.0438  0.2275  0.8499
 1839TIP3    H127076   0.822   5.214   0.428 -0.7420  1.1576  0.0100
 1839TIP3    H227077   0.924   5.294   0.506  0.0593  0.3151 -0.1557
 1840TIP3   OH227078   2.199   3.773   7.400  0.1209 -0.3046  0.4356
 1840TIP3    H127079   2.229   3.804   7.485  1.1221  1.6758 -0.5758
 1840TIP3    H227080   2.103   3.780   7.403 -0.0013 -2.0227  1.9895
 1841TIP3   OH227081   4.429   5.517   1.430 -0.2799 -0.6120  0.4628
 1841TIP3    H127082   4.399   5.601   1.466 -1.0638 -0.3542 -0.7484
 1841TIP3    H227083   4.370   5.499   1.357  0.5829 -1.6662 -0.0070
 1842TIP3   OH227084   2.008   1.562   1.713  0.4064 -0.0560  0.6039
 1842TIP3    H127085   2.007   1.612   1.795 -0.0624  2.2950 -0.7726
 1842TIP3    H227086   1.917   1.563   1.683  0.1559 -2.7005  1.0174
 1843TIP3   OH227087   0.331   2.567   8.237 -0.0155 -1.0850 -0.6487
 1843TIP3    H127088   0.310   2.628   8.167  0.0361  0.5446  0.6870
 1843TIP3    H227089   0.422   2.542   8.221  1.0260  1.6401  0.4204
 1844TIP3   OH227090   6.799   3.798   7.258 -0.0781 -0.0868 -0.4027
 1844TIP3    H127091   6.714   3.777   7.220  0.0067  0.5839 -0.9879
 1844TIP3    H227092   6.860   3.795   7.184  0.3854 -0.4220 -0.0146
 1845TIP3   OH227093   3.753   0.205   0.573  0.1655 -0.2278  0.6020
 1845TIP3    H127094   3.771   0.154   0.652 -0.4099 -1.7160 -0.1813
 1845TIP3    H227095   3.818   0.173   0.509  1.2331  1.6064  0.6930
 1846TIP3   OH227096   3.408   2.628   1.665 -0.5538 -0.4515 -0.1197
 1846TIP3    H127097   3.419   2.701   1.605  0.1328 -0.6752 -0.2684
 1846TIP3    H227098   3.488   2.576   1.656 -0.0445 -0.0359  1.6247
 1847TIP3   OH227099   2.348   2.671   8.250  0.3285  0.2496  0.3152
 1847TIP3    H127100   2.396   2.590   8.231 -0.4347 -0.4054  1.0591
 1847TIP3    H227101   2.393   2.708   8.326  0.7150  0.5633 -0.0624
 1848TIP3   OH227102   0.048   6.581   7.165 -0.4737  0.3946 -0.2298
 1848TIP3    H127103   0.015   6.520   7.232 -1.8831  1.3215 -0.0355
 1848TIP3    H227104  -0.000   6.558   7.086  1.4841 -0.9712 -1.1122
 1849TIP3   OH227105   3.965   3.438   1.624 -0.1069 -0.3992  0.5351
 1849TIP3    H127106   3.929   3.402   1.544  1.5557 -0.5878 -0.1795
 1849TIP3    H227107   3.952   3.533   1.616 -2.5461 -0.6005  1.4254
 1850TIP3   OH227108   0.055   6.335   0.681 -0.3956 -0.4491  0.1744
 1850TIP3    H127109   0.075   6.352   0.589 -1.8018 -0.7023 -0.2002
 1850TIP3    H227110   0.140   6.339   0.725  0.2486  0.0747 -1.0636
 1851TIP3   OH227111   4.599   6.283   2.738 -0.2906  0.7596 -0.0930
 1851TIP3    H127112   4.555   6.198   2.730 -0.9139  0.9197  1.3704
 1851TIP3    H227113   4.691   6.264   2.716 -0.1078 -0.6304  1.6356
 1852TIP3   OH227114   2.856   1.970   8.203  1.0303 -0.2914 -0.4199
 1852TIP3    H127115   2.816   1.923   8.276  0.1397 -1.4647 -1.5879
 1852TIP3    H227116   2.933   1.918   8.180  0.5396 -0.7168 -1.1546
 1853TIP3   OH227117   0.660   3.757   0.584  0.2711 -0.1665 -0.7630
 1853TIP3    H127118   0.748   3.757   0.622  0.0880  0.6041 -0.3246
 1853TIP3    H227119   0.657   3.837   0.532 -0.7517  0.7493  0.6310
 1854TIP3   OH227120   5.029   0.574   1.504 -0.5212 -0.4644  0.2791
 1854TIP3    H127121   5.008   0.573   1.597 -0.7460 -0.3717  0.2303
 1854TIP3    H227122   5.113   0.619   1.500 -1.0222  0.5236  0.3469
 1855TIP3   OH227123   3.930   3.632   0.680  0.4264  0.3019 -0.2316
 1855TIP3    H127124   3.936   3.558   0.740 -1.2333  1.7116  1.8112
 1855TIP3    H227125   4.007   3.685   0.700  0.0992  0.5573  0.3648
 1856TIP3   OH227126   6.532   6.358   1.078 -0.3271  0.0836  0.1334
 1856TIP3    H127127   6.502   6.429   1.020  1.7280  0.9951  0.0891
 1856TIP3    H227128   6.452   6.327   1.120 -1.3190  2.5397  0.2691
 1857TIP3   OH227129   6.794   1.734   2.438 -0.3521 -0.0883  0.1207
 1857TIP3    H127130   6.792   1.796   2.511  0.7792  0.8422 -0.6011
 1857TIP3    H227131   6.874   1.683   2.453 -1.0903 -1.1691  0.5146
 1858TIP3   OH227132   2.955   5.276   2.225 -0.0871 -0.0725  0.6134
 1858TIP3    H127133   2.993   5.239   2.145 -1.7951  0.5477 -0.5536
 1858TIP3    H227134   2.882   5.218   2.245  0.1254 -0.0285  1.5505
 1859TIP3   OH227135   2.631   5.736   8.481  0.5307 -0.4319 -0.1456
 1859TIP3    H127136   2.544   5.717   8.516  0.2987 -0.2642 -0.6315
 1859TIP3    H227137   2.642   5.830   8.492  0.8852 -0.5347  0.4386
 1860TIP3   OH227138   0.045   3.319   0.872  0.4006  0.4470  0.3755
 1860TIP3    H127139   0.085   3.234   0.891  0.5493  0.4742  0.1819
 1860TIP3    H227140   0.100   3.382   0.918 -0.8679  0.2841  2.2500
 1861TIP3   OH227141   0.195   4.755   1.175  0.2660 -0.0772 -0.0435
 1861TIP3    H127142   0.195   4.798   1.260  1.5692  0.1717 -0.1523
 1861TIP3    H227143   0.129   4.686   1.183 -0.3683  0.6043  0.8125
 1862TIP3   OH227144   0.418   2.599   7.444 -0.3465 -0.2556 -0.3038
 1862TIP3    H127145   0.449   2.689   7.449 -0.3245 -0.2704 -0.1728
 1862TIP3    H227146   0.380   2.591   7.356 -2.2096  0.4891  0.3804
 1863TIP3   OH227147   4.103   2.143   0.433 -0.0184  0.2056 -0.1869
 1863TIP3    H127148   4.087   2.075   0.499 -1.0741  0.8344  0.2153
 1863TIP3    H227149   4.183   2.114   0.389  0.3736 -0.5326  0.9645
 1864TIP3   OH227150   2.556   6.617   7.819 -0.0290  0.5818 -0.6042
 1864TIP3    H127151   2.545   6.527   7.790  0.6253  0.2093  0.2344
 1864TIP3    H227152   2.493   6.668   7.768  0.0277 -0.2570 -1.5220
 1865TIP3   OH227153   3.161   4.154   1.220  0.6392  0.6181 -0.2687
 1865TIP3    H127154   3.154   4.126   1.312 -0.5013 -0.2501 -0.5925
 1865TIP3    H227155   3.190   4.076   1.173 -0.0257  0.6848 -0.8166
 1866TIP3   OH227156   0.821   4.012   1.486  0.0513 -0.3965 -0.9025
 1866TIP3    H127157   0.884   4.083   1.495 -1.1855  0.7327 -0.6894
 1866TIP3    H227158   0.745   4.053   1.445 -1.0749 -1.3554  0.1382
 1867TIP3   OH227159   3.682   6.626   0.670 -0.0044 -0.1233  0.9603
 1867TIP3    H127160   3.596   6.586   0.659  0.5639 -1.1129 -0.1639
 1867TIP3    H227161   3.736   6.558   0.711  0.4987  0.1335  0.7398
 1868TIP3   OH227162   6.864   1.849   0.822 -0.1407  0.9455 -0.5232
 1868TIP3    H127163   6.834   1.925   0.873 -0.6656  1.5236 -1.6546
 1868TIP3    H227164   6.958   1.861   0.816 -0.2114  1.4962 -0.6478
 1869TIP3   OH227165   4.913   0.724   0.185  0.3016  0.2385  0.1161
 1869TIP3    H127166   4.851   0.736   0.113  1.2615 -1.5077 -1.1071
 1869TIP3    H227167   4.869   0.760   0.262 -1.0356  1.5889 -1.2097
 1870TIP3   OH227168   6.465   2.139   7.345 -0.0352 -0.3763 -0.0622
 1870TIP3    H127169   6.554   2.117   7.317  0.0358 -1.4318  0.9303
 1870TIP3    H227170   6.474   2.223   7.389  0.2733  0.0465 -0.8997
 1871TIP3   OH227171   4.576   2.175   1.041 -0.1578  0.2684  0.4301
 1871TIP3    H127172   4.507   2.116   1.071 -0.9576  1.2217  0.4950
 1871TIP3    H227173   4.579   2.162   0.947  1.5934 -1.9049  0.6941
 1872TIP3   OH227174   4.364   2.833   2.059  0.7527  0.3346 -0.4359
 1872TIP3    H127175   4.397   2.787   2.136  0.1833  1.1450  0.3043
 1872TIP3    H227176   4.270   2.817   2.060  0.4702  1.9044  0.1205
 1873TIP3   OH227177   5.800   4.897   2.270  0.3195  0.5509  0.6790
 1873TIP3    H127178   5.708   4.892   2.242  0.3153  0.3044  0.7426
 1873TIP3    H227179   5.797   4.885   2.365  0.5546 -0.9292  0.5164
 1874TIP3   OH227180   4.792   4.263   8.483  0.2701 -0.1454 -0.1089
 1874TIP3    H127181   4.799   4.337   8.544 -0.1550  1.4632 -1.9244
 1874TIP3    H227182   4.715   4.282   8.430  0.8478 -1.2604 -1.4228
 1875TIP3   OH227183   6.530   3.375   0.080  0.4099  0.0992  0.0619
 1875TIP3    H127184   6.522   3.379   0.176 -2.4680 -0.5616 -0.0591
 1875TIP3    H227185   6.490   3.456   0.049  0.5710 -0.0797 -0.6223
 1876TIP3   OH227186   4.909   5.901   0.127 -0.2298 -0.4469  0.2487
 1876TIP3    H127187   4.925   5.850   0.206  3.3431  1.0025  0.6577
 1876TIP3    H227188   4.949   5.851   0.057  0.2720  0.1906  0.0731
 1877TIP3   OH227189   1.600   0.896   2.494 -0.0681 -0.3396  0.1372
 1877TIP3    H127190   1.517   0.907   2.540 -0.4155 -1.0557 -0.3003
 1877TIP3    H227191   1.634   0.812   2.527  1.1506  0.5894  1.3301
 1878TIP3   OH227192   4.728   2.806   8.378 -0.0927  0.3663 -0.1550
 1878TIP3    H127193   4.720   2.855   8.459 -0.1683  0.5644 -0.2810
 1878TIP3    H227194   4.729   2.873   8.309 -1.0680  0.1629 -0.3903
 1879TIP3   OH227195   6.727   0.869   7.162  0.2410 -0.1911 -0.2800
 1879TIP3    H127196   6.636   0.846   7.182  0.7105 -1.6696  0.3348
 1879TIP3    H227197   6.742   0.951   7.209 -0.3061 -0.7887  0.9985
 1880TIP3   OH227198   0.847   4.149   7.752  0.1229 -0.1758  0.6057
 1880TIP3    H127199   0.769   4.118   7.800  0.5287 -0.2833  1.2098
 1880TIP3    H227200   0.872   4.229   7.797  0.6299 -0.3863  0.7088
 1881TIP3   OH227201   4.270   2.667   1.637 -0.1734  0.3052  0.6088
 1881TIP3    H127202   4.198   2.726   1.618  1.1198  1.8385  0.2165
 1881TIP3    H227203   4.247   2.627   1.721 -1.5766  0.5495  0.3624
 1882TIP3   OH227204   5.215   2.539   7.918  0.3421  0.2734 -0.2580
 1882TIP3    H127205   5.224   2.633   7.937  1.5290 -0.2961  2.5006
 1882TIP3    H227206   5.302   2.513   7.887  0.2449 -0.0763 -0.2410
 1883TIP3   OH227207   1.572   1.308   0.235  0.2370  0.0390  0.0983
 1883TIP3    H127208   1.570   1.329   0.142 -0.3607 -2.4251 -0.4968
 1883TIP3    H227209   1.480   1.295   0.260  0.3050  1.5270  1.2830
 1884TIP3   OH227210   5.643   1.019   1.547 -0.0417 -0.1285  0.5669
 1884TIP3    H127211   5.568   1.066   1.510  0.2056  0.6285  1.0246
 1884TIP3    H227212   5.640   0.933   1.504 -0.0383  0.5585 -0.8899
 1885TIP3   OH227213   3.270   5.839   0.361 -0.2738 -0.3315  0.0969
 1885TIP3    H127214   3.357   5.800   0.352 -0.3778 -0.1644 -2.3520
 1885TIP3    H227215   3.210   5.772   0.330 -1.0459 -0.3461  1.5149
 1886TIP3   OH227216   2.538   5.386   7.097  0.2395  0.2307 -0.5455
 1886TIP3    H127217   2.595   5.310   7.086 -2.1291 -1.8138  0.3984
 1886TIP3    H227218   2.463   5.368   7.040 -0.6813  1.5484  0.1981
 1887TIP3   OH227219   1.394   5.043   0.084  0.2443  0.0878 -0.8749
 1887TIP3    H127220   1.420   5.060  -0.006 -2.3147  0.1447 -1.6755
 1887TIP3    H227221   1.380   4.948   0.087 -1.9913  0.3512 -1.2862
 1888TIP3   OH227222   1.711   2.774   8.124  0.4080  0.0901 -0.3214
 1888TIP3    H127223   1.779   2.805   8.065 -0.5136  2.1285 -0.3974
 1888TIP3    H227224   1.629   2.806   8.085 -0.2913  0.7399  1.5671
 1889TIP3   OH227225   1.435   3.903   1.190  0.0134  0.0307  0.0894
 1889TIP3    H127226   1.521   3.863   1.205 -0.7286 -0.9599  2.1615
 1889TIP3    H227227   1.455   3.994   1.168  1.5995 -0.1516  0.5974
 1890TIP3   OH227228   1.779   5.138   1.946  0.1528  0.1327  0.0504
 1890TIP3    H127229   1.782   5.070   1.879 -2.4595 -1.4325  1.3827
 1890TIP3    H227230   1.693   5.179   1.936  0.2349  0.7603  1.6030
 1891TIP3   OH227231   4.733   0.440   7.948 -0.2880  0.2873  0.8805
 1891TIP3    H127232   4.734   0.534   7.967  3.0045  0.2212  1.6075
 1891TIP3    H227233   4.780   0.431   7.866 -2.1528 -0.6557 -0.1524
 1892TIP3   OH227234   1.078   3.809   0.558  0.1465 -0.2053  0.1859
 1892TIP3    H127235   1.030   3.743   0.507  0.5160 -1.7406  1.7354
 1892TIP3    H227236   1.010   3.851   0.611  0.0609 -0.0539 -0.0403
 1893TIP3   OH227237   3.730   5.910   7.412  0.1816  0.1946 -0.1579
 1893TIP3    H127238   3.810   5.932   7.366  0.3395  0.7217  0.3587
 1893TIP3    H227239   3.740   5.817   7.434  0.3472  0.0865 -0.6879
 1894TIP3   OH227240   5.686   0.860   7.668 -0.0587  0.1091  0.3511
 1894TIP3    H127241   5.740   0.804   7.611  0.3882  0.4960  0.3886
 1894TIP3    H227242   5.718   0.948   7.651 -2.4274  0.6963 -1.5952
 1895TIP3   OH227243   1.578   2.350   8.267  0.0817  0.0957  0.6579
 1895TIP3    H127244   1.661   2.350   8.316 -0.1859  0.5846  1.1278
 1895TIP3    H227245   1.512   2.330   8.333 -0.2133  0.0633  0.3546
 1896TIP3   OH227246   2.002   0.441   0.635 -0.3232  0.3954 -0.2532
 1896TIP3    H127247   2.073   0.436   0.572  1.2991 -0.2236  1.5436
 1896TIP3    H227248   1.972   0.350   0.645 -1.0744  0.5875 -0.6399
 1897TIP3   OH227249   4.424   1.158   2.060 -0.0447  0.2317  0.2261
 1897TIP3    H127250   4.418   1.066   2.032 -2.1113  0.1229  0.8790
 1897TIP3    H227251   4.417   1.208   1.978 -0.1584 -0.1684 -0.0128
 1898TIP3   OH227252   0.565   6.452   2.069  0.0194 -0.4269 -0.3467
 1898TIP3    H127253   0.512   6.465   2.148  0.9002  1.4680 -0.0072
 1898TIP3    H227254   0.608   6.536   2.055  1.3905 -1.3052 -1.7603
 1899TIP3   OH227255   2.350   6.296   7.027 -0.1139  0.3671 -0.0944
 1899TIP3    H127256   2.291   6.285   7.103  0.1820  0.6790  0.1802
 1899TIP3    H227257   2.431   6.331   7.064 -0.1631  1.0661 -0.6362
 1900TIP3   OH227258   2.350   6.849   1.193  0.2226  0.2584  0.5801
 1900TIP3    H127259   2.336   6.871   1.286 -0.5103  0.7942  0.3578
 1900TIP3    H227260   2.364   6.933   1.150 -2.8310  0.4349 -0.3225
 1901TIP3   OH227261   3.600   5.581   1.487  0.4263 -0.3251 -0.1931
 1901TIP3    H127262   3.667   5.646   1.466  0.6012 -0.3459  0.2963
 1901TIP3    H227263   3.532   5.595   1.421  1.1793 -0.7026 -1.0592
 1902TIP3   OH227264   1.051   0.913   0.349 -0.0936 -0.4590 -0.7174
 1902TIP3    H127265   1.034   0.959   0.431  0.6240  1.1641 -1.4160
 1902TIP3    H227266   0.975   0.858   0.335 -1.5557  1.3623 -0.3368
 1903TIP3   OH227267   0.133   2.550   0.756  0.2999 -0.1951 -0.5894
 1903TIP3    H127268   0.048   2.550   0.800  0.3483 -3.9031 -0.1323
 1903TIP3    H227269   0.152   2.642   0.738 -3.5073  0.8099 -0.1839
 1904TIP3   OH227270   5.956   2.175   1.762  0.2449  0.1728 -0.4685
 1904TIP3    H127271   5.943   2.206   1.852  3.6879  1.0915 -0.1372
 1904TIP3    H227272   5.933   2.082   1.766 -1.6257  0.6310  0.8036
 1905TIP3   OH227273   2.382   2.176   2.404  0.0579 -0.1274  0.2407
 1905TIP3    H127274   2.386   2.272   2.404 -0.7150 -0.0851 -0.6780
 1905TIP3    H227275   2.329   2.155   2.481 -0.5373  0.2345 -0.0576
 1906TIP3   OH227276   3.872   3.721   0.169  0.2837  0.7414 -0.3564
 1906TIP3    H127277   3.865   3.816   0.160  1.4654  0.8087 -0.7530
 1906TIP3    H227278   3.924   3.709   0.249  0.6279  0.4474 -0.6240
 1907TIP3   OH227279   6.759   5.672   0.769  0.1881 -0.2703 -0.0529
 1907TIP3    H127280   6.785   5.646   0.858 -1.2940  0.0652  0.4969
 1907TIP3    H227281   6.836   5.651   0.715  0.0568 -3.3447  0.7693
 1908TIP3   OH227282   5.420   0.778   7.688  0.0214  0.3003  1.1394
 1908TIP3    H127283   5.514   0.793   7.677  0.2447 -0.9761  1.2186
 1908TIP3    H227284   5.380   0.817   7.610  0.5926  0.9732  1.1719
 1909TIP3   OH227285   6.603   1.632   1.398  0.1185 -0.2306 -0.3660
 1909TIP3    H127286   6.539   1.703   1.397  0.8991  0.4799 -1.5070
 1909TIP3    H227287   6.553   1.554   1.374 -0.3990  0.2526 -0.8780
 1910TIP3   OH227288   1.047   3.949   8.582  0.3057 -0.5813 -0.1174
 1910TIP3    H127289   1.006   4.036   8.580  0.8934 -0.3016 -1.6990
 1910TIP3    H227290   1.053   3.927   8.675 -1.0794  0.4774  0.2494
 1911TIP3   OH227291   3.794   4.782   0.101  0.5466 -0.1325  0.1352
 1911TIP3    H127292   3.748   4.797   0.184 -1.8820  0.9901 -1.3158
 1911TIP3    H227293   3.886   4.795   0.122 -0.1677  2.4521  2.2076
 1912TIP3   OH227294   1.649   3.718   8.273 -0.1006  0.0032 -0.4662
 1912TIP3    H127295   1.619   3.705   8.363 -1.5070  1.4457 -0.6774
 1912TIP3    H227296   1.730   3.667   8.267 -1.2776 -2.1666  0.8529
 1913TIP3   OH227297   5.249   2.181   7.105  0.1571  0.2026  0.8438
 1913TIP3    H127298   5.226   2.096   7.141  2.2580 -0.2608  1.2264
 1913TIP3    H227299   5.344   2.177   7.091 -0.0913  1.4322 -1.9179
 1914TIP3   OH227300   3.202   1.435   2.186 -0.1199  0.5571  0.3808
 1914TIP3    H127301   3.249   1.382   2.251 -0.8850  0.0787  0.5507
 1914TIP3    H227302   3.121   1.388   2.170 -1.2843  2.1567  1.2832
 1915TIP3   OH227303   1.394   0.637   7.779  0.2306 -0.0934 -0.2583
 1915TIP3    H127304   1.479   0.629   7.734 -0.3671 -1.4398 -1.2096
 1915TIP3    H227305   1.414   0.685   7.860  2.1922 -1.7742  0.3251
 1916TIP3   OH227306   5.317   5.827   1.249  0.6706 -0.5346  0.5459
 1916TIP3    H127307   5.231   5.805   1.284 -1.8632  0.0114 -4.3493
 1916TIP3    H227308   5.353   5.744   1.219  1.3719 -0.6193  1.5923
 1917TIP3   OH227309   6.614   4.982   2.083  0.1618 -0.0376  0.8663
 1917TIP3    H127310   6.621   4.906   2.140  0.3663 -0.3758  0.3975
 1917TIP3    H227311   6.573   4.949   2.003  0.7579  0.2173  0.4401
 1918TIP3   OH227312   0.696   0.131   0.459  0.0899  0.4972 -0.7721
 1918TIP3    H127313   0.764   0.144   0.525  0.6266  2.2772 -1.6042
 1918TIP3    H227314   0.623   0.184   0.490 -1.8266 -2.8967  1.1462
 1919TIP3   OH227315   6.578   4.741   8.344  0.4412  0.4137 -0.2357
 1919TIP3    H127316   6.652   4.734   8.405 -0.4446 -4.1275  0.6587
 1919TIP3    H227317   6.617   4.721   8.258  0.8287  1.8001 -0.4031
 1920TIP3   OH227318   5.783   5.845   2.097 -0.2795 -0.2659  0.2666
 1920TIP3    H127319   5.708   5.788   2.118  1.3483 -2.3464  0.7249
 1920TIP3    H227320   5.820   5.868   2.182  1.0397 -1.2923 -0.0151
 1921TIP3   OH227321   6.507   4.441   8.404  0.1673 -0.0472 -0.0107
 1921TIP3    H127322   6.536   4.491   8.328 -0.5749  0.5506  0.0871
 1921TIP3    H227323   6.507   4.350   8.375  0.7052  0.0929 -0.4559
 1922TIP3   OH227324   0.015   1.046   1.782  0.3316 -0.3752 -0.2225
 1922TIP3    H127325   0.027   1.123   1.726  3.0235  0.4687  1.3387
 1922TIP3    H227326   0.075   1.060   1.855 -1.6835 -2.3105  1.9549
 1923TIP3   OH227327   5.219   4.195   1.676 -0.0858 -0.1442 -0.0127
 1923TIP3    H127328   5.168   4.115   1.684  0.6976 -0.7537 -1.0082
 1923TIP3    H227329   5.260   4.206   1.762 -0.2394 -0.7743  0.1430
 1924TIP3   OH227330   0.066   1.217   1.583 -0.4068 -0.3396  0.4887
 1924TIP3    H127331   0.148   1.232   1.536  0.1852 -2.9884  0.5183
 1924TIP3    H227332   0.011   1.293   1.561  1.1790  0.3310 -1.4371
 1925TIP3   OH227333   4.621   2.742   0.297 -0.2973  0.2199 -0.2645
 1925TIP3    H127334   4.710   2.777   0.297  0.2141 -1.0370 -0.7461
 1925TIP3    H227335   4.586   2.765   0.211  0.2970 -1.0302 -0.8668
 1926TIP3   OH227336   1.544   4.693   1.734  0.0945 -0.8735  0.3737
 1926TIP3    H127337   1.458   4.661   1.760 -0.3322 -0.6007 -0.6680
 1926TIP3    H227338   1.542   4.693   1.639  0.1811  1.8593  0.2924
 1927TIP3   OH227339   3.972   5.386   1.319 -0.3213  0.1261 -0.4125
 1927TIP3    H127340   4.000   5.304   1.278  0.8203  0.3746 -0.1690
 1927TIP3    H227341   3.921   5.358   1.395 -0.5430 -0.3522 -0.7323
 1928TIP3   OH227342   4.613   3.970   2.130  0.8137  0.2918 -0.0912
 1928TIP3    H127343   4.590   3.902   2.193 -1.1629 -0.2954 -1.3549
 1928TIP3    H227344   4.703   3.993   2.151  0.9284 -1.4209  1.5307
 1929TIP3   OH227345   3.916   2.158   2.347 -0.3742  0.3431 -0.5551
 1929TIP3    H127346   3.849   2.154   2.279 -3.1962 -1.2978  2.0916
 1929TIP3    H227347   3.921   2.069   2.381  0.7311  1.1619  1.6025
 1930TIP3   OH227348   0.933   5.052   7.904  0.0509 -0.3917 -0.0622
 1930TIP3    H127349   0.962   5.115   7.969  1.2495 -1.5564  0.5967
 1930TIP3    H227350   0.901   4.977   7.954  1.6132 -1.5883 -0.7311
 1931TIP3   OH227351   1.339   6.140   8.109 -0.0663  0.0382  0.0881
 1931TIP3    H127352   1.421   6.089   8.107 -0.0452  0.0650  0.2959
 1931TIP3    H227353   1.327   6.162   8.201  0.1109  0.7098 -0.0493
 1932TIP3   OH227354   0.063   3.049   7.589  0.2760  0.1666  0.0880
 1932TIP3    H127355   0.091   3.044   7.681  0.2385  0.7669  0.1356
 1932TIP3    H227356   0.095   2.968   7.550  0.9888  0.2690  0.4393
 1933TIP3   OH227357   5.460   4.314   1.657 -0.0633 -0.2370  0.0477
 1933TIP3    H127358   5.424   4.225   1.658  1.0008 -0.6755  0.2454
 1933TIP3    H227359   5.554   4.302   1.642  0.6918  0.6285  3.3254
 1934TIP3   OH227360   2.977   5.947   7.790 -0.3625  1.1441  0.3131
 1934TIP3    H127361   3.007   5.856   7.795 -2.5543  0.3180 -0.7034
 1934TIP3    H227362   3.007   5.985   7.873 -2.2018 -1.4467  2.3903
 1935TIP3   OH227363   2.856   0.029   1.577  0.5600  0.6611  0.6973
 1935TIP3    H127364   2.814   0.006   1.659 -1.6931 -1.2571 -0.8736
 1935TIP3    H227365   2.901  -0.051   1.549 -1.1542  0.2799 -1.2579
 1936TIP3   OH227366   6.733   2.101   0.346  0.0310  0.0587 -0.3778
 1936TIP3    H127367   6.817   2.054   0.342 -1.7884 -3.8006  1.0279
 1936TIP3    H227368   6.719   2.115   0.440 -1.0159  0.3820 -0.5762
 1937TIP3   OH227369   2.193   2.047   2.610  0.1969  0.1725 -0.0958
 1937TIP3    H127370   2.137   2.019   2.682 -0.2123  1.0327 -0.0680
 1937TIP3    H227371   2.282   2.025   2.639 -0.0584 -0.5459  0.1646
 1938TIP3   OH227372   2.608   6.423   7.442 -0.4500  0.3493  0.0005
 1938TIP3    H127373   2.700   6.429   7.414 -0.5279  1.1978 -0.0776
 1938TIP3    H227374   2.610   6.362   7.516  0.1009 -0.0320 -0.3119
 1939TIP3   OH227375   0.030   6.014   1.997 -0.0608  0.0957 -0.0235
 1939TIP3    H127376   0.035   6.109   1.999  1.0298  0.0665 -0.3682
 1939TIP3    H227377   0.103   5.988   1.940 -1.2737 -0.8761 -1.2029
 1940TIP3   OH227378   5.455   3.596   0.252 -0.1227 -0.5109  0.1984
 1940TIP3    H127379   5.429   3.595   0.160 -0.4932  0.2006  0.2820
 1940TIP3    H227380   5.487   3.685   0.266  0.3405 -0.7446  0.6522
 1941TIP3   OH227381   1.513   6.753   1.310 -0.4908  0.2043 -0.3232
 1941TIP3    H127382   1.554   6.667   1.316 -1.0299 -0.1055 -0.9877
 1941TIP3    H227383   1.553   6.803   1.381  0.3991 -0.3491 -0.4137
 1942TIP3   OH227384   4.222   5.723   1.847 -0.7495 -0.0431  0.2505
 1942TIP3    H127385   4.306   5.740   1.889 -1.0254  0.4388  0.6005
 1942TIP3    H227386   4.180   5.656   1.902 -1.3217  0.9395  1.0301
 1943TIP3   OH227387   6.415   0.521   1.026 -0.1739 -0.4067 -0.2867
 1943TIP3    H127388   6.490   0.553   1.077  0.1245 -2.0349  0.3679
 1943TIP3    H227389   6.409   0.582   0.952  0.6873  0.7937  0.5822
 1944TIP3   OH227390   3.798   4.907   7.883 -0.5028 -0.3305 -0.6017
 1944TIP3    H127391   3.785   4.894   7.977 -0.1224 -1.0078 -0.6358
 1944TIP3    H227392   3.720   4.955   7.854 -0.6519 -0.1765  0.0446
 1945TIP3   OH227393   4.575   5.173   7.828  0.0115 -0.1851  0.6179
 1945TIP3    H127394   4.652   5.120   7.845  0.2009 -0.4494 -0.8661
 1945TIP3    H227395   4.525   5.172   7.910  0.7802 -1.3595  1.0884
 1946TIP3   OH227396   1.458   3.739   7.488 -0.0491  0.1579 -0.2475
 1946TIP3    H127397   1.482   3.781   7.406 -0.8569  1.7299  0.2960
 1946TIP3    H227398   1.376   3.781   7.515 -0.5567 -1.3072  0.6669
 1947TIP3   OH227399   2.642   5.175   0.042 -0.0740  0.2219  0.1837
 1947TIP3    H127400   2.706   5.208   0.104 -0.1391 -0.4226  0.6020
 1947TIP3    H227401   2.589   5.251   0.019  0.3616  0.5985  0.4166
 1948TIP3   OH227402   3.251   5.706   8.473 -0.6314  0.1151 -0.2062
 1948TIP3    H127403   3.272   5.613   8.479  0.4719  0.4178  1.5434
 1948TIP3    H227404   3.161   5.712   8.506 -0.7954 -0.3427 -0.5564
 1949TIP3   OH227405   6.456   3.750   1.185 -0.8220  0.3115  0.2548
 1949TIP3    H127406   6.399   3.801   1.126 -0.1006  1.4309  0.4951
 1949TIP3    H227407   6.522   3.712   1.127  0.4567  2.1867  0.3802
 1950TIP3   OH227408   5.528   4.852   1.756 -0.4252  0.1398 -0.8572
 1950TIP3    H127409   5.612   4.808   1.748 -0.2569  0.5557 -1.4256
 1950TIP3    H227410   5.478   4.825   1.679 -0.8930 -0.2568 -0.4278
 1951TIP3   OH227411   0.436   4.078   7.584  0.3474 -0.5446 -0.1353
 1951TIP3    H127412   0.377   4.146   7.550 -0.5605 -0.9341  0.6132
 1951TIP3    H227413   0.393   3.996   7.563 -0.2823 -0.8116  1.9032
 1952TIP3   OH227414   6.404   6.374   8.069 -0.0233  0.9083 -0.4655
 1952TIP3    H127415   6.447   6.431   8.133 -0.6897  1.1129 -0.1994
 1952TIP3    H227416   6.350   6.315   8.121  0.2811  0.3396 -0.7733
 1953TIP3   OH227417   0.145   2.369   8.136  0.3283 -0.7698  0.0974
 1953TIP3    H127418   0.183   2.282   8.125  0.1294 -0.8422 -0.0308
 1953TIP3    H227419   0.216   2.422   8.171  0.4117 -1.0167  0.3048
 1954TIP3   OH227420   6.113   6.611   2.854  0.1582 -0.2408  0.1656
 1954TIP3    H127421   6.041   6.562   2.815 -0.0818  1.1946 -1.3298
 1954TIP3    H227422   6.191   6.579   2.809  0.2591 -0.6710  0.6426
 1955TIP3   OH227423   2.325   6.642   7.331  0.5132 -0.1279  0.3170
 1955TIP3    H127424   2.247   6.611   7.285  1.9761 -1.8727 -1.1138
 1955TIP3    H227425   2.387   6.664   7.261  1.9191 -0.4501  1.4217
 1956TIP3   OH227426   1.837   1.918   1.798 -0.0566 -0.1325 -0.4118
 1956TIP3    H127427   1.791   1.989   1.844  1.0545  0.7738 -0.6395
 1956TIP3    H227428   1.870   1.959   1.718 -0.4156 -1.2290 -1.1418
 1957TIP3   OH227429   3.953   0.514   1.491  0.2599  0.0812  0.5440
 1957TIP3    H127430   3.981   0.424   1.476  0.9917  0.2505  0.8098
 1957TIP3    H227431   4.019   0.549   1.552 -1.1851  0.1539  2.1454
 1958TIP3   OH227432   2.177   0.580   6.872  0.5740  0.4278  0.0615
 1958TIP3    H127433   2.132   0.645   6.926  1.3552  0.1454  1.0796
 1958TIP3    H227434   2.110   0.550   6.811 -0.6847 -0.0823  1.6288
 1959TIP3   OH227435   6.181   4.160   0.500  0.1170  0.6408 -0.0232
 1959TIP3    H127436   6.207   4.252   0.498  0.0292  0.6618 -1.1584
 1959TIP3    H227437   6.133   4.147   0.418  0.3402 -0.4730  0.0005
 1960TIP3   OH227438   1.047   2.691   8.358  0.3307  0.0244 -0.3682
 1960TIP3    H127439   1.045   2.715   8.266 -1.1799 -1.8037 -0.8626
 1960TIP3    H227440   0.962   2.650   8.375  0.2249  1.0744  2.0648
 1961TIP3   OH227441   5.182   2.038   1.414 -0.1630 -0.5516  0.4084
 1961TIP3    H127442   5.124   1.988   1.357 -0.4924 -0.5720  0.7591
 1961TIP3    H227443   5.124   2.099   1.460  0.0471 -0.8053  1.0135
 1962TIP3   OH227444   1.712   4.172   7.259 -0.3035 -0.1636 -0.2262
 1962TIP3    H127445   1.686   4.151   7.170  0.9265  0.8810 -0.8707
 1962TIP3    H227446   1.808   4.170   7.257 -0.2512  0.3139  0.9613
 1963TIP3   OH227447   2.774   2.186   1.850  0.2377  0.4227  0.5904
 1963TIP3    H127448   2.736   2.135   1.921  0.2280 -0.7448 -0.2316
 1963TIP3    H227449   2.863   2.206   1.879 -1.1598  4.2271  3.0783
 1964TIP3   OH227450   3.736   5.586   0.334 -0.2606 -0.3472 -0.6510
 1964TIP3    H127451   3.766   5.624   0.252  0.1338  0.4778 -0.1365
 1964TIP3    H227452   3.778   5.500   0.338  0.2564 -0.1127 -0.9955
 1965TIP3   OH227453   5.623   5.758   8.504 -0.2433  0.3066  0.1583
 1965TIP3    H127454   5.615   5.681   8.560 -0.0578 -1.2000 -1.8033
 1965TIP3    H227455   5.534   5.790   8.494 -1.0117 -2.2077 -2.3345
 1966TIP3   OH227456   0.097   1.987   1.562 -0.0365 -0.1041  0.0110
 1966TIP3    H127457   0.116   1.913   1.504  0.0451 -0.1144  0.0505
 1966TIP3    H227458   0.048   1.948   1.635  2.6489 -0.7351  1.6622
 1967TIP3   OH227459   1.323   1.887   1.893  0.0480 -0.0506 -0.3223
 1967TIP3    H127460   1.310   1.795   1.871  1.0974 -0.1020 -0.7984
 1967TIP3    H227461   1.237   1.917   1.922 -0.6733 -0.7981 -1.5721
 1968TIP3   OH227462   0.078   3.551   8.605  0.9256 -0.5287  0.0115
 1968TIP3    H127463   0.074   3.646   8.613  1.1302 -0.5014 -0.1714
 1968TIP3    H227464   0.030   3.532   8.524 -0.0050 -0.6789  0.5836
 1969TIP3   OH227465   2.338   0.130   2.035  0.5902 -0.6222 -0.4638
 1969TIP3    H127466   2.406   0.079   2.080  1.1046 -0.3875 -0.9603
 1969TIP3    H227467   2.325   0.082   1.953  0.9326 -0.0735 -0.8443
 1970TIP3   OH227468   0.063   3.078   8.062 -0.2502  0.1449  0.1493
 1970TIP3    H127469  -0.020   3.031   8.066 -0.5638  0.7630  1.1384
 1970TIP3    H227470   0.113   3.046   8.137  0.0056  0.5025  0.1380
 1971TIP3   OH227471   1.880   3.753   2.257 -0.2480 -0.0389  0.2641
 1971TIP3    H127472   1.815   3.740   2.326 -0.5508  0.6932  0.1288
 1971TIP3    H227473   1.952   3.694   2.280 -0.3389  0.1994  1.2084
 1972TIP3   OH227474   0.988   6.173   0.768  0.5481 -0.0646  0.0625
 1972TIP3    H127475   1.049   6.102   0.788 -1.6834 -2.6772 -1.6187
 1972TIP3    H227476   0.905   6.146   0.808 -0.2695  1.8676 -0.1931
 1973TIP3   OH227477   3.354   2.330   0.696 -0.2263  0.0577  0.3012
 1973TIP3    H127478   3.377   2.241   0.723 -2.3040 -1.2125 -1.7098
 1973TIP3    H227479   3.410   2.347   0.620  0.1236  0.4675  0.6442
 1974TIP3   OH227480   4.006   4.165   0.207  0.0524  0.2438  0.3067
 1974TIP3    H127481   3.943   4.209   0.149 -0.2504  0.8081  1.0451
 1974TIP3    H227482   4.087   4.164   0.157  0.1064  1.7931  0.2957
 1975TIP3   OH227483   0.445   2.264   6.861  0.4671 -0.3704  0.0771
 1975TIP3    H127484   0.357   2.278   6.826 -0.0402 -3.8431 -0.3235
 1975TIP3    H227485   0.441   2.299   6.950 -1.3815 -0.6384  0.1441
 1976TIP3   OH227486   6.347   3.645   0.626 -0.2556  0.1435  0.4332
 1976TIP3    H127487   6.390   3.559   0.626  0.7385  0.6182 -0.3332
 1976TIP3    H227488   6.321   3.659   0.535 -0.8941  0.4354  0.6548
 1977TIP3   OH227489   5.956   4.712   0.463 -0.5451 -0.2623 -0.2545
 1977TIP3    H127490   5.905   4.700   0.382 -1.2200  0.7597 -0.0056
 1977TIP3    H227491   5.906   4.666   0.530  1.3021 -3.3069 -0.8043
 1978TIP3   OH227492   1.656   5.247   1.610 -0.5902 -0.2084 -0.8982
 1978TIP3    H127493   1.645   5.334   1.571 -0.0684  0.7833  1.0564
 1978TIP3    H227494   1.746   5.246   1.642 -1.3106 -0.4836  1.3091
 1979TIP3   OH227495   3.563   2.172   1.294 -0.0542 -0.4661  0.1546
 1979TIP3    H127496   3.585   2.242   1.233 -1.1594  1.3665  1.7510
 1979TIP3    H227497   3.594   2.204   1.379 -2.4064 -0.9593  1.2563
 1980TIP3   OH227498   3.378   5.749   1.025 -0.5457 -0.2861  0.3745
 1980TIP3    H127499   3.466   5.779   1.048 -1.1702  3.4590 -1.4523
 1980TIP3    H227500   3.393   5.675   0.967  1.5261  1.2105 -1.1417
 1981TIP3   OH227501   6.737   6.370   8.212  0.1768  0.0594  0.2886
 1981TIP3    H127502   6.730   6.326   8.297  1.3347  0.1161  0.4333
 1981TIP3    H227503   6.673   6.441   8.217 -1.1043 -1.0591  0.3722
 1982TIP3   OH227504   3.912   5.177   1.003  0.3803  0.5454  0.3063
 1982TIP3    H127505   4.006   5.169   1.022  0.1359 -2.0712  0.8270
 1982TIP3    H227506   3.869   5.122   1.069 -1.4056  0.6263 -0.7197
 1983TIP3   OH227507   2.571   1.329   2.703  0.2318 -0.4708  0.0755
 1983TIP3    H127508   2.475   1.332   2.704  0.1985 -0.7596  2.1708
 1983TIP3    H227509   2.597   1.402   2.648 -1.1802  1.4415  1.7867
 1984TIP3   OH227510   5.834   4.987   7.941 -0.2753 -0.3706 -0.5561
 1984TIP3    H127511   5.745   5.015   7.919 -0.2701  0.0988 -0.0112
 1984TIP3    H227512   5.882   4.989   7.858 -0.5301  0.3050 -0.6867
 1985TIP3   OH227513   3.067   1.576   0.728  0.3685  0.2083 -0.1545
 1985TIP3    H127514   3.074   1.670   0.712  1.8456  0.3247  0.9366
 1985TIP3    H227515   2.978   1.553   0.701  0.4115  1.6551 -1.6685
 1986TIP3   OH227516   3.291   4.175   7.700 -0.2520 -0.0248  0.0120
 1986TIP3    H127517   3.303   4.163   7.794 -1.9377  0.8829  0.3889
 1986TIP3    H227518   3.228   4.247   7.693 -0.0192  0.0530 -1.8249
 1987TIP3   OH227519   0.921   3.025   1.640 -0.1155 -0.0730  0.5127
 1987TIP3    H127520   0.897   3.117   1.653 -0.7424 -0.2826  0.8473
 1987TIP3    H227521   0.840   2.982   1.614  0.3646 -0.3556 -0.5922
 1988TIP3   OH227522   5.924   1.359   7.707 -0.4387 -0.1730 -0.3601
 1988TIP3    H127523   5.902   1.452   7.699  1.6402  0.3048 -1.3113
 1988TIP3    H227524   6.007   1.350   7.660 -0.7776 -2.6076 -0.6278
 1989TIP3   OH227525   5.871   1.235   8.550 -0.4758  0.2070  0.1061
 1989TIP3    H127526   5.824   1.318   8.552  1.3508  1.3136 -0.6466
 1989TIP3    H227527   5.810   1.173   8.512 -1.4516  1.4983 -0.4756
 1990TIP3   OH227528   6.558   1.676   8.029 -0.3461  0.2861  1.1968
 1990TIP3    H127529   6.520   1.636   8.107  0.3035  0.9007  1.8510
 1990TIP3    H227530   6.534   1.617   7.957 -1.5721  0.0979  1.7415
 1991TIP3   OH227531   2.878   1.447   6.871 -0.4777 -0.2878 -0.1107
 1991TIP3    H127532   2.960   1.412   6.835 -1.1368 -1.4589 -0.5261
 1991TIP3    H227533   2.874   1.537   6.840  0.0795 -0.5870 -1.0701
 1992TIP3   OH227534   3.445   1.818   7.521 -0.1373 -0.0231  0.3536
 1992TIP3    H127535   3.523   1.815   7.577  1.3569 -0.4409 -1.6231
 1992TIP3    H227536   3.438   1.909   7.495  0.0474 -0.0839  0.0842
 1993TIP3   OH227537   0.496   3.406   2.697  0.7094  0.1387  0.4864
 1993TIP3    H127538   0.530   3.396   2.609 -0.8219  1.5508 -0.3157
 1993TIP3    H227539   0.477   3.500   2.705 -0.6022 -0.1976  1.7497
 1994TIP3   OH227540   6.320   4.499   0.652  0.2702  0.4825 -0.3564
 1994TIP3    H127541   6.242   4.475   0.702  0.2762  1.6795  0.2802
 1994TIP3    H227542   6.387   4.513   0.720  1.1667 -0.8822 -0.9070
 1995TIP3   OH227543   3.562   3.990   6.894  0.0838 -0.1436  0.6669
 1995TIP3    H127544   3.518   4.030   6.819  0.2517  2.0309  1.6415
 1995TIP3    H227545   3.653   3.980   6.866 -0.4167 -2.1662 -0.4155
 1996TIP3   OH227546   4.049   1.914   7.840 -0.0214  0.2899 -0.0719
 1996TIP3    H127547   4.020   1.922   7.749 -3.0442  2.4964  0.9164
 1996TIP3    H227548   4.011   1.832   7.870 -1.5965  0.9691 -0.0755
 1997TIP3   OH227549   3.616   2.924   7.135  0.2217  0.3130  0.6298
 1997TIP3    H127550   3.599   2.997   7.076 -1.2260 -0.7805 -0.3953
 1997TIP3    H227551   3.535   2.917   7.187  0.2772 -0.6316  0.6062
 1998TIP3   OH227552   1.893   1.800   2.738  0.2585 -0.6677 -0.2862
 1998TIP3    H127553   1.821   1.782   2.798  1.0343 -0.7046  0.6792
 1998TIP3    H227554   1.860   1.778   2.652 -1.3254  0.5606 -0.0383
 1999TIP3   OH227555   2.850   6.320   1.376  0.2041 -0.2940 -0.1259
 1999TIP3    H127556   2.785   6.285   1.437 -0.3517  0.6206 -0.1732
 1999TIP3    H227557   2.898   6.385   1.428 -0.6001  0.8529 -0.7659
 2000TIP3   OH227558   3.982   1.153   0.590 -0.4142  0.2030 -0.4723
 2000TIP3    H127559   3.940   1.114   0.513 -0.0424 -2.6354  0.6269
 2000TIP3    H227560   4.065   1.187   0.557 -0.1096 -1.2533 -1.3370
 2001TIP3   OH227561   4.517   1.474   7.045 -0.2320  0.0878  0.1923
 2001TIP3    H127562   4.544   1.447   6.957  0.7248  3.0454 -0.5275
 2001TIP3    H227563   4.597   1.504   7.087 -1.2603  2.6812  0.4842
 2002TIP3   OH227564   2.840   5.930   0.076  0.1789  0.0313  0.3900
 2002TIP3    H127565   2.745   5.929   0.084  0.0530  2.1534 -0.2524
 2002TIP3    H227566   2.872   5.952   0.163 -0.0495  1.2617  0.1819
 2003TIP3   OH227567   2.394   5.506   7.686  0.1361 -0.2959  0.3649
 2003TIP3    H127568   2.399   5.551   7.601 -0.2437  0.8718  0.9337
 2003TIP3    H227569   2.428   5.418   7.669  2.2512  0.6345 -0.4973
 2004TIP3   OH227570   1.640   1.629   1.434 -0.1189  0.2384  0.3765
 2004TIP3    H127571   1.686   1.662   1.511 -1.7196 -2.6285  2.7637
 2004TIP3    H227572   1.691   1.553   1.407 -2.0648 -1.6463  1.6969
 2005TIP3   OH227573   1.194   6.815   7.114  0.2692 -0.6185  0.2417
 2005TIP3    H127574   1.187   6.872   7.191  0.4905 -1.7644  1.1570
 2005TIP3    H227575   1.140   6.738   7.137  0.7386 -1.1962 -0.5390
 2006TIP3   OH227576   0.929   0.773   2.153 -0.2420 -0.0926 -0.5505
 2006TIP3    H127577   0.939   0.679   2.168 -0.6922 -0.0954 -0.2567
 2006TIP3    H227578   1.019   0.805   2.143  0.0088 -0.3311  0.7406
 2007TIP3   OH227579   0.223   3.166   2.188  0.2002 -0.6628 -0.6149
 2007TIP3    H127580   0.184   3.251   2.167 -0.2682 -1.0784 -1.4813
 2007TIP3    H227581   0.173   3.134   2.263  0.0925 -0.3657 -0.5594
 2008TIP3   OH227582   6.522   5.099   1.101 -0.0563 -0.4248 -0.3982
 2008TIP3    H127583   6.553   5.012   1.126 -1.1141 -0.5781  0.4806
 2008TIP3    H227584   6.560   5.157   1.167  0.8661 -0.1692 -1.1399
 2009TIP3   OH227585   4.188   5.924   0.479  0.1241  0.0185  0.5105
 2009TIP3    H127586   4.245   5.852   0.453  0.5164 -0.0256  1.4434
 2009TIP3    H227587   4.134   5.888   0.550 -1.5311 -0.1291 -0.7748
 2010TIP3   OH227588   3.850   1.155   7.346  0.0569 -0.3679 -0.1255
 2010TIP3    H127589   3.873   1.246   7.365  1.4598 -1.0252  1.5544
 2010TIP3    H227590   3.801   1.126   7.422  1.9652 -1.7758  0.6541
 2011TIP3   OH227591   6.614   2.098   7.798 -0.0906  0.1118 -0.4179
 2011TIP3    H127592   6.602   2.054   7.882 -4.7233 -0.2430 -0.9834
 2011TIP3    H227593   6.693   2.060   7.761  1.5956 -0.3764  3.2965
 2012TIP3   OH227594   0.352   6.568   8.213 -0.5091  0.1565  0.5137
 2012TIP3    H127595   0.348   6.646   8.158 -1.1930 -1.6479 -2.1432
 2012TIP3    H227596   0.272   6.520   8.194 -0.7560 -0.6216  3.0937
 2013TIP3   OH227597   0.531   0.259   0.635 -0.1900 -0.6320  0.3208
 2013TIP3    H127598   0.588   0.296   0.703  0.4215 -0.7346 -0.1242
 2013TIP3    H227599   0.446   0.249   0.678 -0.5965  1.9055  0.2617
 2014TIP3   OH227600   4.520   0.917   7.332 -0.5070  0.4465 -0.1501
 2014TIP3    H127601   4.609   0.937   7.361 -0.7005  0.5572  0.3685
 2014TIP3    H227602   4.510   0.824   7.347 -0.8906  0.6533  0.9192
 2015TIP3   OH227603   5.084   0.573   0.535 -0.0533 -0.3874 -0.3865
 2015TIP3    H127604   5.168   0.604   0.569  0.0493  0.1571 -1.1308
 2015TIP3    H227605   5.047   0.648   0.490 -2.9313  0.8121  3.4481
 2016TIP3   OH227606   3.044   3.685   7.763 -0.2808  0.2416  0.1309
 2016TIP3    H127607   3.021   3.667   7.854  0.0531  1.7026  0.5314
 2016TIP3    H227608   3.023   3.778   7.751 -0.4227  0.0517 -1.3202
 2017TIP3   OH227609   3.832   1.969   1.092  0.3941 -0.3760  0.1540
 2017TIP3    H127610   3.795   1.945   1.177 -0.4187  0.9053  0.1894
 2017TIP3    H227611   3.813   2.062   1.083  0.8138 -0.4050 -1.2660
 2018TIP3   OH227612   2.695   4.309   6.980 -0.2800  0.5512 -0.3120
 2018TIP3    H127613   2.621   4.297   6.921 -0.6575  1.4699 -0.0561
 2018TIP3    H227614   2.758   4.242   6.955 -0.9729  0.1097 -0.8985
 2019TIP3   OH227615   3.009   5.355   8.149 -0.5502 -0.1854 -0.3730
 2019TIP3    H127616   2.995   5.444   8.117  0.7441 -0.0799 -0.6929
 2019TIP3    H227617   3.078   5.363   8.215  0.4525 -1.0896 -1.2654
 2020TIP3   OH227618   0.337   1.296   2.535  0.0156 -0.5250 -1.1001
 2020TIP3    H127619   0.324   1.212   2.580 -0.8615 -1.1408 -2.4358
 2020TIP3    H227620   0.298   1.283   2.448 -0.0397  1.2384 -1.3756
 2021TIP3   OH227621   5.254   6.786   1.449 -0.1719 -0.2040 -0.0122
 2021TIP3    H127622   5.280   6.811   1.361 -0.1634  0.1766  0.0995
 2021TIP3    H227623   5.336   6.767   1.494  0.0566  2.1965  0.7149
 2022TIP3   OH227624   0.715   4.541   8.522 -0.2112  0.1177  0.1673
 2022TIP3    H127625   0.681   4.467   8.472 -1.0125  1.6323 -1.6792
 2022TIP3    H227626   0.653   4.612   8.504  0.5744  1.2857  1.7871
 2023TIP3   OH227627   4.623   1.545   1.249 -0.2559  0.3488 -0.2544
 2023TIP3    H127628   4.670   1.612   1.298 -0.0508 -1.9001  2.8842
 2023TIP3    H227629   4.692   1.487   1.216 -0.2598  2.3427 -4.5265
 2024TIP3   OH227630   0.866   3.434   2.133 -0.6142  0.2950 -0.7310
 2024TIP3    H127631   0.942   3.395   2.089  0.3559 -0.4617  1.4387
 2024TIP3    H227632   0.904   3.481   2.208 -2.2421  0.5030 -0.0019
 2025TIP3   OH227633   0.905   2.785   2.338 -0.1375 -0.2453 -0.1158
 2025TIP3    H127634   0.904   2.875   2.371  0.5329 -0.5976  0.9230
 2025TIP3    H227635   0.858   2.735   2.405 -0.2725 -0.7104 -0.5561
 2026TIP3   OH227636   5.550   6.017   7.040  0.5275 -0.5125 -0.1240
 2026TIP3    H127637   5.604   5.950   7.080 -0.2969 -0.7190  0.6822
 2026TIP3    H227638   5.605   6.056   6.972  1.2421 -1.5397 -0.1413
 2027TIP3   OH227639   1.482   1.292   7.045 -0.3907  0.0692  0.5209
 2027TIP3    H127640   1.477   1.285   6.950 -0.2441  0.1100  0.5103
 2027TIP3    H227641   1.460   1.383   7.064 -0.5251  0.0338  0.5333
 2028TIP3   OH227642   4.729   0.349   1.642 -0.3264 -0.6723 -0.1818
 2028TIP3    H127643   4.654   0.407   1.651 -0.2599 -0.5027 -0.6554
 2028TIP3    H227644   4.728   0.323   1.550 -1.1470 -2.5167  0.2933
 2029TIP3   OH227645   0.057   0.930   1.332  0.5541 -0.1420  0.5669
 2029TIP3    H127646   0.045   0.976   1.248 -1.0250 -1.2535  0.1426
 2029TIP3    H227647  -0.005   0.972   1.391  2.4848  1.4480  1.6064
 2030TIP3   OH227648   6.508   2.840   7.405  0.4756  0.4488 -0.2337
 2030TIP3    H127649   6.590   2.792   7.403  0.2176  0.0095 -0.4343
 2030TIP3    H227650   6.462   2.813   7.325 -1.3693 -1.9900  1.4788
 2031TIP3   OH227651   4.919   5.706   0.335 -1.0476  0.3935  0.0279
 2031TIP3    H127652   4.999   5.710   0.387 -1.1792 -0.3326  0.3031
 2031TIP3    H227653   4.869   5.634   0.373 -0.7491 -0.7676 -1.6199
 2032TIP3   OH227654   0.537   4.325   6.695 -0.5206 -0.5599  0.1913
 2032TIP3    H127655   0.523   4.309   6.602 -3.3653  0.9282  0.2556
 2032TIP3    H227656   0.547   4.238   6.734  0.1444 -1.2272 -1.3819
 2033TIP3   OH227657   5.523   4.034   7.852 -0.5805 -0.4030  0.1751
 2033TIP3    H127658   5.522   4.040   7.756 -2.6286  0.0363  0.1753
 2033TIP3    H227659   5.453   3.971   7.872 -0.5601 -0.0546  1.3898
 2034TIP3   OH227660   0.983   6.435   0.716 -0.0458  0.6076  0.2096
 2034TIP3    H127661   0.996   6.428   0.622 -0.5248  0.7083  0.1311
 2034TIP3    H227662   0.965   6.346   0.745  1.2507  0.3895  0.3961
 2035TIP3   OH227663   2.855   2.791   0.020 -0.0083  0.1918  0.0740
 2035TIP3    H127664   2.822   2.790  -0.070 -0.1035 -0.4150  0.1111
 2035TIP3    H227665   2.894   2.878   0.031  0.7795 -0.0365 -0.8330
 2036TIP3   OH227666   3.112   4.125   1.483 -0.0645 -0.4585  0.0407
 2036TIP3    H127667   3.206   4.137   1.495  0.0334 -0.9243 -0.2700
 2036TIP3    H227668   3.073   4.177   1.553  0.3458  1.9279 -1.3825
 2037TIP3   OH227669   0.651   6.699   1.945  0.0695  0.5742  0.0305
 2037TIP3    H127670   0.722   6.648   1.907  0.5818  2.4434 -1.7288
 2037TIP3    H227671   0.687   6.736   2.025  0.2067 -0.4971  0.4770
 2038TIP3   OH227672   1.084   0.269   0.141  0.8181 -0.0736 -0.4584
 2038TIP3    H127673   1.006   0.307   0.182  1.4754 -0.8016  1.6114
 2038TIP3    H227674   1.119   0.340   0.087 -0.3575  0.8072 -0.1217
 2039TIP3   OH227675   5.378   3.404   1.167  0.0190  0.2657  0.4970
 2039TIP3    H127676   5.306   3.411   1.104  1.0667  1.3862 -0.6401
 2039TIP3    H227677   5.393   3.310   1.176 -0.1368  0.0811 -0.9735
 2040TIP3   OH227678   3.769   1.815   0.790 -1.0419  0.1020 -0.1146
 2040TIP3    H127679   3.719   1.760   0.851 -0.5140  0.8149  1.0148
 2040TIP3    H227680   3.744   1.905   0.815  0.0924  0.4352 -0.1555
 2041TIP3   OH227681   5.367   4.951   7.721 -0.2444 -0.0461  0.4586
 2041TIP3    H127682   5.322   4.979   7.641 -1.0793 -1.3849  0.4440
 2041TIP3    H227683   5.457   4.933   7.693 -0.3348  0.2161 -0.0123
 2042TIP3   OH227684   5.994   5.603   2.626 -0.1345 -0.1260  0.2594
 2042TIP3    H127685   5.955   5.605   2.714 -0.2954  0.5983  0.1807
 2042TIP3    H227686   5.924   5.637   2.569 -0.1047 -0.7874 -0.1804
 2043TIP3   OH227687   1.407   3.232   1.131 -0.6116  0.1125  0.0101
 2043TIP3    H127688   1.487   3.222   1.080 -1.1754 -0.7433 -0.7556
 2043TIP3    H227689   1.365   3.146   1.126 -2.3256  0.9341 -0.9316
 2044TIP3   OH227690   0.312   6.810   0.356  0.1072  0.1460 -0.6301
 2044TIP3    H127691   0.385   6.846   0.306  1.0613 -1.7549 -0.7299
 2044TIP3    H227692   0.328   6.715   0.356 -2.4361 -0.3524 -0.7535
 2045TIP3   OH227693   4.476   1.106   2.327  0.2341 -0.5554 -0.1105
 2045TIP3    H127694   4.441   1.126   2.240  0.0310 -3.5434 -0.8225
 2045TIP3    H227695   4.407   1.135   2.388 -0.2613  0.2332 -1.0232
 2046TIP3   OH227696   1.327   2.094   1.474 -0.3835  0.4550  0.0931
 2046TIP3    H127697   1.382   2.020   1.500  0.4421  1.2378  0.6220
 2046TIP3    H227698   1.380   2.142   1.410 -0.0086  1.7719  1.3414
 2047TIP3   OH227699   3.987   0.803   1.684  0.5835  0.8990  0.3942
 2047TIP3    H127700   3.919   0.859   1.648  1.4435  2.2119  0.7303
 2047TIP3    H227701   3.968   0.798   1.778 -0.3386 -0.6313  0.1596
 2048TIP3   OH227702   2.286   2.670   0.202  0.0032  0.5169 -0.1055
 2048TIP3    H127703   2.293   2.723   0.281 -1.6101 -0.4022  0.7160
 2048TIP3    H227704   2.197   2.686   0.171  0.5757  0.7742 -1.7011
 2049TIP3   OH227705   1.826   5.009   0.136  0.7862  0.1325  0.0313
 2049TIP3    H127706   1.786   4.953   0.070  0.1025  1.6730 -0.9267
 2049TIP3    H227707   1.833   4.954   0.214 -0.3723 -1.0901 -0.6867
 2050TIP3   OH227708   0.400   2.715   1.494 -0.5349 -0.3470  0.2845
 2050TIP3    H127709   0.458   2.715   1.569  0.9753 -2.0070 -0.8206
 2050TIP3    H227710   0.318   2.678   1.527 -0.5929  0.8548  1.5618
 2051TIP3   OH227711   1.075   4.161   1.491 -0.0424  0.7756  0.1864
 2051TIP3    H127712   1.139   4.225   1.524 -0.6094  2.6442 -2.0873
 2051TIP3    H227713   1.126   4.102   1.436  0.1083  0.7771  0.3251
 2052TIP3   OH227714   6.832   6.315   1.385 -0.0149  0.0427  0.2396
 2052TIP3    H127715   6.806   6.223   1.390  1.4161 -0.3166  2.0584
 2052TIP3    H227716   6.805   6.352   1.469  0.1456  1.0904 -0.1595
 2053TIP3   OH227717   1.652   0.152   1.793  0.1317 -0.6465 -0.5227
 2053TIP3    H127718   1.726   0.092   1.805  0.3360 -0.2837  0.0946
 2053TIP3    H227719   1.575   0.099   1.813  0.3412 -0.5925  0.4829
 2054TIP3   OH227720   1.268   2.621   2.070 -0.0713 -0.0846 -0.2187
 2054TIP3    H127721   1.205   2.687   2.041  2.1559  1.7394 -1.2324
 2054TIP3    H227722   1.269   2.556   2.000  0.2947  0.7205 -0.9822
 2055TIP3   OH227723   3.206   0.447   1.743 -0.1180 -0.3595  0.0907
 2055TIP3    H127724   3.239   0.360   1.767 -0.7008 -0.5922  0.0776
 2055TIP3    H227725   3.278   0.506   1.762 -0.5744 -0.5026  2.5668
 2056TIP3   OH227726   3.247   5.490   8.182 -0.0205 -0.4322  0.5512
 2056TIP3    H127727   3.336   5.510   8.212  0.1391  0.4851 -0.4656
 2056TIP3    H227728   3.192   5.555   8.226 -0.3238 -1.4898  1.7946
 2057TIP3   OH227729   6.044   1.907   1.044  0.1112 -0.0806 -0.2370
 2057TIP3    H127730   5.980   1.838   1.064 -0.4687  0.6689  0.5576
 2057TIP3    H227731   6.116   1.860   1.002 -0.1646 -1.2209  0.5018
 2058TIP3   OH227732   4.251   2.918   0.491 -0.4837 -0.7304 -0.3939
 2058TIP3    H127733   4.338   2.895   0.523 -1.0752  0.2234  2.0969
 2058TIP3    H227734   4.252   3.014   0.483 -0.9067 -0.8117 -1.6517
 2059TIP3   OH227735   5.358   0.740   0.337 -1.1706  0.0920  0.0929
 2059TIP3    H127736   5.430   0.783   0.292  0.5392 -0.9208  1.7202
 2059TIP3    H227737   5.291   0.729   0.270  0.6420  0.0060 -1.7964
 2060TIP3   OH227738   3.157   5.743   1.225  0.1556 -0.0453 -0.0232
 2060TIP3    H127739   3.246   5.727   1.193  1.4946 -0.4003  3.4737
 2060TIP3    H227740   3.139   5.834   1.202  1.1756 -0.1368 -1.2691
 2061TIP3   OH227741   0.045   4.893   0.056  0.2154 -0.2217 -0.0181
 2061TIP3    H127742  -0.032   4.948   0.043  1.5888  1.3529 -2.1596
 2061TIP3    H227743   0.043   4.831  -0.017  1.4902  0.5520 -0.7532
 2062TIP3   OH227744   6.617   3.142   8.091 -0.2831  0.7094  0.5093
 2062TIP3    H127745   6.665   3.068   8.130 -0.7450 -0.0464 -0.2993
 2062TIP3    H227746   6.526   3.113   8.090 -0.1423  0.0807 -2.3548
 2063TIP3   OH227747   6.241   2.939   7.557  0.1591 -0.4717  0.6414
 2063TIP3    H127748   6.171   2.929   7.493 -0.4267 -2.3049  1.4822
 2063TIP3    H227749   6.311   2.883   7.525 -0.0332 -1.1874  1.4176
 2064TIP3   OH227750   5.067   4.062   1.410 -0.4661 -0.1795  0.7538
 2064TIP3    H127751   5.134   4.105   1.464 -1.2603  1.0788  0.7710
 2064TIP3    H227752   5.112   4.043   1.327 -0.0235  0.4361  0.8464
 2065TIP3   OH227753   4.909   5.877   7.966  0.3201  0.3537 -0.2318
 2065TIP3    H127754   4.989   5.929   7.980 -0.9820  2.1849  0.8049
 2065TIP3    H227755   4.913   5.852   7.874  1.1371  2.1488 -0.7443
 2066TIP3   OH227756   5.229   0.860   1.572 -0.1052  0.4035  0.4266
 2066TIP3    H127757   5.217   0.893   1.661 -1.1761  1.9772 -0.2711
 2066TIP3    H227758   5.270   0.932   1.524  3.9218 -1.5920  0.4173
 2067TIP3   OH227759   5.681   0.402   1.844  0.6994 -0.1033 -0.4813
 2067TIP3    H127760   5.631   0.483   1.851  1.6390  0.3679  1.0706
 2067TIP3    H227761   5.770   0.430   1.822  1.2070 -0.6320  0.8013
 2068TIP3   OH227762   5.034   6.422   8.500  0.5213 -0.4382 -0.0324
 2068TIP3    H127763   4.943   6.398   8.478  0.3428  1.1718 -1.2480
 2068TIP3    H227764   5.086   6.350   8.465 -0.2871 -1.4809  0.8453
 2069TIP3   OH227765   0.230   6.134   8.236 -0.6728  0.6444 -0.0781
 2069TIP3    H127766   0.140   6.129   8.269 -0.3275  2.7535  1.3646
 2069TIP3    H227767   0.222   6.180   8.153 -0.9774  0.4276 -0.1711
 2070TIP3   OH227768   4.089   5.769   6.879  0.2256  0.2869 -0.2080
 2070TIP3    H127769   4.012   5.751   6.932  0.0087 -0.8389 -0.8496
 2070TIP3    H227770   4.076   5.715   6.800  1.1728  0.8703 -0.7820
 2071TIP3   OH227771   0.453   1.718   8.474 -0.2885 -0.2209  0.1914
 2071TIP3    H127772   0.489   1.702   8.387  0.6359  1.9058  0.1208
 2071TIP3    H227773   0.493   1.801   8.502 -0.5217 -0.8608  2.6700
 2072TIP3   OH227774   0.332   1.904   2.198 -0.1668  0.6792  0.3428
 2072TIP3    H127775   0.272   1.852   2.144 -1.2301  2.2451 -0.0477
 2072TIP3    H227776   0.386   1.839   2.242  0.6530 -0.6898 -2.4449
 2073TIP3   OH227777   5.024   2.500   0.186  0.0359 -0.5990  0.2006
 2073TIP3    H127778   5.071   2.583   0.179 -0.1803 -0.5879 -2.4702
 2073TIP3    H227779   5.040   2.469   0.275  0.4489  2.0897  1.1260
 2074TIP3   OH227780   4.407   5.774   0.499 -0.0647 -0.1250  0.0113
 2074TIP3    H127781   4.424   5.735   0.585 -0.0938 -0.0129  0.0682
 2074TIP3    H227782   4.493   5.780   0.458  0.3158  2.1230  1.0094
 2075TIP3   OH227783   0.003   2.402   7.914 -0.3292  0.6910  0.3438
 2075TIP3    H127784  -0.084   2.362   7.909 -0.8743  1.9429 -0.5139
 2075TIP3    H227785   0.029   2.391   8.006 -1.0549 -0.3660  0.4409
 2076TIP3   OH227786   4.189   4.146   1.352 -0.3154 -0.3147  0.9185
 2076TIP3    H127787   4.143   4.228   1.334  1.3712  0.2345 -1.4335
 2076TIP3    H227788   4.272   4.172   1.392  1.1532 -0.5513 -1.6848
 2077TIP3   OH227789   0.004   1.333   1.159 -0.1908  0.2322 -0.3391
 2077TIP3    H127790   0.067   1.264   1.180  1.6653  1.6387 -0.9487
 2077TIP3    H227791  -0.060   1.290   1.102 -1.7540 -2.0639  2.8783
 2078TIP3   OH227792   3.146   2.466   0.801  0.1007 -0.5537 -0.3238
 2078TIP3    H127793   3.218   2.432   0.748 -0.3480  0.8334 -1.8977
 2078TIP3    H227794   3.076   2.484   0.738 -1.1859 -0.7154  1.0114
 2079TIP3   OH227795   4.895   2.205   0.964 -0.5699 -0.6393  0.5070
 2079TIP3    H127796   4.873   2.225   0.873 -1.0776 -2.8628  0.0838
 2079TIP3    H227797   4.819   2.233   1.014 -0.7841 -0.5052  0.1095
 2080TIP3   OH227798   1.243   0.386   0.335 -0.1265 -0.1955 -0.3594
 2080TIP3    H127799   1.192   0.465   0.318 -0.2470 -0.1994 -0.0123
 2080TIP3    H227800   1.195   0.317   0.289 -0.5790 -0.2458  0.1757
 2081TIP3   OH227801   0.537   3.869   1.575 -0.7730  0.4966  0.2486
 2081TIP3    H127802   0.609   3.810   1.601  0.2348  1.7048  0.2856
 2081TIP3    H227803   0.565   3.955   1.606 -2.4876  0.9155  0.7004
 2082TIP3   OH227804   0.452   0.086   2.858 -0.0075  0.3886 -0.0044
 2082TIP3    H127805   0.527   0.143   2.842  0.1973  0.6194  1.6266
 2082TIP3    H227806   0.411   0.122   2.936 -0.0095 -1.5672  0.9431
 2083TIP3   OH227807   4.886   1.883   8.528 -0.8510 -0.4692  0.2528
 2083TIP3    H127808   4.962   1.827   8.543 -0.1038  0.9833  2.2815
 2083TIP3    H227809   4.910   1.968   8.565 -2.0060  1.2394 -2.5518
 2084TIP3   OH227810   2.323   0.678   8.434  0.8059  0.4034  0.5000
 2084TIP3    H127811   2.315   0.770   8.409  0.0058  0.1408 -0.2481
 2084TIP3    H227812   2.289   0.676   8.524  1.7694  1.0014  0.8912
 2085TIP3   OH227813   2.924   3.021   1.217  0.6759  0.0795  0.2139
 2085TIP3    H127814   2.863   3.046   1.287  2.0640 -1.9353  2.2610
 2085TIP3    H227815   2.989   3.092   1.215  1.1786 -0.3117  1.7062
 2086TIP3   OH227816   4.702   3.456   6.978 -0.0917 -0.6239  0.5816
 2086TIP3    H127817   4.670   3.374   7.017  0.2592 -0.0518  2.1754
 2086TIP3    H227818   4.756   3.495   7.047  0.8100  0.3277 -0.6241
 2087TIP3   OH227819   2.060   5.138   2.794 -0.9051  0.3807 -0.1026
 2087TIP3    H127820   2.026   5.158   2.706 -2.7395  0.0443  0.4823
 2087TIP3    H227821   1.982   5.112   2.844  0.1833  0.0576  1.4853
 2088TIP3   OH227822   0.064   6.782   1.986  0.2138  0.3319  0.5621
 2088TIP3    H127823   0.022   6.715   2.041  0.4101 -2.9873 -2.8956
 2088TIP3    H227824   0.151   6.792   2.024 -0.6609  0.6455  2.6487
 2089TIP3   OH227825   5.941   0.212   2.938  0.2280 -0.0547  0.2898
 2089TIP3    H127826   5.955   0.127   2.896  1.2118  0.0286  0.4273
 2089TIP3    H227827   6.000   0.272   2.892  0.0233  0.4141  0.6278
 2090TIP3   OH227828   1.312   5.163   0.522  0.0842 -0.5099 -0.5732
 2090TIP3    H127829   1.372   5.179   0.449  1.5707  1.7713  1.0168
 2090TIP3    H227830   1.369   5.144   0.596 -1.1133  1.4160  0.9318
 2091TIP3   OH227831   5.070   2.629   7.377 -0.1419 -0.2115 -0.1628
 2091TIP3    H127832   5.013   2.569   7.329 -0.4875  0.3929 -0.5216
 2091TIP3    H227833   5.141   2.649   7.317 -1.1090  1.3630 -0.8707
 2092TIP3   OH227834   0.496   1.439   8.120  0.2273  0.1358 -0.1978
 2092TIP3    H127835   0.467   1.388   8.044  1.0867  0.9674 -1.1210
 2092TIP3    H227836   0.434   1.417   8.189 -2.1989  1.3059 -1.8622
 2093TIP3   OH227837   2.257   3.744   0.488 -0.3616 -0.2605 -0.0809
 2093TIP3    H127838   2.200   3.765   0.413 -2.0809 -0.5373  1.0983
 2093TIP3    H227839   2.199   3.702   0.551  1.0377  0.0144  1.4448
 2094TIP3   OH227840   1.962   6.427   0.115  0.5609  0.3257  0.0222
 2094TIP3    H127841   2.036   6.402   0.060 -0.7236 -1.2450 -1.0727
 2094TIP3    H227842   1.974   6.377   0.195  0.3968 -0.3767 -0.3820
 2095TIP3   OH227843   4.390   5.612   2.852  0.2542 -0.2806  0.5411
 2095TIP3    H127844   4.370   5.527   2.812  0.4140  0.6502 -1.6615
 2095TIP3    H227845   4.481   5.605   2.880 -0.9146 -2.3182  4.6707
 2096TIP3   OH227846   4.396   0.768   1.560 -0.0431 -0.1733  0.2006
 2096TIP3    H127847   4.456   0.835   1.528  0.4059  0.1858  1.7137
 2096TIP3    H227848   4.322   0.772   1.500  1.2514 -0.3796 -1.5005
 2097TIP3   OH227849   3.395   3.076   0.978 -0.2395  0.3077 -0.0728
 2097TIP3    H127850   3.454   3.112   0.912 -0.1438  1.3374  0.5557
 2097TIP3    H227851   3.387   2.984   0.954  0.4314  0.4786 -1.0453
 2098TIP3   OH227852   6.208   3.417   2.861  0.0606  0.2358 -0.1916
 2098TIP3    H127853   6.168   3.337   2.827 -1.5585  0.9294 -0.0294
 2098TIP3    H227854   6.187   3.416   2.955 -0.4772  1.1003 -0.2879
 2099TIP3   OH227855   1.215   1.334   8.525 -0.1173 -0.5553 -0.4793
 2099TIP3    H127856   1.290   1.384   8.555 -0.2733 -1.0295  0.7955
 2099TIP3    H227857   1.140   1.375   8.569 -0.5057 -0.5860 -1.1031
 2100TIP3   OH227858   2.861   3.929   7.476 -0.3360 -0.0332  0.3723
 2100TIP3    H127859   2.801   4.001   7.457 -0.5672 -0.5367 -0.9787
 2100TIP3    H227860   2.804   3.852   7.482  0.0940 -0.4279 -0.3768
 2101TIP3   OH227861   3.061   4.752   8.088  0.1724 -0.1985  0.6920
 2101TIP3    H127862   3.048   4.831   8.036  0.6700 -0.9733 -0.6672
 2101TIP3    H227863   3.145   4.717   8.059 -1.1136 -2.5169 -0.5194
 2102TIP3   OH227864   1.375   1.882   3.315 -0.3689 -0.2935 -0.1561
 2102TIP3    H127865   1.339   1.868   3.403  0.6492  1.2880  0.5630
 2102TIP3    H227866   1.299   1.906   3.262 -0.7181  1.0779  0.8799
 2103TIP3   OH227867   5.065   0.820   1.246 -0.1697 -0.3464  0.3101
 2103TIP3    H127868   5.068   0.892   1.309  0.9326  1.2859 -1.5067
 2103TIP3    H227869   5.154   0.787   1.242 -0.5636 -1.5168  0.7522
 2104TIP3   OH227870   6.112   1.426   8.308 -0.3661 -0.4708  0.0826
 2104TIP3    H127871   6.056   1.476   8.366  2.6655  0.6656  2.3049
 2104TIP3    H227872   6.121   1.481   8.230 -0.2173  0.6263  0.8476
 2105TIP3   OH227873   2.197   4.479   2.263 -0.7389  0.1446  0.0387
 2105TIP3    H127874   2.215   4.388   2.241  0.9693  0.2131  0.9964
 2105TIP3    H227875   2.214   4.486   2.357 -2.1505  1.1717  0.2578
 2106TIP3   OH227876   4.592   6.765   1.521  0.0988 -0.2798  0.2370
 2106TIP3    H127877   4.650   6.754   1.597  0.5309  0.1331 -0.0266
 2106TIP3    H227878   4.506   6.737   1.552  0.4832 -1.1429  0.5659
 2107TIP3   OH227879   1.705   3.129   1.302  0.1824 -0.0376  0.3145
 2107TIP3    H127880   1.618   3.169   1.312 -0.1129 -1.0729  2.7958
 2107TIP3    H227881   1.693   3.040   1.334  1.5375 -1.1697 -2.0960
 2108TIP3   OH227882   5.925   2.516   7.856  0.2183  0.0443  0.3863
 2108TIP3    H127883   5.970   2.519   7.941  0.2236  0.6248  0.3676
 2108TIP3    H227884   5.849   2.574   7.867 -0.9218 -1.4344  0.6316
 2109TIP3   OH227885   1.939   3.231   0.773 -0.4265 -0.4186  0.0108
 2109TIP3    H127886   1.968   3.281   0.697  0.7837  0.3183  0.9130
 2109TIP3    H227887   1.947   3.140   0.746  0.4724 -0.1794 -0.5963
 2110TIP3   OH227888   3.197   4.141   0.401  0.1066  0.0957 -0.2952
 2110TIP3    H127889   3.108   4.119   0.427 -0.2320  2.3006  0.6725
 2110TIP3    H227890   3.252   4.072   0.438 -0.9001  0.4087  1.9086
 2111TIP3   OH227891   1.763   6.420   1.392 -0.3769  0.8030 -0.0519
 2111TIP3    H127892   1.839   6.479   1.393 -0.7226  1.2701  1.2989
 2111TIP3    H227893   1.710   6.448   1.467  0.8412 -3.0088  2.5707
 2112TIP3   OH227894   4.974   6.662   8.610 -0.1912  0.0665  0.0275
 2112TIP3    H127895   4.980   6.567   8.608 -3.4950 -0.2280 -1.5411
 2112TIP3    H227896   5.027   6.691   8.536 -0.7437 -0.7084 -0.6862
 2113TIP3   OH227897   2.299   2.239   0.177 -0.0545 -0.8760 -0.3662
 2113TIP3    H127898   2.320   2.301   0.108  0.8044  0.5624  1.1232
 2113TIP3    H227899   2.229   2.281   0.227  1.6700 -0.2497  1.6574
 2114TIP3   OH227900   5.326   1.664   0.088 -0.2030 -0.2569 -0.5326
 2114TIP3    H127901   5.405   1.714   0.110 -1.3465  1.4454 -0.0678
 2114TIP3    H227902   5.269   1.675   0.164 -1.6737  0.2704 -1.6544
 2115TIP3   OH227903   6.189   0.527   0.667 -0.0754 -0.1466  0.5200
 2115TIP3    H127904   6.271   0.519   0.716  0.1914  2.1864  0.5457
 2115TIP3    H227905   6.126   0.563   0.730 -0.8007 -0.7362  0.1556
 2116TIP3   OH227906   0.082   4.263   2.331 -0.7078 -0.3774 -0.2858
 2116TIP3    H127907  -0.006   4.286   2.301 -0.5881  1.5776  0.7089
 2116TIP3    H227908   0.093   4.311   2.412  1.6611  0.2411 -0.8980
 2117TIP3   OH227909   1.750   6.461   7.892  0.4738  0.0632 -0.1614
 2117TIP3    H127910   1.716   6.526   7.954 -2.3913 -1.8414  0.4810
 2117TIP3    H227911   1.754   6.508   7.808 -1.5894  1.0999  0.2550
 2118TIP3   OH227912   4.436   4.141   8.101 -0.0328  0.2550  0.4742
 2118TIP3    H127913   4.485   4.072   8.145 -0.8625 -0.6359  0.0443
 2118TIP3    H227914   4.419   4.206   8.169  0.0466 -0.3655  1.0978
 2119TIP3   OH227915   6.126   1.885   8.034 -0.0113 -0.5112  0.5738
 2119TIP3    H127916   6.201   1.938   8.060 -0.5963 -0.1932  1.6485
 2119TIP3    H227917   6.112   1.906   7.942  0.9226 -0.2213  0.4946
 2120TIP3   OH227918   0.501   2.894   8.158 -0.2944 -0.3641  0.6412
 2120TIP3    H127919   0.583   2.850   8.133 -0.1835 -0.4814  1.2093
 2120TIP3    H227920   0.510   2.982   8.122  0.1824 -0.3069  0.8877
 2121TIP3   OH227921   3.827   4.046   1.937 -0.3281 -0.1421  0.2521
 2121TIP3    H127922   3.773   4.065   1.860  0.4362  1.9631  0.1753
 2121TIP3    H227923   3.786   4.096   2.008 -1.6915 -2.9239  1.5761
 2122TIP3   OH227924   6.003   2.723   1.468  0.1481 -0.1852 -0.1128
 2122TIP3    H127925   5.938   2.717   1.398 -2.7683  1.1787  2.2646
 2122TIP3    H227926   5.988   2.646   1.522  0.7205  0.0103  0.3429
 2123TIP3   OH227927   6.479   0.037   0.657  0.1131  0.2171  0.0517
 2123TIP3    H127928   6.553  -0.010   0.696  0.4251  0.4964 -0.1852
 2123TIP3    H227929   6.485   0.125   0.693  1.3611  0.9470 -1.7773
 2124TIP3   OH227930   1.306   3.159   1.656  0.3343  0.1937 -0.3258
 2124TIP3    H127931   1.260   3.163   1.739  0.3094  0.2116 -0.3404
 2124TIP3    H227932   1.274   3.235   1.607 -1.4138 -1.1124 -1.2791
 2125TIP3   OH227933   5.057   1.600   2.337  0.8802  0.0787 -0.5651
 2125TIP3    H127934   5.063   1.681   2.388  0.7995  1.2079 -2.2714
 2125TIP3    H227935   5.132   1.548   2.367  1.5785  1.2417 -0.1980
 2126TIP3   OH227936   3.219   4.918   1.248  0.4568 -0.0728  0.1608
 2126TIP3    H127937   3.262   5.001   1.267  0.5653  0.1246 -0.8756
 2126TIP3    H227938   3.130   4.942   1.221  0.7286 -0.2086 -0.9228
 2127TIP3   OH227939   6.582   6.341   0.506  0.3347 -0.5955 -0.6021
 2127TIP3    H127940   6.623   6.257   0.523  0.0851 -0.9795 -1.7987
 2127TIP3    H227941   6.652   6.405   0.514  1.0149 -1.1573 -1.8416
 2128TIP3   OH227942   1.378   1.754   0.761  0.4876 -1.1486 -0.0916
 2128TIP3    H127943   1.394   1.848   0.772  0.5659 -1.2594  0.7755
 2128TIP3    H227944   1.379   1.741   0.666  0.5377 -0.2842 -0.2180
 2129TIP3   OH227945   6.607   1.075   2.449  0.2821  0.2295 -0.5641
 2129TIP3    H127946   6.572   1.158   2.417 -0.3422 -0.5261 -1.9739
 2129TIP3    H227947   6.529   1.024   2.472  0.7139  0.6331  2.0028
 2130TIP3   OH227948   2.185   2.230   1.379 -0.2091  0.1926 -0.1793
 2130TIP3    H127949   2.224   2.238   1.292 -0.1973  0.9348 -0.1058
 2130TIP3    H227950   2.188   2.136   1.397 -0.3104  0.0142 -1.0260
 2131TIP3   OH227951   6.129   5.692   6.778 -0.2606 -0.6472  0.2979
 2131TIP3    H127952   6.116   5.733   6.693  1.1550 -0.4046  0.1696
 2131TIP3    H227953   6.171   5.609   6.759 -0.2886 -0.7660  0.7354
 2132TIP3   OH227954   1.500   0.908   8.311  0.6355  0.1168 -0.0572
 2132TIP3    H127955   1.528   0.965   8.382  1.8523 -0.0690 -0.3803
 2132TIP3    H227956   1.438   0.847   8.352  0.5307  0.6685  0.6109
 2133TIP3   OH227957   6.429   1.853   8.234 -0.0437 -0.2081 -0.0175
 2133TIP3    H127958   6.351   1.805   8.260  0.4027 -0.9161  0.0588
 2133TIP3    H227959   6.454   1.815   8.150  0.1128  0.1318 -0.1235
 2134TIP3   OH227960   6.852   1.458   7.743 -0.3185  0.0424 -0.3713
 2134TIP3    H127961   6.772   1.457   7.690  0.1606 -0.3963 -1.0885
 2134TIP3    H227962   6.912   1.398   7.699  0.0924 -0.3440  0.6606
 2135TIP3   OH227963   4.503   4.653   7.394 -0.0082  0.2515  0.1291
 2135TIP3    H127964   4.529   4.673   7.304 -0.5837  0.0377 -0.0884
 2135TIP3    H227965   4.437   4.720   7.415  0.1982  0.3628  0.4296
 2136TIP3   OH227966   1.068   3.875   8.292 -0.0079 -0.1011 -0.2338
 2136TIP3    H127967   1.131   3.944   8.313  0.1975  0.0870 -1.3950
 2136TIP3    H227968   1.023   3.858   8.374 -0.1563  1.5114  0.0523
 2137TIP3   OH227969   5.882   0.762   7.509  0.5780 -0.2109 -0.5871
 2137TIP3    H127970   5.861   0.693   7.446 -1.7186 -0.6345  0.5295
 2137TIP3    H227971   5.969   0.739   7.542  0.0768 -2.3192 -0.6001
 2138TIP3   OH227972   3.611   0.619   1.104  0.2230  0.6768 -0.3567
 2138TIP3    H127973   3.695   0.610   1.149 -0.8002  0.9601  1.7403
 2138TIP3    H227974   3.633   0.649   1.016  2.4119 -1.0947 -0.4921
 2139TIP3   OH227975   5.939   5.669   0.102  0.4482  0.2206 -0.2891
 2139TIP3    H127976   5.852   5.630   0.094  0.0632  0.7244  1.1812
 2139TIP3    H227977   5.938   5.742   0.040  0.3750 -0.6854 -1.3854
 2140TIP3   OH227978   4.688   4.568   1.422 -0.7630  0.6465 -0.0800
 2140TIP3    H127979   4.748   4.515   1.369 -2.3791 -0.1643 -1.1664
 2140TIP3    H227980   4.708   4.543   1.513  0.8831  0.7969 -0.3675
 2141TIP3   OH227981   5.921   0.417   7.500  0.0746  0.1144  0.2191
 2141TIP3    H127982   5.963   0.348   7.450 -1.1491 -0.4770 -0.0236
 2141TIP3    H227983   5.870   0.466   7.435 -1.4035 -0.5637  0.8449
 2142TIP3   OH227984   5.280   0.145   8.631  0.3178  0.5726  0.2331
 2142TIP3    H127985   5.256   0.194   8.552  0.3410  1.0745  0.5348
 2142TIP3    H227986   5.196   0.124   8.673  0.3507  1.6589  0.8841
 2143TIP3   OH227987   2.481   1.794   1.356 -0.5138  0.0146 -0.1641
 2143TIP3    H127988   2.482   1.699   1.343  1.3155 -0.4037  2.3772
 2143TIP3    H227989   2.539   1.828   1.287 -1.4971 -0.6148 -1.3429
 2144TIP3   OH227990   5.265   3.023   7.833  0.4231  0.2061 -0.0456
 2144TIP3    H127991   5.354   3.055   7.825  0.2024  0.5289 -1.5409
 2144TIP3    H227992   5.210   3.096   7.802 -0.3711  0.0661  0.9688
 2145TIP3   OH227993   0.320   1.561   7.581 -0.6930  0.2170 -0.5472
 2145TIP3    H127994   0.345   1.472   7.606 -0.1098  0.1687 -1.2615
 2145TIP3    H227995   0.395   1.593   7.531 -1.4948  0.5786 -1.5461
 2146TIP3   OH227996   1.615   0.208   0.536 -0.2433  0.2015  0.7235
 2146TIP3    H127997   1.576   0.291   0.561  0.0607  0.3199  0.8098
 2146TIP3    H227998   1.648   0.171   0.619  0.7266  0.5745  0.5217
 2147TIP3   OH227999   2.066   6.219   8.283 -1.0347  0.0503 -0.4052
 2147TIP3    H128000   2.016   6.140   8.264 -0.4597 -0.5271  0.4038
 2147TIP3    H228001   2.097   6.207   8.373 -0.6951  1.0617 -0.3764
 2148TIP3   OH228002   0.472   2.352   1.788 -0.5204 -0.5447 -0.5585
 2148TIP3    H128003   0.451   2.283   1.725  1.1754 -0.6659 -1.0396
 2148TIP3    H228004   0.555   2.325   1.826 -0.5453  0.5296  0.3081
 2149TIP3   OH228005   6.164   5.365   8.140 -0.3940  0.7993  0.1697
 2149TIP3    H128006   6.168   5.451   8.181  0.3219  0.7079  0.2973
 2149TIP3    H228007   6.130   5.308   8.210 -2.0530  1.1736 -0.2702
 2150TIP3   OH228008   2.430   1.611   7.924  0.0702 -0.1348 -0.3636
 2150TIP3    H128009   2.432   1.520   7.955  0.2344  0.4378  1.4043
 2150TIP3    H228010   2.496   1.656   7.976  0.9437  0.7463 -2.1522
 2151TIP3   OH228011   3.574   1.389   2.046  0.1366  0.6127  0.3565
 2151TIP3    H128012   3.616   1.358   1.965 -2.6746 -0.8844 -0.6750
 2151TIP3    H228013   3.555   1.308   2.095 -2.2145  1.0862  0.3446
 2152TIP3   OH228014   1.456   6.629   2.831  0.1457 -0.2179  0.1138
 2152TIP3    H128015   1.400   6.686   2.884  3.5244  2.1169  1.5951
 2152TIP3    H228016   1.431   6.540   2.857 -0.4659  0.7708  3.4218
 2153TIP3   OH228017   1.942   3.714   7.499  0.0679 -0.1506 -0.0503
 2153TIP3    H128018   1.952   3.662   7.419  0.2504 -1.1312  0.5960
 2153TIP3    H228019   1.873   3.778   7.478  2.6110  2.1071 -2.2318
 2154TIP3   OH228020   1.203   1.164   1.687 -0.5304  0.0333 -0.3021
 2154TIP3    H128021   1.201   1.106   1.611 -0.3166 -1.7587  0.9782
 2154TIP3    H228022   1.151   1.118   1.753 -2.6337  2.6193 -0.0261
 2155TIP3   OH228023   2.666   2.511   8.436  0.7230 -0.1827 -0.3548
 2155TIP3    H128024   2.640   2.530   8.526  0.5219  0.1097 -0.4737
 2155TIP3    H228025   2.599   2.450   8.405  0.2877  0.4135 -0.5953
 2156TIP3   OH228026   5.644   2.086   7.255  0.2057  0.5797  0.3587
 2156TIP3    H128027   5.589   2.114   7.182 -1.2347  0.2620  1.3004
 2156TIP3    H228028   5.650   1.991   7.246 -0.1653  0.5126  0.7677
 2157TIP3   OH228029   0.606   0.197   2.249  0.0807  0.2933 -0.2546
 2157TIP3    H128030   0.628   0.105   2.237 -0.6534 -0.0791  1.0614
 2157TIP3    H228031   0.515   0.204   2.221 -0.7988 -0.0352  2.2723
 2158TIP3   OH228032   0.317   0.246   1.301 -0.5305 -0.5012 -0.2206
 2158TIP3    H128033   0.238   0.227   1.250 -0.6181  0.0379 -0.2840
 2158TIP3    H228034   0.314   0.340   1.317 -0.2577 -0.5889  0.3765
 2159TIP3   OH228035   5.423   5.964   1.879  0.2206 -0.0685  0.2684
 2159TIP3    H128036   5.453   5.873   1.871 -0.0926 -0.2434  1.0234
 2159TIP3    H228037   5.328   5.958   1.879  0.1984  0.2838  0.0994
 2160TIP3   OH228038   6.752   5.197   1.795  0.2799 -0.4466  0.3387
 2160TIP3    H128039   6.771   5.290   1.807 -0.3074 -0.2418 -0.2190
 2160TIP3    H228040   6.797   5.173   1.714 -0.2716 -0.4247  0.0176
 2161TIP3   OH228041   3.290   0.208   1.603  0.2992  0.5960 -0.7260
 2161TIP3    H128042   3.367   0.187   1.550 -0.3718 -1.3013 -1.0039
 2161TIP3    H228043   3.252   0.285   1.559  1.3900  0.8630 -1.2412
 2162TIP3   OH228044   4.056   4.837   0.957 -0.3988 -0.0427  0.1594
 2162TIP3    H128045   4.048   4.752   1.000  0.2119  0.9867  2.4567
 2162TIP3    H228046   3.971   4.850   0.915 -0.1312 -2.2369 -1.2795
 2163TIP3   OH228047   0.438   1.905   1.176 -0.1791 -0.3021  0.2644
 2163TIP3    H128048   0.371   1.953   1.127 -1.9461 -0.6002  2.2225
 2163TIP3    H228049   0.497   1.972   1.209  0.1938  0.0189 -0.9947
 2164TIP3   OH228050   2.845   0.342   1.618 -0.1268 -0.4687  0.0915
 2164TIP3    H128051   2.823   0.252   1.591  0.8578 -1.1857  1.5429
 2164TIP3    H228052   2.818   0.346   1.710  0.3662  0.5454  0.1968
 2165TIP3   OH228053   0.040   6.234   2.323  0.3738 -0.7802 -0.5875
 2165TIP3    H128054   0.108   6.298   2.299  0.7588 -1.1685 -0.5549
 2165TIP3    H228055   0.073   6.151   2.288 -1.2033 -0.6086 -2.6869
 2166TIP3   OH228056   2.070   5.628   7.265  0.2821 -0.0770 -0.0538
 2166TIP3    H128057   2.125   5.553   7.287 -1.2298 -0.5868  2.2655
 2166TIP3    H228058   1.988   5.589   7.233  0.4860  0.6494 -1.5438
 2167TIP3   OH228059   4.376   3.245   0.094  0.5611 -0.0734  0.6489
 2167TIP3    H128060   4.426   3.324   0.114 -1.0284  2.0035 -2.6262
 2167TIP3    H228061   4.378   3.239  -0.002 -4.5479 -0.2980  0.2658
 2168TIP3   OH228062   2.940   0.423   2.228  0.9686 -0.4535  0.2490
 2168TIP3    H128063   2.936   0.425   2.323 -0.9711  2.4129  0.2270
 2168TIP3    H228064   2.879   0.353   2.203  0.7382 -0.5649  1.1007
 2169TIP3   OH228065   1.252   5.185   2.118  0.0897 -0.0790  0.1188
 2169TIP3    H128066   1.205   5.205   2.037 -0.0692  1.0799  0.4682
 2169TIP3    H228067   1.210   5.106   2.152 -0.1781 -0.2833 -0.6652
 2170TIP3   OH228068   4.032   3.304   0.092  0.1433 -0.1868 -0.2908
 2170TIP3    H128069   3.964   3.273   0.152 -0.2147  1.2953  0.1111
 2170TIP3    H228070   4.054   3.227   0.039  0.1023 -1.4032  1.3710
 2171TIP3   OH228071   3.944   5.374   2.092 -0.4087  0.2671  0.3924
 2171TIP3    H128072   3.897   5.300   2.128  0.1116 -0.2186  0.0875
 2171TIP3    H228073   3.882   5.447   2.097 -0.6435  0.0169  1.4581
 2172TIP3   OH228074   6.572   3.939   0.280 -0.2616  0.0768  0.2138
 2172TIP3    H128075   6.556   3.993   0.357  1.5711 -0.3902  0.9712
 2172TIP3    H228076   6.647   3.883   0.304  0.5346  0.0959 -1.9709
 2173TIP3   OH228077   5.637   1.380   1.475 -0.1083  0.6964  0.0793
 2173TIP3    H128078   5.724   1.356   1.443 -0.5271  0.6913 -1.1373
 2173TIP3    H228079   5.649   1.467   1.513  0.1182  1.4940 -1.6937
 2174TIP3   OH228080   4.772   1.138   1.276 -0.2214  0.1853 -0.4104
 2174TIP3    H128081   4.754   1.218   1.227 -1.4529  0.6740  0.7554
 2174TIP3    H228082   4.731   1.068   1.224  1.0782  0.2448 -1.5603
 2175TIP3   OH228083   6.760   0.886   2.115  0.1386 -0.3751 -0.0888
 2175TIP3    H128084   6.852   0.863   2.103  0.3134  0.2075  0.1030
 2175TIP3    H228085   6.716   0.848   2.039  0.6630  0.0796 -0.6244
 2176TIP3   OH228086   5.434   0.029   1.839  0.5818  0.2607  0.0858
 2176TIP3    H128087   5.459  -0.054   1.881  1.1240  1.7252  2.8768
 2176TIP3    H228088   5.351   0.053   1.880  2.5463  3.2068  2.7893
 2177TIP3   OH228089   2.020   4.116   8.061  0.0509 -0.3188  0.1919
 2177TIP3    H128090   2.078   4.172   8.112 -0.5256  0.2469  0.2260
 2177TIP3    H228091   1.949   4.173   8.032  0.3896 -0.5980 -1.2911
 2178TIP3   OH228092   0.730   6.045   0.778 -0.1708  0.1179  0.3100
 2178TIP3    H128093   0.768   5.960   0.757  0.4385  0.6783 -0.9322
 2178TIP3    H228094   0.635   6.030   0.777 -0.0525 -0.7745  1.1952
 2179TIP3   OH228095   3.319   0.321   0.053 -0.1678 -0.2000  0.2115
 2179TIP3    H128096   3.315   0.296   0.145  1.1562 -0.1962  0.2840
 2179TIP3    H228097   3.378   0.397   0.051 -0.5798  0.1091 -0.5740
 2180TIP3   OH228098   4.836   1.383   0.734  0.2125 -0.2144 -0.7696
 2180TIP3    H128099   4.754   1.428   0.752  0.9625  0.7635  0.3608
 2180TIP3    H228100   4.847   1.322   0.807  2.4356  2.5607  1.4422
 2181TIP3   OH228101   2.351   2.779   7.630  0.0844  0.8854 -0.2294
 2181TIP3    H128102   2.322   2.749   7.543 -1.6185 -1.1787  0.9594
 2181TIP3    H228103   2.438   2.814   7.614  0.0016  0.2130 -2.7273
 2182TIP3   OH228104   2.268   3.600   7.685 -0.0419  0.5255 -0.0506
 2182TIP3    H128105   2.303   3.521   7.645  3.8417  1.9071  0.1264
 2182TIP3    H228106   2.288   3.670   7.622 -0.8095  1.7300  0.9745
 2183TIP3   OH228107   0.185   5.652   0.690  0.1753 -0.1141  0.1347
 2183TIP3    H128108   0.252   5.663   0.623 -0.2006  1.3229 -0.0416
 2183TIP3    H228109   0.189   5.559   0.712  0.7310 -0.5085 -1.4330
 2184TIP3   OH228110   5.703   3.463   1.696 -0.1018 -0.0786  0.3966
 2184TIP3    H128111   5.703   3.552   1.731 -2.0009  0.6574 -1.2471
 2184TIP3    H228112   5.672   3.409   1.769 -0.6684  0.8827  0.8990
 2185TIP3   OH228113   5.669   0.670   8.327 -0.8440 -0.3029  0.9696
 2185TIP3    H128114   5.695   0.606   8.393 -1.2716 -0.9713  0.5080
 2185TIP3    H228115   5.605   0.726   8.372 -0.6769 -0.3772  1.2993
 2186TIP3   OH228116   1.041   2.268   8.264  0.1895  0.4041  0.6381
 2186TIP3    H128117   1.117   2.325   8.278  2.2346 -1.5644 -1.6104
 2186TIP3    H228118   0.993   2.311   8.193 -0.5369  1.3429  1.6618
 2187TIP3   OH228119   5.172   2.299   8.497  0.0242  0.1570 -0.5368
 2187TIP3    H128120   5.086   2.333   8.523  1.3070  2.7138  0.7882
 2187TIP3    H228121   5.153   2.236   8.428 -2.8640  1.2192 -0.8469
 2188TIP3   OH228122   2.751   6.037   8.172  0.1386  0.3223 -0.2208
 2188TIP3    H128123   2.674   6.093   8.157  0.4456  0.9602  0.5275
 2188TIP3    H228124   2.825   6.098   8.168  0.3753  0.2395  2.0217
 2189TIP3   OH228125   4.912   1.342   7.407 -0.4143  0.2964  0.7237
 2189TIP3    H128126   4.905   1.360   7.501 -0.5841 -2.3820  1.2970
 2189TIP3    H228127   5.006   1.328   7.393 -0.3864  0.7236  0.4680
 2190TIP3   OH228128   0.396   6.281   0.765 -0.2007  0.1229 -0.1402
 2190TIP3    H128129   0.424   6.208   0.821 -1.2476  1.5823  2.4883
 2190TIP3    H228130   0.475   6.333   0.750 -0.1897  0.6697  1.6040
 2191TIP3   OH228131   5.221   0.279   8.395  0.0345 -0.2316  0.4896
 2191TIP3    H128132   5.127   0.293   8.406  0.0268 -0.8163  1.2652
 2191TIP3    H228133   5.227   0.203   8.337  0.0691  1.6744 -2.1813
 2192TIP3   OH228134   5.982   2.875   2.345  0.3864  0.2390  0.5071
 2192TIP3    H128135   5.898   2.920   2.339  1.3400  2.2114  0.7857
 2192TIP3    H228136   6.031   2.925   2.412  1.1074 -2.0251  1.7700
 2193TIP3   OH228137   6.367   5.066   2.948  0.0757 -0.6484  0.4096
 2193TIP3    H128138   6.311   5.142   2.936  0.9904 -0.1500 -1.0710
 2193TIP3    H228139   6.327   4.998   2.893  0.0999 -0.7631  0.5329
 2194TIP3   OH228140   2.241   5.562   1.610 -0.2526 -0.2152  0.4622
 2194TIP3    H128141   2.268   5.599   1.694  1.3743  0.4433 -0.2988
 2194TIP3    H228142   2.272   5.625   1.545  0.4136 -1.7135 -0.7363
 2195TIP3   OH228143   2.491   0.841   1.352 -0.4059  0.6232 -0.4307
 2195TIP3    H128144   2.495   0.785   1.429 -1.9783  2.0569  0.7702
 2195TIP3    H228145   2.502   0.781   1.278 -0.1262 -0.9722  0.8484
 2196TIP3   OH228146   0.771   1.117   7.862  0.0034 -0.0167 -0.4079
 2196TIP3    H128147   0.732   1.131   7.948 -0.7590 -1.3853 -0.4902
 2196TIP3    H228148   0.846   1.061   7.878  1.2068  1.5343 -0.4092
 2197TIP3   OH228149   2.065   3.591   0.606 -0.5574  0.3035  0.5142
 2197TIP3    H128150   1.971   3.575   0.614 -0.3914 -0.5062  0.9919
 2197TIP3    H228151   2.094   3.603   0.697 -0.4262  2.0072  0.2773
 2198TIP3   OH228152   1.418   1.604   1.263 -0.7196  0.2288  0.2408
 2198TIP3    H128153   1.389   1.552   1.337 -0.8710 -0.3012 -0.1814
 2198TIP3    H228154   1.497   1.649   1.294 -1.5083  1.0384  1.1308
 2199TIP3   OH228155   2.557   3.289   7.679  0.4853  0.1481  0.2075
 2199TIP3    H128156   2.555   3.356   7.746 -0.2113 -0.2955  0.6471
 2199TIP3    H228157   2.606   3.328   7.607 -1.7045  1.9824 -0.4269
 2200TIP3   OH228158   0.512   3.693   1.369 -0.4459 -0.0003  0.2583
 2200TIP3    H128159   0.520   3.775   1.416 -0.2885  0.6879 -0.9184
 2200TIP3    H228160   0.510   3.718   1.276 -2.0757 -1.1855 -0.0826
 2201TIP3   OH228161   6.154   5.526   2.097  0.2593  0.5414  0.1686
 2201TIP3    H128162   6.243   5.503   2.125  0.1989 -0.5738 -0.4993
 2201TIP3    H228163   6.097   5.475   2.155  0.1047 -0.2000 -0.6096
 2202TIP3   OH228164   0.200   5.009   0.376 -0.6482  0.4593  0.0133
 2202TIP3    H128165   0.105   5.023   0.366 -0.6388  2.0588  1.5979
 2202TIP3    H228166   0.214   5.013   0.471  1.2703  2.4896 -0.2753
 2203TIP3   OH228167   2.292   2.553   1.129  0.0507  0.2726  0.8235
 2203TIP3    H128168   2.288   2.622   1.063 -1.2425  1.9542  2.5552
 2203TIP3    H228169   2.218   2.495   1.108 -0.7420  1.1494  1.1041
 2204TIP3   OH228170   5.904   0.508   0.566  0.3417 -0.4693  0.4740
 2204TIP3    H128171   5.954   0.555   0.633  1.2663  0.7797 -1.0208
 2204TIP3    H228172   5.964   0.502   0.491 -0.9718 -0.9430 -0.5904
 2205TIP3   OH228173   6.008   6.858   2.792 -0.1264 -0.5312  0.0570
 2205TIP3    H128174   5.957   6.836   2.714 -2.1951 -0.8823  1.4185
 2205TIP3    H228175   6.069   6.785   2.802  0.6128 -0.1707 -1.5586
 2206TIP3   OH228176   6.164   0.413   1.660 -0.0231  0.5504  0.7905
 2206TIP3    H128177   6.137   0.491   1.709  0.6285  0.6028  1.0779
 2206TIP3    H228178   6.225   0.447   1.594 -1.5209  0.6059 -0.6383
 2207TIP3   OH228179   0.401   2.767   8.419  0.2211 -0.0310 -0.1571
 2207TIP3    H128180   0.444   2.829   8.360 -1.8277  1.1864 -0.4500
 2207TIP3    H228181   0.364   2.701   8.360  0.7156 -0.4776  0.0200
 2208TIP3   OH228182   2.437   6.151   8.506  0.2199  0.0520 -0.4896
 2208TIP3    H128183   2.453   6.136   8.599  0.2928  0.5251 -0.4245
 2208TIP3    H228184   2.425   6.064   8.469  0.3535 -0.1454 -0.0663
 2209TIP3   OH228185   1.837   6.772   1.386  0.5276  0.0079 -0.4554
 2209TIP3    H128186   1.905   6.803   1.327  1.9764  0.0465  1.1706
 2209TIP3    H228187   1.871   6.691   1.423 -1.5661 -1.5749 -1.7142
 2210TIP3   OH228188   3.828   3.963   1.166  0.4296 -0.2856  0.0282
 2210TIP3    H128189   3.895   3.996   1.107  1.2773 -0.1772  1.0074
 2210TIP3    H228190   3.762   4.033   1.169  0.6939 -0.0200 -0.2861
 2211TIP3   OH228191   0.483   2.888   0.832 -0.2257  0.5472  0.0036
 2211TIP3    H128192   0.462   2.827   0.903  0.5200 -0.7421 -0.8290
 2211TIP3    H228193   0.414   2.875   0.767  0.4942 -0.2141 -0.6382
 2212TIP3   OH228194   1.879   2.908   7.935  0.1152  0.4006 -0.3418
 2212TIP3    H128195   1.892   2.996   7.900 -0.3683  0.2513 -0.9320
 2212TIP3    H228196   1.946   2.898   8.003 -0.0397  1.3383 -0.0393
 2213TIP3   OH228197   1.797   0.241   0.950 -0.3326 -0.0797  0.0691
 2213TIP3    H128198   1.851   0.195   1.014 -1.2468 -0.9540  0.2268
 2213TIP3    H228199   1.780   0.177   0.881 -0.4562  0.4561 -0.4092
 2214TIP3   OH228200   5.263   1.969   2.833  0.0388  0.5645  0.2300
 2214TIP3    H128201   5.326   1.897   2.823 -0.5543  0.0406  0.2071
 2214TIP3    H228202   5.194   1.933   2.889 -0.2136  1.1499  0.3019
 2215TIP3   OH228203   3.816   3.371   1.405 -0.0133 -0.4142 -0.4068
 2215TIP3    H128204   3.840   3.318   1.329  0.0161  0.2888 -0.8964
 2215TIP3    H228205   3.807   3.460   1.370 -0.9807 -0.2531  0.2204
 2216TIP3   OH228206   2.071   1.894   8.559  0.5547 -0.0633 -0.0340
 2216TIP3    H128207   2.011   1.888   8.484 -0.1680 -2.7341  0.6554
 2216TIP3    H228208   2.134   1.961   8.533 -0.0829 -0.3552 -2.7212
 2217TIP3   OH228209   4.845   0.756   2.875 -0.0859  0.1610 -0.0795
 2217TIP3    H128210   4.885   0.799   2.951 -1.2170  1.8045 -0.3610
 2217TIP3    H228211   4.808   0.827   2.824 -1.9707 -1.1463 -0.6486
 2218TIP3   OH228212   1.108   4.001   8.013 -0.4553  0.0312 -0.4245
 2218TIP3    H128213   1.100   3.907   8.025  2.1203 -0.1750  0.4394
 2218TIP3    H228214   1.092   4.039   8.100  2.8063 -0.0907  0.3646
 2219TIP3   OH228215   5.479   5.036   1.956  0.2367 -0.1262  0.0572
 2219TIP3    H128216   5.516   4.977   1.891  0.3054 -0.8177  0.7077
 2219TIP3    H228217   5.504   4.998   2.040  0.9727  1.2718  0.4956
 2220TIP3   OH228218   4.188   1.660   0.775 -0.1467  0.2895  0.2056
 2220TIP3    H128219   4.125   1.603   0.819 -1.7154  1.9130  0.2028
 2220TIP3    H228220   4.173   1.746   0.815  1.9166  0.7917 -0.0007
 2221TIP3   OH228221   3.702   5.136   8.060  0.0268 -0.2393 -0.6677
 2221TIP3    H128222   3.649   5.133   7.981 -0.8667  2.1005 -0.2611
 2221TIP3    H228223   3.688   5.225   8.094 -1.4692 -1.7895  3.3672
 2222TIP3   OH228224   1.979   0.839   7.417 -0.6651 -0.0705  0.3051
 2222TIP3    H128225   1.954   0.864   7.328 -2.0231  0.1150  0.7108
 2222TIP3    H228226   1.943   0.751   7.428 -1.9299  0.5209  1.1905
 2223TIP3   OH228227   0.022   2.264   2.287 -0.3292  0.0964 -0.0380
 2223TIP3    H128228  -0.001   2.277   2.379  0.1126 -2.0698  0.4338
 2223TIP3    H228229  -0.053   2.300   2.239 -0.9230  0.5686  1.1871
 2224TIP3   OH228230   1.754   6.549   1.993 -0.6282  0.7257 -0.0674
 2224TIP3    H128231   1.718   6.474   2.041  0.5360 -0.8950 -1.6312
 2224TIP3    H228232   1.806   6.596   2.059 -2.1738  0.7791  1.1867
 2225TIP3   OH228233   3.956   1.545   1.703  0.6729  0.0683  0.3568
 2225TIP3    H128234   3.919   1.580   1.784 -0.0787 -0.4363  0.2406
 2225TIP3    H228235   3.974   1.453   1.722 -0.1794 -0.2426 -0.2504
 2226TIP3   OH228236   1.538   5.707   1.738  0.5022 -0.2095  0.1058
 2226TIP3    H128237   1.626   5.676   1.759  0.2438 -1.1179 -0.0927
 2226TIP3    H228238   1.490   5.703   1.820  0.5305 -0.1202  0.1267
 2227TIP3   OH228239   5.776   5.235   1.045  0.2923  0.3676 -0.4531
 2227TIP3    H128240   5.784   5.140   1.041  0.0832  0.3655 -0.9695
 2227TIP3    H228241   5.849   5.264   1.099  1.3722  0.0410 -1.6958
 2228TIP3   OH228242   4.084   2.107   1.044 -0.5108 -0.8043  0.4254
 2228TIP3    H128243   4.030   2.061   1.109 -1.2969 -0.0464  0.3324
 2228TIP3    H228244   4.061   2.199   1.055  1.0448 -0.3978  0.6323
 2229TIP3   OH228245   6.652   5.145   1.366 -0.2098  0.2817 -0.5190
 2229TIP3    H128246   6.695   5.060   1.375  0.5465  0.3145 -3.0067
 2229TIP3    H228247   6.655   5.183   1.454  1.1937 -1.4300  0.2424
 2230TIP3   OH228248   4.095   2.519   1.280 -0.3061 -0.1529 -0.2592
 2230TIP3    H128249   4.067   2.585   1.217 -0.6766  1.2571  1.3166
 2230TIP3    H228250   4.015   2.491   1.323  0.0135 -0.6419  0.0362
 2231TIP3   OH228251   2.566   6.692   7.513  0.2825 -0.2639 -0.4866
 2231TIP3    H128252   2.520   6.629   7.457 -0.5801  0.8838 -1.1137
 2231TIP3    H228253   2.659   6.678   7.493  0.2797 -2.6702  0.8582
 2232TIP3   OH228254   1.537   3.679   7.949 -0.5073  0.2309 -0.2924
 2232TIP3    H128255   1.605   3.710   7.890  2.0299 -0.7531  1.8849
 2232TIP3    H228256   1.462   3.661   7.892  0.9928  1.4493 -2.8305
 2233TIP3   OH228257   0.246   0.551   0.181 -0.3231  0.3531  0.0885
 2233TIP3    H128258   0.273   0.537   0.090  0.6282  1.0294  0.2553
 2233TIP3    H228259   0.267   0.642   0.199  3.7233 -0.7654  2.3316
 2234TIP3   OH228260   2.081   3.306   1.048  0.1155 -0.1469 -0.5893
 2234TIP3    H128261   2.043   3.262   1.124 -0.6568  0.6851 -0.4754
 2234TIP3    H228262   2.015   3.299   0.980  1.1773 -1.6991 -1.5153
 2235TIP3   OH228263   6.765   5.969   0.825  0.6265  0.8153 -0.0633
 2235TIP3    H128264   6.846   5.923   0.801  0.9594  0.7819  1.0613
 2235TIP3    H228265   6.701   5.900   0.837  0.4559  0.8322 -0.8331
 2236TIP3   OH228266   0.524   0.006   7.583 -0.3349  0.4306 -0.0674
 2236TIP3    H128267   0.486  -0.080   7.601  0.8074 -0.5900 -2.1594
 2236TIP3    H228268   0.550   0.002   7.491  0.7983  2.6225  0.0880
 2237TIP3   OH228269   0.927   4.034   3.180 -0.0217 -0.1747 -0.6546
 2237TIP3    H128270   0.892   4.118   3.151  2.3868  1.1234 -0.0681
 2237TIP3    H228271   0.942   3.984   3.100  0.8079  0.9590 -1.2316
 2238TIP3   OH228272   3.833   5.241   7.613 -0.1304 -0.1521 -0.2327
 2238TIP3    H128273   3.806   5.150   7.617 -1.5367  0.2387 -0.5274
 2238TIP3    H228274   3.905   5.242   7.549 -0.3961 -0.9815 -0.5567
 2239TIP3   OH228275   5.255   5.184   0.189  0.1531 -0.3523 -0.2456
 2239TIP3    H128276   5.339   5.198   0.145  1.1078  0.3559  1.7129
 2239TIP3    H228277   5.268   5.104   0.240 -0.6326 -0.6456 -0.4850
 2240TIP3   OH228278   2.058   1.906   1.135 -0.1675  0.6264  1.1214
 2240TIP3    H128279   2.051   1.811   1.122  1.1344  0.5420  0.8552
 2240TIP3    H228280   2.045   1.919   1.228 -1.7884  0.3588  0.9598
 2241TIP3   OH228281   5.359   4.306   1.375 -0.0939  0.4451 -0.6448
 2241TIP3    H128282   5.437   4.251   1.373 -0.3922 -0.0012 -0.1747
 2241TIP3    H228283   5.350   4.331   1.467  0.2639  1.6078 -0.9172
 2242TIP3   OH228284   0.551   4.709   0.689  0.6548 -0.2131  0.1788
 2242TIP3    H128285   0.550   4.618   0.659  1.1013  0.2561 -1.3541
 2242TIP3    H228286   0.489   4.754   0.631  2.4712  0.9645 -0.9551
 2243TIP3   OH228287   2.114   6.077   7.679  0.6759  0.1131 -0.2151
 2243TIP3    H128288   2.107   6.167   7.711 -1.0924 -0.6671  1.9028
 2243TIP3    H228289   2.028   6.058   7.642  1.2940 -0.4806 -1.4125
 2244TIP3   OH228290   2.093   0.627   7.233 -0.5519 -0.1921 -0.6887
 2244TIP3    H128291   2.005   0.611   7.199 -0.9418  1.0604 -0.3506
 2244TIP3    H228292   2.107   0.558   7.298 -2.2714  0.9169  0.9737
 2245TIP3   OH228293   6.749   1.715   7.827 -0.1411 -0.0874 -0.2679
 2245TIP3    H128294   6.735   1.705   7.921  0.6659  0.1642 -0.1226
 2245TIP3    H228295   6.816   1.650   7.805  0.8158  0.9254 -0.3835
 2246TIP3   OH228296   4.505   4.772   1.946  0.1921 -0.6678 -0.6061
 2246TIP3    H128297   4.579   4.769   1.885 -0.2739 -0.5234 -1.1779
 2246TIP3    H228298   4.541   4.737   2.028  0.9663 -0.3624 -0.8034
 2247TIP3   OH228299   2.689   5.152   1.521  0.1907 -0.4782 -0.2453
 2247TIP3    H128300   2.679   5.195   1.607  1.2927  0.2823 -0.4789
 2247TIP3    H228301   2.781   5.164   1.499 -0.0818 -0.6652 -1.5418
 2248TIP3   OH228302   1.336   3.621   1.559  0.4007 -0.4237  0.0164
 2248TIP3    H128303   1.305   3.536   1.589 -0.6636 -0.7184 -1.8007
 2248TIP3    H228304   1.425   3.604   1.528  0.7682 -0.5203  1.0765
 2249TIP3   OH228305   1.868   6.114   0.597 -0.4191  0.0054 -0.5871
 2249TIP3    H128306   1.803   6.059   0.553  1.2951 -1.5078 -1.3558
 2249TIP3    H228307   1.876   6.075   0.684  0.1280 -0.3975 -0.8155
 2250TIP3   OH228308   3.651   2.328   8.629 -0.0210 -0.3045 -0.3781
 2250TIP3    H128309   3.618   2.348   8.541  1.0615 -2.0818 -1.2593
 2250TIP3    H228310   3.707   2.251   8.616 -0.4014 -1.0507  1.9981
 2251TIP3   OH228311   3.670   0.643   1.646 -0.3116 -0.0508  0.2723
 2251TIP3    H128312   3.747   0.587   1.655 -0.7665 -0.8982 -0.8109
 2251TIP3    H228313   3.649   0.640   1.552 -0.5095  1.7328  0.2350
 2252TIP3   OH228314   5.817   0.705   1.960 -0.4114  0.8601 -0.6219
 2252TIP3    H128315   5.762   0.764   1.908  1.1613  1.4144 -1.7317
 2252TIP3    H228316   5.852   0.760   2.030 -0.9705  0.5856 -0.1120
 2253TIP3   OH228317   2.745   0.043   1.315  0.4071 -0.1479  0.2277
 2253TIP3    H128318   2.709  -0.032   1.268  1.5916 -0.3459 -0.3857
 2253TIP3    H228319   2.763   0.010   1.403  0.2092 -0.3697  0.1866
 2254TIP3   OH228320   6.715   2.864   8.481 -0.2841  0.1856 -0.2569
 2254TIP3    H128321   6.653   2.933   8.459  0.3075  1.0508  0.6892
 2254TIP3    H228322   6.669   2.811   8.547 -0.9442 -0.6821 -1.3731
 2255TIP3   OH228323   1.619   6.815   0.029 -0.0587  0.4106  0.2416
 2255TIP3    H128324   1.693   6.754   0.026 -1.0018 -0.7182 -0.7286
 2255TIP3    H228325   1.600   6.824   0.123 -0.0646 -0.9842  0.3948
 2256TIP3   OH228326   5.079   2.024   2.547  0.3233  0.6059  0.1540
 2256TIP3    H128327   5.068   1.938   2.506 -1.7195  0.7530  0.2991
 2256TIP3    H228328   4.990   2.054   2.564  0.9651  3.0156 -0.4018
 2257TIP3   OH228329   2.234   5.902   8.417  0.5929 -0.0396  0.1209
 2257TIP3    H128330   2.267   5.948   8.340  0.0356  0.2128  0.0249
 2257TIP3    H228331   2.144   5.935   8.428 -0.4301 -2.2615 -0.9218
 2258TIP3   OH228332   3.619   6.225   2.538  0.0610  0.2375  0.0143
 2258TIP3    H128333   3.554   6.175   2.488  0.7485  2.2952 -3.2238
 2258TIP3    H228334   3.567   6.286   2.591 -0.6510 -0.2365 -0.1237
 2259TIP3   OH228335   5.921   2.134   7.895 -0.1718  0.0080 -0.2537
 2259TIP3    H128336   5.983   2.190   7.849 -0.6272 -0.7726 -1.9285
 2259TIP3    H228337   5.911   2.058   7.837 -1.3880 -0.6627  0.7924
 2260TIP3   OH228338   4.616   5.039   1.253 -0.3104 -0.3062  0.2153
 2260TIP3    H128339   4.706   5.030   1.223 -0.4281 -2.7893  0.4237
 2260TIP3    H228340   4.599   5.133   1.249  1.7071  0.0693 -1.4983
 2261TIP3   OH228341   6.691   1.421   2.015 -0.5043  0.1823 -0.3886
 2261TIP3    H128342   6.697   1.345   2.073  0.8351  0.6556  0.1297
 2261TIP3    H228343   6.714   1.496   2.070 -1.7676  0.9795 -0.9025
 2262TIP3   OH228344   5.854   4.215   7.708 -0.3804  0.2951  0.5969
 2262TIP3    H128345   5.891   4.128   7.691 -0.5926  0.3116  0.0277
 2262TIP3    H228346   5.860   4.225   7.803 -0.5237 -0.4189  0.6894
 2263TIP3   OH228347   0.782   5.434   1.076 -0.2211 -0.7187  0.8795
 2263TIP3    H128348   0.861   5.482   1.049 -0.9874  0.7885  1.2657
 2263TIP3    H228349   0.793   5.348   1.035  0.6120  0.1489 -0.8655
 2264TIP3   OH228350   0.886   4.909   1.275 -0.3092  0.0455  0.2256
 2264TIP3    H128351   0.860   4.924   1.366 -0.1782  3.0313 -0.1364
 2264TIP3    H228352   0.831   4.836   1.246 -1.1807 -0.2037  2.3165
 2265TIP3   OH228353   4.033   0.612   8.009  0.6566  0.2007 -0.0173
 2265TIP3    H128354   3.951   0.602   7.960  0.9209 -0.6596 -0.2934
 2265TIP3    H228355   4.050   0.525   8.045  1.6481  0.2796 -0.2755
 2266TIP3   OH228356   6.628   6.605   7.814 -0.7930  0.0613 -0.0203
 2266TIP3    H128357   6.601   6.519   7.848 -0.5658 -0.3717 -0.8974
 2266TIP3    H228358   6.719   6.591   7.785 -0.8854  0.4833 -0.5302
 2267TIP3   OH228359   2.610   3.056   7.015 -0.2191  0.7630  0.1424
 2267TIP3    H128360   2.670   3.060   6.940 -1.4912  0.0005 -0.9518
 2267TIP3    H228361   2.648   2.989   7.071  0.3847  0.8495 -0.1453
 2268TIP3   OH228362   6.207   5.407   0.951  0.4103 -0.5595 -0.3158
 2268TIP3    H128363   6.227   5.407   1.044 -2.3335 -1.1055  0.3771
 2268TIP3    H228364   6.283   5.367   0.909  2.1050  0.5474  1.5453
 2269TIP3   OH228365   1.603   5.340   0.254 -0.2352  0.4624  0.1162
 2269TIP3    H128366   1.551   5.272   0.298  0.1243  0.8671  1.2012
 2269TIP3    H228367   1.581   5.330   0.162 -1.2025 -0.2658  0.3988
 2270TIP3   OH228368   0.566   6.045   2.926  0.1327  0.0685  0.2909
 2270TIP3    H128369   0.647   6.048   2.875  2.0614 -0.1094  3.1295
 2270TIP3    H228370   0.562   5.956   2.960 -0.1670  0.6289  1.7973
 2271TIP3   OH228371   2.366   5.672   8.505  0.1892 -0.0911  0.7288
 2271TIP3    H128372   2.363   5.764   8.482  0.3518  0.0356  1.1893
 2271TIP3    H228373   2.307   5.629   8.443  0.1151  0.3203  0.5120
 2272TIP3   OH228374   6.529   4.422   7.412 -0.2362  0.1289  0.0626
 2272TIP3    H128375   6.503   4.356   7.476 -0.6370  0.1101 -0.1217
 2272TIP3    H228376   6.498   4.389   7.328 -0.3827  0.5215 -0.0412
 2273TIP3   OH228377   4.594   2.038   7.326 -0.2277 -0.3684 -0.2236
 2273TIP3    H128378   4.586   2.119   7.375  0.0455 -0.9583  0.8389
 2273TIP3    H228379   4.670   2.051   7.269 -0.1725  0.1120 -0.0389
 2274TIP3   OH228380   1.718   4.942   7.775  0.5097 -0.1187  0.0545
 2274TIP3    H128381   1.744   4.853   7.751 -2.2188 -0.7224 -1.0376
 2274TIP3    H228382   1.695   4.936   7.868 -0.9229 -0.9308 -0.3274
 2275TIP3   OH228383   2.633   6.580   1.663  0.3002  0.0312  0.0241
 2275TIP3    H128384   2.596   6.663   1.694  0.5152  0.0407  0.2526
 2275TIP3    H228385   2.718   6.604   1.625 -0.0643  0.0582 -0.8041
 2276TIP3   OH228386   0.585   2.983   1.860 -0.5054 -0.4367  0.3087
 2276TIP3    H128387   0.531   2.916   1.902 -1.6570 -0.5552 -1.2686
 2276TIP3    H228388   0.541   3.066   1.878 -0.4843 -0.3869  0.1387
 2277TIP3   OH228389   2.365   0.139   0.955  0.8100  0.0429 -0.3982
 2277TIP3    H128390   2.458   0.152   0.937  0.8283 -1.3425 -1.4691
 2277TIP3    H228391   2.326   0.226   0.941  1.7248  0.3245 -1.3583
 2278TIP3   OH228392   1.939   3.490   1.740 -0.1811 -0.2545  0.5352
 2278TIP3    H128393   1.875   3.448   1.683 -1.0106 -1.9800  2.6036
 2278TIP3    H228394   1.887   3.544   1.800  0.5906  0.8106  0.2777
 2279TIP3   OH228395   5.740   0.059   7.249 -0.0470 -0.2949 -0.2085
 2279TIP3    H128396   5.707  -0.012   7.193 -0.3033 -0.4071  0.0792
 2279TIP3    H228397   5.687   0.052   7.329  1.5683 -1.3145  0.8235
 2280TIP3   OH228398   0.525   3.183   0.235 -0.2160 -0.0434 -0.0390
 2280TIP3    H128399   0.568   3.268   0.230  0.3247 -0.3384 -0.4814
 2280TIP3    H228400   0.484   3.172   0.149 -0.4518 -0.1482  0.0848
 2281TIP3   OH228401   6.046   4.455   2.453  0.7797  0.0381  0.1909
 2281TIP3    H128402   6.057   4.448   2.548 -1.6455 -1.0245  0.4870
 2281TIP3    H228403   6.016   4.369   2.426 -0.9492  0.9763 -1.1108
 2282TIP3   OH228404   1.176   4.270   8.520  0.0253  0.1391 -0.1727
 2282TIP3    H128405   1.213   4.358   8.518  0.7215 -0.1245  0.6759
 2282TIP3    H228406   1.082   4.284   8.530  0.1518  0.7809  0.1578
 2283TIP3   OH228407   1.012   0.325   0.860  0.4177 -0.0248  0.3633
 2283TIP3    H128408   0.964   0.282   0.930 -2.0988 -1.9563 -2.2815
 2283TIP3    H228409   1.055   0.254   0.813  0.0766  0.8576 -1.3804
 2284TIP3   OH228410   4.718   0.855   1.626  0.5244  0.6480  0.3177
 2284TIP3    H128411   4.811   0.870   1.610  0.2465  2.0556 -0.0935
 2284TIP3    H228412   4.701   0.767   1.591  1.7188  0.3027  0.5589
 2285TIP3   OH228413   3.023   1.285   7.400 -0.4491 -0.2796 -0.4831
 2285TIP3    H128414   3.032   1.361   7.457  0.2145 -0.3033 -0.5515
 2285TIP3    H228415   3.017   1.322   7.312 -0.2729 -0.2968 -0.5032
 2286TIP3   OH228416   2.046   4.623   6.937 -0.1985 -0.3103  0.0578
 2286TIP3    H128417   2.124   4.575   6.964  0.3460 -0.6805 -2.0155
 2286TIP3    H228418   2.075   4.714   6.927 -0.9642  0.3448  2.8597
 2287TIP3   OH228419   3.036   6.122   8.008  0.0897 -0.5576 -0.6721
 2287TIP3    H128420   3.042   6.135   8.102 -2.1233 -2.2151 -0.2198
 2287TIP3    H228421   2.989   6.199   7.975  1.0543  0.1253 -0.4974
 2288TIP3   OH228422   3.556   6.394   1.549  0.0080 -0.0827  0.4553
 2288TIP3    H128423   3.539   6.332   1.478 -0.9445 -1.3539  1.7203
 2288TIP3    H228424   3.504   6.360   1.622  0.7650  1.3126  1.6842
 2289TIP3   OH228425   5.526   4.159   1.035  0.0444  0.2458  0.0820
 2289TIP3    H128426   5.535   4.071   1.071 -0.4767 -0.2901 -1.0266
 2289TIP3    H228427   5.461   4.202   1.092  1.8885  0.7020  1.9472
 2290TIP3   OH228428   4.882   6.792   0.301 -0.2457  0.0231 -0.1421
 2290TIP3    H128429   4.955   6.765   0.356 -0.4983 -2.0798 -0.7611
 2290TIP3    H228430   4.807   6.796   0.361  0.0985  0.9557  0.2494
 2291TIP3   OH228431   6.162   4.391   7.873  0.2364  0.0609  0.1667
 2291TIP3    H128432   6.257   4.378   7.870  0.3970  0.5744  2.0226
 2291TIP3    H228433   6.126   4.304   7.854  1.0141  0.1178 -1.8040
 2292TIP3   OH228434   6.789   5.881   0.455 -0.4505  0.0967  0.0774
 2292TIP3    H128435   6.829   5.939   0.520  0.2598 -0.5790  0.2470
 2292TIP3    H228436   6.696   5.878   0.480 -0.7045  1.8534 -0.4593
 2293TIP3   OH228437   0.343   4.290   2.679  0.0143 -0.1866 -0.2986
 2293TIP3    H128438   0.268   4.337   2.642  0.7814  0.7800 -0.6601
 2293TIP3    H228439   0.322   4.280   2.771 -1.2171 -1.2284 -0.6565
 2294TIP3   OH228440   6.566   1.752   2.782 -0.3444  0.3337 -0.5931
 2294TIP3    H128441   6.531   1.664   2.796  1.2830 -0.1967  0.5221
 2294TIP3    H228442   6.505   1.793   2.721 -0.8357 -1.7648 -1.6216
 2295TIP3   OH228443   0.033   2.751   1.927 -0.0220  0.4232  0.4682
 2295TIP3    H128444   0.115   2.794   1.954  0.9442 -0.8046 -0.4274
 2295TIP3    H228445  -0.001   2.713   2.008  1.1081 -0.3552  0.6097
 2296TIP3   OH228446   2.468   5.360   1.262 -0.4687  0.0046 -0.1147
 2296TIP3    H128447   2.409   5.311   1.319 -0.1176 -0.6622 -0.3152
 2296TIP3    H228448   2.416   5.379   1.184 -0.9243  0.8496  0.3794
 2297TIP3   OH228449   0.450   5.966   1.769  0.8163 -0.7921 -0.7284
 2297TIP3    H128450   0.383   5.898   1.777  0.9899 -0.8888 -0.0581
 2297TIP3    H228451   0.401   6.047   1.761  0.5910 -0.6785  1.3298
 2298TIP3   OH228452   4.726   4.944   7.364 -0.3044  0.3186  0.0169
 2298TIP3    H128453   4.783   4.927   7.289 -0.0407 -0.3691  0.3558
 2298TIP3    H228454   4.782   4.928   7.440 -0.8421  0.0020  0.3557
 2299TIP3   OH228455   3.905   3.024   7.185 -0.1689  0.2700 -0.4005
 2299TIP3    H128456   3.809   3.031   7.184 -0.0196  4.2878 -1.1451
 2299TIP3    H228457   3.934   3.089   7.249  2.0892  0.7219 -1.7625
 2300TIP3   OH228458   2.350   2.379   1.600  0.0419  0.4312 -0.4975
 2300TIP3    H128459   2.410   2.316   1.641  0.3037  0.3547 -1.0017
 2300TIP3    H228460   2.391   2.401   1.517 -1.2616 -0.6160 -1.4439
 2301TIP3   OH228461   3.577   3.993   1.744 -0.0731  0.1512  0.5129
 2301TIP3    H128462   3.620   3.910   1.722  0.8962  0.5089  0.9888
 2301TIP3    H228463   3.486   3.970   1.761  0.1308 -0.7759  0.3755
 2302TIP3   OH228464   0.928   2.383   7.688 -0.2407 -0.8736  0.4864
 2302TIP3    H128465   0.932   2.355   7.596  0.8146 -1.7716  0.7923
 2302TIP3    H228466   0.915   2.478   7.683 -0.2183 -0.9145 -0.5998
 2303TIP3   OH228467   5.813   3.433   2.284 -0.4290 -0.2992  0.1447
 2303TIP3    H128468   5.728   3.468   2.309  0.2626 -0.6194  3.5260
 2303TIP3    H228469   5.861   3.508   2.249 -0.8072  0.9293  2.0836
 2304TIP3   OH228470   2.652   6.645   2.849 -0.2130  0.2795  0.0463
 2304TIP3    H128471   2.717   6.586   2.889  0.5014  1.9051  1.3948
 2304TIP3    H228472   2.598   6.673   2.922 -1.2923  0.3951 -0.7791
 2305TIP3   OH228473   1.592   5.513   8.191  0.2231  0.3903 -0.4477
 2305TIP3    H128474   1.651   5.552   8.126  0.9358  1.6582  0.8971
 2305TIP3    H228475   1.639   5.435   8.220  0.4987  0.5164 -0.5419
 2306TIP3   OH228476   6.718   3.950   1.902 -0.4299  0.5744  0.1846
 2306TIP3    H128477   6.763   3.872   1.868 -1.1996 -0.0845  0.6356
 2306TIP3    H228478   6.763   3.969   1.984  0.1067  0.9370 -0.1871
 2307TIP3   OH228479   6.482   4.622   1.734  0.3565 -0.3018  0.2493
 2307TIP3    H128480   6.505   4.582   1.818 -1.6086  0.5801  1.2830
 2307TIP3    H228481   6.413   4.567   1.699 -0.1256  0.3632  0.1348
 2308TIP3   OH228482   2.655   5.289   1.739 -0.4033  0.0356 -0.0537
 2308TIP3    H128483   2.621   5.368   1.782 -0.2158  0.3774 -0.5224
 2308TIP3    H228484   2.637   5.218   1.801 -0.1113  0.5234  0.6021
 2309TIP3   OH228485   1.555   1.456   1.069  0.0185 -0.2859 -0.0357
 2309TIP3    H128486   1.487   1.503   1.117  0.9560  1.8394 -0.6514
 2309TIP3    H228487   1.625   1.444   1.132  0.4156  0.6386 -0.2781
 2310TIP3   OH228488   1.281   2.667   0.563  0.1382 -0.4342  0.0931
 2310TIP3    H128489   1.237   2.587   0.535 -2.9372  1.2132 -0.3182
 2310TIP3    H228490   1.216   2.712   0.618  1.0974  2.4543 -0.9344
 2311TIP3   OH228491   1.665   0.564   0.095 -0.1173 -0.3085 -0.2464
 2311TIP3    H128492   1.721   0.488   0.108 -0.1718 -0.2322  0.4744
 2311TIP3    H228493   1.725   0.637   0.087 -0.0533 -0.4475 -1.1914
 2312TIP3   OH228494   4.029   6.562   7.100  0.1776  0.3091 -0.1929
 2312TIP3    H128495   3.955   6.521   7.145  0.3755  1.4430  1.2338
 2312TIP3    H228496   4.010   6.550   7.007 -1.2324 -0.4025  0.1598
 2313TIP3   OH228497   0.213   4.571   2.152  0.5813  0.0022  0.0564
 2313TIP3    H128498   0.282   4.590   2.215  0.6460  1.1896 -0.3521
 2313TIP3    H228499   0.132   4.576   2.204  0.5787  1.6331 -0.0447
 2314TIP3   OH228500   0.709   0.220   2.498  0.4546 -0.3199 -0.5964
 2314TIP3    H128501   0.643   0.251   2.560  0.4003 -1.5850  0.0062
 2314TIP3    H228502   0.673   0.240   2.412 -0.7165 -0.9768 -0.2697
 2315TIP3   OH228503   3.125   2.886   8.552 -0.3066 -0.0961  1.0399
 2315TIP3    H128504   3.094   2.977   8.547 -0.2638 -0.1263 -0.6362
 2315TIP3    H228505   3.145   2.872   8.644 -0.1221  1.6661  1.3093
 2316TIP3   OH228506   1.577   0.905   7.620 -0.1137  0.1520  0.3911
 2316TIP3    H128507   1.584   0.902   7.715 -2.2983  0.5495  0.6086
 2316TIP3    H228508   1.484   0.892   7.602  0.4482 -1.4746 -1.7846
 2317TIP3   OH228509   6.641   0.959   7.970 -0.2369  0.2953  0.3492
 2317TIP3    H128510   6.588   1.022   8.018 -1.0277  0.7816 -1.1024
 2317TIP3    H228511   6.578   0.899   7.931  0.2355  0.9351 -1.4892
 2318TIP3   OH228512   0.977   5.269   2.005 -0.5042 -0.0140  0.0663
 2318TIP3    H128513   0.958   5.348   2.057 -0.0185  0.4094 -0.3852
 2318TIP3    H228514   0.902   5.212   2.021 -1.8761  1.3498 -1.1493
 2319TIP3   OH228515   3.819   3.220   2.063 -0.0635 -0.1471 -0.0974
 2319TIP3    H128516   3.759   3.258   2.128  0.1522 -1.0267  0.6390
 2319TIP3    H228517   3.763   3.201   1.988 -0.5039 -0.0165  0.1920
 2320TIP3   OH228518   3.787   6.077   0.394 -0.1536 -0.1211  0.1847
 2320TIP3    H128519   3.775   6.067   0.489 -2.0875  1.2695  0.1448
 2320TIP3    H228520   3.874   6.041   0.377  0.1417 -0.6383  2.4415
 2321TIP3   OH228521   0.531   1.693   8.226  0.1158 -0.0707 -0.1449
 2321TIP3    H128522   0.552   1.750   8.152 -1.8841 -0.6224 -1.1984
 2321TIP3    H228523   0.515   1.607   8.187  1.4805 -1.0073  1.2427
 2322TIP3   OH228524   3.587   3.196   7.244 -0.0451  0.2864 -0.3053
 2322TIP3    H128525   3.628   3.237   7.320  0.0682 -2.1965  1.0744
 2322TIP3    H228526   3.504   3.161   7.277  0.8999 -2.5853 -0.7127
 2323TIP3   OH228527   1.017   3.372   8.325 -0.0242 -0.2367  0.3268
 2323TIP3    H128528   1.080   3.440   8.300 -1.4672  0.7102 -0.9199
 2323TIP3    H228529   1.061   3.290   8.307  1.3515  0.3725  0.7910
 2324TIP3   OH228530   4.214   1.900   7.513 -0.2052 -0.2386  0.6353
 2324TIP3    H128531   4.137   1.954   7.530  1.0199  2.2137 -1.0372
 2324TIP3    H228532   4.208   1.877   7.421  1.5202  0.8895  0.1899
 2325TIP3   OH228533   4.883   5.479   0.507 -0.1888  0.3626 -0.4210
 2325TIP3    H128534   4.921   5.405   0.461 -1.3084  0.9509 -2.4247
 2325TIP3    H228535   4.830   5.441   0.576 -1.8614 -0.8335 -2.2762
 2326TIP3   OH228536   2.416   5.257   7.557 -0.3825  0.3789  0.1333
 2326TIP3    H128537   2.483   5.199   7.594  0.6504  1.7548  0.5379
 2326TIP3    H228538   2.393   5.217   7.473  1.1249 -0.0362 -0.1209
 2327TIP3   OH228539   0.492   6.379   0.361  0.1631 -0.1853 -0.1459
 2327TIP3    H128540   0.475   6.452   0.421  1.4644  0.9801 -1.1379
 2327TIP3    H228541   0.538   6.418   0.287 -1.6696 -1.5034 -2.1172
 2328TIP3   OH228542   0.211   3.365   8.159  0.6599  0.2242 -0.1905
 2328TIP3    H128543   0.211   3.327   8.071 -0.8200  0.1482 -0.1804
 2328TIP3    H228544   0.143   3.433   8.156  0.2640 -0.0870  1.0042
 2329TIP3   OH228545   1.357   3.492   0.239 -0.0414 -0.0478 -0.0175
 2329TIP3    H128546   1.377   3.409   0.195  0.4267  1.0528 -2.0140
 2329TIP3    H228547   1.436   3.512   0.289  1.4378  0.9622 -2.5363
 2330TIP3   OH228548   2.600   2.902   0.481  0.1047  0.0108 -0.1354
 2330TIP3    H128549   2.612   2.814   0.446 -0.6120 -0.0258 -0.2882
 2330TIP3    H228550   2.689   2.932   0.499  0.3053 -1.1145  0.8471
 2331TIP3   OH228551   6.587   3.662   1.620  0.2858 -0.7619 -0.2746
 2331TIP3    H128552   6.537   3.581   1.616 -1.5130  0.2550  0.3505
 2331TIP3    H228553   6.570   3.706   1.537  1.8719 -1.3136 -0.9375
 2332TIP3   OH228554   5.264   4.571   8.377 -0.2404  0.5906  0.0607
 2332TIP3    H128555   5.212   4.571   8.296  0.9384  1.0548 -0.7120
 2332TIP3    H228556   5.302   4.483   8.380  0.6373  0.9348 -0.5171
 2333TIP3   OH228557   5.937   5.290   1.804 -0.5307  0.3662  0.3025
 2333TIP3    H128558   5.916   5.272   1.896  0.1053  0.0911  0.3966
 2333TIP3    H228559   6.026   5.325   1.806  0.0290 -0.9634 -0.3350
 2334TIP3   OH228560   4.908   2.266   0.664  0.0618 -0.8031  0.6502
 2334TIP3    H128561   4.985   2.258   0.607 -1.5906 -0.7259 -1.7520
 2334TIP3    H228562   4.922   2.347   0.712  0.6626  0.1833 -1.1147
 2335TIP3   OH228563   4.646   1.387   7.485 -0.5974 -0.3109  0.2286
 2335TIP3    H128564   4.636   1.479   7.461 -1.9872 -0.5096 -0.0283
 2335TIP3    H228565   4.718   1.356   7.431 -1.1160  0.2499 -0.8069
 2336TIP3   OH228566   2.390   2.791   1.296 -0.1122 -0.0152  0.5189
 2336TIP3    H128567   2.353   2.870   1.255  1.9159  1.0559  0.5921
 2336TIP3    H228568   2.391   2.726   1.226  1.5356  1.2029 -0.6912
 2337TIP3   OH228569   1.399   4.555   0.855  0.4264 -1.1297  0.1042
 2337TIP3    H128570   1.410   4.634   0.908  1.4427  0.0004 -1.6889
 2337TIP3    H228571   1.310   4.560   0.822  0.3252 -0.9965  0.3985
 2338TIP3   OH228572   1.387   6.792   1.586  0.0402 -0.4683  0.2055
 2338TIP3    H128573   1.467   6.740   1.584  0.5417  0.2674  0.6586
 2338TIP3    H228574   1.316   6.728   1.575  0.7023 -1.0643 -0.7669
 2339TIP3   OH228575   5.819   1.155   0.156 -0.3805  0.9287  0.0275
 2339TIP3    H128576   5.833   1.197   0.071 -1.4019  0.0268 -0.6313
 2339TIP3    H228577   5.842   1.063   0.140 -1.2076  0.6227  0.5247
 2340TIP3   OH228578   3.953   1.210   7.931  0.9076  0.2169  0.1352
 2340TIP3    H128579   3.949   1.139   7.866  0.6994 -0.0964  0.4838
 2340TIP3    H228580   3.930   1.289   7.883 -3.3894 -0.5114  0.5997
 2341TIP3   OH228581   0.765   3.431   0.624  0.5081  0.3182  0.2770
 2341TIP3    H128582   0.727   3.348   0.652 -1.4133  1.0225 -0.1393
 2341TIP3    H228583   0.808   3.466   0.703 -0.8602  0.1217  1.1354
 2342TIP3   OH228584   4.567   2.717   1.892 -0.1530  0.3428 -0.1399
 2342TIP3    H128585   4.567   2.658   1.967 -0.8407 -0.3979 -0.7075
 2342TIP3    H228586   4.496   2.779   1.911 -1.6914 -1.0439 -1.0574
 2343TIP3   OH228587   1.955   1.088   2.830 -0.8431  0.3404  0.0739
 2343TIP3    H128588   1.874   1.036   2.831 -0.6114 -0.0290 -0.0473
 2343TIP3    H228589   2.011   1.045   2.894 -0.8049  0.6988  0.2798
 2344TIP3   OH228590   2.921   6.618   6.731  0.2178  0.0664  0.0326
 2344TIP3    H128591   2.964   6.596   6.814  1.6344  0.3031 -0.6124
 2344TIP3    H228592   2.911   6.534   6.687 -1.2250 -0.1676  0.7084
 2345TIP3   OH228593   6.799   6.356   1.107  0.2390  0.0131  0.5546
 2345TIP3    H128594   6.843   6.322   1.185 -0.1770 -0.9071  0.4090
 2345TIP3    H228595   6.708   6.366   1.134  0.1148 -0.2074  0.2221
 2346TIP3   OH228596   6.276   5.696   0.906 -0.6181  0.0821 -0.1030
 2346TIP3    H128597   6.222   5.625   0.941  0.2495  0.3739  1.9458
 2346TIP3    H228598   6.365   5.662   0.909 -0.0694  1.5396  1.8523
 2347TIP3   OH228599   5.264   1.645   2.673 -0.2294 -1.0282  0.3835
 2347TIP3    H128600   5.275   1.563   2.722  1.0065 -0.9749  0.2220
 2347TIP3    H228601   5.188   1.687   2.714 -0.5108 -1.9741  0.8581
 2348TIP3   OH228602   0.237   0.649   2.744 -0.1660 -0.5648  0.4227
 2348TIP3    H128603   0.329   0.671   2.732 -0.6052  1.5353  0.4809
 2348TIP3    H228604   0.212   0.695   2.824 -1.6525  0.2703 -0.4716
 2349TIP3   OH228605   6.447   5.762   0.098  0.7129  0.2650 -0.9018
 2349TIP3    H128606   6.468   5.761   0.192 -0.7312 -1.2539 -0.5574
 2349TIP3    H228607   6.368   5.815   0.092  0.5215 -0.0561 -1.1975
 2350TIP3   OH228608   0.610   5.652   8.129  0.6037 -0.0875  0.3757
 2350TIP3    H128609   0.553   5.592   8.177  2.3951 -1.1206  1.2837
 2350TIP3    H228610   0.561   5.671   8.049 -1.3395 -0.3215  1.4416
 2351TIP3   OH228611   3.788   4.189   0.818  0.3589  0.0000 -0.7894
 2351TIP3    H128612   3.775   4.243   0.740 -0.1054  0.6536 -0.2822
 2351TIP3    H228613   3.754   4.103   0.794  0.1831  0.2067 -1.2950
 2352TIP3   OH228614   2.635   5.194   8.379  0.0476  0.4422  0.3425
 2352TIP3    H128615   2.648   5.101   8.394 -0.7632 -0.0483 -1.7626
 2352TIP3    H228616   2.702   5.218   8.316  0.1347  1.2651  0.7313
 2353TIP3   OH228617   1.529   4.861   2.884  0.0170  0.4783 -0.0747
 2353TIP3    H128618   1.573   4.775   2.886  0.5694  0.7625  0.2848
 2353TIP3    H228619   1.477   4.859   2.804  1.0111  0.2817 -0.7387
 2354TIP3   OH228620   4.607   2.684   7.568 -0.3604  0.3206  1.0123
 2354TIP3    H128621   4.672   2.614   7.566 -1.5043 -0.7652 -0.4111
 2354TIP3    H228622   4.635   2.745   7.500 -1.0391 -0.3996  0.0503
 2355TIP3   OH228623   3.890   6.166   0.906  0.1293  0.2261 -0.1357
 2355TIP3    H128624   3.879   6.129   0.818 -0.9393  1.8340 -0.7330
 2355TIP3    H228625   3.809   6.141   0.952  0.3595  0.0199  0.1599
 2356TIP3   OH228626   0.654   4.008   8.266 -0.0770 -0.5423  0.3026
 2356TIP3    H128627   0.567   4.034   8.297  0.8596 -1.3817  4.1885
 2356TIP3    H228628   0.652   3.913   8.266  0.4172 -0.5780 -1.1539
 2357TIP3   OH228629   4.210   0.605   0.589  0.2009  0.2236 -0.2228
 2357TIP3    H128630   4.181   0.526   0.544  1.4994 -0.5807  0.3189
 2357TIP3    H228631   4.213   0.672   0.520 -2.1241  0.1875 -0.4610
 2358TIP3   OH228632   4.936   1.669   1.299 -0.3296  0.5079 -0.1148
 2358TIP3    H128633   4.897   1.616   1.368 -1.3926  0.8375 -0.4501
 2358TIP3    H228634   4.975   1.606   1.239 -0.3865  0.1705  0.2037
 2359TIP3   OH228635   5.493   1.111   8.208 -0.0652  0.2218  0.1983
 2359TIP3    H128636   5.476   1.133   8.117 -0.5568  0.9789  0.4618
 2359TIP3    H228637   5.447   1.178   8.258  0.9778  0.3743  0.9932
 2360TIP3   OH228638   0.470   3.346   7.305 -0.0434  0.9439 -0.1236
 2360TIP3    H128639   0.513   3.392   7.377 -2.2674  0.4983  1.5877
 2360TIP3    H228640   0.462   3.412   7.235 -1.3400  2.6176  1.5124
 2361TIP3   OH228641   3.443   2.594   1.006  0.0381 -0.0337 -0.0116
 2361TIP3    H128642   3.435   2.662   1.073  0.1698  0.3248 -0.3594
 2361TIP3    H228643   3.353   2.573   0.982 -0.0030  1.3609 -1.2510
 2362TIP3   OH228644   5.902   3.114   1.444 -0.2240 -0.3201  0.0769
 2362TIP3    H128645   5.840   3.174   1.404 -0.0696  0.1522  0.5373
 2362TIP3    H228646   5.932   3.059   1.372  0.1198  0.5781 -0.4833
 2363TIP3   OH228647   5.433   0.457   0.176  0.0697 -0.0941  0.3080
 2363TIP3    H128648   5.348   0.493   0.201  0.0217 -1.0434  1.5837
 2363TIP3    H228649   5.413   0.376   0.129  0.1107  1.9986 -3.8438
 2364TIP3   OH228650   5.872   1.227   1.269  0.0116 -0.1243  0.1230
 2364TIP3    H128651   5.817   1.150   1.253  0.3685 -0.3295 -0.1128
 2364TIP3    H228652   5.848   1.288   1.199  0.1491 -0.2511 -0.0362
 2365TIP3   OH228653   6.037   0.606   1.786  0.0696 -0.0868 -0.2028
 2365TIP3    H128654   6.002   0.645   1.706  2.3022  0.3983 -1.0022
 2365TIP3    H228655   5.977   0.634   1.854  0.2903  2.8516 -1.0993
 2366TIP3   OH228656   1.795   1.753   7.954  0.0964  0.1173  0.6776
 2366TIP3    H128657   1.701   1.766   7.942 -0.0316 -0.7036  0.7746
 2366TIP3    H228658   1.836   1.810   7.889 -0.4486  0.9443  1.0417
 2367TIP3   OH228659   0.236   4.333   7.490 -0.4143 -0.2070 -0.0825
 2367TIP3    H128660   0.254   4.345   7.396 -0.7176  1.1458  0.0129
 2367TIP3    H228661   0.182   4.408   7.514 -0.5928 -0.6982  1.1196
 2368TIP3   OH228662   5.702   2.348   7.898 -0.0252  0.2699  0.1521
 2368TIP3    H128663   5.770   2.284   7.919 -1.3963 -1.8315 -1.3899
 2368TIP3    H228664   5.663   2.371   7.983  0.3343 -1.1724  0.7299
 2369TIP3   OH228665   3.002   0.079   1.877  0.1465  0.7558  0.5459
 2369TIP3    H128666   2.939   0.132   1.926  0.2784 -0.8862  2.6359
 2369TIP3    H228667   2.948   0.014   1.832  0.2398  0.3463  1.0273
 2370TIP3   OH228668   0.413   3.542   8.262 -0.1556  0.1913 -0.2937
 2370TIP3    H128669   0.447   3.479   8.326 -0.4381 -0.8223 -1.1154
 2370TIP3    H228670   0.353   3.491   8.207 -1.1747  1.4075 -0.3604
 2371TIP3   OH228671   3.411   3.659   7.742 -0.4807  0.3040 -0.1140
 2371TIP3    H128672   3.496   3.650   7.698 -0.8027  0.0388 -0.6999
 2371TIP3    H228673   3.393   3.753   7.740  0.1619  0.4593  0.7307
 2372TIP3   OH228674   1.835   0.138   0.255 -0.0252 -0.1801 -0.2009
 2372TIP3    H128675   1.866   0.186   0.178  0.1691 -1.8661 -1.2332
 2372TIP3    H228676   1.778   0.200   0.300  2.6217  2.0824  0.2858
 2373TIP3   OH228677   1.537   0.748   3.004 -0.1261 -0.2680 -0.3966
 2373TIP3    H128678   1.522   0.834   2.966  0.1275  0.2249  0.6126
 2373TIP3    H228679   1.472   0.741   3.074  0.5799 -0.4536  0.2433
 2374TIP3   OH228680   0.617   1.144   8.114  0.1737 -0.7030 -0.9630
 2374TIP3    H128681   0.583   1.057   8.136  0.0258 -1.0816 -2.5468
 2374TIP3    H228682   0.541   1.191   8.079  0.4421 -0.2423 -0.9337
 2375TIP3   OH228683   0.552   3.024   1.342 -0.0570  0.8017  0.7515
 2375TIP3    H128684   0.634   3.006   1.295 -0.7736  0.0499 -0.2494
 2375TIP3    H228685   0.558   2.971   1.421 -0.0262 -0.1235  0.1530
 2376TIP3   OH228686   4.915   6.500   0.970  0.3094  0.0975 -0.1848
 2376TIP3    H128687   4.842   6.485   1.031  0.4875  0.1191  0.0366
 2376TIP3    H228688   4.943   6.412   0.945  0.4595  0.0810  0.0364
 2377TIP3   OH228689   6.418   2.165   1.305 -0.1195 -0.3036  0.6284
 2377TIP3    H128690   6.329   2.132   1.318 -0.6266  0.3809 -0.8602
 2377TIP3    H228691   6.408   2.260   1.300  0.6364 -0.2484  0.0331
 2378TIP3   OH228692   2.086   2.690   6.970 -0.1806 -0.2665 -0.4628
 2378TIP3    H128693   2.129   2.620   6.921 -0.6475 -0.9467  0.0942
 2378TIP3    H228694   2.073   2.654   7.058  2.6966  1.6555  0.9502
 2379TIP3   OH228695   5.017   2.012   7.578 -0.1614  0.3123  0.1786
 2379TIP3    H128696   5.015   1.987   7.486  0.5327  0.0055  0.2344
 2379TIP3    H228697   4.928   2.040   7.598 -0.6931 -1.0249 -0.2059
 2380TIP3   OH228698   0.828   6.219   7.357 -0.4133  0.3017  0.4069
 2380TIP3    H128699   0.773   6.170   7.296  1.7879 -1.1182 -0.5713
 2380TIP3    H228700   0.860   6.294   7.307  0.0025  0.1042  0.3739
 2381TIP3   OH228701   3.282   6.748   0.097  0.2623  0.1720  0.0328
 2381TIP3    H128702   3.269   6.741   0.191 -0.6916 -1.0817 -0.1656
 2381TIP3    H228703   3.346   6.679   0.076  2.0193  1.7247  0.0012
 2382TIP3   OH228704   5.585   4.598   1.483  0.0321 -0.1316  0.8095
 2382TIP3    H128705   5.529   4.615   1.559  0.5726 -1.2917  1.4930
 2382TIP3    H228706   5.653   4.540   1.516  3.1563  3.0604  0.6442
 2383TIP3   OH228707   2.801   6.348   0.430  0.4818 -0.0549 -0.5387
 2383TIP3    H128708   2.782   6.360   0.523 -0.6827 -0.3741 -0.7225
 2383TIP3    H228709   2.752   6.270   0.405 -1.4082  1.4773 -1.9949
 2384TIP3   OH228710   1.911   0.534   7.054 -0.3479 -0.0128 -0.2120
 2384TIP3    H128711   1.831   0.482   7.059 -1.4568  1.5800 -0.3718
 2384TIP3    H228712   1.931   0.538   6.960 -0.1585 -0.3149 -0.1829
 2385TIP3   OH228713   1.566   2.498   2.856  0.1648  0.5433 -0.2122
 2385TIP3    H128714   1.588   2.409   2.829 -0.2089  1.0224 -2.2654
 2385TIP3    H228715   1.646   2.548   2.840  0.5304  0.5110  1.4062
 2386TIP3   OH228716   0.225   0.082   8.064  0.3026 -0.4077  0.4597
 2386TIP3    H128717   0.147   0.127   8.032 -0.9486 -1.0876  2.4009
 2386TIP3    H228718   0.281   0.152   8.098 -0.1483 -0.0342  0.4380
 2387TIP3   OH228719   2.912   3.416   0.924  0.1680  0.2069  0.6255
 2387TIP3    H128720   2.839   3.375   0.970  0.6310 -1.0766  0.2362
 2387TIP3    H228721   2.975   3.437   0.993  0.5750 -1.1085  0.6724
 2388TIP3   OH228722   2.812   4.188   8.209  0.2745 -0.0541 -0.3825
 2388TIP3    H128723   2.871   4.174   8.135  1.1487 -0.1705  0.3351
 2388TIP3    H228724   2.860   4.159   8.286 -1.1942 -1.4211  0.0839
 2389TIP3   OH228725   6.350   0.044   6.995 -0.0086  0.1765 -0.4836
 2389TIP3    H128726   6.396  -0.040   6.990 -0.9179 -0.3901  0.3286
 2389TIP3    H228727   6.329   0.065   6.904 -0.9773 -1.1850 -0.6140
 2390TIP3   OH228728   5.717   1.315   0.733  0.2197  0.2596  0.3744
 2390TIP3    H128729   5.635   1.360   0.713 -1.3439 -2.3040  0.5452
 2390TIP3    H228730   5.723   1.318   0.828 -0.5067 -0.8358  0.4707
 2391TIP3   OH228731   3.035   3.358   1.444  0.0852  0.2134  0.5604
 2391TIP3    H128732   2.972   3.339   1.513  0.4571  0.7168  1.0398
 2391TIP3    H228733   3.005   3.441   1.407 -0.4664 -0.3505 -0.3002
 2392TIP3   OH228734   3.344   3.579   1.813 -0.7285 -0.2775 -0.6446
 2392TIP3    H128735   3.255   3.561   1.841 -0.5605 -0.6789 -0.3510
 2392TIP3    H228736   3.398   3.557   1.889 -0.5713  2.6707  0.2189
 2393TIP3   OH228737   1.662   1.156   0.955 -0.5207 -0.4952 -0.3605
 2393TIP3    H128738   1.730   1.133   1.018  0.6329  0.6971 -1.1276
 2393TIP3    H228739   1.623   1.072   0.931  0.6904 -1.2178  0.1001
 2394TIP3   OH228740   2.442   6.365   7.744  0.3748  0.0545 -0.0022
 2394TIP3    H128741   2.386   6.292   7.771 -1.4702  1.7668  1.0977
 2394TIP3    H228742   2.403   6.395   7.662 -1.5016  2.2225  1.5147
 2395TIP3   OH228743   4.353   5.989   1.665 -0.4161 -0.2984  0.3952
 2395TIP3    H128744   4.268   5.957   1.694 -0.1651 -0.2258  1.2286
 2395TIP3    H228745   4.345   6.085   1.666 -0.1046 -0.2689  1.1987
 2396TIP3   OH228746   5.999   5.334   1.177  0.0209  0.7691  0.0503
 2396TIP3    H128747   6.066   5.391   1.140 -0.1585  1.2054  0.3955
 2396TIP3    H228748   6.048   5.261   1.214  0.2022  0.2367 -1.1619
 2397TIP3   OH228749   1.023   3.935   7.730  0.3305 -0.0002 -0.3434
 2397TIP3    H128750   0.975   4.018   7.722  3.4600  1.9410 -0.7158
 2397TIP3    H228751   1.036   3.924   7.825 -1.4283 -0.9927 -0.1724
 2398TIP3   OH228752   3.013   4.261   2.141 -0.4640  0.7471 -0.0673
 2398TIP3    H128753   3.044   4.330   2.082  0.3271  0.8279  0.4333
 2398TIP3    H228754   3.092   4.224   2.179 -0.8647 -0.6678 -0.5581
 2399TIP3   OH228755   5.948   0.497   1.090  0.1194 -0.1536  0.1512
 2399TIP3    H128756   5.852   0.499   1.095  0.1267 -0.6636  0.5566
 2399TIP3    H228757   5.975   0.453   1.171  0.6941 -0.0544  0.0137
 2400TIP3   OH228758   4.879   3.662   0.073 -0.3800  0.2397 -0.2723
 2400TIP3    H128759   4.838   3.625  -0.005  2.4575 -0.6492 -1.4332
 2400TIP3    H228760   4.919   3.743   0.043  2.6415 -1.1846 -0.3958
 2401TIP3   OH228761   4.713   3.290   2.151 -0.5497  0.2445 -0.3906
 2401TIP3    H128762   4.763   3.349   2.208  0.7473 -0.7530 -0.4582
 2401TIP3    H228763   4.659   3.239   2.212  1.1847 -1.1551  0.0661
 2402TIP3   OH228764   2.797   3.500   2.724  0.0036  0.3614 -0.3779
 2402TIP3    H128765   2.835   3.415   2.748 -0.1498 -0.0601 -1.5239
 2402TIP3    H228766   2.835   3.562   2.786  0.1184 -0.5437  0.4895
 2403TIP3   OH228767   6.858   5.226   0.541 -0.1410 -0.0304  0.6867
 2403TIP3    H128768   6.918   5.268   0.479  0.1577 -2.4614 -0.8263
 2403TIP3    H228769   6.771   5.250   0.511  0.0309  0.2653  0.4240
 2404TIP3   OH228770   1.020   0.718   2.650 -1.1295 -0.1522  0.4510
 2404TIP3    H128771   0.957   0.651   2.623 -1.7374  0.6415 -0.1757
 2404TIP3    H228772   0.965   0.792   2.678 -0.4776  0.2174  0.7561
 2405TIP3   OH228773   5.582   3.972   0.019  0.0169  0.1523  0.0720
 2405TIP3    H128774   5.540   4.058   0.012 -1.1023 -0.4180 -0.5715
 2405TIP3    H228775   5.541   3.932   0.096  0.2201  0.0334  0.1173
 2406TIP3   OH228776   6.448   3.637   7.604 -0.5148  0.3327 -0.1348
 2406TIP3    H128777   6.385   3.650   7.674 -1.5859 -0.1538 -0.9775
 2406TIP3    H228778   6.444   3.718   7.553 -0.7777  0.1377 -0.4276
 2407TIP3   OH228779   3.765   5.362   1.517 -0.5096 -0.0643 -0.9319
 2407TIP3    H128780   3.702   5.433   1.501 -0.0961  0.1913 -1.4572
 2407TIP3    H228781   3.746   5.333   1.606 -1.6009 -0.2222 -1.2072
 2408TIP3   OH228782   2.942   5.024   0.454  0.5584 -1.0510  0.6533
 2408TIP3    H128783   2.897   4.947   0.417  2.0009 -0.3400 -2.9954
 2408TIP3    H228784   2.871   5.076   0.493 -0.9902 -2.5163 -0.0438
 2409TIP3   OH228785   4.776   3.328   8.365  0.1826  0.2713  0.0226
 2409TIP3    H128786   4.716   3.269   8.318  0.0742 -0.7268  1.3787
 2409TIP3    H228787   4.842   3.351   8.299  0.9032 -2.3145 -0.2664
 2410TIP3   OH228788   1.831   1.505   7.668  0.6319 -0.3452 -0.4627
 2410TIP3    H128789   1.737   1.523   7.671  0.9572  1.6424 -0.6749
 2410TIP3    H228790   1.837   1.414   7.640 -1.2436 -1.0275  1.1579
 2411TIP3   OH228791   2.360   5.398   1.919 -0.5576  0.0527  0.1468
 2411TIP3    H128792   2.423   5.333   1.950  0.9077  0.2152 -2.2623
 2411TIP3    H228793   2.281   5.348   1.898 -0.3252 -0.5510  0.7013
 2412TIP3   OH228794   4.845   3.594   0.757 -0.1800 -0.0480 -0.4467
 2412TIP3    H128795   4.862   3.529   0.825 -0.0293 -0.7391 -1.1361
 2412TIP3    H228796   4.763   3.636   0.784 -0.2937 -0.5384 -0.0114
 2413TIP3   OH228797   1.562   1.804   3.139 -0.4682  0.3474  0.0604
 2413TIP3    H128798   1.500   1.843   3.201  1.0257  0.6702  1.4232
 2413TIP3    H228799   1.589   1.876   3.083  0.4797  0.7682  1.0335
 2414TIP3   OH228800   5.571   5.786   6.712 -0.0532 -0.1286 -0.1619
 2414TIP3    H128801   5.627   5.843   6.660  0.5162  0.1622  0.7352
 2414TIP3    H228802   5.511   5.746   6.649 -0.8928  1.9383 -0.7339
 2415TIP3   OH228803   4.749   6.842   7.810  0.0849 -0.3818  0.3844
 2415TIP3    H128804   4.681   6.817   7.747 -0.6885  0.1833  0.9686
 2415TIP3    H228805   4.824   6.867   7.756 -1.0659  1.5816 -0.4154
 2416TIP3   OH228806   5.267   5.994   7.440 -0.2446  0.0600 -0.0120
 2416TIP3    H128807   5.304   6.060   7.381  0.1875  0.4440  0.6775
 2416TIP3    H228808   5.255   5.917   7.385  0.1285  0.4222 -0.6131
 2417TIP3   OH228809   2.893   0.068   0.929  0.1249  0.5435 -0.0120
 2417TIP3    H128810   2.983   0.048   0.906 -0.1656 -1.8344  0.6468
 2417TIP3    H228811   2.875   0.012   1.005 -2.6313 -0.9547 -1.6077
 2418TIP3   OH228812   3.410   1.383   7.972  0.5714  0.0895 -0.1138
 2418TIP3    H128813   3.493   1.373   8.019 -0.6775  0.6040  2.3583
 2418TIP3    H228814   3.402   1.303   7.919  1.6460 -0.9552  1.2440
 2419TIP3   OH228815   0.949   2.549   1.175 -0.2660 -0.8328  0.0906
 2419TIP3    H128816   0.994   2.532   1.258  2.8162  1.0826 -0.9981
 2419TIP3    H228817   0.920   2.640   1.181 -0.2825 -0.7691 -0.8173
 2420TIP3   OH228818   5.771   5.841   1.609 -0.1986 -0.5129  0.0111
 2420TIP3    H128819   5.774   5.812   1.518 -0.3493 -0.2347 -0.0859
 2420TIP3    H228820   5.852   5.809   1.647  0.7606  0.9568 -0.7065
 2421TIP3   OH228821   3.176   6.550   1.008  0.0908 -0.1580 -0.0862
 2421TIP3    H128822   3.191   6.504   1.091 -2.7176  0.9906  1.1577
 2421TIP3    H228823   3.241   6.621   1.008  1.3381 -1.2563  0.1859
 2422TIP3   OH228824   5.236   5.318   6.997 -0.4292 -0.1984 -0.2116
 2422TIP3    H128825   5.321   5.305   7.040 -0.0314 -0.7990 -1.1219
 2422TIP3    H228826   5.194   5.232   7.002 -0.3493 -0.2939 -1.0569
 2423TIP3   OH228827   6.583   3.063   1.774 -0.3741  0.1509 -0.3075
 2423TIP3    H128828   6.575   3.032   1.864 -1.4312 -2.2577 -1.1516
 2423TIP3    H228829   6.493   3.081   1.747 -0.0231  1.2993 -0.7551
 2424TIP3   OH228830   5.588   5.733   1.134  0.1969  0.3638 -0.2101
 2424TIP3    H128831   5.606   5.699   1.046  1.2559  1.0565 -0.2797
 2424TIP3    H228832   5.570   5.655   1.186 -2.0814  0.0382 -1.3649
 2425TIP3   OH228833   0.482   0.350   0.052  0.5774 -0.5851  0.7170
 2425TIP3    H128834   0.393   0.316   0.044 -0.5142  2.0198  0.8599
 2425TIP3    H228835   0.534   0.296  -0.008 -1.3068 -1.4789 -0.1702
 2426TIP3   OH228836   1.484   3.368   1.415 -0.3365 -0.3958 -0.3277
 2426TIP3    H128837   1.558   3.397   1.361 -0.7762 -0.5565 -1.0248
 2426TIP3    H228838   1.410   3.367   1.355 -0.9919  0.1234  0.4505
 2427TIP3   OH228839   5.890   1.149   1.553 -0.2912  0.2620  0.3249
 2427TIP3    H128840   5.796   1.131   1.562 -0.3345  0.5737  0.4954
 2427TIP3    H228841   5.900   1.174   1.461 -0.3187 -0.1036  0.2216
 2428TIP3   OH228842   4.143   1.382   7.815  0.0796 -0.5972 -0.2858
 2428TIP3    H128843   4.175   1.471   7.797 -1.4720  0.2250  0.8226
 2428TIP3    H228844   4.191   1.355   7.893 -0.2465 -0.2890  0.0231
 2429TIP3   OH228845   5.626   1.498   0.224 -0.1708 -0.0676 -0.1424
 2429TIP3    H128846   5.572   1.467   0.297 -2.4814 -1.6293 -2.3287
 2429TIP3    H228847   5.607   1.591   0.218 -0.0178  0.0626  1.1607
 2430TIP3   OH228848   0.088   5.057   7.100  0.0999  0.2623  0.3427
 2430TIP3    H128849   0.112   4.971   7.137 -0.6577  1.1319  3.1032
 2430TIP3    H228850  -0.006   5.050   7.083  0.4089 -0.0695 -1.4492
 2431TIP3   OH228851   1.011   6.487   8.587 -0.1481 -0.2558 -0.2954
 2431TIP3    H128852   1.062   6.508   8.508  2.9489 -0.9594  1.3521
 2431TIP3    H228853   1.010   6.391   8.589 -3.6169 -0.3846 -1.3839
 2432TIP3   OH228854   4.493   3.905   0.940  0.5850 -0.6013  0.6442
 2432TIP3    H128855   4.444   3.864   0.869  2.2770 -0.5543 -0.5918
 2432TIP3    H228856   4.513   3.833   1.000 -2.0667 -0.4188  1.9117
 2433TIP3   OH228857   2.644   1.875   1.135  0.4732  0.7000  0.1044
 2433TIP3    H128858   2.738   1.895   1.138  0.3856  1.3289 -0.9108
 2433TIP3    H228859   2.635   1.820   1.057 -0.1434  1.4194 -0.3317
 2434TIP3   OH228860   5.897   4.214   2.170  0.0273  0.3910 -0.1515
 2434TIP3    H128861   5.948   4.134   2.163 -0.4822  0.0932 -0.5444
 2434TIP3    H228862   5.892   4.232   2.264  0.4564  0.1699 -0.0865
 2435TIP3   OH228863   6.716   4.586   0.051  0.2475  0.5099  0.0931
 2435TIP3    H128864   6.624   4.589   0.025  0.5384  0.4729 -0.9559
 2435TIP3    H228865   6.719   4.637   0.133 -0.7559  0.2215  0.3258
 2436TIP3   OH228866   0.169   4.733   3.018  0.4079  0.0922 -0.0288
 2436TIP3    H128867   0.264   4.736   3.022  0.4656 -1.5837  1.5034
 2436TIP3    H228868   0.140   4.812   3.064  0.9701  1.6673 -2.2218
 2437TIP3   OH228869   3.413   2.151   6.662  0.5278  0.3161  0.1271
 2437TIP3    H128870   3.433   2.066   6.623  0.7200  0.8647 -1.0016
 2437TIP3    H228871   3.497   2.198   6.660  0.7601  0.0670  2.0217
 2438TIP3   OH228872   6.645   3.298   2.030 -0.1183 -0.1751 -0.2021
 2438TIP3    H128873   6.726   3.319   1.985 -0.1840  1.2677  0.2846
 2438TIP3    H228874   6.667   3.225   2.088  0.2907 -1.1680 -1.5425
 2439TIP3   OH228875   0.449   3.908   2.444  0.2280 -0.4743 -0.0742
 2439TIP3    H128876   0.394   3.836   2.415 -0.2124  0.1604 -0.8594
 2439TIP3    H228877   0.513   3.867   2.503 -0.5373 -1.3533  0.1699
 2440TIP3   OH228878   0.693   3.258   2.887  0.5841 -0.1134  0.0791
 2440TIP3    H128879   0.640   3.286   2.813 -0.1957  1.1018  1.0455
 2440TIP3    H228880   0.761   3.324   2.895  0.0538  0.3483  1.0418
 2441TIP3   OH228881   0.882   5.464   2.604 -0.4269  0.1299 -0.1538
 2441TIP3    H128882   0.869   5.524   2.531  0.2027  1.5648  0.8765
 2441TIP3    H228883   0.795   5.429   2.623 -0.7350  0.4179 -1.0017
 2442TIP3   OH228884   0.716   4.982   2.155 -0.3042  0.0740 -0.5673
 2442TIP3    H128885   0.723   5.012   2.064  2.9172  1.3066 -0.0815
 2442TIP3    H228886   0.738   5.060   2.207 -1.6941 -0.6965  1.2801
 2443TIP3   OH228887   0.626   5.464   0.318 -0.1483  0.4901  0.5660
 2443TIP3    H128888   0.618   5.369   0.306  1.0757  0.5445 -1.0527
 2443TIP3    H228889   0.670   5.474   0.402 -1.9491 -0.2773  1.6612
 2444TIP3   OH228890   6.524   0.874   0.445  0.4033 -0.0261  0.4229
 2444TIP3    H128891   6.435   0.855   0.474  0.6057 -1.5447  0.1534
 2444TIP3    H228892   6.564   0.923   0.517  0.7703 -3.2954  2.6897
 2445TIP3   OH228893   1.839   2.407   1.058 -0.2992 -0.2508 -0.3357
 2445TIP3    H128894   1.820   2.380   1.148 -0.2787 -0.1640 -0.3055
 2445TIP3    H228895   1.788   2.347   1.004  0.2470 -0.7630 -0.2854
 2446TIP3   OH228896   2.778   1.463   0.717 -0.2200 -0.2100 -0.1470
 2446TIP3    H128897   2.836   1.406   0.769 -1.7748 -1.2020  0.5995
 2446TIP3    H228898   2.776   1.545   0.765 -2.0122 -1.2676  1.7622
 2447TIP3   OH228899   6.761   3.020   2.157 -0.3158  0.6987 -0.4043
 2447TIP3    H128900   6.831   3.008   2.221 -1.5222 -0.7812  0.7252
 2447TIP3    H228901   6.805   3.052   2.078  1.6887 -0.6196  0.1114
 2448TIP3   OH228902   4.704   2.322   2.922 -0.3245 -0.2355 -0.4664
 2448TIP3    H128903   4.740   2.410   2.913  0.8043 -0.4686  1.2290
 2448TIP3    H228904   4.617   2.327   2.882 -0.6195  1.8746  0.3189
 2449TIP3   OH228905   1.419   6.559   1.040 -0.2727  0.2745  0.1356
 2449TIP3    H128906   1.410   6.481   0.985  1.5294 -0.1842  0.4193
 2449TIP3    H228907   1.340   6.560   1.094 -1.9740  0.5885 -2.1965
 2450TIP3   OH228908   5.386   5.597   6.649 -0.1904 -0.4978 -0.2390
 2450TIP3    H128909   5.295   5.618   6.666  0.4162  1.5099  0.8562
 2450TIP3    H228910   5.423   5.578   6.735  0.2025 -2.4393 -0.7876
 2451TIP3   OH228911   5.120   6.278   2.331  0.3354  0.2046  0.6698
 2451TIP3    H128912   5.085   6.325   2.407  2.0192 -1.0845  2.3503
 2451TIP3    H228913   5.213   6.303   2.329  0.3387  0.1546 -0.9697
 2452TIP3   OH228914   5.174   2.324   2.044 -0.5459  0.1411  0.5772
 2452TIP3    H128915   5.112   2.397   2.031 -0.9087 -0.4366 -1.4027
 2452TIP3    H228916   5.121   2.245   2.030  0.7306 -0.3540 -2.1242
 2453TIP3   OH228917   6.693   5.008   7.694  0.0184 -0.2163 -0.1635
 2453TIP3    H128918   6.757   5.051   7.636  0.4726  0.9246  1.1416
 2453TIP3    H228919   6.609   5.045   7.667  0.2923  0.7454  0.2666
 2454TIP3   OH228920   0.848   5.675   2.439 -0.0346  0.5330  0.6956
 2454TIP3    H128921   0.753   5.671   2.430  0.0409 -1.5659  0.1181
 2454TIP3    H228922   0.870   5.767   2.428 -1.7811  0.7596 -1.5989
 2455TIP3   OH228923   1.571   4.774   1.283 -0.4582 -0.3185  0.0684
 2455TIP3    H128924   1.545   4.848   1.338  0.2447  0.0338 -0.0618
 2455TIP3    H228925   1.636   4.811   1.223  0.3647 -1.1820  0.4033
 2456TIP3   OH228926   1.752   5.714   0.310 -0.2491  1.1154  0.8225
 2456TIP3    H128927   1.843   5.740   0.294  0.2990 -0.5101  1.1265
 2456TIP3    H228928   1.712   5.713   0.223  0.8173 -0.8297  0.2779
 2457TIP3   OH228929   2.628   6.209   1.507  0.1093 -0.0656  0.1714
 2457TIP3    H128930   2.553   6.237   1.454  1.3599  0.3479 -1.4404
 2457TIP3    H228931   2.606   6.239   1.596 -0.6686  2.0339 -0.6464
 2458TIP3   OH228932   4.498   3.073   1.936  0.0264  0.2468  0.0945
 2458TIP3    H128933   4.457   3.001   1.984 -0.7302 -1.4634 -2.8873
 2458TIP3    H228934   4.435   3.145   1.944 -1.5760 -0.9831 -0.8144
 2459TIP3   OH228935   0.789   0.513   1.670  0.0396 -0.2715  0.5908
 2459TIP3    H128936   0.768   0.570   1.596  1.5727 -0.1013  0.2630
 2459TIP3    H228937   0.707   0.506   1.718 -0.9813 -0.3303 -1.0817
 2460TIP3   OH228938   6.538   3.760   7.919  0.1657 -0.3199 -0.4561
 2460TIP3    H128939   6.586   3.840   7.939 -1.5925  0.4671  0.9044
 2460TIP3    H228940   6.531   3.715   8.003 -2.4549  0.2087 -0.2966
 2461TIP3   OH228941   3.202   3.340   1.992  0.1333  0.0502  0.1010
 2461TIP3    H128942   3.243   3.282   1.929 -0.4699  0.6306 -0.8604
 2461TIP3    H228943   3.267   3.352   2.061  1.8648  1.4782 -1.6820
 2462TIP3   OH228944   1.390   0.048   1.833 -0.3949 -0.0769  0.3592
 2462TIP3    H128945   1.383  -0.028   1.891 -0.1639 -1.1142 -0.9106
 2462TIP3    H228946   1.357   0.017   1.748  1.1122  0.7616 -0.5912
 2463TIP3   OH228947   6.786   2.535   8.527  0.0436 -0.2796 -0.0129
 2463TIP3    H128948   6.838   2.472   8.577  0.1020 -1.5138 -1.5403
 2463TIP3    H228949   6.844   2.610   8.515  0.2516 -0.2282  1.1741
 2464TIP3   OH228950   4.167   5.072   7.301  0.0002  0.1964 -0.2658
 2464TIP3    H128951   4.119   5.022   7.235  1.1395  1.1681 -1.9048
 2464TIP3    H228952   4.256   5.079   7.265  0.7043  0.5951  1.4780
 2465TIP3   OH228953   3.908   6.295   0.297  0.5913 -0.3430  0.5580
 2465TIP3    H128954   3.901   6.293   0.201 -1.2319  1.2316  0.6061
 2465TIP3    H228955   3.848   6.227   0.327  1.3266 -0.9871  0.6121
 2466TIP3   OH228956   5.672   6.668   7.449 -0.5199  0.1143 -0.1749
 2466TIP3    H128957   5.694   6.749   7.495 -1.5795  0.1351  0.3234
 2466TIP3    H228958   5.591   6.638   7.491 -0.3738 -0.9760 -0.6372
 2467TIP3   OH228959   4.184   1.702   2.282 -0.1926 -0.1544 -0.2891
 2467TIP3    H128960   4.153   1.781   2.237 -1.6907  0.0967  1.1062
 2467TIP3    H228961   4.158   1.714   2.373  1.3119 -1.3883  0.3610
 2468TIP3   OH228962   5.042   0.119   7.966  0.4227 -0.0458 -0.8242
 2468TIP3    H128963   4.954   0.119   8.004  1.1919 -0.2667  1.1153
 2468TIP3    H228964   5.040   0.189   7.901 -1.1372  0.0620 -0.6999
 2469TIP3   OH228965   0.687   0.516   1.049  0.1894 -0.6224  0.4808
 2469TIP3    H128966   0.652   0.452   1.110  0.5249 -1.5419 -0.2639
 2469TIP3    H228967   0.772   0.541   1.086 -0.2613 -0.0475  1.1463
 2470TIP3   OH228968   5.295   1.280   7.683 -0.0731  0.1885  0.0806
 2470TIP3    H128969   5.340   1.363   7.667 -1.2275  0.6762 -0.7249
 2470TIP3    H228970   5.285   1.241   7.596 -0.1886 -0.4607  0.3766
 2471TIP3   OH228971   1.720   5.725   8.467 -0.5215  0.5713 -0.2697
 2471TIP3    H128972   1.678   5.777   8.398  0.8349  1.4291 -0.4844
 2471TIP3    H228973   1.813   5.742   8.456 -0.1414 -0.8373  0.5601
 2472TIP3   OH228974   4.251   2.580   1.917  0.2281 -0.0419 -0.0345
 2472TIP3    H128975   4.220   2.655   1.967 -0.3189  0.1126 -0.5880
 2472TIP3    H228976   4.322   2.543   1.969  0.5556  0.9107  0.2104
 2473TIP3   OH228977   4.180   0.658   6.786 -0.0391 -0.1522 -0.1463
 2473TIP3    H128978   4.209   0.604   6.713 -0.4494 -0.0744 -0.3673
 2473TIP3    H228979   4.089   0.633   6.800 -0.2081  0.4348 -0.2022
 2474TIP3   OH228980   4.879   2.204   2.690  0.6664 -0.1709  0.4222
 2474TIP3    H128981   4.783   2.198   2.693  0.6568 -0.5218 -0.3750
 2474TIP3    H228982   4.896   2.280   2.635  0.8532  0.1989  0.9809
 2475TIP3   OH228983   2.394   3.460   6.817 -0.0548  0.2679 -0.1448
 2475TIP3    H128984   2.474   3.423   6.778 -1.4932 -1.9459 -1.1954
 2475TIP3    H228985   2.349   3.385   6.856 -1.1488  1.6311  1.3493
 2476TIP3   OH228986   0.303   3.981   6.708  0.3562 -0.0400  0.3056
 2476TIP3    H128987   0.248   3.939   6.774 -0.0328 -0.6871 -0.4107
 2476TIP3    H228988   0.370   4.027   6.758  1.6318 -2.6215  1.1320
 2477TIP3   OH228989   3.978   3.908   1.402  0.0450  0.3755 -0.2188
 2477TIP3    H128990   3.908   3.911   1.337 -2.9171  1.0904  2.7192
 2477TIP3    H228991   4.031   3.985   1.384 -1.0447  0.8702 -1.4413
 2478TIP3   OH228992   5.735   2.616   0.998 -0.4622 -0.0589  0.0651
 2478TIP3    H128993   5.679   2.694   1.004 -2.9064 -1.6404 -0.5408
 2478TIP3    H228994   5.749   2.605   0.904  0.1241 -0.2060  0.1672
 2479TIP3   OH228995   2.532   1.957   0.622 -0.0739  0.4330  0.4596
 2479TIP3    H128996   2.599   2.014   0.585 -0.3034  1.6586  1.8744
 2479TIP3    H228997   2.569   1.869   0.614  0.3398  0.7508 -1.6269
 2480TIP3   OH228998   0.715   2.315   2.051 -0.1323  0.1512 -0.2271
 2480TIP3    H128999   0.749   2.272   1.972 -1.9593  0.8516 -1.4539
 2480TIP3    H229000   0.630   2.275   2.065 -0.3888  0.9731  0.6264
 2481TIP3   OH229001   6.069   0.854   2.381  0.3356 -0.1392 -0.1136
 2481TIP3    H129002   6.137   0.805   2.428  1.6776  1.0551 -0.7344
 2481TIP3    H229003   6.111   0.881   2.299 -1.0017  0.3609 -0.6626
 2482TIP3   OH229004   6.849   1.369   2.387  0.1492  0.0973 -0.1074
 2482TIP3    H129005   6.782   1.357   2.455 -0.9197  0.0531 -1.1432
 2482TIP3    H229006   6.911   1.431   2.425 -0.1623 -0.2945  1.0957
 2483TIP3   OH229007   1.686   4.371   1.035  0.4745  0.3221  0.0438
 2483TIP3    H129008   1.619   4.336   0.976  2.2120 -1.1432 -1.1411
 2483TIP3    H229009   1.678   4.317   1.114  0.2994  0.1161 -0.1126
 2484TIP3   OH229010   3.074   2.779   8.294 -0.6900 -0.0948 -0.0267
 2484TIP3    H129011   2.986   2.741   8.297  0.2225 -2.2995  1.3682
 2484TIP3    H229012   3.087   2.814   8.382  0.4553 -1.4891  0.4081
 2485TIP3   OH229013   5.433   6.406   1.867  0.4621  0.1680  0.0684
 2485TIP3    H129014   5.340   6.411   1.891  0.4874 -0.2711  0.2598
 2485TIP3    H229015   5.470   6.341   1.926  0.6697 -0.4146 -0.6863
 2486TIP3   OH229016   3.330   6.256   1.054 -0.1907  0.3360 -0.5426
 2486TIP3    H129017   3.240   6.276   1.080  0.9484  3.3518  1.6847
 2486TIP3    H229018   3.341   6.163   1.075 -2.2924  0.2989  0.7269
 2487TIP3   OH229019   2.801   4.731   8.565 -0.0837 -0.2461  0.2749
 2487TIP3    H129020   2.797   4.816   8.521 -0.5891 -0.5116 -0.2022
 2487TIP3    H229021   2.891   4.701   8.551 -0.2252 -0.3072 -0.5499
 2488TIP3   OH229022   0.644   3.764   7.689 -0.0343 -0.2388  0.4063
 2488TIP3    H129023   0.737   3.770   7.666 -0.2065  0.8943 -0.0378
 2488TIP3    H229024   0.638   3.686   7.744  0.9756 -1.0152 -0.5420
 2489TIP3   OH229025   1.003   1.842   0.155  0.4783 -0.4645  0.3874
 2489TIP3    H129026   1.077   1.791   0.187  1.2366  1.5565  2.1671
 2489TIP3    H229027   0.978   1.801   0.073  4.3797 -0.5215 -0.9548
 2490TIP3   OH229028   1.791   5.653   1.861 -0.1697 -0.0698  0.6399
 2490TIP3    H129029   1.733   5.626   1.932 -1.4615 -2.3070 -1.1517
 2490TIP3    H229030   1.869   5.599   1.872 -0.2627 -0.2344  0.4767
 2491TIP3   OH229031   2.134   1.186   1.774  0.4616  0.5166  0.0528
 2491TIP3    H129032   2.169   1.229   1.696 -3.0052  1.9813 -0.8847
 2491TIP3    H229033   2.079   1.115   1.739  0.7858 -0.3999  1.3244
 2492TIP3   OH229034   4.609   2.711   2.349 -0.1623 -0.7260 -0.2522
 2492TIP3    H129035   4.651   2.628   2.325  1.4882  0.2853 -1.1395
 2492TIP3    H229036   4.666   2.778   2.310 -1.3967  0.8300  0.4965
 2493TIP3   OH229037   1.273   2.680   7.899  0.4088 -0.0195  0.0664
 2493TIP3    H129038   1.333   2.607   7.882  1.8702  1.1397  0.0970
 2493TIP3    H229039   1.211   2.677   7.826 -0.6905 -2.3750  1.0121
 2494TIP3   OH229040   1.812   2.187   0.004  0.2283 -0.1179  0.0560
 2494TIP3    H129041   1.876   2.144   0.061 -0.2308  0.4229  1.0032
 2494TIP3    H229042   1.728   2.174   0.048 -0.1515  0.1895 -0.5685
 2495TIP3   OH229043   4.835   0.290   0.841 -0.4394  0.2589  0.3060
 2495TIP3    H129044   4.764   0.231   0.867 -0.7137  0.7392  0.6682
 2495TIP3    H229045   4.791   0.367   0.807 -0.0966  0.6278  0.6844
 2496TIP3   OH229046   4.913   6.436   1.892  0.0508 -0.1815  0.1179
 2496TIP3    H129047   4.880   6.507   1.947  1.8018  0.7135  0.1023
 2496TIP3    H229048   4.885   6.459   1.804  1.0729  0.8469  0.0284
 2497TIP3   OH229049   3.562   5.390   2.908  0.8247 -0.2318  0.2940
 2497TIP3    H129050   3.638   5.442   2.882  2.4446 -2.0315  1.1127
 2497TIP3    H229051   3.579   5.303   2.872 -1.4341 -0.4460 -0.4326
 2498TIP3   OH229052   0.436   5.720   0.856 -0.9811 -0.3331 -0.0215
 2498TIP3    H129053   0.467   5.672   0.933 -0.9983  0.8786  0.7620
 2498TIP3    H229054   0.346   5.688   0.843 -0.6957 -1.1440 -0.0454
 2499TIP3   OH229055   2.123   3.837   1.787 -0.5945 -0.3171 -0.2579
 2499TIP3    H129056   2.139   3.744   1.771 -0.8592 -0.2429 -0.9723
 2499TIP3    H229057   2.034   3.853   1.754 -1.2875 -0.2095  1.5442
 2500TIP3   OH229058   4.507   0.314   0.979 -0.4279  0.3956 -0.1182
 2500TIP3    H129059   4.497   0.235   1.031 -1.6366  0.4061 -0.2902
 2500TIP3    H229060   4.532   0.382   1.042 -1.9215  0.4194  0.4830
 2501TIP3   OH229061   5.178   2.541   8.218  0.0575  0.7358 -0.1652
 2501TIP3    H129062   5.121   2.616   8.227 -1.5889 -0.3979 -0.6989
 2501TIP3    H229063   5.120   2.465   8.221  1.5295 -0.4840 -0.6845
 2502TIP3   OH229064   5.786   3.471   6.526 -0.2150  0.4024  0.0698
 2502TIP3    H129065   5.859   3.511   6.480 -0.7806  1.4648  0.0604
 2502TIP3    H229066   5.779   3.383   6.489  0.9416  0.3481 -0.0400
 2503TIP3   OH229067   5.559   6.238   0.913  0.7455  0.0281 -0.6457
 2503TIP3    H129068   5.601   6.274   0.991  0.3700 -2.7760  0.9487
 2503TIP3    H229069   5.518   6.314   0.872 -1.7641  1.2726  3.5577
 2504TIP3   OH229070   4.232   1.291   0.488  0.2309  0.0535  0.1367
 2504TIP3    H129071   4.297   1.258   0.551  1.0155  1.7428  0.2499
 2504TIP3    H229072   4.249   1.241   0.409 -0.1004 -1.3945  0.9417
 2505TIP3   OH229073   4.055   2.797   2.337  0.5908 -0.1678  0.7962
 2505TIP3    H129074   4.031   2.733   2.405  3.2189 -0.2547  1.7567
 2505TIP3    H229075   4.148   2.781   2.322  0.1343 -0.1169 -2.8910
 2506TIP3   OH229076   0.474   5.416   7.632  0.5920  0.0999 -0.7299
 2506TIP3    H129077   0.555   5.457   7.601  0.5853 -0.4752 -1.5619
 2506TIP3    H229078   0.485   5.323   7.611 -0.2207 -0.0019 -0.7344
 2507TIP3   OH229079   3.271   2.768   1.870  0.4188 -0.0223 -0.6210
 2507TIP3    H129080   3.298   2.746   1.780 -0.8826 -0.4363 -0.9247
 2507TIP3    H229081   3.195   2.713   1.886 -2.1718  3.2005 -0.9255
 2508TIP3   OH229082   4.478   0.026   8.437 -0.9547 -0.2436  0.3733
 2508TIP3    H129083   4.475   0.042   8.531  1.5259  1.3802  0.2965
 2508TIP3    H229084   4.442  -0.062   8.425  0.6513 -1.3944  3.1313
 2509TIP3   OH229085   0.931   1.390   8.634 -0.3056  0.1808 -0.1565
 2509TIP3    H129086   0.872   1.400   8.559  1.8045 -0.6488 -2.0369
 2509TIP3    H229087   0.900   1.453   8.698 -1.6776  1.5553 -2.0896
 2510TIP3   OH229088   1.660   0.564   1.354  0.4007  0.3845  0.1846
 2510TIP3    H129089   1.718   0.533   1.284  1.4272 -0.2924  1.2909
 2510TIP3    H229090   1.598   0.492   1.367  1.2630 -0.2293  1.0846
 2511TIP3   OH229091   4.826   6.164   0.703 -0.1870  0.8299 -0.1346
 2511TIP3    H129092   4.804   6.253   0.677 -1.0344  1.4512  2.4021
 2511TIP3    H229093   4.804   6.160   0.796  1.8136 -1.3902  0.3539
 2512TIP3   OH229094   1.866   1.193   2.072  0.4138  0.1407  0.6633
 2512TIP3    H129095   1.802   1.122   2.078  1.4147 -0.8154  0.3839
 2512TIP3    H229096   1.813   1.273   2.076 -0.8075 -0.6122  0.3420
 2513TIP3   OH229097   5.610   3.126   7.760 -0.1324 -0.4938 -0.2058
 2513TIP3    H129098   5.664   3.185   7.811  0.6121 -1.1078 -0.2628
 2513TIP3    H229099   5.644   3.133   7.671 -0.4142 -0.5768 -0.3222
 2514TIP3   OH229100   1.557   3.382   1.703  0.3765 -0.0169 -0.3152
 2514TIP3    H129101   1.508   3.378   1.620 -0.2191 -0.1565  0.0341
 2514TIP3    H229102   1.631   3.323   1.690  0.2666 -0.0658 -0.7363
 2515TIP3   OH229103   0.285   5.086   1.065  0.3839  0.2284 -0.7724
 2515TIP3    H129104   0.283   5.020   1.135  0.2115  0.0006 -0.9886
 2515TIP3    H229105   0.335   5.158   1.102 -1.5012  1.0265  0.4191
 2516TIP3   OH229106   4.999   5.603   7.349  1.3499 -0.2332  0.2587
 2516TIP3    H129107   4.912   5.583   7.385  0.9404 -1.1179 -1.1143
 2516TIP3    H229108   5.051   5.525   7.367  0.8083 -1.1974 -1.9260
 2517TIP3   OH229109   2.465   1.092   7.713 -0.3896  0.0896 -0.1909
 2517TIP3    H129110   2.466   1.085   7.808  0.0936 -3.3507 -0.3191
 2517TIP3    H229111   2.557   1.085   7.687 -0.3526  2.4216 -0.9464
 2518TIP3   OH229112   4.880   2.846   0.342 -0.1622  1.0618 -0.0492
 2518TIP3    H129113   4.904   2.923   0.393 -1.5972  1.2942  0.2998
 2518TIP3    H229114   4.930   2.855   0.261  0.1830  2.0090  0.2525
 2519TIP3   OH229115   0.659   5.316   2.596 -0.2809  0.0258  0.1044
 2519TIP3    H129116   0.666   5.239   2.653  0.1400  0.0422  0.0770
 2519TIP3    H229117   0.580   5.300   2.544 -0.7041  0.0328  0.7210
 2520TIP3   OH229118   2.232   2.741   7.345 -0.0281  0.3739  0.6345
 2520TIP3    H129119   2.292   2.783   7.284 -1.2262 -0.6165 -1.3173
 2520TIP3    H229120   2.184   2.677   7.292 -2.2975  0.6114  2.2457
 2521TIP3   OH229121   2.509   3.294   7.337  0.3902  0.0758 -0.3252
 2521TIP3    H129122   2.585   3.340   7.373  1.4733 -1.2835 -0.7733
 2521TIP3    H229123   2.514   3.309   7.242 -0.7661  1.1975 -0.2310
 2522TIP3   OH229124   3.595   1.965   0.295 -0.3745  0.5434  0.6589
 2522TIP3    H129125   3.685   1.988   0.274 -0.9326  3.6115  1.2000
 2522TIP3    H229126   3.602   1.910   0.373  1.0994 -1.6620 -0.9173
 2523TIP3   OH229127   5.958   5.496   0.752  0.2288 -0.1887 -0.1890
 2523TIP3    H129128   6.036   5.490   0.807  1.6805  0.8775 -1.9707
 2523TIP3    H229129   5.906   5.565   0.792  1.5861  1.0496 -0.4467
 2524TIP3   OH229130   0.008   5.548   1.315  0.7245  0.3801  0.4983
 2524TIP3    H129131   0.055   5.629   1.295  1.0280  0.1195  0.1280
 2524TIP3    H229132  -0.081   5.576   1.335  0.4549  0.7137 -0.9966
 2525TIP3   OH229133   5.873   1.785   2.260 -0.2295 -0.0954 -0.2116
 2525TIP3    H129134   5.884   1.766   2.167 -2.7120  0.8464 -0.7755
 2525TIP3    H229135   5.778   1.778   2.275  0.2239 -2.0348  2.6934
 2526TIP3   OH229136   5.557   3.126   1.779 -0.2730  0.3254  0.1215
 2526TIP3    H129137   5.550   3.177   1.859  2.5082 -0.5633  1.0564
 2526TIP3    H229138   5.537   3.188   1.709  2.0309  2.5672  1.2505
 2527TIP3   OH229139   6.210   2.328   2.427 -0.6345  0.0214  0.2131
 2527TIP3    H129140   6.126   2.297   2.462 -0.0423  0.4337  2.0698
 2527TIP3    H229141   6.204   2.310   2.333 -2.3190 -1.0589  0.4802
 2528TIP3   OH229142   6.519   3.845   0.748 -0.2811  0.9782 -0.2316
 2528TIP3    H129143   6.480   3.852   0.661 -1.5525 -1.0816  0.1142
 2528TIP3    H229144   6.472   3.773   0.790  1.5550  0.6936  1.4975
 2529TIP3   OH229145   1.323   2.045   7.906 -0.3036  0.5966  0.2357
 2529TIP3    H129146   1.391   2.096   7.949 -0.9139  2.1391 -0.5571
 2529TIP3    H229147   1.247   2.050   7.964  0.2629 -1.2617  1.1992
 2530TIP3   OH229148   5.968   3.421   0.310 -0.4941  0.5775  0.0019
 2530TIP3    H129149   6.053   3.427   0.352  0.0788 -2.1045 -0.5739
 2530TIP3    H229150   5.910   3.384   0.376 -0.7605  0.6667 -0.1769
 2531TIP3   OH229151   5.422   6.427   1.427 -0.9521  0.0353 -0.1798
 2531TIP3    H129152   5.333   6.436   1.461 -0.5820  0.0775  0.7948
 2531TIP3    H229153   5.478   6.431   1.504 -0.2087 -1.8319 -0.5920
 2532TIP3   OH229154   1.283   5.992   2.712 -0.1335  0.2368 -0.0502
 2532TIP3    H129155   1.367   5.965   2.676  0.3561  2.0531 -0.3772
 2532TIP3    H229156   1.251   5.916   2.759  2.3467 -0.0894  1.2633
 2533TIP3   OH229157   0.335   4.378   7.228  0.1349 -0.5796  0.0304
 2533TIP3    H129158   0.428   4.390   7.211 -0.0602 -1.5673 -2.0572
 2533TIP3    H229159   0.292   4.445   7.175 -0.3832 -1.1409 -0.2783
 2534TIP3   OH229160   0.257   5.369   1.023  0.0983  0.5732 -0.5197
 2534TIP3    H129161   0.344   5.409   1.034 -0.6935  2.6796 -1.2971
 2534TIP3    H229162   0.241   5.372   0.929  0.0869 -1.9770 -0.6557
 2535TIP3   OH229163   4.352   2.124   0.270 -0.7374 -0.2668 -0.5464
 2535TIP3    H129164   4.317   2.190   0.211  2.9642  0.4568 -2.1973
 2535TIP3    H229165   4.315   2.042   0.239  0.5631  0.1642 -3.6153
 2536TIP3   OH229166   6.864   5.887   7.773  0.1702  0.2030  0.2375
 2536TIP3    H129167   6.851   5.928   7.859  0.7692 -0.5977  0.7221
 2536TIP3    H229168   6.957   5.867   7.770  0.0260 -0.4011 -0.3221
 2537TIP3   OH229169   4.811   0.248   1.386  0.2669  0.2526  0.3655
 2537TIP3    H129170   4.867   0.312   1.343 -0.1241 -0.5161 -1.3886
 2537TIP3    H229171   4.724   0.263   1.350 -0.0928 -0.4165  0.9200
 2538TIP3   OH229172   5.035   5.263   0.760  0.4598 -0.1492  0.3070
 2538TIP3    H129173   5.094   5.333   0.734 -1.1533  0.6724 -1.3423
 2538TIP3    H229174   5.019   5.213   0.680  1.5482 -2.4646  1.4302
 2539TIP3   OH229175   4.829   6.563   2.350  0.6017  0.1120  0.4876
 2539TIP3    H129176   4.765   6.493   2.337  1.9906 -0.8873 -1.5822
 2539TIP3    H229177   4.904   6.519   2.391  2.5212 -0.3811 -3.1439
 2540TIP3   OH229178   5.002   2.220   1.534  0.1647  0.1580  0.2668
 2540TIP3    H129179   5.048   2.251   1.612 -1.3963  1.9775  0.5449
 2540TIP3    H229180   4.909   2.229   1.556 -0.3138  0.1836 -1.5897
 2541TIP3   OH229181   6.548   5.928   8.362 -0.0793 -0.2808  0.0943
 2541TIP3    H129182   6.535   5.861   8.295 -1.5374 -0.2578  0.3240
 2541TIP3    H229183   6.606   5.888   8.426 -0.5127 -1.1367 -0.0401
 2542TIP3   OH229184   4.327   5.097   8.625 -0.2517  0.3735 -0.1488
 2542TIP3    H129185   4.299   5.010   8.598 -0.3633  0.0332  1.0073
 2542TIP3    H229186   4.261   5.156   8.589  0.3460  0.1051 -1.7696
 2543TIP3   OH229187   6.656   6.284   2.191  0.5755 -0.4166 -0.0409
 2543TIP3    H129188   6.593   6.333   2.139  1.2481 -0.0517 -0.5407
 2543TIP3    H229189   6.738   6.292   2.142  1.1725 -0.2700  0.9453
 2544TIP3   OH229190   5.542   3.712   0.633  0.2900  0.0409  0.2105
 2544TIP3    H129191   5.571   3.732   0.722  2.8209  1.4352 -0.8144
 2544TIP3    H229192   5.508   3.795   0.600  0.5650 -0.1388 -0.5414
 2545TIP3   OH229193   5.175   1.329   1.353  0.3579 -0.1842  0.7658
 2545TIP3    H129194   5.161   1.284   1.270  1.1684  2.2722 -0.7715
 2545TIP3    H229195   5.087   1.339   1.390 -0.2893  0.6824 -0.9129
 2546TIP3   OH229196   3.990   2.658   8.204 -0.2987 -0.5359 -0.4094
 2546TIP3    H129197   3.944   2.618   8.131 -0.9858 -0.3371 -0.0986
 2546TIP3    H229198   4.045   2.588   8.239  0.3631 -0.5104 -1.3726
 2547TIP3   OH229199   3.773   1.378   0.039  0.5861 -0.7617  0.4333
 2547TIP3    H129200   3.701   1.339  -0.011  0.0810  0.8757 -0.1592
 2547TIP3    H229201   3.852   1.350  -0.008  0.2301 -0.9664 -0.0581
 2548TIP3   OH229202   1.908   1.727   0.847 -0.2595  0.0301  0.4938
 2548TIP3    H129203   1.986   1.686   0.809 -0.4997 -0.7343  0.8107
 2548TIP3    H229204   1.857   1.654   0.882 -0.7588  0.5925  0.9621
 2549TIP3   OH229205   1.625   4.295   1.508 -0.5290 -0.2990 -0.2504
 2549TIP3    H129206   1.552   4.278   1.568 -1.7681  1.0478 -1.3281
 2549TIP3    H229207   1.653   4.384   1.528  1.4906 -1.1022  0.7777
 2550TIP3   OH229208   3.131   3.246   1.215  0.4704  0.2317 -0.5624
 2550TIP3    H129209   3.099   3.317   1.160  0.4120  0.4462 -0.2523
 2550TIP3    H229210   3.105   3.270   1.304 -0.9445 -0.9317 -0.6197
 2551TIP3   OH229211   3.230   1.688   1.605 -0.1252  0.0990 -0.1331
 2551TIP3    H129212   3.311   1.643   1.580  0.3321 -1.2946  3.2950
 2551TIP3    H229213   3.245   1.780   1.582  2.9253  0.0684  1.2771
 2552TIP3   OH229214   0.572   4.321   7.025 -0.0888 -0.4595 -1.0936
 2552TIP3    H129215   0.602   4.319   7.115 -1.4972  2.9719 -0.3769
 2552TIP3    H229216   0.652   4.317   6.972  0.8483 -1.1585  0.3431
 2553TIP3   OH229217   0.202   3.855   8.150 -0.3074  0.2863 -0.4384
 2553TIP3    H129218   0.217   3.856   8.056  0.4600  0.1349 -0.3246
 2553TIP3    H229219   0.151   3.776   8.166 -1.5466  0.9787 -0.8803
 2554TIP3   OH229220   1.372   2.915   8.278  0.2264  0.0009  0.0483
 2554TIP3    H129221   1.313   2.881   8.211 -2.8544  2.7718  1.0259
 2554TIP3    H229222   1.402   2.838   8.326 -2.0778 -1.6620 -0.9958
 2555TIP3   OH229223   0.745   5.754   2.707 -0.0774  0.0813 -0.7082
 2555TIP3    H129224   0.812   5.714   2.652  3.9807 -1.4067  4.4769
 2555TIP3    H229225   0.673   5.691   2.708  0.9897 -1.1964 -1.9458
 2556TIP3   OH229226   5.284   1.874   8.429  0.4410  0.7911  0.6098
 2556TIP3    H129227   5.222   1.843   8.495  1.3819 -0.7128  0.8400
 2556TIP3    H229228   5.370   1.863   8.469  1.0576 -0.4623 -0.9343
 2557TIP3   OH229229   1.177   5.409   8.189  0.3743  0.2090  0.0521
 2557TIP3    H129230   1.099   5.453   8.223  0.7308 -0.1444  1.3896
 2557TIP3    H229231   1.201   5.460   8.111  0.9016  2.5754  1.6489
 2558TIP3   OH229232   5.353   6.799   8.007 -0.2605  0.1206  0.3971
 2558TIP3    H129233   5.381   6.870   7.949  0.1227 -0.2199  0.1549
 2558TIP3    H229234   5.432   6.746   8.019 -1.2228 -2.0819 -2.0182
 2559TIP3   OH229235   0.166   5.328   0.742 -0.5196  0.1461  0.0759
 2559TIP3    H129236   0.220   5.251   0.757 -1.4729 -0.2884  1.4641
 2559TIP3    H229237   0.103   5.301   0.675  0.4986  0.4395 -1.0377
 2560TIP3   OH229238   0.682   2.689   7.698 -0.1187  0.0772 -0.9223
 2560TIP3    H129239   0.768   2.705   7.736 -0.8349  1.0322  0.3487
 2560TIP3    H229240   0.701   2.661   7.608  1.5366 -0.6564 -0.3798
 2561TIP3   OH229241   1.288   3.633   7.210 -0.7456 -0.1190 -0.6159
 2561TIP3    H129242   1.339   3.687   7.150 -0.4290 -0.2450 -0.4661
 2561TIP3    H229243   1.332   3.548   7.209 -0.1709  0.1415  0.4945
 2562TIP3   OH229244   4.080   1.202   7.614  0.0209  0.3229 -0.0219
 2562TIP3    H129245   4.058   1.117   7.651  0.1224  0.4818  0.4136
 2562TIP3    H229246   4.098   1.257   7.690  2.0770  0.1748 -0.3331
 2563TIP3   OH229247   3.837   6.188   1.274  0.6464  0.3597 -0.7194
 2563TIP3    H129248   3.924   6.220   1.300 -0.1815  1.6504  0.6350
 2563TIP3    H229249   3.776   6.244   1.322 -0.9507 -0.4302 -1.7508
 2564TIP3   OH229250   6.442   6.288   8.603  0.1614 -0.0155  0.0594
 2564TIP3    H129251   6.383   6.302   8.677  1.1932  1.8241  0.5842
 2564TIP3    H229252   6.398   6.221   8.549 -2.2312  1.0623  0.5658
 2565TIP3   OH229253   1.257   5.429   0.275 -0.0529  1.0596 -0.2476
 2565TIP3    H129254   1.173   5.416   0.231 -0.2436 -3.3391  0.9443
 2565TIP3    H229255   1.322   5.393   0.215  0.6599  1.8694  0.0107
 2566TIP3   OH229256   5.117   1.793   1.978  0.0513 -0.2075  0.7387
 2566TIP3    H129257   5.176   1.751   2.040  1.1348 -0.8294 -0.6407
 2566TIP3    H229258   5.035   1.806   2.026 -0.3989 -3.9464  1.2557
 2567TIP3   OH229259   3.160   0.722   0.041 -0.2655  0.5032 -0.0024
 2567TIP3    H129260   3.233   0.781   0.060  1.2957 -0.8630 -1.4691
 2567TIP3    H229261   3.092   0.747   0.104  0.6990  3.1469  0.1220
 2568TIP3   OH229262   6.421   1.518   7.830  0.7501 -0.3087 -0.0847
 2568TIP3    H129263   6.333   1.554   7.821 -0.3835 -2.2277  2.2190
 2568TIP3    H229264   6.429   1.455   7.759 -1.1012 -2.4553  1.4579
 2569TIP3   OH229265   6.396   3.435   8.054 -0.3553 -0.1277  0.3953
 2569TIP3    H129266   6.424   3.473   8.137  0.9466 -2.7110  1.2749
 2569TIP3    H229267   6.405   3.340   8.068 -0.8858 -0.6704 -2.4364
 2570TIP3   OH229268   0.124   4.904   7.701  0.2305  0.0841 -0.1258
 2570TIP3    H129269   0.113   4.893   7.796 -0.2690  0.0239 -0.1884
 2570TIP3    H229270   0.100   4.995   7.685 -0.5924 -0.1598 -0.3218
 2571TIP3   OH229271   3.619   5.215   6.721  0.1206  0.3136  0.4772
 2571TIP3    H129272   3.555   5.144   6.725 -0.1954  0.1541 -3.4917
 2571TIP3    H229273   3.702   5.171   6.701  0.0212  0.8984 -1.4753
 2572TIP3   OH229274   2.014   4.676   2.538 -0.2699 -0.3034 -0.2096
 2572TIP3    H129275   2.053   4.603   2.587  1.1644 -0.4027 -1.4135
 2572TIP3    H229276   1.928   4.644   2.511  1.5128 -2.9646 -3.5067
 2573TIP3   OH229277   1.130   3.122   1.893 -0.0321  0.0954  0.6066
 2573TIP3    H129278   1.071   3.065   1.844  1.1507 -0.0054 -0.7799
 2573TIP3    H229279   1.126   3.090   1.983 -0.9564 -0.8426  0.2493
 2574TIP3   OH229280   3.929   0.915   7.219 -0.1792 -0.2545  0.4306
 2574TIP3    H129281   3.884   0.997   7.238 -1.7041 -0.9064 -0.1511
 2574TIP3    H229282   3.978   0.895   7.299  1.0910  1.7298  0.2028
 2575TIP3   OH229283   3.174   5.487   0.045  0.5191  0.1992  0.1086
 2575TIP3    H129284   3.132   5.522   0.124 -0.0061  2.7458 -1.1709
 2575TIP3    H229285   3.110   5.505  -0.025  0.9269 -2.0571 -0.9229
 2576TIP3   OH229286   3.573   0.541   2.525 -0.4592  0.2317  0.2077
 2576TIP3    H129287   3.544   0.609   2.463  0.8451 -0.4753 -1.2679
 2576TIP3    H229288   3.502   0.477   2.526 -0.1467 -0.1798 -1.2900
 2577TIP3   OH229289   5.007   3.418   0.056 -0.3719 -0.1145  0.3979
 2577TIP3    H129290   5.006   3.511   0.036 -0.5891 -0.2316 -0.1593
 2577TIP3    H229291   4.993   3.413   0.150  1.6657  0.4941  0.7579
 2578TIP3   OH229292   2.386   0.489   7.533  0.0661  0.1226 -0.2526
 2578TIP3    H129293   2.465   0.505   7.585 -0.5630  0.6773  0.5642
 2578TIP3    H229294   2.413   0.506   7.443  0.7702  0.7696  0.0667
 2579TIP3   OH229295   1.158   4.950   8.197 -0.1372 -0.3051  0.4529
 2579TIP3    H129296   1.183   4.887   8.129 -3.2416 -1.4248  0.1914
 2579TIP3    H229297   1.112   5.019   8.150  1.5035  1.2231  0.9915
 2580TIP3   OH229298   1.858   1.498   0.966  0.3362 -0.4389 -0.1870
 2580TIP3    H129299   1.778   1.498   0.914 -0.1449  0.6849  0.5163
 2580TIP3    H229300   1.894   1.409   0.955  0.9667  0.0807 -3.4340
 2581TIP3   OH229301   4.091   1.140   1.431 -0.7645 -0.1224 -0.4276
 2581TIP3    H129302   4.173   1.179   1.460 -1.3456  0.0594  1.0725
 2581TIP3    H229303   4.046   1.210   1.383  0.5577 -0.6675 -2.5834
 2582TIP3   OH229304   1.317   2.393   1.313  0.1143 -0.2256  0.4991
 2582TIP3    H129305   1.381   2.402   1.243 -0.7897  0.8481 -0.2217
 2582TIP3    H229306   1.239   2.358   1.270 -0.5396  0.7040  0.8851
 2583TIP3   OH229307   0.032   3.055   1.918 -0.1905 -0.0193 -0.4367
 2583TIP3    H129308   0.113   3.074   1.870  0.6661 -3.2269 -0.5118
 2583TIP3    H229309  -0.038   3.075   1.856  0.6703  0.3468 -1.3164
 2584TIP3   OH229310   6.131   3.258   7.623 -0.3893 -0.3761 -0.2525
 2584TIP3    H129311   6.103   3.178   7.666 -0.4102 -0.6984 -0.8574
 2584TIP3    H229312   6.181   3.305   7.690  0.4080 -1.3168 -0.1642
 2585TIP3   OH229313   6.123   1.674   1.502 -0.2527 -0.1679 -0.2711
 2585TIP3    H129314   6.107   1.768   1.511  0.2390 -0.0531 -0.5246
 2585TIP3    H229315   6.039   1.637   1.475 -0.6436  0.0861  0.5718
 2586TIP3   OH229316   1.363   5.438   7.287  0.6878  0.1928  0.1048
 2586TIP3    H129317   1.329   5.353   7.259  0.2233 -0.5713  2.6978
 2586TIP3    H229318   1.454   5.437   7.260  1.5347 -2.4703  2.5592
 2587TIP3   OH229319   0.709   4.105   7.534  0.5178 -0.1775  0.1498
 2587TIP3    H129320   0.627   4.101   7.584 -0.0853 -0.7359 -0.8431
 2587TIP3    H229321   0.778   4.110   7.600 -0.3583  1.1431  0.9964
 2588TIP3   OH229322   2.802   2.571   0.458 -0.1181 -0.4635  0.0409
 2588TIP3    H129323   2.766   2.603   0.375  0.2376 -0.8441 -0.2671
 2588TIP3    H229324   2.728   2.530   0.502 -0.7205  1.2715  0.7076
 2589TIP3   OH229325   3.536   4.817   0.052 -0.0579  0.8601 -0.2464
 2589TIP3    H129326   3.629   4.826   0.034  0.0495  0.8536  0.2791
 2589TIP3    H229327   3.523   4.864   0.135 -0.2438 -0.3631  0.4557
 2590TIP3   OH229328   6.259   2.047   2.773  0.6735  0.9131 -0.1829
 2590TIP3    H129329   6.269   1.994   2.852 -0.1850  1.2249  0.1546
 2590TIP3    H229330   6.301   1.996   2.704 -1.3113 -0.9052 -0.1624
 2591TIP3   OH229331   2.390   0.099   0.631 -0.0865 -0.3220 -0.2113
 2591TIP3    H129332   2.374   0.129   0.720  0.2283 -1.5572  0.2814
 2591TIP3    H229333   2.479   0.127   0.611 -0.0081 -0.4082  0.0171
 2592TIP3   OH229334   4.904   2.872   1.937 -0.0851 -0.8341 -0.0220
 2592TIP3    H129335   4.988   2.827   1.942  0.5677  0.1680 -1.1662
 2592TIP3    H229336   4.876   2.860   1.846 -0.7788 -0.4946  0.1397
 2593TIP3   OH229337   6.772   6.668   0.466 -0.5983 -0.0271  0.5200
 2593TIP3    H129338   6.844   6.667   0.529 -1.7832 -1.5688  1.9474
 2593TIP3    H229339   6.762   6.760   0.442  3.1883  0.0499 -1.4319
 2594TIP3   OH229340   1.726   2.886   2.689  0.1642 -0.4514  0.0623
 2594TIP3    H129341   1.786   2.877   2.615  0.3868  0.8467  0.0575
 2594TIP3    H229342   1.766   2.953   2.744 -0.1738 -1.1561  1.1991
 2595TIP3   OH229343   0.488   2.021   8.100 -0.5776  0.2021 -0.2316
 2595TIP3    H129344   0.514   1.933   8.076 -0.3335  0.0853  0.4391
 2595TIP3    H229345   0.553   2.049   8.165 -1.0653  0.5984  0.0976
 2596TIP3   OH229346   0.167   1.570   0.274  0.2402  0.0122  0.1735
 2596TIP3    H129347   0.189   1.530   0.190  0.2520  0.9353 -0.2768
 2596TIP3    H229348   0.153   1.662   0.254  1.0790  0.4216  1.3310
 2597TIP3   OH229349   2.659   1.723   0.569 -0.3378 -0.0519  0.3385
 2597TIP3    H129350   2.624   1.702   0.483  0.2929 -1.4023  0.3874
 2597TIP3    H229351   2.754   1.717   0.559 -0.2764 -1.7748  1.4603
 2598TIP3   OH229352   0.654   6.735   0.913  0.1467  0.4117 -0.3248
 2598TIP3    H129353   0.604   6.769   0.838  2.5792  2.0935 -1.3120
 2598TIP3    H229354   0.743   6.723   0.879  0.9871 -0.1726  1.9340
 2599TIP3   OH229355   0.981   1.339   1.942 -0.5057  0.5819  0.0664
 2599TIP3    H129356   1.076   1.339   1.952 -0.4404  0.4558 -0.5029
 2599TIP3    H229357   0.954   1.426   1.973  0.0721  1.5875 -2.0338
 2600TIP3   OH229358   0.045   4.979   3.101 -0.4871  0.2065 -0.1350
 2600TIP3    H129359  -0.037   4.936   3.076  0.5502 -1.8788 -0.1311
 2600TIP3    H229360   0.018   5.057   3.150 -2.4474 -0.4578 -0.1027
 2601TIP3   OH229361   3.926   2.537   1.667  0.0438 -0.1372 -0.2916
 2601TIP3    H129362   3.933   2.577   1.754 -0.4048 -1.8312  0.5618
 2601TIP3    H229363   4.016   2.518   1.642  0.1113 -0.7381  0.3649
 2602TIP3   OH229364   1.134   1.632   2.116 -0.0586  0.0452 -0.0061
 2602TIP3    H129365   1.071   1.639   2.188  0.7090  0.5608  0.6352
 2602TIP3    H229366   1.081   1.640   2.037 -0.9639 -0.8171  0.4823
 2603TIP3   OH229367   1.305   3.844   0.784 -0.5361  0.6833 -0.2433
 2603TIP3    H129368   1.234   3.891   0.827 -0.3582  1.4126 -0.7302
 2603TIP3    H229369   1.316   3.764   0.836  0.0283  1.7647  1.3842
 2604TIP3   OH229370   4.382   0.064   2.131 -0.0915 -0.1155 -0.2461
 2604TIP3    H129371   4.330  -0.012   2.160 -1.0564 -0.3093 -2.3335
 2604TIP3    H229372   4.459   0.063   2.188 -1.1696 -1.3071  1.2904
 2605TIP3   OH229373   6.428   5.247   0.893  0.4797 -0.4489  1.0696
 2605TIP3    H129374   6.431   5.200   0.977  2.0904 -0.8254  0.8304
 2605TIP3    H229375   6.469   5.187   0.831 -2.5414 -1.0726 -0.5080
 2606TIP3   OH229376   3.558   0.660   1.380 -0.1426  0.6033  0.5436
 2606TIP3    H129377   3.639   0.646   1.332 -0.5643  0.4920 -0.1643
 2606TIP3    H229378   3.506   0.717   1.323 -0.4025  1.0002  1.1676
 2607TIP3   OH229379   2.171   5.618   1.232 -0.4018 -0.1203 -0.1151
 2607TIP3    H129380   2.165   5.532   1.274  0.2139 -0.0690  0.0929
 2607TIP3    H229381   2.220   5.671   1.295  0.9676 -0.1726 -1.0826
 2608TIP3   OH229382   5.362   4.596   0.896  0.0716  0.2866 -0.1750
 2608TIP3    H129383   5.335   4.688   0.900  0.2152  0.2902  1.2427
 2608TIP3    H229384   5.438   4.590   0.954 -0.6181 -0.9425  0.6483
 2609TIP3   OH229385   4.880   4.164   0.683  0.1489  0.5806  0.0952
 2609TIP3    H129386   4.813   4.097   0.691  0.3420  0.4840  0.9365
 2609TIP3    H229387   4.959   4.125   0.720  0.0998  1.4996  1.2302
 2610TIP3   OH229388   1.896   1.675   2.267  0.4926 -0.2292 -0.2595
 2610TIP3    H129389   1.831   1.608   2.286  0.5208 -0.5172 -1.1280
 2610TIP3    H229390   1.892   1.686   2.172  1.2411  0.2347 -0.2472
 2611TIP3   OH229391   4.841   0.879   7.813  0.1310  0.2919 -0.5648
 2611TIP3    H129392   4.931   0.848   7.815  1.0415  2.6294  2.2833
 2611TIP3    H229393   4.793   0.817   7.869  0.4754  0.2872 -0.2722
 2612TIP3   OH229394   5.493   3.646   2.381  0.3060  0.2642 -0.3536
 2612TIP3    H129395   5.532   3.689   2.457  0.3227  1.0186 -0.7811
 2612TIP3    H229396   5.460   3.563   2.415  1.9040 -0.2088  0.1094
 2613TIP3   OH229397   1.093   6.517   1.769 -0.3000  0.2251 -0.1549
 2613TIP3    H129398   1.167   6.456   1.761  0.7306  1.4075  0.1967
 2613TIP3    H229399   1.114   6.588   1.708 -0.6021  1.1149  0.7682
 2614TIP3   OH229400   0.690   6.580   8.460 -0.0947 -0.5111 -0.5220
 2614TIP3    H129401   0.655   6.594   8.548  0.5689 -1.0581 -0.1644
 2614TIP3    H229402   0.751   6.653   8.447  0.4446 -0.8945 -0.1881
 2615TIP3   OH229403   4.782   1.117   7.350 -0.3853  0.5536  0.5386
 2615TIP3    H129404   4.805   1.069   7.429  2.5305  0.1276 -0.4431
 2615TIP3    H229405   4.826   1.202   7.360  1.5084 -0.1252 -1.2629
 2616TIP3   OH229406   6.725   5.122   8.433  0.3227  0.4376  0.3908
 2616TIP3    H129407   6.663   5.068   8.482 -1.1702  2.0790  0.4233
 2616TIP3    H229408   6.789   5.061   8.399 -1.6276 -1.4443 -0.1060
 2617TIP3   OH229409   4.738   6.807   8.441  0.4142 -0.2181  0.3016
 2617TIP3    H129410   4.751   6.785   8.534 -2.1555 -2.4774  0.2389
 2617TIP3    H229411   4.645   6.829   8.435  0.7242  0.7229 -1.6437
 2618TIP3   OH229412   3.442   6.639   8.130 -0.0397  0.3623 -0.0927
 2618TIP3    H129413   3.347   6.628   8.119  0.1482 -1.1915 -0.3132
 2618TIP3    H229414   3.469   6.563   8.181  1.0144  1.1293  0.5462
 2619TIP3   OH229415   1.615   3.331   6.819 -0.0199 -0.0355  0.4362
 2619TIP3    H129416   1.646   3.244   6.794  0.7150 -0.2107  1.9006
 2619TIP3    H229417   1.553   3.354   6.749 -0.4458 -1.8308  0.1556
 2620TIP3   OH229418   0.275   2.510   1.667 -0.0229  0.1669 -0.0712
 2620TIP3    H129419   0.337   2.456   1.716 -0.0720  0.9514  0.8866
 2620TIP3    H229420   0.196   2.456   1.659 -0.1165  0.1277  0.9818
 2621TIP3   OH229421   5.955   5.488   1.591  0.2020 -0.3825  0.0058
 2621TIP3    H129422   5.969   5.407   1.640 -2.0287 -0.0260  1.3308
 2621TIP3    H229423   5.894   5.464   1.522  1.5242 -0.3425 -1.2425
 2622TIP3   OH229424   2.770   6.270   6.866  0.2978 -0.5415  0.0744
 2622TIP3    H129425   2.741   6.316   6.787  0.4142 -1.3635 -0.4619
 2622TIP3    H229426   2.769   6.337   6.935 -0.4654  0.0215 -0.4714
 2623TIP3   OH229427   3.314   3.835   0.309  0.7184  0.4027  0.7744
 2623TIP3    H129428   3.254   3.770   0.273 -0.4819  1.2200  1.2538
 2623TIP3    H229429   3.298   3.832   0.404 -0.3002  2.2817  0.6988
 2624TIP3   OH229430   3.104   0.695   1.270 -0.6253  0.9617  0.1236
 2624TIP3    H129431   3.175   0.747   1.232  0.8173  0.0903  1.5013
 2624TIP3    H229432   3.080   0.742   1.349  0.2048 -0.0447  1.0041
 2625TIP3   OH229433   0.954   3.769   1.842  0.1584 -0.0013 -0.5518
 2625TIP3    H129434   0.925   3.757   1.932 -0.8434 -0.3686 -0.8973
 2625TIP3    H229435   0.991   3.857   1.839  2.8773 -1.0001  0.8637
 2626TIP3   OH229436   5.364   3.341   8.388 -0.4268 -0.1378 -0.3061
 2626TIP3    H129437   5.430   3.410   8.383 -1.6310  1.0476 -0.1984
 2626TIP3    H229438   5.359   3.307   8.298 -0.7346  0.7909 -0.6498
 2627TIP3   OH229439   2.746   5.482   0.393 -0.3874  0.4100 -0.0302
 2627TIP3    H129440   2.811   5.479   0.463 -0.8274 -2.1930  0.3744
 2627TIP3    H229441   2.684   5.551   0.419 -0.1611 -0.0439  1.7998
 2628TIP3   OH229442   2.379   1.949   1.670 -0.4914 -0.3921  0.2372
 2628TIP3    H129443   2.461   1.900   1.671 -0.1174  0.1515 -1.0100
 2628TIP3    H229444   2.406   2.040   1.682 -0.5765  0.1327 -2.7492
 2629TIP3   OH229445   5.878   6.426   6.757  0.1400 -0.3698 -0.0179
 2629TIP3    H129446   5.917   6.339   6.745  0.0680 -0.4343  0.2017
 2629TIP3    H229447   5.786   6.414   6.733 -0.2540 -0.7593  1.5554
 2630TIP3   OH229448   1.916   3.458   7.801 -0.1343  0.2033  0.3509
 2630TIP3    H129449   1.892   3.402   7.726  0.8071 -0.8934  0.8272
 2630TIP3    H229450   2.000   3.497   7.775 -0.0454  0.2004  0.6358
 2631TIP3   OH229451   4.251   6.706   8.391  0.2222  0.3047 -0.7162
 2631TIP3    H129452   4.197   6.778   8.425  0.3130 -0.1442  0.4179
 2631TIP3    H229453   4.189   6.649   8.346  0.1240  0.9988 -1.4816
 2632TIP3   OH229454   5.893   5.684   7.995 -0.1155 -0.0483 -0.3078
 2632TIP3    H129455   5.849   5.761   8.033  0.5622 -0.1950  0.8401
 2632TIP3    H229456   5.950   5.652   8.066 -0.0779 -1.3675 -0.9054
 2633TIP3   OH229457   0.826   2.494   1.685  0.4488  0.3090  0.0876
 2633TIP3    H129458   0.853   2.584   1.699 -0.9545  0.7102  0.3983
 2633TIP3    H229459   0.876   2.443   1.749  2.4552  0.6074 -1.1523
 2634TIP3   OH229460   4.218   3.762   1.774 -0.2678  0.2796  0.2788
 2634TIP3    H129461   4.299   3.791   1.817 -0.3144 -0.5909  0.9871
 2634TIP3    H229462   4.197   3.679   1.817 -1.0434  0.0438 -0.5350
 2635TIP3   OH229463   2.225   3.198   7.188  0.7609  0.1588  0.6512
 2635TIP3    H129464   2.249   3.121   7.137  1.3356 -0.8773  2.4179
 2635TIP3    H229465   2.238   3.272   7.128  1.1109 -1.0307 -0.7753
 2636TIP3   OH229466   2.312   0.595   1.071  0.1949 -0.3487 -0.0276
 2636TIP3    H129467   2.400   0.565   1.093  0.3791 -0.3852 -0.8125
 2636TIP3    H229468   2.320   0.690   1.063  0.8693 -0.5915 -3.1577
 2637TIP3   OH229469   0.359   6.296   1.139 -0.2187 -1.1020 -0.3648
 2637TIP3    H129470   0.439   6.269   1.094 -0.9797 -0.5524 -2.1321
 2637TIP3    H229471   0.288   6.269   1.081 -1.1851  1.1475 -0.3298
 2638TIP3   OH229472   6.164   5.590   7.022  0.5228 -0.0612  0.1542
 2638TIP3    H129473   6.072   5.568   7.039  0.4365  0.7466  0.8232
 2638TIP3    H229474   6.175   5.577   6.928 -0.1690 -0.5658  0.1349
 2639TIP3   OH229475   4.676   4.750   0.600  0.3452  0.5986  0.0495
 2639TIP3    H129476   4.674   4.654   0.597  1.5675  0.5729 -1.4299
 2639TIP3    H229477   4.589   4.777   0.570  0.5829 -0.0720 -1.3411
 2640TIP3   OH229478   5.166   1.320   0.878  0.1689  0.0197 -0.0837
 2640TIP3    H129479   5.207   1.334   0.793 -0.1658  0.8602 -0.1183
 2640TIP3    H229480   5.142   1.408   0.908 -1.0999 -0.3963  0.1820
 2641TIP3   OH229481   1.242   5.066   1.679  0.3697  0.0731  0.1901
 2641TIP3    H129482   1.256   5.160   1.668 -0.7312  0.4009  1.2996
 2641TIP3    H229483   1.329   5.028   1.671  0.6276  0.9726 -1.9939
 2642TIP3   OH229484   6.490   1.641   2.473  0.3479  0.6021 -0.1375
 2642TIP3    H129485   6.422   1.574   2.463 -1.0811  1.6160  1.9646
 2642TIP3    H229486   6.572   1.592   2.480 -0.2049 -0.7025 -1.8831
 2643TIP3   OH229487   0.498   6.544   7.869  0.0375 -0.1981  0.0587
 2643TIP3    H129488   0.490   6.630   7.910 -0.0579 -0.0375 -0.2918
 2643TIP3    H229489   0.409   6.510   7.866  0.0800 -0.3235  0.2302
 2644TIP3   OH229490   2.932   6.266   7.739  0.1909 -0.1806  0.1090
 2644TIP3    H129491   2.944   6.174   7.765 -0.3107 -0.2141  0.2320
 2644TIP3    H229492   2.847   6.267   7.695  0.9512 -0.0891 -1.4036
 2645TIP3   OH229493   6.170   5.401   7.440 -0.8067  0.1748  0.7613
 2645TIP3    H129494   6.223   5.321   7.440 -1.5266 -0.3290  2.3378
 2645TIP3    H229495   6.215   5.458   7.377 -0.5488 -1.6057 -0.7883
 2646TIP3   OH229496   5.393   1.920   7.817  0.6622 -0.0711  0.1688
 2646TIP3    H129497   5.478   1.908   7.861  1.7617  4.1921 -0.2855
 2646TIP3    H229498   5.415   1.959   7.733 -1.7066  1.1443  0.0254
 2647TIP3   OH229499   3.552   1.999   1.608 -0.0419  0.2103  0.2724
 2647TIP3    H129500   3.599   1.918   1.628  0.1261 -0.1899 -1.5719
 2647TIP3    H229501   3.486   1.974   1.544 -1.6537  1.1065  1.4960
 2648TIP3   OH229502   6.747   2.385   0.855 -0.0182  0.5347 -0.0456
 2648TIP3    H129503   6.741   2.396   0.760 -1.4284  0.0532 -0.0429
 2648TIP3    H229504   6.764   2.472   0.889  1.0727  0.6142 -0.7741
 2649TIP3   OH229505   0.280   4.737   6.857 -0.3300  0.3605  0.4132
 2649TIP3    H129506   0.352   4.682   6.889 -0.1963  1.4402  2.0590
 2649TIP3    H229507   0.201   4.684   6.872 -0.0511 -0.0681  0.3710
 2650TIP3   OH229508   4.583   1.506   8.487 -0.0900 -0.0332 -0.2541
 2650TIP3    H129509   4.599   1.598   8.511  0.4541 -0.0907 -0.3754
 2650TIP3    H229510   4.560   1.463   8.569 -2.0362  0.5489 -0.4458
 2651TIP3   OH229511   3.284   2.152   1.943 -0.1329  0.7211  0.0555
 2651TIP3    H129512   3.248   2.065   1.925  0.5964 -0.1640  2.3428
 2651TIP3    H229513   3.338   2.138   2.022 -0.6325  3.4093  0.9648
 2652TIP3   OH229514   4.664   4.739   8.582 -0.1626  0.1717 -0.5662
 2652TIP3    H129515   4.668   4.652   8.621  0.1409  0.1296 -0.6871
 2652TIP3    H229516   4.752   4.774   8.592  0.0135  0.0253 -1.5112
 2653TIP3   OH229517   5.090   6.644   0.395  0.6002  0.0433  0.3606
 2653TIP3    H129518   5.167   6.605   0.352  0.4642  0.9136 -0.7320
 2653TIP3    H229519   5.110   6.640   0.488  1.7117 -0.2984  0.1253
 2654TIP3   OH229520   2.695   4.719   7.315  0.1996 -0.0856 -0.4887
 2654TIP3    H129521   2.608   4.745   7.345 -0.1830  1.6320 -2.7682
 2654TIP3    H229522   2.681   4.636   7.269 -0.3381  0.3456 -1.1303
 2655TIP3   OH229523   3.466   2.452   0.453  0.4382  0.3154 -0.0317
 2655TIP3    H129524   3.439   2.506   0.379 -0.3872 -0.2642 -0.1721
 2655TIP3    H229525   3.507   2.375   0.413  0.6996  0.3689  0.1342
 2656TIP3   OH229526   1.378   5.015   7.249 -0.2881 -0.0770 -0.3245
 2656TIP3    H129527   1.382   5.051   7.338  0.5920 -0.7388 -0.0879
 2656TIP3    H229528   1.338   4.929   7.259  1.2057 -0.7957 -0.3471
 2657TIP3   OH229529   2.022   1.039   2.265 -0.0281 -0.0638  0.5602
 2657TIP3    H129530   1.987   1.109   2.210 -1.1196  0.6977  2.1410
 2657TIP3    H229531   1.958   0.969   2.259  0.8815 -0.8269 -0.7277
 2658TIP3   OH229532   0.893   1.918   8.374 -0.8844  0.4220 -0.3453
 2658TIP3    H129533   0.965   1.981   8.378 -0.0265 -0.5354  0.1185
 2658TIP3    H229534   0.900   1.880   8.287 -1.8758  1.4799 -0.9021
 2659TIP3   OH229535   4.834   3.232   1.676  0.2987  0.8934  0.0840
 2659TIP3    H129536   4.800   3.285   1.748  2.6331  0.8985  1.2728
 2659TIP3    H229537   4.846   3.294   1.604 -2.4518  0.8119 -0.5421
 2660TIP3   OH229538   6.633   2.876   7.073 -0.3791  0.3097  0.1583
 2660TIP3    H129539   6.540   2.899   7.076 -0.6945 -0.4394  5.3857
 2660TIP3    H229540   6.677   2.956   7.045 -2.4767  1.3356 -0.3580
 2661TIP3   OH229541   4.829   6.774   1.679 -0.2228 -0.2050  0.3126
 2661TIP3    H129542   4.842   6.868   1.664 -3.3900  0.1285 -1.3048
 2661TIP3    H229543   4.821   6.766   1.774  1.0573  0.9497  0.5595
 2662TIP3   OH229544   4.558   4.354   8.399 -0.2233 -0.1891  0.0120
 2662TIP3    H129545   4.466   4.339   8.422 -1.1668 -0.0186 -3.1056
 2662TIP3    H229546   4.556   4.432   8.344  1.7928 -0.2358 -0.1916
 2663TIP3   OH229547   1.293   5.338   8.434 -0.4514  0.0395  0.2837
 2663TIP3    H129548   1.257   5.351   8.346 -0.2831 -2.1951 -0.1677
 2663TIP3    H229549   1.365   5.402   8.439 -0.7221  0.4947 -1.0387
 2664TIP3   OH229550   1.404   4.125   2.124  0.1066  0.3382  0.0914
 2664TIP3    H129551   1.478   4.156   2.072  0.5318 -1.0753 -0.1849
 2664TIP3    H229552   1.362   4.060   2.068  0.6010 -1.2536  1.5128
 2665TIP3   OH229553   3.954   4.584   8.160 -0.2077  0.3061  0.3757
 2665TIP3    H129554   3.871   4.624   8.187  1.2165  1.4843  3.5611
 2665TIP3    H229555   3.940   4.490   8.171 -1.3255  0.4363  0.1487
 2666TIP3   OH229556   6.522   2.225   0.855 -0.1118 -0.5559  0.2352
 2666TIP3    H129557   6.609   2.261   0.874 -0.5426  1.6675 -1.5612
 2666TIP3    H229558   6.471   2.242   0.933  0.9166 -1.4811  1.1438
 2667TIP3   OH229559   4.592   0.373   2.097 -0.2591 -0.8117 -0.8258
 2667TIP3    H129560   4.593   0.303   2.032  1.6291 -2.5169  0.9014
 2667TIP3    H229561   4.556   0.333   2.176  2.5082 -0.4548  0.7335
 2668TIP3   OH229562   6.684   4.896   7.971  0.4824 -0.0303 -0.1820
 2668TIP3    H129563   6.685   4.945   7.889 -1.2327  0.1145 -0.1426
 2668TIP3    H229564   6.702   4.961   8.039  0.1069  0.1902 -0.2932
 2669TIP3   OH229565   1.706   1.294   7.841  0.1866  0.5599 -0.2157
 2669TIP3    H129566   1.767   1.326   7.775  0.3839 -0.6302 -0.6426
 2669TIP3    H229567   1.744   1.320   7.925  0.7851  0.6478 -0.5146
 2670TIP3   OH229568   4.403   2.972   0.033 -0.1797  0.0374 -0.3474
 2670TIP3    H129569   4.334   2.938  -0.024 -1.3698  1.1322  0.3991
 2670TIP3    H229570   4.373   3.059   0.060  1.7466  0.7808 -0.4151
 2671TIP3   OH229571   0.924   2.241   3.041  0.1435  0.3425 -0.1001
 2671TIP3    H129572   0.879   2.173   2.992 -2.0195 -0.2416  2.4797
 2671TIP3    H229573   0.951   2.305   2.974 -3.0684 -0.0957 -2.0326
 2672TIP3   OH229574   6.836   4.552   2.302  0.4976 -0.0506 -0.4546
 2672TIP3    H129575   6.769   4.495   2.263 -2.3503  1.4506  1.8174
 2672TIP3    H229576   6.841   4.524   2.394  1.7285  0.9979 -0.1750
 2673TIP3   OH229577   3.412   5.746   1.618  1.4027  0.9236 -0.5643
 2673TIP3    H129578   3.417   5.666   1.567  0.6467  0.8648 -0.5565
 2673TIP3    H229579   3.450   5.813   1.561  2.2943  0.5260 -0.4637
 2674TIP3   OH229580   2.751   4.455   0.104  0.4120 -0.3267 -0.0333
 2674TIP3    H129581   2.755   4.384   0.168  0.7562 -0.1626  0.1288
 2674TIP3    H229582   2.840   4.489   0.100  0.3218 -0.1241 -0.3618
 2675TIP3   OH229583   2.089   0.992   0.992 -0.2807  0.0914  0.2069
 2675TIP3    H129584   2.151   0.945   1.047  3.7719  2.0985 -2.1481
 2675TIP3    H229585   2.060   0.928   0.927  1.0066 -0.4827  0.1621
 2676TIP3   OH229586   2.560   4.707   2.336 -0.0118  0.2787 -0.2512
 2676TIP3    H129587   2.516   4.709   2.420  0.1762  0.7844 -0.1566
 2676TIP3    H229588   2.620   4.782   2.339  1.3338 -0.7680 -0.1125
 2677TIP3   OH229589   3.117   6.297   7.531  0.1575  0.0364 -0.0993
 2677TIP3    H129590   3.054   6.308   7.603 -0.5660 -0.1115 -0.6942
 2677TIP3    H229591   3.196   6.340   7.562  0.5951 -1.9170  1.7027
 2678TIP3   OH229592   1.451   2.036   6.963 -0.2647  0.5980  0.2456
 2678TIP3    H129593   1.457   1.948   6.924  1.7717 -0.4890  2.7235
 2678TIP3    H229594   1.366   2.036   7.007 -0.7469  0.2991 -0.6452
 2679TIP3   OH229595   4.173   6.197   0.605  0.4210  0.1215  0.0750
 2679TIP3    H129596   4.243   6.177   0.543 -0.0629 -0.8665 -0.1750
 2679TIP3    H229597   4.196   6.147   0.684 -0.3477 -0.7899 -0.2520
 2680TIP3   OH229598   4.356   1.161   0.679  0.4620  0.4069  0.1485
 2680TIP3    H129599   4.397   1.211   0.749  0.4214  0.9709 -0.2235
 2680TIP3    H229600   4.357   1.071   0.710  4.2102 -0.0561 -0.8278
 2681TIP3   OH229601   5.950   2.621   2.867  0.2658 -0.1815  0.0028
 2681TIP3    H129602   5.906   2.537   2.860 -1.7954  0.6430  1.8399
 2681TIP3    H229603   5.983   2.639   2.779  0.4160 -2.6841 -0.5147
 2682TIP3   OH229604   3.248   4.134   2.232  0.2491 -0.6817 -0.7399
 2682TIP3    H129605   3.332   4.172   2.258  0.3569 -0.2455 -1.6966
 2682TIP3    H229606   3.237   4.059   2.291  1.4223 -0.8926 -0.7556
 2683TIP3   OH229607   5.347   0.841   8.221 -0.3981 -0.1362  0.1857
 2683TIP3    H129608   5.284   0.801   8.282 -2.5972  2.5726 -0.1003
 2683TIP3    H229609   5.397   0.902   8.275  1.0140 -1.1502  0.0976
 2684TIP3   OH229610   2.326   3.862   7.103  1.1367  0.0276  0.4619
 2684TIP3    H129611   2.318   3.948   7.144  2.5103 -0.5596  2.0789
 2684TIP3    H229612   2.282   3.802   7.163 -0.8324 -0.2948 -1.2215
 2685TIP3   OH229613   0.044   6.579   6.749  0.1017 -0.4812 -0.4804
 2685TIP3    H129614   0.083   6.510   6.696 -0.3758 -2.4356  1.5184
 2685TIP3    H229615   0.016   6.534   6.829 -0.3203  2.0430  0.9003
 2686TIP3   OH229616   6.787   5.430   6.432  0.4858 -0.4391  0.1735
 2686TIP3    H129617   6.783   5.386   6.347  2.3127 -1.2970  0.4951
 2686TIP3    H229618   6.737   5.373   6.491  0.1039 -0.3842 -0.0954
 2687TIP3   OH229619   2.410   5.980   0.495  0.5144 -0.2708  0.0359
 2687TIP3    H129620   2.392   5.969   0.402  0.8684 -1.1980  0.0682
 2687TIP3    H229621   2.478   5.916   0.515 -0.6862 -1.2322  1.2708
 2688TIP3   OH229622   3.732   4.800   1.904  0.5314  0.1204 -0.1616
 2688TIP3    H129623   3.696   4.711   1.898 -1.3692  0.8365 -0.1281
 2688TIP3    H229624   3.695   4.845   1.827  0.7929  1.1032  0.2809
 2689TIP3   OH229625   0.080   4.515   1.709  0.2244  0.2341 -0.2416
 2689TIP3    H129626   0.003   4.562   1.741 -0.2736 -0.6446 -0.1215
 2689TIP3    H229627   0.098   4.449   1.776  0.7139  0.0271 -0.5659
 2690TIP3   OH229628   4.709   3.188   0.252  0.2665  0.1877 -0.1088
 2690TIP3    H129629   4.744   3.153   0.170 -1.8557  0.2443 -1.1000
 2690TIP3    H229630   4.721   3.283   0.245 -0.1940  0.2205 -0.5152
 2691TIP3   OH229631   1.642   1.022   2.044 -0.5050  0.1587 -0.3673
 2691TIP3    H129632   1.657   0.929   2.063 -1.3537  0.4178  1.8184
 2691TIP3    H229633   1.548   1.029   2.030 -0.6957  0.9050  1.0924
 2692TIP3   OH229634   0.589   0.428   1.866  0.0096  0.1957 -0.3963
 2692TIP3    H129635   0.632   0.477   1.937  0.3993  0.0384 -0.5191
 2692TIP3    H229636   0.606   0.336   1.888 -2.4219 -0.0073  0.9327
 2693TIP3   OH229637   1.648   6.104   8.071 -0.5202  0.2195 -0.8693
 2693TIP3    H129638   1.637   6.148   7.986 -2.0165  2.0725  0.2000
 2693TIP3    H229639   1.651   6.176   8.134  0.4674 -1.1249  0.6781
 2694TIP3   OH229640   0.002   3.377   2.289 -0.5625  0.5305 -0.0489
 2694TIP3    H129641   0.078   3.432   2.266 -0.5351  0.0190 -1.2692
 2694TIP3    H229642   0.031   3.328   2.366  1.2558 -1.3412 -1.7884
 2695TIP3   OH229643   2.003   2.954   0.851  0.1584  0.1843  0.3707
 2695TIP3    H129644   1.985   2.876   0.903 -0.8409 -0.7967 -1.3387
 2695TIP3    H229645   2.010   3.025   0.915  1.7022 -1.3654  2.0121
 2696TIP3   OH229646   2.980   5.982   0.300 -0.4887  0.3802 -0.1897
 2696TIP3    H129647   2.994   5.908   0.360 -1.2436  0.0052 -0.4600
 2696TIP3    H229648   3.033   6.052   0.336 -0.2109 -0.1237  0.4028
 2697TIP3   OH229649   6.550   0.022   2.602  0.5052 -0.6954 -0.6327
 2697TIP3    H129650   6.516   0.044   2.689  1.7421 -0.2608 -0.2325
 2697TIP3    H229651   6.518  -0.067   2.586  0.1569 -0.7308  0.2167
 2698TIP3   OH229652   5.933   0.447   8.520 -0.4166  0.4110  0.3540
 2698TIP3    H129653   6.019   0.486   8.535 -0.1151 -0.4943  1.0390
 2698TIP3    H229654   5.932   0.368   8.574 -1.3975  0.0048 -0.2243
 2699TIP3   OH229655   4.914   4.245   7.020  0.2024  0.4691  0.1045
 2699TIP3    H129656   4.962   4.260   6.939 -1.2144  1.5251 -0.5866
 2699TIP3    H229657   4.938   4.319   7.076  0.2432  0.3964  0.1833
 2700TIP3   OH229658   2.431   1.109   2.193 -0.1995 -0.0062 -0.1081
 2700TIP3    H129659   2.361   1.062   2.238 -0.7595  1.5690  0.7775
 2700TIP3    H229660   2.464   1.170   2.260  0.8699  0.4451 -1.0234
 2701TIP3   OH229661   0.884   0.523   0.483  0.0033 -0.8047 -0.3246
 2701TIP3    H129662   0.804   0.533   0.430  0.7335  1.6258 -1.1105
 2701TIP3    H229663   0.855   0.539   0.573 -0.3373  0.6917 -0.6732
 2702TIP3   OH229664   3.824   2.523   7.775  0.5323 -0.3023  0.5079
 2702TIP3    H129665   3.780   2.458   7.830  2.7154 -1.5174  0.9426
 2702TIP3    H229666   3.787   2.607   7.803 -0.5903 -1.1509  1.6918
 2703TIP3   OH229667   0.970   5.915   2.384  0.3622 -0.7582 -0.1258
 2703TIP3    H129668   1.010   5.947   2.464  0.8847 -1.5571 -0.0577
 2703TIP3    H229669   0.933   5.993   2.342  0.2849 -0.3093  0.7721
 2704TIP3   OH229670   2.976   6.152   0.774  0.3569 -0.1533  0.0821
 2704TIP3    H129671   3.049   6.091   0.784 -0.9184 -1.6488  0.6391
 2704TIP3    H229672   3.018   6.238   0.769  2.1017 -0.8315  1.6398
 2705TIP3   OH229673   4.818   0.797   1.144  0.4679  0.6059 -0.4966
 2705TIP3    H129674   4.872   0.789   1.065  1.1785  0.4258 -0.0117
 2705TIP3    H229675   4.880   0.826   1.212  0.2951 -1.0642  0.4331
 2706TIP3   OH229676   2.463   3.148   1.207  0.3417  0.1449 -0.0358
 2706TIP3    H129677   2.422   3.213   1.264 -0.2655  0.0158 -0.3171
 2706TIP3    H229678   2.499   3.083   1.268  0.9081  0.7104  0.2441
 2707TIP3   OH229679   6.052   3.526   1.635 -0.4464 -0.2378  0.3299
 2707TIP3    H129680   6.031   3.575   1.555  0.5118  1.1216  0.8832
 2707TIP3    H229681   5.996   3.565   1.702 -1.6398 -1.7271  0.2657
 2708TIP3   OH229682   0.264   6.217   7.363 -0.0874  0.0513 -0.1866
 2708TIP3    H129683   0.319   6.151   7.407 -1.5228  0.0506  1.7282
 2708TIP3    H229684   0.314   6.298   7.371 -0.7338  0.2738  2.5141
 2709TIP3   OH229685   4.800   0.535   2.132 -0.3967 -0.2167  0.0860
 2709TIP3    H129686   4.828   0.581   2.211 -0.5309  1.0813 -0.6030
 2709TIP3    H229687   4.725   0.483   2.160 -0.0198 -0.3141  0.9570
 2710TIP3   OH229688   3.657   6.372   7.934 -0.3777  0.2464 -0.1765
 2710TIP3    H129689   3.670   6.440   7.868  0.1388  0.3147 -0.0118
 2710TIP3    H229690   3.603   6.306   7.891 -0.9093  0.7681 -0.3307
 2711TIP3   OH229691   3.553   2.532   2.696 -0.0098  0.6830 -0.0754
 2711TIP3    H129692   3.604   2.576   2.628 -1.2272  0.3275 -1.2533
 2711TIP3    H229693   3.491   2.598   2.726 -0.8814  0.2283 -0.8309
 2712TIP3   OH229694   1.748   4.778   0.826  0.0370  0.0888  0.1751
 2712TIP3    H129695   1.737   4.733   0.742  0.4470  1.2427 -0.5227
 2712TIP3    H229696   1.794   4.715   0.881 -1.9342 -1.4365  0.2158
 2713TIP3   OH229697   6.157   1.659   8.623 -0.1386  0.1573 -0.0485
 2713TIP3    H129698   6.167   1.743   8.667  1.0184 -0.0251  0.0722
 2713TIP3    H229699   6.132   1.598   8.692  0.3097  0.1519  0.1141
 2714TIP3   OH229700   2.062   6.302   7.500  0.0122 -0.2062  0.8151
 2714TIP3    H129701   2.025   6.335   7.582  0.5959  2.4198  0.1140
 2714TIP3    H229702   2.001   6.332   7.433  2.0888  2.3172 -0.1452
 2715TIP3   OH229703   2.249   6.769   0.478  0.1081  0.7896 -0.0022
 2715TIP3    H129704   2.190   6.724   0.539  0.3924 -1.1628 -1.0616
 2715TIP3    H229705   2.277   6.847   0.524 -1.3973  0.5095  1.4881
 2716TIP3   OH229706   0.262   0.217   8.634 -0.0288  0.5124  0.3990
 2716TIP3    H129707   0.206   0.239   8.560 -0.0226  1.1105  0.5682
 2716TIP3    H229708   0.232   0.130   8.662 -0.3337  0.4836 -0.0159
 2717TIP3   OH229709   4.205   2.065   8.012  0.1917  0.5446 -0.7301
 2717TIP3    H129710   4.194   2.147   7.963 -0.9053 -0.3707 -2.0677
 2717TIP3    H229711   4.156   2.000   7.962 -0.0481 -0.6756  1.0210
 2718TIP3   OH229712   2.135   2.666   7.857  0.4470  0.1708  0.2661
 2718TIP3    H129713   2.176   2.750   7.837  0.8990 -0.4171 -1.4390
 2718TIP3    H229714   2.092   2.640   7.775 -1.5282 -0.2714  1.3619
 2719TIP3   OH229715   1.331   2.331   2.106 -0.3467 -0.3333  0.2133
 2719TIP3    H129716   1.393   2.292   2.168 -1.3256 -0.4466  1.1742
 2719TIP3    H229717   1.322   2.422   2.135  0.3162  0.0378 -0.7054
 2720TIP3   OH229718   0.877   4.179   7.158 -0.0837  0.2891 -0.2184
 2720TIP3    H129719   0.839   4.248   7.213  1.1024  0.5848  0.2624
 2720TIP3    H229720   0.861   4.209   7.068 -0.2383  0.8169 -0.0219
 2721TIP3   OH229721   4.437   3.167   7.027  1.2365  0.5860  0.3148
 2721TIP3    H129722   4.402   3.220   6.955  1.0735  0.7955  0.5435
 2721TIP3    H229723   4.515   3.126   6.991  2.1226  2.0134  0.5087
 2722TIP3   OH229724   3.607   3.698   1.054  0.2730  0.1684 -0.6311
 2722TIP3    H129725   3.680   3.760   1.064  1.3910 -1.1467 -0.3491
 2722TIP3    H229726   3.649   3.612   1.049 -1.2965 -0.7035  0.2989
 2723TIP3   OH229727   5.111   1.569   1.103  0.4088  0.4044 -0.0805
 2723TIP3    H129728   5.082   1.604   1.019  0.7448 -0.6124 -0.6428
 2723TIP3    H229729   5.195   1.612   1.120  1.6159 -1.1800 -1.5460
 2724TIP3   OH229730   5.615   6.477   2.236 -0.1360  0.1857  0.1990
 2724TIP3    H129731   5.666   6.407   2.196 -0.8316  0.6712 -1.6314
 2724TIP3    H229732   5.664   6.500   2.315  0.2910 -2.0895  0.6664
 2725TIP3   OH229733   6.716   2.198   8.567 -0.3831  0.2189 -0.1859
 2725TIP3    H129734   6.797   2.183   8.518 -0.3978 -1.0931  0.1462
 2725TIP3    H229735   6.655   2.232   8.503  0.5114  1.5500 -0.3745
 2726TIP3   OH229736   0.886   0.886   8.578  0.0982  0.2805  0.2890
 2726TIP3    H129737   0.970   0.923   8.607  0.3040  2.1062 -2.2369
 2726TIP3    H229738   0.840   0.961   8.539 -1.5966 -1.2217 -0.7222
 2727TIP3   OH229739   1.887   6.015   7.554  0.6138  0.3770  0.0394
 2727TIP3    H129740   1.874   6.110   7.560  2.1598  0.7747 -1.9913
 2727TIP3    H229741   1.815   5.978   7.605 -1.5572  2.5715 -1.2212
 2728TIP3   OH229742   4.983   2.674   8.537 -0.0117  0.3726  0.1387
 2728TIP3    H129743   5.040   2.722   8.597  0.8019  0.7268 -0.8985
 2728TIP3    H229744   4.974   2.732   8.462 -2.3774  0.6724  0.5750
 2729TIP3   OH229745   2.124   4.857   2.373  0.0050 -0.0346 -0.0974
 2729TIP3    H129746   2.132   4.809   2.290 -0.7836 -0.1599 -0.1148
 2729TIP3    H229747   2.074   4.799   2.429 -1.3008  0.8994 -0.2474
 2730TIP3   OH229748   3.150   3.615   7.526 -0.1381  0.5124 -0.0204
 2730TIP3    H129749   3.152   3.644   7.617  0.5870 -0.4008  0.2674
 2730TIP3    H229750   3.111   3.688   7.478  1.4809  1.9211  0.6928
 2731TIP3   OH229751   0.918   2.575   0.760  0.5603  0.2515 -0.0133
 2731TIP3    H129752   0.877   2.544   0.679 -1.8261 -0.7908  1.4891
 2731TIP3    H229753   0.907   2.670   0.758 -0.7964  0.0985 -0.2646
 2732TIP3   OH229754   0.420   0.625   8.633 -0.8352 -0.1741  0.3173
 2732TIP3    H129755   0.472   0.671   8.699 -1.1659  1.2304 -0.3614
 2732TIP3    H229756   0.459   0.538   8.628 -0.8606 -0.3549  2.4260
 2733TIP3   OH229757   0.794   0.408   0.142 -0.2061  0.1662 -0.5737
 2733TIP3    H129758   0.805   0.502   0.131  0.5576  0.0972 -0.4320
 2733TIP3    H229759   0.733   0.399   0.215 -1.2563  0.5611 -1.3746
 2734TIP3   OH229760   2.539   6.844   2.115  0.4362 -0.3922  0.0138
 2734TIP3    H129761   2.537   6.909   2.185  2.0796 -0.4718  0.1794
 2734TIP3    H229762   2.618   6.793   2.132  0.0690 -1.3633 -1.0650
 2735TIP3   OH229763   0.241   5.492   7.770 -0.1283 -0.0361  0.6259
 2735TIP3    H129764   0.239   5.416   7.829 -0.6520  0.0001  0.6581
 2735TIP3    H229765   0.287   5.461   7.692  1.7862  0.2861  1.5623
 2736TIP3   OH229766   1.626   0.266   7.870 -0.4981 -0.1284  0.0846
 2736TIP3    H129767   1.593   0.205   7.804 -1.3131  0.1604  0.2068
 2736TIP3    H229768   1.576   0.246   7.949 -0.3812  0.3210  0.2768
 2737TIP3   OH229769   0.119   0.294   2.431  0.0061 -0.1657 -0.5594
 2737TIP3    H129770   0.115   0.389   2.428 -0.3674 -0.1791 -0.6340
 2737TIP3    H229771   0.049   0.269   2.492 -1.5048 -0.4812 -2.3039
 2738TIP3   OH229772   6.324   0.981   8.455 -0.4730 -0.4942  0.2570
 2738TIP3    H129773   6.243   0.995   8.406 -0.4635 -0.0957  0.3553
 2738TIP3    H229774   6.362   0.903   8.415  1.0538  1.4526 -2.4469
 2739TIP3   OH229775   1.075   6.760   0.590  0.0742  0.6204  0.4680
 2739TIP3    H129776   1.140   6.830   0.585  1.3228 -0.5717 -1.6037
 2739TIP3    H229777   1.012   6.780   0.522  1.5616 -1.2059 -1.5941
 2740TIP3   OH229778   5.133   5.064   7.018 -0.3303  0.4105  0.4312
 2740TIP3    H129779   5.107   5.100   7.102  0.8289  1.8332  0.2190
 2740TIP3    H229780   5.136   4.969   7.032  0.1100  0.6403  2.0752
 2741TIP3   OH229781   3.135   6.350   0.027 -0.1580 -0.6076 -0.2053
 2741TIP3    H129782   3.206   6.297   0.063  0.0521  1.0674  1.9962
 2741TIP3    H229783   3.086   6.379   0.103 -0.4736  2.0546 -1.3294
 2742TIP3   OH229784   1.538   0.875   1.197  0.1308  0.3224 -0.0934
 2742TIP3    H129785   1.469   0.842   1.254 -0.2058  0.3149 -0.4966
 2742TIP3    H229786   1.604   0.805   1.195  0.8591  0.9313  1.4684
 2743TIP3   OH229787   1.972   6.373   2.082  0.2387  0.6756  0.1652
 2743TIP3    H129788   1.892   6.394   2.129  0.5265  1.3906  0.3483
 2743TIP3    H229789   1.955   6.288   2.042 -0.2851  0.4209  0.9243
 2744TIP3   OH229790   3.272   4.545   7.945  0.2872 -0.1709 -0.3148
 2744TIP3    H129791   3.318   4.477   7.895  1.3628 -0.4265  0.9498
 2744TIP3    H229792   3.214   4.496   8.004  0.5331  0.0222  0.0960
 2745TIP3   OH229793   1.035   5.080   7.604 -0.1876  0.0896 -0.0665
 2745TIP3    H129794   0.979   5.149   7.640  1.2921  1.2129  0.2164
 2745TIP3    H229795   1.026   5.007   7.664  0.1474  0.9688  1.0858
 2746TIP3   OH229796   3.961   1.977   0.633 -0.0837  0.2861  0.1474
 2746TIP3    H129797   3.976   1.902   0.576 -0.5095 -0.4183  0.9388
 2746TIP3    H229798   3.886   1.951   0.687  1.9787 -0.2649  2.9955
 2747TIP3   OH229799   2.503   3.633   8.554  0.2424 -0.3704  0.2032
 2747TIP3    H129800   2.416   3.670   8.564  0.2804 -0.2781  0.1961
 2747TIP3    H229801   2.539   3.632   8.643  0.8971  1.2309 -0.0013
 2748TIP3   OH229802   6.368   0.489   1.490  0.2174 -0.6179 -0.1062
 2748TIP3    H129803   6.396   0.567   1.443  0.8197  0.0354  1.2967
 2748TIP3    H229804   6.395   0.416   1.434  0.9392  0.1287 -0.7458
 2749TIP3   OH229805   4.232   6.703   7.269  0.0625  0.1801 -0.1484
 2749TIP3    H129806   4.303   6.643   7.293  0.1812 -0.4877 -1.9992
 2749TIP3    H229807   4.174   6.651   7.214 -0.7824  1.2942 -0.3420
 2750TIP3   OH229808   0.106   2.294   1.713 -0.3164 -0.7501  0.0125
 2750TIP3    H129809   0.160   2.250   1.779  1.1456 -0.6983 -1.1076
 2750TIP3    H229810   0.038   2.231   1.691  0.6767 -1.7596 -0.2437
 2751TIP3   OH229811   5.294   4.463   8.035  0.5615  0.0293 -0.6124
 2751TIP3    H129812   5.319   4.545   7.992 -1.5827  1.0998  0.0738
 2751TIP3    H229813   5.206   4.445   8.003  1.1084 -2.2298 -1.0082
 2752TIP3   OH229814   4.476   3.870   1.887  0.0503  0.0514  0.0299
 2752TIP3    H129815   4.511   3.923   1.959 -1.0135  1.0448 -0.1431
 2752TIP3    H229816   4.503   3.781   1.907  1.8241  0.6338  0.3853
 2753TIP3   OH229817   5.727   3.065   7.367  0.6830  0.1379  0.0133
 2753TIP3    H129818   5.688   3.042   7.283 -1.6343  1.8634  0.5011
 2753TIP3    H229819   5.806   3.114   7.344 -0.3655  1.3393 -1.2477
 2754TIP3   OH229820   6.762   2.837   7.844 -0.0109  0.5559  0.4124
 2754TIP3    H129821   6.792   2.771   7.906 -0.3040  0.0590  0.0331
 2754TIP3    H229822   6.843   2.875   7.809  0.1665  0.0420  0.2585
 2755TIP3   OH229823   5.497   6.247   8.466 -0.4123 -0.2204  0.4240
 2755TIP3    H129824   5.475   6.341   8.460  0.8840  0.2345  2.1545
 2755TIP3    H229825   5.583   6.240   8.427 -0.4192 -0.6672  0.4820
 2756TIP3   OH229826   4.894   5.471   7.688  1.2539  0.1534 -0.8127
 2756TIP3    H129827   4.908   5.380   7.663 -1.9639 -0.7526  0.1321
 2756TIP3    H229828   4.837   5.506   7.619  1.4879  1.1001 -0.5400
 2757TIP3   OH229829   4.578   1.111   6.878  0.4317  0.2614  0.2519
 2757TIP3    H129830   4.600   1.103   6.971  0.3574 -0.1639  0.2354
 2757TIP3    H229831   4.631   1.044   6.835 -0.2442 -0.1914  0.1081
 2758TIP3   OH229832   6.456   2.475   1.433  0.0881  0.1865 -0.0956
 2758TIP3    H129833   6.368   2.457   1.398 -1.4475  2.7582  2.1105
 2758TIP3    H229834   6.485   2.553   1.385  0.9708 -0.3144 -0.4005
 2759TIP3   OH229835   4.607   0.608   7.514  0.3823 -0.0156  0.0307
 2759TIP3    H129836   4.569   0.644   7.594 -0.7126 -0.0430 -0.4569
 2759TIP3    H229837   4.534   0.603   7.453  1.0060 -0.8726 -0.6760
 2760TIP3   OH229838   5.618   0.637   2.496  0.1511  0.5341  0.0977
 2760TIP3    H129839   5.566   0.686   2.432 -1.7272 -1.4505 -0.0205
 2760TIP3    H229840   5.554   0.612   2.563  1.2391 -0.9002  0.6239
 2761TIP3   OH229841   2.994   5.555   2.789  0.5371 -0.3739  0.6604
 2761TIP3    H129842   3.065   5.616   2.808 -0.2664  1.3441 -1.4523
 2761TIP3    H229843   2.983   5.559   2.694  0.8626 -4.3912  0.3051
 2762TIP3   OH229844   2.382   1.600   0.681 -0.4293 -0.0909 -0.3764
 2762TIP3    H129845   2.462   1.636   0.720 -0.8924  2.1460 -1.3477
 2762TIP3    H229846   2.414   1.539   0.615  0.4401 -0.1633  0.0875
 2763TIP3   OH229847   0.364   2.789   0.348  0.2928 -0.1331  0.0061
 2763TIP3    H129848   0.374   2.730   0.423 -1.7341  0.9468  1.2172
 2763TIP3    H229849   0.295   2.749   0.295  0.2731  0.1474 -0.1829
 2764TIP3   OH229850   6.005   6.798   7.766 -0.2582  0.0567 -0.2134
 2764TIP3    H129851   5.942   6.863   7.796 -0.2698 -0.1314  0.1825
 2764TIP3    H229852   6.037   6.832   7.683  0.4086  1.0330  0.4234
 2765TIP3   OH229853   5.900   2.895   1.087 -0.3018  0.6003 -0.4509
 2765TIP3    H129854   5.866   2.818   1.132 -1.5200  2.4399  2.0837
 2765TIP3    H229855   5.822   2.944   1.061  0.3211  2.6715  1.3011
 2766TIP3   OH229856   6.357   4.249   2.871  0.0734  0.5587 -0.3024
 2766TIP3    H129857   6.378   4.336   2.906  1.4999  0.1876 -0.1619
 2766TIP3    H229858   6.440   4.217   2.836 -0.2115 -1.1276  0.4711
 2767TIP3   OH229859   1.924   5.583   1.072  0.2253 -0.0017  0.5985
 2767TIP3    H129860   1.856   5.601   1.136  1.3335 -0.3870  1.9407
 2767TIP3    H229861   2.000   5.633   1.102  0.8958 -0.5180 -0.1704
 2768TIP3   OH229862   1.958   0.817   3.019 -0.3941  0.5110  0.8527
 2768TIP3    H129863   2.019   0.870   3.070  0.2526  0.7370 -0.1257
 2768TIP3    H229864   2.013   0.764   2.962 -1.0265 -1.3011  1.8405
 2769TIP3   OH229865   5.880   5.709   2.856 -0.0448 -0.4979 -0.0712
 2769TIP3    H129866   5.949   5.717   2.921 -1.1085 -0.2278  1.0589
 2769TIP3    H229867   5.818   5.646   2.894  0.5411 -2.3518 -1.9598
 2770TIP3   OH229868   5.312   6.298   7.517 -0.1464 -0.9965  0.4559
 2770TIP3    H129869   5.334   6.257   7.433 -0.9108  1.4523 -1.0540
 2770TIP3    H229870   5.228   6.259   7.541 -0.7186 -0.6001 -0.7909
 2771TIP3   OH229871   5.751   0.136   2.025 -0.1137  0.1368  0.3655
 2771TIP3    H129872   5.729   0.044   2.039  1.8359 -0.7758 -1.8261
 2771TIP3    H229873   5.846   0.135   2.013 -0.2384  2.2108 -1.1831
 2772TIP3   OH229874   5.820   5.455   1.357 -0.6073  0.2106  0.1169
 2772TIP3    H129875   5.872   5.412   1.288  1.2193 -2.5073  2.8975
 2772TIP3    H229876   5.742   5.400   1.365  0.0927 -0.6432  1.3894
 2773TIP3   OH229877   3.383   1.713   1.986  0.5225  0.1781  0.0609
 2773TIP3    H129878   3.413   1.701   2.076  1.2336 -1.9886 -0.4125
 2773TIP3    H229879   3.289   1.694   1.989  0.7795 -1.1615  0.1507
 2774TIP3   OH229880   2.105   5.318   1.258 -0.0920 -0.2211  0.0192
 2774TIP3    H129881   2.178   5.298   1.316  0.0417  0.9030  0.2597
 2774TIP3    H229882   2.037   5.255   1.282  0.9196 -1.5476 -0.4815
 2775TIP3   OH229883   6.463   4.955   8.221 -0.6336  0.8315 -0.4584
 2775TIP3    H129884   6.389   4.927   8.167 -1.0169 -0.3954  0.6554
 2775TIP3    H229885   6.506   4.874   8.248  0.3597  1.4765 -0.0315
 2776TIP3   OH229886   5.688   0.554   0.227 -0.1105  0.6653 -0.3705
 2776TIP3    H129887   5.705   0.522   0.316 -0.6834 -0.4763 -0.6578
 2776TIP3    H229888   5.597   0.530   0.209  0.6014 -1.0521 -2.0383
 2777TIP3   OH229889   1.093   4.339   2.220  0.3839  0.4301  0.1693
 2777TIP3    H129890   1.093   4.262   2.278  1.8175  0.5470  0.3430
 2777TIP3    H229891   1.002   4.370   2.222  0.2462 -0.0084  1.7628
 2778TIP3   OH229892   5.362   0.129   7.029 -0.2770  0.1436 -0.3014
 2778TIP3    H129893   5.455   0.153   7.030 -0.3446  0.8934 -3.0598
 2778TIP3    H229894   5.319   0.195   7.083  0.2233  3.2157 -3.3118
 2779TIP3   OH229895   1.471   0.161   8.306  0.0788  0.4358 -0.2453
 2779TIP3    H129896   1.522   0.150   8.386  0.0719  1.2468 -0.1208
 2779TIP3    H229897   1.454   0.255   8.301 -1.4321  0.1837 -0.2703
 2780TIP3   OH229898   0.663   4.603   6.830 -0.3913 -0.2143  0.3349
 2780TIP3    H129899   0.749   4.579   6.864 -0.1152 -0.7815 -0.7117
 2780TIP3    H229900   0.656   4.556   6.747 -2.0557 -0.8478  0.7877
 2781TIP3   OH229901   3.839   6.412   0.753  0.2306  0.3670  0.3579
 2781TIP3    H129902   3.886   6.333   0.778 -0.7316 -0.3990 -0.1868
 2781TIP3    H229903   3.890   6.447   0.680 -0.0741 -0.5141 -0.2960
 2782TIP3   OH229904   1.511   2.544   0.091  0.4065 -0.9436  0.5515
 2782TIP3    H129905   1.492   2.459   0.052 -1.3858  0.1638 -1.1323
 2782TIP3    H229906   1.433   2.565   0.142  0.3763  0.1606  0.0699
 2783TIP3   OH229907   1.487   5.880   6.336 -0.0285 -0.3895 -0.0703
 2783TIP3    H129908   1.493   5.876   6.432  0.8021  0.0806 -0.0903
 2783TIP3    H229909   1.498   5.973   6.315  0.3424 -0.5537 -0.6471
 2784TIP3   OH229910   2.035   0.590   7.791  0.0397  0.5933  0.5591
 2784TIP3    H129911   2.130   0.591   7.778  0.2536  0.8606  2.0379
 2784TIP3    H229912   2.007   0.505   7.755  0.6378  1.0234 -1.0185
 2785TIP3   OH229913   3.476   4.692   8.092 -0.0721 -0.0948  0.2615
 2785TIP3    H129914   3.551   4.635   8.073 -0.6123 -1.0406  0.8450
 2785TIP3    H229915   3.408   4.662   8.032  0.1501  1.0946 -0.6161
 2786TIP3   OH229916   3.496   3.668   1.376  0.0531 -0.5358 -0.2907
 2786TIP3    H129917   3.592   3.667   1.385 -0.0387 -1.2395  0.8121
 2786TIP3    H229918   3.472   3.578   1.357 -0.5552 -0.9069  1.9148
 2787TIP3   OH229919   3.814   0.449   6.701 -0.0911 -0.3867 -0.0037
 2787TIP3    H129920   3.843   0.517   6.761  0.5191  1.3317 -2.1360
 2787TIP3    H229921   3.719   0.462   6.694 -0.2525 -0.9382  0.9339
 2788TIP3   OH229922   6.415   6.430   2.375 -0.3350 -0.4732 -0.3421
 2788TIP3    H129923   6.378   6.508   2.416 -0.2770 -0.3119 -0.5937
 2788TIP3    H229924   6.382   6.432   2.285  0.1336 -0.4227 -0.5193
 2789TIP3   OH229925   1.352   3.142   2.477 -0.0338  0.1759  0.1729
 2789TIP3    H129926   1.262   3.144   2.443  0.7799  0.3047 -2.1067
 2789TIP3    H229927   1.344   3.175   2.567 -2.3116 -0.2121  0.1742
 2790TIP3   OH229928   1.496   0.658   1.827  0.6650  0.5511  0.2168
 2790TIP3    H129929   1.407   0.622   1.832  0.7272  0.4281  0.4546
 2790TIP3    H229930   1.537   0.611   1.755  0.9985 -0.4234  1.0104
 2791TIP3   OH229931   4.517   0.521   1.710  0.1804  0.3918 -0.5679
 2791TIP3    H129932   4.490   0.536   1.801 -1.7227 -0.6592 -0.9013
 2791TIP3    H229933   4.501   0.604   1.666 -3.3278 -0.2330 -0.8452
 2792TIP3   OH229934   0.759   1.138   1.242 -0.5110 -0.0951  0.3034
 2792TIP3    H129935   0.701   1.138   1.165 -0.5182  0.2314  0.3088
 2792TIP3    H229936   0.721   1.203   1.301 -0.2212  0.0163  0.3701
 2793TIP3   OH229937   1.063   3.759   2.326  0.3158  0.3949 -0.6100
 2793TIP3    H129938   1.022   3.679   2.357 -0.7468  0.4464 -1.8045
 2793TIP3    H229939   1.097   3.801   2.405  0.1064 -0.7827  0.1285
 2794TIP3   OH229940   5.206   2.898   7.561  0.2178 -0.9690 -0.1443
 2794TIP3    H129941   5.293   2.870   7.533  0.3384  0.6997 -1.6382
 2794TIP3    H229942   5.219   2.937   7.647  1.4873  1.5741 -1.3947
 2795TIP3   OH229943   2.147   5.689   0.657  0.0257 -0.2442 -0.1880
 2795TIP3    H129944   2.064   5.676   0.612  0.8401  0.1013 -1.8354
 2795TIP3    H229945   2.211   5.699   0.588  1.0966  1.9471  1.0249
 2796TIP3   OH229946   0.077   3.025   2.411  0.0412 -0.2874 -0.0577
 2796TIP3    H129947   0.140   2.975   2.463  0.3697  0.3345  0.1481
 2796TIP3    H229948  -0.006   2.979   2.424  0.5607 -1.5005 -0.8595
 2797TIP3   OH229949   4.688   5.395   0.677 -0.0664  0.2045  0.2140
 2797TIP3    H129950   4.710   5.407   0.770 -0.6015  0.9496  0.2519
 2797TIP3    H229951   4.697   5.300   0.663 -1.0050 -0.0735  1.3054
 2798TIP3   OH229952   0.474   4.590   1.290  0.2421 -0.6114  0.0219
 2798TIP3    H129953   0.392   4.609   1.244  0.2103 -1.3253 -0.2282
 2798TIP3    H229954   0.485   4.496   1.282  1.1709 -0.5047 -0.0748
 2799TIP3   OH229955   0.425   0.735   0.519 -0.4756 -1.1158  0.1147
 2799TIP3    H129956   0.345   0.684   0.520 -1.6249  0.5884  0.6808
 2799TIP3    H229957   0.447   0.744   0.427 -1.2111 -1.2185 -0.0751
 2800TIP3   OH229958   0.163   1.058   8.306  0.5420  0.4287  0.0368
 2800TIP3    H129959   0.129   1.053   8.396  1.7448  0.7613  0.5370
 2800TIP3    H229960   0.257   1.041   8.315  0.9304  1.8068 -0.9707
 2801TIP3   OH229961   5.770   6.428   0.022  0.3112 -0.1652 -0.2999
 2801TIP3    H129962   5.675   6.426   0.025  0.3272 -0.9532  0.1491
 2801TIP3    H229963   5.797   6.405   0.111  0.9325  2.2943  0.2170
 2802TIP3   OH229964   4.290   3.625   2.333 -0.2901 -0.6288 -0.0182
 2802TIP3    H129965   4.267   3.644   2.242 -1.6277 -2.2701 -0.0806
 2802TIP3    H229966   4.206   3.625   2.380 -0.0546 -3.0739  0.5326
 2803TIP3   OH229967   4.353   2.693   2.283 -0.2732  0.6773  0.2164
 2803TIP3    H129968   4.336   2.611   2.329 -0.1085  0.0286 -0.8335
 2803TIP3    H229969   4.435   2.725   2.321  0.7504 -0.6896 -0.7133
 2804TIP3   OH229970   4.496   0.643   7.746 -0.5971 -0.2061 -0.2548
 2804TIP3    H129971   4.406   0.642   7.712 -0.6854  1.9497 -0.2306
 2804TIP3    H229972   4.487   0.662   7.839 -0.1236  1.6246 -0.5310
 2805TIP3   OH229973   1.735   1.170   0.444 -0.0139 -0.0415 -0.0254
 2805TIP3    H129974   1.654   1.138   0.484 -0.0908  2.0065  1.6495
 2805TIP3    H229975   1.708   1.200   0.357 -0.8590 -0.1746  0.1731
 2806TIP3   OH229976   5.190   5.428   1.836  0.5103  0.0958  0.7244
 2806TIP3    H129977   5.263   5.378   1.800  0.3063  0.2968  0.0183
 2806TIP3    H229978   5.121   5.364   1.849 -0.8507  0.5738 -3.0583
 2807TIP3   OH229979   3.307   1.713   2.278  0.2319  0.7095 -0.3676
 2807TIP3    H129980   3.276   1.755   2.359  0.9413  0.9081 -0.1966
 2807TIP3    H229981   3.345   1.630   2.307  1.1821  1.1230 -0.4004
 2808TIP3   OH229982   0.088   5.133   1.447 -0.2811  0.2304 -0.4200
 2808TIP3    H129983   0.062   5.108   1.536 -0.5433  0.4075 -0.4454
 2808TIP3    H229984   0.132   5.055   1.412  0.4143  0.3920  0.0958
 2809TIP3   OH229985   5.798   1.370   1.015 -0.4468  0.1342 -0.6188
 2809TIP3    H129986   5.716   1.396   1.057  0.2109 -1.9452  2.2841
 2809TIP3    H229987   5.860   1.439   1.039 -0.4492 -0.2633  0.5923
 2810TIP3   OH229988   6.802   0.154   1.967  0.0252  0.2812 -0.1030
 2810TIP3    H129989   6.760   0.179   2.050  1.2835  0.1221  0.6163
 2810TIP3    H229990   6.823   0.062   1.978  0.7709  0.4166 -0.3364
 2811TIP3   OH229991   1.964   2.414   2.105  0.1608  0.0924  0.0755
 2811TIP3    H129992   2.041   2.442   2.154  0.4553 -1.2973  0.4208
 2811TIP3    H229993   1.944   2.490   2.050  3.3812 -0.3682 -2.0315
 2812TIP3   OH229994   3.759   3.445   1.873  0.1408 -0.5272 -0.1461
 2812TIP3    H129995   3.705   3.436   1.794 -0.7381 -2.1451  0.5941
 2812TIP3    H229996   3.838   3.395   1.853  1.2465  1.4703 -1.0577
 2813TIP3   OH229997   3.994   5.982   0.277 -0.1531  0.7579 -0.3619
 2813TIP3    H129998   4.025   6.011   0.191  1.4693  0.0538 -0.0540
 2813TIP3    H229999   4.074   5.969   0.328 -1.0338  0.0173  0.8822
 2814TIP3   OH230000   1.197   0.709   2.029  0.3168 -0.3853  0.1730
 2814TIP3    H130001   1.195   0.655   1.950 -2.6862 -0.2611  0.0558
 2814TIP3    H230002   1.252   0.660   2.090  0.3242 -1.9472 -1.0242
 2815TIP3   OH230003   3.092   5.432   7.406  0.4916  0.5355  0.2714
 2815TIP3    H130004   3.184   5.443   7.429  0.8313  0.4797 -1.0029
 2815TIP3    H230005   3.079   5.486   7.328 -0.3036 -0.2136 -0.1425
 2816TIP3   OH230006   6.680   6.822   2.219 -0.1301  0.7676 -0.2613
 2816TIP3    H130007   6.755   6.866   2.259  0.1569 -1.1702  1.5194
 2816TIP3    H230008   6.708   6.731   2.210 -2.3416 -0.0965  0.7824
 2817TIP3   OH230009   3.707   1.082   8.299  0.3718  0.4290  0.1932
 2817TIP3    H130010   3.718   1.112   8.208  0.0407 -0.9806 -0.3426
 2817TIP3    H230011   3.612   1.082   8.312  0.2461 -1.6107 -0.3096
 2818TIP3   OH230012   4.576   3.015   1.252  0.0330  1.0305 -0.3228
 2818TIP3    H130013   4.552   2.923   1.243 -0.7917  1.2705 -0.7881
 2818TIP3    H230014   4.545   3.040   1.339  2.0627  0.3772  0.6341
 2819TIP3   OH230015   1.433   1.201   7.792  0.0235  0.2945  0.1891
 2819TIP3    H130016   1.524   1.227   7.805  0.5502 -1.3409  0.0825
 2819TIP3    H230017   1.390   1.278   7.757  2.1714  0.1510 -3.1416
 2820TIP3   OH230018   4.441   2.986   7.611 -0.1463 -0.0036 -0.4801
 2820TIP3    H130019   4.430   2.903   7.657  2.1562  1.6146  3.3963
 2820TIP3    H230020   4.525   2.978   7.566 -0.0701  0.1457 -0.3624
 2821TIP3   OH230021   6.289   3.919   1.033  0.0410 -0.2595  0.6532
 2821TIP3    H130022   6.278   3.852   0.965 -0.8231 -0.2745  0.7895
 2821TIP3    H230023   6.344   3.986   0.992 -1.4686  0.3297 -0.5255
 2822TIP3   OH230024   6.129   4.538   8.082  0.3495  0.2039 -0.3402
 2822TIP3    H130025   6.207   4.499   8.121  0.1451 -1.0019 -1.0979
 2822TIP3    H230026   6.126   4.504   7.993  0.0394  1.8185 -0.9834
 2823TIP3   OH230027   2.525   4.696   8.583 -0.1995 -0.3029 -0.3749
 2823TIP3    H130028   2.495   4.616   8.627  0.9601 -0.6838 -0.2263
 2823TIP3    H230029   2.618   4.703   8.607 -0.7243  2.1776  1.2301
 2824TIP3   OH230030   2.268   0.775   7.416  0.0381  0.1134 -0.3420
 2824TIP3    H130031   2.213   0.844   7.453 -0.1722 -0.3962  0.3239
 2824TIP3    H230032   2.217   0.742   7.342 -0.4614 -0.1988  0.1325
 2825TIP3   OH230033   2.850   4.364   0.534  0.6896 -0.9439  0.2731
 2825TIP3    H130034   2.838   4.312   0.614 -0.0782  1.4002  1.7848
 2825TIP3    H230035   2.765   4.359   0.490 -0.4100  1.3104  1.9462
 2826TIP3   OH230036   6.007   4.637   0.881 -0.0297  0.0102 -0.6518
 2826TIP3    H130037   6.038   4.552   0.848  3.2417  0.3881  1.0666
 2826TIP3    H230038   6.083   4.695   0.873 -1.6645  2.3571 -0.2118
 2827TIP3   OH230039   5.120   1.570   7.818 -0.1973 -0.2434 -0.2098
 2827TIP3    H130040   5.103   1.660   7.792  1.4409 -0.2197 -1.3995
 2827TIP3    H230041   5.195   1.575   7.877  0.1980 -0.8370 -0.6382
 2828TIP3   OH230042   4.946   1.408   8.095 -0.5890  0.1635  0.3648
 2828TIP3    H130043   4.946   1.413   8.191  0.3981 -0.4931  0.4123
 2828TIP3    H230044   5.022   1.460   8.069  1.3515 -2.6168  0.1518
 2829TIP3   OH230045   6.236   0.159   1.971 -0.1834 -0.4405  0.0997
 2829TIP3    H130046   6.317   0.132   2.014 -0.3751 -1.1043  0.0467
 2829TIP3    H230047   6.240   0.255   1.972  0.2530 -0.4562  0.7562
 2830TIP3   OH230048   2.494   3.847   6.813 -0.0976  0.0195 -0.3632
 2830TIP3    H130049   2.587   3.868   6.817  0.2914 -1.6809  0.2161
 2830TIP3    H230050   2.457   3.913   6.754  1.2905  1.2771  0.1065
 2831TIP3   OH230051   3.071   4.436   8.119 -0.5674  0.2734  0.6141
 2831TIP3    H130052   3.102   4.354   8.157 -2.3332 -0.5501  0.4054
 2831TIP3    H230053   3.002   4.465   8.179 -0.8346  0.9107  0.0088
 2832TIP3   OH230054   3.396   6.689   7.717  0.2105 -0.4674 -0.0995
 2832TIP3    H130055   3.363   6.730   7.637 -0.5843 -1.6554 -0.4162
 2832TIP3    H230056   3.374   6.596   7.707 -0.3089 -0.5794  1.6822
 2833TIP3   OH230057   1.070   6.648   2.668  0.0173  0.6520 -0.1388
 2833TIP3    H130058   1.044   6.662   2.759  0.6418 -0.7300  0.2692
 2833TIP3    H230059   1.065   6.735   2.628 -1.1898  1.1146  0.9569
 2834TIP3   OH230060   3.874   0.988   1.526  0.3054 -0.4199  0.2738
 2834TIP3    H130061   3.790   1.029   1.506  0.5421 -0.4475 -0.8423
 2834TIP3    H230062   3.939   1.051   1.498  0.6611 -0.7686  0.3060
 2835TIP3   OH230063   0.138   5.568   2.043 -0.3192 -0.2599 -0.3573
 2835TIP3    H130064   0.131   5.585   1.950 -0.1081 -1.0211 -0.5182
 2835TIP3    H230065   0.232   5.573   2.062 -0.4143  0.5128 -0.0613
 2836TIP3   OH230066   1.399   2.025   8.454  0.1255  0.1184 -0.0766
 2836TIP3    H130067   1.405   2.119   8.469  0.3282  0.2113 -0.6962
 2836TIP3    H230068   1.489   1.997   8.435 -0.2264  0.2450 -2.2568
 2837TIP3   OH230069   4.072   0.993   8.161  0.0598 -0.1544  0.3673
 2837TIP3    H130070   4.141   1.057   8.143 -0.0230  0.2282  1.3028
 2837TIP3    H230071   4.024   0.985   8.079 -1.2636  2.6325  0.7617
 2838TIP3   OH230072   0.653   3.315   1.042  0.1557 -0.0526  0.4333
 2838TIP3    H130073   0.723   3.328   0.978  0.4213  0.6215  0.8514
 2838TIP3    H230074   0.589   3.260   0.997  0.5912 -0.0334 -0.2191
 2839TIP3   OH230075   2.316   3.877   7.639  0.2908  0.0679  0.4670
 2839TIP3    H130076   2.346   3.928   7.564  0.0746 -0.3713  0.0801
 2839TIP3    H230077   2.289   3.943   7.703  3.3165  0.5848  1.4114
 2840TIP3   OH230078   4.463   6.289   0.697 -0.3287 -0.0280  0.2198
 2840TIP3    H130079   4.441   6.321   0.610 -0.3972 -2.1572 -0.6126
 2840TIP3    H230080   4.391   6.318   0.753 -0.3083  1.3140 -0.4246
 2841TIP3   OH230081   2.785   2.846   7.092 -0.1510 -0.1102  0.1573
 2841TIP3    H130082   2.772   2.770   7.036  0.4980  0.4977 -0.8450
 2841TIP3    H230083   2.867   2.885   7.062 -0.7099  1.2477  0.3224
 2842TIP3   OH230084   1.504   4.850   0.765  0.3669 -0.1900  0.5741
 2842TIP3    H130085   1.575   4.814   0.818  0.7348  0.7193  0.7122
 2842TIP3    H230086   1.455   4.906   0.825  0.2981  0.2004  0.1576
 2843TIP3   OH230087   4.786   1.937   0.957 -0.1143 -0.3950 -0.1331
 2843TIP3    H130088   4.813   1.931   0.865 -1.4419 -0.4967 -0.5231
 2843TIP3    H230089   4.834   2.014   0.990  1.6506 -1.3052 -0.4287
 2844TIP3   OH230090   3.965   5.405   0.859  0.1010 -0.1733  0.7319
 2844TIP3    H130091   3.930   5.327   0.902  0.0225 -1.1430 -1.0086
 2844TIP3    H230092   4.018   5.371   0.786 -0.6019  1.3919 -0.5772
 2845TIP3   OH230093   0.916   4.119   1.998 -0.1593 -0.3124  0.1330
 2845TIP3    H130094   0.947   4.208   1.980 -1.8693  0.1953 -0.4807
 2845TIP3    H230095   0.926   4.072   1.915 -1.6632  0.0734 -0.2936
 2846TIP3   OH230096   0.958   4.878   8.427 -0.1083 -0.0364 -0.4515
 2846TIP3    H130097   1.007   4.924   8.359  2.3495 -0.2876  1.0228
 2846TIP3    H230098   0.965   4.935   8.504 -0.6784 -0.8876  0.2556
 2847TIP3   OH230099   5.780   5.241   7.398  0.0846  0.7002  0.0074
 2847TIP3    H130100   5.687   5.221   7.408  0.1309 -0.0243 -0.8443
 2847TIP3    H230101   5.790   5.262   7.305  1.2255 -1.9747 -0.5687
 2848TIP3   OH230102   2.602   2.638   7.311  0.0609  0.1644 -0.2822
 2848TIP3    H130103   2.574   2.559   7.356  0.5093  0.8595  1.3034
 2848TIP3    H230104   2.671   2.609   7.251  0.2657 -0.6379  0.3235
 2849TIP3   OH230105   4.709   4.471   8.101 -0.0625 -0.6248 -0.3491
 2849TIP3    H130106   4.737   4.534   8.034  1.7636 -2.1821 -1.1359
 2849TIP3    H230107   4.684   4.525   8.176  0.1535  1.0693 -1.4494
 2850TIP3   OH230108   4.267   3.199   0.327  0.8171 -0.3707  0.2291
 2850TIP3    H130109   4.297   3.273   0.379  0.5696  1.8671 -2.5437
 2850TIP3    H230110   4.283   3.226   0.236 -1.0970 -2.9065 -0.9920
 2851TIP3   OH230111   0.648   0.469   7.877  0.2304  0.4219  0.0512
 2851TIP3    H130112   0.661   0.563   7.881  0.9036  0.3346  0.0528
 2851TIP3    H230113   0.736   0.433   7.866  0.3154 -0.3515  2.5297
 2852TIP3   OH230114   1.785   4.648   7.056  0.0383  0.9562 -0.1972
 2852TIP3    H130115   1.774   4.742   7.070  1.7176  1.2039 -0.3371
 2852TIP3    H230116   1.865   4.640   7.004 -0.8384 -0.4883 -1.4265
 2853TIP3   OH230117   2.991   2.332   0.238 -0.3573  0.2738  0.2190
 2853TIP3    H130118   2.948   2.396   0.181  0.1197 -0.3181 -0.8262
 2853TIP3    H230119   2.919   2.281   0.276 -0.6156 -0.6703 -1.4661
 2854TIP3   OH230120   0.560   0.315   1.203 -0.4127  0.4114 -0.1170
 2854TIP3    H130121   0.493   0.279   1.261 -0.0690  1.2747  0.8536
 2854TIP3    H230122   0.576   0.246   1.139 -1.3238 -0.2901  0.3841
 2855TIP3   OH230123   1.860   4.264   0.309  0.2569  0.1230  0.3371
 2855TIP3    H130124   1.834   4.258   0.401  0.0487  1.5733  0.3842
 2855TIP3    H230125   1.831   4.350   0.280 -1.1468 -0.8887 -1.5753
 2856TIP3   OH230126   0.315   5.420   0.188 -0.1200 -0.6790  0.1021
 2856TIP3    H130127   0.406   5.430   0.214 -0.0542 -3.2966  1.1425
 2856TIP3    H230128   0.317   5.430   0.092  1.3579 -1.2256  0.0436
 2857TIP3   OH230129   4.299   3.799   8.344 -0.0187 -0.0390 -0.0228
 2857TIP3    H130130   4.223   3.781   8.290  0.3190 -1.8907  0.0691
 2857TIP3    H230131   4.279   3.882   8.388 -0.8411  0.8395 -1.9661
 2858TIP3   OH230132   4.623   5.749   1.691  0.2018 -0.4984  0.0323
 2858TIP3    H130133   4.539   5.718   1.655  0.9586 -3.3341  0.5344
 2858TIP3    H230134   4.687   5.726   1.624  0.8450 -0.0704  0.4945
 2859TIP3   OH230135   1.514   5.777   1.150 -0.5272  0.0708 -0.5794
 2859TIP3    H130136   1.579   5.810   1.088  1.3307  1.4678  1.9224
 2859TIP3    H230137   1.478   5.856   1.191 -0.7318 -0.8108  1.0143
 2860TIP3   OH230138   1.273   6.550   0.006  0.1947 -0.0042 -0.2823
 2860TIP3    H130139   1.178   6.560  -0.003  0.1288 -0.0328  0.3256
 2860TIP3    H230140   1.290   6.458  -0.012 -0.0382 -0.2496  0.7096
 2861TIP3   OH230141   2.286   1.444   2.663  0.2054 -0.1210  0.1249
 2861TIP3    H130142   2.323   1.527   2.694 -0.2475  0.5082 -0.9574
 2861TIP3    H230143   2.197   1.442   2.697 -0.0818  0.2753 -0.5711
 2862TIP3   OH230144   5.419   4.949   0.027 -0.4948  0.5002  0.1834
 2862TIP3    H130145   5.415   4.865  -0.018 -0.9287  0.1807  0.7995
 2862TIP3    H230146   5.327   4.977   0.034 -0.4990  0.2150  1.4567
 2863TIP3   OH230147   2.038   1.530   7.836  0.1451  0.0668  0.5335
 2863TIP3    H130148   2.054   1.437   7.853 -0.8729 -0.1642  0.3073
 2863TIP3    H230149   1.975   1.531   7.764  0.5894  0.9516  0.1403
 2864TIP3   OH230150   3.479   0.805   7.867 -0.1220 -0.0800 -0.2523
 2864TIP3    H130151   3.445   0.716   7.859 -0.7100 -0.0162  1.3079
 2864TIP3    H230152   3.504   0.813   7.959  3.1945  0.2327 -1.0650
 2865TIP3   OH230153   1.572   6.239   7.841  0.2544  0.1076  0.3801
 2865TIP3    H130154   1.554   6.278   7.755  2.7855 -1.6155 -1.0414
 2865TIP3    H230155   1.629   6.302   7.885  0.3235  0.2314  0.1154
 2866TIP3   OH230156   6.462   4.301   1.849  0.0972  0.8402 -0.4347
 2866TIP3    H130157   6.483   4.211   1.872  2.3506  1.2138 -0.8534
 2866TIP3    H230158   6.423   4.295   1.761 -1.2047  0.1703  0.1604
 2867TIP3   OH230159   1.428   3.187   0.627  0.2331  0.2840  0.3167
 2867TIP3    H130160   1.516   3.166   0.595  0.5460  1.9527 -0.0374
 2867TIP3    H230161   1.373   3.182   0.549  0.6013  2.1877 -0.1296
 2868TIP3   OH230162   1.245   4.442   0.090 -0.1099 -0.5850 -0.0177
 2868TIP3    H130163   1.244   4.488   0.174 -0.0961  0.7393 -0.7127
 2868TIP3    H230164   1.321   4.384   0.095 -1.5380 -2.4784  1.8509
 2869TIP3   OH230165   5.303   0.384   1.442 -0.1190  0.0513 -0.1623
 2869TIP3    H130166   5.284   0.316   1.507  2.4288  1.0931  1.8412
 2869TIP3    H230167   5.309   0.465   1.493 -1.7347  1.6254 -2.2839
 2870TIP3   OH230168   0.582   4.404   0.702 -0.1319 -0.3574  0.0221
 2870TIP3    H130169   0.519   4.372   0.766  0.7365 -0.7974  0.6665
 2870TIP3    H230170   0.554   4.364   0.619 -1.6011  0.6814 -0.0254
 2871TIP3   OH230171   5.460   3.137   1.166 -0.2887 -0.0427  0.1088
 2871TIP3    H130172   5.426   3.049   1.184 -0.8673 -0.3978 -2.3706
 2871TIP3    H230173   5.550   3.122   1.138  0.2629  0.3806  1.6005
 2872TIP3   OH230174   3.372   2.502   1.389 -0.0768 -0.2306 -0.2643
 2872TIP3    H130175   3.278   2.516   1.403  0.4260  1.7667  1.6736
 2872TIP3    H230176   3.408   2.490   1.477  1.6007 -0.1978 -0.9183
 2873TIP3   OH230177   1.836   4.915   7.055 -0.1375 -0.2652  0.0987
 2873TIP3    H130178   1.774   4.983   7.031 -1.5078 -0.9006  1.6767
 2873TIP3    H230179   1.871   4.943   7.140  2.7862  0.7288 -1.2815
 2874TIP3   OH230180   2.569   0.123   0.201  0.4498 -0.0184  0.0872
 2874TIP3    H130181   2.612   0.113   0.117  0.1638 -1.4936  0.0872
 2874TIP3    H230182   2.552   0.034   0.231 -1.3344  0.4784  0.7368
 2875TIP3   OH230183   0.222   3.510   0.986  0.3583 -0.0714 -0.7402
 2875TIP3    H130184   0.294   3.497   1.048 -0.0197 -0.2984 -0.3449
 2875TIP3    H230185   0.261   3.495   0.900  0.5786 -1.0758 -0.4765
 2876TIP3   OH230186   4.916   3.162   1.987 -0.1996  0.3130 -0.3506
 2876TIP3    H130187   4.827   3.187   2.009 -0.2921 -0.7581  0.6071
 2876TIP3    H230188   4.910   3.071   1.959  0.7508 -0.2528  1.1494
 2877TIP3   OH230189   1.431   0.997   1.472 -0.3288  0.3620 -0.3855
 2877TIP3    H130190   1.515   0.974   1.432 -0.7517 -0.9600 -0.5781
 2877TIP3    H230191   1.454   1.035   1.557  0.4723 -0.0131 -0.4297
 2878TIP3   OH230192   3.857   5.795   1.800 -0.1632 -0.1321 -0.2860
 2878TIP3    H130193   3.840   5.848   1.721 -0.1053 -0.6389 -0.6432
 2878TIP3    H230194   3.901   5.717   1.767 -1.2620 -0.9332  0.0867
 2879TIP3   OH230195   2.435   6.357   2.182  0.7907  0.2462 -0.5527
 2879TIP3    H130196   2.489   6.278   2.174 -0.5172 -0.5274 -2.5316
 2879TIP3    H230197   2.478   6.421   2.125  1.6800  0.9211  0.8166
 2880TIP3   OH230198   0.573   4.962   7.627 -0.1936 -0.1429  0.0620
 2880TIP3    H130199   0.598   4.924   7.542 -0.0466  0.8615 -0.3490
 2880TIP3    H230200   0.554   4.885   7.682  0.6338 -0.8402 -0.5856
 2881TIP3   OH230201   0.359   6.640   7.604  0.2458 -0.0882  0.5640
 2881TIP3    H130202   0.347   6.553   7.642 -0.5710  0.1383  0.8357
 2881TIP3    H230203   0.276   6.660   7.562  0.4202  0.5732  0.5214
 2882TIP3   OH230204   3.610   2.200   2.643  0.3752  0.2093 -0.3515
 2882TIP3    H130205   3.528   2.245   2.661  0.6531  0.6713 -0.2201
 2882TIP3    H230206   3.678   2.265   2.661  0.7134  0.3170 -1.9384
 2883TIP3   OH230207   4.848   1.229   0.497  0.3996  0.0934 -0.1254
 2883TIP3    H130208   4.843   1.290   0.571  2.6427  1.9273 -1.3606
 2883TIP3    H230209   4.760   1.233   0.458 -0.6349 -0.4423  2.0173
 2884TIP3   OH230210   5.666   1.788   1.366 -0.5928  0.1531  0.3596
 2884TIP3    H130211   5.597   1.790   1.431 -2.2081 -0.6225 -1.2381
 2884TIP3    H230212   5.635   1.846   1.296  1.2618  1.2715  0.3817
 2885TIP3   OH230213   6.141   3.489   6.784 -0.2408  0.0953 -0.1460
 2885TIP3    H130214   6.129   3.576   6.822  0.5950 -0.2073  0.8472
 2885TIP3    H230215   6.174   3.435   6.856 -0.0240 -0.8626 -0.9361
 2886TIP3   OH230216   3.611   5.195   1.689  0.1009 -0.2673  0.2738
 2886TIP3    H130217   3.665   5.206   1.768  2.0670 -0.2722 -1.0088
 2886TIP3    H230218   3.598   5.101   1.681 -0.8845 -0.2205  1.0455
 2887TIP3   OH230219   5.454   3.716   0.921 -0.0664 -0.1881 -0.1167
 2887TIP3    H130220   5.526   3.678   0.971 -0.3829  0.3886  0.7947
 2887TIP3    H230221   5.478   3.808   0.911 -0.2382 -0.1943 -0.6248
 2888TIP3   OH230222   4.570   3.778   1.428  0.7496 -0.7025 -0.1780
 2888TIP3    H130223   4.612   3.700   1.465 -0.5218 -1.4126 -0.1813
 2888TIP3    H230224   4.643   3.831   1.397  1.7172 -1.3026  0.9520
 2889TIP3   OH230225   5.321   0.003   0.252  0.5666 -0.1330 -0.0264
 2889TIP3    H130226   5.370  -0.079   0.249 -0.4630 -0.9305  2.1746
 2889TIP3    H230227   5.258  -0.004   0.180  0.0665 -1.6248  0.5047
 2890TIP3   OH230228   0.250   2.224   0.006  0.8403 -0.1966 -0.1431
 2890TIP3    H130229   0.342   2.197   0.004  0.4910 -1.4803 -2.2621
 2890TIP3    H230230   0.251   2.312  -0.030  1.1036 -0.9040 -1.9762
 2891TIP3   OH230231   2.528   2.783   1.999 -0.0001 -0.1220  0.0285
 2891TIP3    H130232   2.588   2.782   1.924 -0.2678  0.7671 -0.2131
 2891TIP3    H230233   2.585   2.784   2.076  0.3506  1.8707 -0.2050
 2892TIP3   OH230234   1.282   0.277   1.983 -0.0470 -0.3309  0.4865
 2892TIP3    H130235   1.311   0.206   1.924 -0.7869  0.3986 -0.8054
 2892TIP3    H230236   1.187   0.279   1.973  0.0280  1.4982 -0.3111
 2893TIP3   OH230237   2.924   2.733   0.630  0.3891  0.7595 -0.3000
 2893TIP3    H130238   2.867   2.807   0.649 -0.6638  0.1011 -0.7800
 2893TIP3    H230239   2.871   2.676   0.574  1.7866  0.4864 -1.4193
 2894TIP3   OH230240   4.777   6.846   1.328  0.1625 -0.2485 -0.0583
 2894TIP3    H130241   4.796   6.936   1.353 -0.2634 -0.7022  2.1107
 2894TIP3    H230242   4.704   6.820   1.384 -1.7924 -1.0271 -2.7405
 2895TIP3   OH230243   2.409   3.958   2.030 -0.1864  0.6149 -0.1200
 2895TIP3    H130244   2.431   3.889   1.968 -1.2094  0.2561 -0.1128
 2895TIP3    H230245   2.315   3.948   2.044  0.0443  0.5806  1.6119
 2896TIP3   OH230246   6.639   3.658   0.176 -0.3368  0.6575 -0.6069
 2896TIP3    H130247   6.666   3.696   0.093 -1.4143  0.3011 -1.1419
 2896TIP3    H230248   6.706   3.592   0.195  1.0153  2.1188 -0.1481
 2897TIP3   OH230249   5.586   4.918   1.081  0.3965  0.1979  0.2264
 2897TIP3    H130250   5.615   4.970   1.005 -0.2603  0.4124  0.1196
 2897TIP3    H230251   5.598   4.976   1.156  1.6853 -0.2468  0.3845
 2898TIP3   OH230252   2.150   2.826   2.211 -0.3326 -0.3611  0.7191
 2898TIP3    H130253   2.204   2.778   2.274 -1.2291 -1.1177  0.9248
 2898TIP3    H230254   2.075   2.856   2.262 -1.4500 -1.6232 -0.1095
 2899TIP3   OH230255   0.231   5.486   8.589  0.2391  0.0144  0.0939
 2899TIP3    H130256   0.167   5.423   8.557  0.4195 -0.6920  1.1045
 2899TIP3    H230257   0.200   5.570   8.556 -0.7109 -0.4333 -0.1776
 2900TIP3   OH230258   2.177   2.856   2.586 -0.4564 -0.1470 -0.1247
 2900TIP3    H130259   2.178   2.883   2.677  0.2286  4.7652 -1.3327
 2900TIP3    H230260   2.263   2.816   2.572 -0.9740 -1.9781  1.5134
 2901TIP3   OH230261   1.019   5.489   0.116 -0.0044 -0.2843  0.6611
 2901TIP3    H130262   0.990   5.447   0.035 -0.1792  2.1714 -0.6411
 2901TIP3    H230263   0.942   5.539   0.145  0.8535  0.9504  0.8657
 2902TIP3   OH230264   4.388   6.173   0.164  0.5331 -0.2265 -0.2788
 2902TIP3    H130265   4.344   6.255   0.143 -1.3179 -1.2662 -0.6728
 2902TIP3    H230266   4.373   6.161   0.258  0.2862 -0.4001 -0.3396
 2903TIP3   OH230267   6.070   1.071   7.751  0.1173  0.1356 -0.1972
 2903TIP3    H130268   6.113   1.020   7.684 -2.6347 -1.4402 -0.9278
 2903TIP3    H230269   6.124   1.150   7.760  3.2008 -1.7564 -0.7315
 2904TIP3   OH230270   0.450   4.347   1.003 -0.4853  0.2018 -0.0680
 2904TIP3    H130271   0.416   4.260   0.983 -0.4026 -0.0459  0.8383
 2904TIP3    H230272   0.545   4.337   0.999 -0.4747  0.2341  0.1100
 2905TIP3   OH230273   2.749   1.150   0.579  0.4401 -0.0905 -0.3591
 2905TIP3    H130274   2.761   1.234   0.535  0.3859  0.3345  0.4342
 2905TIP3    H230275   2.717   1.172   0.666  2.3985 -0.8202  0.5930
 2906TIP3   OH230276   2.648   5.845   6.478 -0.0611  0.1230 -0.0571
 2906TIP3    H130277   2.638   5.924   6.531 -0.7162 -1.1258  1.7434
 2906TIP3    H230278   2.591   5.861   6.402 -1.0979  0.8976  0.8494
 2907TIP3   OH230279   4.559   0.641   2.323  0.1234 -0.3750  0.4271
 2907TIP3    H130280   4.608   0.723   2.333 -0.4460  0.2083 -1.1861
 2907TIP3    H230281   4.625   0.572   2.334  0.8383  0.3228  0.6128
 2908TIP3   OH230282   5.381   4.410   0.679 -0.8894  0.3047 -0.9503
 2908TIP3    H130283   5.380   4.449   0.766  1.0519 -1.0003 -0.2657
 2908TIP3    H230284   5.435   4.469   0.627 -1.7890  0.9188 -1.2076
 2909TIP3   OH230285   4.938   6.609   6.708 -0.0696 -0.0365 -0.0920
 2909TIP3    H130286   4.978   6.665   6.775 -0.8688 -0.7258  0.9915
 2909TIP3    H230287   4.993   6.622   6.631  1.1604  0.4240  0.8217
 2910TIP3   OH230288   1.452   5.960   2.102 -0.0655 -0.7268 -0.5154
 2910TIP3    H130289   1.413   5.881   2.063  0.7523 -1.2319 -0.3325
 2910TIP3    H230290   1.505   5.927   2.175  2.8450 -0.3589 -2.3230
 2911TIP3   OH230291   4.538   1.762   0.506  0.5372  0.1144 -0.2457
 2911TIP3    H130292   4.482   1.684   0.502  0.6647 -0.0514  0.8120
 2911TIP3    H230293   4.493   1.821   0.566 -0.0322  1.2763 -1.7583
 2912TIP3   OH230294   4.213   4.341   0.638  0.1567 -0.2052  0.4513
 2912TIP3    H130295   4.134   4.329   0.585  1.1949 -0.3703 -1.1142
 2912TIP3    H230296   4.248   4.253   0.650  1.7328  0.0747 -1.5214
 2913TIP3   OH230297   3.732   0.715   7.287  0.3841  0.2088 -0.6954
 2913TIP3    H130298   3.780   0.648   7.336 -0.2552  0.5742  0.4689
 2913TIP3    H230299   3.799   0.757   7.233  0.9042 -0.9485 -0.9852
 2914TIP3   OH230300   2.739   5.986   7.506  0.3349  0.3132  0.0780
 2914TIP3    H130301   2.680   6.014   7.576  0.8795  0.4518  0.4795
 2914TIP3    H230302   2.718   6.044   7.433  1.4820  1.8454  0.9101
 2915TIP3   OH230303   5.329   3.533   0.479  0.2219 -0.2946  0.3782
 2915TIP3    H130304   5.260   3.598   0.493 -0.6347 -1.2536  0.7714
 2915TIP3    H230305   5.393   3.577   0.423 -0.6843  0.6460  0.0515
 2916TIP3   OH230306   3.864   3.296   7.973 -0.3178 -0.1356  0.2184
 2916TIP3    H130307   3.924   3.371   7.973 -0.8305  0.3152  1.5730
 2916TIP3    H230308   3.867   3.264   8.063  0.1089 -1.9601 -0.3988
 2917TIP3   OH230309   5.217   3.654   7.316 -0.0415  0.3726 -0.6306
 2917TIP3    H130310   5.126   3.681   7.300  0.4908  2.2285 -0.7822
 2917TIP3    H230311   5.255   3.728   7.364  1.4806 -0.2483 -0.8417
 2918TIP3   OH230312   0.278   2.061   1.004 -0.4421 -0.3763 -0.3353
 2918TIP3    H130313   0.273   2.048   0.909  0.6018  1.5682 -0.6966
 2918TIP3    H230314   0.215   2.131   1.022  2.1402  2.1099 -0.2752
 2919TIP3   OH230315   0.308   0.401   2.739  0.1133 -0.2276  0.5379
 2919TIP3    H130316   0.389   0.426   2.695  0.4308  0.1330  1.3251
 2919TIP3    H230317   0.262   0.483   2.754 -1.9163 -0.5835 -2.6845
 2920TIP3   OH230318   3.491   6.247   0.230 -0.1248  0.4694 -0.4351
 2920TIP3    H130319   3.569   6.302   0.232 -0.0830  0.3907  0.3966
 2920TIP3    H230320   3.420   6.305   0.259 -0.1949  0.2723 -0.2074
 2921TIP3   OH230321   5.497   1.541   0.832 -0.4236 -0.0826  0.6170
 2921TIP3    H130322   5.442   1.615   0.807  1.1691  0.9339 -0.0761
 2921TIP3    H230323   5.535   1.566   0.916 -1.0133 -0.7927  1.1087
 2922TIP3   OH230324   4.410   6.276   2.117  0.0799 -0.5690 -0.0344
 2922TIP3    H130325   4.413   6.317   2.204 -0.2845 -0.2360 -0.1784
 2922TIP3    H230326   4.416   6.182   2.135 -0.2496 -0.5171  0.3643
 2923TIP3   OH230327   0.426   1.856   0.192 -0.5705 -0.0166  0.8208
 2923TIP3    H130328   0.497   1.889   0.137 -1.4978 -0.3701 -0.6429
 2923TIP3    H230329   0.453   1.768   0.216  0.2709  0.4810  1.7378
 2924TIP3   OH230330   1.537   2.233   7.131  0.6246 -0.5898  0.2459
 2924TIP3    H130331   1.591   2.161   7.165 -0.6976 -1.9415 -0.3889
 2924TIP3    H230332   1.492   2.195   7.055 -0.1961  0.8979 -0.0506
 2925TIP3   OH230333   1.388   3.458   7.508 -0.3410 -0.5860  0.4877
 2925TIP3    H130334   1.410   3.547   7.482  0.2103 -0.2349  2.0692
 2925TIP3    H230335   1.463   3.406   7.478 -1.2860 -0.7958 -1.6908
 2926TIP3   OH230336   0.825   2.758   0.339 -0.3649 -0.1715 -0.0123
 2926TIP3    H130337   0.777   2.722   0.414 -0.3439  0.4602  0.3059
 2926TIP3    H230338   0.788   2.845   0.326  2.4756  1.5413  2.0079
 2927TIP3   OH230339   3.680   1.723   7.648  0.2536  0.0444  0.4741
 2927TIP3    H130340   3.638   1.650   7.693 -0.4807 -0.8416 -1.5464
 2927TIP3    H230341   3.770   1.722   7.680 -0.4619  0.1837  2.7302
 2928TIP3   OH230342   4.273   0.789   7.017  0.4430 -0.0745 -0.2194
 2928TIP3    H130343   4.235   0.734   7.086  1.4829 -0.0735  0.3743
 2928TIP3    H230344   4.238   0.752   6.936  2.7599 -3.1065 -0.0358
 2929TIP3   OH230345   4.667   4.413   1.667 -0.2758  0.0696 -0.0840
 2929TIP3    H130346   4.696   4.325   1.645 -1.6981 -0.3375 -0.4505
 2929TIP3    H230347   4.579   4.401   1.703  0.3205  1.1388  1.8862
 2930TIP3   OH230348   3.351   0.722   0.681 -0.1081  0.0989  0.0523
 2930TIP3    H130349   3.364   0.689   0.770  0.8415 -0.9517 -0.4496
 2930TIP3    H230350   3.303   0.653   0.636 -1.7770  1.1955  0.0877
 2931TIP3   OH230351   2.152   0.498   3.015 -0.3566 -0.0170  0.5650
 2931TIP3    H130352   2.154   0.543   2.931  0.0735  1.4768  1.3394
 2931TIP3    H230353   2.135   0.406   2.993 -0.3519  0.3593 -1.1263
 2932TIP3   OH230354   0.166   4.102   8.234  0.0054  0.1335  0.2893
 2932TIP3    H130355   0.093   4.114   8.294  0.0515 -0.4169  0.4626
 2932TIP3    H230356   0.170   4.008   8.220 -0.0099  0.2561 -0.5835
 2933TIP3   OH230357   4.309   5.923   0.021 -0.4158 -0.2399 -0.4437
 2933TIP3    H130358   4.253   6.001   0.015  1.0682  0.8369 -1.1733
 2933TIP3    H230359   4.362   5.938   0.098  0.8919  0.2300 -1.3959
 2934TIP3   OH230360   2.861   2.642   3.126  0.0520  0.0960  0.0356
 2934TIP3    H130361   2.858   2.737   3.119  0.6933  0.2794  1.8698
 2934TIP3    H230362   2.895   2.613   3.041  1.2227  1.5897 -0.0364
 2935TIP3   OH230363   1.622   4.564   8.577 -0.0384 -0.5859 -0.2597
 2935TIP3    H130364   1.568   4.603   8.646 -0.2329  0.9984 -1.2565
 2935TIP3    H230365   1.633   4.472   8.604 -0.9770 -0.2748  1.3193
 2936TIP3   OH230366   4.804   5.450   2.682  0.2563  0.0783  0.3894
 2936TIP3    H130367   4.766   5.462   2.769 -1.1967 -0.3469 -0.1697
 2936TIP3    H230368   4.752   5.381   2.642  1.3693 -0.2368 -0.5699
 2937TIP3   OH230369   2.612   5.797   0.154 -0.2876 -0.4046 -0.4475
 2937TIP3    H130370   2.642   5.793   0.245 -1.2827  2.6000  0.1131
 2937TIP3    H230371   2.534   5.742   0.152 -0.1019 -0.7147  0.4248
 2938TIP3   OH230372   4.373   4.132   0.776  0.4328  0.0563  0.2265
 2938TIP3    H130373   4.361   4.166   0.865  1.8504 -0.8607  0.7986
 2938TIP3    H230374   4.368   4.037   0.785  0.7720 -0.0552 -0.6576
 2939TIP3   OH230375   5.113   3.092   1.124  0.3860  0.1229 -0.2021
 2939TIP3    H130376   5.027   3.105   1.164  0.2179 -0.1507 -0.4808
 2939TIP3    H230377   5.108   3.138   1.040  1.0996  1.6611  0.5496
 2940TIP3   OH230378   1.402   2.311   8.493 -0.3298 -0.2450  0.4137
 2940TIP3    H130379   1.344   2.368   8.444  1.0597  0.6869 -0.2256
 2940TIP3    H230380   1.357   2.294   8.575 -1.1187  1.1314  0.2843
 2941TIP3   OH230381   0.442   4.946   2.221 -0.5737  0.5697  0.5220
 2941TIP3    H130382   0.488   4.910   2.145 -1.1795 -0.5252  0.6414
 2941TIP3    H230383   0.510   4.989   2.273  0.1819 -0.3179  0.3013
 2942TIP3   OH230384   5.659   1.743   2.565  0.1639 -0.1619 -0.0114
 2942TIP3    H130385   5.636   1.652   2.549  2.2811 -1.4071  3.1855
 2942TIP3    H230386   5.752   1.741   2.588  0.7286  3.0813 -1.3906
 2943TIP3   OH230387   2.791   6.512   7.934 -0.0965 -0.4302  0.0629
 2943TIP3    H130388   2.727   6.564   7.885 -0.7257 -3.0561 -2.2345
 2943TIP3    H230389   2.854   6.484   7.867  1.8280 -0.2530  1.7451
 2944TIP3   OH230390   2.397   1.330   7.987  0.0880  0.3708  0.1496
 2944TIP3    H130391   2.435   1.242   7.986  0.1451  0.3878 -1.0775
 2944TIP3    H230392   2.426   1.368   8.069  2.8078  0.4131 -0.7376
 2945TIP3   OH230393   0.070   5.203   7.622 -0.1123  0.3364  0.0590
 2945TIP3    H130394   0.049   5.296   7.615  1.1275  0.5468 -1.7204
 2945TIP3    H230395   0.080   5.174   7.531  1.6240 -1.0007  0.6176
 2946TIP3   OH230396   3.119   0.566   8.175  0.0652 -0.1921 -0.5663
 2946TIP3    H130397   3.141   0.655   8.150  0.8904 -0.7900 -2.0602
 2946TIP3    H230398   3.027   0.571   8.201 -0.0043  1.0173 -0.9749
 2947TIP3   OH230399   4.233   4.803   0.167 -0.0335 -0.5942 -0.5801
 2947TIP3    H130400   4.139   4.820   0.168 -0.1150 -1.0440  0.1426
 2947TIP3    H230401   4.268   4.853   0.240  0.1890 -0.9579 -0.4315
 2948TIP3   OH230402   3.202   0.799   8.083  0.6092  0.1968 -0.5539
 2948TIP3    H130403   3.192   0.786   7.989  0.4778 -0.6212 -0.4370
 2948TIP3    H230404   3.253   0.880   8.091 -1.6832  1.8109 -1.2632
 2949TIP3   OH230405   4.688   3.473   0.177  0.3992  0.5332 -0.4277
 2949TIP3    H130406   4.753   3.542   0.175  0.3012  0.6086 -1.5976
 2949TIP3    H230407   4.604   3.518   0.165  0.2607  0.2929 -0.3807
 2950TIP3   OH230408   5.001   0.547   8.167 -0.1145  0.1664 -0.4902
 2950TIP3    H130409   4.997   0.476   8.104  1.4808  2.1937 -3.0643
 2950TIP3    H230410   5.093   0.574   8.168 -0.0277  0.2655  2.7845
 2951TIP3   OH230411   5.788   3.434   7.334  0.1234 -0.0367 -0.0642
 2951TIP3    H130412   5.862   3.449   7.276  0.7035  0.5847  0.8031
 2951TIP3    H230413   5.827   3.395   7.412 -0.4138  0.5104  0.4925
 2952TIP3   OH230414   6.650   6.586   8.561 -0.0212  0.1303  0.1259
 2952TIP3    H130415   6.599   6.629   8.630  1.1165  0.3159  0.8881
 2952TIP3    H230416   6.586   6.534   8.513 -1.2019  1.5731  0.0482
 2953TIP3   OH230417   0.545   4.391   2.126  0.0032 -0.2581  0.1293
 2953TIP3    H130418   0.532   4.474   2.172 -0.4770 -0.1294 -0.2274
 2953TIP3    H230419   0.468   4.339   2.147 -0.2192 -0.1978 -0.5187
 2954TIP3   OH230420   6.850   1.413   8.317 -0.3924  0.0379 -0.8766
 2954TIP3    H130421   6.797   1.490   8.340  0.2094 -0.2432  1.8372
 2954TIP3    H230422   6.794   1.338   8.341  0.8686 -0.2651  1.3572
 2955TIP3   OH230423   2.306   6.140   1.931 -0.3196 -0.1582  0.2585
 2955TIP3    H130424   2.294   6.160   2.024 -2.3158 -1.3721  0.3251
 2955TIP3    H230425   2.279   6.048   1.923  0.4209 -0.2740 -1.4396
 2956TIP3   OH230426   0.480   4.842   0.453  0.3573 -0.7722 -0.3246
 2956TIP3    H130427   0.391   4.841   0.418  0.6098  0.8716 -1.1099
 2956TIP3    H230428   0.529   4.783   0.396  0.1929 -0.1027 -1.1832
 2957TIP3   OH230429   1.831   6.673   0.124 -0.2786  0.5893 -0.1930
 2957TIP3    H130430   1.911   6.723   0.106  0.1340  0.2171  0.5507
 2957TIP3    H230431   1.855   6.582   0.108 -0.3997  0.4268  0.5135
 2958TIP3   OH230432   5.221   4.240   1.009  0.4225  0.4235  0.0701
 2958TIP3    H130433   5.136   4.205   0.984 -0.5209 -0.2188  3.6258
 2958TIP3    H230434   5.218   4.332   0.984 -0.8630  0.1578 -0.8339
 2959TIP3   OH230435   3.394   1.120   0.142  0.1604 -0.1332  0.1743
 2959TIP3    H130436   3.389   1.169   0.060  2.1189 -2.3237 -1.3691
 2959TIP3    H230437   3.475   1.151   0.184  0.7798 -1.1460 -0.2386
 2960TIP3   OH230438   6.167   5.429   1.818 -0.5301  0.0941  0.8259
 2960TIP3    H130439   6.162   5.442   1.913 -0.7474  3.1512  0.4894
 2960TIP3    H230440   6.202   5.511   1.784 -1.0580 -0.6699 -1.8302
 2961TIP3   OH230441   5.529   4.095   7.577 -0.4044 -0.4437  0.1150
 2961TIP3    H130442   5.538   4.107   7.483 -2.6220  1.2144  0.0293
 2961TIP3    H230443   5.560   4.177   7.615  2.3391 -1.7790  1.0831
 2962TIP3   OH230444   6.713   1.882   8.420  0.2645  0.1651  0.6303
 2962TIP3    H130445   6.715   1.885   8.516  2.2954 -3.0195  0.8633
 2962TIP3    H230446   6.621   1.870   8.398 -0.2279  0.9032  2.1717
 2963TIP3   OH230447   6.277   5.659   7.550  0.3039 -0.7364 -0.0222
 2963TIP3    H130448   6.225   5.738   7.562  0.1351 -0.5264 -1.8811
 2963TIP3    H230449   6.224   5.589   7.589 -1.0889 -0.4082 -1.2201
 2964TIP3   OH230450   4.486   0.398   7.874  0.2635  0.0939  0.4950
 2964TIP3    H130451   4.461   0.479   7.828 -1.8796 -0.4485  0.6088
 2964TIP3    H230452   4.579   0.412   7.897  0.6103  1.5486 -1.4740
 2965TIP3   OH230453   4.901   1.218   8.558  0.2379 -0.5833  0.3116
 2965TIP3    H130454   4.932   1.238   8.646 -0.0759 -0.4980  0.4013
 2965TIP3    H230455   4.855   1.134   8.567 -1.2359  0.2190  0.5560
 2966TIP3   OH230456   6.153   4.764   1.154  0.0013  0.0524 -0.4450
 2966TIP3    H130457   6.216   4.770   1.082 -1.0056  0.3824 -1.3310
 2966TIP3    H230458   6.068   4.782   1.113 -0.3947  2.3892  1.1703
 2967TIP3   OH230459   6.538   0.108   0.381 -0.5055 -0.1942  0.2253
 2967TIP3    H130460   6.505   0.072   0.463 -0.5613  1.7410  1.1135
 2967TIP3    H230461   6.557   0.032   0.326 -2.5671 -1.4728  1.1976
 2968TIP3   OH230462   4.350   5.829   0.991  0.0224  0.4472 -0.0325
 2968TIP3    H130463   4.362   5.905   1.048  0.6091 -1.1810  2.1903
 2968TIP3    H230464   4.425   5.773   1.011 -0.9444 -1.1789 -0.7682
 2969TIP3   OH230465   0.431   5.859   8.533 -0.5098 -0.2060 -0.0732
 2969TIP3    H130466   0.415   5.950   8.508 -1.6301 -0.3616  0.0391
 2969TIP3    H230467   0.368   5.809   8.483  1.0001 -1.0853 -1.1836
 2970TIP3   OH230468   3.811   2.923   2.148 -0.1741  0.4513 -0.1179
 2970TIP3    H130469   3.772   2.908   2.062 -0.9771  1.9516 -0.0463
 2970TIP3    H230470   3.741   2.965   2.199  1.0201  1.7490  0.5174
 2971TIP3   OH230471   2.830   6.386   8.468  0.0770 -0.0173 -0.2827
 2971TIP3    H130472   2.785   6.316   8.422  0.9535 -0.9443  0.2246
 2971TIP3    H230473   2.900   6.342   8.516  2.3163  1.4699 -1.9756
 2972TIP3   OH230474   0.965   3.760   6.406 -0.1954  0.0859 -0.3798
 2972TIP3    H130475   0.999   3.849   6.410  0.5069 -0.0472 -2.4768
 2972TIP3    H230476   1.035   3.706   6.442 -0.1752  0.2588 -0.1520
 2973TIP3   OH230477   6.198   1.833   7.367  0.6066 -0.1770  0.3055
 2973TIP3    H130478   6.121   1.794   7.408 -0.3082 -0.2208 -1.4044
 2973TIP3    H230479   6.231   1.895   7.433 -0.7963 -0.2667  1.1221
 2974TIP3   OH230480   2.070   0.405   2.579  0.0751 -0.1248 -0.1937
 2974TIP3    H130481   2.094   0.401   2.487 -0.4225 -0.6054 -0.3065
 2974TIP3    H230482   2.148   0.376   2.626  0.7764  1.3503 -0.3817
 2975TIP3   OH230483   1.905   6.512   8.273  0.1398 -0.4911  0.0635
 2975TIP3    H130484   1.890   6.568   8.349  1.4091 -0.7324  0.5100
 2975TIP3    H230485   1.897   6.423   8.307 -0.9768 -0.6106 -0.4574
 2976TIP3   OH230486   3.303   0.549   0.287 -0.1326  0.4001  0.2977
 2976TIP3    H130487   3.261   0.593   0.361  0.9833  1.3890  0.3689
 2976TIP3    H230488   3.248   0.472   0.271 -1.7807  1.4641  0.5744
 2977TIP3   OH230489   4.318   6.232   6.890  0.4483  0.0232 -0.2048
 2977TIP3    H130490   4.395   6.181   6.915 -1.1780 -1.7927  1.4514
 2977TIP3    H230491   4.261   6.169   6.846 -1.0704  0.6853  0.7201
 2978TIP3   OH230492   2.540   6.087   6.880  0.4654  0.4822 -0.3114
 2978TIP3    H130493   2.616   6.145   6.878 -0.2636  1.4442 -0.6322
 2978TIP3    H230494   2.465   6.146   6.890 -0.3686 -0.3228 -1.5164
 2979TIP3   OH230495   5.463   0.079   7.786 -0.5318 -0.0431  0.4503
 2979TIP3    H130496   5.536   0.021   7.761 -0.7712  0.3943 -1.3712
 2979TIP3    H230497   5.503   0.144   7.844  0.5428  0.1704 -0.4948
 2980TIP3   OH230498   6.143   2.957   7.062 -0.5171 -0.3991 -0.3468
 2980TIP3    H130499   6.116   2.911   7.142  0.5582 -0.3744  0.0535
 2980TIP3    H230500   6.072   3.018   7.044  0.0929  1.0521  1.7769
 2981TIP3   OH230501   4.737   6.734   0.084  0.0227 -0.1688 -0.2203
 2981TIP3    H130502   4.804   6.679   0.044  0.6688  0.8724 -0.6113
 2981TIP3    H230503   4.771   6.752   0.172  1.0340  1.5665 -0.9051
 2982TIP3   OH230504   3.878   4.093   7.724  0.5567  0.4658 -0.2033
 2982TIP3    H130505   3.941   4.077   7.653  1.5059  0.9386  0.5021
 2982TIP3    H230506   3.837   4.176   7.700 -1.0386 -0.6461 -1.5130
 2983TIP3   OH230507   0.872   3.707   1.050 -0.3520 -0.4260  0.3240
 2983TIP3    H130508   0.800   3.647   1.067  0.0543 -0.6088  1.4631
 2983TIP3    H230509   0.889   3.749   1.134  1.7970 -1.4245  0.4619
 2984TIP3   OH230510   6.229   2.464   1.292 -0.5796  0.5072  0.1980
 2984TIP3    H130511   6.139   2.492   1.278 -0.3958 -0.2195 -3.4171
 2984TIP3    H230512   6.277   2.501   1.217  1.7054 -0.7984  0.9353
 2985TIP3   OH230513   1.662   3.815   7.716 -0.3192  0.6134  0.1678
 2985TIP3    H130514   1.630   3.725   7.704 -2.7007  1.3224  0.7372
 2985TIP3    H230515   1.713   3.833   7.636  1.6319 -1.7358  0.7510
 2986TIP3   OH230516   2.449   4.368   8.424  0.7559 -0.0980  0.6161
 2986TIP3    H130517   2.446   4.365   8.520  1.6403 -0.3353  0.6406
 2986TIP3    H230518   2.540   4.385   8.403  0.3842  1.0031 -0.1813
 2987TIP3   OH230519   4.413   5.653   6.472 -0.0666  0.2923  0.2082
 2987TIP3    H130520   4.362   5.593   6.418  1.2374  0.3254 -1.0963
 2987TIP3    H230521   4.441   5.600   6.546  0.8886 -0.6784 -0.8169
 2988TIP3   OH230522   5.120   1.207   8.352 -0.0843 -0.0179 -0.1973
 2988TIP3    H130523   5.063   1.142   8.309 -1.6079  0.3842  1.1199
 2988TIP3    H230524   5.069   1.239   8.426  1.1394  1.7690 -0.0512
 2989TIP3   OH230525   6.636   1.244   7.836  0.4288  0.3425  0.3104
 2989TIP3    H130526   6.683   1.307   7.891 -0.3465  1.4637 -0.2654
 2989TIP3    H230527   6.576   1.200   7.895  0.0916  1.0450  0.5040
 2990TIP3   OH230528   2.776   4.227   0.260  0.2693  0.1351  0.3335
 2990TIP3    H130529   2.780   4.146   0.311 -0.4082 -1.3690 -1.8349
 2990TIP3    H230530   2.854   4.224   0.205  1.0767  1.8066  1.2897
 2991TIP3   OH230531   3.844   3.498   0.460  0.0467  0.2305 -0.1471
 2991TIP3    H130532   3.865   3.574   0.514 -0.2602 -0.1550  0.5324
 2991TIP3    H230533   3.906   3.431   0.488 -1.0328 -0.4210  0.7615
 2992TIP3   OH230534   0.300   4.564   1.560 -0.0542  0.6302  0.7831
 2992TIP3    H130535   0.265   4.537   1.475  0.4158  0.0888  0.7544
 2992TIP3    H230536   0.223   4.577   1.615 -0.4860  2.6933 -0.1866
 2993TIP3   OH230537   0.726   1.316   0.737  0.6360 -0.0339  0.2740
 2993TIP3    H130538   0.645   1.329   0.787  0.7905  2.0453  0.0833
 2993TIP3    H230539   0.796   1.324   0.802  0.7442 -0.1425  0.1710
 2994TIP3   OH230540   3.389   2.333   2.801 -0.1544  0.0005 -0.1150
 2994TIP3    H130541   3.455   2.400   2.782 -0.7663  0.6640  0.0393
 2994TIP3    H230542   3.305   2.379   2.789 -0.5721 -0.4871  0.8968
 2995TIP3   OH230543   3.886   6.525   2.333  0.1845 -0.0896  0.3289
 2995TIP3    H130544   3.970   6.569   2.344 -0.2132  0.9583 -0.6284
 2995TIP3    H230545   3.824   6.578   2.383 -0.1575 -0.0251 -0.1542
 2996TIP3   OH230546   1.248   3.717   2.087  0.1692  0.2431  0.6207
 2996TIP3    H130547   1.179   3.728   2.153 -1.0756 -1.4923 -0.3150
 2996TIP3    H230548   1.299   3.642   2.117  0.2146  0.0683  0.1051
 2997TIP3   OH230549   5.813   5.930   0.578 -0.1354 -0.1186 -0.1403
 2997TIP3    H130550   5.755   5.994   0.620 -0.6060 -1.5718  1.5184
 2997TIP3    H230551   5.758   5.886   0.514 -0.2452  0.0376 -0.1542
 2998TIP3   OH230552   0.439   6.631   1.059  0.7733  0.6626 -0.4456
 2998TIP3    H130553   0.515   6.646   1.003  2.2200  0.2486  1.2901
 2998TIP3    H230554   0.473   6.577   1.130 -1.1567  0.5271  0.4299
 2999TIP3   OH230555   0.214   0.761   7.922  0.0179  0.5283  0.3862
 2999TIP3    H130556   0.188   0.678   7.882  0.2515  0.9459 -0.6475
 2999TIP3    H230557   0.301   0.743   7.960 -0.6319 -0.1479  1.6252
 3000TIP3   OH230558   0.574   0.881   8.188 -0.0585 -0.3211 -0.2234
 3000TIP3    H130559   0.612   0.801   8.224  0.9973 -0.2154 -1.0691
 3000TIP3    H230560   0.559   0.861   8.096  2.4559  1.1843 -1.0518
 3001TIP3   OH230561   2.350   4.068   8.031 -0.0623  0.3378  0.3320
 3001TIP3    H130562   2.349   3.985   8.079 -1.0565  0.9219  1.3574
 3001TIP3    H230563   2.443   4.090   8.024  0.1193  0.5714  2.6371
 3002TIP3   OH230564   6.733   3.349   8.529  0.1757 -0.3762 -0.6707
 3002TIP3    H130565   6.792   3.281   8.563 -0.5137  0.4696  2.5194
 3002TIP3    H230566   6.674   3.368   8.601 -0.3269  2.9335 -1.7872
 3003TIP3   OH230567   1.107   5.338   0.484 -0.1857 -0.3012  0.0107
 3003TIP3    H130568   1.160   5.411   0.452 -0.7234  0.3513  0.5710
 3003TIP3    H230569   1.170   5.271   0.511  0.3242  0.1202 -0.1394
 3004TIP3   OH230570   2.204   5.194   1.763 -0.4375  0.0176  0.4473
 3004TIP3    H130571   2.192   5.152   1.848  2.1478  0.8940  1.3333
 3004TIP3    H230572   2.267   5.138   1.717 -1.9741 -0.5708 -1.0226
 3005TIP3   OH230573   3.193   2.348   8.119  0.0309  0.2776  0.1712
 3005TIP3    H130574   3.185   2.391   8.204  1.0740  0.5065  0.1636
 3005TIP3    H230575   3.220   2.417   8.060  1.5565 -0.3243  0.1228
 3006TIP3   OH230576   3.924   0.423   0.690 -0.0634  0.2169 -0.5706
 3006TIP3    H130577   3.897   0.400   0.601  0.6277 -1.9445 -0.2711
 3006TIP3    H230578   4.015   0.394   0.696  0.0418  0.7562  0.6970
 3007TIP3   OH230579   4.293   5.529   0.367 -0.1706 -0.1243 -0.3046
 3007TIP3    H130580   4.214   5.477   0.376 -0.0081 -0.2950  0.1303
 3007TIP3    H230581   4.291   5.590   0.441  0.1776 -0.2259 -0.2094
 3008TIP3   OH230582   5.196   4.502   7.342  0.5200  0.2616 -0.4588
 3008TIP3    H130583   5.257   4.535   7.276  1.5390  0.4011  0.5304
 3008TIP3    H230584   5.247   4.439   7.392 -0.5821 -0.7070 -0.5171
 3009TIP3   OH230585   5.472   5.498   6.883  0.1216 -0.0341 -0.0184
 3009TIP3    H130586   5.549   5.450   6.912  0.5219  1.6806  2.0594
 3009TIP3    H230587   5.428   5.524   6.964  0.0084  3.0778 -0.9326
 3010TIP3   OH230588   1.257   0.504   1.812 -0.0266 -0.1342 -0.3672
 3010TIP3    H130589   1.186   0.501   1.747 -0.7566 -1.0196  0.4409
 3010TIP3    H230590   1.262   0.415   1.846  1.1092  0.0565 -0.0094
 3011TIP3   OH230591   3.133   2.634   7.228 -0.3254 -0.8026 -0.0548
 3011TIP3    H130592   3.179   2.679   7.157 -1.4529  0.5879  0.0466
 3011TIP3    H230593   3.198   2.626   7.298 -0.4501  2.2659  0.5811
 3012TIP3   OH230594   2.138   5.049   1.471  0.2423 -0.3861  0.4101
 3012TIP3    H130595   2.095   5.073   1.388  1.9565  1.1687 -0.1081
 3012TIP3    H230596   2.199   4.980   1.447 -0.3007 -0.9662  0.6837
 3013TIP3   OH230597   3.603   6.789   7.363 -0.1478  0.4148  0.2025
 3013TIP3    H130598   3.541   6.818   7.429 -0.8902  0.5299 -0.5343
 3013TIP3    H230599   3.629   6.869   7.317  0.7815  0.4099  0.6889
 3014TIP3   OH230600   6.372   3.049   8.182  0.3389  0.5914 -0.6189
 3014TIP3    H130601   6.282   3.078   8.164  0.9514  1.2943 -2.8874
 3014TIP3    H230602   6.369   2.954   8.170  0.0035  0.6772 -1.3111
 3015TIP3   OH230603   0.081   2.539   1.414  0.0470  0.1371  0.4498
 3015TIP3    H130604   0.126   2.621   1.393 -0.2631  0.7388  1.9622
 3015TIP3    H230605   0.150   2.473   1.414  0.3608  0.4503 -0.4339
 3016TIP3   OH230606   3.353   4.792   1.644 -0.0098  0.4637 -0.4799
 3016TIP3    H130607   3.328   4.720   1.703  0.2800  0.1811 -0.6965
 3016TIP3    H230608   3.290   4.785   1.571 -0.5272  0.9684 -0.0893
 3017TIP3   OH230609   4.537   4.277   0.041  0.4899  0.0301  0.2431
 3017TIP3    H130610   4.561   4.329  -0.036  2.4018  0.5044  1.0855
 3017TIP3    H230611   4.575   4.191   0.024 -0.4449 -0.3405 -0.0152
 3018TIP3   OH230612   0.478   1.425   8.568  0.0494 -0.6441 -0.0036
 3018TIP3    H130613   0.424   1.501   8.590  0.1452  0.0445 -1.9184
 3018TIP3    H230614   0.435   1.387   8.492  1.3185 -1.0932 -0.5247
 3019TIP3   OH230615   2.977   5.436   7.140  0.6638  0.0062 -0.1942
 3019TIP3    H130616   2.975   5.353   7.092  1.5012  0.4483 -0.9927
 3019TIP3    H230617   2.909   5.489   7.099  1.0978  0.2343 -0.6131
 3020TIP3   OH230618   3.958   4.047   7.364  0.4760  0.3757  0.2062
 3020TIP3    H130619   4.010   3.973   7.331  0.1359  0.7399 -1.2165
 3020TIP3    H230620   3.996   4.124   7.320 -0.6572  0.7527 -0.1398
 3021TIP3   OH230621   2.708   2.198   8.118 -0.1245 -0.3200  0.4269
 3021TIP3    H130622   2.750   2.125   8.163  0.7821  0.1374  0.3541
 3021TIP3    H230623   2.781   2.254   8.092 -0.5460 -0.9209 -2.2827
 3022TIP3   OH230624   0.393   6.228   7.909  0.2946  0.0274  0.7010
 3022TIP3    H130625   0.438   6.198   7.830 -0.2510  0.2071  0.3211
 3022TIP3    H230626   0.371   6.147   7.956 -0.3485 -0.1359  0.1317
 3023TIP3   OH230627   6.609   2.270   1.535  0.2132 -0.1820 -0.2200
 3023TIP3    H130628   6.679   2.308   1.588  1.1284 -0.9063 -0.8788
 3023TIP3    H230629   6.579   2.342   1.479 -1.2088  0.7813  1.6566
 3024TIP3   OH230630   5.789   4.285   0.941 -0.3014 -0.2568  0.5371
 3024TIP3    H130631   5.793   4.223   1.014  1.2930 -0.7023  0.0968
 3024TIP3    H230632   5.840   4.360   0.972  3.3566 -1.7709 -1.2758
 3025TIP3   OH230633   6.331   6.756   7.687 -0.3222  0.0515  0.0693
 3025TIP3    H130634   6.360   6.847   7.698 -2.1515  0.6261  0.5345
 3025TIP3    H230635   6.241   6.756   7.719 -0.8324 -1.6147 -1.2252
 3026TIP3   OH230636   4.600   2.671   8.009 -0.2005  0.1711 -1.0660
 3026TIP3    H130637   4.544   2.643   8.081  1.1060  0.5576  0.1532
 3026TIP3    H230638   4.633   2.590   7.971  2.2058 -0.1403  1.3477
 3027TIP3   OH230639   4.271   5.471   0.919 -0.2024 -0.0448  0.1095
 3027TIP3    H130640   4.205   5.444   0.983 -0.2825 -0.7530 -0.2529
 3027TIP3    H230641   4.354   5.440   0.954  0.1230  1.9096  1.1558
 3028TIP3   OH230642   6.830   6.023   2.526  0.6496 -0.4082 -0.3825
 3028TIP3    H130643   6.737   6.036   2.542  0.4715 -0.9979 -0.8793
 3028TIP3    H230644   6.837   6.009   2.431  1.0126 -2.0138 -0.1482
 3029TIP3   OH230645   5.279   5.659   0.807  0.1210  0.9351  0.2382
 3029TIP3    H130646   5.310   5.600   0.876 -0.3157  2.2980  1.6608
 3029TIP3    H230647   5.358   5.681   0.757  0.1897 -1.3239 -0.7691
 3030TIP3   OH230648   2.764   4.222   2.245  0.0152 -0.1236 -0.1488
 3030TIP3    H130649   2.848   4.225   2.200  0.1589 -0.0181  0.1226
 3030TIP3    H230650   2.770   4.291   2.311 -0.1130 -0.4063  0.1634
 3031TIP3   OH230651   4.747   5.564   8.332 -0.0774  0.0966 -0.0604
 3031TIP3    H130652   4.742   5.618   8.253 -1.1176 -2.5652 -1.9401
 3031TIP3    H230653   4.656   5.557   8.362  0.1917  0.2697  0.8352
 3032TIP3   OH230654   1.098   3.076   7.894  0.1833  0.8428  0.2285
 3032TIP3    H130655   1.113   3.008   7.960  0.1735 -0.4249 -1.0364
 3032TIP3    H230656   1.004   3.077   7.882  0.3314 -0.6925 -1.4998
 3033TIP3   OH230657   5.394   0.944   0.033  0.0166  0.1953 -0.1824
 3033TIP3    H130658   5.385   1.039   0.039 -1.4927  0.0701  0.0655
 3033TIP3    H230659   5.435   0.918   0.116  0.2170  0.6098 -0.1506
 3034TIP3   OH230660   1.839   0.121   8.121 -0.0760 -0.6174 -0.1759
 3034TIP3    H130661   1.921   0.133   8.074 -0.4786  0.6697 -0.5947
 3034TIP3    H230662   1.849   0.172   8.201 -1.1612  1.3073 -1.1609
 3035TIP3   OH230663   1.858   1.245   7.612 -0.3121  0.2946  0.5986
 3035TIP3    H130664   1.812   1.202   7.540  1.5156  1.3025 -1.2798
 3035TIP3    H230665   1.873   1.176   7.676 -0.2432 -1.1239 -0.8863
 3036TIP3   OH230666   4.430   4.619   2.587 -0.5052  0.2616  0.0549
 3036TIP3    H130667   4.396   4.561   2.655 -0.7661  1.3025  0.8480
 3036TIP3    H230668   4.354   4.638   2.531 -1.4325  2.6962  1.9034
 3037TIP3   OH230669   1.774   5.864   1.060  0.5310  0.4055  0.7493
 3037TIP3    H130670   1.791   5.955   1.085  1.6073  0.4734 -0.1510
 3037TIP3    H230671   1.841   5.844   0.995 -1.3693 -0.1333 -1.1763
 3038TIP3   OH230672   3.024   3.890   1.399  0.2431  0.3121  0.9378
 3038TIP3    H130673   3.020   3.984   1.417 -0.5960  0.3323  0.7314
 3038TIP3    H230674   3.116   3.871   1.386  0.3800  1.1880  0.5859
 3039TIP3   OH230675   3.032   1.305   7.751 -0.1252  0.1384 -0.7191
 3039TIP3    H130676   2.962   1.370   7.745 -1.5776 -1.3468 -0.2484
 3039TIP3    H230677   3.096   1.346   7.809 -0.7540  1.3682 -0.8502
 3040TIP3   OH230678   0.101   3.905   8.492  0.0753 -0.2427  0.0059
 3040TIP3    H130679   0.140   3.979   8.539  3.8908 -0.5685 -2.2010
 3040TIP3    H230680   0.168   3.836   8.495 -1.5405 -2.0393 -1.6725
 3041TIP3   OH230681   0.080   5.752   2.874  0.2262  0.0152 -0.2700
 3041TIP3    H130682   0.174   5.759   2.890  0.2534  1.0509 -0.8205
 3041TIP3    H230683   0.039   5.798   2.947  0.1967  0.6379 -0.6720
 3042TIP3   OH230684   4.800   5.373   0.932  0.1565  0.2620 -0.1703
 3042TIP3    H130685   4.875   5.420   0.896  0.5832 -1.1647 -1.2199
 3042TIP3    H230686   4.835   5.287   0.957 -1.0599 -0.3585 -0.4967
 3043TIP3   OH230687   5.857   3.805   1.027  0.0806  0.1484 -0.3654
 3043TIP3    H130688   5.879   3.791   0.934 -0.9378  1.0459 -0.7566
 3043TIP3    H230689   5.794   3.736   1.047 -0.2002  0.3609 -0.5229
 3044TIP3   OH230690   1.074   0.356   8.260  0.3785 -0.0861 -0.3869
 3044TIP3    H130691   0.981   0.353   8.282  0.4100 -1.6330 -0.3812
 3044TIP3    H230692   1.117   0.376   8.343  0.1332 -0.6032 -0.1307
 3045TIP3   OH230693   4.354   5.702   1.618  0.0185  0.1362 -0.2016
 3045TIP3    H130694   4.362   5.796   1.599 -2.0246  0.2210 -0.9639
 3045TIP3    H230695   4.291   5.697   1.690 -1.8765 -0.6752 -1.8083
 3046TIP3   OH230696   3.473   5.301   1.046  0.0678 -0.2580 -0.3068
 3046TIP3    H130697   3.392   5.300   1.097 -0.1564 -0.2044 -0.6612
 3046TIP3    H230698   3.542   5.319   1.111 -0.2205 -0.1508 -0.0290
 3047TIP3   OH230699   6.737   2.910   8.195  0.7818 -0.0902  0.0368
 3047TIP3    H130700   6.748   2.830   8.144  2.2209  1.2071 -1.8258
 3047TIP3    H230701   6.696   2.881   8.277 -0.5643 -2.4340 -1.3547
 3048TIP3   OH230702   0.682   0.317   7.614 -0.3250 -0.5266 -0.0669
 3048TIP3    H130703   0.639   0.341   7.531 -1.1978 -0.8206  0.2883
 3048TIP3    H230704   0.623   0.350   7.682 -0.4616 -1.7344  0.4293
 3049TIP3   OH230705   2.768   6.723   0.433 -0.5646 -0.6395 -0.1706
 3049TIP3    H130706   2.842   6.725   0.493 -0.3154  1.1489 -0.4915
 3049TIP3    H230707   2.703   6.668   0.478 -0.1217  0.0736  1.4155
 3050TIP3   OH230708   3.634   3.441   7.134 -0.7411 -0.0606  0.0539
 3050TIP3    H130709   3.624   3.346   7.139  2.1097 -0.4437  0.5101
 3050TIP3    H230710   3.725   3.453   7.105  0.1486  2.4761  3.3170
 3051TIP3   OH230711   1.058   1.014   0.605 -0.1644  0.5817  0.1361
 3051TIP3    H130712   0.968   0.982   0.606  0.5579 -1.6221  0.6143
 3051TIP3    H230713   1.060   1.082   0.673 -1.0984 -0.5665  1.3738
 3052TIP3   OH230714   3.377   3.857   8.116 -0.1363  0.2931 -0.7533
 3052TIP3    H130715   3.350   3.766   8.102  1.8787 -0.4312 -0.2956
 3052TIP3    H230716   3.436   3.875   8.043  0.7081  0.6926  0.0170
 3053TIP3   OH230717   4.422   3.426   0.806 -0.1183  0.6896 -0.2924
 3053TIP3    H130718   4.355   3.373   0.763 -0.4999  0.5351  0.4684
 3053TIP3    H230719   4.443   3.376   0.885  0.6694  0.8950 -0.3711
 3054TIP3   OH230720   5.462   2.008   1.393  0.4459 -0.2519 -0.0491
 3054TIP3    H130721   5.494   2.098   1.392  0.3603 -0.2219 -0.3121
 3054TIP3    H230722   5.368   2.016   1.374  0.3903 -0.3765  0.1795
 3055TIP3   OH230723   3.772   5.905   8.243  0.2202  0.2530 -0.2161
 3055TIP3    H130724   3.857   5.862   8.254 -0.5206 -1.4220 -0.7146
 3055TIP3    H230725   3.716   5.837   8.206 -1.2822  1.4008 -0.1185
 3056TIP3   OH230726   1.409   6.181   0.604  0.0489  0.5021 -0.1989
 3056TIP3    H130727   1.402   6.096   0.561  1.6064  0.0092  0.4381
 3056TIP3    H230728   1.374   6.243   0.540  0.7666 -0.3959 -1.5222
 3057TIP3   OH230729   3.749   1.987   8.334  0.0764  0.1483  0.7799
 3057TIP3    H130730   3.776   1.934   8.259  1.9088  3.1614 -0.9081
 3057TIP3    H230731   3.660   1.958   8.354 -0.4762 -0.8359 -2.5800
 3058TIP3   OH230732   6.820   2.134   1.388 -0.1888 -0.1445  0.7197
 3058TIP3    H130733   6.748   2.159   1.446 -0.5534 -0.0342  0.2187
 3058TIP3    H230734   6.876   2.079   1.443  0.4910  1.5156  1.7603
 3059TIP3   OH230735   5.899   2.805   2.016 -0.5272  0.3615  0.0601
 3059TIP3    H130736   5.868   2.895   2.015 -0.7957  0.2697  0.0632
 3059TIP3    H230737   5.842   2.759   1.954 -0.5734  0.1332  0.2702
 3060TIP3   OH230738   4.961   3.219   8.059  0.1136 -0.0105  0.3760
 3060TIP3    H130739   4.919   3.183   7.980  0.5752 -1.2914  0.6960
 3060TIP3    H230740   5.033   3.272   8.025 -0.8027  0.9635 -0.1205
 3061TIP3   OH230741   3.294   3.307   0.729 -0.2179 -0.2150 -0.3552
 3061TIP3    H130742   3.214   3.270   0.764  0.2500 -0.0670  0.9358
 3061TIP3    H230743   3.342   3.232   0.692 -1.4786 -0.1263 -2.3197
 3062TIP3   OH230744   5.167   0.876   2.133  0.0716 -0.1353  0.7012
 3062TIP3    H130745   5.133   0.942   2.193  0.3401 -1.2398  2.1452
 3062TIP3    H230746   5.226   0.823   2.187  2.0653  0.1343 -1.0803
 3063TIP3   OH230747   2.428   1.094   2.816 -0.0098  0.1595  0.2138
 3063TIP3    H130748   2.398   1.003   2.816  2.0690 -0.5822 -0.4799
 3063TIP3    H230749   2.361   1.141   2.866 -1.0016 -1.7893  0.8306
 3064TIP3   OH230750   5.270   5.532   0.083  0.0045  0.2719  0.1443
 3064TIP3    H130751   5.310   5.468   0.024  1.3639 -0.9051  2.2199
 3064TIP3    H230752   5.290   5.500   0.170  1.0859  3.7007  1.3396
 3065TIP3   OH230753   5.606   2.612   7.539 -0.1666 -0.0663 -0.4742
 3065TIP3    H130754   5.568   2.580   7.457 -2.0979 -0.4076  0.4973
 3065TIP3    H230755   5.659   2.539   7.572  0.2892 -0.0703 -1.1971
 3066TIP3   OH230756   0.423   4.906   8.022 -0.4915 -0.5980  0.5299
 3066TIP3    H130757   0.334   4.888   7.990 -0.2869 -0.0824 -0.3779
 3066TIP3    H230758   0.472   4.827   7.998 -0.4899 -0.4813  0.1316
 3067TIP3   OH230759   1.014   1.637   0.842 -0.0864  0.2041  0.7437
 3067TIP3    H130760   1.080   1.655   0.909  0.0416 -0.4673  0.7978
 3067TIP3    H230761   0.959   1.716   0.842  1.2927  1.2178 -0.0189
 3068TIP3   OH230762   2.972   6.155   8.576  0.0342  0.2869  0.1386
 3068TIP3    H130763   2.948   6.084   8.636 -0.5784 -0.2108 -0.6706
 3068TIP3    H230764   3.048   6.196   8.616  0.5873 -1.0278  0.4783
 3069TIP3   OH230765   3.211   0.309   1.103  0.4837  0.0818  0.3612
 3069TIP3    H130766   3.122   0.317   1.071  0.0184 -0.4493  1.4502
 3069TIP3    H230767   3.247   0.397   1.098  0.4253  0.0292 -1.4985
 3070TIP3   OH230768   3.339   6.541   2.269  0.2037  0.4009  0.3310
 3070TIP3    H130769   3.385   6.606   2.322  0.9672 -0.3378  0.5815
 3070TIP3    H230770   3.341   6.461   2.321  0.1835 -0.0995 -0.4213
 3071TIP3   OH230771   4.971   5.446   7.022  0.2288 -0.1023  0.0793
 3071TIP3    H130772   4.930   5.379   7.076 -0.4494 -0.0094 -0.3076
 3071TIP3    H230773   5.059   5.412   7.005 -0.4361 -1.4128 -0.9599
 3072TIP3   OH230774   1.058   5.490   0.719 -0.3361  0.2468  0.1618
 3072TIP3    H130775   1.009   5.572   0.723 -0.2059  0.3523 -0.3763
 3072TIP3    H230776   1.039   5.454   0.633  1.8013  1.0967 -0.7505
 3073TIP3   OH230777   4.893   5.031   1.561 -0.2755  0.8807 -0.4266
 3073TIP3    H130778   4.876   4.949   1.514 -0.1790  0.8021 -0.3253
 3073TIP3    H230779   4.806   5.065   1.581 -0.4250 -0.7582  2.2843
 3074TIP3   OH230780   5.881   5.314   7.965  0.2038  0.0749 -0.1271
 3074TIP3    H130781   5.976   5.312   7.973  0.2241  1.3167  0.1104
 3074TIP3    H230782   5.864   5.330   7.872  0.2396  0.2270 -0.1077
 3075TIP3   OH230783   3.007   6.604   8.442 -0.0798  0.2880  0.2034
 3075TIP3    H130784   2.938   6.540   8.426  0.7702 -0.8154  0.8320
 3075TIP3    H230785   3.088   6.559   8.416  0.3975  1.6488 -0.7777
 3076TIP3   OH230786   0.887   3.813   1.328 -0.6442 -0.1911  0.8825
 3076TIP3    H130787   0.868   3.879   1.395 -0.9217 -0.9390  1.5548
 3076TIP3    H230788   0.978   3.787   1.345 -0.1895  0.7575 -0.0380
 3077TIP3   OH230789   6.371   3.152   8.643 -0.9720  0.0330  0.0539
 3077TIP3    H130790   6.429   3.227   8.658 -0.2912 -0.6284  0.9015
 3077TIP3    H230791   6.305   3.158   8.713  0.3913 -1.3454  1.5558
 3078TIP3   OH230792   2.061   1.905   0.427  0.1102  0.5211  0.0038
 3078TIP3    H130793   2.114   1.969   0.380 -0.8582  1.5947  0.3317
 3078TIP3    H230794   1.987   1.888   0.368  0.0990  0.0804  0.1387
 3079TIP3   OH230795   3.924   5.181   7.869  0.1146 -0.5195  0.0350
 3079TIP3    H130796   3.893   5.198   7.781  0.8204 -0.9224 -0.2989
 3079TIP3    H230797   3.854   5.130   7.910 -0.2789 -0.2034 -0.2432
 3080TIP3   OH230798   2.858   1.062   2.298  0.2614 -0.2768  0.3704
 3080TIP3    H130799   2.782   1.008   2.275 -0.0738 -0.4979  1.8803
 3080TIP3    H230800   2.837   1.098   2.384  0.8354  1.6416 -0.2260
 3081TIP3   OH230801   6.146   1.606   7.803  0.1995  1.3149 -0.0324
 3081TIP3    H130802   6.201   1.682   7.823 -0.6169  1.8574  0.2031
 3081TIP3    H230803   6.112   1.623   7.715 -0.0204  1.2462  0.0383
 3082TIP3   OH230804   3.452   2.718   6.818 -0.0241 -0.2689  0.1255
 3082TIP3    H130805   3.477   2.625   6.821 -0.8292 -0.4853  0.2901
 3082TIP3    H230806   3.476   2.746   6.729  2.2359 -0.0378  0.7457
 3083TIP3   OH230807   2.523   5.306   0.698 -0.1608 -0.1537  0.1626
 3083TIP3    H130808   2.476   5.389   0.710  0.4051  0.5660 -2.1693
 3083TIP3    H230809   2.468   5.241   0.743 -1.6858  1.1687  0.2995
 3084TIP3   OH230810   1.817   0.815   2.296 -0.6665  0.0634  0.3053
 3084TIP3    H130811   1.749   0.832   2.361 -1.8572  1.3867 -1.2160
 3084TIP3    H230812   1.773   0.762   2.229  0.3615 -0.7202  0.2263
 3085TIP3   OH230813   0.152   4.678   0.195 -0.0828  0.4480 -0.4509
 3085TIP3    H130814   0.148   4.657   0.288 -1.2413 -0.8026 -0.7431
 3085TIP3    H230815   0.112   4.764   0.188  1.1302  1.0917  0.3427
 3086TIP3   OH230816   0.087   2.637   2.831  0.4425  0.0550 -0.1220
 3086TIP3    H130817   0.056   2.724   2.805  2.0528  0.0229 -2.5017
 3086TIP3    H230818   0.116   2.647   2.921  0.3174  1.9061 -0.2526
 3087TIP3   OH230819   4.766   1.492   7.198 -0.3313 -0.4162  0.5236
 3087TIP3    H130820   4.786   1.476   7.290 -0.5879 -0.7570  0.5232
 3087TIP3    H230821   4.849   1.523   7.160  0.0499 -1.2682  0.6400
 3088TIP3   OH230822   2.143   6.382   7.246 -0.3503  0.2252 -0.1690
 3088TIP3    H130823   2.057   6.379   7.206 -0.1672  1.3144 -0.6810
 3088TIP3    H230824   2.160   6.292   7.275 -1.1466 -0.2436 -1.1305
 3089TIP3   OH230825   1.166   4.792   7.702  0.3649 -0.1401  0.1221
 3089TIP3    H130826   1.262   4.794   7.692  0.4441  0.7657  0.9564
 3089TIP3    H230827   1.152   4.774   7.794 -0.2826 -0.2593  0.0034
 3090TIP3   OH230828   2.187   2.935   7.076 -0.1014  0.3775 -0.1835
 3090TIP3    H130829   2.148   2.854   7.043  0.4677 -0.0098  0.0660
 3090TIP3    H230830   2.281   2.915   7.083 -0.2411  0.2813  2.1054
 3091TIP3   OH230831   0.405   2.145   0.230  0.1837 -0.1725  0.0244
 3091TIP3    H130832   0.389   2.051   0.243 -1.5957 -0.1264 -1.4174
 3091TIP3    H230833   0.497   2.150   0.205  0.1308 -1.6170 -0.5682
 3092TIP3   OH230834   3.691   5.544   1.738  0.0083  0.7711  0.0037
 3092TIP3    H130835   3.666   5.564   1.648  2.0028  0.8424 -0.5805
 3092TIP3    H230836   3.631   5.596   1.792  0.1757  2.4204 -1.3315
 3093TIP3   OH230837   6.105   3.621   7.494 -0.7462 -0.1662 -0.0068
 3093TIP3    H130838   6.160   3.543   7.491 -1.2725 -0.5240 -0.5792
 3093TIP3    H230839   6.032   3.601   7.436 -0.2921  1.2138 -1.1010
 3094TIP3   OH230840   5.958   0.878   0.777  1.1555  0.4738  0.0946
 3094TIP3    H130841   5.969   0.905   0.686  1.6949 -0.1161 -0.0124
 3094TIP3    H230842   6.010   0.941   0.827  1.3644  0.4152 -0.0507
 3095TIP3   OH230843   5.690   2.849   1.759  0.4952  0.0121 -0.3503
 3095TIP3    H130844   5.778   2.855   1.722  1.2798  1.0055  1.5774
 3095TIP3    H230845   5.657   2.939   1.757  0.2125 -0.0678  0.5182
 3096TIP3   OH230846   4.634   2.081   8.066  0.0593  0.2635 -0.1552
 3096TIP3    H130847   4.611   2.004   8.120  1.3509 -0.3574 -0.4591
 3096TIP3    H230848   4.655   2.044   7.980  0.1559  1.0284 -0.4626
 3097TIP3   OH230849   6.026   0.330   1.327 -0.3955 -1.0436  0.0113
 3097TIP3    H130850   5.962   0.259   1.341  0.3367 -1.6388  0.4259
 3097TIP3    H230851   6.104   0.301   1.376 -0.4380  0.5389  1.0777
 3098TIP3   OH230852   2.115   0.414   2.318 -0.1390  0.3278 -0.0421
 3098TIP3    H130853   2.089   0.505   2.330 -1.7087  0.1601 -1.7636
 3098TIP3    H230854   2.053   0.379   2.254  0.5945 -1.8837  0.3600
 3099TIP3   OH230855   1.888   0.929   7.966 -0.0710  0.0874 -0.1524
 3099TIP3    H130856   1.852   1.000   7.913  1.2921  2.3428  1.7493
 3099TIP3    H230857   1.975   0.913   7.928 -0.1539 -0.2088 -0.2262
 3100TIP3   OH230858   4.200   4.648   8.061 -0.4017 -0.1628  0.2423
 3100TIP3    H130859   4.121   4.623   8.108 -0.8037  0.0730 -0.3044
 3100TIP3    H230860   4.169   4.686   7.979  0.2853 -0.3452 -0.1113
 3101TIP3   OH230861   1.689   5.109   6.924  0.0828  0.5004  0.5332
 3101TIP3    H130862   1.686   5.184   6.865 -0.2893  1.5934  1.8741
 3101TIP3    H230863   1.603   5.068   6.915  0.5018 -0.1676 -0.6613
 3102TIP3   OH230864   2.868   0.487   8.262 -0.5222 -0.4447 -0.0220
 3102TIP3    H130865   2.885   0.533   8.344 -1.8270  0.5369 -0.2605
 3102TIP3    H230866   2.847   0.398   8.288 -2.2082  0.1614  0.8784
 3103TIP3   OH230867   3.687   5.067   0.010  0.2379  0.3893  0.2797
 3103TIP3    H130868   3.620   5.094   0.073  0.2423  1.0942 -0.0067
 3103TIP3    H230869   3.645   5.078  -0.076  0.2719 -0.4465  0.1407
 3104TIP3   OH230870   0.563   5.213   1.712  0.0206  0.8814  0.2149
 3104TIP3    H130871   0.593   5.124   1.692 -1.4309  0.2760  0.6246
 3104TIP3    H230872   0.625   5.270   1.667  1.7050 -0.3014  0.9367
 3105TIP3   OH230873   6.512   5.819   7.275  0.2473 -0.1627 -0.1399
 3105TIP3    H130874   6.559   5.869   7.208 -0.8510  0.7109 -0.2961
 3105TIP3    H230875   6.423   5.811   7.240 -0.3719  0.4028  1.2387
 3106TIP3   OH230876   4.244   0.577   2.228  0.5202 -0.7312 -0.0632
 3106TIP3    H130877   4.215   0.487   2.211 -0.5418 -0.3818 -0.1551
 3106TIP3    H230878   4.300   0.598   2.154  0.8343 -1.3410 -0.0073
 3107TIP3   OH230879   5.030   1.014   0.669  0.8662  0.6133  0.4342
 3107TIP3    H130880   5.081   0.958   0.611 -0.3576  1.6361 -1.7578
 3107TIP3    H230881   5.075   1.098   0.667  0.0109  1.0653 -0.2328
 3108TIP3   OH230882   6.430   6.323   1.565  0.6276  0.8265 -0.3482
 3108TIP3    H130883   6.368   6.388   1.532 -0.8014 -1.6729 -3.0354
 3108TIP3    H230884   6.376   6.247   1.585  2.4338 -0.1811  0.9495
 3109TIP3   OH230885   2.013   2.098   7.958 -0.4658 -0.5066 -0.7995
 3109TIP3    H130886   1.990   2.127   8.046 -1.9849 -0.6898 -1.1058
 3109TIP3    H230887   2.006   2.176   7.904 -2.7184 -0.9663 -1.2894
 3110TIP3   OH230888   1.660   1.945   8.494 -0.2457  0.4565  0.0508
 3110TIP3    H130889   1.750   1.950   8.527  0.5043 -0.1432 -1.7606
 3110TIP3    H230890   1.620   1.875   8.545  0.0902  1.1796  1.3438
 3111TIP3   OH230891   1.655   5.582   2.096 -0.3648 -0.5739  0.0050
 3111TIP3    H130892   1.717   5.556   2.163 -0.4574 -0.2854  0.2025
 3111TIP3    H230893   1.575   5.533   2.116 -0.8545  0.5711  0.9491
 3112TIP3   OH230894   5.705   3.675   2.651 -0.4550 -0.2768 -0.4299
 3112TIP3    H130895   5.695   3.583   2.676 -1.4673 -0.1731 -0.4157
 3112TIP3    H230896   5.620   3.714   2.671  0.7482  1.2816  2.1092
 3113TIP3   OH230897   6.661   1.976   0.061  0.4293  0.0708 -0.3780
 3113TIP3    H130898   6.647   1.999   0.153  0.8865 -1.5048  0.1119
 3113TIP3    H230899   6.704   2.053   0.024  1.4031  0.2496  1.0485
 3114TIP3   OH230900   3.726   3.460   1.032  0.6553  0.3246 -0.7350
 3114TIP3    H130901   3.791   3.390   1.035 -0.5103 -0.7931 -0.1849
 3114TIP3    H230902   3.642   3.415   1.043 -0.1915  1.7500 -1.0460
 3115TIP3   OH230903   2.418   6.249   1.318 -0.0285 -0.2002 -0.5397
 3115TIP3    H130904   2.340   6.280   1.362  0.3244  0.5266 -0.4064
 3115TIP3    H230905   2.428   6.308   1.243  1.1691  0.6303  0.2364
 3116TIP3   OH230906   0.415   6.449   1.592  0.5496  0.3751  0.2784
 3116TIP3    H130907   0.475   6.521   1.614  1.2481  0.2667 -1.1818
 3116TIP3    H230908   0.399   6.406   1.676  1.5761  1.1310  0.8978
 3117TIP3   OH230909   6.494   5.238   1.973 -0.2004 -0.4603  0.8603
 3117TIP3    H130910   6.483   5.229   1.878 -0.8396  0.5265  0.8280
 3117TIP3    H230911   6.580   5.200   1.991  0.1513 -0.1892 -0.1924
 3118TIP3   OH230912   0.024   0.796   8.176 -0.0745 -0.0240 -0.0767
 3118TIP3    H130913   0.116   0.794   8.204  0.4529  1.6144 -1.5328
 3118TIP3    H230914  -0.016   0.864   8.229 -0.4059 -0.5365  0.3470
 3119TIP3   OH230915   0.211   4.102   1.791  0.0430  0.5167 -0.0878
 3119TIP3    H130916   0.128   4.132   1.754 -0.2721  0.2091  0.3610
 3119TIP3    H230917   0.253   4.054   1.721 -0.9920 -0.9201  0.2354
 3120TIP3   OH230918   1.495   2.740   7.684 -0.4616 -0.0713  0.5545
 3120TIP3    H130919   1.585   2.753   7.714 -0.1688  3.3498 -1.2306
 3120TIP3    H230920   1.504   2.715   7.592 -1.3267  0.1051  0.4130
 3121TIP3   OH230921   1.789   2.361   6.989 -0.0219 -0.4339  0.6901
 3121TIP3    H130922   1.730   2.404   6.927  0.8006 -0.9694 -0.5101
 3121TIP3    H230923   1.814   2.431   7.050  1.1093  0.7990 -1.0792
 3122TIP3   OH230924   2.946   4.884   0.815 -0.5669 -0.1041 -0.1383
 3122TIP3    H130925   2.870   4.910   0.867 -0.3191 -1.6448  1.0658
 3122TIP3    H230926   2.909   4.838   0.739 -0.8978  1.3969 -0.9120
 3123TIP3   OH230927   4.908   2.132   2.292  0.0681  0.3443  0.2138
 3123TIP3    H130928   4.870   2.168   2.212  0.3563  2.6192  1.0186
 3123TIP3    H230929   4.981   2.078   2.263  0.6613  1.7680 -1.0534
 3124TIP3   OH230930   0.846   1.258   8.195 -0.3772 -0.3138 -0.0478
 3124TIP3    H130931   0.765   1.207   8.192 -0.5047 -0.0618 -1.0706
 3124TIP3    H230932   0.839   1.319   8.122  0.2728  0.4276  0.4846
 3125TIP3   OH230933   3.787   4.373   0.603 -0.7417 -0.1754  0.2134
 3125TIP3    H130934   3.861   4.324   0.568 -0.4796 -1.9738  2.9485
 3125TIP3    H230935   3.827   4.448   0.647 -0.9138  0.9313 -1.4276
 3126TIP3   OH230936   0.699   2.974   0.660  0.0700 -0.3461  0.5215
 3126TIP3    H130937   0.655   2.979   0.575 -1.2192  1.3057  1.2252
 3126TIP3    H230938   0.638   2.925   0.715  0.8614 -1.3307  0.5452
 3127TIP3   OH230939   0.701   0.060   7.978 -0.3739  0.7403 -0.6126
 3127TIP3    H130940   0.777   0.112   8.002 -0.5937  0.2403  1.3408
 3127TIP3    H230941   0.733  -0.030   7.973 -0.5888  0.6837 -1.0753
 3128TIP3   OH230942   6.222   0.672   0.013  0.3703  0.2562  0.4200
 3128TIP3    H130943   6.246   0.735   0.081 -0.5352  0.9980  0.0859
 3128TIP3    H230944   6.290   0.605   0.016  0.7172  0.6375  1.5866
 3129TIP3   OH230945   0.798   2.561   8.343  0.3723 -0.0571 -0.5300
 3129TIP3    H130946   0.723   2.608   8.381 -1.1265 -0.9767 -2.1891
 3129TIP3    H230947   0.768   2.536   8.256  2.1498 -1.6284 -0.7418
 3130TIP3   OH230948   6.837   3.602   7.458 -0.1985 -0.0017  0.0014
 3130TIP3    H130949   6.809   3.609   7.549  2.1927  0.4279  0.7767
 3130TIP3    H230950   6.800   3.679   7.415 -1.2192 -0.1237  0.6412
 3131TIP3   OH230951   3.760   4.829   1.477 -0.2403  0.5265  0.2348
 3131TIP3    H130952   3.822   4.901   1.483 -0.5321  0.7178  1.0908
 3131TIP3    H230953   3.805   4.755   1.518  0.2927  0.0418 -1.1745
 3132TIP3   OH230954   6.029   5.212   2.492 -0.1497 -0.2727 -0.2052
 3132TIP3    H130955   5.971   5.137   2.509 -0.6021 -0.4517 -2.2507
 3132TIP3    H230956   6.091   5.211   2.565 -1.2203 -1.5671  0.7459
 3133TIP3   OH230957   1.937   3.783   1.572  0.0583 -0.4011 -0.6994
 3133TIP3    H130958   1.945   3.875   1.597 -0.0993 -1.0374  1.9714
 3133TIP3    H230959   1.851   3.757   1.605 -0.1349 -1.3958 -1.9155
 3134TIP3   OH230960   5.705   1.454   8.572 -0.1955 -0.1175 -0.2358
 3134TIP3    H130961   5.718   1.531   8.627 -1.1221 -0.3852  0.3933
 3134TIP3    H230962   5.610   1.452   8.556 -0.1654 -1.0290 -0.3680
 3135TIP3   OH230963   5.016   3.011   7.370 -0.2463 -0.2756 -0.5164
 3135TIP3    H130964   4.978   3.097   7.347 -1.3261 -0.0821  1.7357
 3135TIP3    H230965   5.091   3.032   7.424 -1.5473 -0.6809  1.5628
 3136TIP3   OH230966   2.202   0.491   8.062 -0.1771 -0.1156  0.5422
 3136TIP3    H130967   2.121   0.543   8.063  0.0678  0.3935 -1.4112
 3136TIP3    H230968   2.272   0.557   8.055  0.3147 -0.6085  0.7733
 3137TIP3   OH230969   1.537   6.352   6.883 -0.4837 -0.3306 -0.2226
 3137TIP3    H130970   1.449   6.320   6.862 -0.5514 -0.6580  0.5512
 3137TIP3    H230971   1.579   6.363   6.798 -1.1893 -0.4142 -0.5887
 3138TIP3   OH230972   6.589   1.162   8.607 -0.2536 -0.0116  0.1173
 3138TIP3    H130973   6.603   1.247   8.650  2.8044 -0.1053 -0.4858
 3138TIP3    H230974   6.609   1.097   8.675  1.5288 -0.1725 -0.5139
 3139TIP3   OH230975   2.881   2.516   7.448  0.2808  0.0465 -0.2176
 3139TIP3    H130976   2.816   2.456   7.484 -0.6976 -0.0703 -2.0559
 3139TIP3    H230977   2.855   2.526   7.356  2.2158  0.8894 -0.7058
 3140TIP3   OH230978   1.899   1.231   8.047  0.0583 -0.3138  0.2920
 3140TIP3    H130979   1.921   1.320   8.076 -0.8248  0.1021 -0.2679
 3140TIP3    H230980   1.978   1.200   8.003  0.0475  0.5679 -0.3707
 3141TIP3   OH230981   2.364   2.457   7.804  0.2712  0.2282  0.2952
 3141TIP3    H130982   2.434   2.517   7.778 -0.1288  0.8150  0.5430
 3141TIP3    H230983   2.284   2.503   7.779 -0.0204 -1.3488 -2.0282
 3142TIP3   OH230984   0.359   1.176   0.809 -0.4514  0.2758 -0.4262
 3142TIP3    H130985   0.318   1.262   0.794 -0.9148  0.4303  1.4637
 3142TIP3    H230986   0.287   1.120   0.838  0.3122  0.0893  1.2623
 3143TIP3   OH230987   3.052   2.950   0.193  0.1452  0.5945  0.2399
 3143TIP3    H130988   2.982   3.012   0.172 -0.3444  0.0713  0.2989
 3143TIP3    H230989   3.090   2.982   0.274 -1.2114 -0.0866  1.1899
 3144TIP3   OH230990   4.712   2.682   8.657 -0.4678 -0.0463 -0.8994
 3144TIP3    H130991   4.668   2.600   8.637  1.2876 -0.9303 -1.3140
 3144TIP3    H230992   4.786   2.686   8.597 -0.3595  1.7315 -0.7222
 3145TIP3   OH230993   5.960   0.028   0.294  0.1095 -0.0686 -0.5067
 3145TIP3    H130994   6.032   0.091   0.297 -0.4643  0.5665  0.3050
 3145TIP3    H230995   5.987  -0.041   0.356 -0.4708  0.7314  0.6720
 3146TIP3   OH230996   1.272   4.586   2.777 -0.3048  0.3448 -0.5477
 3146TIP3    H130997   1.223   4.507   2.754 -1.1886  0.6769  0.1123
 3146TIP3    H230998   1.347   4.555   2.828 -0.1161 -0.1352 -1.1164
 3147TIP3   OH230999   5.882   4.740   2.548 -0.1027  0.1601 -0.0597
 3147TIP3    H131000   5.942   4.809   2.576  0.8029 -0.2529 -0.9249
 3147TIP3    H231001   5.901   4.666   2.607 -3.3558  1.5824  3.1142
 3148TIP3   OH231002   0.200   3.493   0.643  0.0779  0.0229 -0.0712
 3148TIP3    H131003   0.128   3.432   0.625  0.4646 -0.6161  0.4831
 3148TIP3    H231004   0.223   3.529   0.558 -0.7860  0.1052 -0.2734
 3149TIP3   OH231005   0.985   2.603   7.439 -0.1922 -0.0446 -0.3736
 3149TIP3    H131006   0.891   2.586   7.425  0.0483 -0.6799 -1.3437
 3149TIP3    H231007   0.988   2.655   7.519 -1.3867  0.0918 -0.3913
 3150TIP3   OH231008   0.786   2.225   0.830  0.3667  0.0472 -0.3758
 3150TIP3    H131009   0.704   2.260   0.795  1.0388  0.3939 -1.6820
 3150TIP3    H231010   0.854   2.272   0.782  1.3315 -0.4531  0.4690
 3151TIP3   OH231011   3.690   3.388   0.721  0.3290 -0.2294  0.2417
 3151TIP3    H131012   3.633   3.466   0.723  0.9534  0.2492 -0.2143
 3151TIP3    H231013   3.775   3.420   0.750  0.9161 -0.4563 -1.1788
 3152TIP3   OH231014   3.741   2.829   0.675 -0.0109 -0.2973  0.0182
 3152TIP3    H131015   3.803   2.903   0.677  1.3019 -1.2732 -1.5412
 3152TIP3    H231016   3.735   2.806   0.583 -1.5480 -1.2183  0.3233
 3153TIP3   OH231017   4.290   4.858   0.625 -0.1801 -0.3169  0.7067
 3153TIP3    H131018   4.344   4.897   0.693 -1.5887 -1.0417  2.3138
 3153TIP3    H231019   4.309   4.764   0.630 -0.5549 -0.4179  0.3348
 3154TIP3   OH231020   6.200   3.259   0.378 -0.2960 -0.0858 -0.3020
 3154TIP3    H131021   6.151   3.261   0.295 -1.5301  1.8646  0.3998
 3154TIP3    H231022   6.168   3.180   0.422 -1.1567 -0.0566 -0.8402
 3155TIP3   OH231023   1.099   4.868   1.511 -0.1413 -0.2258 -0.3193
 3155TIP3    H131024   1.124   4.947   1.558 -1.3343 -0.1544  0.2439
 3155TIP3    H231025   1.063   4.899   1.429 -1.8009 -0.0601  0.4287
 3156TIP3   OH231026   4.747   1.685   0.377 -0.1446  0.1895  0.4688
 3156TIP3    H131027   4.682   1.740   0.422 -0.3548  0.3158  0.0151
 3156TIP3    H231028   4.696   1.615   0.337  0.2184 -0.9211  1.8541
 3157TIP3   OH231029   4.250   1.378   2.476 -0.9132 -0.3251 -0.0098
 3157TIP3    H131030   4.248   1.283   2.487 -1.1177 -0.3711 -0.4139
 3157TIP3    H231031   4.215   1.413   2.558  0.2621 -0.5556  0.6071
 3158TIP3   OH231032   1.175   4.207   0.735 -0.0453 -0.1713 -0.3991
 3158TIP3    H131033   1.159   4.115   0.754 -0.1660 -0.0362  0.1866
 3158TIP3    H231034   1.129   4.254   0.805  1.6231  0.2670  0.4637
 3159TIP3   OH231035   1.051   1.531   1.160 -0.1044  0.0275 -0.2451
 3159TIP3    H131036   1.110   1.606   1.163  0.2933 -0.2990  0.7401
 3159TIP3    H231037   0.964   1.569   1.164 -0.0041  0.5349 -2.0586
 3160TIP3   OH231038   1.013   4.606   8.387 -0.1298  0.1287  0.1171
 3160TIP3    H131039   1.070   4.609   8.464 -1.4661  1.2296  1.1227
 3160TIP3    H231040   0.942   4.667   8.408 -1.6069 -1.0876 -1.1289
 3161TIP3   OH231041   2.543   3.955   1.652  0.4826 -0.2543  0.0309
 3161TIP3    H131042   2.544   3.951   1.557  1.3708  0.5009 -0.0159
 3161TIP3    H231043   2.527   4.048   1.672  0.6913 -0.3351  0.6044
 3162TIP3   OH231044   6.273   1.635   1.252 -0.1340  0.2612  0.1609
 3162TIP3    H131045   6.190   1.622   1.206  1.1339 -3.6584 -1.4025
 3162TIP3    H231046   6.255   1.608   1.342 -0.4164 -1.4375 -0.3724
 3163TIP3   OH231047   4.441   0.061   0.388 -0.3723 -0.4595  0.3266
 3163TIP3    H131048   4.415   0.067   0.480 -0.6747 -1.6466  0.3345
 3163TIP3    H231049   4.378   0.001   0.350  0.1504 -0.4824 -0.5145
 3164TIP3   OH231050   6.789   6.453   6.958 -0.3378 -0.1969  0.2606
 3164TIP3    H131051   6.808   6.359   6.951  0.4119  0.0421 -1.7951
 3164TIP3    H231052   6.695   6.459   6.944 -0.4174 -0.6512  0.5742
 3165TIP3   OH231053   4.075   3.337   0.499  0.3541 -0.2218  0.0621
 3165TIP3    H131054   4.111   3.309   0.415  1.5285  0.8968  0.1696
 3165TIP3    H231055   4.145   3.321   0.562 -0.4882 -0.9700  0.8371
 3166TIP3   OH231056   0.720   2.535   7.455 -0.0129 -0.0126  0.1733
 3166TIP3    H131057   0.700   2.451   7.498 -1.3522  0.9842  1.6334
 3166TIP3    H231058   0.634   2.568   7.427  0.6798  0.0381 -2.1265
 3167TIP3   OH231059   2.251   6.627   7.651 -0.7563 -0.1990 -0.4326
 3167TIP3    H131060   2.311   6.574   7.600  1.0326  1.5131 -0.2244
 3167TIP3    H231061   2.233   6.703   7.596 -1.2840  0.1908  0.2562
 3168TIP3   OH231062   5.578   2.888   0.256  1.1498  0.4654  0.4992
 3168TIP3    H131063   5.647   2.944   0.220  0.3920  0.5169 -0.9087
 3168TIP3    H231064   5.521   2.869   0.182 -0.7172  0.9408  1.7658
 3169TIP3   OH231065   1.052   4.004   1.762  0.8900  0.3661 -0.3899
 3169TIP3    H131066   1.138   3.963   1.759 -0.3878 -2.7513  0.9061
 3169TIP3    H231067   1.036   4.033   1.672  1.8725 -2.3332 -1.5360
 3170TIP3   OH231068   6.633   6.685   1.638  0.3354  0.7605 -0.0544
 3170TIP3    H131069   6.696   6.756   1.652  0.7548  0.0891  1.6967
 3170TIP3    H231070   6.554   6.713   1.683 -0.1898  0.9968 -1.0962
 3171TIP3   OH231071   3.838   4.554   8.457 -0.0550 -0.3755 -0.3712
 3171TIP3    H131072   3.872   4.541   8.546 -0.2737 -0.7993 -0.3459
 3171TIP3    H231073   3.830   4.649   8.447 -0.9397 -0.3605  0.4051
 3172TIP3   OH231074   5.774   5.463   2.090 -0.3356 -1.0112  0.2390
 3172TIP3    H131075   5.838   5.392   2.080 -1.1468 -1.8777  1.0315
 3172TIP3    H231076   5.766   5.474   2.185 -1.1296 -0.6941  0.1423
 3173TIP3   OH231077   2.562   6.444   0.306  0.6294  0.3166 -0.6206
 3173TIP3    H131078   2.519   6.382   0.365 -1.4712  1.9286 -0.3317
 3173TIP3    H231079   2.649   6.456   0.343 -0.5644  1.2020  2.1889
 3174TIP3   OH231080   3.307   1.941   1.509 -0.1541  0.5082 -0.2152
 3174TIP3    H131081   3.257   1.903   1.437  0.2022 -1.4357  0.5083
 3174TIP3    H231082   3.253   2.013   1.540 -1.7991 -0.5838 -0.4202
 3175TIP3   OH231083   3.375   1.653   8.585 -0.3980 -0.5975 -0.5833
 3175TIP3    H131084   3.443   1.711   8.619  0.0040  0.6444 -3.2671
 3175TIP3    H231085   3.295   1.706   8.588 -0.5035 -0.7423 -0.8043
 3176TIP3   OH231086   6.578   3.326   1.278 -0.1165  0.0827 -0.3783
 3176TIP3    H131087   6.535   3.241   1.281 -1.1963  0.6564  0.9213
 3176TIP3    H231088   6.508   3.388   1.258  0.4861  0.7841 -0.3590
 3177TIP3   OH231089   3.650   4.233   8.092  0.0094 -0.2649 -0.2514
 3177TIP3    H131090   3.661   4.188   8.175  1.8489  0.5896  0.0269
 3177TIP3    H231091   3.704   4.183   8.031  1.6099  1.1528 -0.0672
 3178TIP3   OH231092   3.202   0.739   1.623 -0.5824  0.1189  0.4741
 3178TIP3    H131093   3.201   0.669   1.558  1.7127  0.8399 -0.4293
 3178TIP3    H231094   3.111   0.767   1.630 -0.9354 -0.0489 -2.3864
 3179TIP3   OH231095   5.403   6.302   2.324  0.2397 -0.1139  0.3941
 3179TIP3    H131096   5.422   6.228   2.266 -0.2550  1.3118 -1.6874
 3179TIP3    H231097   5.460   6.373   2.292 -0.2120  0.7906  1.5268
 3180TIP3   OH231098   3.128   2.680   0.144  0.1100  0.4192  0.0076
 3180TIP3    H131099   3.060   2.613   0.144  0.0373  0.4920 -0.6293
 3180TIP3    H231100   3.093   2.749   0.201  0.6286 -0.5079  1.5170
 3181TIP3   OH231101   3.577   4.481   0.365 -0.2139 -0.1518  0.0987
 3181TIP3    H131102   3.600   4.573   0.379  0.4094 -0.4563  1.2416
 3181TIP3    H231103   3.620   4.457   0.283 -0.2734  0.5446 -0.1389
 3182TIP3   OH231104   3.583   1.990   6.956 -0.5815 -0.6206 -0.5765
 3182TIP3    H131105   3.672   1.965   6.931  0.2085 -0.4242  1.7879
 3182TIP3    H231106   3.577   2.084   6.935 -0.9298 -1.0059 -2.4242
 3183TIP3   OH231107   4.692   5.925   1.027 -0.2707  0.3774  0.3622
 3183TIP3    H131108   4.616   5.973   0.997  0.1703  0.8144 -0.0680
 3183TIP3    H231109   4.732   5.981   1.094  0.0752  0.4777  0.0749
 3184TIP3   OH231110   6.449   2.627   0.887 -0.3853  0.4259  0.0576
 3184TIP3    H131111   6.375   2.670   0.930 -0.7377  0.5246 -0.6319
 3184TIP3    H231112   6.411   2.550   0.845  0.4884 -1.4759  2.5671
 3185TIP3   OH231113   3.975   3.711   1.604  0.4815  0.2916 -0.2225
 3185TIP3    H131114   4.042   3.714   1.672  1.6242  2.5378 -1.3189
 3185TIP3    H231115   4.009   3.769   1.535 -0.1530 -2.5606 -3.1697
 3186TIP3   OH231116   5.442   4.092   1.919 -0.6139  0.6377 -0.6181
 3186TIP3    H131117   5.373   4.157   1.936 -1.1170  0.2637 -1.2068
 3186TIP3    H231118   5.403   4.008   1.942 -0.4090  0.4057 -1.0934
 3187TIP3   OH231119   1.333   0.660   1.525  0.5642  0.5863 -0.3206
 3187TIP3    H131120   1.272   0.624   1.461  0.7692 -0.2617 -0.0506
 3187TIP3    H231121   1.396   0.710   1.474 -0.3058  1.4182 -0.6109
 3188TIP3   OH231122   1.734   3.935   8.050 -0.0288 -0.3103  0.0014
 3188TIP3    H131123   1.722   4.013   7.996  0.0478  0.3476  0.9245
 3188TIP3    H231124   1.780   3.874   7.993 -1.3415 -0.2242 -1.2096
 3189TIP3   OH231125   1.274   3.447   8.202  0.1275 -0.5362 -0.2024
 3189TIP3    H131126   1.274   3.369   8.257  0.6441 -0.6272 -0.3259
 3189TIP3    H231127   1.219   3.424   8.127  0.2162 -0.7530 -0.2003
 3190TIP3   OH231128   1.494   5.616   7.497 -0.3317  0.3294 -0.2909
 3190TIP3    H131129   1.445   5.555   7.443 -0.7536  0.1716  0.2606
 3190TIP3    H231130   1.431   5.683   7.521 -0.5141 -0.3197  1.1197
 3191TIP3   OH231131   2.550   0.982   8.217 -0.2688  0.2587 -0.0941
 3191TIP3    H131132   2.504   0.976   8.301 -2.5779  0.7053 -1.2264
 3191TIP3    H231133   2.609   0.907   8.216 -0.6976 -0.1362  1.6468
 3192TIP3   OH231134   3.502   3.571   0.448 -0.5051  0.2674  0.1024
 3192TIP3    H131135   3.410   3.551   0.434 -0.6332  0.9134 -0.0069
 3192TIP3    H231136   3.521   3.536   0.535 -1.0469  0.7738  0.4294
 3193TIP3   OH231137   6.487   3.094   7.734  0.0194  0.3990 -0.4240
 3193TIP3    H131138   6.486   2.998   7.735 -0.0639  0.3924 -0.9454
 3193TIP3    H231139   6.399   3.118   7.764  0.5415  0.3406  1.2546
 3194TIP3   OH231140   4.446   1.727   1.541 -0.0008 -0.1772  0.6800
 3194TIP3    H131141   4.351   1.732   1.542  0.0030  0.2545 -0.3453
 3194TIP3    H231142   4.475   1.808   1.498  0.8078 -0.5384  0.5139
 3195TIP3   OH231143   0.331   0.169   2.344  0.2745  0.1993  0.4952
 3195TIP3    H131144   0.354   0.131   2.428  0.8320  1.2275  0.8276
 3195TIP3    H231145   0.256   0.226   2.364 -1.2840 -1.5065 -0.1940
 3196TIP3   OH231146   2.964   4.161   7.986 -0.0395 -0.2606  0.3823
 3196TIP3    H131147   2.937   4.130   7.900  0.7942 -2.6172  0.8959
 3196TIP3    H231148   3.057   4.179   7.977 -0.0868  0.1090  0.6249
 3197TIP3   OH231149   3.476   5.573   8.295  0.1470 -0.2549  0.1557
 3197TIP3    H131150   3.503   5.640   8.357  1.4625 -0.4946 -0.1165
 3197TIP3    H231151   3.540   5.502   8.307 -1.5142 -1.7030  0.8103
 3198TIP3   OH231152   5.796   6.196   0.432  0.1656 -0.3143  0.0783
 3198TIP3    H131153   5.839   6.215   0.348  1.2343  0.8123  0.8515
 3198TIP3    H231154   5.868   6.178   0.492 -0.3701  1.6935  1.4263
 3199TIP3   OH231155   2.617   6.785   8.652 -0.2031 -0.0427 -0.0311
 3199TIP3    H131156   2.684   6.810   8.588 -1.7394  0.7551 -1.3891
 3199TIP3    H231157   2.562   6.722   8.605 -1.5875  0.8539  0.3273
 3200TIP3   OH231158   2.604   6.429   6.695  0.3511 -0.0620  0.4514
 3200TIP3    H131159   2.581   6.521   6.684 -3.2608 -0.9039 -0.5078
 3200TIP3    H231160   2.521   6.387   6.717  1.1494 -3.5324 -2.3170
 3201TIP3   OH231161   4.005   0.238   1.408 -0.8898  0.4080 -0.0236
 3201TIP3    H131162   4.076   0.289   1.369 -0.3885  0.4354  0.8810
 3201TIP3    H231163   4.050   0.170   1.460 -1.5315 -0.0861 -0.0974
 3202TIP3   OH231164   1.093   2.053   8.075 -0.1109 -0.5480  0.2723
 3202TIP3    H131165   1.049   2.111   8.138  1.2730  1.0728 -0.1736
 3202TIP3    H231166   1.031   2.046   8.002 -0.3046  0.4399  0.3206
 3203TIP3   OH231167   2.522   3.432   1.028  0.1331  0.0416  0.2535
 3203TIP3    H131168   2.468   3.361   1.063  1.4760 -1.6761 -0.9932
 3203TIP3    H231169   2.568   3.467   1.104 -0.2878 -0.6649  0.8454
 3204TIP3   OH231170   0.127   3.872   7.706  0.0756  0.2322  0.1007
 3204TIP3    H131171   0.066   3.893   7.635  2.9717  2.6091 -2.0081
 3204TIP3    H231172   0.196   3.821   7.663  1.3359  0.7290  1.4411
 3205TIP3   OH231173   0.195   3.271   7.899 -0.5465  0.1906  0.0792
 3205TIP3    H131174   0.137   3.311   7.833 -1.1479 -0.3682  0.2567
 3205TIP3    H231175   0.137   3.214   7.949  0.3544 -1.1659 -0.3906
 3206TIP3   OH231176   4.215   4.556   8.601 -0.0552 -0.6523  0.0367
 3206TIP3    H131177   4.272   4.616   8.649  0.0268 -0.7419  0.0524
 3206TIP3    H231178   4.131   4.561   8.646 -0.0331 -0.5895  0.0703
 3207TIP3   OH231179   4.900   5.424   7.959  0.6018  0.0051 -0.5389
 3207TIP3    H131180   4.816   5.408   8.001  1.0881  0.8706  0.8241
 3207TIP3    H231181   4.878   5.447   7.869 -0.5770 -0.3224 -0.3445
 3208TIP3   OH231182   1.395   2.316   1.020 -0.0861 -0.3090  0.5947
 3208TIP3    H131183   1.477   2.302   0.972  0.6892  2.3138  1.0409
 3208TIP3    H231184   1.331   2.337   0.953  0.3244  0.5254  0.4524
 3209TIP3   OH231185   4.792   1.799   7.901  0.0277 -0.0147 -0.2862
 3209TIP3    H131186   4.724   1.865   7.887 -1.0155 -0.8146  0.7109
 3209TIP3    H231187   4.796   1.750   7.819  0.0288  0.6122 -0.6576
 3210TIP3   OH231188   6.717   5.881   1.831  0.3130  0.2339  0.2234
 3210TIP3    H131189   6.637   5.864   1.880  1.3740  0.6994  2.2187
 3210TIP3    H231190   6.783   5.902   1.898  1.4870  2.3521 -1.4590
 3211TIP3   OH231191   3.169   4.011   0.051  0.0998  0.1874 -0.7854
 3211TIP3    H131192   3.213   3.937   0.094  0.4656  0.7075 -0.2389
 3211TIP3    H231193   3.241   4.062   0.012  0.1194  1.5592  0.9252
 3212TIP3   OH231194   6.264   2.917   6.507 -0.1476  0.4241  0.8226
 3212TIP3    H131195   6.328   2.906   6.577 -1.3702 -0.1484  1.9031
 3212TIP3    H231196   6.211   2.992   6.533  0.7661  1.6406 -0.6484
 3213TIP3   OH231197   0.429   1.018   1.413 -0.2831 -0.6542 -0.3530
 3213TIP3    H131198   0.408   0.941   1.359  0.1413 -0.0566 -1.4010
 3213TIP3    H231199   0.448   1.087   1.350 -0.7342  0.3466  0.5731
 3214TIP3   OH231200   3.787   0.227   7.178 -0.1204 -0.6149 -0.0619
 3214TIP3    H131201   3.831   0.142   7.184 -0.3943 -0.8720 -1.4976
 3214TIP3    H231202   3.761   0.235   7.087 -0.3797  0.8873  0.1131
 3215TIP3   OH231203   3.113   4.819   6.975 -0.0115 -0.0793  0.0556
 3215TIP3    H131204   3.071   4.881   6.916 -1.1917 -0.2549  0.6653
 3215TIP3    H231205   3.166   4.763   6.919 -1.3710 -0.4650 -0.8872
 3216TIP3   OH231206   6.780   5.605   0.226  0.3840 -0.2514  0.2455
 3216TIP3    H131207   6.783   5.679   0.166 -0.3694 -0.9408 -0.6688
 3216TIP3    H231208   6.831   5.536   0.182  0.2205 -0.6094  0.6101
 3217TIP3   OH231209   5.331   0.550   8.220  0.0367 -0.2995 -1.0223
 3217TIP3    H131210   5.370   0.562   8.306 -2.0506 -1.0845  0.1000
 3217TIP3    H231211   5.371   0.470   8.186 -0.1349 -0.7676 -0.1475
 3218TIP3   OH231212   5.352   3.475   0.764  0.3661 -0.1096 -0.1151
 3218TIP3    H131213   5.391   3.552   0.804  1.0856  0.4775 -1.8707
 3218TIP3    H231214   5.361   3.489   0.670 -0.5907 -1.7763 -0.4971
 3219TIP3   OH231215   3.688   3.794   0.537  0.5018 -0.4306  0.0465
 3219TIP3    H131216   3.624   3.723   0.527 -0.1134  0.1168  0.0557
 3219TIP3    H231217   3.724   3.806   0.449  0.2522 -0.4270 -0.0569
 3220TIP3   OH231218   3.537   2.839   0.861 -0.2732  0.4560 -0.3903
 3220TIP3    H131219   3.516   2.746   0.869  1.4688  0.1770  2.3109
 3220TIP3    H231220   3.605   2.843   0.794  0.5816 -0.4376  0.3927
 3221TIP3   OH231221   0.373   5.327   2.379  0.1829  0.4984 -0.7040
 3221TIP3    H131222   0.450   5.282   2.344  0.1368  0.5994 -0.9349
 3221TIP3    H231223   0.323   5.257   2.422  1.4763  0.7834  1.3874
 3222TIP3   OH231224   3.935   5.948   7.247  0.0469  0.1931 -0.2374
 3222TIP3    H131225   4.016   5.925   7.293 -0.2752  0.4214  0.4491
 3222TIP3    H231226   3.928   5.882   7.178  0.1669 -0.5850  0.4832
 3223TIP3   OH231227   1.467   3.157   2.019 -0.3503  0.2517 -0.1106
 3223TIP3    H131228   1.506   3.204   1.946  1.1381 -2.3091 -1.0918
 3223TIP3    H231229   1.479   3.065   1.998 -1.0906 -0.6093  2.7399
 3224TIP3   OH231230   3.475   3.167   2.683 -0.2563  0.0199  0.0073
 3224TIP3    H131231   3.547   3.164   2.747  1.7389  1.3056 -2.0137
 3224TIP3    H231232   3.428   3.247   2.704  0.0108  0.1189  0.2381
 3225TIP3   OH231233   0.366   2.944   1.156 -0.6711  0.1118  0.7957
 3225TIP3    H131234   0.418   2.883   1.104 -1.1947 -0.1635  0.5855
 3225TIP3    H231235   0.429   2.983   1.217 -0.4340 -1.1055  1.3678
 3226TIP3   OH231236   2.567   4.989   7.446 -0.2731  0.5577  0.7707
 3226TIP3    H131237   2.491   4.958   7.496  0.1342  0.0653  1.1021
 3226TIP3    H231238   2.605   5.058   7.500  0.4220 -0.2728  1.3751
 3227TIP3   OH231239   2.434   2.139   8.079  0.4804 -0.3205  0.1657
 3227TIP3    H131240   2.500   2.179   8.136 -2.3071 -0.3923  3.7873
 3227TIP3    H231241   2.445   2.045   8.092  2.2105 -0.5821 -2.5203
 3228TIP3   OH231242   3.483   2.191   7.709 -0.0165 -0.1919  0.1248
 3228TIP3    H131243   3.434   2.225   7.634 -0.4673 -0.0176  0.4898
 3228TIP3    H231244   3.418   2.182   7.779  0.4284 -0.1562  0.5579
 3229TIP3   OH231245   3.974   5.945   1.205 -0.0951  0.0874  0.2365
 3229TIP3    H131246   3.975   5.946   1.109 -1.1619 -0.3810  0.2079
 3229TIP3    H231247   3.907   6.008   1.229 -1.4083 -1.3893  0.5987
 3230TIP3   OH231248   2.656   3.865   8.120  0.3257  0.1142  0.5017
 3230TIP3    H131249   2.669   3.950   8.078 -0.7451 -0.1992 -0.5192
 3230TIP3    H231250   2.561   3.858   8.131  0.2889 -1.4261 -0.4911
 3231TIP3   OH231251   4.914   2.156   0.018  0.4426 -0.1860  0.2018
 3231TIP3    H131252   4.863   2.165   0.099 -1.4823 -0.9477 -0.8433
 3231TIP3    H231253   4.898   2.237  -0.029 -0.1275 -0.5693 -0.2827
 3232TIP3   OH231254   6.763   6.117   0.604 -0.6493 -0.0327  0.0152
 3232TIP3    H131255   6.852   6.136   0.636 -0.2083 -0.5981 -0.8596
 3232TIP3    H231256   6.713   6.101   0.684  0.3052 -0.8537  0.4685
 3233TIP3   OH231257   3.908   1.579   7.939 -0.2995 -0.6495 -0.7941
 3233TIP3    H131258   3.881   1.523   8.012 -0.7379 -0.5407 -0.8682
 3233TIP3    H231259   3.893   1.526   7.861 -0.5242 -0.5056 -0.8508
 3234TIP3   OH231260   4.355   5.276   8.313  0.4142 -0.3313  0.2720
 3234TIP3    H131261   4.268   5.239   8.322 -0.8884  2.1219 -1.1357
 3234TIP3    H231262   4.375   5.313   8.399  1.4650 -3.4717  1.5027
 3235TIP3   OH231263   3.691   2.141   0.807  0.2078 -0.2962  0.1493
 3235TIP3    H131264   3.712   2.190   0.887 -3.1076 -0.1300  1.0383
 3235TIP3    H231265   3.677   2.209   0.741 -1.7384 -0.1219  0.6976
 3236TIP3   OH231266   1.948   5.121   8.546 -0.0206 -0.4554  0.0579
 3236TIP3    H131267   1.991   5.206   8.558  1.0578 -1.1073  1.0616
 3236TIP3    H231268   1.918   5.097   8.634 -0.3443 -1.0981 -0.2253
 3237TIP3   OH231269   2.490   0.674   1.589  0.1760  0.0898  0.2609
 3237TIP3    H131270   2.560   0.654   1.651 -0.6044 -1.9539  0.5580
 3237TIP3    H231271   2.413   0.629   1.624 -0.6529  0.1288 -1.3975
 3238TIP3   OH231272   2.360   2.930   8.109  0.0096 -0.2718  0.1039
 3238TIP3    H131273   2.386   2.838   8.118 -0.0647 -0.2221  0.9176
 3238TIP3    H231274   2.375   2.951   8.017  0.9221 -0.8306  0.1185
 3239TIP3   OH231275   6.807   3.864   0.386  0.1052  0.0214  0.3580
 3239TIP3    H131276   6.814   3.949   0.430  0.5087  0.4172 -0.4666
 3239TIP3    H231277   6.849   3.803   0.446  1.2876  0.6699  0.2278
 3240TIP3   OH231278   2.875   3.100   7.615  0.4794 -0.1111  0.6187
 3240TIP3    H131279   2.914   3.096   7.703  2.1949 -1.9227 -0.1406
 3240TIP3    H231280   2.789   3.060   7.626  0.9819 -1.0395  1.3577
 3241TIP3   OH231281   0.957   6.366   2.373 -0.1185 -0.4282  0.0142
 3241TIP3    H131282   0.960   6.288   2.317 -1.0111 -0.2731 -0.2769
 3241TIP3    H231283   0.863   6.386   2.379  0.1662  1.7801 -1.5392
 3242TIP3   OH231284   2.184   0.611   2.000  0.8241 -0.1848 -0.1239
 3242TIP3    H131285   2.103   0.628   2.048 -0.4294  1.0714 -2.4930
 3242TIP3    H231286   2.234   0.692   2.007  0.5779  0.0481 -1.0133
 3243TIP3   OH231287   3.133   1.772   0.022 -0.1578 -0.1423 -0.5520
 3243TIP3    H131288   3.075   1.713   0.069  0.1871 -0.2736 -0.2870
 3243TIP3    H231289   3.105   1.859   0.047 -0.3400 -0.2040 -0.5449
 3244TIP3   OH231290   2.120   0.477   1.227 -0.3818  0.1498 -0.0765
 3244TIP3    H131291   2.151   0.402   1.278 -0.9251 -1.1854 -1.6347
 3244TIP3    H231292   2.193   0.498   1.168 -0.8162 -0.1726 -0.7296
 3245TIP3   OH231293   5.596   1.794   0.138  0.5680  0.2285  0.0245
 3245TIP3    H131294   5.677   1.787   0.188  0.4670  0.6424  0.2481
 3245TIP3    H231295   5.567   1.883   0.152 -0.5543 -0.2584  0.8984
 3246TIP3   OH231296   1.356   0.337   7.655  0.2647  0.3601  0.3740
 3246TIP3    H131297   1.321   0.416   7.695  0.6729  1.0838 -0.6403
 3246TIP3    H231298   1.321   0.265   7.708  1.1422  1.2645  2.2893
 3247TIP3   OH231299   5.725   6.387   8.303 -0.5747  0.1073 -0.2748
 3247TIP3    H131300   5.673   6.456   8.344 -0.2203  0.2890 -0.1316
 3247TIP3    H231301   5.667   6.351   8.236 -0.7063  0.6459 -0.4556
 3248TIP3   OH231302   6.163   6.478   1.083  0.0325  0.1135  0.2537
 3248TIP3    H131303   6.223   6.525   1.141  0.2249  0.2323 -0.0417
 3248TIP3    H231304   6.165   6.388   1.114 -0.6715  0.3701  1.1085
 3249TIP3   OH231305   2.481   1.107   1.274 -0.1397  0.5057 -0.4211
 3249TIP3    H131306   2.488   1.030   1.331 -3.8023 -0.6033 -1.2198
 3249TIP3    H231307   2.484   1.182   1.333 -0.6448 -0.4436  0.8466
 3250TIP3   OH231308   0.635   1.331   2.254 -0.2579 -0.6202  0.0115
 3250TIP3    H131309   0.642   1.374   2.168 -0.1451  1.0621  0.8236
 3250TIP3    H231310   0.713   1.277   2.260  1.0835  1.2457  0.0798
 3251TIP3   OH231311   4.455   0.131   1.178  0.0213  0.0675  0.2359
 3251TIP3    H131312   4.490   0.158   1.263  0.3977 -1.8069  0.6995
 3251TIP3    H231313   4.372   0.087   1.199 -0.5858  0.7953 -0.5136
 3252TIP3   OH231314   5.907   4.524   1.120 -0.6049  0.4810 -0.2851
 3252TIP3    H131315   5.866   4.600   1.163  0.5379  1.2190 -0.4559
 3252TIP3    H231316   5.935   4.558   1.035 -0.5464 -0.2839 -0.5736
 3253TIP3   OH231317   6.238   0.360   7.787 -0.3806 -0.1755  0.5000
 3253TIP3    H131318   6.268   0.410   7.711  0.0310 -1.7585 -0.4333
 3253TIP3    H231319   6.146   0.385   7.798 -0.7730 -0.7179 -1.2398
 3254TIP3   OH231320   5.255   2.679   0.219 -0.3045 -0.3568  0.2460
 3254TIP3    H131321   5.300   2.599   0.246 -0.2467 -0.7227 -0.8881
 3254TIP3    H231322   5.305   2.711   0.144 -0.5662  0.5243  0.4331
 3255TIP3   OH231323   1.387   6.741   8.511  0.3392  0.1561  0.0351
 3255TIP3    H131324   1.467   6.776   8.549  0.9525 -0.7197 -0.4076
 3255TIP3    H231325   1.362   6.669   8.570  1.2777 -1.1873 -1.1462
 3256TIP3   OH231326   5.657   1.934   8.179  0.5345  0.3952  0.5549
 3256TIP3    H131327   5.648   2.007   8.241  1.9742  0.0858  1.1601
 3256TIP3    H231328   5.709   1.970   8.108 -1.5544  0.9052 -0.7887
 3257TIP3   OH231329   2.895   0.394   7.595  0.2641  0.3618  0.1583
 3257TIP3    H131330   2.927   0.482   7.615  3.7233 -0.4313 -1.1827
 3257TIP3    H231331   2.968   0.336   7.617 -1.4193 -2.0380 -0.2396
 3258TIP3   OH231332   2.220   2.129   1.964 -0.0674 -0.4431  0.4131
 3258TIP3    H131333   2.297   2.089   2.004  1.5123 -0.0971 -2.0033
 3258TIP3    H231334   2.256   2.185   1.895 -2.3640  2.1661  1.1459
 3259TIP3   OH231335   5.631   3.637   7.451 -0.5490  0.6745 -0.9689
 3259TIP3    H131336   5.644   3.696   7.377  1.9936 -0.0116 -1.1559
 3259TIP3    H231337   5.687   3.561   7.432  2.2402  1.5050  2.6842
 3260TIP3   OH231338   3.583   6.746   0.416  0.1628  0.0235 -0.7444
 3260TIP3    H131339   3.562   6.658   0.387  1.3763 -0.1705 -1.0827
 3260TIP3    H231340   3.621   6.735   0.503  0.6440  0.1736 -0.9318
 3261TIP3   OH231341   5.570   4.474   6.711  0.3133 -0.2134  0.1313
 3261TIP3    H131342   5.528   4.560   6.713 -1.0434 -0.7945 -0.9592
 3261TIP3    H231343   5.648   4.486   6.657  0.7685  0.5730  0.9513
 3262TIP3   OH231344   5.215   2.673   0.881  0.3818  0.6615 -0.4802
 3262TIP3    H131345   5.220   2.731   0.957 -2.1364  1.1247 -0.5918
 3262TIP3    H231346   5.188   2.588   0.917  0.2545  0.5859 -0.7531
 3263TIP3   OH231347   4.839   1.410   1.136  0.3847  0.4176 -0.5638
 3263TIP3    H131348   4.912   1.472   1.141  0.3050  0.4890 -0.2394
 3263TIP3    H231349   4.858   1.356   1.060  0.5902  0.6727 -0.6951
 3264TIP3   OH231350   5.104   6.699   2.715  0.2275  0.1918 -0.0922
 3264TIP3    H131351   5.039   6.770   2.714 -0.0416 -0.0561 -0.5321
 3264TIP3    H231352   5.179   6.736   2.762 -0.7968 -0.0179  1.8157
 3265TIP3   OH231353   2.759   6.623   0.176 -0.7481  0.0442  0.2327
 3265TIP3    H131354   2.755   6.660   0.264 -0.5448 -0.3618  0.4111
 3265TIP3    H231355   2.737   6.697   0.118  0.3497  0.6288  0.5374
 3266TIP3   OH231356   6.381   1.975   1.874  0.2411  0.1018 -0.1569
 3266TIP3    H131357   6.346   1.967   1.785 -1.4485  1.0935  0.3557
 3266TIP3    H231358   6.440   2.051   1.870 -0.1654  0.4121 -0.3504
 3267TIP3   OH231359   3.598   6.550   2.859  0.3039  0.2431  0.3823
 3267TIP3    H131360   3.624   6.606   2.933  1.5265  1.1047 -0.6393
 3267TIP3    H231361   3.681   6.527   2.817 -0.2877 -1.2135 -0.0430
 3268TIP3   OH231362   0.596   1.668   7.463  0.5944 -0.1659 -0.5255
 3268TIP3    H131363   0.661   1.737   7.456 -0.9620  1.1864 -2.8273
 3268TIP3    H231364   0.647   1.587   7.468  2.4388  0.9862 -0.0749
 3269TIP3   OH231365   6.749   0.760   0.204 -0.1823  0.2544 -0.2547
 3269TIP3    H131366   6.804   0.732   0.131  1.1761 -0.0298  0.8312
 3269TIP3    H231367   6.684   0.690   0.212  0.4445 -0.3646 -0.3980
 3270TIP3   OH231368   0.151   5.921   0.740 -0.0737 -0.0128  0.3275
 3270TIP3    H131369   0.152   5.828   0.717  0.6517 -0.2275  1.1473
 3270TIP3    H231370   0.227   5.957   0.695 -0.5359  0.2573 -0.2455
 3271TIP3   OH231371   0.222   2.880   2.092  0.3217 -0.2236 -0.1072
 3271TIP3    H131372   0.295   2.859   2.033  1.1162  0.5392  0.5711
 3271TIP3    H231373   0.200   2.971   2.072  0.0141 -0.2375  0.1622
 3272TIP3   OH231374   3.243   4.029   6.631  0.5127  0.0633  0.0150
 3272TIP3    H131375   3.328   4.058   6.662  0.4085  0.2311  0.1456
 3272TIP3    H231376   3.185   4.103   6.648  0.5990  0.4393 -1.2207
 3273TIP3   OH231377   0.544   5.201   1.155  0.2918 -0.3634 -0.2293
 3273TIP3    H131378   0.538   5.109   1.180 -0.5483 -0.4464 -0.7060
 3273TIP3    H231379   0.633   5.227   1.180  0.3331 -1.1333  0.4637
 3274TIP3   OH231380   0.964   6.781   2.899  0.1722 -0.2553  0.0439
 3274TIP3    H131381   0.906   6.801   2.826 -0.8131  1.9853  1.3204
 3274TIP3    H231382   0.950   6.853   2.961  1.3717 -1.7545  2.1949
 3275TIP3   OH231383   4.754   1.185   2.107 -0.1118 -0.0257 -0.1633
 3275TIP3    H131384   4.729   1.206   2.017  2.5587  0.6807 -0.8375
 3275TIP3    H231385   4.721   1.097   2.121 -2.2720  0.5568 -1.1069
 3276TIP3   OH231386   5.198   4.259   0.253 -0.0386  0.2126  0.0425
 3276TIP3    H131387   5.226   4.348   0.236 -1.1803  0.4272 -0.8347
 3276TIP3    H231388   5.200   4.251   0.348 -1.5044  1.7282  0.2411
 3277TIP3   OH231389   3.186   2.513   2.602  0.1536  0.2767 -0.9622
 3277TIP3    H131390   3.245   2.468   2.541 -0.6692 -1.2162 -0.7146
 3277TIP3    H231391   3.098   2.492   2.569 -0.2890  0.1215  0.2579
 3278TIP3   OH231392   4.884   6.231   2.097  0.8864 -0.2746  0.9457
 3278TIP3    H131393   4.973   6.242   2.130  0.9620  3.0500  0.0212
 3278TIP3    H231394   4.876   6.297   2.027 -2.2025 -0.6625  0.7952
 3279TIP3   OH231395   4.884   6.596   1.406  0.5641 -0.1703 -0.1492
 3279TIP3    H131396   4.957   6.570   1.350  0.8897  0.2413  0.0788
 3279TIP3    H231397   4.855   6.680   1.370 -0.7625 -1.0296 -1.1466
 3280TIP3   OH231398   1.469   6.193   6.305  0.3822 -0.0745 -0.4487
 3280TIP3    H131399   1.489   6.225   6.217  1.1310  0.2504 -0.1661
 3280TIP3    H231400   1.542   6.222   6.358 -0.6261  0.7724  0.5331
 3281TIP3   OH231401   4.507   2.803   0.529  0.1617  0.2975  0.1041
 3281TIP3    H131402   4.573   2.793   0.460  0.2092 -0.6845  0.2749
 3281TIP3    H231403   4.545   2.757   0.605 -0.8592 -0.5945  0.0953
 3282TIP3   OH231404   6.017   3.182   6.897  0.4749 -0.3306  0.6818
 3282TIP3    H131405   5.939   3.212   6.944  0.9424  0.9329  0.6874
 3282TIP3    H231406   6.087   3.240   6.927  0.9344  0.0376 -1.0390
 3283TIP3   OH231407   1.495   2.826   7.941 -0.3185  0.0702  0.1163
 3283TIP3    H131408   1.506   2.834   7.846 -1.2600 -0.1807 -0.0193
 3283TIP3    H231409   1.416   2.773   7.952 -0.2024  0.0763  1.0434
 3284TIP3   OH231410   4.098   3.104   1.969  0.2129  0.1206 -0.0246
 3284TIP3    H131411   4.032   3.173   1.981  0.1650  0.3495 -1.4561
 3284TIP3    H231412   4.123   3.080   2.058 -1.7097  0.1126  0.5662
 3285TIP3   OH231413   2.988   4.705   7.311 -0.0550 -0.0827 -0.1311
 3285TIP3    H131414   2.911   4.698   7.256 -0.7079 -1.5072  0.9046
 3285TIP3    H231415   2.973   4.644   7.383  2.1856 -0.6635 -0.0650
 3286TIP3   OH231416   6.225   4.782   0.821 -0.0259  0.1787  0.2233
 3286TIP3    H131417   6.188   4.868   0.803  1.7975  1.4084  1.9080
 3286TIP3    H231418   6.310   4.783   0.777  2.4753  1.5197  4.4587
 3287TIP3   OH231419   3.544   3.060   7.825  0.3260  0.3102 -0.3090
 3287TIP3    H131420   3.612   2.995   7.811  0.1560 -1.0384  3.7601
 3287TIP3    H231421   3.462   3.012   7.815  0.1253  0.5948 -0.0633
 3288TIP3   OH231422   1.939   6.704   7.913  0.4200 -0.0386  0.5188
 3288TIP3    H131423   1.960   6.772   7.977  0.9358  0.1756  0.1325
 3288TIP3    H231424   1.888   6.749   7.846 -1.3650 -0.5549  1.4485
 3289TIP3   OH231425   3.455   4.152   7.094  0.0464  0.6902  0.0217
 3289TIP3    H131426   3.510   4.095   7.040 -1.2897 -0.8642  0.2541
 3289TIP3    H231427   3.491   4.239   7.080  0.7578  0.1103 -2.0868
 3290TIP3   OH231428   1.498   0.396   2.098  0.1299  0.1194  0.2509
 3290TIP3    H131429   1.551   0.317   2.109 -0.4541 -0.4520 -0.8917
 3290TIP3    H231430   1.420   0.367   2.052 -0.7763  1.1159  1.0797
 3291TIP3   OH231431   6.678   0.228   8.496 -0.3270  0.7746 -0.3189
 3291TIP3    H131432   6.693   0.201   8.406 -0.0710 -0.2391  0.0223
 3291TIP3    H231433   6.715   0.158   8.550 -2.4570  0.2418  0.5746
 3292TIP3   OH231434   3.642   2.075   7.317 -0.3890 -0.6488 -0.5109
 3292TIP3    H131435   3.648   2.028   7.234  0.4568 -1.9082  0.2337
 3292TIP3    H231436   3.715   2.041   7.370 -0.6814  0.3952  0.6163
 3293TIP3   OH231437   4.758   0.202   0.000 -0.1298  0.2966 -0.6144
 3293TIP3    H131438   4.819   0.147   0.049 -0.5178 -0.1949 -0.6793
 3293TIP3    H231439   4.676   0.153   0.001 -0.8005  1.3842  0.3174
 3294TIP3   OH231440   2.657   6.700   6.741  0.1458  0.2041 -0.4146
 3294TIP3    H131441   2.728   6.636   6.741  1.8637  2.0397 -0.1459
 3294TIP3    H231442   2.685   6.768   6.802 -1.0357  1.8345 -1.5953
 3295TIP3   OH231443   4.168   2.773   8.547  0.1931 -0.2275  0.0809
 3295TIP3    H131444   4.207   2.695   8.587 -0.2790  0.3650  1.8102
 3295TIP3    H231445   4.236   2.808   8.490  1.4803 -0.3466  1.4792
 3296TIP3   OH231446   3.201   3.393   1.667  0.9144  0.1567  0.7084
 3296TIP3    H131447   3.166   3.388   1.578  1.3367 -0.6714  0.5797
 3296TIP3    H231448   3.160   3.471   1.704  0.7141  0.4994 -0.1994
 3297TIP3   OH231449   3.942   0.687   0.752  0.1762  0.4790  0.6004
 3297TIP3    H131450   3.923   0.597   0.777  0.8506 -0.3486 -1.6755
 3297TIP3    H231451   4.038   0.692   0.749  0.1417  1.1095  0.2143
 3298TIP3   OH231452   3.140   0.576   7.808 -0.4941  0.1037 -0.1101
 3298TIP3    H131453   3.079   0.636   7.766  0.2156  1.0205  0.1494
 3298TIP3    H231454   3.085   0.524   7.868 -0.9119  1.4963  0.7727
 3299TIP3   OH231455   4.789   6.376   0.076 -0.7432  0.3116  0.0638
 3299TIP3    H131456   4.795   6.410  -0.013 -0.0093  0.4708  0.1668
 3299TIP3    H231457   4.804   6.282   0.067 -2.4320  0.0404 -0.1803
 3300TIP3   OH231458   4.670   5.795   8.144 -0.0671 -0.5676  0.4970
 3300TIP3    H131459   4.733   5.820   8.077 -1.8302  0.4649 -0.8721
 3300TIP3    H231460   4.650   5.878   8.189 -0.9015 -0.7554  0.4803
 3301TIP3   OH231461   3.062   3.857   6.516  0.6919  0.5316  0.8762
 3301TIP3    H131462   2.997   3.909   6.469 -0.4709 -0.8477  0.8720
 3301TIP3    H231463   3.127   3.920   6.546 -0.5709  1.9398  0.7489
 3302TIP3   OH231464   4.097   0.460   6.565  0.0731 -0.2124  0.6230
 3302TIP3    H131465   4.104   0.540   6.513  0.3599  0.1346  1.1934
 3302TIP3    H231466   4.009   0.463   6.603 -0.2366 -0.5979 -0.0478
 3303TIP3   OH231467   2.254   1.070   7.266  0.0826  0.2118  0.7281
 3303TIP3    H131468   2.180   1.124   7.294 -1.1291 -1.0199  0.0486
 3303TIP3    H231469   2.214   0.996   7.219  1.8201  0.3699 -1.1812
 3304TIP3   OH231470   2.502   2.632   0.060  0.1389 -0.6961  0.2009
 3304TIP3    H131471   2.517   2.538   0.073  0.9246 -0.2988  2.4929
 3304TIP3    H231472   2.441   2.657   0.129 -3.8594 -0.2739 -3.0336
 3305TIP3   OH231473   4.092   1.032   0.219  0.2665 -1.0344 -0.1371
 3305TIP3    H131474   4.023   1.099   0.224  0.2725 -1.1442  2.3280
 3305TIP3    H231475   4.068   0.980   0.142 -0.3681  1.0788 -1.4597
 3306TIP3   OH231476   1.227   3.869   2.521  0.1328 -0.1865  0.4094
 3306TIP3    H131477   1.236   3.873   2.616  2.3906 -0.4596  0.2585
 3306TIP3    H231478   1.316   3.866   2.488 -0.5682  0.9097 -1.7982
 3307TIP3   OH231479   5.234   5.568   0.388 -0.8244 -0.0001 -0.5059
 3307TIP3    H131480   5.187   5.626   0.448  1.5660  0.9391  0.6030
 3307TIP3    H231481   5.231   5.482   0.430 -0.4924  0.3247  0.1927
 3308TIP3   OH231482   0.331   1.665   0.652 -0.0639 -0.2286  1.1706
 3308TIP3    H131483   0.332   1.581   0.700 -0.4885 -0.4296  0.8272
 3308TIP3    H231484   0.250   1.663   0.602  1.3794 -1.0300 -1.3376
 3309TIP3   OH231485   1.443   0.695   0.400 -0.1536 -0.6978  0.0115
 3309TIP3    H131486   1.374   0.673   0.338 -0.6088 -3.4120  1.3319
 3309TIP3    H231487   1.396   0.733   0.475 -0.1016 -1.2537  0.3364
 3310TIP3   OH231488   3.264   1.308   8.294 -0.6750  0.3680 -0.2547
 3310TIP3    H131489   3.308   1.390   8.275 -0.8372  0.7313  0.8882
 3310TIP3    H231490   3.198   1.330   8.361 -0.7155 -0.6789  0.0719
 3311TIP3   OH231491   2.756   6.437   1.906  0.0595  0.2215  0.1960
 3311TIP3    H131492   2.683   6.497   1.921  0.0502  0.3009 -0.1508
 3311TIP3    H231493   2.787   6.413   1.994 -2.0173 -1.8308  0.4735
 3312TIP3   OH231494   4.027   3.135   0.890  0.8702  0.5303 -0.8415
 3312TIP3    H131495   4.097   3.102   0.946  1.2578  0.2532 -1.4791
 3312TIP3    H231496   3.955   3.073   0.902  2.0647 -1.4849 -3.1084
 3313TIP3   OH231497   6.051   3.504   7.210  0.7370  0.1437 -0.7600
 3313TIP3    H131498   6.094   3.443   7.150  1.9748  1.4326 -1.2437
 3313TIP3    H231499   6.106   3.582   7.208 -0.1971  0.8808  0.6871
 3314TIP3   OH231500   1.589   1.268   2.216 -0.1108  0.1459  0.1159
 3314TIP3    H131501   1.597   1.228   2.129  0.5316 -0.0029  0.2437
 3314TIP3    H231502   1.633   1.207   2.275 -0.4993  0.2734  0.5460
 3315TIP3   OH231503   3.244   0.936   0.867 -0.4010  0.1001  0.0364
 3315TIP3    H131504   3.270   0.886   0.789  0.1697  0.5811 -0.0881
 3315TIP3    H231505   3.325   0.979   0.896 -0.7485  0.4390  0.5216
 3316TIP3   OH231506   0.494   3.495   1.557  0.2288 -0.3599  0.1188
 3316TIP3    H131507   0.481   3.568   1.498  0.8056 -1.4266 -1.3843
 3316TIP3    H231508   0.417   3.496   1.614 -1.4432 -0.5622 -2.0301
 3317TIP3   OH231509   1.080   6.763   1.033  0.0425  0.1679 -0.0714
 3317TIP3    H131510   1.100   6.811   0.953 -1.6707 -1.0300 -1.3049
 3317TIP3    H231511   1.061   6.674   1.003 -1.1336 -0.1950  1.5947
 3318TIP3   OH231512   0.559   4.752   8.227  0.6399 -0.0618  0.2571
 3318TIP3    H131513   0.522   4.666   8.206  0.7797  0.1008 -0.7296
 3318TIP3    H231514   0.485   4.812   8.216 -0.3083 -0.3131  3.8988
 3319TIP3   OH231515   0.982   0.693   8.396 -0.1456  0.1117  0.2391
 3319TIP3    H131516   0.931   0.694   8.315  0.0055  1.0750  0.1532
 3319TIP3    H231517   0.945   0.762   8.449  0.5507  0.2971  0.5001
 3320TIP3   OH231518   6.836   6.740   8.089 -0.5613 -0.1745  0.6784
 3320TIP3    H131519   6.757   6.757   8.037 -1.0744 -1.5638  0.9561
 3320TIP3    H231520   6.901   6.710   8.025 -0.0010  1.6233  0.3476
 3321TIP3   OH231521   6.732   2.912   0.672  0.3591  0.0741  0.3884
 3321TIP3    H131522   6.701   2.998   0.701  2.1762  0.6771  0.6594
 3321TIP3    H231523   6.796   2.932   0.604 -0.8528 -1.1780 -1.1992
 3322TIP3   OH231524   4.198   4.842   8.432  0.5631 -0.3490 -0.6277
 3322TIP3    H131525   4.268   4.837   8.497  0.6986  2.1842 -0.4839
 3322TIP3    H231526   4.188   4.752   8.401  3.2179 -0.9782  0.0461
 3323TIP3   OH231527   5.543   2.828   2.045 -0.6387  0.2619 -0.2820
 3323TIP3    H131528   5.573   2.915   2.072  0.0567  0.1862 -0.7760
 3323TIP3    H231529   5.502   2.841   1.960 -1.9455  0.3416  0.3358
 3324TIP3   OH231530   2.982   6.725   7.939  0.5125 -0.1637  0.3170
 3324TIP3    H131531   2.938   6.808   7.923  0.2679 -0.2175  0.7019
 3324TIP3    H231532   2.928   6.660   7.894  0.0213 -0.2692  1.0461
 3325TIP3   OH231533   0.973   0.182   8.058  0.2894 -0.0593  0.0238
 3325TIP3    H131534   0.974   0.093   8.092  1.0276 -0.1448 -0.1933
 3325TIP3    H231535   1.008   0.236   8.129 -2.5336  0.4566  1.1199
 3326TIP3   OH231536   2.679   5.018   7.930  0.1669 -0.2142 -0.6216
 3326TIP3    H131537   2.753   5.034   7.988  0.4659 -0.0728 -1.0352
 3326TIP3    H231538   2.621   4.961   7.980  0.6404 -0.4759 -0.3667
 3327TIP3   OH231539   3.477   3.965   8.358 -0.1216 -0.3563 -0.5857
 3327TIP3    H131540   3.444   3.928   8.276 -0.4843  0.4017 -0.7877
 3327TIP3    H231541   3.454   3.900   8.425  0.5430 -1.1699 -1.1401
 3328TIP3   OH231542   1.859   0.399   8.056 -0.0538  0.5828 -0.2616
 3328TIP3    H131543   1.820   0.312   8.042  0.6435 -0.0037  1.2695
 3328TIP3    H231544   1.940   0.397   8.005  1.4781 -0.8151  2.0629
 3329TIP3   OH231545   3.836   0.579   2.518  0.2592 -0.1074 -0.6168
 3329TIP3    H131546   3.868   0.601   2.431  0.5081  2.8009  0.1145
 3329TIP3    H231547   3.744   0.554   2.505  0.5269 -0.5394 -1.7758
 3330TIP3   OH231548   2.294   2.794   1.006 -0.3229 -0.6582 -0.1699
 3330TIP3    H131549   2.207   2.827   1.030 -1.8454 -3.2655 -1.6038
 3330TIP3    H231550   2.337   2.868   0.963 -1.6900  0.7882  0.8440
 3331TIP3   OH231551   2.766   5.194   0.650 -0.1481 -0.1013 -0.6222
 3331TIP3    H131552   2.820   5.273   0.641  0.8924 -0.8155 -0.8964
 3331TIP3    H231553   2.686   5.224   0.693  1.5659  0.5825  2.3484
 3332TIP3   OH231554   4.740   1.073   8.073 -0.3914  0.1612 -0.1532
 3332TIP3    H131555   4.713   1.122   7.996  1.1953  2.3413  0.5714
 3332TIP3    H231556   4.723   1.132   8.146  1.3154 -0.4647  0.8107
 3333TIP3   OH231557   5.182   1.050   1.355  0.4161 -0.0159 -0.0369
 3333TIP3    H131558   5.233   1.122   1.392 -1.4068  0.8375  0.9440
 3333TIP3    H231559   5.204   1.050   1.262 -0.2496  2.5061 -0.2787
 3334TIP3   OH231560   5.436   5.563   1.991  0.2353 -0.0794 -0.4140
 3334TIP3    H131561   5.351   5.544   1.949  0.3330  0.9913 -1.1357
 3334TIP3    H231562   5.483   5.480   1.987 -0.3319 -0.3849 -1.1022
 3335TIP3   OH231563   3.105   6.184   0.503  0.0453 -0.0399 -0.1176
 3335TIP3    H131564   3.151   6.154   0.581 -0.3731 -0.6942 -0.1176
 3335TIP3    H231565   3.018   6.211   0.535  0.0013  0.0421 -0.3030
 3336TIP3   OH231566   2.926   6.737   1.153  1.0501 -0.8909  0.0499
 3336TIP3    H131567   2.863   6.665   1.165  0.9405 -0.6382  1.1274
 3336TIP3    H231568   2.960   6.753   1.241  1.9029 -0.3658 -0.3680
 3337TIP3   OH231569   4.274   4.911   6.443  0.6732  0.2924 -0.0935
 3337TIP3    H131570   4.228   4.959   6.512 -0.1540 -0.9020  0.2157
 3337TIP3    H231571   4.208   4.852   6.407  1.4398 -0.0010 -1.0488
 3338TIP3   OH231572   0.973   5.915   7.276  0.2711 -0.3943  0.1441
 3338TIP3    H131573   0.917   5.992   7.284  0.3197 -0.1760 -1.3537
 3338TIP3    H231574   0.952   5.861   7.353  0.1310  1.0237  1.1363
 3339TIP3   OH231575   4.697   1.710   7.669  0.4486  0.1332 -0.5471
 3339TIP3    H131576   4.634   1.651   7.710  2.1918 -2.5152 -1.4263
 3339TIP3    H231577   4.646   1.760   7.606 -1.1773 -0.0435  0.5638
 3340TIP3   OH231578   2.045   5.820   0.900  0.4984  0.0897 -0.4299
 3340TIP3    H131579   2.085   5.774   0.826  1.7525 -0.0183  0.2960
 3340TIP3    H231580   2.110   5.885   0.925 -1.0226  1.9794 -1.1168
 3341TIP3   OH231581   2.119   0.949   1.635  0.4239 -0.3055 -0.1286
 3341TIP3    H131582   2.143   0.889   1.565 -2.9332  2.6624 -4.3233
 3341TIP3    H231583   2.046   0.907   1.680  0.9939 -1.1852 -0.0025
 3342TIP3   OH231584   3.939   3.671   8.552 -0.0448  0.2045 -0.1987
 3342TIP3    H131585   3.911   3.750   8.505  0.8995  0.4107 -0.4264
 3342TIP3    H231586   3.917   3.690   8.644  1.8652  1.5539  0.0456
 3343TIP3   OH231587   1.308   3.950   0.344  0.2887  0.1708  0.1638
 3343TIP3    H131588   1.292   3.880   0.407  0.0616  0.5604  0.5488
 3343TIP3    H231589   1.256   3.926   0.267 -0.3433  0.2675  0.5558
 3344TIP3   OH231590   6.082   4.386   0.732  0.4441 -0.1000  0.4232
 3344TIP3    H131591   6.003   4.377   0.678 -0.1008 -1.3899  1.3641
 3344TIP3    H231592   6.099   4.297   0.764  1.3157  0.4486  1.5633
 3345TIP3   OH231593   6.071   5.628   0.496 -0.1350 -0.2794 -0.1432
 3345TIP3    H131594   6.025   5.581   0.566 -1.6588  0.2772 -0.7350
 3345TIP3    H231595   6.069   5.720   0.522  0.1333 -0.1746 -0.4698
 3346TIP3   OH231596   2.561   0.102   7.594  0.3482 -0.5844 -0.0259
 3346TIP3    H131597   2.558   0.144   7.508  1.0850 -0.7705 -0.1481
 3346TIP3    H231598   2.524   0.015   7.580  1.0016 -0.8256 -0.2857
 3347TIP3   OH231599   0.287   4.803   0.919 -0.1020 -0.5314  0.0246
 3347TIP3    H131600   0.275   4.852   1.000 -0.5689  1.3642 -1.1411
 3347TIP3    H231601   0.246   4.718   0.936  0.8265 -0.6330  2.1306
 3348TIP3   OH231602   4.117   0.960   1.238 -0.1072  0.0010 -0.0668
 3348TIP3    H131603   4.097   1.017   1.164  2.6474  3.0203  1.2640
 3348TIP3    H231604   4.106   1.015   1.315  0.5914 -1.9354  1.5151
 3349TIP3   OH231605   3.603   2.597   2.235  0.0998  0.0194 -0.5186
 3349TIP3    H131606   3.698   2.591   2.234  0.1078  0.1805 -0.6921
 3349TIP3    H231607   3.581   2.652   2.160 -0.0691  0.7775  0.0785
 3350TIP3   OH231608   2.580   2.872   1.644 -0.4828  0.3500  0.2561
 3350TIP3    H131609   2.622   2.802   1.694  0.6072  1.6593  1.2455
 3350TIP3    H231610   2.596   2.951   1.695 -0.4490  1.5513 -1.5390
 3351TIP3   OH231611   5.314   3.398   7.470 -0.0703 -0.7349 -0.1242
 3351TIP3    H131612   5.403   3.366   7.476  0.7129  0.8585 -2.1789
 3351TIP3    H231613   5.316   3.482   7.516 -0.5983 -0.8271  0.0762
 3352TIP3   OH231614   6.844   3.310   1.321 -0.0792 -0.0469 -0.3913
 3352TIP3    H131615   6.868   3.398   1.295  1.0792 -0.2588 -0.0940
 3352TIP3    H231616   6.749   3.308   1.313 -0.2702  1.6608  0.9735
 3353TIP3   OH231617   2.280   3.323   7.655 -0.2429  0.1331 -0.1080
 3353TIP3    H131618   2.229   3.279   7.723 -0.4227  0.1434 -0.2376
 3353TIP3    H231619   2.371   3.300   7.675 -0.1733  1.1456  0.8815
 3354TIP3   OH231620   5.950   4.847   2.056 -0.1508 -0.4600 -0.0169
 3354TIP3    H131621   5.890   4.844   2.130 -1.1359 -1.8216 -0.8177
 3354TIP3    H231622   5.963   4.755   2.032  0.6222 -0.0789 -1.1551
 3355TIP3   OH231623   5.514   1.851   1.645  0.2138 -0.1544 -0.2722
 3355TIP3    H131624   5.509   1.926   1.587  0.1600  0.5130  0.5730
 3355TIP3    H231625   5.428   1.847   1.686 -0.6755 -2.2421 -2.1745
 3356TIP3   OH231626   4.767   3.984   8.347  0.1545  0.1239  0.2282
 3356TIP3    H131627   4.673   3.968   8.350  0.5376 -2.4407  0.2339
 3356TIP3    H231628   4.783   4.018   8.258 -0.4257 -2.3450 -0.8998
 3357TIP3   OH231629   6.020   2.106   0.352 -0.2212 -0.0302 -0.0279
 3357TIP3    H131630   6.087   2.166   0.318 -0.1309 -0.6813 -1.0057
 3357TIP3    H231631   5.964   2.087   0.277 -0.7961 -0.4570  0.5002
 3358TIP3   OH231632   4.175   1.933   0.156  0.1995  0.6795 -0.2629
 3358TIP3    H131633   4.119   1.856   0.164  2.3722 -0.8366  1.2921
 3358TIP3    H231634   4.154   1.969   0.070 -0.6632 -1.8064 -1.1705
 3359TIP3   OH231635   2.193   5.293   0.292  0.1171 -0.1787 -0.8283
 3359TIP3    H131636   2.108   5.329   0.266  0.0107 -1.3355 -2.1626
 3359TIP3    H231637   2.172   5.208   0.331  0.5569  0.1995  0.2899
 3360TIP3   OH231638   0.259   5.721   8.106 -0.1333 -0.2742 -0.0116
 3360TIP3    H131639   0.285   5.634   8.076 -1.2097 -0.6355  0.0314
 3360TIP3    H231640   0.165   5.725   8.086  0.2221  1.5319 -1.5535
 3361TIP3   OH231641   5.816   0.971   2.975  0.1716  0.0435  0.0554
 3361TIP3    H131642   5.904   0.981   2.938 -0.0035  0.6783 -0.2080
 3361TIP3    H231643   5.827   0.907   3.045  1.6507  2.7187  2.5091
 3362TIP3   OH231644   3.114   5.143   7.305  0.2983  0.2260  0.3806
 3362TIP3    H131645   3.090   5.236   7.305  1.8265  0.6505  0.8733
 3362TIP3    H231646   3.035   5.098   7.334 -0.6950  1.2900 -0.5391
 3363TIP3   OH231647   0.819   6.536   1.825  0.3140 -0.1766  0.1691
 3363TIP3    H131648   0.789   6.491   1.745 -0.1327  3.2553 -1.8227
 3363TIP3    H231649   0.914   6.525   1.824  0.2701 -0.6299 -0.5537
 3364TIP3   OH231650   5.496   3.546   2.108  0.1730  0.1683  0.1323
 3364TIP3    H131651   5.432   3.594   2.056  0.4954  0.7088  0.2176
 3364TIP3    H231652   5.516   3.604   2.181  0.5375 -0.1153  0.2649
 3365TIP3   OH231653   6.467   1.507   2.834  0.2304  0.2125  0.1868
 3365TIP3    H131654   6.498   1.421   2.859  0.2604 -0.4760 -1.9768
 3365TIP3    H231655   6.380   1.492   2.798  0.8536  0.7539 -1.7171
 3366TIP3   OH231656   4.169   3.506   1.873  0.3168  0.0364  0.0221
 3366TIP3    H131657   4.136   3.449   1.943  1.0524 -2.4090 -1.5076
 3366TIP3    H231658   4.110   3.490   1.799  1.6691 -0.2125 -1.0394
 3367TIP3   OH231659   0.523   4.667   1.970  0.8317  0.5671  0.0475
 3367TIP3    H131660   0.475   4.647   2.050  2.0723  2.4484  1.3427
 3367TIP3    H231661   0.615   4.655   1.992  1.1630  0.1694 -1.4038
 3368TIP3   OH231662   5.752   1.106   7.598 -0.8375  0.3418  0.2636
 3368TIP3    H131663   5.775   1.131   7.688  0.2581  0.3501 -0.0104
 3368TIP3    H231664   5.712   1.185   7.561 -0.7384  0.5299  0.5477
 3369TIP3   OH231665   1.980   3.121   8.330  0.3823  0.2386 -0.2126
 3369TIP3    H131666   1.896   3.128   8.284 -0.3918 -0.5507  1.0180
 3369TIP3    H231667   1.965   3.168   8.412  0.7955 -0.8069  0.4713
 3370TIP3   OH231668   0.956   0.244   0.571  0.7592 -0.8782  0.1141
 3370TIP3    H131669   1.048   0.239   0.597  0.3267 -0.7374  1.8351
 3370TIP3    H231670   0.942   0.335   0.547  1.1436 -0.9697 -0.4600
 3371TIP3   OH231671   5.409   5.009   6.724 -0.6549 -0.8171 -0.2042
 3371TIP3    H131672   5.397   4.929   6.775 -0.5556 -0.8876 -0.2921
 3371TIP3    H231673   5.493   5.044   6.755 -1.9712  0.7681  1.9268
 3372TIP3   OH231674   2.009   5.619   1.492  0.4907  0.0980 -0.7052
 3372TIP3    H131675   2.087   5.597   1.543 -0.4202  0.0652  0.7348
 3372TIP3    H231676   2.001   5.714   1.499  0.1320  0.0509 -0.4114
 3373TIP3   OH231677   6.629   5.631   7.713  0.0369 -0.0436 -0.2673
 3373TIP3    H131678   6.558   5.678   7.758  0.8808 -0.1262  1.2203
 3373TIP3    H231679   6.674   5.699   7.663  0.1873  0.4320  0.4869
 3374TIP3   OH231680   4.251   5.435   2.482 -0.0244 -0.3593  0.3061
 3374TIP3    H131681   4.280   5.386   2.559  0.9559  0.7586  0.6708
 3374TIP3    H231682   4.195   5.373   2.434  0.8586 -1.6897  0.9393
 3375TIP3   OH231683   1.214   5.747   2.868 -0.3720  0.2285  0.1561
 3375TIP3    H131684   1.158   5.685   2.823 -0.7481  0.1125  0.7776
 3375TIP3    H231685   1.155   5.815   2.900 -0.3218 -0.3758  1.6389
 3376TIP3   OH231686   3.854   3.655   2.059 -0.9269 -0.1199 -0.7482
 3376TIP3    H131687   3.838   3.586   1.995  4.0596 -0.5563 -1.9618
 3376TIP3    H231688   3.865   3.609   2.142 -0.6758 -0.4244 -0.9476
 3377TIP3   OH231689   6.681   6.370   0.810  0.3144  0.1867  0.3686
 3377TIP3    H131690   6.703   6.401   0.898 -0.4675  1.1256  0.2427
 3377TIP3    H231691   6.766   6.356   0.768  0.6880  0.1575  1.1177
 3378TIP3   OH231692   0.015   6.102   0.282  0.6931  0.1994  0.0584
 3378TIP3    H131693  -0.039   6.031   0.319 -0.1963  0.4663 -0.6924
 3378TIP3    H231694   0.006   6.091   0.187 -1.6206  2.8531 -0.1525
 3379TIP3   OH231695   2.166   0.393   8.366 -0.1043  0.3145 -0.1925
 3379TIP3    H131696   2.122   0.456   8.423  0.7825  1.0571 -0.3024
 3379TIP3    H231697   2.228   0.445   8.316  0.2424 -0.5678 -0.7021
 3380TIP3   OH231698   2.567   1.560   7.612  0.5762  0.5015  0.3876
 3380TIP3    H131699   2.515   1.513   7.678 -0.9284  0.9822 -0.3957
 3380TIP3    H231700   2.633   1.607   7.663  1.1371 -1.2030  1.3035
 3381TIP3   OH231701   2.843   3.651   6.826 -0.0660 -0.2307  0.3127
 3381TIP3    H131702   2.930   3.692   6.825 -0.5144  0.7336 -0.3915
 3381TIP3    H231703   2.802   3.684   6.906 -0.6786  1.2998 -0.5876
 3382TIP3   OH231704   6.374   4.608   2.354  0.5391  0.3596 -0.0579
 3382TIP3    H131705   6.327   4.545   2.300 -0.7541  1.5398 -0.3646
 3382TIP3    H231706   6.418   4.555   2.420  0.6804 -0.9593 -1.1824
 3383TIP3   OH231707   4.776   1.193   1.559 -0.2119  0.1970  0.1361
 3383TIP3    H131708   4.838   1.120   1.552  0.0196  0.2694  1.1978
 3383TIP3    H231709   4.753   1.214   1.469  1.7779  0.5549 -0.3436
 3384TIP3   OH231710   5.236   3.771   8.157  0.1677  0.5676 -0.2140
 3384TIP3    H131711   5.214   3.838   8.221 -1.0107 -1.3340  1.5148
 3384TIP3    H231712   5.306   3.720   8.199 -0.4769 -0.5738 -0.4622
 3385TIP3   OH231713   0.914   2.153   0.043  0.2683  0.1007 -0.3151
 3385TIP3    H131714   0.898   2.203  -0.037  5.0635  2.2277 -0.3100
 3385TIP3    H231715   0.966   2.078   0.015 -2.2911 -2.0820  0.3809
 3386TIP3   OH231716   2.273   5.993   0.149 -0.0686 -0.5348  0.4769
 3386TIP3    H131717   2.216   6.042   0.209 -0.9199  0.5924 -1.1700
 3386TIP3    H231718   2.351   6.048   0.139 -0.8069  0.3120 -0.9778
 3387TIP3   OH231719   5.765   6.306   2.463  0.3060 -0.0141 -0.0600
 3387TIP3    H131720   5.778   6.399   2.446 -2.0626 -0.0040 -2.3960
 3387TIP3    H231721   5.772   6.264   2.378  0.0923 -1.8214  0.7617
 3388TIP3   OH231722   2.286   5.974   2.568  0.3620  0.5016  0.0995
 3388TIP3    H131723   2.363   5.943   2.520  0.5472  1.9858 -0.6122
 3388TIP3    H231724   2.322   6.020   2.644  0.1690  0.7871  0.0203
 3389TIP3   OH231725   1.452   6.759   8.252  0.0815  0.1241 -0.0642
 3389TIP3    H131726   1.465   6.853   8.263  1.4340 -0.0569  0.1254
 3389TIP3    H231727   1.396   6.733   8.325  1.0526  0.5309  0.8588
 3390TIP3   OH231728   2.541   4.327   1.185  0.3667  0.2324  0.2484
 3390TIP3    H131729   2.551   4.288   1.098 -1.8581  0.7811 -0.2954
 3390TIP3    H231730   2.532   4.252   1.244  0.7891 -0.1221 -0.1279
 3391TIP3   OH231731   6.136   3.136   0.129  0.5661  0.0751  0.1178
 3391TIP3    H131732   6.062   3.133   0.069 -1.0270  1.0015  1.9088
 3391TIP3    H231733   6.121   3.064   0.190  0.5174  0.9000  1.1197
 3392TIP3   OH231734   4.805   5.032   1.027 -0.0623  0.1567 -0.4596
 3392TIP3    H131735   4.801   4.965   0.960 -0.8721 -0.6536  0.3785
 3392TIP3    H231736   4.885   5.082   1.006  0.7520 -1.2716 -0.8837
 3393TIP3   OH231737   6.806   4.834   0.982  0.0870  0.0851 -0.2239
 3393TIP3    H131738   6.893   4.867   1.007  2.2085 -3.4441 -2.1940
 3393TIP3    H231739   6.788   4.765   1.046 -1.0997  0.4846 -0.1100
 3394TIP3   OH231740   5.389   5.537   7.482 -0.5677  0.2018 -0.0297
 3394TIP3    H131741   5.450   5.475   7.522 -1.3273  0.7798  2.1674
 3394TIP3    H231742   5.444   5.613   7.459 -0.1880  0.0687  0.4222
 3395TIP3   OH231743   3.773   1.435   8.297  0.6570  0.0027  0.6128
 3395TIP3    H131744   3.828   1.374   8.248  3.4557  0.2121  3.1610
 3395TIP3    H231745   3.821   1.518   8.295 -0.3081  0.6215  1.7164
 3396TIP3   OH231746   5.574   6.455   1.654 -0.0749 -0.1344 -0.0576
 3396TIP3    H131747   5.660   6.422   1.679 -0.2643 -0.7625 -0.2258
 3396TIP3    H231748   5.517   6.430   1.726 -0.6604 -2.1059 -1.1242
 3397TIP3   OH231749   3.908   0.509   0.411 -0.0085 -0.0818  0.1100
 3397TIP3    H131750   3.914   0.598   0.377  0.5262 -0.5143 -0.9803
 3397TIP3    H231751   3.817   0.484   0.395  0.2200 -0.2574 -0.9930
 3398TIP3   OH231752   5.838   4.242   6.982  0.1349  0.4261  0.0746
 3398TIP3    H131753   5.747   4.244   6.952  0.6501 -0.4917 -1.7233
 3398TIP3    H231754   5.834   4.274   7.072 -1.8199  1.4139 -0.2910
 3399TIP3   OH231755   5.930   3.014   1.710  0.2225 -0.1230  0.1927
 3399TIP3    H131756   5.920   3.010   1.615 -0.9443  1.4504  0.2112
 3399TIP3    H231757   5.932   3.108   1.730  0.5114 -0.4301  1.7147
 3400TIP3   OH231758   3.447   2.240   2.187  0.0213 -0.3012 -0.2766
 3400TIP3    H131759   3.473   2.278   2.103  1.5228 -2.4164 -0.8378
 3400TIP3    H231760   3.519   2.263   2.247  0.2864 -1.0693 -0.2864
 3401TIP3   OH231761   0.840   3.202   0.467 -0.0850  0.0781 -0.0440
 3401TIP3    H131762   0.809   3.285   0.503  3.1345  2.0090 -1.2586
 3401TIP3    H231763   0.877   3.155   0.542  0.3847  0.9504  0.2827
 3402TIP3   OH231764   1.966   0.860   1.905  0.1070  0.2965  0.1887
 3402TIP3    H131765   1.931   0.794   1.965  0.7501 -0.6073 -0.4069
 3402TIP3    H231766   1.890   0.892   1.857 -0.1657 -0.2556  0.2485
 3403TIP3   OH231767   5.880   1.482   8.095 -0.5213 -0.6892  0.8286
 3403TIP3    H131768   5.836   1.411   8.049  0.6954 -0.6486 -0.4646
 3403TIP3    H231769   5.842   1.562   8.059  0.4805 -0.6561 -0.2110
 3404TIP3   OH231770   5.830   3.395   7.627 -0.2250 -0.5237  0.5952
 3404TIP3    H131771   5.801   3.450   7.699  0.0129 -1.2307  1.2454
 3404TIP3    H231772   5.883   3.326   7.669  2.6691  0.8449 -0.4976
 3405TIP3   OH231773   5.927   5.512   7.279 -0.0202  0.2999  0.0312
 3405TIP3    H131774   5.839   5.542   7.258 -0.4141  0.7947  2.0946
 3405TIP3    H231775   5.938   5.431   7.229 -1.8330 -0.0113  0.0758
 3406TIP3   OH231776   3.190   6.057   1.983 -0.0965  0.5797  0.2579
 3406TIP3    H131777   3.206   6.005   2.062 -1.5942  0.1063  0.2710
 3406TIP3    H231778   3.227   6.004   1.912 -0.7436 -0.0482  0.3849
 3407TIP3   OH231779   5.383   2.194   0.014  0.2158  0.3627 -0.9381
 3407TIP3    H131780   5.307   2.225  -0.035 -0.6122  0.3515  0.2669
 3407TIP3    H231781   5.452   2.184  -0.051  0.1929  3.5694 -1.5844
 3408TIP3   OH231782   6.404   3.448   1.968 -0.1593  0.3881  0.1913
 3408TIP3    H131783   6.467   3.376   1.970 -1.5760 -0.9238 -0.4040
 3408TIP3    H231784   6.354   3.434   1.887 -1.2682  1.3351  0.6820
 3409TIP3   OH231785   3.229   1.132   8.514 -0.7830 -0.4235 -0.5762
 3409TIP3    H131786   3.228   1.185   8.435 -1.5175  0.9546  0.3086
 3409TIP3    H231787   3.220   1.195   8.585 -1.3206 -1.7143  0.5534
 3410TIP3   OH231788   4.976   1.033   0.319 -0.1934 -0.2805  0.8231
 3410TIP3    H131789   4.961   1.055   0.227  0.5749  0.8323  0.9418
 3410TIP3    H231790   4.959   1.114   0.366  0.7535 -0.4599  1.5114
 3411TIP3   OH231791   1.600   4.437   8.316 -0.0669  0.2072  0.0003
 3411TIP3    H131792   1.517   4.391   8.326  0.9595 -1.4166  1.7826
 3411TIP3    H231793   1.606   4.494   8.393  1.1562 -0.9073  0.7640
 3412TIP3   OH231794   4.136   5.314   1.570 -0.5533 -0.0008 -0.0608
 3412TIP3    H131795   4.084   5.283   1.643  0.1642 -0.4317  0.2788
 3412TIP3    H231796   4.119   5.408   1.567  1.3494  0.5293  2.3124
 3413TIP3   OH231797   5.844   5.884   8.604 -0.4383  0.2752 -0.2381
 3413TIP3    H131798   5.795   5.947   8.657 -0.6993 -0.2791  0.1836
 3413TIP3    H231799   5.777   5.824   8.571 -0.0580 -0.4247  0.2528
 3414TIP3   OH231800   2.670   6.526   2.589 -0.2283 -0.2837 -0.2659
 3414TIP3    H131801   2.746   6.471   2.570  0.3121  1.1809 -2.7745
 3414TIP3    H231802   2.606   6.466   2.627  1.4102 -1.9818 -0.0273
 3415TIP3   OH231803   2.199   5.707   7.767 -0.1340 -0.8387 -0.2964
 3415TIP3    H131804   2.267   5.642   7.750  0.3110 -0.1972 -1.0061
 3415TIP3    H231805   2.220   5.741   7.854  0.6456 -0.4315 -0.6332
 3416TIP3   OH231806   3.021   6.558   7.688 -0.2748  0.6220 -0.1330
 3416TIP3    H131807   3.005   6.609   7.608  0.1055  0.4056 -0.3472
 3416TIP3    H231808   3.100   6.507   7.669  0.1841  1.0397  0.6105
 3417TIP3   OH231809   3.030   2.434   0.521 -0.0275  0.0412 -0.1889
 3417TIP3    H131810   3.104   2.432   0.460 -0.2512 -0.2151 -0.4556
 3417TIP3    H231811   2.964   2.487   0.476  0.3209  1.0244  0.4337
 3418TIP3   OH231812   1.418   5.028   7.806  0.1776 -0.2689 -0.3758
 3418TIP3    H131813   1.393   5.092   7.873 -0.6576 -0.9502 -0.0247
 3418TIP3    H231814   1.514   5.028   7.807  0.2003  1.1923 -0.5891
 3419TIP3   OH231815   6.565   6.050   2.322  0.2177  0.6189  0.4550
 3419TIP3    H131816   6.582   6.061   2.415  1.7636 -0.9609  0.4092
 3419TIP3    H231817   6.609   6.124   2.280  0.5054  0.6997  0.8951
 3420TIP3   OH231818   1.402   1.519   8.636  0.1138 -0.3637 -0.0998
 3420TIP3    H131819   1.477   1.461   8.622  0.8515  0.8836 -1.7702
 3420TIP3    H231820   1.378   1.506   8.727  2.7573 -0.3836  0.6763
 3421TIP3   OH231821   3.545   3.817   1.994  0.4203 -0.1656 -0.3317
 3421TIP3    H131822   3.537   3.729   2.031  0.0806 -0.0173 -0.0491
 3421TIP3    H231823   3.578   3.802   1.905 -0.2458 -0.6176 -0.5085
 3422TIP3   OH231824   1.577   0.145   2.400  0.4546 -0.2938 -0.3599
 3422TIP3    H131825   1.499   0.097   2.375  0.2539  0.4502 -1.2327
 3422TIP3    H231826   1.562   0.171   2.491 -0.7888  0.7181 -0.8204
 3423TIP3   OH231827   4.608   5.376   6.433 -0.2814 -0.1885  0.2548
 3423TIP3    H131828   4.526   5.376   6.384 -1.8731 -3.3896  2.6015
 3423TIP3    H231829   4.589   5.425   6.513 -0.1235 -1.3942  1.0556
 3424TIP3   OH231830   3.575   4.507   8.344  0.1920 -0.4745 -0.0684
 3424TIP3    H131831   3.572   4.412   8.356 -0.0627 -0.1244  3.9725
 3424TIP3    H231832   3.664   4.531   8.369 -0.1403  0.4394  0.2900
 3425TIP3   OH231833   0.031   5.130   2.158 -0.9787 -0.0031  0.2088
 3425TIP3    H131834  -0.037   5.067   2.134 -0.1388 -0.8821  0.0872
 3425TIP3    H231835   0.100   5.077   2.199  0.3929  0.6186 -1.2233
 3426TIP3   OH231836   3.346   4.328   0.281 -0.6056 -0.2546 -0.2047
 3426TIP3    H131837   3.288   4.287   0.345 -0.9171  1.7596  0.8832
 3426TIP3    H231838   3.388   4.399   0.328 -1.3398  1.7567 -2.3752
 3427TIP3   OH231839   2.362   1.457   0.235 -0.2183  0.0410 -0.0073
 3427TIP3    H131840   2.295   1.391   0.251  0.1070 -0.4289 -0.5501
 3427TIP3    H231841   2.352   1.480   0.142 -1.2123  1.7549  0.4864
 3428TIP3   OH231842   5.544   3.566   8.457 -0.8871  0.3826  0.3523
 3428TIP3    H131843   5.610   3.583   8.525 -0.3371  0.3274 -0.1674
 3428TIP3    H231844   5.541   3.648   8.407  0.6306 -0.4574 -1.1892
 3429TIP3   OH231845   3.252   3.150   8.012  0.2871 -0.2732  0.0123
 3429TIP3    H131846   3.284   3.208   8.082 -0.9002  0.4298 -0.0056
 3429TIP3    H231847   3.315   3.078   8.010  1.9034  1.0872 -0.0651
 3430TIP3   OH231848   4.170   3.549   0.085  0.2312 -0.4386 -0.5425
 3430TIP3    H131849   4.143   3.459   0.101  1.6186 -1.0451 -1.3837
 3430TIP3    H231850   4.112   3.580   0.015 -0.9419 -0.2975  0.4672
 3431TIP3   OH231851   5.171   1.970   0.481  0.0670  0.1476  0.0276
 3431TIP3    H131852   5.261   1.990   0.507 -0.7828  1.0602  2.4971
 3431TIP3    H231853   5.161   2.014   0.397  2.2260 -0.9016 -0.8754
 3432TIP3   OH231854   4.966   1.407   1.538  0.7218  0.0872  0.3814
 3432TIP3    H131855   4.906   1.338   1.566  1.1882 -0.4908 -0.0386
 3432TIP3    H231856   4.987   1.454   1.619  1.1013 -0.8169  0.8248
 3433TIP3   OH231857   2.443   4.491   2.799  0.3307  0.3979 -0.3398
 3433TIP3    H131858   2.532   4.526   2.791  0.3515  0.2664 -0.7147
 3433TIP3    H231859   2.392   4.563   2.835  1.1972 -0.4411  2.8354
 3434TIP3   OH231860   6.163   0.227   7.077  0.0920  0.3479 -0.1020
 3434TIP3    H131861   6.231   0.161   7.066 -0.7204 -0.9204  1.9192
 3434TIP3    H231862   6.207   0.300   7.119  0.2001 -0.5612  1.4265
 3435TIP3   OH231863   3.271   1.577   1.132  0.2182  0.5520  0.8998
 3435TIP3    H131864   3.288   1.529   1.052  2.0592  0.4858  1.2785
 3435TIP3    H231865   3.184   1.548   1.161  0.9149 -1.9100  0.6795
 3436TIP3   OH231866   1.509   2.157   2.234  0.2297 -0.1739 -0.5821
 3436TIP3    H131867   1.447   2.108   2.288  0.1810  0.5483  0.0465
 3436TIP3    H231868   1.524   2.102   2.158 -1.6117 -0.1438 -1.0230
 3437TIP3   OH231869   3.897   0.841   0.402 -0.1475 -0.3740 -0.1220
 3437TIP3    H131870   3.923   0.851   0.310 -0.1596 -0.2621 -0.1130
 3437TIP3    H231871   3.801   0.848   0.400 -0.0371  2.0298  0.1976
 3438TIP3   OH231872   4.983   1.540   0.226 -0.8133 -0.2145  0.2623
 3438TIP3    H131873   4.901   1.559   0.272 -1.0718 -0.8997  0.0961
 3438TIP3    H231874   5.046   1.602   0.262 -1.5278  0.6635  0.0226
 3439TIP3   OH231875   3.271   0.263   0.340 -0.1178 -0.2471 -0.0123
 3439TIP3    H131876   3.207   0.227   0.402  0.7110 -2.0153 -0.1164
 3439TIP3    H231877   3.356   0.233   0.374  0.7154  2.0718  0.1534
 3440TIP3   OH231878   4.673   1.046   0.156 -0.1865 -0.5728  0.0537
 3440TIP3    H131879   4.711   1.060   0.243  0.3674  2.1786 -0.5412
 3440TIP3    H231880   4.628   1.128   0.136  1.2881 -0.3867 -3.0264
 3441TIP3   OH231881   5.088   6.675   6.912 -0.0873  0.2670  0.6204
 3441TIP3    H131882   5.132   6.629   6.984  0.4345  0.3873  0.3831
 3441TIP3    H231883   5.159   6.702   6.854 -0.5511 -0.2839 -0.2176
 3442TIP3   OH231884   5.209   3.589   2.301 -0.2190 -0.5195  0.1148
 3442TIP3    H131885   5.251   3.523   2.356 -1.2702 -0.6542  0.7923
 3442TIP3    H231886   5.267   3.665   2.304  0.6990 -1.1988 -0.1849
 3443TIP3   OH231887   2.432   6.255   0.445 -0.7071  0.5648 -0.1382
 3443TIP3    H131888   2.357   6.231   0.391 -1.3222 -0.2529  1.0375
 3443TIP3    H231889   2.465   6.172   0.478 -1.5252  1.1100  2.2618
 3444TIP3   OH231890   4.940   6.867   7.598 -0.0491 -0.3846  0.1250
 3444TIP3    H131891   5.032   6.893   7.609  0.1449 -0.4240 -1.1627
 3444TIP3    H231892   4.909   6.920   7.524 -0.1878 -2.3921 -1.3657
 3445TIP3   OH231893   1.791   3.140   1.883  0.4953 -0.2627  0.5749
 3445TIP3    H131894   1.872   3.110   1.924  0.0872 -0.7117  1.0608
 3445TIP3    H231895   1.786   3.090   1.802  0.2326 -0.9328  0.9948
 3446TIP3   OH231896   2.545   0.245   1.721  0.0699 -0.1792  0.2458
 3446TIP3    H131897   2.520   0.251   1.629 -0.9434  0.6531  0.5507
 3446TIP3    H231898   2.520   0.157   1.747 -2.0561  0.3907  0.3541
 3447TIP3   OH231899   1.334   2.007   2.405 -0.1130 -0.1962 -0.4878
 3447TIP3    H131900   1.282   1.968   2.334 -1.4205 -2.8754  1.7400
 3447TIP3    H231901   1.277   2.001   2.482  1.0974  2.9379  0.8024
 3448TIP3   OH231902   6.580   1.580   0.855 -0.0814 -0.0753 -0.0783
 3448TIP3    H131903   6.617   1.597   0.942  3.2538  0.6425 -1.4749
 3448TIP3    H231904   6.485   1.574   0.870  0.3673 -0.3805  3.6175
 3449TIP3   OH231905   6.490   2.192   0.257  0.3513  0.3530  0.1293
 3449TIP3    H131906   6.505   2.271   0.205  0.2026  0.6395  0.5207
 3449TIP3    H231907   6.569   2.184   0.311  0.0348  0.6569  0.6366
 3450TIP3   OH231908   6.068   4.070   7.446  0.1420  0.7154  0.0941
 3450TIP3    H131909   6.124   3.994   7.432  0.8745  1.5013 -1.5194
 3450TIP3    H231910   6.010   4.045   7.519  1.5173 -0.7042  0.7475
 3451TIP3   OH231911   6.024   5.722   1.956  0.0344 -0.3528 -0.2281
 3451TIP3    H131912   5.952   5.759   2.006  1.2423  0.3256  1.0609
 3451TIP3    H231913   6.065   5.659   2.015  1.2251  0.1490 -0.4951
 3452TIP3   OH231914   6.137   0.651   8.403  0.4727 -0.2998  0.1441
 3452TIP3    H131915   6.210   0.638   8.343  1.0872 -1.4100  1.1007
 3452TIP3    H231916   6.176   0.653   8.490 -0.5616 -0.2659  0.6302
 3453TIP3   OH231917   4.144   3.489   8.122  0.4208 -0.0513  0.5763
 3453TIP3    H131918   4.093   3.409   8.128  1.2300 -0.5414  0.9900
 3453TIP3    H231919   4.170   3.509   8.212  1.6792 -0.2892  0.2906
 3454TIP3   OH231920   5.164   0.199   2.546 -0.0553 -0.4537 -0.6627
 3454TIP3    H131921   5.141   0.203   2.454 -2.3983 -0.5671 -0.1317
 3454TIP3    H231922   5.097   0.143   2.586  2.3099 -2.5342  0.7256
 3455TIP3   OH231923   0.518   4.877   1.179 -0.3640  0.1239  0.5514
 3455TIP3    H131924   0.551   4.851   1.265  1.1586  1.0874  0.3063
 3455TIP3    H231925   0.496   4.795   1.135  3.6547 -0.8768  0.0212
 3456TIP3   OH231926   4.659   6.522   6.826 -0.5797  0.0020 -0.3563
 3456TIP3    H131927   4.658   6.471   6.745  1.0259 -0.8111  0.0911
 3456TIP3    H231928   4.664   6.456   6.896 -0.6247  0.7217  0.3398
 3457TIP3   OH231929   0.075   2.161   8.460 -0.6658 -0.2879  0.5131
 3457TIP3    H131930   0.127   2.163   8.540  0.8088 -0.1278 -0.3975
 3457TIP3    H231931   0.140   2.157   8.390 -1.9162 -1.4132 -0.6495
 3458TIP3   OH231932   6.836   6.404   7.401 -0.2799 -0.4444  0.7773
 3458TIP3    H131933   6.751   6.403   7.445 -2.0296 -0.9057 -2.3185
 3458TIP3    H231934   6.839   6.320   7.354  0.6313  0.6983 -1.3209
 3459TIP3   OH231935   4.334   0.328   1.569  0.6616 -0.4787  0.2191
 3459TIP3    H131936   4.336   0.406   1.512 -0.7581 -1.1220 -0.7867
 3459TIP3    H231937   4.371   0.358   1.652 -1.3968  1.8085  0.4454
 3460TIP3   OH231938   5.917   1.161   0.906  0.6323 -0.0156 -0.3977
 3460TIP3    H131939   5.875   1.232   0.954  1.2388 -0.2198  0.4701
 3460TIP3    H231940   5.858   1.086   0.918  0.7052 -0.0260 -0.0924
 3461TIP3   OH231941   3.501   2.425   0.172 -0.2513 -0.2125  0.2305
 3461TIP3    H131942   3.561   2.371   0.121 -0.9344 -2.2487  1.4622
 3461TIP3    H231943   3.416   2.382   0.163 -0.8102  0.6044  1.3418
 3462TIP3   OH231944   1.639   6.257   7.119 -0.6400 -0.7905  0.1265
 3462TIP3    H131945   1.594   6.295   7.044 -1.4005  0.0914  1.0153
 3462TIP3    H231946   1.670   6.172   7.087 -2.6318 -1.2945 -0.6213
 3463TIP3   OH231947   1.722   4.439   2.102 -0.7810 -0.1224 -0.1505
 3463TIP3    H131948   1.698   4.450   2.194 -0.8955 -0.0433 -0.1889
 3463TIP3    H231949   1.673   4.508   2.057  0.6919  1.0272 -0.0546
 3464TIP3   OH231950   6.680   2.627   0.374  0.3674  0.3584 -0.2631
 3464TIP3    H131951   6.658   2.714   0.409 -0.9588  0.1302 -0.4522
 3464TIP3    H231952   6.672   2.637   0.279 -0.8250 -0.2044 -0.2425
 3465TIP3   OH231953   2.467   6.748   0.272  0.4124  0.4636 -0.1200
 3465TIP3    H131954   2.406   6.727   0.343  0.0296 -0.2496 -0.6505
 3465TIP3    H231955   2.535   6.680   0.279 -0.3094 -0.4143 -1.2281
 3466TIP3   OH231956   0.624   3.296   8.438  0.1934 -0.4948 -0.2024
 3466TIP3    H131957   0.610   3.381   8.479 -0.1683 -0.4743 -0.3565
 3466TIP3    H231958   0.658   3.317   8.351 -1.9179 -0.3872 -1.0862
 3467TIP3   OH231959   1.245   3.980   1.367  1.1540  0.0824 -0.5444
 3467TIP3    H131960   1.206   3.893   1.372  1.2479  0.0525 -0.3134
 3467TIP3    H231961   1.319   3.970   1.308  1.0071  0.0651 -0.7249
 3468TIP3   OH231962   3.511   1.669   1.156  0.1314  0.3208 -0.6100
 3468TIP3    H131963   3.506   1.742   1.218  0.9747 -0.0811 -0.0377
 3468TIP3    H231964   3.420   1.640   1.146  0.0360 -0.1360  1.1274
 3469TIP3   OH231965   4.021   5.923   2.098  0.1749 -0.0818  0.2786
 3469TIP3    H131966   3.945   5.876   2.134  1.2998 -1.4830  0.9294
 3469TIP3    H231967   4.094   5.894   2.152  1.2712  0.8550 -0.6567
 3470TIP3   OH231968   6.385   5.715   7.843  0.0261 -0.2476 -0.5692
 3470TIP3    H131969   6.380   5.802   7.882  1.8248 -1.1410  1.9889
 3470TIP3    H231970   6.366   5.728   7.750  1.9993  3.1810 -0.6578
 3471TIP3   OH231971   6.242   1.411   1.461 -0.0739  0.1790 -0.2109
 3471TIP3    H131972   6.168   1.453   1.504 -0.3646 -0.0560 -0.4739
 3471TIP3    H231973   6.226   1.317   1.470  1.6155  0.0409  2.1739
 3472TIP3   OH231974   6.561   6.698   1.370  0.1764  0.1241 -0.7468
 3472TIP3    H131975   6.591   6.789   1.373  0.3585  0.0374  0.2934
 3472TIP3    H231976   6.585   6.662   1.455  0.5858 -1.0516 -1.3401
 3473TIP3   OH231977   1.776   3.626   8.511 -0.1220  0.5151  0.1479
 3473TIP3    H131978   1.789   3.561   8.442 -0.7422  0.2718  0.2520
 3473TIP3    H231979   1.736   3.577   8.583  1.2175  0.6039  0.9854
 3474TIP3   OH231980   5.170   6.699   8.406 -0.0577  0.0385  0.2669
 3474TIP3    H131981   5.187   6.666   8.317  1.2071 -0.1056  0.5413
 3474TIP3    H231982   5.236   6.656   8.460  0.2079  1.3361  1.0099
 3475TIP3   OH231983   6.858   6.582   2.202  0.1502  0.6981 -0.7861
 3475TIP3    H131984   6.859   6.495   2.163  0.2030  0.2607  0.1712
 3475TIP3    H231985   6.944   6.592   2.242  0.1971  1.2571 -1.0058
 3476TIP3   OH231986   5.631   5.122   7.836 -0.2262  0.2770  0.2322
 3476TIP3    H131987   5.538   5.130   7.818 -0.2658  1.3119  0.8327
 3476TIP3    H231988   5.651   5.195   7.895  0.6514 -0.8289  1.3476
 3477TIP3   OH231989   3.378   1.140   1.671 -0.3245 -0.0703 -0.0409
 3477TIP3    H131990   3.435   1.100   1.737 -0.8775  1.8423  1.6851
 3477TIP3    H231991   3.297   1.090   1.677  0.2269 -1.0645 -0.5863
 3478TIP3   OH231992   5.636   5.384   8.412 -0.0892 -0.0933  0.0899
 3478TIP3    H131993   5.711   5.390   8.472 -0.3643 -0.5101  0.4874
 3478TIP3    H231994   5.669   5.333   8.338  0.1531  0.1222  0.0479
 3479TIP3   OH231995   3.477   4.101   0.986 -0.1062  0.3424 -0.2936
 3479TIP3    H131996   3.480   4.193   0.963 -0.3518  0.0894 -1.3748
 3479TIP3    H231997   3.550   4.061   0.938 -1.2407 -0.3642 -1.4883
 3480TIP3   OH231998   0.674   3.053   6.961  0.2254  0.5034 -0.0892
 3480TIP3    H131999   0.765   3.083   6.964  0.3655  0.2542 -1.4832
 3480TIP3    H232000   0.674   2.983   6.896 -0.6974 -0.4550  0.8988
 3481TIP3   OH232001   2.811   6.741   7.286  0.1642  0.1475 -0.3715
 3481TIP3    H132002   2.736   6.795   7.260 -0.0859  0.2330  0.5111
 3481TIP3    H232003   2.860   6.729   7.205 -0.1164  1.1681 -0.7164
 3482TIP3   OH232004   5.032   0.655   6.946  0.1291  0.5667 -0.1138
 3482TIP3    H132005   4.961   0.591   6.940 -1.8125  2.2578  2.6844
 3482TIP3    H232006   4.988   0.738   6.963  2.7589  1.7280  1.5797
 3483TIP3   OH232007   4.051   6.283   2.215 -0.9073 -0.0067 -0.2480
 3483TIP3    H132008   4.092   6.368   2.231  1.9908 -1.0483 -1.4609
 3483TIP3    H232009   4.049   6.241   2.300 -1.1021  0.7449  0.1285
 3484TIP3   OH232010   2.327   4.852   1.459  0.4501  0.2763 -0.2492
 3484TIP3    H132011   2.280   4.781   1.502 -0.9546  1.2872 -0.0297
 3484TIP3    H232012   2.405   4.811   1.422 -0.9485 -1.6187 -1.2337
 3485TIP3   OH232013   6.149   1.955   1.525  0.3720  0.5080  0.1468
 3485TIP3    H132014   6.160   1.993   1.437  1.4659  3.2207  1.3414
 3485TIP3    H232015   6.087   2.014   1.568 -1.2743 -1.5887  0.8400
 3486TIP3   OH232016   6.639   4.223   2.525 -0.0294 -0.6547  0.3888
 3486TIP3    H132017   6.645   4.174   2.442 -1.3487  2.3172 -1.6341
 3486TIP3    H232018   6.712   4.285   2.521 -0.0999 -0.4842  1.4852
 3487TIP3   OH232019   5.938   1.224   8.102  0.1582 -0.1509 -0.1422
 3487TIP3    H132020   5.894   1.304   8.131 -0.4597 -0.4645 -0.1959
 3487TIP3    H232021   6.020   1.255   8.064  0.6716  0.3324  1.2817
 3488TIP3   OH232022   6.082   3.440   2.577  0.5848 -0.1783 -0.0946
 3488TIP3    H132023   6.027   3.517   2.565  2.1962  0.8034 -1.6185
 3488TIP3    H232024   6.023   3.366   2.565 -1.1539  0.7258  2.0837
 3489TIP3   OH232025   0.836   0.233   8.385  0.3500 -0.1956 -0.4703
 3489TIP3    H132026   0.852   0.188   8.468 -0.0378 -0.0698 -0.3237
 3489TIP3    H232027   0.767   0.181   8.343 -1.5007  1.3008  0.5624
 3490TIP3   OH232028   3.081   3.004   1.551  0.5496 -0.4215  0.1169
 3490TIP3    H132029   3.032   3.065   1.496 -0.0055  0.6696  1.7454
 3490TIP3    H232030   3.033   2.921   1.543 -0.7825  0.2687  0.5941
 3491TIP3   OH232031   5.176   5.089   1.205  0.2059 -0.9494  0.5355
 3491TIP3    H132032   5.258   5.115   1.246  1.0812 -0.9868 -1.1130
 3491TIP3    H232033   5.170   4.995   1.220  1.0642 -1.1503 -0.3357
 3492TIP3   OH232034   1.669   3.136   6.615  0.3909 -0.2329  0.6572
 3492TIP3    H132035   1.685   3.058   6.667 -0.0296 -0.0106  1.1255
 3492TIP3    H232036   1.609   3.108   6.546 -2.0921  0.2646  2.4786
 3493TIP3   OH232037   3.536   5.157   0.271  0.3764  0.2749 -0.1545
 3493TIP3    H132038   3.491   5.234   0.237  0.7390 -0.2615 -1.9246
 3493TIP3    H232039   3.616   5.190   0.310 -0.8099  1.0831  1.7826
 3494TIP3   OH232040   0.737   0.217   6.949  0.3864  0.8540 -0.2108
 3494TIP3    H132041   0.823   0.252   6.927  0.3308  0.6052 -0.8512
 3494TIP3    H232042   0.685   0.228   6.869 -0.8697  3.0215  0.8333
 3495TIP3   OH232043   6.094   2.874   0.224  1.1243  0.1920 -0.8107
 3495TIP3    H132044   6.141   2.819   0.287 -1.2724 -0.1957  0.7554
 3495TIP3    H232045   6.044   2.812   0.171  0.4360  0.7186 -0.7799
 3496TIP3   OH232046   4.060   4.343   2.948 -0.0515 -0.5057 -0.1168
 3496TIP3    H132047   4.041   4.249   2.947  1.9620 -1.0143  1.4746
 3496TIP3    H232048   3.974   4.385   2.950 -1.0057 -2.2720 -1.3004
 3497TIP3   OH232049   5.764   3.428   0.919 -0.1713  0.3425 -0.6412
 3497TIP3    H132050   5.711   3.369   0.866 -0.8198  0.6944 -0.3919
 3497TIP3    H232051   5.823   3.470   0.856  2.2376 -2.5005 -0.5301
 3498TIP3   OH232052   0.477   5.431   1.305  0.3784 -0.3418  0.5048
 3498TIP3    H132053   0.515   5.381   1.232  0.1910 -0.5494  0.5490
 3498TIP3    H232054   0.388   5.398   1.313  0.6868 -0.9772  1.4423
 3499TIP3   OH232055   0.954   2.659   8.041  0.0065  0.3213  0.2003
 3499TIP3    H132056   0.992   2.571   8.031  0.5864  0.5733  0.1880
 3499TIP3    H232057   0.971   2.702   7.958 -1.6542 -0.0628 -0.3817
 3500TIP3   OH232058   4.911   1.892   0.233  0.3159 -0.2677  0.6995
 3500TIP3    H132059   4.851   1.828   0.271 -0.3136 -0.7157 -0.9460
 3500TIP3    H232060   4.860   1.933   0.163  1.7498 -0.2548 -0.3698
 3501TIP3   OH232061   1.215   5.915   7.602 -0.2547  0.2986  0.2571
 3501TIP3    H132062   1.298   5.953   7.574  0.2054 -0.0712  1.0966
 3501TIP3    H232063   1.150   5.982   7.583 -0.3337 -0.6216 -3.5986
 3502TIP3   OH232064   2.727   5.882   6.816 -0.1428  0.1924 -0.0293
 3502TIP3    H132065   2.666   5.950   6.840 -0.8463 -0.1083 -0.8998
 3502TIP3    H232066   2.813   5.916   6.841 -0.6835  0.4264  1.6123
 3503TIP3   OH232067   1.434   2.838   1.020 -1.3718 -0.4008 -0.0407
 3503TIP3    H132068   1.409   2.884   1.101 -0.8479 -0.1168 -0.0356
 3503TIP3    H232069   1.472   2.906   0.965  0.3836 -0.9909  0.3665
 3504TIP3   OH232070   2.584   5.067   0.518  0.0146 -0.2494 -0.3506
 3504TIP3    H132071   2.510   5.063   0.579  0.9909 -0.8936  0.8497
 3504TIP3    H232072   2.659   5.089   0.574  0.9699 -1.0272 -1.2914
 3505TIP3   OH232073   4.021   3.698   2.365  0.1351 -0.1361  0.2997
 3505TIP3    H132074   3.981   3.784   2.357  1.3481  0.6003  1.6733
 3505TIP3    H232075   3.949   3.636   2.354 -0.7313  1.0323 -0.8551
 3506TIP3   OH232076   3.670   3.153   8.400 -0.1847 -0.0619 -0.4276
 3506TIP3    H132077   3.732   3.199   8.457  1.4997 -1.7557 -0.7685
 3506TIP3    H232078   3.584   3.179   8.433  0.7055  1.1270  1.1311
 3507TIP3   OH232079   0.671   0.691   0.620  0.2699  0.4142  0.0882
 3507TIP3    H132080   0.667   0.625   0.689  1.5414  0.4380  0.2173
 3507TIP3    H232081   0.580   0.717   0.606 -0.3468 -1.7794 -0.3981
 3508TIP3   OH232082   2.905   0.766   1.904  0.0941  0.2554  0.3643
 3508TIP3    H132083   2.936   0.676   1.903  1.7311  0.7947 -0.8992
 3508TIP3    H232084   2.912   0.792   1.996  2.3296 -0.0506  0.3444
 3509TIP3   OH232085   3.786   1.458   1.495  0.0411 -0.3741 -0.0615
 3509TIP3    H132086   3.844   1.411   1.435  0.2754  0.6166 -0.6286
 3509TIP3    H232087   3.843   1.521   1.540 -0.5387  0.4339 -0.4410
 3510TIP3   OH232088   4.973   5.570   0.824  0.0161  0.0863 -0.5620
 3510TIP3    H132089   5.064   5.542   0.838 -0.3027 -1.1114 -0.7843
 3510TIP3    H232090   4.972   5.661   0.853  1.6127  0.5587 -1.8593
 3511TIP3   OH232091   0.916   4.022   1.143 -0.4146 -0.1102  0.2090
 3511TIP3    H132092   0.894   3.960   1.212 -0.5649 -1.6056 -1.1349
 3511TIP3    H232093   0.914   4.107   1.187 -0.2723 -1.0115  2.0952
 3512TIP3   OH232094   4.543   5.940   7.220 -0.1144  0.9099 -0.1389
 3512TIP3    H132095   4.516   5.971   7.134  0.4288 -0.4918 -0.8535
 3512TIP3    H232096   4.638   5.929   7.213 -0.3886 -2.2948 -0.4918
 3513TIP3   OH232097   5.075   0.677   1.768  0.2009 -0.7584  0.4097
 3513TIP3    H132098   4.984   0.668   1.798 -0.1654  1.3851  0.0645
 3513TIP3    H232099   5.100   0.765   1.794  2.3582 -1.4484  0.8654
 3514TIP3   OH232100   4.822   5.160   7.120 -0.4495 -0.0062 -0.0326
 3514TIP3    H132101   4.804   5.075   7.079  0.6411 -1.1301  1.6673
 3514TIP3    H232102   4.739   5.184   7.162 -1.2368  0.6124 -1.8401
 3515TIP3   OH232103   1.154   6.389   8.360  0.2208  0.1611  0.0394
 3515TIP3    H132104   1.076   6.345   8.328 -0.3486  2.3485 -1.8580
 3515TIP3    H232105   1.214   6.318   8.384 -2.6953 -1.6432  2.7901
 3516TIP3   OH232106   3.299   3.878   0.741 -0.8403 -0.9550  0.1304
 3516TIP3    H132107   3.314   3.972   0.747  0.9171 -1.0898 -1.3944
 3516TIP3    H232108   3.256   3.866   0.656  0.0023 -1.6237 -0.2135
 3517TIP3   OH232109   2.345   4.893   2.144  0.0801 -0.3285 -0.2980
 3517TIP3    H132110   2.379   4.803   2.146  1.9299  0.2515 -1.7392
 3517TIP3    H232111   2.390   4.937   2.216 -0.4623 -0.4346  0.1088
 3518TIP3   OH232112   0.520   1.111   0.341 -0.1765 -0.1410  0.3865
 3518TIP3    H132113   0.495   1.103   0.433 -1.1451 -0.0671  0.1413
 3518TIP3    H232114   0.503   1.024   0.304 -0.3803 -0.0045  0.1491
 3519TIP3   OH232115   2.368   5.162   2.938 -0.0795  0.1301 -0.2639
 3519TIP3    H132116   2.438   5.209   2.892  0.9861 -1.6171 -0.4880
 3519TIP3    H232117   2.413   5.113   3.007 -1.5193  1.8328  2.0346
 3520TIP3   OH232118   2.665   0.534   0.227 -0.2099 -1.1124 -0.8891
 3520TIP3    H132119   2.746   0.492   0.255 -1.0866 -3.0808 -1.1729
 3520TIP3    H232120   2.680   0.559   0.136  0.3917 -0.5856 -0.6504
 3521TIP3   OH232121   4.446   2.760   7.794  0.4850 -0.3069  0.0616
 3521TIP3    H132122   4.514   2.742   7.728  1.4573  0.5651  0.7831
 3521TIP3    H232123   4.491   2.749   7.878 -1.1946 -3.3182  0.7283
 3522TIP3   OH232124   6.839   2.022   7.671  0.3622  0.2072 -0.0025
 3522TIP3    H132125   6.911   1.959   7.672  0.1947 -0.0060 -0.8646
 3522TIP3    H232126   6.808   2.022   7.581 -0.5554  0.4883  0.3000
 3523TIP3   OH232127   2.003   2.118   0.971  0.3243 -0.0587  0.0005
 3523TIP3    H132128   1.909   2.122   0.988 -0.0011 -1.5262 -1.2241
 3523TIP3    H232129   2.032   2.040   1.017  0.5874 -0.6122 -1.0800
 3524TIP3   OH232130   2.362   0.333   2.196 -0.0033 -0.6541 -0.2144
 3524TIP3    H132131   2.270   0.355   2.207  0.1014  0.7872 -1.7369
 3524TIP3    H232132   2.365   0.282   2.115  0.6529  0.2642 -0.7802
 3525TIP3   OH232133   6.131   4.662   2.256  0.0095 -0.1474  0.1274
 3525TIP3    H132134   6.089   4.602   2.317  0.9768 -0.7858  0.1817
 3525TIP3    H232135   6.217   4.681   2.295  0.5123 -0.3134 -0.8599
 3526TIP3   OH232136   5.484   2.852   7.524  0.3873  0.1742 -0.3021
 3526TIP3    H132137   5.539   2.885   7.453 -0.4949 -0.1377 -1.1406
 3526TIP3    H232138   5.519   2.764   7.542  2.1746  1.1513  1.3419
 3527TIP3   OH232139   0.257   3.603   0.384  0.3397 -0.2117  0.3145
 3527TIP3    H132140   0.270   3.671   0.318 -1.1965 -0.3943 -0.2285
 3527TIP3    H232141   0.344   3.565   0.396  1.0027  1.0365 -0.2515
 3528TIP3   OH232142   0.801   3.070   7.868 -0.0716  0.1790 -0.3057
 3528TIP3    H132143   0.734   3.130   7.836 -1.2829 -0.8005  0.3076
 3528TIP3    H232144   0.798   2.997   7.807 -0.9045 -0.7213  0.7624
 3529TIP3   OH232145   6.667   4.020   2.335 -0.1625  0.0523 -0.4548
 3529TIP3    H132146   6.692   3.938   2.380 -1.8739 -0.5846 -0.5965
 3529TIP3    H232147   6.734   4.031   2.267  0.5403 -0.7968  0.0706
 3530TIP3   OH232148   5.920   0.315   1.721 -0.0931 -0.2260 -0.2146
 3530TIP3    H132149   5.995   0.369   1.696  0.0527 -1.0917 -1.7783
 3530TIP3    H232150   5.958   0.243   1.772 -0.1018  0.2978  0.5463
 3531TIP3   OH232151   2.275   6.645   0.116 -0.1937  0.1473 -0.3054
 3531TIP3    H132152   2.337   6.652   0.189 -0.2087 -0.4623 -0.2296
 3531TIP3    H232153   2.329   6.653   0.038  0.0710 -0.9009 -0.2492
 3532TIP3   OH232154   3.433   4.513   1.411  0.0234  0.3076 -0.6718
 3532TIP3    H132155   3.487   4.592   1.412  0.0712  0.2840  0.4912
 3532TIP3    H232156   3.393   4.510   1.498 -1.8168  0.2796 -1.4684
 3533TIP3   OH232157   4.034   3.720   8.232 -0.5170 -0.2315  0.3123
 3533TIP3    H132158   4.018   3.626   8.219 -0.8301 -0.0638 -0.5715
 3533TIP3    H232159   3.946   3.759   8.239 -0.3868 -0.0570  1.1977
 3534TIP3   OH232160   4.890   5.624   2.477 -0.0622  0.4961 -0.2491
 3534TIP3    H132161   4.826   5.667   2.419 -0.4536 -3.8224 -3.5528
 3534TIP3    H232162   4.836   5.586   2.547 -0.2867  1.6185  0.2020
 3535TIP3   OH232163   6.858   5.283   2.896  0.7811 -0.4674  0.0503
 3535TIP3    H132164   6.909   5.204   2.879 -0.7591 -1.0927 -1.9794
 3535TIP3    H232165   6.783   5.253   2.948  0.4123 -0.2865 -0.3683
 3536TIP3   OH232166   4.700   3.920   1.700  0.5176 -0.0274 -0.5127
 3536TIP3    H132167   4.628   3.884   1.751  1.2491 -0.7383  0.0483
 3536TIP3    H232168   4.658   3.971   1.631 -0.5430 -1.2158 -0.7696
 3537TIP3   OH232169   0.323   3.762   8.408  0.2254  0.1068  0.1923
 3537TIP3    H132170   0.305   3.810   8.328  1.3563 -0.3421 -0.3605
 3537TIP3    H232171   0.360   3.679   8.378 -1.3801 -1.0137  1.1216
 3538TIP3   OH232172   1.255   0.743   8.428 -0.2264 -0.4397 -0.0676
 3538TIP3    H132173   1.184   0.687   8.396 -0.2042 -1.2471  1.2343
 3538TIP3    H232174   1.211   0.825   8.453 -0.8482 -1.1886  1.4090
 3539TIP3   OH232175   5.658   0.527   8.596 -0.3745 -0.5116  0.0658
 3539TIP3    H132176   5.661   0.540   8.690  0.9993 -1.3331  0.1480
 3539TIP3    H232177   5.748   0.509   8.570 -0.7618 -0.5507 -1.3737
 3540TIP3   OH232178   3.383   5.133   2.924 -0.0447  0.4396 -0.4802
 3540TIP3    H132179   3.407   5.047   2.958 -0.1179  0.2994 -0.7757
 3540TIP3    H232180   3.457   5.159   2.870 -0.1807  0.3938 -0.6914
 3541TIP3   OH232181   1.361   3.498   1.897  0.7647  0.5584 -0.7023
 3541TIP3    H132182   1.420   3.505   1.972 -0.8541 -2.1213  0.9467
 3541TIP3    H232183   1.415   3.460   1.827  2.0145  2.1561 -0.6871
 3542TIP3   OH232184   0.916   6.734   8.642  0.4603  0.2033  0.1272
 3542TIP3    H132185   0.999   6.781   8.633  1.6131 -1.9036 -0.8940
 3542TIP3    H232186   0.940   6.641   8.635 -1.8933 -0.5032  0.6032
 3543TIP3   OH232187   2.581   5.676   6.675  0.4596  0.2858 -0.5325
 3543TIP3    H132188   2.625   5.727   6.744 -1.1381 -0.7354  1.3454
 3543TIP3    H232189   2.613   5.714   6.593  2.3038  1.6941  0.7520
 3544TIP3   OH232190   4.820   6.122   8.657 -0.2524  0.6697 -0.3727
 3544TIP3    H132191   4.729   6.104   8.634  0.2865 -0.7384 -1.5446
 3544TIP3    H232192   4.843   6.054   8.720  0.7210 -0.6321 -2.0541
 3545TIP3   OH232193   6.616   0.450   2.633  0.2564  0.0877 -0.4849
 3545TIP3    H132194   6.541   0.391   2.636  1.6969 -1.8178 -0.1771
 3545TIP3    H232195   6.582   0.529   2.590 -2.0620 -0.4312  0.2253
 3546TIP3   OH232196   1.972   1.864   7.047  0.4056  0.9581  0.9509
 3546TIP3    H132197   1.926   1.942   7.017 -0.8398  0.5739  1.7883
 3546TIP3    H232198   1.977   1.873   7.142  0.7508  0.2884  1.0064
 3547TIP3   OH232199   4.569   0.212   7.698 -0.0246  0.5606  0.8812
 3547TIP3    H132200   4.544   0.276   7.764  0.1980 -0.9345  2.4798
 3547TIP3    H232201   4.647   0.250   7.656 -1.2374  2.3780  0.1297
 3548TIP3   OH232202   0.798   3.469   7.676 -0.5928  0.3413  0.6675
 3548TIP3    H132203   0.869   3.405   7.673 -2.7054 -2.1513 -0.1778
 3548TIP3    H232204   0.837   3.550   7.641  1.3615 -1.4268 -1.6406
 3549TIP3   OH232205   5.420   0.672   6.872 -0.1340 -0.4214  0.1540
 3549TIP3    H132206   5.506   0.664   6.830  0.9958  1.3784  1.9316
 3549TIP3    H232207   5.379   0.745   6.825  0.2762  0.2117  0.7503
 3550TIP3   OH232208   5.564   6.087   1.654 -0.4263  0.1438 -0.2206
 3550TIP3    H132209   5.513   6.100   1.574 -0.7587 -1.1991 -0.2415
 3550TIP3    H232210   5.505   6.040   1.713 -0.4044  1.6386  1.0794
 3551TIP3   OH232211   6.079   0.026   7.466  0.6175 -0.2992  0.1726
 3551TIP3    H132212   6.017   0.085   7.424  1.0282  0.4742  0.6411
 3551TIP3    H232213   6.165   0.064   7.449  1.1156 -2.0286 -1.5548
 3552TIP3   OH232214   5.676   0.396   6.928  0.6227 -0.0492 -0.6248
 3552TIP3    H132215   5.634   0.428   7.008  0.8710  2.4677 -1.3861
 3552TIP3    H232216   5.758   0.357   6.958  0.6433  0.7129  0.3711
 3553TIP3   OH232217   5.479   1.092   7.496 -0.5432  0.0021 -0.6011
 3553TIP3    H132218   5.419   1.031   7.453 -0.4340  0.5704 -1.6151
 3553TIP3    H232219   5.473   1.072   7.589 -1.2747 -0.8584 -0.8267
 3554TIP3   OH232220   4.144   5.470   7.791  0.3598  0.1776 -0.3930
 3554TIP3    H132221   4.137   5.566   7.796 -0.6879  0.0906 -0.0629
 3554TIP3    H232222   4.083   5.446   7.721 -0.0258 -0.3165  0.1087
 3555TIP3   OH232223   3.613   1.607   1.830  0.4400  0.3802 -0.3105
 3555TIP3    H132224   3.535   1.610   1.885 -0.1919 -0.0414 -1.1651
 3555TIP3    H232225   3.614   1.519   1.793  0.7946  0.6872 -1.0573
 3556TIP3   OH232226   6.763   3.931   7.589  0.1117 -0.0320  0.3449
 3556TIP3    H132227   6.704   4.006   7.578 -0.5894 -0.5347  0.6638
 3556TIP3    H232228   6.713   3.868   7.641  0.9707 -0.4183  0.7267
 3557TIP3   OH232229   3.154   0.622   2.526 -0.3058 -0.1487 -0.5908
 3557TIP3    H132230   3.228   0.563   2.515  0.5545  0.9727 -1.0185
 3557TIP3    H232231   3.082   0.565   2.551  0.2646 -1.4910 -1.8361
 3558TIP3   OH232232   2.933   2.926   1.778  0.8381  0.0556 -0.2633
 3558TIP3    H132233   2.998   2.961   1.718  0.6704 -1.4142 -1.3581
 3558TIP3    H232234   2.857   2.984   1.768  1.2361  0.5325 -0.5566
 3559TIP3   OH232235   5.977   0.894   0.114  0.0759 -0.6397 -0.8693
 3559TIP3    H132236   6.003   0.881   0.023 -1.5309 -0.1721 -1.4271
 3559TIP3    H232237   6.050   0.944   0.152  0.0326  0.6678 -2.3699
 3560TIP3   OH232238   0.547   3.554   7.003 -0.2966 -0.5661  0.0505
 3560TIP3    H132239   0.587   3.641   7.008 -0.6586 -0.4136  0.2601
 3560TIP3    H232240   0.485   3.551   7.076 -0.5873 -0.8455 -0.2047
 3561TIP3   OH232241   1.735   2.107   1.480  0.1273  0.4095 -0.2253
 3561TIP3    H132242   1.700   2.170   1.543  0.8780  0.0078  0.6151
 3561TIP3    H232243   1.807   2.064   1.526  0.8833  0.3002 -1.4615
 3562TIP3   OH232244   6.676   4.818   0.212 -0.2513 -0.5664  0.1249
 3562TIP3    H132245   6.586   4.821   0.245  0.1110 -2.0854  1.3468
 3562TIP3    H232246   6.726   4.873   0.273  0.0678 -1.7616  0.9691
 3563TIP3   OH232247   5.214   1.968   1.790 -0.7058  0.0575 -0.1490
 3563TIP3    H132248   5.186   1.935   1.704  1.7809 -2.2939 -0.2121
 3563TIP3    H232249   5.168   1.912   1.853  0.2541 -0.7038 -0.1064
 3564TIP3   OH232250   4.370   6.559   7.627 -0.0610 -0.5794 -0.5141
 3564TIP3    H132251   4.300   6.496   7.611 -0.8161  0.6856 -2.5601
 3564TIP3    H232252   4.365   6.578   7.721 -0.2470 -2.9768  0.0143
 3565TIP3   OH232253   5.849   0.681   2.874 -0.0101 -0.6755  0.0751
 3565TIP3    H132254   5.863   0.750   2.810 -3.6365  0.0339 -0.1531
 3565TIP3    H232255   5.843   0.601   2.823 -3.6385 -0.0285 -0.8259
 3566TIP3   OH232256   3.442   4.113   1.998  0.5435 -0.2576  0.6611
 3566TIP3    H132257   3.481   4.029   1.973  0.9999  0.1145  0.1077
 3566TIP3    H232258   3.510   4.155   2.052  0.8370  0.3008 -0.1295
 3567TIP3   OH232259   6.600   4.188   2.777  0.2088 -0.1627  0.5991
 3567TIP3    H132260   6.626   4.170   2.687 -0.1104 -0.1766  0.5094
 3567TIP3    H232261   6.683   4.191   2.825  0.3601 -0.4975  0.3676
 3568TIP3   OH232262   2.600   0.767   0.372  0.0119  0.6258 -0.1059
 3568TIP3    H132263   2.508   0.782   0.350 -0.6041 -1.3386  0.9401
 3568TIP3    H232264   2.616   0.676   0.346  1.2846  0.5286  0.9490
 3569TIP3   OH232265   6.521   1.600   1.832 -0.4267  0.1373 -0.4166
 3569TIP3    H132266   6.565   1.681   1.807 -0.1142  0.3588  0.7872
 3569TIP3    H232267   6.562   1.533   1.777 -0.8238  0.8068 -1.5604
 3570TIP3   OH232268   4.597   4.629   8.318  0.3275 -0.2149 -0.3405
 3570TIP3    H132269   4.521   4.675   8.282 -1.2133 -1.6256  0.9416
 3570TIP3    H232270   4.605   4.662   8.407  1.7157  0.4649 -0.7020
 3571TIP3   OH232271   5.758   3.626   0.506 -0.6979 -0.0889 -0.9207
 3571TIP3    H132272   5.778   3.537   0.533 -0.0537 -0.5148 -2.6595
 3571TIP3    H232273   5.673   3.645   0.547 -0.2949 -1.0372  0.4307
 3572TIP3   OH232274   0.814   5.792   1.611 -0.0844 -0.2826 -0.1431
 3572TIP3    H132275   0.821   5.878   1.653 -0.1984 -0.5924  0.5214
 3572TIP3    H232276   0.893   5.785   1.557  0.5925 -0.3167  0.8420
 3573TIP3   OH232277   4.292   5.170   7.027  0.0307 -0.2315  0.0747
 3573TIP3    H132278   4.260   5.160   6.938 -0.6908  0.6499  0.2084
 3573TIP3    H232279   4.383   5.142   7.024  0.0065 -0.2397 -0.9284
 3574TIP3   OH232280   1.007   6.113   7.563  0.6643  0.4809  0.1247
 3574TIP3    H132281   0.942   6.167   7.518  0.5594  0.4473  0.2377
 3574TIP3    H232282   1.016   6.153   7.649 -0.1007 -0.2389  0.5478
 3575TIP3   OH232283   6.816   4.191   8.394  0.1973 -0.1993  0.0705
 3575TIP3    H132284   6.768   4.239   8.326  1.5884 -0.4655 -1.1641
 3575TIP3    H232285   6.761   4.198   8.472 -0.9572  1.0208 -0.8023
 3576TIP3   OH232286   6.159   1.184   1.626  0.6031 -0.2854  0.1595
 3576TIP3    H132287   6.070   1.166   1.597  0.6928 -0.8306  0.2165
 3576TIP3    H232288   6.150   1.255   1.689  0.6031  2.6025 -2.7752
 3577TIP3   OH232289   3.427   2.916   8.511 -0.3003  0.5589 -0.0610
 3577TIP3    H132290   3.349   2.871   8.542 -1.0514  1.6005 -0.3708
 3577TIP3    H232291   3.497   2.888   8.570 -1.1899  0.6293  1.0421
 3578TIP3   OH232292   1.689   4.910   1.753 -0.1976  0.0275 -0.1886
 3578TIP3    H132293   1.649   4.824   1.768 -0.7646  0.2173 -0.5935
 3578TIP3    H232294   1.619   4.972   1.773  0.6028  0.4656  1.4836
 3579TIP3   OH232295   4.161   0.605   1.676 -0.1037  0.6376  0.0778
 3579TIP3    H132296   4.228   0.639   1.617  0.7880  1.2328  1.3932
 3579TIP3    H232297   4.103   0.679   1.692  0.9434  1.1345  1.7027
 3580TIP3   OH232298   3.610   1.264   0.237  0.3161 -0.0742  0.1311
 3580TIP3    H132299   3.598   1.321   0.313 -0.0841  0.7015 -0.4964
 3580TIP3    H232300   3.651   1.321   0.171  0.2413 -0.6075 -0.3818
 3581TIP3   OH232301   6.400   1.103   2.675  0.1590  0.5194 -0.2127
 3581TIP3    H132302   6.334   1.149   2.623 -2.2495 -0.2558  1.9627
 3581TIP3    H232303   6.410   1.019   2.631 -2.5090 -0.4791  0.8864
 3582TIP3   OH232304   6.229   4.687   7.314  0.6461  0.2957 -0.0443
 3582TIP3    H132305   6.248   4.709   7.223  0.1234 -2.5038 -0.9336
 3582TIP3    H232306   6.163   4.617   7.309  2.0948 -1.4068  2.3733
 3583TIP3   OH232307   2.421   2.799   0.703  0.0724  0.3064 -0.6404
 3583TIP3    H132308   2.327   2.785   0.720  0.1781 -1.0847 -1.0304
 3583TIP3    H232309   2.462   2.720   0.738  1.1510  1.0609 -0.1624
 3584TIP3   OH232310   3.451   2.983   8.105  0.0088 -0.9579  0.1333
 3584TIP3    H132311   3.540   2.988   8.140  0.4500  0.0661 -1.0637
 3584TIP3    H232312   3.404   2.928   8.168  1.5123 -1.6542  0.6970
 3585TIP3   OH232313   2.571   3.433   0.299  0.1368 -0.3990 -0.3208
 3585TIP3    H132314   2.641   3.411   0.360 -0.4674 -1.7359 -0.0724
 3585TIP3    H232315   2.498   3.461   0.355 -0.2332 -1.0888 -0.4454
 3586TIP3   OH232316   5.239   5.067   0.671  0.1768  0.4562  0.2750
 3586TIP3    H132317   5.236   5.101   0.761  1.3235 -1.0436  0.9299
 3586TIP3    H232318   5.320   5.104   0.635 -0.0081  0.6323  0.0422
 3587TIP3   OH232319   4.657   5.378   8.060  0.3043 -0.4556 -0.5577
 3587TIP3    H132320   4.625   5.465   8.084  0.4567 -0.8358  1.1600
 3587TIP3    H232321   4.578   5.327   8.045  0.1793 -0.3937 -0.1238
 3588TIP3   OH232322   6.297   1.926   0.786  0.6441  0.5026 -0.3094
 3588TIP3    H132323   6.317   2.004   0.734  0.5759  0.2576 -0.7120
 3588TIP3    H232324   6.333   1.945   0.872  0.0284  1.2659 -0.1994
 3589TIP3   OH232325   3.573   6.646   2.473 -0.0162 -0.0679 -0.1277
 3589TIP3    H132326   3.524   6.718   2.433 -0.1640 -0.6476 -1.0157
 3589TIP3    H232327   3.660   6.682   2.489 -0.7333  1.0227  1.6174
 3590TIP3   OH232328   3.175   1.636   0.410 -0.0071 -0.1032  0.4102
 3590TIP3    H132329   3.252   1.691   0.426  1.7773 -2.5894  0.9915
 3590TIP3    H232330   3.171   1.579   0.487 -2.6132  0.0813  0.4800
 3591TIP3   OH232331   1.689   0.604   8.126 -0.0449 -0.0319  0.2487
 3591TIP3    H132332   1.674   0.627   8.034  0.2933 -0.0616  0.1828
 3591TIP3    H232333   1.747   0.528   8.122 -0.9980 -0.7884  0.4679
 3592TIP3   OH232334   1.621   6.616   1.572 -0.3476  1.0498  0.5090
 3592TIP3    H132335   1.616   6.568   1.655  0.4587 -1.0724 -0.5903
 3592TIP3    H232336   1.693   6.678   1.585  1.9303 -1.3887  0.4645
 3593TIP3   OH232337   3.179   3.517   6.813 -0.4600  0.4132 -0.4649
 3593TIP3    H132338   3.156   3.607   6.790 -0.2660  0.3514 -0.9030
 3593TIP3    H232339   3.226   3.525   6.896 -0.9156  0.6617 -0.2245
 3594TIP3   OH232340   1.439   5.137   1.299  0.1585 -0.3179 -0.3489
 3594TIP3    H132341   1.378   5.202   1.263  1.0722  0.5377 -0.4072
 3594TIP3    H232342   1.525   5.164   1.265  0.6220 -1.2826  0.0280
 3595TIP3   OH232343   3.281   2.280   0.120 -0.2017  0.4121  0.5992
 3595TIP3    H132344   3.194   2.295   0.157  0.6486  0.4500  2.7328
 3595TIP3    H232345   3.265   2.249   0.031 -2.3772  0.5101  0.9168
 3596TIP3   OH232346   4.504   5.290   1.243  0.1188 -0.3114  0.0718
 3596TIP3    H132347   4.451   5.215   1.271 -1.7096  0.5931 -0.7672
 3596TIP3    H232348   4.471   5.363   1.296  0.6856  0.2405 -0.3226
 3597TIP3   OH232349   4.443   4.995   7.226 -0.5528  0.2492 -0.2590
 3597TIP3    H132350   4.503   4.942   7.278  0.2091  0.6308 -0.7481
 3597TIP3    H232351   4.439   4.952   7.141  0.0105  0.9258 -0.6334
 3598TIP3   OH232352   6.768   4.196   1.346  0.4024 -0.7717 -0.3763
 3598TIP3    H132353   6.686   4.245   1.355  0.8293 -0.0473 -0.3515
 3598TIP3    H232354   6.741   4.111   1.310 -0.2845 -0.2851 -1.0497
 3599TIP3   OH232355   4.349   6.181   7.770 -0.1835 -0.0386  0.1014
 3599TIP3    H132356   4.423   6.231   7.805  0.5119 -1.6822  1.1380
 3599TIP3    H232357   4.295   6.163   7.847 -0.4061 -0.8677 -0.2430
 3600TIP3   OH232358   4.542   5.650   0.750 -0.4098  0.0688  0.5657
 3600TIP3    H132359   4.588   5.568   0.733 -0.9827  0.1901 -1.7817
 3600TIP3    H232360   4.547   5.660   0.846  4.5800  0.1670  0.5810
 3601TIP3   OH232361   0.649   3.366   2.460  0.5820  0.2100 -0.3072
 3601TIP3    H132362   0.675   3.447   2.502 -0.9740  0.3896  0.3908
 3601TIP3    H232363   0.729   3.314   2.455  1.4917  1.5779 -0.3135
 3602TIP3   OH232364   0.777   1.609   8.314 -0.1676  1.3114  0.1292
 3602TIP3    H132365   0.842   1.593   8.245 -0.2605  2.2362 -0.1852
 3602TIP3    H232366   0.718   1.674   8.276 -1.8464 -0.1645  0.0620
 3603TIP3   OH232367   4.029   4.759   7.860  0.2711  0.1231 -0.2979
 3603TIP3    H132368   3.935   4.778   7.864 -0.0708 -1.1886 -1.4315
 3603TIP3    H232369   4.034   4.664   7.856  1.7655  0.0408  1.7626
 3604TIP3   OH232370   6.559   5.773   0.599 -0.3568 -0.4363  0.2759
 3604TIP3    H132371   6.509   5.832   0.656 -0.4478  0.8806 -1.0848
 3604TIP3    H232372   6.626   5.735   0.656 -1.2361 -0.1623  1.5268
 3605TIP3   OH232373   5.512   0.502   0.784  0.1493  0.5823  0.0554
 3605TIP3    H132374   5.464   0.420   0.775 -0.5127  1.0039 -0.3112
 3605TIP3    H232375   5.603   0.478   0.763 -0.1386  0.0615 -0.6460
 3606TIP3   OH232376   1.599   1.346   2.582 -0.0266 -0.3847 -0.0623
 3606TIP3    H132377   1.506   1.365   2.566 -0.0836 -0.7512 -0.1796
 3606TIP3    H232378   1.630   1.307   2.500 -0.4978 -2.9416  0.9030
 3607TIP3   OH232379   5.184   3.254   1.506  0.2432  0.2850  0.5418
 3607TIP3    H132380   5.268   3.293   1.530  1.6615 -2.1164 -0.2087
 3607TIP3    H232381   5.161   3.296   1.423  0.1823  1.6063  1.1889
 3608TIP3   OH232382   6.862   4.681   0.760  0.3656 -0.2192 -0.0672
 3608TIP3    H132383   6.797   4.621   0.797  2.2033 -1.1984  1.7647
 3608TIP3    H232384   6.844   4.765   0.802  0.6238 -0.6223  0.8683
 3609TIP3   OH232385   6.805   1.295   8.060  0.1210  0.3935  0.0563
 3609TIP3    H132386   6.881   1.345   8.090  0.0009  0.6125 -0.0052
 3609TIP3    H232387   6.764   1.264   8.141 -0.1223  0.8649  0.1144
 3610TIP3   OH232388   3.311   2.774   2.725  0.4687  0.1349 -0.3063
 3610TIP3    H132389   3.284   2.688   2.693  0.3026  0.0713  0.0032
 3610TIP3    H232390   3.307   2.767   2.820  0.1796  0.5729 -0.2829
 3611TIP3   OH232391   3.992   4.967   2.398  0.4427 -0.8149  0.0019
 3611TIP3    H132392   3.932   4.941   2.328 -0.5600  0.8075  0.1992
 3611TIP3    H232393   3.972   5.060   2.413  0.9136 -1.0068  2.1522
 3612TIP3   OH232394   3.236   2.751   7.574 -0.1208  0.0794 -0.1262
 3612TIP3    H132395   3.224   2.804   7.495 -2.3845  0.8223  0.6529
 3612TIP3    H232396   3.173   2.680   7.566  0.6955 -0.7298  0.3397
 3613TIP3   OH232397   0.634   5.633   1.729 -0.3472  0.2836 -0.2879
 3613TIP3    H132398   0.572   5.594   1.667 -2.5807  2.7569  0.1840
 3613TIP3    H232399   0.690   5.689   1.674 -1.0468  0.9649 -0.3195
 3614TIP3   OH232400   1.364   4.943   2.335  0.4396 -0.0347  0.6964
 3614TIP3    H132401   1.335   5.021   2.384  0.6607 -0.4105  1.4437
 3614TIP3    H232402   1.305   4.874   2.363  1.6164 -0.6610  1.7659
 3615TIP3   OH232403   5.984   0.695   8.088  0.0827  0.1841  0.5582
 3615TIP3    H132404   6.063   0.647   8.065  0.3658  1.3170 -0.9526
 3615TIP3    H232405   6.010   0.751   8.161  0.7934  0.8634 -0.2101
 3616TIP3   OH232406   0.343   4.319   7.879  0.2346  0.7419  0.1847
 3616TIP3    H132407   0.362   4.230   7.908 -1.1692 -0.2875 -1.7545
 3616TIP3    H232408   0.255   4.337   7.911 -0.6748  0.2186 -1.8300
 3617TIP3   OH232409   5.997   3.186   7.408 -0.3732  0.3543 -0.2725
 3617TIP3    H132410   6.047   3.234   7.474  1.8232  1.5477 -2.5720
 3617TIP3    H232411   6.031   3.097   7.411  0.6244  0.7081 -0.5637
 3618TIP3   OH232412   3.825   6.564   2.704 -0.0422 -0.3334 -0.4154
 3618TIP3    H132413   3.917   6.545   2.688  0.3433  1.6861 -0.8200
 3618TIP3    H232414   3.808   6.646   2.658 -2.0731 -0.6955 -0.4150
 3619TIP3   OH232415   4.214   6.345   7.576 -0.6080  0.5609 -0.6055
 3619TIP3    H132416   4.250   6.288   7.644 -1.8101  0.4231 -0.0684
 3619TIP3    H232417   4.239   6.302   7.494  1.8098  1.3072 -0.3258
 3620TIP3   OH232418   5.397   4.714   6.713  0.8232 -0.1266 -0.5858
 3620TIP3    H132419   5.314   4.731   6.668  2.2022  1.1729 -2.8924
 3620TIP3    H232420   5.378   4.726   6.806 -1.7862 -0.9846 -0.9313
 3621TIP3   OH232421   0.585   0.168   0.989 -0.2137 -0.6770  0.0351
 3621TIP3    H132422   0.647   0.105   0.954 -0.0754 -0.1599 -0.6815
 3621TIP3    H232423   0.499   0.126   0.980 -0.0726 -0.9569  0.0144
 3622TIP3   OH232424   0.671   2.325   7.262 -0.3731 -0.6134 -0.0557
 3622TIP3    H132425   0.583   2.340   7.227 -0.4327  2.0229  0.9693
 3622TIP3    H232426   0.657   2.313   7.357  0.2634 -1.9499 -0.1033
 3623TIP3   OH232427   5.566   1.487   2.185 -0.1439  0.1524 -0.3434
 3623TIP3    H132428   5.588   1.476   2.278  1.7578 -1.4684 -0.9169
 3623TIP3    H232429   5.554   1.581   2.174 -1.1917  0.3179  1.6748
 3624TIP3   OH232430   4.908   6.187   0.973  0.4548  0.0012  0.1721
 3624TIP3    H132431   4.997   6.152   0.977  0.5643  0.3425  0.8061
 3624TIP3    H232432   4.869   6.162   1.057  0.3634  0.9269  0.4190
 3625TIP3   OH232433   0.366   2.405   7.652  0.4416 -0.3496 -0.1402
 3625TIP3    H132434   0.389   2.472   7.717  0.2221  0.1414 -0.5549
 3625TIP3    H232435   0.404   2.438   7.570  0.2622 -0.6980 -0.3656
 3626TIP3   OH232436   4.766   4.267   7.903  0.0093  0.1429  0.2968
 3626TIP3    H132437   4.702   4.300   7.841 -1.5196 -1.7548  0.7897
 3626TIP3    H232438   4.760   4.326   7.978 -2.8203 -1.1747  1.2491
 3627TIP3   OH232439   6.112   6.555   2.527 -0.3811  0.0491  0.3045
 3627TIP3    H132440   6.042   6.619   2.542 -0.1631  0.6244 -1.0401
 3627TIP3    H232441   6.191   6.598   2.561 -0.3541  0.2046  0.0462
 3628TIP3   OH232442   6.351   5.238   1.723  0.0747  0.0112  0.2061
 3628TIP3    H132443   6.285   5.296   1.760 -1.5259 -1.9329  0.5898
 3628TIP3    H232444   6.303   5.183   1.661  1.5385 -0.7999 -0.2694
 3629TIP3   OH232445   3.666   1.776   0.508 -0.2866 -0.7992  0.1159
 3629TIP3    H132446   3.686   1.793   0.601  0.8141 -1.1962 -0.0273
 3629TIP3    H232447   3.714   1.695   0.488  1.2864  0.4132 -1.3548
 3630TIP3   OH232448   1.152   0.885   1.404 -0.3314  0.0634  0.2651
 3630TIP3    H132449   1.106   0.936   1.337 -0.9490  0.7954  1.2094
 3630TIP3    H232450   1.231   0.936   1.422  1.1477 -1.4135 -1.6663
 3631TIP3   OH232451   1.402   2.871   2.002  1.1491  0.3835 -0.5231
 3631TIP3    H132452   1.465   2.806   2.032 -0.1697 -0.2455  1.0790
 3631TIP3    H232453   1.363   2.905   2.083 -0.5193  0.7634 -1.4314
 3632TIP3   OH232454   2.632   4.530   0.859  0.0883 -0.0708  0.6385
 3632TIP3    H132455   2.633   4.587   0.782  2.0588 -0.4855  0.3179
 3632TIP3    H232456   2.716   4.545   0.901 -0.4713 -0.7477  2.0750
 3633TIP3   OH232457   5.442   0.549   1.057  0.4079  0.0019 -0.2772
 3633TIP3    H132458   5.481   0.511   0.978 -0.3904  0.1556 -0.7529
 3633TIP3    H232459   5.401   0.474   1.101 -0.9919  0.2385 -1.1126
 3634TIP3   OH232460   0.472   4.066   2.921  0.2359  0.0593 -0.2786
 3634TIP3    H132461   0.481   4.154   2.956  0.7266 -0.9397  2.2783
 3634TIP3    H232462   0.378   4.056   2.906 -0.1260  0.2452  1.6509
 3635TIP3   OH232463   2.642   0.920   2.180  0.2814 -0.6712 -0.0929
 3635TIP3    H132464   2.563   0.955   2.140  1.2922 -0.6055 -2.1503
 3635TIP3    H232465   2.662   0.841   2.131  1.9679 -0.2099 -0.2239
 3636TIP3   OH232466   6.001   0.095   2.215  0.2800 -0.9492 -0.1680
 3636TIP3    H132467   5.928   0.104   2.276  1.3083  0.9882  0.8583
 3636TIP3    H232468   6.025   0.002   2.219 -1.0739 -1.2819  0.6994
 3637TIP3   OH232469   5.229   6.266   1.107 -0.2754 -0.2046 -0.4543
 3637TIP3    H132470   5.157   6.305   1.158  0.1066 -1.1343  0.8720
 3637TIP3    H232471   5.210   6.172   1.108  1.3503 -0.5709  0.6441
 3638TIP3   OH232472   4.332   2.511   1.127 -0.1015  0.2355 -0.1134
 3638TIP3    H132473   4.419   2.488   1.162  0.4560 -0.7518 -2.0466
 3638TIP3    H232474   4.280   2.530   1.205  1.6545  0.1772  1.1395
 3639TIP3   OH232475   5.779   0.574   7.332  0.2005  0.0241  0.1522
 3639TIP3    H132476   5.786   0.601   7.240  0.3322  1.0110  0.4360
 3639TIP3    H232477   5.687   0.589   7.354 -0.0524 -1.0851 -0.0575
 3640TIP3   OH232478   0.155   3.080   0.524  0.5805 -0.1036 -0.2124
 3640TIP3    H132479   0.104   3.161   0.528  1.6546  0.5942 -0.2382
 3640TIP3    H232480   0.184   3.075   0.433 -0.0810 -0.9057 -0.3846
 3641TIP3   OH232481   3.830   3.798   0.874  1.2122 -0.0763 -0.3313
 3641TIP3    H132482   3.849   3.729   0.810 -0.3839 -0.8056 -0.0559
 3641TIP3    H232483   3.753   3.842   0.839  0.7115 -0.0688  0.7669
 3642TIP3   OH232484   6.605   5.509   1.361  0.2048  0.0930 -0.4904
 3642TIP3    H132485   6.517   5.545   1.365  1.4241  3.5435 -0.9705
 3642TIP3    H232486   6.606   5.439   1.426 -2.5247  0.7540  0.3905
 3643TIP3   OH232487   3.394   5.157   0.629 -0.0214 -0.1293 -0.1782
 3643TIP3    H132488   3.312   5.108   0.640 -0.5152  0.5129 -0.8848
 3643TIP3    H232489   3.367   5.249   0.624  0.9043  0.2610  1.2774
 3644TIP3   OH232490   6.479   3.691   8.519  0.5461 -0.1943 -0.3434
 3644TIP3    H132491   6.567   3.716   8.547  0.5343  0.4053 -0.8311
 3644TIP3    H232492   6.420   3.733   8.581  0.4374  2.4700 -2.1084
 3645TIP3   OH232493   6.538   5.650   0.341 -0.2699 -0.3344 -0.0562
 3645TIP3    H132494   6.538   5.682   0.432 -1.0810  0.4182 -0.3034
 3645TIP3    H232495   6.630   5.650   0.316 -0.1977  2.1183 -0.1027
 3646TIP3   OH232496   1.935   3.941   7.772 -0.4332  1.1513 -0.3720
 3646TIP3    H132497   1.956   3.848   7.766 -0.8147  0.9949  0.6297
 3646TIP3    H232498   2.021   3.984   7.771 -0.2066  0.7288  0.0869
 3647TIP3   OH232499   4.331   3.564   7.704 -0.4382 -0.1361 -0.0705
 3647TIP3    H132500   4.251   3.538   7.660  0.1987 -1.4470 -0.4969
 3647TIP3    H232501   4.390   3.489   7.694  0.3176  0.1981  1.5421
 3648TIP3   OH232502   4.213   5.926   7.265 -0.3025  0.3662 -0.4041
 3648TIP3    H132503   4.241   5.903   7.176 -0.5714 -0.0824 -0.3759
 3648TIP3    H232504   4.295   5.935   7.314 -0.1829 -0.3845 -0.4585
 3649TIP3   OH232505   2.329   6.428   7.495  0.0530  0.1314  0.1763
 3649TIP3    H132506   2.338   6.486   7.419  1.6007  0.7293  0.7790
 3649TIP3    H232507   2.243   6.386   7.483 -1.3981  2.9319 -0.0160
 3650TIP3   OH232508   4.549   3.124   0.445  0.4209  0.5775  0.0002
 3650TIP3    H132509   4.622   3.132   0.383 -0.0526  0.7478 -0.5538
 3650TIP3    H232510   4.472   3.112   0.389  0.1350 -0.5193  0.6029
 3651TIP3   OH232511   2.734   0.952   2.732 -0.0585 -0.3335 -1.1115
 3651TIP3    H132512   2.790   0.876   2.750 -1.2606 -1.0106 -0.1478
 3651TIP3    H232513   2.677   0.924   2.660 -0.7680 -0.4824 -0.4929
 3652TIP3   OH232514   3.623   5.777   1.149 -0.9424 -0.2046  0.3438
 3652TIP3    H132515   3.645   5.805   1.238 -0.0738 -0.5230  0.2414
 3652TIP3    H232516   3.649   5.685   1.145  0.1163  0.1037 -0.5742
 3653TIP3   OH232517   5.996   0.104   1.859 -0.3121 -0.5070  0.2666
 3653TIP3    H132518   5.968   0.013   1.862  1.7501 -1.2311 -0.5736
 3653TIP3    H232519   6.086   0.103   1.890  0.2477  0.9983 -1.1370
 3654TIP3   OH232520   6.019   0.933   0.500 -0.1296 -0.4359 -0.2107
 3654TIP3    H132521   6.077   0.865   0.466 -0.7222 -1.0900  0.0667
 3654TIP3    H232522   5.938   0.923   0.451 -0.7069 -0.8586  0.7863
 3655TIP3   OH232523   2.521   0.487   1.838  0.0438  0.4224  0.2325
 3655TIP3    H132524   2.518   0.402   1.794  0.2723  0.9452 -0.8098
 3655TIP3    H232525   2.598   0.531   1.802 -0.7765  1.5700 -0.1881
 3656TIP3   OH232526   2.740   3.714   7.776 -0.1465  0.3034  0.0877
 3656TIP3    H132527   2.690   3.650   7.826  1.5452  1.0653  2.9460
 3656TIP3    H232528   2.823   3.671   7.755  0.2418  0.9108  0.3437
 3657TIP3   OH232529   4.105   3.814   6.991 -0.7023  0.2470 -0.3429
 3657TIP3    H132530   4.148   3.896   6.967 -0.4048  0.0334 -0.5446
 3657TIP3    H232531   4.169   3.746   6.969 -1.3308 -0.1114 -1.1198
 3658TIP3   OH232532   0.408   2.562   0.580 -0.2449  0.5649  0.3828
 3658TIP3    H132533   0.314   2.564   0.562 -0.0250  0.3636 -0.9335
 3658TIP3    H232534   0.416   2.518   0.664 -1.3977  1.6604  1.1097
 3659TIP3   OH232535   1.390   4.075   8.576 -0.1150 -0.4845 -0.9227
 3659TIP3    H132536   1.440   4.125   8.640 -1.0608 -1.3623  0.5428
 3659TIP3    H232537   1.317   4.131   8.552 -0.3475 -0.5725 -0.4217
 3660TIP3   OH232538   3.320   5.013   1.836 -0.5794 -0.4608 -0.1595
 3660TIP3    H132539   3.329   4.941   1.774 -0.2967  0.3341 -1.0764
 3660TIP3    H232540   3.355   4.978   1.918 -3.2958 -2.3832  0.3212
 3661TIP3   OH232541   4.554   5.411   7.693 -0.0678 -0.2383  0.2394
 3661TIP3    H132542   4.542   5.489   7.747  0.7542 -0.1797  0.3404
 3661TIP3    H232543   4.559   5.339   7.755  0.1735 -0.2562  0.1974
 3662TIP3   OH232544   4.574   6.382   1.541 -0.1584  0.4703  0.1760
 3662TIP3    H132545   4.495   6.420   1.503  1.3078  1.9798 -1.5418
 3662TIP3    H232546   4.592   6.305   1.488  0.1520  0.7903 -0.1883
 3663TIP3   OH232547   4.923   5.694   8.540 -0.2147  0.1844  0.2364
 3663TIP3    H132548   4.879   5.668   8.460  0.1588  0.3496 -0.0260
 3663TIP3    H232549   4.902   5.625   8.603  0.1205 -0.3433 -0.2233
 3664TIP3   OH232550   4.563   3.641   2.017  0.5702 -0.4887  0.6603
 3664TIP3    H132551   4.579   3.665   2.108  0.6362 -1.6919  0.9762
 3664TIP3    H232552   4.497   3.572   2.021  0.5126 -0.4979 -0.2079
 3665TIP3   OH232553   4.169   0.739   1.390 -1.1651 -0.2828 -0.3250
 3665TIP3    H132554   4.153   0.806   1.323 -0.8514  0.8014  0.6605
 3665TIP3    H232555   4.082   0.709   1.415 -1.3549  0.4662 -0.0747
 3666TIP3   OH232556   1.778   6.370   1.115 -0.5962 -0.0414  0.0526
 3666TIP3    H132557   1.734   6.429   1.055 -0.6273  1.3524  1.3842
 3666TIP3    H232558   1.738   6.388   1.200  2.0340  0.7824  1.2104
 3667TIP3   OH232559   1.603   0.001   8.025 -0.1392 -0.1105  0.2761
 3667TIP3    H132560   1.680   0.047   8.057  0.0213 -0.2639  0.1119
 3667TIP3    H232561   1.608  -0.085   8.066  1.7950 -1.5057 -2.5400
 3668TIP3   OH232562   6.401   5.085   8.472 -0.1973  0.1708  0.7674
 3668TIP3    H132563   6.307   5.063   8.470 -0.2905  0.5437 -0.6715
 3668TIP3    H232564   6.439   5.033   8.401  0.3152  1.4840  0.0421
 3669TIP3   OH232565   4.818   1.446   2.120  0.4228 -0.3948 -0.2108
 3669TIP3    H132566   4.765   1.367   2.128  0.8932 -0.5258  3.4034
 3669TIP3    H232567   4.908   1.416   2.123  0.7234  0.1000 -2.5698
 3670TIP3   OH232568   0.170   0.838   2.173 -0.4615  0.6046 -0.0259
 3670TIP3    H132569   0.230   0.909   2.152  0.2978 -0.2726 -0.9193
 3670TIP3    H232570   0.222   0.778   2.227 -0.6016 -0.0140 -0.5587
 3671TIP3   OH232571   5.348   0.284   0.752 -0.1523 -0.4753 -0.3293
 3671TIP3    H132572   5.335   0.227   0.677  1.1685 -0.9796 -0.1983
 3671TIP3    H232573   5.259   0.311   0.777 -0.6120 -0.1892 -2.1289
 3672TIP3   OH232574   5.449   6.478   0.841  0.1445 -0.6705  0.1132
 3672TIP3    H132575   5.371   6.438   0.878 -0.6762  0.0517 -0.7675
 3672TIP3    H232576   5.448   6.568   0.874 -0.8693  0.1370 -1.9414
 3673TIP3   OH232577   6.440   5.534   8.579  0.2245  0.1569 -0.3115
 3673TIP3    H132578   6.473   5.601   8.639  2.0236 -0.0628 -0.9965
 3673TIP3    H232579   6.434   5.455   8.632 -2.5523  0.8954  0.6818
 3674TIP3   OH232580   4.797   0.944   7.131  0.2810 -0.2897  0.2775
 3674TIP3    H132581   4.801   1.004   7.205  3.1957 -0.9554  0.7586
 3674TIP3    H232582   4.712   0.900   7.141  0.1996  0.2829  2.6732
 3675TIP3   OH232583   1.062   6.348   1.534  0.3787  0.3323  0.0892
 3675TIP3    H132584   0.967   6.358   1.539  0.1666 -1.6344  0.4925
 3675TIP3    H232585   1.096   6.430   1.570 -1.0892  2.4667 -2.8929
 3676TIP3   OH232586   2.696   4.412   8.314  0.7365  0.1497  0.1441
 3676TIP3    H132587   2.745   4.339   8.277  2.0044  0.2090  1.6189
 3676TIP3    H232588   2.760   4.483   8.320 -0.0846  0.9047  0.1383
 3677TIP3   OH232589   5.140   4.020   0.622 -0.0905 -0.6443  0.1175
 3677TIP3    H132590   5.182   3.994   0.704  0.9737  1.0046  0.1365
 3677TIP3    H232591   5.058   3.971   0.621 -0.9368  0.4904  2.9839
 3678TIP3   OH232592   3.846   1.366   0.698 -0.6651  0.6078 -0.7686
 3678TIP3    H132593   3.895   1.294   0.660 -1.0629 -0.3393  0.4723
 3678TIP3    H232594   3.756   1.332   0.706 -0.5995  0.7824  0.9616
 3679TIP3   OH232595   3.247   4.505   0.699 -0.1099 -0.1207  0.5793
 3679TIP3    H132596   3.163   4.550   0.708  0.9568  1.9337  0.8224
 3679TIP3    H232597   3.273   4.521   0.608 -0.6783 -2.1713 -0.0195
 3680TIP3   OH232598   4.185   4.286   8.254  0.2126  0.1010  0.3434
 3680TIP3    H132599   4.209   4.198   8.285  1.3001 -0.5145 -2.0204
 3680TIP3    H232600   4.095   4.277   8.224  0.2610 -0.1689  0.2705
 3681TIP3   OH232601   4.527   0.697   0.263  0.6845 -0.2342 -0.5400
 3681TIP3    H132602   4.461   0.751   0.306  0.4028 -1.4078  0.5492
 3681TIP3    H232603   4.522   0.723   0.171 -0.9062  0.0986 -0.3946
 3682TIP3   OH232604   3.975   2.283   0.241  0.7386 -0.3180  0.3123
 3682TIP3    H132605   3.917   2.350   0.276 -2.1634 -1.9627 -1.0578
 3682TIP3    H232606   4.010   2.239   0.318 -1.7853 -0.8374  1.2276
 3683TIP3   OH232607   5.325   2.995   1.385 -0.4926  0.5369 -0.1318
 3683TIP3    H132608   5.344   3.083   1.416  1.2901 -0.3199  1.4598
 3683TIP3    H232609   5.334   2.940   1.464  0.6105 -1.3099 -1.4609
 3684TIP3   OH232610   2.468   1.262   1.059  0.7579  0.1144  0.0944
 3684TIP3    H132611   2.548   1.311   1.074  1.5866 -1.3948  0.9324
 3684TIP3    H232612   2.471   1.192   1.125 -1.1719 -0.0686  0.0436
 3685TIP3   OH232613   0.446   4.435   7.628 -0.3609 -0.2709 -0.4962
 3685TIP3    H132614   0.429   4.387   7.709 -0.1160 -1.0354 -0.8841
 3685TIP3    H232615   0.376   4.408   7.569 -0.3199 -0.0182 -0.6589
 3686TIP3   OH232616   1.087   6.849   1.786  0.2161 -0.0963 -0.1023
 3686TIP3    H132617   0.991   6.857   1.781  0.2436 -0.0965 -0.7105
 3686TIP3    H232618   1.120   6.920   1.730  0.5460 -0.9091 -0.9675
 3687TIP3   OH232619   1.784   5.832   2.144 -0.4409  0.0495 -0.2306
 3687TIP3    H132620   1.833   5.809   2.223  0.6406 -0.0469 -0.8958
 3687TIP3    H232621   1.771   5.748   2.099 -0.9860  0.1112 -0.1912
 3688TIP3   OH232622   0.091   4.463   8.653  0.5965  0.5360  0.0007
 3688TIP3    H132623  -0.000   4.493   8.648 -1.1197 -3.3118  2.7052
 3688TIP3    H232624   0.129   4.516   8.723 -0.5981  0.2211  0.9345
 3689TIP3   OH232625   6.503   5.719   8.167 -0.4208  0.1100 -0.1331
 3689TIP3    H132626   6.569   5.668   8.121 -0.7569 -0.4579  0.0060
 3689TIP3    H232627   6.451   5.654   8.214  0.1620  0.7113  1.3795
 3690TIP3   OH232628   3.289   4.874   0.811  0.0614 -0.1824  0.3372
 3690TIP3    H132629   3.350   4.945   0.829 -1.4101  1.3381 -0.4138
 3690TIP3    H232630   3.214   4.917   0.771 -0.4131 -2.3036 -1.2265
 3691TIP3   OH232631   3.413   4.052   0.202 -0.1895 -0.1670  0.2540
 3691TIP3    H132632   3.356   4.125   0.227  0.0685 -0.4085  1.6132
 3691TIP3    H232633   3.387   3.980   0.260  1.3306 -0.3547  0.7302
 3692TIP3   OH232634   0.272   3.895   1.621  0.1237 -0.5142  0.0070
 3692TIP3    H132635   0.361   3.869   1.643  0.5017  0.5329 -0.2272
 3692TIP3    H232636   0.222   3.813   1.622  0.7919 -0.9382  1.5002
 3693TIP3   OH232637   2.214   3.266   0.649 -0.0674  0.1263  0.7231
 3693TIP3    H132638   2.215   3.308   0.735  0.7665 -1.2779  1.4453
 3693TIP3    H232639   2.302   3.278   0.614  0.2906 -1.2580  1.0943
 3694TIP3   OH232640   1.087   5.919   8.014  0.6365 -0.2334 -0.1082
 3694TIP3    H132641   1.049   5.885   8.095 -0.6161  1.2418 -0.0199
 3694TIP3    H232642   1.181   5.901   8.022  0.3472 -1.3645  1.0261
 3695TIP3   OH232643   5.925   5.936   2.715 -0.0258 -0.0557 -0.0221
 3695TIP3    H132644   5.991   5.892   2.769  0.4045  0.2428 -0.3023
 3695TIP3    H232645   5.843   5.891   2.737  0.5226 -1.5667 -0.8943
 3696TIP3   OH232646   2.469   3.561   2.211 -0.0868  0.8129 -0.3368
 3696TIP3    H132647   2.407   3.596   2.276  2.2968 -0.4435  2.9174
 3696TIP3    H232648   2.528   3.634   2.193  1.6062  0.2143  2.1936
 3697TIP3   OH232649   4.488   0.066   0.055 -0.4783 -0.0247 -0.1018
 3697TIP3    H132650   4.420   0.123   0.091 -0.6553 -0.4932  0.3092
 3697TIP3    H232651   4.479  -0.016   0.103  0.0272 -0.2728 -0.4222
 3698TIP3   OH232652   5.371   0.226   1.156 -0.0354  0.2716  0.3680
 3698TIP3    H132653   5.446   0.223   1.096 -0.6597 -0.5642 -0.3905
 3698TIP3    H232654   5.369   0.139   1.196 -2.2811 -0.7535 -1.7619
 3699TIP3   OH232655   3.924   5.024   8.241 -0.5483  0.5217 -0.7145
 3699TIP3    H132656   3.865   4.953   8.215  1.4507 -1.1973 -0.8186
 3699TIP3    H232657   3.928   5.081   8.164 -0.8071 -0.2279 -1.2952
 3700TIP3   OH232658   4.094   5.911   7.588 -0.4836  0.1738 -0.3750
 3700TIP3    H132659   4.064   5.822   7.573  1.0460 -0.2188 -1.2919
 3700TIP3    H232660   4.016   5.958   7.616 -1.4272 -1.3224 -0.3981
 3701TIP3   OH232661   5.128   5.302   1.405 -0.4963  0.9660 -0.1684
 3701TIP3    H132662   5.101   5.325   1.316 -0.3625  2.4003  0.1406
 3701TIP3    H232663   5.069   5.352   1.461  1.0327  2.0526  0.5330
 3702TIP3   OH232664   0.604   5.013   0.768 -0.1748  0.4374  0.3996
 3702TIP3    H132665   0.659   5.019   0.690 -2.1879  0.4999 -1.1191
 3702TIP3    H232666   0.590   4.919   0.782 -0.0397  0.4342  0.5102
 3703TIP3   OH232667   4.463   6.481   8.432 -0.4602 -0.4321  0.2907
 3703TIP3    H132668   4.489   6.527   8.512  2.4278  1.6978 -1.6557
 3703TIP3    H232669   4.384   6.527   8.402  0.0805  0.6567  0.4878
 3704TIP3   OH232670   3.023   2.462   2.202  0.7161  0.3455  0.7534
 3704TIP3    H132671   3.086   2.393   2.221  0.5469  0.3480  1.3646
 3704TIP3    H232672   3.065   2.542   2.234  1.5028  0.7578 -1.1960
 3705TIP3   OH232673   3.735   6.526   1.347 -0.2203  0.1742 -0.0852
 3705TIP3    H132674   3.654   6.522   1.399  0.1735 -0.5892  0.4782
 3705TIP3    H232675   3.729   6.610   1.302 -1.2689  0.1935  0.0513
 3706TIP3   OH232676   6.629   1.085   1.674 -0.6780  0.5709  0.7040
 3706TIP3    H132677   6.704   1.052   1.724 -0.9409  1.3481  1.6386
 3706TIP3    H232678   6.621   1.177   1.701 -1.4399  0.7282 -0.0312
 3707TIP3   OH232679   6.731   0.599   1.758 -0.5673 -0.0431  0.1222
 3707TIP3    H132680   6.800   0.657   1.726 -0.9566  0.4127  0.1066
 3707TIP3    H232681   6.778   0.521   1.789  0.0745  0.8010  1.3595
 3708TIP3   OH232682   1.249   5.214   7.472 -0.0075 -0.0535  0.4230
 3708TIP3    H132683   1.214   5.278   7.411 -0.5371  0.2603  1.0471
 3708TIP3    H232684   1.172   5.171   7.510  0.3401 -1.6800 -0.6198
 3709TIP3   OH232685   0.587   6.192   1.014 -0.2580  0.4690 -0.0545
 3709TIP3    H132686   0.653   6.178   1.081  0.7966  0.6855 -1.0151
 3709TIP3    H232687   0.633   6.178   0.931 -2.0305 -1.9210 -0.7427
 3710TIP3   OH232688   6.603   2.359   7.820  0.7221  0.0583 -0.1118
 3710TIP3    H132689   6.616   2.270   7.787  1.6382  0.2958 -0.4138
 3710TIP3    H232690   6.576   2.409   7.743 -0.8746 -0.1674  0.2659
 3711TIP3   OH232691   1.435   2.064   0.491 -0.0549  0.2828  0.0799
 3711TIP3    H132692   1.456   2.010   0.415  0.8369 -0.2426  0.6849
 3711TIP3    H232693   1.340   2.072   0.489  0.0596  2.1238 -2.3309
 3712TIP3   OH232694   5.457   2.701   8.113 -0.1699  0.1315  0.1272
 3712TIP3    H132695   5.470   2.687   8.020 -1.0564  0.4384 -0.0515
 3712TIP3    H232696   5.444   2.613   8.149 -1.8296  0.1495 -0.3703
 3713TIP3   OH232697   6.162   0.109   2.418  0.7338 -0.9674  0.3307
 3713TIP3    H132698   6.229   0.043   2.396  0.4190 -1.3287  0.4554
 3713TIP3    H232699   6.124   0.133   2.333 -0.5930 -2.4809  0.4583
 3714TIP3   OH232700   4.407   5.185   0.838 -0.5212 -0.2691  0.6409
 3714TIP3    H132701   4.441   5.196   0.750 -1.9641 -0.4108  0.0329
 3714TIP3    H232702   4.430   5.266   0.883 -1.0040  0.4134 -0.3041
 3715TIP3   OH232703   1.267   1.442   7.589  0.4646 -0.5452 -0.2266
 3715TIP3    H132704   1.215   1.363   7.601 -0.4307  0.1287  0.4565
 3715TIP3    H232705   1.236   1.478   7.506 -0.7473  0.2519  0.5331
 3716TIP3   OH232706   3.119   3.886   0.540 -0.3156  0.5816  0.7179
 3716TIP3    H132707   3.050   3.865   0.603 -1.6995  0.7680 -0.6680
 3716TIP3    H232708   3.072   3.913   0.461  1.3607  2.4047  0.2599
 3717TIP3   OH232709   2.479   0.379   8.653 -0.5908 -0.7919 -0.3598
 3717TIP3    H132710   2.513   0.384   8.564 -2.8462 -0.2783 -1.2413
 3717TIP3    H232711   2.557   0.385   8.709  0.7286  0.4752 -2.2430
 3718TIP3   OH232712   4.949   2.624   7.973  0.4010 -0.4075  0.2976
 3718TIP3    H132713   4.905   2.569   8.038 -1.3466 -0.9362 -1.2352
 3718TIP3    H232714   5.028   2.576   7.950 -0.1021 -1.3088  0.4237
 3719TIP3   OH232715   3.932   2.293   7.396 -0.7401  0.6078  0.0288
 3719TIP3    H132716   4.015   2.318   7.354 -1.1328  0.5657 -0.8004
 3719TIP3    H232717   3.927   2.348   7.474  1.0479 -0.8368  1.2558
 3720TIP3   OH232718   5.777   4.605   0.275 -0.0414 -0.1464  0.0431
 3720TIP3    H132719   5.748   4.612   0.184 -1.3947  3.3492  0.5955
 3720TIP3    H232720   5.707   4.555   0.318  0.1326 -0.9789 -0.6058
 3721TIP3   OH232721   3.282   6.544   6.577  0.0239  0.2123 -0.4249
 3721TIP3    H132722   3.190   6.550   6.552  0.2302 -2.2014 -2.1951
 3721TIP3    H232723   3.283   6.482   6.650  0.1780  0.8157  0.0873
 3722TIP3   OH232724   3.088   1.402   7.158  0.1102  0.0273  0.2743
 3722TIP3    H132725   3.107   1.494   7.176 -1.7165  0.5639 -0.2397
 3722TIP3    H232726   3.144   1.380   7.083 -1.3984  1.6330 -1.4660
 3723TIP3   OH232727   2.849   3.501   8.460  0.2571 -0.2028  0.7289
 3723TIP3    H132728   2.878   3.422   8.415 -0.6434 -0.8398  1.2505
 3723TIP3    H232729   2.806   3.470   8.539 -1.0333  0.7373  0.4319
 3724TIP3   OH232730   2.585   4.569   7.898 -0.0389  0.3596  0.3138
 3724TIP3    H132731   2.624   4.645   7.941 -0.2012  1.0906 -0.7881
 3724TIP3    H232732   2.645   4.497   7.918 -0.4633  0.5133  2.2880
 3725TIP3   OH232733   4.914   5.178   8.151 -0.1408  0.1787 -0.4663
 3725TIP3    H132734   4.861   5.244   8.106  0.5243  1.1618  0.1739
 3725TIP3    H232735   4.851   5.126   8.201 -0.6023  0.6872 -0.5164
 3726TIP3   OH232736   0.063   0.554   0.750 -0.3957 -0.8138  0.0226
 3726TIP3    H132737   0.007   0.481   0.723 -1.6152  0.4555 -1.0738
 3726TIP3    H232738   0.138   0.550   0.691 -0.0238 -1.6925  0.5521
 3727TIP3   OH232739   3.553   2.110   7.995  0.2511  0.3253  0.2171
 3727TIP3    H132740   3.477   2.083   7.943  0.4314 -0.5818  0.4115
 3727TIP3    H232741   3.527   2.094   8.086  1.5290 -2.3673  0.1957
 3728TIP3   OH232742   6.710   5.927   7.108 -0.4984 -0.3167 -0.6990
 3728TIP3    H132743   6.705   5.919   7.012  0.1361  1.0551 -0.8588
 3728TIP3    H232744   6.802   5.943   7.126 -0.8811  1.1873 -0.0091
 3729TIP3   OH232745   0.544   3.455   6.757 -0.2155 -0.2385  0.3500
 3729TIP3    H132746   0.626   3.430   6.712 -0.5286 -0.5076 -0.0863
 3729TIP3    H232747   0.572   3.486   6.842  0.3205 -0.7082  0.3564
 3730TIP3   OH232748   4.956   0.868   8.465  0.0201  0.6253 -0.3171
 3730TIP3    H132749   5.048   0.847   8.450 -0.2163  1.1200 -2.9157
 3730TIP3    H232750   4.918   0.871   8.378 -2.4502  0.6098  0.6791
 3731TIP3   OH232751   4.558   5.800   6.899 -0.2382  0.2894  0.1110
 3731TIP3    H132752   4.647   5.776   6.926 -0.2917 -1.1042 -0.8365
 3731TIP3    H232753   4.569   5.838   6.812 -0.6473 -0.8809 -0.4744
 3732TIP3   OH232754   1.790   0.679   7.872  0.5796  0.3082  0.3251
 3732TIP3    H132755   1.876   0.637   7.868 -0.3030 -1.6729  1.1164
 3732TIP3    H232756   1.809   0.769   7.897  2.3489 -0.5958  2.6718
 3733TIP3   OH232757   4.441   3.760   7.238  0.2161  0.0493 -0.0420
 3733TIP3    H132758   4.530   3.754   7.274 -0.0655  0.3628  0.7261
 3733TIP3    H232759   4.403   3.674   7.254 -0.0870  0.3410  0.9393
 3734TIP3   OH232760   4.536   3.783   2.315 -0.3921  0.0230 -0.0461
 3734TIP3    H132761   4.443   3.777   2.339 -0.0042 -0.1687  1.4997
 3734TIP3    H232762   4.583   3.768   2.397  1.0669 -2.5663 -1.2277
 3735TIP3   OH232763   4.788   2.137   1.788 -0.6018 -0.2925 -0.0952
 3735TIP3    H132764   4.764   2.165   1.700  0.4937 -0.1474 -0.3540
 3735TIP3    H232765   4.827   2.051   1.777 -0.9468 -0.5081  0.3217
 3736TIP3   OH232766   4.997   3.834   0.372 -0.1767  0.2100 -0.1216
 3736TIP3    H132767   5.067   3.814   0.434  0.2622 -0.0081 -0.6791
 3736TIP3    H232768   4.930   3.768   0.391 -0.3466  0.5779  0.5848
 3737TIP3   OH232769   6.525   1.784   7.696  0.1295 -0.1029 -0.5604
 3737TIP3    H132770   6.544   1.773   7.602 -0.9288 -2.1005 -0.5866
 3737TIP3    H232771   6.601   1.746   7.741  0.1536 -0.1124 -0.6086
 3738TIP3   OH232772   6.545   2.394   0.073 -0.5210  0.0137  0.0413
 3738TIP3    H132773   6.639   2.412   0.066 -0.0497 -1.9957  0.4352
 3738TIP3    H232774   6.505   2.449   0.006  1.2469 -1.0216 -2.0048
 3739TIP3   OH232775   6.675   1.502   7.405 -0.0785  0.2059  0.2822
 3739TIP3    H132776   6.726   1.555   7.467 -1.0303 -0.1839  1.4535
 3739TIP3    H232777   6.715   1.416   7.410  0.7158  0.5041 -0.7164
 3740TIP3   OH232778   1.675   0.021   7.373 -0.2093  0.2193 -0.3721
 3740TIP3    H132779   1.611   0.064   7.316  0.2262 -0.4668 -1.4255
 3740TIP3    H232780   1.680  -0.068   7.338  0.6483  0.0098  0.2710
 3741TIP3   OH232781   3.237   6.291   7.870 -0.4938 -0.4582 -0.1837
 3741TIP3    H132782   3.185   6.220   7.906  0.4057 -1.4747 -0.8297
 3741TIP3    H232783   3.325   6.255   7.861  0.4094  1.2755  1.0668
 3742TIP3   OH232784   1.875   4.474   6.753  0.5392 -0.2123 -0.2410
 3742TIP3    H132785   1.886   4.498   6.661 -0.9397 -0.7557 -0.5848
 3742TIP3    H232786   1.934   4.533   6.800 -1.0568  2.3721 -1.2624
 3743TIP3   OH232787   0.577   2.127   7.768 -0.2014 -0.1768  0.5949
 3743TIP3    H132788   0.559   2.130   7.862 -1.1330  0.3499  0.4169
 3743TIP3    H232789   0.635   2.052   7.757 -0.5978 -0.6358  1.5100
 3744TIP3   OH232790   2.976   3.610   1.384  0.0044  0.3666 -0.5002
 3744TIP3    H132791   2.930   3.622   1.467  0.1625 -0.2605 -0.3117
 3744TIP3    H232792   3.012   3.697   1.363 -0.5893  0.6764 -0.2529
 3745TIP3   OH232793   0.737   0.451   8.509 -0.4142 -0.6245  0.2604
 3745TIP3    H132794   0.751   0.422   8.599  1.2263  2.2111  1.0380
 3745TIP3    H232795   0.791   0.391   8.457  2.4081  0.4641  1.7135
 3746TIP3   OH232796   3.625   5.576   7.810 -0.2796 -0.4719 -0.3598
 3746TIP3    H132797   3.708   5.536   7.786 -0.3412 -0.0334 -1.3324
 3746TIP3    H232798   3.649   5.664   7.839 -0.3920 -0.3890 -0.5185
 3747TIP3   OH232799   0.438   5.697   6.931  0.0777 -0.2526 -0.1000
 3747TIP3    H132800   0.526   5.731   6.916 -0.2637 -0.0373 -1.7848
 3747TIP3    H232801   0.381   5.755   6.880 -0.8836 -1.2505 -0.1957
 3748TIP3   OH232802   0.884   1.705   2.639  0.3155 -0.1682  0.2626
 3748TIP3    H132803   0.891   1.801   2.642 -1.9804  0.1640 -1.8165
 3748TIP3    H232804   0.974   1.675   2.646  1.0821  2.0986  1.3952
 3749TIP3   OH232805   0.314   0.920   1.902 -0.6938 -0.4544  0.4013
 3749TIP3    H132806   0.380   0.968   1.853  1.2260 -2.3951  0.9362
 3749TIP3    H232807   0.266   0.871   1.836  0.0978 -0.9784  0.2017
 3750TIP3   OH232808   5.156   4.976   8.359 -0.6670 -0.3416 -0.1971
 3750TIP3    H132809   5.185   4.934   8.440  1.2643 -0.9235 -1.1375
 3750TIP3    H232810   5.064   4.997   8.374 -0.1017  0.5610  2.5631
 3751TIP3   OH232811   2.371   4.138   0.485 -0.1114  0.0186  0.6661
 3751TIP3    H132812   2.417   4.054   0.484 -0.7002 -0.3211  1.2565
 3751TIP3    H232813   2.281   4.116   0.463 -0.2058  0.5409  0.5175
 3752TIP3   OH232814   4.871   4.600   1.784 -0.3017  0.1926  0.0117
 3752TIP3    H132815   4.797   4.553   1.746  0.9568 -1.1023 -0.9263
 3752TIP3    H232816   4.929   4.616   1.710 -0.2669  2.5210  0.4533
 3753TIP3   OH232817   2.887   4.956   7.368 -0.3879 -0.2772 -0.2714
 3753TIP3    H132818   2.903   4.961   7.463 -2.1477 -0.4444  0.0723
 3753TIP3    H232819   2.918   4.870   7.343  1.4355  0.3058 -0.1580
 3754TIP3   OH232820   2.176   4.113   1.099  0.3490  0.1044  1.1243
 3754TIP3    H132821   2.251   4.171   1.097  0.0164  0.5329 -0.2543
 3754TIP3    H232822   2.107   4.164   1.140  0.7968 -0.2930  2.3990
 3755TIP3   OH232823   0.097   1.869   7.943  0.0941 -0.3232 -0.7278
 3755TIP3    H132824   0.053   1.925   8.008  1.1462 -1.2115  0.8234
 3755TIP3    H232825   0.026   1.824   7.898 -0.6874  0.8161 -0.6838
 3756TIP3   OH232826   3.874   4.567   0.329 -0.2587 -0.1606 -0.6957
 3756TIP3    H132827   3.873   4.650   0.376 -0.1077 -0.2993 -0.4456
 3756TIP3    H232828   3.825   4.507   0.385  0.8392 -0.6087 -0.1870
 3757TIP3   OH232829   1.300   4.600   1.817  0.2489  0.0182  0.3863
 3757TIP3    H132830   1.236   4.670   1.809 -1.1347 -0.9484  2.1963
 3757TIP3    H232831   1.305   4.582   1.911  1.4490 -1.4957  0.0831
 3758TIP3   OH232832   3.551   4.682   1.138 -0.4730  0.1424 -0.6399
 3758TIP3    H132833   3.471   4.699   1.090 -0.6969  2.8483  0.5264
 3758TIP3    H232834   3.551   4.746   1.209  2.5087 -0.0200 -0.3446
 3759TIP3   OH232835   2.417   6.579   8.541 -0.4742  0.4229 -0.0312
 3759TIP3    H132836   2.499   6.586   8.491 -0.1755  0.5466  0.4626
 3759TIP3    H232837   2.352   6.551   8.477 -0.0709  0.4484 -0.4595
 3760TIP3   OH232838   2.182   4.877   0.842  0.1129 -0.3180  0.7449
 3760TIP3    H132839   2.230   4.795   0.855  0.2530 -0.5376 -0.9544
 3760TIP3    H232840   2.249   4.941   0.818 -0.1687 -0.0647  0.6254
 3761TIP3   OH232841   3.659   4.509   8.054  0.1911  0.0480  0.0924
 3761TIP3    H132842   3.633   4.418   8.042 -0.7280  0.1912  0.8844
 3761TIP3    H232843   3.739   4.518   8.002  0.4390 -1.2748  0.2006
 3762TIP3   OH232844   4.678   0.224   1.876 -0.3983  0.2000 -0.4449
 3762TIP3    H132845   4.718   0.243   1.791  2.0558 -0.9418  0.3409
 3762TIP3    H232846   4.658   0.130   1.873  0.6466 -0.0858  0.5281
 3763TIP3   OH232847   3.048   2.547   6.902 -0.3371  0.2759  0.3670
 3763TIP3    H132848   3.085   2.614   6.960 -0.0252  0.6806 -0.2859
 3763TIP3    H232849   3.124   2.500   6.867 -0.4001  1.0880 -0.9473
 3764TIP3   OH232850   5.142   6.271   8.245 -0.2894 -0.6646 -0.3518
 3764TIP3    H132851   5.198   6.326   8.189  0.3726 -0.3789  0.5807
 3764TIP3    H232852   5.180   6.184   8.239 -1.2148 -1.0189 -1.6618
 3765TIP3   OH232853   5.440   1.404   0.417 -0.1615 -0.4308 -0.0519
 3765TIP3    H132854   5.437   1.354   0.498  1.9877  0.2972  0.5392
 3765TIP3    H232855   5.382   1.479   0.433 -1.8591 -1.6417 -0.2380
 3766TIP3   OH232856   6.627   6.374   7.606 -0.0224 -0.0749 -0.2049
 3766TIP3    H132857   6.619   6.371   7.702  0.4158  0.3319 -0.1527
 3766TIP3    H232858   6.583   6.294   7.576  0.3043 -0.4737  0.3614
 3767TIP3   OH232859   0.223   4.422   8.414 -0.3990 -0.1917 -0.5999
 3767TIP3    H132860   0.183   4.342   8.381 -2.4836  0.9985 -1.1692
 3767TIP3    H232861   0.184   4.436   8.500 -0.0698  0.2101 -0.5097
 3768TIP3   OH232862   5.221   4.775   7.040  0.5091 -0.4870 -0.4494
 3768TIP3    H132863   5.136   4.750   7.004  1.0341 -1.4953 -1.0478
 3768TIP3    H232864   5.239   4.708   7.107  0.3116  0.3956  0.5049
 3769TIP3   OH232865   2.494   4.285   1.548 -0.5970  0.4729  0.1410
 3769TIP3    H132866   2.586   4.272   1.528 -0.7990  0.2392 -0.6963
 3769TIP3    H232867   2.485   4.260   1.640  0.5902  2.6810  0.9308
 3770TIP3   OH232868   2.598   4.078   2.887 -0.6759 -0.4682 -0.1379
 3770TIP3    H132869   2.690   4.093   2.863 -0.8377 -0.7852 -1.0044
 3770TIP3    H232870   2.578   4.148   2.949 -0.2408  0.4464 -0.9990
 3771TIP3   OH232871   1.872   6.390   0.673  0.0150  0.0698 -0.2332
 3771TIP3    H132872   1.780   6.416   0.671  0.1162  0.4176 -0.3509
 3771TIP3    H232873   1.871   6.297   0.651 -0.5827 -0.7134  2.6971
 3772TIP3   OH232874   6.624   0.964   7.496 -0.7270  0.4748 -0.2276
 3772TIP3    H132875   6.676   0.884   7.504 -2.0029 -0.5247 -1.5057
 3772TIP3    H232876   6.682   1.033   7.529  0.9463 -0.7452 -0.4699
 3773TIP3   OH232877   4.477   6.594   0.050  0.1522  0.9335  0.4633
 3773TIP3    H132878   4.547   6.655   0.075 -1.3025  1.6840  3.1136
 3773TIP3    H232879   4.495   6.515   0.102  1.1592 -0.4218 -1.8126
 3774TIP3   OH232880   1.043   2.571   6.997  0.4655  0.4679  0.4085
 3774TIP3    H132881   0.986   2.598   7.068 -0.7026  4.5937 -1.7808
 3774TIP3    H232882   1.002   2.493   6.961 -0.3222 -0.1849  2.6007
 3775TIP3   OH232883   5.509   6.083   2.159  0.1074  1.1233 -0.1985
 3775TIP3    H132884   5.558   6.077   2.077  0.0408 -2.7913 -0.1150
 3775TIP3    H232885   5.551   6.021   2.218 -2.4264  0.6551  1.2663
 3776TIP3   OH232886   6.532   2.294   8.382  0.0840 -0.0963  0.2413
 3776TIP3    H132887   6.590   2.329   8.314 -1.7833  0.7921 -1.0021
 3776TIP3    H232888   6.492   2.216   8.341  1.6811 -1.7896  1.7457
 3777TIP3   OH232889   5.466   6.828   8.496  0.2824  0.0119  0.2449
 3777TIP3    H132890   5.499   6.794   8.579 -0.6558 -0.4215  0.4536
 3777TIP3    H232891   5.392   6.884   8.521  1.4653  1.8406 -0.1296
 3778TIP3   OH232892   1.124   1.207   7.816  0.3471 -0.0566 -0.3327
 3778TIP3    H132893   1.151   1.117   7.831  0.1547 -0.1086 -0.2907
 3778TIP3    H232894   1.113   1.214   7.721  1.4594  0.2417 -0.4462
 3779TIP3   OH232895   4.134   0.243   6.810 -0.1281  0.7384  0.6758
 3779TIP3    H132896   4.047   0.262   6.844 -0.1885  1.1185  0.3110
 3779TIP3    H232897   4.132   0.272   6.719  0.7019  1.7350  0.9589
 3780TIP3   OH232898   2.987   1.562   1.642  0.2678 -0.3188  0.0681
 3780TIP3    H132899   3.027   1.475   1.636  0.1490 -0.4006  0.4162
 3780TIP3    H232900   3.061   1.621   1.652  0.2892 -0.5475  1.5411
 3781TIP3   OH232901   5.783   6.301   1.755  0.2513  0.2304 -0.3269
 3781TIP3    H132902   5.751   6.262   1.674 -0.1117  0.0567 -0.1042
 3781TIP3    H232903   5.742   6.250   1.825  0.2210  0.6475 -0.0298
 3782TIP3   OH232904   5.202   0.300   0.215  0.0714  0.1003 -0.0167
 3782TIP3    H132905   5.203   0.212   0.179 -2.1940  0.1544 -0.3556
 3782TIP3    H232906   5.154   0.292   0.298 -0.2487  1.0089 -0.0990
 3783TIP3   OH232907   6.189   1.207   0.086 -0.3092 -0.1381  0.1080
 3783TIP3    H132908   6.191   1.238  -0.005 -1.2115 -0.0841  0.0986
 3783TIP3    H232909   6.259   1.142   0.090  0.9194  1.1134 -0.1442
 3784TIP3   OH232910   4.430   4.677   6.389  0.0665 -0.0190 -0.8045
 3784TIP3    H132911   4.431   4.601   6.447 -0.6905  0.5184 -0.0663
 3784TIP3    H232912   4.339   4.687   6.362 -0.2021  1.6786  0.5567
 3785TIP3   OH232913   2.585   5.494   7.914 -0.4846  0.3532  0.6138
 3785TIP3    H132914   2.646   5.429   7.878  0.5994  1.3437  0.6364
 3785TIP3    H232915   2.514   5.496   7.850 -0.6785 -1.0333  0.7401
 3786TIP3   OH232916   5.339   3.785   1.684 -0.1483 -0.4408 -0.3952
 3786TIP3    H132917   5.294   3.859   1.724 -0.7309  0.5279 -2.7024
 3786TIP3    H232918   5.272   3.717   1.676  0.0877 -0.8159  0.6209
 3787TIP3   OH232919   0.781   6.109   1.191 -0.3634 -0.2757  0.4448
 3787TIP3    H132920   0.768   6.017   1.211  1.7738 -0.5779  0.6761
 3787TIP3    H232921   0.872   6.115   1.163 -0.2346  1.8774  1.1191
 3788TIP3   OH232922   0.099   6.617   7.476 -0.4891 -0.2099  0.2434
 3788TIP3    H132923   0.039   6.546   7.451  0.6855 -0.5937 -1.7183
 3788TIP3    H232924   0.069   6.692   7.426 -0.4765  0.1305  0.7382
 3789TIP3   OH232925   1.703   6.120   0.026  0.2633 -0.0992 -0.1518
 3789TIP3    H132926   1.773   6.064   0.058  0.6817  1.0874  1.0898
 3789TIP3    H232927   1.632   6.110   0.090  0.5093  1.0827  0.3436
 3790TIP3   OH232928   1.591   1.710   8.603  0.3602  0.1700  0.4768
 3790TIP3    H132929   1.519   1.648   8.609  2.1398 -1.9331  2.4101
 3790TIP3    H232930   1.659   1.663   8.555  0.6800  1.9390 -0.9399
 3791TIP3   OH232931   5.344   1.683   1.176  0.2350  0.1591 -0.3600
 3791TIP3    H132932   5.278   1.752   1.174  1.0479  0.9978  0.5757
 3791TIP3    H232933   5.329   1.637   1.259  0.3851 -0.1008 -0.4732
 3792TIP3   OH232934   1.339   0.507   2.612 -0.4490  0.0497 -0.3564
 3792TIP3    H132935   1.413   0.460   2.651  0.8552  1.8916 -0.5289
 3792TIP3    H232936   1.327   0.466   2.526  0.7985  0.1410 -0.5887
 3793TIP3   OH232937   1.766   0.413   3.175 -0.0312 -0.4403 -0.4745
 3793TIP3    H132938   1.799   0.415   3.265 -0.4376 -0.8590 -0.3140
 3793TIP3    H232939   1.726   0.327   3.166  2.7262 -1.6621 -2.0608
 3794TIP3   OH232940   1.041   2.464   0.036 -0.3071  0.1396 -0.1846
 3794TIP3    H132941   0.959   2.435  -0.004  0.7961 -0.8416 -1.8266
 3794TIP3    H232942   1.034   2.560   0.037 -1.6408  0.0659  0.1252
 3795TIP3   OH232943   1.085   3.916   0.931 -0.0661  0.2292  0.2112
 3795TIP3    H132944   1.008   3.932   0.984  0.0430 -1.7838  1.0689
 3795TIP3    H232945   1.052   3.914   0.841 -1.2405 -1.5774  0.6321
 3796TIP3   OH232946   4.141   1.959   2.185 -0.1625  0.1556  0.0835
 3796TIP3    H132947   4.060   2.007   2.198  0.6396  3.1416 -3.8345
 3796TIP3    H232948   4.207   2.009   2.234  0.2541  1.8936 -2.0604
 3797TIP3   OH232949   0.541   2.888   0.079 -0.2639  0.0494 -0.5486
 3797TIP3    H132950   0.463   2.882   0.025  0.0726  1.1158 -1.1865
 3797TIP3    H232951   0.582   2.971   0.053  0.5168  0.0234  0.5201
 3798TIP3   OH232952   1.231   1.478   1.609  0.2325  0.2562 -0.0686
 3798TIP3    H132953   1.189   1.405   1.655 -0.5630 -0.0409 -1.2164
 3798TIP3    H232954   1.204   1.467   1.518  1.3608  1.1141 -0.5250
 3799TIP3   OH232955   1.338   3.893   7.047 -0.5300  0.3573  0.6272
 3799TIP3    H132956   1.252   3.874   7.010 -0.8354 -0.2413  1.5910
 3799TIP3    H232957   1.390   3.925   6.974 -0.8259 -1.6575 -0.5151
 3800TIP3   OH232958   2.930   3.076   7.361  0.3442  0.9915 -0.2217
 3800TIP3    H132959   2.911   3.087   7.454  0.4847  0.3773 -0.1198
 3800TIP3    H232960   3.015   3.032   7.359 -0.2317 -0.1247 -0.6269
 3801TIP3   OH232961   4.354   6.376   0.462  0.4706  0.0951  0.0046
 3801TIP3    H132962   4.347   6.281   0.451  3.1665 -0.3134  1.0224
 3801TIP3    H232963   4.398   6.406   0.382 -1.6222  0.7938 -0.9774
 3802TIP3   OH232964   5.725   2.387   7.615  0.3537  0.0284  0.3358
 3802TIP3    H132965   5.717   2.294   7.596 -0.0184  0.0242  0.4971
 3802TIP3    H232966   5.745   2.390   7.709 -0.5696  0.1358  0.5414
 3803TIP3   OH232967   6.504   4.160   0.590  0.4324  0.0643 -0.6440
 3803TIP3    H132968   6.508   4.164   0.686 -1.8720  1.8276 -0.5342
 3803TIP3    H232969   6.446   4.087   0.572  0.3837  0.1120 -0.6798
 3804TIP3   OH232970   2.797   1.980   2.648  0.0138  0.1742 -0.2030
 3804TIP3    H132971   2.880   1.963   2.693  0.3489 -0.4107 -1.0066
 3804TIP3    H232972   2.739   1.910   2.679  0.0889  0.0793 -0.2722
 3805TIP3   OH232973   6.380   2.126   0.571  0.2494 -0.0786 -0.1562
 3805TIP3    H132974   6.290   2.158   0.564  0.8794  1.5387 -1.5927
 3805TIP3    H232975   6.399   2.088   0.485  0.3001 -2.3536  0.7868
 3806TIP3   OH232976   4.057   3.035   1.398  0.6499 -0.2748 -0.4003
 3806TIP3    H132977   4.113   3.106   1.366  0.7303 -0.0807  0.1614
 3806TIP3    H232978   4.087   3.020   1.488 -0.0117 -0.3661 -0.1923
 3807TIP3   OH232979   6.635   3.620   2.034  0.0869 -0.1679 -0.5375
 3807TIP3    H132980   6.659   3.629   1.942 -1.1883  2.0727 -0.7057
 3807TIP3    H232981   6.578   3.543   2.036 -0.8801  0.4690 -1.8697
 3808TIP3   OH232982   0.898   6.760   1.583  0.7980 -0.3427 -0.3501
 3808TIP3    H132983   0.859   6.826   1.640  0.3318  0.2198 -1.2834
 3808TIP3    H232984   0.824   6.705   1.556  0.8281  0.0335 -1.2253
 3809TIP3   OH232985   3.992   1.131   6.975 -0.8933  0.2167 -0.3326
 3809TIP3    H132986   3.969   1.224   6.982 -1.1809  0.2606 -1.6060
 3809TIP3    H232987   4.077   1.123   7.018  0.0172  1.4364 -1.8280
 3810TIP3   OH232988   2.861   5.162   1.957 -0.1670  0.6536  0.2782
 3810TIP3    H132989   2.852   5.090   1.894  1.8201 -0.5561  1.2674
 3810TIP3    H232990   2.954   5.185   1.953 -0.6752  2.8939  0.3262
 3811TIP3   OH232991   5.482   5.550   8.247 -0.4684  0.2736 -0.0185
 3811TIP3    H132992   5.493   5.467   8.294 -1.5762 -0.3520 -0.8126
 3811TIP3    H232993   5.391   5.575   8.264 -0.0995  1.4301  0.3511
 3812TIP3   OH232994   0.491   4.837   1.480 -0.0639  0.4113 -0.0760
 3812TIP3    H132995   0.518   4.755   1.437 -0.5091  0.5010 -0.5398
 3812TIP3    H232996   0.570   4.869   1.524 -0.2119 -1.0123  1.3331
 3813TIP3   OH232997   5.142   2.090   8.331  0.7896  0.5578 -0.8049
 3813TIP3    H132998   5.188   2.080   8.248  1.2968 -0.0778 -0.4579
 3813TIP3    H232999   5.158   2.008   8.378  0.1111  0.7147 -0.2711
 3814TIP3   OH233000   4.766   4.833   8.152  0.1875 -0.2175  0.0529
 3814TIP3    H133001   4.753   4.892   8.226 -0.8793 -1.4244  0.8561
 3814TIP3    H233002   4.728   4.750   8.179  0.9275 -1.0722 -1.3646
 3815TIP3   OH233003   6.650   6.215   1.809 -0.3937  0.0567  0.0242
 3815TIP3    H133004   6.638   6.289   1.749  0.1558 -0.1189 -0.3052
 3815TIP3    H233005   6.728   6.237   1.859  0.3479 -0.7444 -0.7483
 3816TIP3   OH233006   2.812   3.888   1.695  0.6927 -0.2381 -0.3781
 3816TIP3    H133007   2.720   3.913   1.689  0.1900 -1.4007  1.6872
 3816TIP3    H233008   2.814   3.800   1.656  0.2616 -1.5302  2.3270
 3817TIP3   OH233009   4.825   3.212   8.624 -0.5357 -1.1343  0.0819
 3817TIP3    H133010   4.813   3.230   8.531  0.2521  0.5174  0.2483
 3817TIP3    H233011   4.900   3.267   8.648 -2.3930  0.6192  2.2663
 3818TIP3   OH233012   4.147   0.186   1.871  0.3270  0.2894 -0.4072
 3818TIP3    H133013   4.191   0.263   1.835 -2.1809  0.8890 -2.4992
 3818TIP3    H233014   4.067   0.221   1.911  0.3008 -1.0155  0.7256
 3819TIP3   OH233015   1.919   1.320   1.513  0.3493 -0.1293 -0.5989
 3819TIP3    H133016   1.912   1.385   1.443  0.6641  0.3991 -0.1496
 3819TIP3    H233017   2.000   1.343   1.558  0.1822 -0.5084 -0.1001
 3820TIP3   OH233018   0.449   3.859   8.655 -0.3080 -0.0279 -0.6129
 3820TIP3    H133019   0.466   3.952   8.667 -1.3275  0.0243  0.6015
 3820TIP3    H233020   0.437   3.849   8.561 -0.2673  1.0738 -0.7489
 3821TIP3   OH233021   1.192   4.802   0.216  0.0937 -0.2886 -0.5275
 3821TIP3    H133022   1.215   4.753   0.295 -0.7222  0.7767  0.4173
 3821TIP3    H233023   1.112   4.849   0.240 -1.5778 -1.7859 -2.8053
 3822TIP3   OH233024   5.910   5.907   2.371  0.0110 -0.3397  0.3436
 3822TIP3    H133025   5.987   5.852   2.354 -0.6523 -1.6302  1.3425
 3822TIP3    H233026   5.915   5.925   2.465 -1.6618 -1.6654  0.7239
 3823TIP3   OH233027   4.119   5.175   1.208  0.1039 -0.2383 -0.0195
 3823TIP3    H133028   4.163   5.133   1.135 -0.5615  0.2849 -0.7425
 3823TIP3    H233029   4.171   5.152   1.285  0.6284 -1.0659 -0.6110
 3824TIP3   OH233030   6.744   5.464   1.811  0.5293  0.1631  0.6246
 3824TIP3    H133031   6.837   5.470   1.831  0.2070 -1.1070  2.7508
 3824TIP3    H233032   6.705   5.538   1.857  0.4226  0.4717  0.0488
 3825TIP3   OH233033   4.550   5.468   6.928  0.5025 -0.1361  0.2664
 3825TIP3    H133034   4.637   5.503   6.910  0.2870  0.9956  1.3001
 3825TIP3    H233035   4.561   5.418   7.009 -0.0069  0.8839  0.9817
 3826TIP3   OH233036   3.543   0.033   0.193  0.5468  0.8295 -0.6912
 3826TIP3    H133037   3.552  -0.010   0.278 -0.0113 -0.9710 -1.5026
 3826TIP3    H233038   3.561   0.125   0.211  1.9106  0.2709  1.0991
 3827TIP3   OH233039   2.729   5.649   7.655  0.2210  0.4857 -0.6224
 3827TIP3    H133040   2.646   5.696   7.642 -1.6877 -1.9936  1.4882
 3827TIP3    H233041   2.748   5.660   7.748  1.1312 -0.6934 -0.6500
 3828TIP3   OH233042   2.721   4.049   2.072  0.8004 -0.3845  0.4026
 3828TIP3    H133043   2.733   4.088   1.986  0.0286  0.9781  0.8747
 3828TIP3    H233044   2.716   4.124   2.132 -0.9664 -1.1666  1.3270
 3829TIP3   OH233045   5.081   6.151   2.897 -0.2337 -0.6381  0.4212
 3829TIP3    H133046   5.035   6.078   2.857  0.3893 -2.3134  2.5938
 3829TIP3    H233047   5.168   6.150   2.858 -1.1167  0.9711 -1.8257
 3830TIP3   OH233048   1.361   1.612   8.133 -0.0936  0.2977 -0.2718
 3830TIP3    H133049   1.310   1.689   8.158 -2.3472 -0.4070 -2.3015
 3830TIP3    H233050   1.328   1.542   8.190  1.4579  0.6230  1.0904
 3831TIP3   OH233051   4.643   1.787   8.484  0.0672 -0.0177  0.4168
 3831TIP3    H133052   4.737   1.796   8.496 -0.1402  0.5880  1.7446
 3831TIP3    H233053   4.606   1.869   8.515 -0.8951 -0.1231 -0.3645
 3832TIP3   OH233054   6.491   2.414   1.962  0.3768 -0.1379 -0.1049
 3832TIP3    H133055   6.484   2.356   1.886 -0.4176  0.2071 -0.3055
 3832TIP3    H233056   6.439   2.491   1.939 -0.6399 -0.4074  1.1375
 3833TIP3   OH233057   6.213   0.497   8.043 -0.2783  0.1366  0.0830
 3833TIP3    H133058   6.246   0.489   7.953  0.1093 -0.1372  0.2481
 3833TIP3    H233059   6.153   0.424   8.053  0.4606 -0.4417  0.3791
 3834TIP3   OH233060   5.436   6.666   1.968 -0.2174 -0.2678 -0.4912
 3834TIP3    H133061   5.359   6.653   2.024 -1.5599  0.7012 -2.0357
 3834TIP3    H233062   5.428   6.599   1.900  0.6537 -0.5409 -0.3467
 3835TIP3   OH233063   6.571   4.633   1.221  0.2589  0.3858 -0.1883
 3835TIP3    H133064   6.525   4.569   1.166 -0.0492  1.4264 -1.2061
 3835TIP3    H233065   6.502   4.672   1.275  0.1631  0.9536 -0.7057
 3836TIP3   OH233066   2.979   5.361   1.474 -0.4641  0.1887  0.1159
 3836TIP3    H133067   2.950   5.453   1.474  1.6791  0.9270  0.3571
 3836TIP3    H233068   3.014   5.348   1.386 -0.2100 -0.1981  0.2741
 3837TIP3   OH233069   6.444   4.558   2.004 -0.1073  0.3725  0.1339
 3837TIP3    H133070   6.370   4.619   2.006  0.2144  0.9844 -2.6516
 3837TIP3    H233071   6.407   4.476   1.970  0.3728  0.5446 -0.8397
 3838TIP3   OH233072   1.316   5.937   0.474  0.4658  0.6878 -0.3702
 3838TIP3    H133073   1.238   5.935   0.419 -0.6709  2.1892  1.0656
 3838TIP3    H233074   1.349   5.847   0.474 -1.5342 -0.0832 -0.6562
 3839TIP3   OH233075   1.605   0.005   0.288 -0.3783  0.1092 -0.4499
 3839TIP3    H133076   1.587   0.030   0.378 -1.0270 -2.6946  0.2824
 3839TIP3    H233077   1.700   0.016   0.279 -0.3415  0.6832  0.4453
 3840TIP3   OH233078   6.502   4.492   2.566 -0.5230 -0.2434 -0.4594
 3840TIP3    H133079   6.480   4.403   2.590 -2.5416  0.3489  0.0850
 3840TIP3    H233080   6.595   4.489   2.542 -1.1115 -2.9595 -2.8815
 3841TIP3   OH233081   2.452   4.200   1.810 -0.0269  0.2863  0.2631
 3841TIP3    H133082   2.506   4.179   1.886 -1.1046 -2.5918  0.3739
 3841TIP3    H233083   2.367   4.223   1.846 -0.7272 -1.7099 -0.0177
 3842TIP3   OH233084   1.115   1.110   2.334 -0.2902 -0.0512  0.0704
 3842TIP3    H133085   1.164   1.192   2.330  0.2128 -0.3059  0.7359
 3842TIP3    H233086   1.174   1.045   2.297 -0.8989 -0.0295 -0.9661
 3843TIP3   OH233087   4.507   4.932   0.798 -0.0097 -0.2597 -0.2907
 3843TIP3    H133088   4.569   4.881   0.851  0.6060  0.0280 -0.7155
 3843TIP3    H233089   4.493   5.012   0.848  0.0990 -0.2511 -0.2733
 3844TIP3   OH233090   2.478   3.294   8.584 -0.1191  0.4778  0.1058
 3844TIP3    H133091   2.392   3.309   8.624 -0.0175 -1.7516  1.3212
 3844TIP3    H233092   2.457   3.263   8.496 -0.4663  1.6922 -0.2626
 3845TIP3   OH233093   3.288   3.856   1.349  0.2925 -0.2132  0.1644
 3845TIP3    H133094   3.309   3.930   1.292 -0.3538 -0.6612 -0.6942
 3845TIP3    H233095   3.370   3.807   1.355  0.9604  0.9971  1.4412
 3846TIP3   OH233096   3.378   0.854   0.141  0.3656  0.0291  0.4505
 3846TIP3    H133097   3.352   0.848   0.233  1.0778  1.1840  0.7500
 3846TIP3    H233098   3.403   0.946   0.129 -2.3596  0.5988 -1.6504
 3847TIP3   OH233099   6.592   2.749   1.453  0.3851  0.9219  0.0551
 3847TIP3    H133100   6.505   2.789   1.449  0.1210  0.3573  0.2049
 3847TIP3    H233101   6.632   2.788   1.531  0.2932  1.2246 -0.0450
 3848TIP3   OH233102   1.158   3.262   8.617 -0.0114 -0.4265  0.0187
 3848TIP3    H133103   1.214   3.199   8.571 -0.0739 -0.3486 -0.1657
 3848TIP3    H233104   1.160   3.234   8.708  2.4543  1.0511  0.5307
 3849TIP3   OH233105   3.598   2.885   2.512 -0.4061 -0.4710 -0.2581
 3849TIP3    H133106   3.597   2.935   2.430  0.4792  0.0646  0.0440
 3849TIP3    H233107   3.556   2.942   2.576  3.0063  1.1903  0.7634
 3850TIP3   OH233108   2.825   0.433   0.760 -0.2523  0.1827  0.3923
 3850TIP3    H133109   2.738   0.402   0.734 -0.1565  1.2987 -1.3915
 3850TIP3    H233110   2.877   0.428   0.680  1.1510  0.1823  1.2844
 3851TIP3   OH233111   2.789   1.020   7.083 -0.3202 -0.3924 -0.1632
 3851TIP3    H133112   2.836   1.034   7.000 -0.3953  1.9410  0.1405
 3851TIP3    H233113   2.783   1.106   7.122 -0.2446 -1.4398  2.3500
 3852TIP3   OH233114   6.460   5.895   1.159 -0.2685 -0.0318  0.1464
 3852TIP3    H133115   6.463   5.852   1.244  1.1275  0.5959  0.4334
 3852TIP3    H233116   6.527   5.963   1.163 -2.9435  2.8838  0.0844
 3853TIP3   OH233117   0.446   5.265   7.954 -0.2260  0.1320 -0.8002
 3853TIP3    H133118   0.417   5.230   7.870  1.3173 -0.1880 -1.2340
 3853TIP3    H233119   0.509   5.334   7.931  0.9919 -0.6450  0.0672
 3854TIP3   OH233120   5.645   1.176   7.253 -0.5710  0.0235  0.9380
 3854TIP3    H133121   5.586   1.239   7.296 -2.0360 -0.5852 -0.0835
 3854TIP3    H233122   5.635   1.195   7.160  0.4053 -0.5108  0.7198
 3855TIP3   OH233123   1.981   4.774   0.655  0.1676  0.1369  0.1754
 3855TIP3    H133124   2.017   4.816   0.733 -0.6123  0.6161  0.2889
 3855TIP3    H233125   2.050   4.781   0.589 -0.2504  2.4848 -0.1137
 3856TIP3   OH233126   6.394   3.711   1.791  0.4017 -0.0793 -0.3195
 3856TIP3    H133127   6.473   3.704   1.738 -0.5193 -0.5508 -1.6824
 3856TIP3    H233128   6.354   3.624   1.786 -0.7734  0.4464 -0.6140
 3857TIP3   OH233129   5.426   1.314   0.664 -0.4354 -0.4059  0.3901
 3857TIP3    H133130   5.432   1.267   0.747 -1.7161 -0.0569  0.7087
 3857TIP3    H233131   5.401   1.403   0.688  1.1111  0.2509 -0.2615
 3858TIP3   OH233132   2.798   0.768   7.200 -0.0049 -0.1072 -0.1081
 3858TIP3    H133133   2.757   0.708   7.137 -1.2407 -0.1616  0.7175
 3858TIP3    H233134   2.803   0.851   7.153 -0.8172 -0.1731 -0.3365
 3859TIP3   OH233135   5.420   1.781   8.201  0.3181  0.6086  0.2485
 3859TIP3    H133136   5.495   1.840   8.192  1.0916 -0.2826  0.6986
 3859TIP3    H233137   5.393   1.791   8.293  0.5997  0.1063  0.3909
 3860TIP3   OH233138   6.403   2.989   7.015 -0.6981 -0.2258 -0.4660
 3860TIP3    H133139   6.421   3.072   7.059  0.2381  0.4471 -2.0366
 3860TIP3    H233140   6.308   2.978   7.022 -0.8427  1.0263 -0.3385
 3861TIP3   OH233141   5.783   2.267   8.157  0.4550  0.5212 -0.5076
 3861TIP3    H133142   5.854   2.205   8.173  1.4802  2.0769  1.3620
 3861TIP3    H233143   5.813   2.348   8.198 -2.4098  1.2329  0.3655
 3862TIP3   OH233144   0.754   3.083   8.531  0.0530  0.1862 -0.5502
 3862TIP3    H133145   0.700   3.158   8.506 -0.4750 -0.7177 -2.3302
 3862TIP3    H233146   0.838   3.121   8.556  0.1573  1.3429 -2.4685
 3863TIP3   OH233147   2.278   6.793   8.036 -0.0722 -0.1809 -0.2711
 3863TIP3    H133148   2.217   6.790   8.110 -0.8398 -0.2873 -0.8888
 3863TIP3    H233149   2.267   6.709   7.992  1.1941 -0.5644  0.1157
 3864TIP3   OH233150   3.354   2.298   2.505  0.6927  0.3008 -0.4401
 3864TIP3    H133151   3.341   2.204   2.498  0.6578  0.2311  0.5097
 3864TIP3    H233152   3.436   2.314   2.458  2.3334 -0.6474  1.9167
 3865TIP3   OH233153   3.612   5.019   7.463 -0.6767  0.8701  0.1731
 3865TIP3    H133154   3.573   4.940   7.425  1.9273 -0.3690 -0.1472
 3865TIP3    H233155   3.697   4.990   7.496  1.1233  3.8094 -1.4262
 3866TIP3   OH233156   3.002   0.375   7.982 -0.5115 -0.2746  0.1692
 3866TIP3    H133157   3.086   0.329   7.978  0.1310  0.8451  0.5644
 3866TIP3    H233158   2.998   0.410   8.070 -1.1704  0.1124 -0.0087
 3867TIP3   OH233159   0.670   2.323   0.524  0.7847 -0.2117  0.5922
 3867TIP3    H133160   0.720   2.261   0.471  0.6083 -0.9014  1.2176
 3867TIP3    H233161   0.582   2.285   0.528  1.1061 -0.8863  2.4655
 3868TIP3   OH233162   6.543   6.558   8.236  0.2420 -0.0934  0.4513
 3868TIP3    H133163   6.491   6.525   8.309 -1.6850 -0.4279 -1.0040
 3868TIP3    H233164   6.521   6.651   8.230  0.3822 -0.0694  0.2906
 3869TIP3   OH233165   4.173   3.993   8.490  0.3914 -0.5148  0.6327
 3869TIP3    H133166   4.088   3.949   8.487  0.0035  0.2457  0.1859
 3869TIP3    H233167   4.170   4.044   8.571  0.0583  0.1959  0.1883
 3870TIP3   OH233168   5.866   3.649   0.796  0.3856 -0.1362  0.0942
 3870TIP3    H133169   5.828   3.686   0.716  2.5595 -1.3401 -1.6078
 3870TIP3    H233170   5.934   3.589   0.765  0.1186 -2.0391  2.8271
 3871TIP3   OH233171   1.644   1.519   0.773 -0.6193 -0.3384 -0.3721
 3871TIP3    H133172   1.666   1.513   0.680 -2.3783 -0.5582 -0.8005
 3871TIP3    H233173   1.602   1.604   0.782 -2.1333 -1.0825 -0.1775
 3872TIP3   OH233174   5.295   5.058   2.283 -0.5173  0.3732  0.5726
 3872TIP3    H133175   5.207   5.058   2.322 -0.1679  1.6672  1.4287
 3872TIP3    H233176   5.340   5.132   2.325  1.3106 -0.8409  0.9067
 3873TIP3   OH233177   3.341   3.844   1.659 -0.7672 -0.0519 -0.1398
 3873TIP3    H133178   3.362   3.752   1.677  1.1165  0.3193 -0.2805
 3873TIP3    H233179   3.309   3.844   1.569 -2.0764 -0.7272  0.2951
 3874TIP3   OH233180   1.399   3.394   6.563 -0.2427 -0.3955 -0.1494
 3874TIP3    H133181   1.360   3.390   6.650  2.3565 -1.5994  1.0630
 3874TIP3    H233182   1.382   3.308   6.525 -0.0690 -0.3944 -0.2310
 3875TIP3   OH233183   0.646   4.335   7.309  0.1366  0.2869  0.2241
 3875TIP3    H133184   0.689   4.408   7.353  0.0035  0.9688 -0.7579
 3875TIP3    H233185   0.627   4.272   7.379  2.0348  0.3061  0.8009
 3876TIP3   OH233186   2.702   6.061   0.335 -0.2457 -0.7545 -0.0896
 3876TIP3    H133187   2.680   5.979   0.379  0.8832 -0.4329  1.1562
 3876TIP3    H233188   2.797   6.057   0.323 -0.1351  0.4834  0.2361
 3877TIP3   OH233189   6.579   5.026   1.612  0.2028  0.4371  0.1987
 3877TIP3    H133190   6.541   5.026   1.700  0.5985  1.0769  0.3711
 3877TIP3    H233191   6.514   4.980   1.559  1.0167 -2.1196  1.2576
 3878TIP3   OH233192   2.268   4.799   7.094  0.7573  0.5096 -0.4350
 3878TIP3    H133193   2.285   4.710   7.061  2.4800  0.0547  1.4580
 3878TIP3    H233194   2.277   4.855   7.017 -0.9889 -0.9746 -1.8071
 3879TIP3   OH233195   5.070   5.258   7.703 -0.3784 -0.3215  0.5737
 3879TIP3    H133196   5.062   5.192   7.635  2.1399  0.5905 -0.7028
 3879TIP3    H233197   5.040   5.213   7.783 -1.2286 -2.1229 -0.6750
 3880TIP3   OH233198   2.029   0.594   3.242 -0.0906  0.4231  0.1852
 3880TIP3    H133199   1.971   0.648   3.187 -0.5086 -0.5517 -0.3666
 3880TIP3    H233200   2.082   0.545   3.179 -1.3727 -1.5727  0.5811
 3881TIP3   OH233201   6.416   2.725   8.573 -0.4441  0.6084 -0.1937
 3881TIP3    H133202   6.353   2.796   8.564 -0.5593  0.4214 -0.9208
 3881TIP3    H233203   6.367   2.645   8.551  0.4034  0.6186 -2.4280
 3882TIP3   OH233204   5.539   1.199   0.090 -0.5369 -0.3720  0.0906
 3882TIP3    H133205   5.587   1.201   0.174 -0.7331 -1.3544  0.2378
 3882TIP3    H233206   5.607   1.178   0.025 -0.4909 -0.2266  0.0929
 3883TIP3   OH233207   1.259   6.313   0.422 -0.1654  0.1194 -0.3229
 3883TIP3    H133208   1.253   6.266   0.339  2.2431 -0.7318 -0.1136
 3883TIP3    H233209   1.176   6.297   0.466 -0.5010 -1.5590 -1.4952
 3884TIP3   OH233210   1.873   4.390   8.253 -0.5687 -0.0312 -0.5857
 3884TIP3    H133211   1.784   4.374   8.285 -0.4411 -1.0101 -0.6653
 3884TIP3    H233212   1.870   4.361   8.161  0.1025 -1.1766 -0.2738
 3885TIP3   OH233213   6.433   1.256   2.355 -0.5858 -0.2322 -0.7839
 3885TIP3    H133214   6.476   1.313   2.291 -0.4379  1.3009  0.6159
 3885TIP3    H233215   6.362   1.310   2.390  1.0090  0.0517  2.3189
 3886TIP3   OH233216   2.320   1.731   0.975 -0.0609  0.0545 -0.1541
 3886TIP3    H133217   2.230   1.703   0.959 -1.2937  1.9414  2.6880
 3886TIP3    H233218   2.362   1.657   1.019 -0.9714 -0.0150  0.6140
 3887TIP3   OH233219   4.259   6.053   0.839 -0.3054  0.1742  0.1058
 3887TIP3    H133220   4.245   6.111   0.915 -0.7309  1.2220 -0.7458
 3887TIP3    H233221   4.271   5.966   0.878  2.1188  1.0542  1.5438
 3888TIP3   OH233222   6.656   4.637   8.096  0.0497  0.1017 -0.4599
 3888TIP3    H133223   6.704   4.706   8.050  1.2051 -0.8369 -0.7193
 3888TIP3    H233224   6.716   4.562   8.096 -0.7226 -0.5547  0.8139
 3889TIP3   OH233225   6.846   5.464   7.690 -0.0491 -0.2593  0.1594
 3889TIP3    H133226   6.929   5.484   7.734  1.3403 -0.5851 -2.1050
 3889TIP3    H233227   6.791   5.541   7.705  1.2927  0.7006  0.3604
 3890TIP3   OH233228   0.151   5.195   8.257  0.3565 -0.5372  0.4756
 3890TIP3    H133229   0.138   5.241   8.340  1.0995 -1.5341  1.1560
 3890TIP3    H233230   0.192   5.260   8.200  0.1997  0.0341  0.9971
 3891TIP3   OH233231   5.594   1.492   1.166 -0.2054  0.1885  0.2431
 3891TIP3    H133232   5.506   1.530   1.158 -0.1956  0.7546  2.1331
 3891TIP3    H233233   5.623   1.519   1.253  0.8311 -2.0937  0.6802
 3892TIP3   OH233234   0.017   6.066   1.656 -0.1919  0.1513 -0.1003
 3892TIP3    H133235   0.048   6.152   1.684  1.5801 -1.1130  2.2820
 3892TIP3    H233236  -0.038   6.036   1.729  0.7606 -1.4380  0.0058
 3893TIP3   OH233237   4.903   1.324   2.969 -0.4640  0.9092 -0.2044
 3893TIP3    H133238   4.897   1.234   3.000  0.2035  0.4143 -1.4134
 3893TIP3    H233239   4.813   1.357   2.971 -0.7718  0.0869 -0.1136
 3894TIP3   OH233240   2.297   4.163   1.416  0.4039  0.7351  0.5235
 3894TIP3    H133241   2.376   4.188   1.464  0.1580  1.5383  0.5255
 3894TIP3    H233242   2.329   4.111   1.342  0.7188 -1.4726  2.1177
 3895TIP3   OH233243   6.170   1.833   8.406 -0.5127 -0.2308 -0.3732
 3895TIP3    H133244   6.078   1.819   8.384 -0.8322 -0.8353  1.2533
 3895TIP3    H233245   6.190   1.769   8.474  0.4736  1.3317  0.9088
 3896TIP3   OH233246   4.181   3.053   7.706  0.4146  0.5226  0.2056
 3896TIP3    H133247   4.273   3.059   7.683  0.4040  1.4715  0.3734
 3896TIP3    H233248   4.134   3.087   7.630  0.0747 -1.7208 -0.6704
 3897TIP3   OH233249   0.528   6.381   8.330  0.0318 -0.0351  0.1041
 3897TIP3    H133250   0.471   6.419   8.263  0.7117 -1.5999 -1.4299
 3897TIP3    H233251   0.583   6.455   8.359  0.0440  0.5783 -1.4077
 3898TIP3   OH233252   3.076   5.983   1.080  0.1841 -0.4500 -0.5256
 3898TIP3    H133253   2.983   5.963   1.078  0.0072 -0.1119  1.7674
 3898TIP3    H233254   3.081   6.078   1.081  0.5385 -0.4675 -0.3893
 3899TIP3   OH233255   2.976   4.400   1.308  0.2421  0.2283  0.0970
 3899TIP3    H133256   3.050   4.436   1.259  0.4143 -0.7173 -0.3698
 3899TIP3    H233257   2.986   4.305   1.300 -0.4122  0.0750  0.9601
 3900TIP3   OH233258   2.877   1.821   1.774 -0.3785  0.3948  0.0169
 3900TIP3    H133259   2.804   1.829   1.713 -0.3251  0.8883  0.0170
 3900TIP3    H233260   2.882   1.727   1.792  0.7567 -0.0093 -2.1344
 3901TIP3   OH233261   1.904   3.926   1.248  0.3188  0.3334  0.0974
 3901TIP3    H133262   1.949   3.929   1.164  1.4904  1.3299  0.7306
 3901TIP3    H233263   1.972   3.903   1.311 -0.0443  1.7350  1.0620
 3902TIP3   OH233264   0.286   5.643   7.166 -0.4103 -0.1837  0.0653
 3902TIP3    H133265   0.346   5.698   7.217  1.8610 -2.6441  0.2972
 3902TIP3    H233266   0.310   5.660   7.075 -0.1832 -0.2558  0.1091
 3903TIP3   OH233267   5.647   2.485   0.121 -0.0563  0.0476  0.2185
 3903TIP3    H133268   5.617   2.480   0.030  0.7535 -0.2668 -0.0422
 3903TIP3    H233269   5.569   2.508   0.171 -0.8607 -1.3486 -0.3463
 3904TIP3   OH233270   0.514   6.861   0.722 -0.0766  0.7579  0.2341
 3904TIP3    H133271   0.561   6.942   0.705 -0.3134  0.5367 -1.6913
 3904TIP3    H233272   0.421   6.885   0.713 -0.2049  0.5096  0.8245
 3905TIP3   OH233273   1.885   5.455   0.185  0.0379  0.0488 -0.0891
 3905TIP3    H133274   1.816   5.502   0.138 -1.1442 -2.4651 -1.0569
 3905TIP3    H233275   1.842   5.426   0.266  0.6623  0.3623  0.3648
 3906TIP3   OH233276   5.710   6.356   1.099 -1.0094  0.3184 -0.0235
 3906TIP3    H133277   5.759   6.288   1.146 -1.3130 -0.9878 -1.5407
 3906TIP3    H233278   5.707   6.429   1.161 -0.0701 -0.7769  1.3934
 3907TIP3   OH233279   0.140   4.828   1.680 -0.2701 -0.5839 -0.7368
 3907TIP3    H133280   0.127   4.734   1.696  0.5544 -0.4611  0.9335
 3907TIP3    H233281   0.076   4.870   1.737  1.8469 -0.1318  1.5079
 3908TIP3   OH233282   5.475   0.850   7.940  0.4459 -0.1409  0.1885
 3908TIP3    H133283   5.432   0.836   7.855  1.1926 -0.2840 -0.1788
 3908TIP3    H233284   5.403   0.869   8.000 -0.1134 -0.1925 -0.4424
 3909TIP3   OH233285   5.974   6.701   1.028  0.3688 -0.0885  0.3816
 3909TIP3    H133286   6.002   6.658   1.109 -0.1587 -1.6278 -0.2095
 3909TIP3    H233287   6.054   6.707   0.975  0.6541  0.6391  0.8930
 3910TIP3   OH233288   5.128   6.140   7.885 -0.8362 -0.4552  0.5154
 3910TIP3    H133289   5.159   6.050   7.893  0.7586  0.0497  0.3869
 3910TIP3    H233290   5.133   6.158   7.791 -2.4363 -0.6363  0.3691
 3911TIP3   OH233291   2.454   1.411   0.495  0.0654  0.1739 -0.0801
 3911TIP3    H133292   2.511   1.334   0.500  0.3314  0.3494 -0.4138
 3911TIP3    H233293   2.431   1.418   0.403  0.8927  1.1103 -0.2331
 3912TIP3   OH233294   5.963   6.603   1.419 -0.2276 -0.2619  0.1477
 3912TIP3    H133295   6.005   6.560   1.493  2.1316 -1.5274 -1.7459
 3912TIP3    H233296   5.899   6.539   1.387 -0.1502 -0.3588  0.1860
 3913TIP3   OH233297   6.522   3.028   8.421  0.3196  0.1018  0.1423
 3913TIP3    H133298   6.460   3.033   8.348  0.7032  1.0959 -0.1313
 3913TIP3    H233299   6.485   3.085   8.488  0.7137  0.3655  0.1403
 3914TIP3   OH233300   2.457   1.002   0.785 -0.2874  0.3901  0.3823
 3914TIP3    H133301   2.427   1.092   0.793  1.0257  0.7420  1.8875
 3914TIP3    H233302   2.477   0.992   0.692 -0.0073  1.8115  0.2637
 3915TIP3   OH233303   4.674   0.823   0.003  0.6176 -0.1297  0.1018
 3915TIP3    H133304   4.728   0.859  -0.068 -2.5470  0.8427 -2.0272
 3915TIP3    H233305   4.665   0.895   0.065  0.5342  0.2028 -0.2910
 3916TIP3   OH233306   4.549   6.085   6.948  0.4956 -0.0188 -0.0641
 3916TIP3    H133307   4.641   6.110   6.958  0.8145 -1.3097  0.3883
 3916TIP3    H233308   4.552   5.994   6.918 -0.6362 -0.0398 -0.1465
 3917TIP3   OH233309   0.999   2.781   1.346 -0.7067 -0.5632 -0.0488
 3917TIP3    H133310   1.047   2.726   1.407 -0.9575  0.5918  1.2257
 3917TIP3    H233311   1.064   2.806   1.280  0.3662  0.6393  1.4180
 3918TIP3   OH233312   3.726   1.426   2.476 -0.1917 -0.4556  0.2270
 3918TIP3    H133313   3.674   1.453   2.400 -0.4419  1.3327  0.9717
 3918TIP3    H233314   3.667   1.373   2.529 -0.7982  0.3105  0.3346
 3919TIP3   OH233315   4.241   5.021   1.018  0.5367 -0.2921  0.3137
 3919TIP3    H133316   4.181   4.950   0.995 -0.7232  1.1706 -1.1696
 3919TIP3    H233317   4.278   5.048   0.934  0.9219  0.8652  0.8432
 3920TIP3   OH233318   4.679   4.137   7.200 -0.4035  0.2874  0.1936
 3920TIP3    H133319   4.734   4.174   7.131 -0.2393  1.3509  0.8783
 3920TIP3    H233320   4.605   4.197   7.207 -1.0467 -0.4809  0.1103
 3921TIP3   OH233321   3.005   4.941   7.898 -0.7410  0.3707  0.6321
 3921TIP3    H133322   2.981   5.017   7.952 -0.3243  0.6558  0.4208
 3921TIP3    H233323   2.955   4.952   7.818  1.8096  2.3123 -0.8787
 3922TIP3   OH233324   1.084   1.208   7.558  0.0666 -0.2172 -0.9046
 3922TIP3    H133325   0.992   1.217   7.533  0.2653  0.9799 -1.2941
 3922TIP3    H233326   1.123   1.154   7.489  0.1041  1.1027 -1.9561
 3923TIP3   OH233327   6.695   1.243   7.568  0.3347 -0.4920 -0.1798
 3923TIP3    H133328   6.790   1.236   7.578  0.3623 -1.3566 -0.9190
 3923TIP3    H233329   6.661   1.232   7.657  1.0212  3.0113  0.6535
 3924TIP3   OH233330   5.194   4.848   8.132  0.6045  0.1614 -0.2372
 3924TIP3    H133331   5.186   4.901   8.212  0.2320 -2.2885  1.4907
 3924TIP3    H233332   5.154   4.764   8.156 -0.2531 -0.4184 -3.3135
 3925TIP3   OH233333   4.816   6.468   7.870 -0.0615  0.0369  0.1438
 3925TIP3    H133334   4.866   6.533   7.920 -0.4615 -1.2499  2.3132
 3925TIP3    H233335   4.874   6.391   7.867 -0.9934 -0.7080  0.7469
 3926TIP3   OH233336   3.953   1.330   8.498  0.5144  0.3949 -0.1818
 3926TIP3    H133337   3.902   1.365   8.426 -1.8326  0.4788  1.4050
 3926TIP3    H233338   3.978   1.242   8.470 -0.0842  0.5463 -1.2121
 3927TIP3   OH233339   1.394   0.367   0.766  0.2928  0.2986  0.2089
 3927TIP3    H133340   1.431   0.316   0.838 -0.0104 -0.3132 -0.0592
 3927TIP3    H233341   1.470   0.395   0.715  0.4375 -0.5609 -0.0808
 3928TIP3   OH233342   2.638   1.663   2.077  0.4377 -0.0940 -0.0509
 3928TIP3    H133343   2.663   1.613   2.000 -0.9608 -0.7997 -0.0834
 3928TIP3    H233344   2.676   1.615   2.151 -1.0796 -1.4035 -0.0611
 3929TIP3   OH233345   0.328   0.204   0.819 -0.3897 -0.1422 -0.3249
 3929TIP3    H133346   0.255   0.178   0.762  1.0666 -1.8325 -1.5116
 3929TIP3    H233347   0.314   0.153   0.899 -0.4055 -0.6434 -0.6376
 3930TIP3   OH233348   5.658   0.885   1.817 -0.0861 -0.1402  0.3013
 3930TIP3    H133349   5.659   0.937   1.898  1.3199  0.0718  0.1864
 3930TIP3    H233350   5.625   0.946   1.751  1.7146  0.7275  0.1328
 3931TIP3   OH233351   6.613   6.327   7.877  0.0727  0.4989 -0.0318
 3931TIP3    H133352   6.537   6.338   7.934  0.6904  0.6953  0.7582
 3931TIP3    H233353   6.632   6.233   7.880 -2.2214 -0.2257 -2.9648
 3932TIP3   OH233354   5.867   4.967   8.457 -0.1454 -0.3114 -0.6060
 3932TIP3    H133355   5.818   4.884   8.459 -1.0154  0.1978  0.2350
 3932TIP3    H233356   5.903   4.971   8.369 -1.0508 -1.0431 -1.0341
 3933TIP3   OH233357   3.567   6.742   2.083 -0.1629 -0.1475 -0.1467
 3933TIP3    H133358   3.542   6.833   2.072 -0.1151 -0.0567  0.4671
 3933TIP3    H233359   3.663   6.743   2.084 -0.1648 -0.1859  0.0316
 3934TIP3   OH233360   3.144   0.342   6.505 -0.0252  0.1709  0.2547
 3934TIP3    H133361   3.103   0.404   6.445  0.6451  0.2117 -0.1751
 3934TIP3    H233362   3.104   0.360   6.590  1.1613  2.1672  0.4525
 3935TIP3   OH233363   2.919   5.611   8.078 -0.2269  0.1387 -0.1543
 3935TIP3    H133364   2.932   5.672   8.151 -0.9475  0.9635 -0.6925
 3935TIP3    H233365   2.895   5.667   8.004 -2.2119 -0.8739 -0.3374
 3936TIP3   OH233366   2.259   3.496   1.888 -0.3469 -0.4371 -0.4489
 3936TIP3    H133367   2.225   3.510   1.977 -2.3565 -0.9020 -1.0898
 3936TIP3    H233368   2.298   3.580   1.864  0.5835 -0.4186  0.9883
 3937TIP3   OH233369   6.302   3.689   7.815 -0.6695 -0.1859 -0.3771
 3937TIP3    H133370   6.234   3.756   7.814  0.5692  1.1124 -0.4733
 3937TIP3    H233371   6.365   3.720   7.881  0.2394 -0.9332 -0.8766
 3938TIP3   OH233372   5.836   6.381   6.320 -0.4728 -0.0574  0.1692
 3938TIP3    H133373   5.763   6.442   6.329 -0.9721 -0.7673  1.3005
 3938TIP3    H233374   5.801   6.310   6.265 -0.7429 -0.5056  0.8921
 3939TIP3   OH233375   0.819   3.079   0.872 -0.2698  0.0397  0.0831
 3939TIP3    H133376   0.803   3.035   0.789  0.1918 -1.7262  0.8973
 3939TIP3    H233377   0.869   3.158   0.848  1.8245 -1.5544 -1.1290
 3940TIP3   OH233378   6.582   3.176   3.062  0.5073  0.5529 -0.1867
 3940TIP3    H133379   6.634   3.099   3.039  0.0981 -0.4189  1.9162
 3940TIP3    H233380   6.499   3.140   3.093 -0.8405  2.0039 -1.9409
 3941TIP3   OH233381   6.013   6.111   7.707  0.2674  0.2764 -0.0426
 3941TIP3    H133382   6.085   6.148   7.656  0.1069 -0.6694 -1.0014
 3941TIP3    H233383   6.049   6.098   7.794  1.5874 -1.0409 -0.7287
 3942TIP3   OH233384   0.272   5.027   6.895 -0.3566  0.0336  0.1513
 3942TIP3    H133385   0.282   4.932   6.890  1.1938  0.0801  1.4861
 3942TIP3    H233386   0.205   5.041   6.961  0.2107 -0.1258  0.7662
 3943TIP3   OH233387   5.710   2.089   1.143  0.0902 -0.6013 -0.0607
 3943TIP3    H133388   5.730   2.139   1.064  0.4179 -0.3211  0.1993
 3943TIP3    H233389   5.638   2.032   1.117 -0.2660 -0.0205 -0.3669
 3944TIP3   OH233390   5.322   6.801   6.830  0.1607  0.0873  0.4533
 3944TIP3    H133391   5.282   6.839   6.752 -1.3453 -1.4498  0.4175
 3944TIP3    H233392   5.324   6.872   6.894 -1.5526  0.5452  0.0425
 3945TIP3   OH233393   0.665   4.416   1.497  0.1916  0.5636  0.3729
 3945TIP3    H133394   0.621   4.334   1.522  1.7300 -0.7880 -1.0585
 3945TIP3    H233395   0.600   4.484   1.512 -1.9091 -1.1669 -0.3092
 3946TIP3   OH233396   4.243   4.061   7.916 -0.2432  0.2423 -0.2936
 3946TIP3    H133397   4.298   4.109   7.978 -1.9304  1.8376  0.0554
 3946TIP3    H233398   4.188   4.006   7.970  0.4998 -0.8438 -0.6070
 3947TIP3   OH233399   2.016   2.187   0.680  0.1585  0.2238 -0.3018
 3947TIP3    H133400   2.038   2.142   0.762 -4.7159 -0.6825  0.7820
 3947TIP3    H233401   1.991   2.116   0.620 -0.3358  1.0963 -1.1527
 3948TIP3   OH233402   0.216   3.696   2.436  0.0543 -0.2873  0.2668
 3948TIP3    H133403   0.210   3.643   2.356  1.2958 -1.3819  0.8542
 3948TIP3    H233404   0.165   3.774   2.417 -2.2344 -1.8438 -0.5143
 3949TIP3   OH233405   5.003   4.173   8.298 -0.1745 -0.3141 -0.0417
 3949TIP3    H133406   4.942   4.205   8.364 -1.2505 -1.6464 -0.3484
 3949TIP3    H233407   4.951   4.115   8.243  1.2527 -1.0928 -0.6339
 3950TIP3   OH233408   4.792   2.771   7.353 -0.3863  0.1470  0.1336
 3950TIP3    H133409   4.735   2.711   7.304 -0.0490 -0.0046 -0.0751
 3950TIP3    H233410   4.804   2.845   7.294 -0.0151 -0.0167 -0.0014
 3951TIP3   OH233411   1.451   0.436   0.485 -0.2312  0.4955  0.9987
 3951TIP3    H133412   1.439   0.526   0.453 -0.6719 -0.5267 -2.0403
 3951TIP3    H233413   1.381   0.386   0.443  1.8604 -1.8000 -0.0021
 3952TIP3   OH233414   3.212   5.693   2.854 -0.1447 -0.1077  0.3809
 3952TIP3    H133415   3.259   5.621   2.896  1.7285  1.5506  1.2602
 3952TIP3    H233416   3.276   5.736   2.798 -1.5386  0.2112 -1.0613
 3953TIP3   OH233417   4.587   0.969   8.426  0.4277 -0.2979 -0.1933
 3953TIP3    H133418   4.598   0.881   8.389 -0.9678 -0.2210 -0.8440
 3953TIP3    H233419   4.500   0.966   8.467  0.6537  0.5800  0.3642
 3954TIP3   OH233420   2.268   0.019   7.506 -0.2070 -0.5874  0.3405
 3954TIP3    H133421   2.294   0.109   7.488 -1.8940 -0.3174 -0.9396
 3954TIP3    H233422   2.308  -0.033   7.436  1.1764 -0.9600  1.3501
 3955TIP3   OH233423   3.375   3.556   1.047 -0.1085  0.4072  1.1727
 3955TIP3    H133424   3.424   3.479   1.074  1.5001  0.7252 -0.6235
 3955TIP3    H233425   3.439   3.627   1.046 -1.0237  1.2590  0.5700
 3956TIP3   OH233426   3.324   2.053   0.350  0.0916  0.7987  0.3351
 3956TIP3    H133427   3.330   2.122   0.284 -0.7800 -0.6981 -1.4123
 3956TIP3    H233428   3.408   2.007   0.343  0.0329  0.6934  0.3249
 3957TIP3   OH233429   4.452   2.006   8.553 -0.3023 -0.7357  0.5040
 3957TIP3    H133430   4.494   2.079   8.506  0.3763  0.1613  2.4006
 3957TIP3    H233431   4.388   1.972   8.491 -1.7971  2.4836  0.0634
 3958TIP3   OH233432   5.737   4.764   0.037 -0.0961 -0.0812  0.3865
 3958TIP3    H133433   5.801   4.706  -0.004  0.9280  0.9495  0.4769
 3958TIP3    H233434   5.659   4.758  -0.019  1.3174  1.4190 -1.8935
 3959TIP3   OH233435   1.303   3.320   7.184 -0.6136  0.3094 -0.1659
 3959TIP3    H133436   1.269   3.254   7.124  0.5458 -2.2030  1.7479
 3959TIP3    H233437   1.381   3.354   7.140  1.3463 -2.8880  0.5399
 3960TIP3   OH233438   2.212   3.308   0.055  0.1127  0.3762  0.6912
 3960TIP3    H133439   2.121   3.283   0.039  0.6271 -0.7191 -0.7138
 3960TIP3    H233440   2.233   3.268   0.140 -0.8863  1.2149  1.3587
 3961TIP3   OH233441   5.377   3.258   0.096 -0.5468  0.7227  0.2265
 3961TIP3    H133442   5.453   3.268   0.152 -0.2524  0.0058 -0.0284
 3961TIP3    H233443   5.360   3.346   0.061 -0.9654  1.2525  1.7055
 3962TIP3   OH233444   5.615   2.739   1.475  0.4577  0.2685 -0.1151
 3962TIP3    H133445   5.542   2.763   1.532  0.1717 -1.0414  0.1015
 3962TIP3    H233446   5.574   2.689   1.404  1.1984 -1.0630  0.3632
 3963TIP3   OH233447   2.904   0.814   2.186  0.1126  0.5422  0.4150
 3963TIP3    H133448   2.903   0.908   2.208 -0.0256  0.5363  0.4328
 3963TIP3    H233449   2.914   0.770   2.271  2.6595  0.6109  0.2242
 3964TIP3   OH233450   0.012   0.448   0.019 -0.3269 -0.1098 -0.5002
 3964TIP3    H133451   0.083   0.439   0.083 -0.9767  1.7818  0.5664
 3964TIP3    H233452   0.014   0.366  -0.029 -0.2385 -1.9688  2.4044
 3965TIP3   OH233453   3.604   4.118   0.403  0.0685  0.2005  0.0782
 3965TIP3    H133454   3.697   4.098   0.394  0.1193 -0.2346  1.3788
 3965TIP3    H233455   3.567   4.100   0.317  1.1761  0.3603 -0.4490
 3966TIP3   OH233456   0.961   0.405   7.855  0.2237 -0.4246 -0.5680
 3966TIP3    H133457   1.000   0.451   7.929  1.0253 -1.1706 -0.5137
 3966TIP3    H233458   0.945   0.316   7.887  1.4538 -1.0309 -1.5545
 3967TIP3   OH233459   3.983   3.421   0.874 -0.5152 -0.1166  0.1004
 3967TIP3    H133460   4.014   3.460   0.955 -2.3112 -0.1191  0.8503
 3967TIP3    H233461   3.992   3.326   0.887 -0.7814 -0.1159  0.3047
 3968TIP3   OH233462   6.042   1.459   0.144 -0.3541 -0.1233  0.4288
 3968TIP3    H133463   6.033   1.388   0.080  0.7433  0.4248 -0.3597
 3968TIP3    H233464   6.113   1.431   0.201 -1.4278 -0.6766  1.5301
 3969TIP3   OH233465   2.297   0.565   0.036  0.2675 -0.0106 -0.4773
 3969TIP3    H133466   2.375   0.509   0.034 -0.0930 -0.7895  2.8444
 3969TIP3    H233467   2.224   0.505   0.052 -0.5165  1.1196  0.3146
 3970TIP3   OH233468   2.613   2.527   7.689  0.6345 -0.5670 -0.3081
 3970TIP3    H133469   2.605   2.467   7.615 -0.9652  1.0175 -1.5005
 3970TIP3    H233470   2.683   2.587   7.664 -1.1795  1.1458 -1.4753
 3971TIP3   OH233471   5.317   1.568   1.423  0.7293 -0.3739  0.2265
 3971TIP3    H133472   5.366   1.531   1.497 -0.3089  1.3639  1.8712
 3971TIP3    H233473   5.253   1.500   1.401 -0.3555 -0.1428  2.3786
 3972TIP3   OH233474   6.841   5.523   0.983  0.1144 -0.1591 -0.2347
 3972TIP3    H133475   6.898   5.481   1.046  0.3267  0.2718 -0.1354
 3972TIP3    H233476   6.761   5.544   1.032 -0.6533 -1.8711 -0.6662
 3973TIP3   OH233477   1.653   5.994   7.729  0.1098  0.3122 -0.0951
 3973TIP3    H133478   1.627   6.074   7.774  0.1790  0.5158 -0.4099
 3973TIP3    H233479   1.580   5.976   7.668 -0.2644 -0.2953  0.5150
 3974TIP3   OH233480   6.302   3.538   0.078 -0.1632 -0.0698  0.0022
 3974TIP3    H133481   6.342   3.625   0.086 -0.5918  0.0872  0.5177
 3974TIP3    H233482   6.243   3.532   0.153  0.9580 -1.3799  0.8422
 3975TIP3   OH233483   4.948   0.328   2.004 -0.3469 -0.6219  0.7401
 3975TIP3    H133484   4.906   0.397   2.055 -0.0220  1.7289 -1.8929
 3975TIP3    H233485   4.880   0.298   1.945  0.1167 -0.9399  0.3608
 3976TIP3   OH233486   1.416   6.610   2.484 -0.4501  0.0135  0.3758
 3976TIP3    H133487   1.401   6.687   2.539 -0.5581  0.4256 -0.2138
 3976TIP3    H233488   1.333   6.562   2.487 -0.3321 -0.1558  0.8675
 3977TIP3   OH233489   2.763   1.089   7.698 -0.2817  0.0223  0.5060
 3977TIP3    H133490   2.837   1.144   7.725 -1.0624  1.6836 -0.5696
 3977TIP3    H233491   2.781   1.066   7.607 -0.3281 -0.9248  0.7225
 3978TIP3   OH233492   4.769   0.395   7.655 -0.5773 -0.0608 -0.1990
 3978TIP3    H133493   4.730   0.470   7.610  0.2405 -0.2471 -1.2948
 3978TIP3    H233494   4.838   0.365   7.594  1.5159  0.4899  1.7606
 3979TIP3   OH233495   5.532   4.637   2.055 -0.4161 -0.4035 -0.5887
 3979TIP3    H133496   5.611   4.662   2.007 -1.0437  1.5749 -0.6765
 3979TIP3    H233497   5.469   4.611   1.987  0.0987 -1.9651 -0.5195
 3980TIP3   OH233498   1.365   0.592   2.225 -0.3696 -0.1039 -0.2400
 3980TIP3    H133499   1.329   0.530   2.288 -0.6924  1.7615  1.5033
 3980TIP3    H233500   1.431   0.542   2.177 -0.2414 -1.6414  1.4480
 3981TIP3   OH233501   5.532   0.286   7.919  0.1466  0.3501 -0.4032
 3981TIP3    H133502   5.547   0.305   8.012  2.7265 -0.6192 -0.5368
 3981TIP3    H233503   5.499   0.369   7.883 -1.2651  0.6347  1.3990
 3982TIP3   OH233504   0.599   6.636   0.557 -0.2889 -0.1036  0.6983
 3982TIP3    H133505   0.558   6.709   0.603 -0.7595 -0.4073  0.7676
 3982TIP3    H233506   0.693   6.652   0.565 -0.2819 -0.9321  3.0648
 3983TIP3   OH233507   1.103   5.711   8.593 -0.1155 -0.1914  0.0974
 3983TIP3    H133508   1.081   5.647   8.661 -1.6125  0.5649  0.3763
 3983TIP3    H233509   1.053   5.790   8.617  0.5253  0.5930 -1.0398
 3984TIP3   OH233510   3.715   2.600   0.168 -0.6276  0.4913  0.0563
 3984TIP3    H133511   3.648   2.533   0.153  0.5108 -0.2956 -1.8558
 3984TIP3    H233512   3.772   2.562   0.236  0.6791 -1.1091 -1.8196
 3985TIP3   OH233513   5.569   3.382   0.518  0.0971  0.1930 -0.1289
 3985TIP3    H133514   5.541   3.292   0.538  0.1142  0.5950  1.9833
 3985TIP3    H233515   5.487   3.432   0.512  0.1317  0.2973  0.2211
 3986TIP3   OH233516   4.915   2.417   8.600  0.2379 -0.1975 -1.0085
 3986TIP3    H133517   4.938   2.430   8.692  0.7490 -1.2779 -0.9629
 3986TIP3    H233518   4.919   2.504   8.561  1.1469  0.1155 -0.2529
 3987TIP3   OH233519   1.045   1.268   0.169  0.0882  0.0652  0.0287
 3987TIP3    H133520   0.960   1.245   0.208  0.0244 -1.9291 -1.1248
 3987TIP3    H233521   1.023   1.316   0.089  0.0696  0.2177  0.1256
 3988TIP3   OH233522   4.800   4.483   7.441 -0.0046  0.6469  0.9634
 3988TIP3    H133523   4.720   4.475   7.494 -0.5470 -0.8296 -0.0099
 3988TIP3    H233524   4.871   4.467   7.504 -0.6542 -1.4692  1.2387
 3989TIP3   OH233525   2.011   6.547   2.320  0.0559  0.2102 -0.1413
 3989TIP3    H133526   2.018   6.620   2.258 -0.5475  0.3991  0.0003
 3989TIP3    H233527   1.917   6.527   2.323  0.2008 -0.4934 -0.0832
 3990TIP3   OH233528   4.900   5.809   2.205  0.7204  0.0874 -0.6326
 3990TIP3    H133529   4.931   5.867   2.274 -2.2695 -0.0181  0.9531
 3990TIP3    H233530   4.839   5.863   2.154  0.5002 -0.7252 -1.2502
 3991TIP3   OH233531   3.102   6.316   2.006  0.3267 -0.0751 -0.6579
 3991TIP3    H133532   3.127   6.225   1.991 -0.0277 -0.6780  1.9765
 3991TIP3    H233533   3.007   6.313   2.015  0.4906  0.1772  1.4866
 3992TIP3   OH233534   1.123   3.555   1.744  0.7117 -0.2188  0.0799
 3992TIP3    H133535   1.080   3.639   1.733 -1.6890 -1.1778  1.2880
 3992TIP3    H233536   1.179   3.566   1.821  0.1921  0.2048  0.3988
 3993TIP3   OH233537   5.755   3.411   1.428  0.6899  0.3913 -0.4022
 3993TIP3    H133538   5.792   3.498   1.410  2.1621 -0.1861 -0.2438
 3993TIP3    H233539   5.734   3.413   1.521  0.7378  0.5619 -0.3934
 3994TIP3   OH233540   6.792   3.332   1.672  0.1315 -0.6782  0.2929
 3994TIP3    H133541   6.757   3.363   1.589  2.8404  1.6872 -0.1043
 3994TIP3    H233542   6.761   3.241   1.679 -1.5883 -0.3886 -2.4135
 3995TIP3   OH233543   4.870   1.431   8.370 -0.2337  0.5638 -0.3070
 3995TIP3    H133544   4.870   1.349   8.420 -0.8127 -0.8060 -2.4214
 3995TIP3    H233545   4.791   1.477   8.400 -1.1459 -0.7080 -0.6556
 3996TIP3   OH233546   0.367   3.972   0.529  0.5340  0.1311 -0.0646
 3996TIP3    H133547   0.324   3.889   0.551  0.9905 -0.0097  0.3040
 3996TIP3    H233548   0.316   4.006   0.456  0.7227 -0.7861 -0.6451
 3997TIP3   OH233549   3.389   6.358   1.810 -0.6478  0.1247 -0.4817
 3997TIP3    H133550   3.458   6.382   1.872  0.0305  1.2861 -1.6508
 3997TIP3    H233551   3.309   6.393   1.850 -0.5535 -0.9494  0.7207
 3998TIP3   OH233552   3.335   0.859   0.450 -0.2382 -0.0583 -0.1159
 3998TIP3    H133553   3.332   0.829   0.541  0.0814 -0.9660 -0.3906
 3998TIP3    H233554   3.301   0.948   0.453  1.8994  0.7823  1.2270
 3999TIP3   OH233555   2.514   3.098   0.248  0.3532 -0.0801 -1.0219
 3999TIP3    H133556   2.547   3.061   0.330 -0.7614  0.2438 -0.3966
 3999TIP3    H233557   2.567   3.176   0.233 -0.5734  0.8803  0.3906
 4000TIP3   OH233558   3.357   3.810   8.532  0.0974  0.1025 -0.5965
 4000TIP3    H133559   3.276   3.804   8.583  0.3372 -0.1131 -0.2366
 4000TIP3    H233560   3.372   3.721   8.501  0.7004 -0.0608  0.1283
 4001TIP3   OH233561   4.409   4.551   7.873  0.0348  0.8844  0.1714
 4001TIP3    H133562   4.424   4.603   7.953  1.0062  2.8745 -1.2123
 4001TIP3    H233563   4.354   4.607   7.818  0.5785  0.1762 -1.1371
 4002TIP3   OH233564   6.460   0.778   7.560  0.5272  0.4292 -0.5332
 4002TIP3    H133565   6.437   0.735   7.478  0.8232  1.9439 -1.4522
 4002TIP3    H233566   6.511   0.854   7.534  1.8329  0.2017  1.1482
 4003TIP3   OH233567   2.956   0.460   1.258  0.4032  0.2400 -0.0853
 4003TIP3    H133568   2.991   0.378   1.292  1.2197 -1.0053 -3.5101
 4003TIP3    H233569   3.029   0.521   1.262  1.0311 -0.4109 -1.0970
 4004TIP3   OH233570   2.041   2.221   1.692 -0.2482  0.7320 -0.1344
 4004TIP3    H133571   2.035   2.127   1.675 -0.5916  1.1704 -2.8856
 4004TIP3    H233572   1.955   2.246   1.725 -0.0808  0.0680  0.8331
 4005TIP3   OH233573   4.829   0.606   1.857 -0.0539  0.0747 -0.1594
 4005TIP3    H133574   4.805   0.596   1.949  0.5984  2.8079  0.3961
 4005TIP3    H233575   4.755   0.568   1.809 -0.3777 -1.4536  1.4499
 4006TIP3   OH233576   5.502   4.748   0.410  0.4904  0.7338 -0.2789
 4006TIP3    H133577   5.479   4.770   0.500 -0.1069  0.6214 -0.3951
 4006TIP3    H233578   5.519   4.832   0.368  0.5791  0.7992 -0.1097
 4007TIP3   OH233579   6.375   0.282   8.284 -0.7982 -0.4335  0.1400
 4007TIP3    H133580   6.408   0.283   8.194 -1.0591 -1.5899  0.0107
 4007TIP3    H233581   6.280   0.293   8.275 -1.2032 -3.2274  0.0152
 4008TIP3   OH233582   3.281   4.729   1.062 -0.0481  1.0031  0.0682
 4008TIP3    H133583   3.257   4.779   0.984  2.1735  1.7412 -0.2067
 4008TIP3    H233584   3.273   4.793   1.134  2.1342  1.6778 -0.1969
 4009TIP3   OH233585   2.693   2.782   7.839  0.2746 -0.3881  0.3917
 4009TIP3    H133586   2.715   2.765   7.747  1.3539  2.7067 -0.0490
 4009TIP3    H233587   2.650   2.868   7.838 -0.9072 -0.8562  2.6811
 4010TIP3   OH233588   1.456   0.039   7.752  0.7002 -0.3129  0.0830
 4010TIP3    H133589   1.362   0.021   7.754  1.0168 -2.1904  0.3644
 4010TIP3    H233590   1.492  -0.011   7.826  2.0631 -0.7326 -0.8084
 4011TIP3   OH233591   5.550   1.869   8.488 -0.1215 -0.2912  0.0240
 4011TIP3    H133592   5.556   1.796   8.550 -0.1899  0.0560  0.4451
 4011TIP3    H233593   5.639   1.904   8.483  0.2775 -1.4130 -1.4379
 4012TIP3   OH233594   6.812   0.048   0.021 -0.2114  0.0038  0.1888
 4012TIP3    H133595   6.871   0.063   0.096 -0.7680 -1.2857  0.9196
 4012TIP3    H233596   6.734   0.009   0.060 -1.7669  2.0803 -0.7131
 4013TIP3   OH233597   4.528   5.379   0.975  0.3476  0.3529 -0.2242
 4013TIP3    H133598   4.623   5.369   0.964  0.0543 -1.6967 -1.4117
 4013TIP3    H233599   4.507   5.328   1.053  0.1701  0.5352 -0.1513
 4014TIP3   OH233600   0.512   2.927   3.277  0.2882  0.0405  0.2183
 4014TIP3    H133601   0.573   2.858   3.253 -0.7504 -0.8965  0.1952
 4014TIP3    H233602   0.531   2.999   3.216  0.1683 -0.9204 -0.9892
 4015TIP3   OH233603   1.036   6.054   2.605 -1.3845 -0.5490  0.1747
 4015TIP3    H133604   1.116   6.046   2.657 -0.7154  0.2131 -0.6958
 4015TIP3    H233605   0.991   6.130   2.643 -1.1404 -0.2993 -0.0238
 4016TIP3   OH233606   3.620   1.347   1.743 -0.0763  0.5537 -0.2775
 4016TIP3    H133607   3.564   1.276   1.713 -1.0922  1.2498 -0.0802
 4016TIP3    H233608   3.675   1.368   1.667  0.5227 -0.6866 -0.2147
 4017TIP3   OH233609   4.167   6.448   6.604  0.3000 -0.0610  0.1418
 4017TIP3    H133610   4.171   6.514   6.673  1.5348 -0.1819  0.2102
 4017TIP3    H233611   4.251   6.455   6.559 -0.8703  0.7100 -2.0386
 4018TIP3   OH233612   6.438   3.869   1.445 -0.3752  0.2225 -0.3174
 4018TIP3    H133613   6.435   3.821   1.362 -1.1862 -0.3166  0.0140
 4018TIP3    H233614   6.346   3.884   1.467 -0.1519  1.4195 -0.1105
 4019TIP3   OH233615   4.253   3.212   7.901 -0.2861  0.1520  0.2933
 4019TIP3    H133616   4.178   3.206   7.959  0.0946 -1.1295  0.6912
 4019TIP3    H233617   4.239   3.143   7.836  1.0280 -0.8295  0.9982
 4020TIP3   OH233618   1.308   3.732   8.187  0.3303 -0.1330 -0.1721
 4020TIP3    H133619   1.305   3.642   8.220  2.7111  0.2751  1.4297
 4020TIP3    H233620   1.240   3.777   8.237  2.2894 -0.0783  2.7532
 4021TIP3   OH233621   5.513   4.233   0.395 -0.4796  0.1184  0.3103
 4021TIP3    H133622   5.424   4.203   0.412 -0.1618 -0.6115  0.7466
 4021TIP3    H233623   5.517   4.320   0.433 -1.1336  0.3377 -0.0994
 4022TIP3   OH233624   0.592   2.955   0.387  0.3062  0.4205 -0.3158
 4022TIP3    H133625   0.566   3.036   0.342 -1.9720  1.0635  1.9090
 4022TIP3    H233626   0.519   2.895   0.372 -1.2515  1.1042  3.3449
 4023TIP3   OH233627   0.280   6.117   0.535 -0.2585  0.6002  0.0618
 4023TIP3    H133628   0.334   6.167   0.597  0.5041 -0.7172  0.4869
 4023TIP3    H233629   0.281   6.171   0.455 -1.5594  2.5051  1.2406
 4024TIP3   OH233630   5.682   1.343   6.689 -0.3655 -0.2697 -0.3404
 4024TIP3    H133631   5.614   1.359   6.624  0.3844 -0.8345 -1.2981
 4024TIP3    H233632   5.755   1.398   6.661  0.3609 -1.3496 -0.6339
 4025TIP3   OH233633   2.487   1.507   1.501 -0.4889  0.5984  0.1701
 4025TIP3    H133634   2.551   1.480   1.566 -0.2906  0.1674 -0.1937
 4025TIP3    H233635   2.403   1.501   1.547 -0.5178 -1.2172 -0.0333
 4026TIP3   OH233636   0.761   0.951   7.183  0.0038  0.1030  0.4880
 4026TIP3    H133637   0.785   0.921   7.096  1.1167  0.4223  0.6714
 4026TIP3    H233638   0.724   0.873   7.226 -3.0865  0.5213 -1.0889
 4027TIP3   OH233639   0.672   1.926   0.051  0.2932 -0.7122  0.0987
 4027TIP3    H133640   0.702   1.850   0.002  2.2439  1.1506 -1.8291
 4027TIP3    H233641   0.752   1.974   0.073 -0.9056  1.5100 -0.0872
 4028TIP3   OH233642   4.924   2.024   8.007  1.0399  0.5341  0.0416
 4028TIP3    H133643   4.936   1.987   8.095 -0.0508 -0.1466 -0.0870
 4028TIP3    H233644   4.893   1.951   7.954  0.7749  1.1672 -0.6899
 4029TIP3   OH233645   5.543   0.640   7.132 -0.2436 -0.0636  0.3883
 4029TIP3    H133646   5.629   0.675   7.111 -0.6398  0.4739 -0.3776
 4029TIP3    H233647   5.488   0.664   7.058 -1.6161  1.5739  1.8330
 4030TIP3   OH233648   3.511   5.990   2.050  0.0076 -0.5548 -0.2080
 4030TIP3    H133649   3.453   6.066   2.049 -0.4179 -0.8367  1.1769
 4030TIP3    H233650   3.588   6.018   1.999 -1.1590 -0.0595 -1.7917
 4031TIP3   OH233651   3.787   1.534   0.497 -0.2515  0.0970  0.1232
 4031TIP3    H133652   3.816   1.501   0.582  0.9901  1.2312  0.1725
 4031TIP3    H233653   3.867   1.543   0.446 -0.9235 -0.0635 -1.0078
 4032TIP3   OH233654   1.628   0.753   2.050  0.3099  0.1015  0.5017
 4032TIP3    H133655   1.685   0.676   2.048  0.3510  0.1092  1.2821
 4032TIP3    H233656   1.559   0.732   1.987  0.8024 -0.1889  0.0435
 4033TIP3   OH233657   4.285   0.649   0.937 -0.5726  0.5632 -0.4370
 4033TIP3    H133658   4.263   0.568   0.890  0.0058  0.4181 -0.4687
 4033TIP3    H233659   4.336   0.700   0.875  0.8664  0.0353  0.2635
 4034TIP3   OH233660   0.036   1.548   0.775 -0.3834  0.1304 -0.3504
 4034TIP3    H133661  -0.049   1.508   0.756  0.1883 -1.2672 -0.0495
 4034TIP3    H233662   0.014   1.630   0.819 -1.5793  0.1125 -0.8708
 4035TIP3   OH233663   2.687   6.339   0.671 -0.6971 -0.3558 -1.0895
 4035TIP3    H133664   2.677   6.245   0.682  0.7808 -0.2616  2.4082
 4035TIP3    H233665   2.612   6.377   0.717  1.5034  0.0487  2.5944
 4036TIP3   OH233666   1.242   0.370   8.470  0.3456 -0.2241  0.0844
 4036TIP3    H133667   1.295   0.357   8.549  1.2703  0.0374 -0.4751
 4036TIP3    H233668   1.304   0.402   8.405 -0.9301  2.3117  0.0292
 4037TIP3   OH233669   5.006   1.271   0.164  0.1171 -0.2992  0.0740
 4037TIP3    H133670   4.987   1.360   0.191  1.7778 -0.1833  1.0118
 4037TIP3    H233671   5.093   1.253   0.201  1.3106 -1.1382 -2.8429
 4038TIP3   OH233672   6.223   2.260   0.257 -0.3562  0.3272 -0.5727
 4038TIP3    H133673   6.268   2.336   0.291 -0.0724  0.4489 -1.1937
 4038TIP3    H233674   6.294   2.200   0.231 -0.5679 -0.6765  1.0221
 4039TIP3   OH233675   5.684   2.353   0.645  0.0692 -0.4373 -0.5766
 4039TIP3    H133676   5.726   2.305   0.716  0.8411  1.3665  0.2500
 4039TIP3    H233677   5.662   2.438   0.683 -2.7796 -0.6559 -1.4896
 4040TIP3   OH233678   2.702   1.002   1.007  0.1106  0.2704 -0.0729
 4040TIP3    H133679   2.652   0.989   0.926 -0.8227 -0.6297  0.6177
 4040TIP3    H233680   2.775   0.940   1.000  0.8600  1.2153 -0.8499
 4041TIP3   OH233681   5.697   6.061   8.407 -0.2017 -0.0342  0.3663
 4041TIP3    H133682   5.684   6.070   8.312 -0.6871  1.7182  0.5502
 4041TIP3    H233683   5.644   5.986   8.432 -3.4386  1.8903 -0.1830
 4042TIP3   OH233684   1.863   4.220   6.843  0.2573  0.2628  0.2527
 4042TIP3    H133685   1.778   4.181   6.821  0.3966 -0.3729  0.8364
 4042TIP3    H233686   1.856   4.310   6.811 -0.4996  0.1106 -0.0393
 4043TIP3   OH233687   1.311   4.798   7.966  0.3837 -0.0466  0.3595
 4043TIP3    H133688   1.359   4.863   7.916  0.0209  0.5308  0.7544
 4043TIP3    H233689   1.376   4.760   8.025  0.5756  0.0078  0.1832
 4044TIP3   OH233690   1.561   6.472   8.448  0.1929  0.4963  0.0517
 4044TIP3    H133691   1.639   6.464   8.503  0.4443 -1.0558 -0.4734
 4044TIP3    H233692   1.498   6.520   8.502  0.5350 -0.7097  1.5904
 4045TIP3   OH233693   5.704   6.042   0.143  0.1004 -0.2032  0.1717
 4045TIP3    H133694   5.692   5.994   0.224  0.8626  2.0276  1.7230
 4045TIP3    H233695   5.630   6.103   0.140  0.4655  0.2184 -0.4252
 4046TIP3   OH233696   0.316   3.541   7.154  0.0767 -0.2712  0.6121
 4046TIP3    H133697   0.255   3.499   7.214  0.0444  1.8228  2.2010
 4046TIP3    H233698   0.263   3.605   7.107  1.0170  2.2296  2.6668
 4047TIP3   OH233699   3.413   6.109   2.407  0.9209  0.6827  0.1946
 4047TIP3    H133700   3.408   6.098   2.312 -0.2984 -1.0886  0.3985
 4047TIP3    H233701   3.331   6.151   2.431  0.3152 -0.6604  0.6118
 4048TIP3   OH233702   5.708   4.884   1.349  0.4595  0.1187  0.3161
 4048TIP3    H133703   5.698   4.793   1.375 -0.8720 -0.0097 -0.5454
 4048TIP3    H233704   5.682   4.934   1.427  1.0266 -0.2244  0.7347
 4049TIP3   OH233705   3.333   6.760   0.713  0.3023 -0.5646  0.0421
 4049TIP3    H133706   3.354   6.669   0.692 -0.5835 -1.2649  1.9552
 4049TIP3    H233707   3.413   6.794   0.754 -0.3704 -1.5617  2.3520
 4050TIP3   OH233708   3.574   6.865   0.798  0.5523 -0.3085 -0.8540
 4050TIP3    H133709   3.611   6.935   0.851 -0.0465  0.9171 -2.0034
 4050TIP3    H233710   3.649   6.813   0.770  0.9729 -0.3174  0.2625
 4051TIP3   OH233711   6.648   3.920   2.731 -0.3882 -0.1211 -0.5772
 4051TIP3    H133712   6.584   3.978   2.774 -0.8745 -0.9922 -0.0866
 4051TIP3    H233713   6.733   3.960   2.750 -0.6419 -0.1298  0.6433
 4052TIP3   OH233714   5.909   6.770   1.636  0.2374  0.0406 -0.1311
 4052TIP3    H133715   5.897   6.686   1.593 -2.6441 -0.2720  1.0664
 4052TIP3    H233716   5.946   6.749   1.722  2.9419  0.4046 -1.0979
 4053TIP3   OH233717   0.947   4.939   0.243  0.1241 -0.0803 -0.2189
 4053TIP3    H133718   0.910   4.908   0.160  0.8756 -2.3114  0.2011
 4053TIP3    H233719   0.871   4.971   0.292 -0.3499  1.1665 -1.6816
 4054TIP3   OH233720   3.827   4.197   8.421  0.3563  0.4774 -0.0103
 4054TIP3    H133721   3.867   4.112   8.436 -2.6032 -1.4318 -1.9161
 4054TIP3    H233722   3.877   4.258   8.475  3.0971 -2.3006  0.7975
 4055TIP3   OH233723   6.802   2.513   1.170  0.3546  0.1695  0.2833
 4055TIP3    H133724   6.789   2.602   1.137 -2.0639 -0.4565 -0.6335
 4055TIP3    H233725   6.817   2.524   1.264  1.7967  1.6278 -0.0811
 4056TIP3   OH233726   3.167   6.657   0.359  0.1790  0.1225  0.5914
 4056TIP3    H133727   3.167   6.634   0.452 -0.8975 -0.0725  0.5532
 4056TIP3    H233728   3.102   6.598   0.319  1.4478 -0.6006 -0.4969
 4057TIP3   OH233729   6.551   5.325   0.264 -0.3858 -0.2154 -0.1850
 4057TIP3    H133730   6.586   5.414   0.271 -1.8548  0.3563  0.3674
 4057TIP3    H233731   6.545   5.309   0.170 -3.0885  1.5786 -0.4376
 4058TIP3   OH233732   4.458   1.757   7.554 -0.4504  0.0843  0.1220
 4058TIP3    H133733   4.497   1.742   7.468  2.1732  1.7411  0.8929
 4058TIP3    H233734   4.374   1.798   7.535 -0.5201 -0.7945 -1.6540
 4059TIP3   OH233735   2.249   4.793   8.187 -0.7544  0.2612 -0.5432
 4059TIP3    H133736   2.232   4.700   8.200  0.5311  0.1400  0.4203
 4059TIP3    H233737   2.212   4.836   8.264 -0.3758  0.4281 -0.4508
 4060TIP3   OH233738   4.560   6.758   7.546 -0.1696 -0.0192  0.3994
 4060TIP3    H133739   4.513   6.677   7.562 -0.1890  0.0794  0.8543
 4060TIP3    H233740   4.627   6.735   7.482  0.0200 -0.4622  0.7510
 4061TIP3   OH233741   2.176   1.378   1.533 -0.1909 -0.1519 -0.0984
 4061TIP3    H133742   2.250   1.343   1.484  0.9569  1.1212  0.6732
 4061TIP3    H233743   2.194   1.471   1.541 -1.7062  0.1273  0.4384
 4062TIP3   OH233744   3.179   1.509   7.904 -0.2765 -0.7516 -0.6393
 4062TIP3    H133745   3.191   1.603   7.893 -1.3950 -0.6685 -1.3051
 4062TIP3    H233746   3.266   1.476   7.924  0.3527  0.2690 -1.5717
 4063TIP3   OH233747   5.822   1.579   6.700  0.1049 -0.4639 -0.0613
 4063TIP3    H133748   5.860   1.555   6.784 -1.4371 -0.7770  0.5921
 4063TIP3    H233749   5.885   1.639   6.661  0.9832 -0.5360  1.1888
 4064TIP3   OH233750   5.202   0.116   7.380  0.5727  0.1454 -0.0032
 4064TIP3    H133751   5.176   0.139   7.469 -0.0187  0.0767 -0.1523
 4064TIP3    H233752   5.203   0.199   7.333 -0.0201  0.0675 -0.1567
 4065TIP3   OH233753   0.313   0.009   1.019 -0.3041  0.6495 -0.0175
 4065TIP3    H133754   0.359  -0.074   1.028  2.6806  2.0667 -0.9606
 4065TIP3    H233755   0.273   0.024   1.104  0.6791 -0.8657  0.7622
 4066TIP3   OH233756   4.968   6.504   2.890  0.3125 -0.4751 -0.6075
 4066TIP3    H133757   5.013   6.574   2.844  0.6257  0.1439  0.5915
 4066TIP3    H233758   4.881   6.538   2.908  0.9907  0.3538  1.4794
 4067TIP3   OH233759   3.313   1.578   7.589  0.1848  0.0895  0.1339
 4067TIP3    H133760   3.336   1.662   7.550 -2.2030  0.8381  0.1612
 4067TIP3    H233761   3.217   1.577   7.589  0.0558 -1.1192  3.3025
 4068TIP3   OH233762   5.343   3.860   2.308  0.1913  0.1341  0.4451
 4068TIP3    H133763   5.398   3.788   2.341  1.6906  0.0430 -1.9829
 4068TIP3    H233764   5.379   3.938   2.348  1.1706 -0.0924  0.0384
 4069TIP3   OH233765   5.236   2.009   8.066 -0.1890 -0.3806  0.5172
 4069TIP3    H133766   5.203   1.989   7.979  2.1338  0.9206 -0.7652
 4069TIP3    H233767   5.291   1.934   8.088  0.0690 -0.2370  0.3720
 4070TIP3   OH233768   0.573   6.836   7.302  0.2979 -0.5411  0.2347
 4070TIP3    H133769   0.639   6.769   7.284  2.6248  1.5774  0.3357
 4070TIP3    H233770   0.517   6.837   7.224 -0.0540 -2.8177  0.4076
 4071TIP3   OH233771   4.635   0.505   1.163  0.3794 -0.2248  0.4583
 4071TIP3    H133772   4.607   0.550   1.084 -0.4333 -2.8091 -0.8299
 4071TIP3    H233773   4.730   0.499   1.156  0.5012  1.1650  0.6382
 4072TIP3   OH233774   5.942   5.200   0.730  0.0681 -0.3725  0.4069
 4072TIP3    H133775   5.893   5.179   0.650 -0.3206  0.4815  0.4051
 4072TIP3    H233776   5.946   5.295   0.731 -2.2847 -0.1881  2.7625
 4073TIP3   OH233777   2.415   1.885   0.377  0.6829 -0.0040  0.0842
 4073TIP3    H133778   2.493   1.851   0.333  1.0077 -3.0487  2.6447
 4073TIP3    H233779   2.447   1.918   0.461 -0.6318 -0.6242  0.8639
 4074TIP3   OH233780   6.161   5.972   7.312 -0.1253 -0.0506 -0.5067
 4074TIP3    H133781   6.078   5.926   7.322  0.6146 -1.5355 -0.8828
 4074TIP3    H233782   6.214   5.914   7.258  1.6074  0.2683  0.7687
 4075TIP3   OH233783   4.844   5.218   2.048 -0.5394  0.1679  0.6874
 4075TIP3    H133784   4.850   5.142   2.106  0.8308 -1.0473 -0.9331
 4075TIP3    H233785   4.753   5.216   2.016 -2.1880  2.3942  4.5821
 4076TIP3   OH233786   5.845   6.811   0.055  0.1694  0.4314 -0.6897
 4076TIP3    H133787   5.898   6.852   0.123  0.4779  0.5476 -0.9974
 4076TIP3    H233788   5.828   6.881  -0.008  0.8408  0.0599 -1.2994
 4077TIP3   OH233789   4.534   3.128   2.291 -0.2067 -0.2845  0.0023
 4077TIP3    H133790   4.511   3.058   2.353  0.2128  2.0429  3.0549
 4077TIP3    H233791   4.463   3.192   2.301  1.4370  1.5668  0.5456
 4078TIP3   OH233792   5.357   1.896   2.073  0.1978  0.2119  0.2050
 4078TIP3    H133793   5.368   1.877   1.979  1.3411 -0.4626  0.4508
 4078TIP3    H233794   5.421   1.964   2.091  1.0558 -0.7211  0.7926
 4079TIP3   OH233795   4.160   1.953   0.810 -0.4149 -0.7092 -0.4738
 4079TIP3    H133796   4.103   1.995   0.745 -0.1079  0.4617 -0.0154
 4079TIP3    H233797   4.130   1.988   0.894 -0.4630 -1.7995 -0.0143
 4080TIP3   OH233798   5.395   1.335   8.314  0.0573  0.2288 -0.3402
 4080TIP3    H133799   5.306   1.322   8.347  0.3192 -0.6714  0.0552
 4080TIP3    H233800   5.428   1.410   8.363 -0.1685 -0.0123  0.1890
 4081TIP3   OH233801   3.827   0.585   1.250  0.4577  0.4266  0.2375
 4081TIP3    H133802   3.912   0.594   1.208  1.2963  0.5121  1.8685
 4081TIP3    H233803   3.845   0.536   1.330 -1.2698 -0.7585 -0.0661
 4082TIP3   OH233804   4.805   4.086   8.097 -0.0194 -0.1813 -0.2449
 4082TIP3    H133805   4.785   4.155   8.034  1.0824  0.9671  0.6079
 4082TIP3    H233806   4.777   4.005   8.055 -1.0179  0.7440 -1.4217
 4083TIP3   OH233807   5.688   1.796   7.209  0.3051 -0.2394  0.0334
 4083TIP3    H133808   5.743   1.746   7.148 -1.5973 -1.2333 -0.9610
 4083TIP3    H233809   5.599   1.786   7.175 -0.3758  2.5028  0.7474
 4084TIP3   OH233810   2.713   6.865   6.946  0.0371 -0.0183 -0.0362
 4084TIP3    H133811   2.691   6.898   7.034  0.3701  0.9458 -0.2957
 4084TIP3    H233812   2.719   6.944   6.892 -0.6289 -0.6376 -1.0419
 4085TIP3   OH233813   1.768   0.546   8.434 -0.5464 -0.1483  0.3396
 4085TIP3    H133814   1.685   0.552   8.482 -0.7549  1.4588 -0.1443
 4085TIP3    H233815   1.765   0.620   8.373  0.7041 -0.8118 -0.5683
 4086TIP3   OH233816   4.044   4.311   7.281  0.1413 -0.1487  0.0398
 4086TIP3    H133817   4.104   4.274   7.216 -1.6718 -0.2041 -1.6692
 4086TIP3    H233818   4.096   4.314   7.362  2.4403 -0.1934 -1.3410
 4087TIP3   OH233819   6.444   1.075   7.340  0.2162 -0.1428  0.3011
 4087TIP3    H133820   6.502   1.081   7.416 -1.2814 -0.4190  1.5326
 4087TIP3    H233821   6.444   0.982   7.317  1.4874  0.0950 -0.7368
 4088TIP3   OH233822   5.799   0.029   1.083 -0.3332 -0.1477  0.0561
 4088TIP3    H133823   5.853  -0.037   1.040  0.1775 -0.4377  1.0996
 4088TIP3    H233824   5.769  -0.013   1.164  0.2484  0.9750  0.8884
 4089TIP3   OH233825   1.706   4.182   1.246 -0.4950  0.3512 -0.5605
 4089TIP3    H133826   1.733   4.096   1.276 -2.1086 -0.0238 -0.1021
 4089TIP3    H233827   1.695   4.233   1.326 -1.5640  0.3487 -0.6941
 4090TIP3   OH233828   1.046   0.568   8.657  0.4839  1.1036  0.6301
 4090TIP3    H133829   1.056   0.569   8.562  0.1553  1.6863  0.5954
 4090TIP3    H233830   0.957   0.600   8.672 -0.1689 -0.8098  1.0706
 4091TIP3   OH233831   5.937   2.760   0.493  0.0688  0.2148  0.2739
 4091TIP3    H133832   5.847   2.761   0.461  0.0315  0.8316  0.3995
 4091TIP3    H233833   5.975   2.682   0.453  0.5497  1.8304 -2.6842
 4092TIP3   OH233834   1.078   2.265   1.548  0.2444  0.0463  0.3229
 4092TIP3    H133835   1.154   2.208   1.562 -0.0880  0.2784  4.7425
 4092TIP3    H233836   1.002   2.208   1.563 -0.1347  1.0355  2.7285
 4093TIP3   OH233837   3.186   3.977   2.438 -0.5201  0.2903 -0.0731
 4093TIP3    H133838   3.143   3.891   2.433  1.4881 -0.7121 -3.1581
 4093TIP3    H233839   3.263   3.961   2.492 -1.1413  0.7014  0.9615
 4094TIP3   OH233840   5.456   4.811   0.676 -0.3527  0.0322  0.5597
 4094TIP3    H133841   5.532   4.794   0.733 -0.5665 -2.4117  0.1936
 4094TIP3    H233842   5.400   4.869   0.728  0.5329 -0.2638  1.8966
 4095TIP3   OH233843   5.339   4.928   1.459  0.1204  0.0952 -0.7010
 4095TIP3    H133844   5.367   4.955   1.371 -1.1932  0.2845 -1.0868
 4095TIP3    H233845   5.283   4.999   1.489 -0.2687 -0.4450 -0.1353
 4096TIP3   OH233846   6.253   3.849   7.423 -0.0258 -0.0823  0.1763
 4096TIP3    H133847   6.205   3.781   7.470 -1.3102  1.4020  1.1151
 4096TIP3    H233848   6.245   3.824   7.331 -4.3383  0.9873  0.0477
 4097TIP3   OH233849   0.739   0.413   0.769 -0.0398  0.1224  0.5594
 4097TIP3    H133850   0.803   0.347   0.745 -1.2140 -0.7554 -0.2802
 4097TIP3    H233851   0.732   0.406   0.864  0.1237 -0.7027  0.5157
 4098TIP3   OH233852   0.196   3.305   0.045 -0.6296 -0.2559  0.6964
 4098TIP3    H133853   0.152   3.353  -0.025  1.4608 -0.1545 -0.6299
 4098TIP3    H233854   0.143   3.226   0.058 -1.6242  0.2435 -0.2414
 4099TIP3   OH233855   3.198   6.438   8.322  0.2269  0.6275  0.0526
 4099TIP3    H133856   3.181   6.345   8.306  0.9544  0.7626 -1.7926
 4099TIP3    H233857   3.220   6.473   8.235 -0.1940  2.5611  0.6778
 4100TIP3   OH233858   4.402   4.803   8.610 -0.3455 -0.6267 -0.3040
 4100TIP3    H133859   4.361   4.812   8.696  0.0537  0.6750 -0.2387
 4100TIP3    H233860   4.496   4.810   8.627 -0.3012  0.4133 -0.9287
 4101TIP3   OH233861   4.977   5.241   0.197 -0.2984  0.0851  0.5071
 4101TIP3    H133862   5.068   5.212   0.198 -0.3698 -0.1400  0.7004
 4101TIP3    H233863   4.982   5.337   0.201 -0.0753  0.0565  1.0243
 4102TIP3   OH233864   5.415   0.225   2.088 -0.1986  0.0660 -0.0621
 4102TIP3    H133865   5.340   0.277   2.060  0.1721 -0.6279 -2.5877
 4102TIP3    H233866   5.377   0.145   2.124 -0.7013  1.0579  1.7341
 4103TIP3   OH233867   6.148   6.702   8.402 -0.0569  0.4043 -0.0630
 4103TIP3    H133868   6.094   6.644   8.347 -0.6412 -0.3586  1.2794
 4103TIP3    H233869   6.109   6.695   8.489 -0.7595  3.5362  0.0082
 4104TIP3   OH233870   6.248   1.337   0.750 -0.6153 -0.5065 -0.0683
 4104TIP3    H133871   6.174   1.336   0.689 -1.2686  1.2761  0.6452
 4104TIP3    H233872   6.273   1.429   0.757 -0.6033 -0.6285  2.3905
 4105TIP3   OH233873   0.566   4.124   1.650  0.0786 -0.0093 -0.2714
 4105TIP3    H133874   0.490   4.169   1.613  0.6410  0.7233 -0.5409
 4105TIP3    H233875   0.593   4.180   1.723  1.0799  0.3646 -0.9107
 4106TIP3   OH233876   3.069   4.790   7.636 -0.1005  0.0234  0.2075
 4106TIP3    H133877   3.026   4.867   7.674 -0.2238  0.3007 -0.4853
 4106TIP3    H233878   3.131   4.827   7.573 -1.1426 -0.4850 -1.1528
 4107TIP3   OH233879   4.061   5.573   1.507 -0.2755 -0.1543 -0.2617
 4107TIP3    H133880   4.045   5.668   1.509 -0.2757 -0.1591 -0.0353
 4107TIP3    H233881   4.027   5.545   1.422 -2.2085 -0.2922  0.5156
 4108TIP3   OH233882   3.626   5.102   7.758  1.1084  0.1085  0.0102
 4108TIP3    H133883   3.576   5.182   7.770 -1.8628 -1.5231 -0.5846
 4108TIP3    H233884   3.618   5.083   7.664  1.3720 -1.1179  0.2236
 4109TIP3   OH233885   3.008   6.738   7.478  0.0954  0.0155 -0.0509
 4109TIP3    H133886   2.992   6.810   7.540  0.1114  0.3005 -0.3761
 4109TIP3    H233887   2.928   6.733   7.425 -0.6257 -1.3677  1.1089
 4110TIP3   OH233888   0.676   4.848   8.472  0.3546  0.3096 -0.2065
 4110TIP3    H133889   0.770   4.853   8.454  0.6434 -1.4669  0.5933
 4110TIP3    H233890   0.636   4.833   8.387  0.7638  1.0820 -0.5541
 4111TIP3   OH233891   6.364   3.926   0.493  0.3538  0.2530  0.1411
 4111TIP3    H133892   6.281   3.971   0.476  1.2639  1.5853 -0.9689
 4111TIP3    H233893   6.358   3.844   0.444 -0.3187  0.3241  0.0962
 4112TIP3   OH233894   5.405   2.603   2.180 -0.1150 -0.1069 -0.0439
 4112TIP3    H133895   5.460   2.668   2.135 -0.3180  0.4113  0.4324
 4112TIP3    H233896   5.454   2.583   2.261  0.0172 -0.6635 -0.2593
 4113TIP3   OH233897   3.382   0.075   8.607  0.1006 -0.2952 -0.0471
 4113TIP3    H133898   3.358   0.163   8.635  0.8744 -0.1296  0.1416
 4113TIP3    H233899   3.376   0.022   8.687  0.7445 -0.1653  0.0927
 4114TIP3   OH233900   0.277   2.326   0.860 -0.3111  0.0038  0.3712
 4114TIP3    H133901   0.228   2.395   0.815  0.3753  0.8580  0.8951
 4114TIP3    H233902   0.281   2.355   0.951  0.3189 -0.5368  0.5230
 4115TIP3   OH233903   1.545   6.668   2.249  0.6301  0.2664 -0.1789
 4115TIP3    H133904   1.510   6.639   2.333  1.3254 -0.6838 -0.2031
 4115TIP3    H233905   1.626   6.618   2.238  0.4347  0.2129 -1.5238
 4116TIP3   OH233906   2.225   1.205   8.508  0.9151  0.1683 -0.0869
 4116TIP3    H133907   2.284   1.258   8.562  3.1418 -0.7161 -1.5320
 4116TIP3    H233908   2.222   1.250   8.424 -1.7157  0.9647  0.3178
 4117TIP3   OH233909   5.819   2.574   2.204 -0.1116 -0.6040 -0.2844
 4117TIP3    H133910   5.733   2.565   2.246 -0.1542  3.0948  0.7046
 4117TIP3    H233911   5.800   2.570   2.110 -1.0179 -1.7885 -0.0794
 4118TIP3   OH233912   3.437   3.916   2.217  0.3446 -0.1897 -0.5110
 4118TIP3    H133913   3.448   4.011   2.222  1.2720 -0.2993 -0.2894
 4118TIP3    H233914   3.438   3.897   2.123 -1.7042  0.1954 -0.6676
 4119TIP3   OH233915   1.093   4.662   8.640 -0.4371 -0.2361 -0.0772
 4119TIP3    H133916   1.113   4.736   8.697 -0.0132  0.8939 -1.6262
 4119TIP3    H233917   1.122   4.585   8.689  0.1201  0.6964  1.1124
 4120TIP3   OH233918   4.189   6.845   2.315 -0.1939 -0.5059  0.2540
 4120TIP3    H133919   4.115   6.896   2.347 -0.5609 -1.6054  1.1970
 4120TIP3    H233920   4.247   6.837   2.390  0.0659 -1.0986 -0.0046
 4121TIP3   OH233921   2.859   3.789   0.096 -0.3177 -0.3863 -0.8156
 4121TIP3    H133922   2.773   3.752   0.113 -1.1082  1.4514 -0.5375
 4121TIP3    H233923   2.845   3.852   0.026  0.2068  1.8803  0.9985
 4122TIP3   OH233924   2.930   4.926   1.214  0.5080  0.1042  0.2039
 4122TIP3    H133925   2.874   4.878   1.152 -0.5305  1.1515  0.2895
 4122TIP3    H233926   2.887   4.914   1.299  1.0245  0.0249  0.4591
 4123TIP3   OH233927   1.857   0.604   2.003 -0.2044 -0.1206  0.5138
 4123TIP3    H133928   1.846   0.511   2.022 -0.3406 -0.2836 -0.3298
 4123TIP3    H233929   1.869   0.608   1.908 -0.3354  0.7354  0.5270
 4124TIP3   OH233930   0.890   6.270   2.646  0.1371 -0.4320 -0.4733
 4124TIP3    H133931   0.899   6.319   2.564  1.2371 -0.0710 -0.1443
 4124TIP3    H233932   0.839   6.327   2.703  1.7432  0.5322  0.0448
 4125TIP3   OH233933   4.479   1.763   0.944  0.1631  0.0635 -0.0693
 4125TIP3    H133934   4.537   1.812   0.886 -0.3728  0.3919 -0.3452
 4125TIP3    H233935   4.394   1.766   0.900 -0.1248 -0.1640  0.4630
 4126TIP3   OH233936   6.625   5.486   2.317 -0.4453  0.2826  0.1155
 4126TIP3    H133937   6.627   5.582   2.312  0.1107  0.3131  0.8401
 4126TIP3    H233938   6.716   5.459   2.307 -0.5021 -0.1267  0.6750
 4127TIP3   OH233939   3.283   3.578   8.379  0.3384  0.1987  0.3414
 4127TIP3    H133940   3.226   3.508   8.346  0.9724  0.5358 -1.6009
 4127TIP3    H233941   3.222   3.642   8.416 -0.4597 -0.1238 -0.3653
 4128TIP3   OH233942   1.933   3.209   7.663 -0.3325  0.5704 -0.3698
 4128TIP3    H133943   1.998   3.159   7.712 -3.4905 -0.5875  3.1273
 4128TIP3    H233944   1.967   3.211   7.574  3.1885 -2.1038  0.6624
 4129TIP3   OH233945   3.972   1.037   8.398  0.2816  0.2355 -0.5321
 4129TIP3    H133946   4.012   0.993   8.322 -0.5019 -0.7217 -0.4092
 4129TIP3    H233947   3.878   1.039   8.378  0.1207  0.4063  0.2054
 4130TIP3   OH233948   0.326   3.401   1.792  0.5671  0.1764  0.1166
 4130TIP3    H133949   0.273   3.368   1.720  1.6981 -0.4756 -0.4435
 4130TIP3    H233950   0.360   3.322   1.835  0.2557  0.5609  1.1136
 4131TIP3   OH233951   0.234   2.869   2.620  0.1072  0.5560 -0.2087
 4131TIP3    H133952   0.165   2.892   2.682 -0.0613  0.0373 -0.1971
 4131TIP3    H233953   0.274   2.790   2.657 -1.4067 -1.0518 -1.8319
 4132TIP3   OH233954   6.061   6.520   7.794  0.4129  0.1870 -0.0583
 4132TIP3    H133955   6.018   6.603   7.814  0.7037  0.4459 -0.4932
 4132TIP3    H233956   6.007   6.480   7.725 -0.0797 -0.2824  0.5886
 4133TIP3   OH233957   2.733   4.494   2.442 -0.3137 -0.2973 -0.4171
 4133TIP3    H133958   2.719   4.500   2.536  0.8688  2.4322 -0.3257
 4133TIP3    H233959   2.645   4.505   2.404 -0.6266 -0.1039  0.3482
 4134TIP3   OH233960   5.531   0.912   2.922 -0.9544  0.3746 -0.5678
 4134TIP3    H133961   5.625   0.894   2.928 -1.1489 -0.3320  2.2353
 4134TIP3    H233962   5.522   1.004   2.948 -1.1273 -0.2667  1.9928
 4135TIP3   OH233963   6.813   4.180   0.138  0.1576  0.3096  0.4380
 4135TIP3    H133964   6.750   4.184   0.066  0.2186  0.8722  0.4105
 4135TIP3    H233965   6.787   4.250   0.197  0.6576  0.4403  0.5064
 4136TIP3   OH233966   3.032   3.520   0.660 -0.7168  0.2517 -0.3770
 4136TIP3    H133967   3.121   3.550   0.676 -1.5247  2.3530  0.6367
 4136TIP3    H233968   2.992   3.514   0.747 -1.5568 -0.7396 -0.7987
 4137TIP3   OH233969   2.653   0.705   7.529 -0.2356 -0.0763  0.0446
 4137TIP3    H133970   2.640   0.618   7.489 -0.0182  0.1797 -0.5988
 4137TIP3    H233971   2.734   0.697   7.578 -1.8489 -1.2106  2.7536
 4138TIP3   OH233972   5.534   3.116   0.510  0.9446  0.0166  0.0965
 4138TIP3    H133973   5.447   3.113   0.551  1.1063  1.3891  0.6022
 4138TIP3    H233974   5.523   3.067   0.429 -0.7985  1.5472 -0.6817
 4139TIP3   OH233975   2.411   2.814   2.366 -0.0508  0.4201 -0.4369
 4139TIP3    H133976   2.491   2.792   2.318 -0.2187 -0.5037 -0.3269
 4139TIP3    H233977   2.415   2.759   2.445 -0.8881  0.1923 -0.5390
 4140TIP3   OH233978   2.793   0.784   0.837 -0.7404 -0.2822 -0.3774
 4140TIP3    H133979   2.784   0.715   0.903 -2.3247  0.4594  0.2456
 4140TIP3    H233980   2.866   0.837   0.869 -0.9798 -0.3845  0.3700
 4141TIP3   OH233981   1.496   3.445   8.409 -0.1764  0.6065  0.3280
 4141TIP3    H133982   1.554   3.371   8.397 -2.0555 -0.7413 -1.0858
 4141TIP3    H233983   1.449   3.453   8.326  0.6033  4.0347  0.0402
 4142TIP3   OH233984   2.390   2.520   1.987 -0.2276  0.3089 -0.5982
 4142TIP3    H133985   2.342   2.530   1.904 -3.4529  0.9552  1.1751
 4142TIP3    H233986   2.413   2.609   2.012 -0.5892  0.2694 -0.1134
 4143TIP3   OH233987   6.682   6.121   0.066 -0.4544  0.7577  0.0707
 4143TIP3    H133988   6.595   6.141   0.032 -1.5380 -1.2452  1.4480
 4143TIP3    H233989   6.692   6.180   0.141 -0.5563  1.0878 -0.1733
 4144TIP3   OH233990   1.978   6.576   6.941  0.1549 -0.2162 -0.6616
 4144TIP3    H133991   1.998   6.646   7.002 -0.2386 -1.2712  0.7458
 4144TIP3    H233992   2.026   6.598   6.861  0.3186  1.4360 -0.1334
 4145TIP3   OH233993   4.106   2.683   1.003  0.2088 -0.3178  0.5271
 4145TIP3    H133994   4.112   2.740   0.926  1.1148 -1.2624 -0.1158
 4145TIP3    H233995   4.193   2.645   1.012 -0.3101 -1.4152  1.0929
 4146TIP3   OH233996   4.068   1.583   0.293 -0.0743 -0.2108 -0.5296
 4146TIP3    H133997   4.159   1.605   0.274 -0.2090  2.5349  1.3400
 4146TIP3    H233998   4.029   1.566   0.207  2.1062 -1.2300 -1.3908
 4147TIP3   OH233999   3.243   6.434   1.295 -0.3464  0.0980 -0.6251
 4147TIP3    H134000   3.233   6.529   1.302 -0.4438  0.0389  0.1181
 4147TIP3    H234001   3.192   6.399   1.368  0.3059 -0.4866 -0.4407
 4148TIP3   OH234002   4.868   6.177   7.872  0.6234 -0.0103 -0.3527
 4148TIP3    H134003   4.958   6.145   7.880  0.3025 -0.7019  0.7512
 4148TIP3    H234004   4.815   6.098   7.864  0.0550  0.3573 -0.2939
 4149TIP3   OH234005   3.046   4.436   0.365 -0.9996  0.3363 -0.0323
 4149TIP3    H134006   2.989   4.431   0.441 -0.0807 -0.2467  0.6318
 4149TIP3    H234007   3.119   4.492   0.393 -0.8551  0.4541 -0.6206
 4150TIP3   OH234008   5.637   1.617   1.632  0.0018 -0.0519 -0.5746
 4150TIP3    H134009   5.554   1.575   1.654  0.6060 -0.7513  0.4101
 4150TIP3    H234010   5.618   1.711   1.639 -1.1506 -0.1376 -2.0523
 4151TIP3   OH234011   3.735   5.965   1.586 -0.0265 -0.3243  0.5769
 4151TIP3    H134012   3.793   6.041   1.574  0.4497 -0.8219 -0.3366
 4151TIP3    H234013   3.668   5.997   1.647 -1.5246  1.8041 -1.9800
 4152TIP3   OH234014   4.286   6.460   1.489  0.7094 -0.5606 -0.0132
 4152TIP3    H134015   4.317   6.400   1.558  1.4637  0.3931  0.5123
 4152TIP3    H234016   4.227   6.520   1.535 -0.7451 -1.4119 -0.7105
 4153TIP3   OH234017   2.592   1.092   1.819 -0.2356  0.0043 -0.1074
 4153TIP3    H134018   2.538   1.153   1.869 -0.9910  0.3680 -1.3124
 4153TIP3    H234019   2.531   1.022   1.793  0.3452 -0.6420  0.2269
 4154TIP3   OH234020   0.869   1.744   8.566  0.6166 -0.1440 -0.7578
 4154TIP3    H134021   0.879   1.813   8.500 -0.1782  1.5779  0.8214
 4154TIP3    H234022   0.836   1.669   8.518  0.9394  0.7467 -2.4600
 4155TIP3   OH234023   0.413   0.913   7.688  0.2004  0.0292  0.5803
 4155TIP3    H134024   0.414   0.837   7.630 -0.8179  0.5729 -0.1657
 4155TIP3    H234025   0.350   0.973   7.649 -0.1821  0.6079  2.0082
 4156TIP3   OH234026   6.324   6.486   7.834  0.2302 -0.2706 -0.1410
 4156TIP3    H134027   6.233   6.489   7.805  0.2626  0.7208 -0.1936
 4156TIP3    H234028   6.327   6.414   7.897 -0.7241  0.0442  0.2878
 4157TIP3   OH234029   0.451   3.173   0.892  0.0283 -0.6761  0.0852
 4157TIP3    H134030   0.357   3.162   0.904 -0.1354 -0.3309 -0.8072
 4157TIP3    H234031   0.481   3.087   0.862 -0.1655 -0.5318 -0.5404
 4158TIP3   OH234032   0.813   1.729   0.597  0.3274  0.2492 -0.3611
 4158TIP3    H134033   0.902   1.723   0.630  0.3076  0.3913 -0.2804
 4158TIP3    H234034   0.813   1.805   0.538  0.5450 -0.4544 -1.2849
 4159TIP3   OH234035   0.174   2.208   0.526 -0.0865 -0.1426 -0.0946
 4159TIP3    H134036   0.159   2.154   0.448 -0.6227  1.4671 -1.1602
 4159TIP3    H234037   0.087   2.219   0.564  0.0148  0.0368  0.0845
 4160TIP3   OH234038   3.629   0.488   0.744  0.3254 -0.1453 -0.8538
 4160TIP3    H134039   3.672   0.481   0.659 -3.1255 -1.6716 -2.7235
 4160TIP3    H234040   3.648   0.405   0.788 -0.5612 -0.7936 -1.6487
 4161TIP3   OH234041   6.754   2.879   1.691 -0.2291 -0.2933 -0.0976
 4161TIP3    H134042   6.797   2.844   1.768 -0.4352  0.2377  0.2655
 4161TIP3    H234043   6.683   2.933   1.725  0.3888  0.8968 -0.6126
 4162TIP3   OH234044   2.192   3.894   2.343  0.1463 -0.1424 -0.2904
 4162TIP3    H134045   2.192   3.830   2.272 -0.0674 -0.9980  0.4599
 4162TIP3    H234046   2.272   3.945   2.330 -0.5788  0.6534 -1.9394
 4163TIP3   OH234047   3.649   2.452   0.796  0.4789 -0.0201 -0.2561
 4163TIP3    H134048   3.555   2.460   0.780  0.1328 -1.2052  1.0344
 4163TIP3    H234049   3.661   2.488   0.883  0.4826 -3.6668  1.4056
 4164TIP3   OH234050   1.007   0.274   1.940  0.9960 -0.2476  0.5631
 4164TIP3    H134051   0.969   0.245   2.022 -1.2765  0.3807 -0.2040
 4164TIP3    H234052   0.973   0.214   1.874  0.5350  0.8896 -0.2790
 4165TIP3   OH234053   1.393   3.515   7.774  0.1814 -0.2746 -0.0259
 4165TIP3    H134054   1.413   3.428   7.809 -2.3126 -0.3036  1.5659
 4165TIP3    H234055   1.389   3.503   7.680 -0.1025 -1.9007  0.1675
 4166TIP3   OH234056   0.211   6.262   6.636 -0.0011  0.1674 -0.1684
 4166TIP3    H134057   0.163   6.296   6.561  0.0112  0.5161 -0.0223
 4166TIP3    H234058   0.178   6.173   6.648  1.2568 -0.5509 -1.6606
 4167TIP3   OH234059   5.342   3.136   0.710  0.4577 -0.0751 -0.1571
 4167TIP3    H134060   5.314   3.063   0.766 -0.1115 -0.7047 -1.2206
 4167TIP3    H234061   5.271   3.200   0.716  0.1683 -0.3560 -0.5224
 4168TIP3   OH234062   0.558   6.106   7.735 -0.2708 -0.3700  0.4029
 4168TIP3    H134063   0.639   6.056   7.745  0.5643  0.9676  0.6090
 4168TIP3    H234064   0.578   6.172   7.668 -0.5800  1.1146  1.7053
 4169TIP3   OH234065   0.165   5.778   1.326 -0.0584  0.0343  0.3975
 4169TIP3    H134066   0.140   5.797   1.416 -1.9413  0.2097 -0.1164
 4169TIP3    H234067   0.257   5.803   1.321 -0.4690  2.0146  1.7158
 4170TIP3   OH234068   2.535   0.009   7.914 -0.2391 -0.3425  0.6193
 4170TIP3    H134069   2.497  -0.078   7.928 -2.4128  0.6562  1.3440
 4170TIP3    H234070   2.594  -0.002   7.840 -0.6313 -2.3768  0.5590
 4171TIP3   OH234071   3.485   0.527   8.111  0.3594 -0.4787 -0.4633
 4171TIP3    H134072   3.474   0.598   8.174  0.6762 -0.4135 -0.4839
 4171TIP3    H234073   3.448   0.562   8.030 -0.4600 -0.7232 -0.2092
 4172TIP3   OH234074   5.273   0.033   2.239 -0.2639  0.1934  0.0484
 4172TIP3    H134075   5.186   0.052   2.205  0.7621 -0.2913 -3.2813
 4172TIP3    H234076   5.287  -0.060   2.221  1.0887  0.3586  0.1062
 4173TIP3   OH234077   5.808   4.622   0.680 -0.4515 -0.4510 -0.5533
 4173TIP3    H134078   5.740   4.646   0.743 -0.5300 -1.5125 -0.2132
 4173TIP3    H234079   5.886   4.605   0.733 -0.1289 -0.0195 -0.8734
 4174TIP3   OH234080   1.668   1.509   2.310 -0.1838  0.5198  0.3054
 4174TIP3    H134081   1.719   1.481   2.386  0.6909  0.1212 -0.4059
 4174TIP3    H234082   1.633   1.427   2.274 -2.5455  0.8766  1.5723
 4175TIP3   OH234083   3.915   1.664   1.954 -0.3626  0.5208 -0.3627
 4175TIP3    H134084   3.905   1.666   2.050 -2.1572 -0.6166 -0.4623
 4175TIP3    H234085   3.948   1.751   1.932 -0.5678  1.0559  1.2416
 4176TIP3   OH234086   3.324   4.476   1.658 -0.7046 -0.7830  0.9006
 4176TIP3    H134087   3.362   4.424   1.729 -0.6685 -2.5349 -0.3563
 4176TIP3    H234088   3.234   4.443   1.650 -0.6190 -0.7970 -0.0558
 4177TIP3   OH234089   1.394   5.832   8.405 -0.9685  0.2339  0.3135
 4177TIP3    H134090   1.459   5.844   8.336  0.4764 -0.3183  1.5260
 4177TIP3    H234091   1.364   5.741   8.395  0.3772 -0.3540  1.3045
 4178TIP3   OH234092   6.509   1.159   8.082 -0.2214  0.0965  0.6244
 4178TIP3    H134093   6.424   1.198   8.102 -0.6778 -1.1915  1.3171
 4178TIP3    H234094   6.571   1.206   8.138 -0.5211  0.8014  0.3777
 4179TIP3   OH234095   5.352   6.214   2.820 -0.0578  0.1991 -0.0586
 4179TIP3    H134096   5.439   6.186   2.790  0.6527  2.6823 -0.5092
 4179TIP3    H234097   5.370   6.283   2.884 -1.6971  1.4338 -0.8737
 4180TIP3   OH234098   5.930   3.092   7.832  0.1099  0.3565 -0.7292
 4180TIP3    H134099   6.025   3.074   7.832 -0.1199 -1.0278 -0.9896
 4180TIP3    H234100   5.891   3.009   7.804 -1.2013  0.8333 -0.3648
 4181TIP3   OH234101   3.498   4.312   0.568 -0.4515  0.0379  0.5769
 4181TIP3    H134102   3.517   4.228   0.525 -0.8034 -0.2985  1.0626
 4181TIP3    H234103   3.532   4.378   0.507  0.7619 -0.4788  0.6595
 4182TIP3   OH234104   4.319   1.069   6.994 -0.7225 -0.0235  0.0494
 4182TIP3    H134105   4.305   0.977   7.016 -0.7603  0.0583  0.3702
 4182TIP3    H234106   4.405   1.072   6.952 -0.9481 -0.2830 -0.4357
 4183TIP3   OH234107   1.021   2.332   0.656 -0.0644 -0.1612 -0.6167
 4183TIP3    H134108   1.012   2.379   0.573 -0.9035  0.5320 -0.1560
 4183TIP3    H234109   1.059   2.396   0.716  0.7942 -0.7405 -0.5281
 4184TIP3   OH234110   4.657   1.498   1.748  0.4721 -0.0622 -0.1908
 4184TIP3    H134111   4.575   1.476   1.705  0.4841  0.1111 -0.3025
 4184TIP3    H234112   4.641   1.481   1.841 -0.1125  1.2092 -0.0491
 4185TIP3   OH234113   1.572   1.436   0.493 -0.1043  0.4015 -0.1164
 4185TIP3    H134114   1.590   1.387   0.413 -0.5518  0.6953 -0.3987
 4185TIP3    H234115   1.586   1.373   0.563  1.0000  0.3281 -0.3810
 4186TIP3   OH234116   2.406   5.747   1.746  0.0540 -0.7603  0.1848
 4186TIP3    H134117   2.453   5.810   1.690  0.0106 -0.9845 -0.1082
 4186TIP3    H234118   2.372   5.800   1.818 -2.6459  0.1865 -1.5993
 4187TIP3   OH234119   6.532   6.258   6.986 -0.1052 -0.2510  0.3686
 4187TIP3    H134120   6.625   6.240   7.002  0.1572 -0.7436 -1.5224
 4187TIP3    H234121   6.532   6.343   6.942 -0.4626 -0.6682 -0.4548
 4188TIP3   OH234122   5.854   6.674   8.121 -0.3564  0.2613 -0.2426
 4188TIP3    H134123   5.797   6.750   8.126 -0.5851  0.0615  0.2967
 4188TIP3    H234124   5.845   6.632   8.207  0.7903  0.3690 -0.0564
 4189TIP3   OH234125   2.296   6.842   6.876  0.7471 -0.5887 -0.6600
 4189TIP3    H134126   2.252   6.878   6.953 -0.2907 -0.3309 -1.3521
 4189TIP3    H234127   2.349   6.914   6.843  0.8582 -0.5644 -0.4274
 4190TIP3   OH234128   3.327   4.663   0.120  0.0170 -0.3430 -0.3120
 4190TIP3    H134129   3.263   4.718   0.074 -0.3569 -1.2676 -0.9231
 4190TIP3    H234130   3.411   4.701   0.096 -0.2639  0.5446  0.0488
 4191TIP3   OH234131   2.630   2.424   2.096 -0.7509 -0.0534  0.7177
 4191TIP3    H134132   2.632   2.461   2.184  0.0784  0.1516  0.6289
 4191TIP3    H234133   2.579   2.485   2.044 -0.4074  0.3432  0.8426
 4192TIP3   OH234134   6.364   3.489   1.250  0.5798  0.6220  0.3229
 4192TIP3    H134135   6.378   3.582   1.234 -0.4032  0.8340  0.6097
 4192TIP3    H234136   6.272   3.474   1.227  0.6692 -0.2337  0.4791
 4193TIP3   OH234137   6.667   1.571   2.251 -0.1334 -0.0872 -0.1386
 4193TIP3    H134138   6.668   1.484   2.292  0.4487 -0.9737 -1.9057
 4193TIP3    H234139   6.708   1.628   2.315 -3.0975 -0.4508  2.3158
 4194TIP3   OH234140   2.611   1.886   8.005 -0.0834 -0.5921  0.0421
 4194TIP3    H134141   2.675   1.954   8.023  0.2617 -0.9556  0.2171
 4194TIP3    H234142   2.660   1.820   7.956 -0.3013 -0.9043  0.2405
 4195TIP3   OH234143   0.424   3.446   1.150  0.1120  0.5918 -0.6619
 4195TIP3    H134144   0.446   3.537   1.166 -0.8624  1.0199 -1.6575
 4195TIP3    H234145   0.502   3.409   1.108  1.0291  0.5778  0.9855
 4196TIP3   OH234146   3.503   0.848   7.370 -0.1003  0.0446  0.7340
 4196TIP3    H134147   3.579   0.798   7.341 -0.3263 -0.2508  0.6492
 4196TIP3    H234148   3.466   0.797   7.442  1.1145  1.3386  2.3450
 4197TIP3   OH234149   3.644   6.074   1.060  0.4414  0.0125 -0.1371
 4197TIP3    H134150   3.701   6.089   1.135  1.3813 -0.8066 -0.6575
 4197TIP3    H234151   3.571   6.023   1.094 -0.2874  1.5171  0.6461
 4198TIP3   OH234152   3.320   5.976   7.958 -0.2786  0.0398  0.0437
 4198TIP3    H134153   3.303   6.031   8.035  0.0056  0.4960 -0.2138
 4198TIP3    H234154   3.334   5.889   7.993  0.8325  0.4235  0.6104
 4199TIP3   OH234155   1.604   0.488   7.713  0.2744  0.3997  0.4578
 4199TIP3    H134156   1.601   0.410   7.768  2.0024 -1.1126 -1.4405
 4199TIP3    H234157   1.663   0.548   7.758  2.1001 -1.0307  0.0784
 4200TIP3   OH234158   4.469   3.314   7.311 -0.1708 -0.6572 -0.0737
 4200TIP3    H134159   4.558   3.347   7.311 -0.1400 -0.4125 -3.3056
 4200TIP3    H234160   4.468   3.247   7.243 -2.6396  0.0047 -0.8135
 4201TIP3   OH234161   0.135   1.303   1.997  1.0041 -0.7744 -0.4686
 4201TIP3    H134162   0.067   1.247   2.034  1.8211 -2.1077 -0.8918
 4201TIP3    H234163   0.154   1.367   2.065 -1.6761  0.5858 -0.8868
 4202TIP3   OH234164   6.863   5.957   2.264 -0.3285 -0.3165  0.1338
 4202TIP3    H134165   6.863   5.965   2.169  1.7377 -0.7770  0.0454
 4202TIP3    H234166   6.852   5.863   2.280  2.7388 -0.7545  0.1685
 4203TIP3   OH234167   0.409   4.600   0.078 -0.5321 -0.6468  0.2954
 4203TIP3    H134168   0.397   4.670   0.014 -1.0906 -1.6704 -0.7535
 4203TIP3    H234169   0.324   4.593   0.121 -0.3046 -0.3000  0.8100
 4204TIP3   OH234170   2.028   5.361   8.623 -0.2943 -0.3015  0.3018
 4204TIP3    H134171   1.979   5.378   8.703  1.1962 -0.5424  1.3061
 4204TIP3    H234172   2.119   5.374   8.648  0.1856 -0.1068 -1.4409
 4205TIP3   OH234173   4.942   4.101   7.764  0.0158  0.1142 -0.6257
 4205TIP3    H134174   4.944   4.151   7.683  0.6329  0.4478 -0.4102
 4205TIP3    H234175   4.871   4.141   7.815 -1.3322 -1.0116 -1.5605
 4206TIP3   OH234176   2.006   1.477   8.116 -0.1075 -0.7211  0.0528
 4206TIP3    H134177   1.973   1.537   8.183  0.7641  0.1283 -0.2578
 4206TIP3    H234178   2.020   1.532   8.039  1.9884 -1.0072  0.1676
 4207TIP3   OH234179   4.295   0.359   7.539  0.1480  0.1592  0.4005
 4207TIP3    H134180   4.257   0.341   7.626 -0.2008  1.3473  0.5179
 4207TIP3    H234181   4.343   0.279   7.517 -0.0641 -0.3057  1.5246
 4208TIP3   OH234182   2.935   0.492   0.306  0.7927 -0.1615  0.6123
 4208TIP3    H134183   2.949   0.426   0.374  1.5629 -0.6555 -0.0150
 4208TIP3    H234184   2.986   0.461   0.231  1.4348  1.3103  0.4130
 4209TIP3   OH234185   4.168   6.339   0.194 -0.1267 -0.4754 -0.0898
 4209TIP3    H134186   4.152   6.423   0.152  1.9856  0.2281  0.3918
 4209TIP3    H234187   4.106   6.336   0.267 -2.2296 -0.6928 -1.7582
 4210TIP3   OH234188   6.310   2.486   8.469 -0.0439  0.0746 -0.0965
 4210TIP3    H134189   6.342   2.402   8.436 -1.7377 -0.5656 -0.2057
 4210TIP3    H234190   6.214   2.478   8.468 -0.2587  2.0518 -0.2089
 4211TIP3   OH234191   5.908   2.682   6.676 -0.1555 -0.4255  0.2052
 4211TIP3    H134192   5.981   2.720   6.725 -0.1770 -0.7151  0.4629
 4211TIP3    H234193   5.931   2.696   6.584 -0.8242  1.4979  0.2764
 4212TIP3   OH234194   5.030   1.286   2.183 -0.6760  0.6108 -0.4512
 4212TIP3    H134195   5.005   1.198   2.210 -1.2152  0.1900 -2.1794
 4212TIP3    H234196   5.124   1.290   2.201 -0.6355 -0.3299 -0.3651
 4213TIP3   OH234197   4.532   5.728   6.243  0.4281  0.5225 -0.4242
 4213TIP3    H134198   4.465   5.721   6.311  0.4900  0.1489 -0.4006
 4213TIP3    H234199   4.527   5.819   6.214 -0.1280  0.4890 -0.4565
 4214TIP3   OH234200   6.522   4.427   7.868 -0.0993  0.4280 -0.4144
 4214TIP3    H134201   6.499   4.372   7.794  2.3888 -1.4525  0.0662
 4214TIP3    H234202   6.548   4.510   7.828  1.4266 -0.6265 -1.7472
 4215TIP3   OH234203   5.487   6.143   6.798 -0.3728 -0.5267  0.2929
 4215TIP3    H134204   5.577   6.126   6.824 -0.0064  0.7828 -0.0465
 4215TIP3    H234205   5.478   6.238   6.801 -1.1892 -0.5020 -1.4115
 4216TIP3   OH234206   4.260   2.382   0.852 -0.0991  0.4519 -0.1797
 4216TIP3    H134207   4.335   2.362   0.796 -1.0874 -0.2128 -1.3115
 4216TIP3    H234208   4.299   2.416   0.933  1.3549  2.5113 -1.6320
 4217TIP3   OH234209   4.872   6.212   8.247  0.3811  0.2572 -0.1056
 4217TIP3    H134210   4.958   6.250   8.232  2.0111 -0.0200  5.8738
 4217TIP3    H234211   4.887   6.118   8.245  0.2000  0.2059  0.5794
 4218TIP3   OH234212   4.366   6.567   2.321 -0.5962 -0.3555 -0.1098
 4218TIP3    H134213   4.436   6.526   2.371 -1.2257  1.2777  2.2732
 4218TIP3    H234214   4.288   6.558   2.375 -0.7516  3.9389  0.7656
 4219TIP3   OH234215   3.819   5.677   8.060  0.3220 -0.1473 -0.1121
 4219TIP3    H134216   3.787   5.588   8.074 -1.8253  0.8086  1.6689
 4219TIP3    H234217   3.912   5.673   8.082  0.0007 -1.7300  1.1088
 4220TIP3   OH234218   0.586   2.629   1.307  0.4760 -0.2829  0.0136
 4220TIP3    H134219   0.542   2.670   1.381 -3.7211  1.3742 -2.9930
 4220TIP3    H234220   0.579   2.535   1.323 -3.6949 -0.0956  0.2217
 4221TIP3   OH234221   1.010   2.292   0.271 -0.1766 -0.5776 -0.0571
 4221TIP3    H134222   1.027   2.339   0.189  0.2693 -0.2012  0.2456
 4221TIP3    H234223   0.969   2.210   0.243  2.7659 -1.9070 -0.9211
 4222TIP3   OH234224   3.492   1.560   1.458 -0.7955 -0.7901  0.0682
 4222TIP3    H134225   3.530   1.517   1.381 -0.0964  1.2516 -0.7790
 4222TIP3    H234226   3.428   1.497   1.491  0.3899 -2.6082 -0.9135
 4223TIP3   OH234227   2.315   6.383   0.685  0.0869 -0.3509 -0.8436
 4223TIP3    H134228   2.343   6.371   0.594 -2.8733  0.2509 -1.9729
 4223TIP3    H234229   2.265   6.304   0.705 -0.4432  0.1175 -0.2644
 4224TIP3   OH234230   2.795   2.467   2.342  0.1689 -0.5974  0.0306
 4224TIP3    H134231   2.870   2.464   2.283  0.0444 -1.1114 -0.1120
 4224TIP3    H234232   2.798   2.384   2.389 -1.6003 -1.6915 -1.6379
 4225TIP3   OH234233   2.716   1.426   1.055 -0.7217 -0.0501  0.3722
 4225TIP3    H134234   2.691   1.473   1.134 -1.6962 -1.1340  0.7474
 4225TIP3    H234235   2.760   1.347   1.086 -1.1742 -0.5237 -0.1405
 4226TIP3   OH234236   0.600   1.727   0.774 -0.3411  0.2074  1.1749
 4226TIP3    H134237   0.685   1.708   0.735 -0.1195  0.0946  1.7067
 4226TIP3    H234238   0.543   1.747   0.700 -0.5114 -2.2554  0.5586
 4227TIP3   OH234239   1.687   2.163   7.711 -0.0307  0.0675  0.0449
 4227TIP3    H134240   1.707   2.243   7.759  2.0814 -0.0709 -0.5314
 4227TIP3    H234241   1.646   2.193   7.630  2.4399  0.7466 -1.0284
 4228TIP3   OH234242   6.579   1.992   1.586 -0.0916  0.2323  0.3848
 4228TIP3    H134243   6.527   1.932   1.532  2.0257 -1.6104  0.2545
 4228TIP3    H234244   6.573   2.076   1.541 -0.2254 -0.7279 -1.4599
 4229TIP3   OH234245   1.034   1.951   0.623  0.1436 -0.5613 -0.4019
 4229TIP3    H134246   0.985   1.955   0.541 -0.6755  0.6873  0.1066
 4229TIP3    H234247   1.118   1.912   0.599 -0.5277 -1.3471 -1.5888
 4230TIP3   OH234248   3.210   2.234   8.501  0.1714 -0.4735 -0.4346
 4230TIP3    H134249   3.157   2.171   8.453  0.3088 -1.4996  0.6906
 4230TIP3    H234250   3.187   2.319   8.465 -0.6349 -1.0999 -1.4270
 4231TIP3   OH234251   0.597   1.964   0.451 -0.4241 -0.1218  0.3161
 4231TIP3    H134252   0.526   1.905   0.427 -0.5205  0.6105 -1.3204
 4231TIP3    H234253   0.561   2.016   0.523 -1.2182 -0.3889  0.1240
 4232TIP3   OH234254   3.423   4.347   1.852  0.6688  0.1012 -0.0611
 4232TIP3    H134255   3.407   4.391   1.936  0.7679 -0.3046  0.1698
 4232TIP3    H234256   3.427   4.254   1.874 -2.5958 -0.3685 -0.9783
 4233TIP3   OH234257   3.160   2.843   0.534 -0.0622 -0.0244  0.0396
 4233TIP3    H134258   3.220   2.842   0.608  0.2173  1.0982 -0.1536
 4233TIP3    H234259   3.089   2.783   0.559 -0.0667  0.4790  1.2921
 4234TIP3   OH234260   4.985   2.492   0.823 -0.2291  0.1123  0.5161
 4234TIP3    H134261   4.995   2.499   0.918 -1.2344  0.5279  0.6061
 4234TIP3    H234262   4.981   2.583   0.792  1.8216  0.0244 -0.1531
 4235TIP3   OH234263   3.557   3.578   8.414 -0.0892 -0.1193  0.1170
 4235TIP3    H134264   3.463   3.566   8.398 -0.2762  1.1419  0.1660
 4235TIP3    H234265   3.599   3.509   8.362 -0.8883  1.3335 -2.6360
 4236TIP3   OH234266   1.283   4.228   7.671  0.2552 -0.3993 -0.7686
 4236TIP3    H134267   1.331   4.149   7.697 -0.6988 -0.6450  0.3190
 4236TIP3    H234268   1.269   4.276   7.753  0.3823  0.6691 -1.3451
 4237TIP3   OH234269   3.484   6.803   1.820  0.1330 -0.2056  0.0192
 4237TIP3    H134270   3.494   6.758   1.736 -1.2905  0.2750 -0.4240
 4237TIP3    H234271   3.574   6.823   1.847  0.8326 -2.9426  0.0569
 4238TIP3   OH234272   0.003   1.026   0.471  0.5636 -0.0373 -0.1372
 4238TIP3    H134273  -0.019   0.932   0.477 -3.0158  0.6287 -0.3071
 4238TIP3    H234274   0.025   1.050   0.561 -2.1424 -0.4107  0.7317
 4239TIP3   OH234275   5.440   5.666   7.096  0.2294  0.7724 -0.1883
 4239TIP3    H134276   5.535   5.655   7.101  0.4315  2.1923 -0.5358
 4239TIP3    H234277   5.420   5.728   7.166 -0.2795  1.3809 -0.8576
 4240TIP3   OH234278   3.764   3.864   2.222  0.2067  0.7694 -0.1553
 4240TIP3    H134279   3.716   3.933   2.175  0.5707  1.4220  0.4211
 4240TIP3    H234280   3.780   3.797   2.155 -2.9570 -0.2758 -0.0550
 4241TIP3   OH234281   2.829   5.996   7.094  0.1230  0.1931  0.2417
 4241TIP3    H134282   2.912   6.038   7.116  0.5748 -1.3458  1.7330
 4241TIP3    H234283   2.844   5.955   7.009 -0.2373  2.6745 -1.0984
 4242TIP3   OH234284   4.400   1.973   7.864  0.1154 -0.6791 -0.4961
 4242TIP3    H134285   4.346   2.026   7.923 -1.8186  0.0593 -2.7800
 4242TIP3    H234286   4.426   1.897   7.916  1.9181  1.7521  2.5300
 4243TIP3   OH234287   3.685   5.843   7.904  0.0534 -0.4951 -1.3632
 4243TIP3    H134288   3.732   5.806   7.978 -0.2952 -1.0083 -1.3974
 4243TIP3    H234289   3.718   5.933   7.897 -0.1668 -0.3271 -0.3720
 4244TIP3   OH234290   3.481   5.340   7.781 -0.0436 -0.3255  0.0496
 4244TIP3    H134291   3.386   5.351   7.773  0.3369  2.1893 -2.1670
 4244TIP3    H234292   3.517   5.427   7.769  2.6438 -1.3812 -0.3651
 4245TIP3   OH234293   0.278   6.162   0.065 -0.2059  0.3647  0.1401
 4245TIP3    H134294   0.289   6.074   0.101 -0.6706  0.1367 -0.2745
 4245TIP3    H234295   0.321   6.159  -0.020  0.3179  0.7197  0.3850
 4246TIP3   OH234296   5.005   1.068   2.960  0.4101 -0.1655 -0.1804
 4246TIP3    H134297   4.987   0.999   3.023  0.5020  0.6300  0.7322
 4246TIP3    H234298   4.939   1.055   2.892 -0.2539 -0.5039  0.5096
 4247TIP3   OH234299   0.117   4.076   0.809  0.0579 -0.1894  0.8470
 4247TIP3    H134300   0.075   4.069   0.895 -0.2467  0.4548  0.7597
 4247TIP3    H234301   0.193   4.019   0.814 -2.0066 -3.2100  0.2604
 4248TIP3   OH234302   0.282   2.122   8.298 -0.5891 -0.1435 -0.2599
 4248TIP3    H134303   0.362   2.150   8.342 -0.2235 -1.9085  0.3147
 4248TIP3    H234304   0.313   2.062   8.230 -1.3497  0.1594 -0.8788
 4249TIP3   OH234305   0.309   1.306   2.267 -0.2406  0.2004 -0.4741
 4249TIP3    H134306   0.296   1.393   2.229 -1.9666 -0.2676 -1.0399
 4249TIP3    H234307   0.391   1.276   2.230  1.1193  2.1183  0.8019
 4250TIP3   OH234308   0.945   2.756   1.690  0.1394  0.0369 -0.2446
 4250TIP3    H134309   0.932   2.776   1.783 -0.6862 -0.5260 -0.2262
 4250TIP3    H234310   0.943   2.840   1.646 -0.8953  0.1971  0.0929
 4251TIP3   OH234311   2.711   0.929   8.522  0.0708 -0.3329  0.4928
 4251TIP3    H134312   2.741   0.905   8.609 -0.2614 -1.2914  0.3590
 4251TIP3    H234313   2.731   0.852   8.467 -1.6343 -0.6048  0.1890
 4252TIP3   OH234314   5.510   6.158   1.362 -1.0196 -0.4439  0.2614
 4252TIP3    H134315   5.526   6.122   1.275 -0.2811  0.4884 -0.0142
 4252TIP3    H234316   5.451   6.231   1.348  0.7911  1.0868  0.2050
 4253TIP3   OH234317   1.230   1.841   0.431 -0.5432  0.1943  0.2798
 4253TIP3    H134318   1.172   1.767   0.449  0.6564 -1.0787 -0.9041
 4253TIP3    H234319   1.313   1.801   0.405  0.1024  1.9607 -0.5008
 4254TIP3   OH234320   3.380   2.649   0.631  0.7287 -0.1519 -0.0510
 4254TIP3    H134321   3.397   2.563   0.592  1.2499 -0.4176  0.7492
 4254TIP3    H234322   3.433   2.709   0.578  1.5787 -0.5343  0.3448
 4255TIP3   OH234323   3.107   2.697   0.939 -0.9895 -0.3817  0.7025
 4255TIP3    H134324   3.134   2.622   0.886  0.5731  1.2156 -0.9062
 4255TIP3    H234325   3.024   2.725   0.902  0.5876  1.3822 -1.8266
 4256TIP3   OH234326   4.365   2.645   8.194  0.2307  0.2601 -0.4688
 4256TIP3    H134327   4.292   2.661   8.134  0.9971 -0.7404 -1.7266
 4256TIP3    H234328   4.367   2.550   8.203  1.7322  0.2319 -0.9363
 4257TIP3   OH234329   2.923   2.453   2.618  0.0357  0.5031 -0.4419
 4257TIP3    H134330   2.881   2.514   2.557  1.2179  0.8003 -0.9762
 4257TIP3    H234331   2.897   2.367   2.587 -1.0788  0.7016 -0.1006
 4258TIP3   OH234332   6.565   5.751   2.262  0.0322  0.0017 -0.2607
 4258TIP3    H134333   6.564   5.759   2.167  2.2479  1.5780 -0.2391
 4258TIP3    H234334   6.595   5.837   2.293 -0.6967 -0.4490  1.8706
 4259TIP3   OH234335   4.696   2.440   2.285 -0.1999  0.4589 -0.3834
 4259TIP3    H134336   4.650   2.358   2.306 -1.3480  0.6987 -1.7959
 4259TIP3    H234337   4.786   2.425   2.314 -0.4142 -1.2513 -0.4777
 4260TIP3   OH234338   5.963   2.463   1.688  0.0968 -0.5771  0.4630
 4260TIP3    H134339   5.940   2.375   1.718 -0.1194 -0.6880 -0.0144
 4260TIP3    H234340   5.879   2.506   1.675  0.2078 -0.1877  1.0095
 4261TIP3   OH234341   1.176   2.869   2.494 -0.3639  0.0802 -0.1048
 4261TIP3    H134342   1.120   2.813   2.440 -0.4238  1.1158 -1.1694
 4261TIP3    H234343   1.143   2.957   2.478  1.5051  0.7220 -0.7055
 4262TIP3   OH234344   6.363   6.683   0.106  0.6579 -0.8475  0.1907
 4262TIP3    H134345   6.296   6.696   0.039 -0.1609 -0.8016  1.0029
 4262TIP3    H234346   6.316   6.647   0.180  1.7360 -1.8820  0.3965
 4263TIP3   OH234347   4.295   4.328   8.491 -0.3887 -0.3043  0.2638
 4263TIP3    H134348   4.254   4.341   8.406 -2.2285 -0.1476  1.1279
 4263TIP3    H234349   4.260   4.398   8.546  0.0539 -0.9495  1.4011
 4264TIP3   OH234350   1.717   1.147   2.444  0.3009  0.1313 -0.2162
 4264TIP3    H134351   1.787   1.155   2.509  0.2123  1.1209 -0.2225
 4264TIP3    H234352   1.668   1.069   2.470  1.3148 -0.4896 -0.1229
 4265TIP3   OH234353   6.300   5.492   0.447  0.5023 -0.1151 -0.1691
 4265TIP3    H134354   6.219   5.529   0.483  0.3137 -0.0189 -0.6810
 4265TIP3    H234355   6.342   5.565   0.402  0.7782 -0.2123 -0.0710
 4266TIP3   OH234356   1.928   5.261   2.128 -0.0712  0.3690  0.7983
 4266TIP3    H134357   1.867   5.300   2.191 -0.9960  0.2544  0.0029
 4266TIP3    H234358   1.872   5.230   2.057  1.0914  2.1356 -0.9776
 4267TIP3   OH234359   3.978   5.701   0.175 -0.1869  0.2107 -0.2774
 4267TIP3    H134360   3.978   5.785   0.221  1.5246  1.2495 -1.9790
 4267TIP3    H234361   4.051   5.653   0.214 -0.1774  0.1575 -0.3612
 4268TIP3   OH234362   6.472   0.714   0.706  0.5963 -0.4628  0.5011
 4268TIP3    H134363   6.526   0.789   0.680  0.7591 -1.0623 -0.9743
 4268TIP3    H234364   6.407   0.751   0.765 -1.6761  1.6471 -2.9859
 4269TIP3   OH234365   4.717   3.426   7.814 -0.3622  0.2151 -0.4072
 4269TIP3    H134366   4.754   3.514   7.817  0.3274 -0.0598 -0.6949
 4269TIP3    H234367   4.644   3.429   7.876  1.1068  0.3302  1.4157
 4270TIP3   OH234368   6.495   5.490   7.463  0.0816  0.0573  0.0611
 4270TIP3    H134369   6.459   5.541   7.390 -0.9305 -0.4200  0.2085
 4270TIP3    H234370   6.458   5.530   7.541 -0.0595 -0.3831  0.2222
 4271TIP3   OH234371   3.788   2.841   7.576 -0.5793 -0.1899 -0.2914
 4271TIP3    H134372   3.784   2.836   7.671 -1.3414  0.1700 -0.2937
 4271TIP3    H234373   3.866   2.892   7.557 -0.5054 -0.1413  0.1488
 4272TIP3   OH234374   6.100   3.155   8.215 -0.0897 -0.0822  0.0719
 4272TIP3    H134375   6.097   3.212   8.138 -1.1351  0.1432  0.2551
 4272TIP3    H234376   6.035   3.193   8.274 -0.9132 -1.5377  0.1422
 4273TIP3   OH234377   3.413   1.846   6.797 -0.4495  0.2081  0.2142
 4273TIP3    H134378   3.353   1.812   6.863  0.6080  1.0772  1.6737
 4273TIP3    H234379   3.487   1.881   6.847  0.8002  0.1054 -1.4804
 4274TIP3   OH234380   4.908   3.890   1.882 -0.2864 -0.6233  0.0954
 4274TIP3    H134381   4.817   3.882   1.851 -0.8536  0.5382  1.3442
 4274TIP3    H234382   4.938   3.800   1.894 -1.5811 -1.0203  0.5043
 4275TIP3   OH234383   1.146   4.273   7.905  0.2393  0.4474  0.5751
 4275TIP3    H134384   1.114   4.186   7.929 -1.6408  0.8162 -0.3858
 4275TIP3    H234385   1.069   4.317   7.869  1.8715  1.4424 -1.8940
 4276TIP3   OH234386   5.576   0.249   0.430 -0.1220  0.7884  0.0877
 4276TIP3    H134387   5.486   0.229   0.456  1.1989 -0.7194  4.3402
 4276TIP3    H234388   5.589   0.340   0.458  0.2442  0.2838  1.6895
 4277TIP3   OH234389   0.278   4.621   0.501  0.3432 -0.0177 -0.3779
 4277TIP3    H134390   0.197   4.571   0.509  0.3785 -0.0021  0.1077
 4277TIP3    H234391   0.262   4.701   0.551  0.8490 -0.2625  0.1991
 4278TIP3   OH234392   6.175   0.631   1.104  0.1582 -0.3689 -0.1264
 4278TIP3    H134393   6.089   0.590   1.110 -0.3236  0.8067  2.1683
 4278TIP3    H234394   6.237   0.558   1.097 -0.8194 -1.3903  1.4619
 4279TIP3   OH234395   0.723   1.559   7.753 -0.4580  0.1458  0.3358
 4279TIP3    H134396   0.767   1.624   7.808 -0.3446  1.4537 -1.2291
 4279TIP3    H234397   0.792   1.524   7.697 -1.1898  1.7868 -1.7339
 4280TIP3   OH234398   6.515   4.858   1.868  0.3568  0.0838 -0.2477
 4280TIP3    H134399   6.509   4.797   1.794 -0.1348 -0.8133  0.5115
 4280TIP3    H234400   6.427   4.895   1.876  0.6190  0.8313 -0.6210
 4281TIP3   OH234401   2.486   0.947   7.432 -0.2613  0.6058  0.1840
 4281TIP3    H134402   2.425   0.879   7.404  1.1122 -0.1864 -1.0033
 4281TIP3    H234403   2.523   0.914   7.514 -1.1550  0.9255  0.7203
 4282TIP3   OH234404   3.196   6.325   0.790  0.0216 -0.2778 -0.3670
 4282TIP3    H134405   3.211   6.361   0.877  0.0584 -1.4533  0.1292
 4282TIP3    H234406   3.265   6.260   0.778 -0.6398 -0.9099 -0.8199
 4283TIP3   OH234407   2.241   0.513   1.751  0.2652 -0.2768  0.2545
 4283TIP3    H134408   2.307   0.474   1.808  0.6867 -1.0036 -0.6980
 4283TIP3    H234409   2.176   0.549   1.811  0.0099 -2.1817  1.2082
 4284TIP3   OH234410   5.641   4.619   8.358  0.2543  0.4842  0.9829
 4284TIP3    H134411   5.711   4.594   8.418 -0.4191 -2.4517  0.6854
 4284TIP3    H234412   5.686   4.638   8.275  0.7828 -1.0718  0.8765
 4285TIP3   OH234413   5.595   0.891   7.326 -0.2875 -0.1677 -0.3727
 4285TIP3    H134414   5.562   0.951   7.259 -0.4358 -0.1750 -0.3073
 4285TIP3    H234415   5.517   0.860   7.371 -0.1001  1.0820  0.8740
 4286TIP3   OH234416   4.943   0.218   7.212 -0.4404 -0.5175 -0.2274
 4286TIP3    H134417   4.970   0.149   7.152  0.6767  0.0345 -0.3702
 4286TIP3    H234418   4.848   0.223   7.200 -0.2046 -0.1265 -2.2636
 4287TIP3   OH234419   0.412   6.812   8.511  0.4794 -0.2511 -0.1253
 4287TIP3    H134420   0.424   6.782   8.602 -0.5485  0.2968  0.2138
 4287TIP3    H234421   0.317   6.805   8.497  0.2939  2.0192 -0.3049
 4288TIP3   OH234422   3.844   2.496   1.389 -0.3633  0.2092 -0.2320
 4288TIP3    H134423   3.757   2.455   1.394 -0.1144 -0.4634 -1.1066
 4288TIP3    H234424   3.872   2.505   1.480 -0.3402 -1.8175  0.0024
 4289TIP3   OH234425   2.973   0.566   1.631  0.1835  0.4033  0.4268
 4289TIP3    H134426   2.935   0.484   1.601 -0.5681  0.8720  0.0571
 4289TIP3    H234427   3.051   0.541   1.680 -0.7284 -0.6126  1.4173
 4290TIP3   OH234428   4.979   4.300   2.053  0.3926 -0.5962 -0.0285
 4290TIP3    H134429   5.001   4.304   2.146 -0.5262  0.5757  0.1640
 4290TIP3    H234430   4.952   4.210   2.038 -0.4007 -0.5573  1.0763
 4291TIP3   OH234431   2.110   3.288   1.780  0.4563 -0.2663 -0.5449
 4291TIP3    H134432   2.038   3.346   1.755 -0.3151 -0.1484  1.7325
 4291TIP3    H234433   2.180   3.346   1.807  0.5680 -0.3771 -0.5973
 4292TIP3   OH234434   6.282   6.470   2.118  0.6857 -0.2173 -0.0237
 4292TIP3    H134435   6.254   6.435   2.033  2.3265  0.1484 -0.7634
 4292TIP3    H234436   6.295   6.564   2.102  0.8034 -0.1089  0.6860
 4293TIP3   OH234437   5.228   2.843   8.040 -0.0085 -0.3846  0.1723
 4293TIP3    H134438   5.254   2.916   7.983  1.6630 -0.7456  0.4166
 4293TIP3    H234439   5.310   2.813   8.079 -0.8867 -1.3511  1.3392
 4294TIP3   OH234440   0.885   4.512   6.931 -0.2652 -0.2602  0.2085
 4294TIP3    H134441   0.871   4.418   6.936 -0.4028 -0.1688  3.0561
 4294TIP3    H234442   0.967   4.522   6.882  0.6182 -1.9579  1.2878
 4295TIP3   OH234443   3.354   2.526   7.945  0.2007 -0.1480  0.1879
 4295TIP3    H134444   3.364   2.527   7.850 -1.2401  1.3149  0.0171
 4295TIP3    H234445   3.372   2.615   7.973  0.6712 -0.5724  1.3152
 4296TIP3   OH234446   5.123   2.298   2.830  0.7274 -0.0246  0.1301
 4296TIP3    H134447   5.135   2.298   2.925  1.2127  0.6255  0.0829
 4296TIP3    H234448   5.043   2.248   2.815  1.0926 -0.8379  0.8189
 4297TIP3   OH234449   5.520   4.306   8.028  0.2474  0.5704 -0.1466
 4297TIP3    H134450   5.458   4.349   8.087 -0.1137 -0.1862  0.0419
 4297TIP3    H234451   5.491   4.215   8.025  1.6415  0.0815  0.3269
 4298TIP3   OH234452   1.301   0.673   0.147  0.1281  0.1898 -0.5741
 4298TIP3    H134453   1.234   0.640   0.206  0.6183 -0.4971 -0.3900
 4298TIP3    H234454   1.269   0.652   0.059  0.1191 -0.1614 -0.4846
 4299TIP3   OH234455   0.787   4.023   8.041  0.4363 -0.1028 -0.5624
 4299TIP3    H134456   0.728   4.025   8.117  0.4758  1.3165 -0.5339
 4299TIP3    H234457   0.859   4.081   8.065  1.0713 -0.5965 -1.2186
 4300TIP3   OH234458   4.485   4.380   7.429  0.6603  0.0836  0.1005
 4300TIP3    H134459   4.486   4.369   7.334 -1.8694  0.7827 -0.0733
 4300TIP3    H234460   4.498   4.474   7.442 -1.0596  0.3345  0.2741
 4301TIP3   OH234461   4.797   6.756   8.189 -0.2347 -0.6898  0.2149
 4301TIP3    H134462   4.846   6.676   8.171 -1.0076 -1.3973  1.1148
 4301TIP3    H234463   4.771   6.747   8.281 -1.4703 -0.0228 -0.0585
 4302TIP3   OH234464   3.591   1.246   0.717  0.0215 -0.2089 -0.2664
 4302TIP3    H134465   3.506   1.259   0.675 -0.9929 -1.0276  1.4630
 4302TIP3    H234466   3.641   1.193   0.654 -1.0855 -0.5259 -0.9023
 4303TIP3   OH234467   4.249   1.215   8.339 -0.2774 -0.3154  0.6969
 4303TIP3    H134468   4.284   1.199   8.251  0.8526 -0.6328  1.1868
 4303TIP3    H234469   4.157   1.187   8.334 -0.4914  0.5234 -0.6168
 4304TIP3   OH234470   0.770   6.405   1.580 -0.4199  0.1428 -0.0672
 4304TIP3    H134471   0.734   6.438   1.498 -2.5168 -1.5039  0.1249
 4304TIP3    H234472   0.738   6.315   1.586 -0.6455  0.3321  2.7112
 4305TIP3   OH234473   2.188   0.929   0.571 -0.3940 -0.3548 -0.0512
 4305TIP3    H134474   2.125   0.994   0.540 -0.7551 -0.9462 -0.5937
 4305TIP3    H234475   2.272   0.959   0.536 -0.5942 -0.2974 -0.4997
 4306TIP3   OH234476   6.398   1.510   8.506 -0.1894  0.1503 -0.0624
 4306TIP3    H134477   6.376   1.417   8.509 -0.1314  0.1642  0.9538
 4306TIP3    H234478   6.328   1.552   8.556 -1.5402  0.9317 -2.4639
 4307TIP3   OH234479   2.895   5.801   8.274 -0.4034 -0.7581  0.2053
 4307TIP3    H134480   2.899   5.826   8.366  2.2197 -0.9086  0.2069
 4307TIP3    H234481   2.824   5.855   8.238 -0.6573  0.2263  2.0415
 4308TIP3   OH234482   4.497   1.356   6.716 -0.4750 -0.6782 -0.4344
 4308TIP3    H134483   4.555   1.279   6.723 -1.9055 -1.7612  0.0986
 4308TIP3    H234484   4.415   1.320   6.682 -1.0085  0.7336 -0.6747
 4309TIP3   OH234485   4.971   1.948   1.261  0.5384  0.1631  0.5012
 4309TIP3    H134486   4.939   1.858   1.267  1.3835 -0.1814 -0.0589
 4309TIP3    H234487   4.896   2.001   1.289 -0.4293 -0.6321 -0.4590
 4310TIP3   OH234488   3.801   6.358   0.015 -0.0901 -0.1882  0.3203
 4310TIP3    H134489   3.847   6.438  -0.007  0.2752 -0.5572 -0.2741
 4310TIP3    H234490   3.753   6.334  -0.065  1.6487 -1.8114 -0.3172
 4311TIP3   OH234491   5.930   3.244   8.437  0.3925  0.8635  0.3338
 4311TIP3    H134492   5.910   3.294   8.515  0.0804  2.1280 -0.5285
 4311TIP3    H234493   5.926   3.152   8.465  1.3706  1.3094  2.0340
 4312TIP3   OH234494   0.135   1.870   1.128  0.5954 -0.0400 -0.1194
 4312TIP3    H134495   0.135   1.797   1.066 -2.5109  0.4899 -0.8990
 4312TIP3    H234496   0.166   1.945   1.077 -0.3071  0.0376 -0.5694
 4313TIP3   OH234497   1.535   5.969   6.595 -0.1188 -0.2628  0.5958
 4313TIP3    H134498   1.573   6.051   6.566 -0.6703  0.4586  1.8434
 4313TIP3    H234499   1.509   5.984   6.686 -0.8876 -1.5820  0.6339
 4314TIP3   OH234500   3.809   2.696   6.730 -0.1467  0.1270 -0.0674
 4314TIP3    H134501   3.769   2.776   6.763  0.7774  0.4269  0.3707
 4314TIP3    H234502   3.771   2.625   6.782 -0.0390  0.4130  0.4023
 4315TIP3   OH234503   4.573   1.261   0.849 -0.4214 -0.2824 -0.1417
 4315TIP3    H134504   4.564   1.225   0.937  0.5186 -1.6248 -0.5598
 4315TIP3    H234505   4.626   1.197   0.802 -1.8748 -0.2027 -2.0272
 4316TIP3   OH234506   6.002   4.367   8.502  0.8847 -0.0613 -0.1003
 4316TIP3    H134507   5.996   4.359   8.407  0.1925  1.9624 -0.2712
 4316TIP3    H234508   6.094   4.385   8.519  0.9486 -0.0962 -0.4044
 4317TIP3   OH234509   6.538   2.908   2.039 -0.1005  0.3066  0.3658
 4317TIP3    H134510   6.531   2.820   2.076 -0.0354  0.5937  1.0711
 4317TIP3    H234511   6.627   2.936   2.058  0.2720  0.0765 -0.9122
 4318TIP3   OH234512   1.044   4.520   2.506  0.1666  0.7433 -0.5306
 4318TIP3    H134513   1.052   4.425   2.519  1.7004  0.4861 -2.7745
 4318TIP3    H234514   0.956   4.532   2.469 -0.0513  0.2033 -0.1937
 4319TIP3   OH234515   3.821   2.963   0.948  0.0683  0.6237 -0.1023
 4319TIP3    H134516   3.757   2.896   0.923 -0.2017  1.5038 -1.9719
 4319TIP3    H234517   3.831   2.953   1.043 -0.4723 -1.5803 -0.2215
 4320TIP3   OH234518   4.826   5.892   7.290 -0.6817 -0.4915 -0.0402
 4320TIP3    H134519   4.853   5.824   7.228 -1.8733 -0.1587 -0.9560
 4320TIP3    H234520   4.890   5.962   7.279 -2.0962  0.5378 -2.6024
 4321TIP3   OH234521   6.168   4.290   2.221  0.1782 -0.2551 -0.7470
 4321TIP3    H134522   6.175   4.294   2.316 -1.1684  1.5279 -0.6743
 4321TIP3    H234523   6.075   4.301   2.203  0.3903 -0.7326 -2.2838
 4322TIP3   OH234524   0.425   2.378   7.138  0.4577 -0.2140  0.3024
 4322TIP3    H134525   0.347   2.334   7.173  0.3987  0.5139  1.1066
 4322TIP3    H234526   0.413   2.470   7.160  0.6163  0.2263 -1.3071
 4323TIP3   OH234527   5.729   4.607   7.212  0.1350 -0.2641  0.5188
 4323TIP3    H134528   5.694   4.643   7.130 -0.2992 -1.2710  0.2458
 4323TIP3    H234529   5.706   4.514   7.209 -0.0033 -0.2928  1.8518
 4324TIP3   OH234530   6.226   2.377   1.679 -0.5698  0.0311 -0.4718
 4324TIP3    H134531   6.250   2.431   1.604 -1.9087  0.7596 -0.4048
 4324TIP3    H234532   6.131   2.379   1.681 -0.7684 -3.0490 -0.9680
 4325TIP3   OH234533   0.310   0.736   2.394  0.1896  0.4241  0.4844
 4325TIP3    H134534   0.364   0.663   2.424  0.4923 -0.4487 -1.9506
 4325TIP3    H234535   0.312   0.799   2.466  2.0229 -0.8613  1.6411
 4326TIP3   OH234536   4.605   3.429   1.136 -0.6295 -0.0504 -0.3624
 4326TIP3    H134537   4.532   3.451   1.194 -0.8052  2.3883 -1.3546
 4326TIP3    H234538   4.681   3.473   1.175 -0.6064  1.0013 -1.5019
 4327TIP3   OH234539   4.444   0.047   7.865 -0.5605 -0.2375 -0.0690
 4327TIP3    H134540   4.513   0.101   7.825 -1.6308  1.4409  0.2587
 4327TIP3    H234541   4.443   0.074   7.957 -0.0449 -2.0174  0.4977
 4328TIP3   OH234542   5.233   2.850   1.148  0.5456 -0.2365 -0.6821
 4328TIP3    H134543   5.181   2.929   1.133  1.0880 -0.1861 -2.4324
 4328TIP3    H234544   5.281   2.869   1.228 -1.1153  0.2333  0.2692
 4329TIP3   OH234545   4.747   5.546   7.442 -0.5300 -0.0128  0.3621
 4329TIP3    H134546   4.684   5.475   7.428 -0.0868 -0.3757  0.2191
 4329TIP3    H234547   4.692   5.624   7.450 -0.9407 -0.1683 -0.7957
 4330TIP3   OH234548   2.213   1.388   8.311  0.4103  0.4877  0.2590
 4330TIP3    H134549   2.139   1.391   8.250  0.0736  0.9884  0.6744
 4330TIP3    H234550   2.285   1.430   8.264  0.0801  1.1084  0.3002
 4331TIP3   OH234551   2.251   2.146   8.488  0.2610  0.0284  0.4901
 4331TIP3    H134552   2.237   2.227   8.537  0.6408  0.4368 -0.0629
 4331TIP3    H234553   2.244   2.172   8.396 -2.1659 -1.0201  0.3006
 4332TIP3   OH234554   2.621   6.236   2.618  0.3746  0.4068 -0.5283
 4332TIP3    H134555   2.665   6.189   2.547  0.8157  1.7137 -1.1535
 4332TIP3    H234556   2.565   6.171   2.659  0.1603 -0.3917 -2.0391
 4333TIP3   OH234557   4.218   5.485   2.012  0.1034 -0.2607  0.2313
 4333TIP3    H134558   4.260   5.434   1.943  0.4833  0.9435 -0.4345
 4333TIP3    H234559   4.127   5.453   2.012  0.1084 -0.3251 -0.7878
 4334TIP3   OH234560   6.231   6.293   7.310  0.0900 -0.1392  0.1652
 4334TIP3    H134561   6.146   6.258   7.283  0.8173 -1.3978 -0.6300
 4334TIP3    H234562   6.294   6.232   7.272  1.4178  1.6684 -0.6320
 4335TIP3   OH234563   3.767   5.547   2.210 -0.4482 -0.5257 -0.2401
 4335TIP3    H134564   3.810   5.621   2.253 -0.8366 -0.3956 -0.0766
 4335TIP3    H234565   3.702   5.515   2.273 -0.0902 -1.1891 -0.1981
 4336TIP3   OH234566   2.496   2.819   8.511 -0.2122 -0.2371  0.0441
 4336TIP3    H134567   2.503   2.752   8.579  1.0728  1.5615  1.7929
 4336TIP3    H234568   2.411   2.860   8.525  0.0052  0.0580  0.5038
 4337TIP3   OH234569   2.900   3.391   6.815  0.3473  0.3277 -0.1791
 4337TIP3    H134570   2.879   3.485   6.812  0.1581  0.2731 -0.6219
 4337TIP3    H234571   2.990   3.386   6.781 -0.5024  0.1021 -2.6013
 4338TIP3   OH234572   5.014   5.853   1.589  0.2183  0.0540 -0.1220
 4338TIP3    H134573   5.037   5.788   1.655  1.6226  3.0140  2.6122
 4338TIP3    H234574   5.098   5.892   1.564 -0.5616  0.9136 -1.5159
 4339TIP3   OH234575   3.982   3.970   2.354  0.5353 -0.1711  0.0256
 4339TIP3    H134576   3.966   3.934   2.441  1.5467 -4.7442 -1.3615
 4339TIP3    H234577   3.900   3.956   2.306  0.3114  1.3503 -0.0696
 4340TIP3   OH234578   4.523   3.377   1.620 -0.0437 -0.8620 -0.5082
 4340TIP3    H134579   4.519   3.281   1.619 -0.1924 -0.8558 -1.5362
 4340TIP3    H234580   4.438   3.405   1.586 -0.0905 -0.3541  0.0144
 4341TIP3   OH234581   1.784   1.090   0.709 -0.4456 -0.4390 -0.1639
 4341TIP3    H134582   1.818   1.140   0.783  1.0000 -1.4761 -0.0779
 4341TIP3    H234583   1.843   1.014   0.702 -1.2351 -0.9652 -1.6560
 4342TIP3   OH234584   0.022   5.555   7.206 -0.3607 -0.3722 -0.1645
 4342TIP3    H134585   0.109   5.593   7.215 -0.2175 -0.6488 -0.3801
 4342TIP3    H234586  -0.008   5.542   7.297 -0.6661  0.8173 -0.0826
 4343TIP3   OH234587   4.726   2.181   1.509 -0.6002 -0.1381 -0.4164
 4343TIP3    H134588   4.705   2.137   1.427 -3.9318  1.6077 -0.6631
 4343TIP3    H234589   4.683   2.267   1.502  2.3644  1.6992  1.5661
 4344TIP3   OH234590   5.066   6.108   1.890 -0.4704  0.2099 -0.1411
 4344TIP3    H134591   4.971   6.095   1.892 -0.3297 -1.0054 -0.6419
 4344TIP3    H234592   5.094   6.092   1.980 -0.7724  0.9179  0.0853
 4345TIP3   OH234593   6.450   3.991   1.888  0.0290 -0.2376  0.6899
 4345TIP3    H134594   6.546   3.993   1.898  0.3274 -0.3423 -1.5547
 4345TIP3    H234595   6.431   3.901   1.860 -1.2847 -1.4557  4.7854
 4346TIP3   OH234596   5.210   3.358   7.928 -0.3925 -0.4603  0.5344
 4346TIP3    H134597   5.194   3.452   7.925  0.4201 -0.3378 -0.5142
 4346TIP3    H234598   5.203   3.330   7.837 -1.0187 -1.4946  0.8832
 4347TIP3   OH234599   6.305   1.604   0.858  0.3886  0.9051 -0.1311
 4347TIP3    H134600   6.224   1.570   0.896  0.9171 -0.3074 -0.0423
 4347TIP3    H234601   6.333   1.673   0.918 -0.2022  0.8472  0.2160
 4348TIP3   OH234602   3.948   2.521   8.569 -0.4555 -0.1224  0.6874
 4348TIP3    H134603   3.974   2.445   8.621 -0.7738 -0.7437 -0.0366
 4348TIP3    H234604   4.012   2.523   8.497  0.0352  0.7771  1.1314
 4349TIP3   OH234605   6.089   6.846   1.392  0.2102 -0.9330  0.2795
 4349TIP3    H134606   6.052   6.760   1.407 -2.7990  0.1835 -0.0696
 4349TIP3    H234607   6.097   6.885   1.480 -2.5806 -0.0905  0.2700
 4350TIP3   OH234608   4.262   5.745   8.457  0.3318  0.4951 -0.1616
 4350TIP3    H134609   4.260   5.820   8.398 -0.7958  1.7111  1.3428
 4350TIP3    H234610   4.241   5.782   8.543  0.0290 -1.4974  0.6660
 4351TIP3   OH234611   3.372   6.854   7.496 -0.1252 -0.5240 -0.8565
 4351TIP3    H134612   3.362   6.933   7.549 -0.5346 -1.8869  1.2139
 4351TIP3    H234613   3.311   6.866   7.424 -0.7711  0.7104 -0.1444
 4352TIP3   OH234614   2.723   6.851   1.828  0.5849  0.2234 -0.1493
 4352TIP3    H134615   2.740   6.866   1.921 -1.6749 -0.5838  0.4729
 4352TIP3    H234616   2.632   6.822   1.825  0.9530 -0.9494 -2.5048
 4353TIP3   OH234617   1.196   3.690   0.274 -0.6296  0.2399  0.3415
 4353TIP3    H134618   1.263   3.626   0.251 -0.4090  0.5268  0.1879
 4353TIP3    H234619   1.206   3.704   0.368 -0.8572 -0.1571  0.4266
 4354TIP3   OH234620   4.055   2.754   1.460  0.0279 -0.4719  0.4501
 4354TIP3    H134621   4.045   2.836   1.411 -0.9430  1.0296  2.9198
 4354TIP3    H234622   3.968   2.739   1.498  0.0925 -2.9070 -0.2376
 4355TIP3   OH234623   6.369   4.787   0.223  0.6142  0.3930  0.0854
 4355TIP3    H134624   6.384   4.702   0.183 -1.1617 -0.2495  0.6953
 4355TIP3    H234625   6.312   4.770   0.298 -0.1013  2.1361  0.0096
 4356TIP3   OH234626   2.091   1.511   0.442  0.1862 -0.3446  0.0842
 4356TIP3    H134627   2.163   1.572   0.432 -0.7327  1.1207  1.8529
 4356TIP3    H234628   2.098   1.453   0.366  0.9011  2.1282 -1.8804
 4357TIP3   OH234629   3.803   0.847   6.975 -0.1057  0.9106 -0.0294
 4357TIP3    H134630   3.865   0.900   7.025  1.3329  0.7213 -1.5110
 4357TIP3    H234631   3.761   0.909   6.915  0.7760  0.6123 -0.9980
 4358TIP3   OH234632   4.245   3.622   0.523 -0.2967  0.1664 -0.3236
 4358TIP3    H134633   4.174   3.672   0.482 -0.8968  0.1483  0.6556
 4358TIP3    H234634   4.228   3.531   0.498 -0.0160  0.2730 -0.9338
 4359TIP3   OH234635   5.824   2.830   6.925  0.1598  0.3701 -0.0875
 4359TIP3    H134636   5.858   2.789   7.005 -0.5009 -0.5126 -0.2412
 4359TIP3    H234637   5.879   2.795   6.855 -1.5320 -1.7910 -0.4555
 4360TIP3   OH234638   5.020   4.456   7.621 -0.3145  0.4217  0.0377
 4360TIP3    H134639   5.108   4.463   7.585 -0.1263  1.0630  0.5937
 4360TIP3    H234640   5.029   4.393   7.693 -1.0212 -2.1575 -1.9545
 4361TIP3   OH234641   1.581   1.512   7.555  0.0962  0.5661  0.7607
 4361TIP3    H134642   1.566   1.547   7.467 -0.6773  0.6241  0.9165
 4361TIP3    H234643   1.494   1.489   7.587  0.5358 -1.1571  0.8093
 4362TIP3   OH234644   4.483   5.736   1.922  0.4644 -0.4946 -0.2950
 4362TIP3    H134645   4.520   5.769   1.840  0.8188 -1.7157 -0.6453
 4362TIP3    H234646   4.509   5.644   1.925 -0.6966 -0.8238  0.5228
 4363TIP3   OH234647   5.665   6.477   0.668  0.1585  0.1258  0.4667
 4363TIP3    H134648   5.590   6.504   0.720 -0.4439 -0.5965 -0.0026
 4363TIP3    H234649   5.740   6.483   0.727 -0.2507  0.9474  0.9096
 4364TIP3   OH234650   2.122   1.359   2.023  0.0962  0.3043 -0.4525
 4364TIP3    H134651   2.103   1.337   1.932 -0.4493 -1.9320  0.1393
 4364TIP3    H234652   2.052   1.317   2.073  2.0259 -1.1432  1.2192
 4365TIP3   OH234653   6.583   1.899   1.115 -0.1125  0.2381  0.3930
 4365TIP3    H134654   6.653   1.835   1.124 -0.6734 -0.4862 -0.3145
 4365TIP3    H234655   6.623   1.972   1.067 -0.5553 -1.3974 -2.7098
 4366TIP3   OH234656   1.835   0.348   0.069 -0.2246 -0.0955  0.5471
 4366TIP3    H134657   1.776   0.333  -0.005  0.4954  2.7603 -0.7402
 4366TIP3    H234658   1.923   0.344   0.030  0.2055  0.6932  1.3953
 4367TIP3   OH234659   5.258   0.803   2.935  0.2654  0.4824  0.3393
 4367TIP3    H134660   5.353   0.811   2.924  0.0586  0.4236 -2.4071
 4367TIP3    H234661   5.227   0.892   2.949  0.5223  0.9945 -1.8743
 4368TIP3   OH234662   4.051   0.721   8.253  0.2377  0.3704  0.2456
 4368TIP3    H134663   4.031   0.686   8.166 -2.7619  1.3273  0.4125
 4368TIP3    H234664   4.063   0.815   8.238 -1.5523  0.7602  0.9194
 4369TIP3   OH234665   3.844   0.147   8.186 -0.3152  0.0103 -0.1168
 4369TIP3    H134666   3.817   0.057   8.167 -1.1853  0.3573 -0.5583
 4369TIP3    H234667   3.895   0.140   8.267 -0.1385 -0.9089 -0.2939
 4370TIP3   OH234668   1.064   3.887   0.175 -1.0290  0.6699  0.4069
 4370TIP3    H134669   1.115   3.813   0.206  0.8301  1.4447 -0.6589
 4370TIP3    H234670   0.979   3.877   0.219 -0.9346 -2.1647  0.1337
 4371TIP3   OH234671   5.632   6.823   1.353  0.3294 -0.1898  0.1665
 4371TIP3    H134672   5.589   6.791   1.432  1.3669  0.3471  0.9792
 4371TIP3    H234673   5.563   6.870   1.306 -0.5854 -1.4570  0.1704
 4372TIP3   OH234674   4.280   6.419   7.073  0.6578  0.6222  0.0062
 4372TIP3    H134675   4.209   6.480   7.051 -0.5809 -0.5894  0.5327
 4372TIP3    H234676   4.282   6.357   7.001  0.3384 -0.0774  0.5910
 4373TIP3   OH234677   2.618   1.248   2.389 -0.2336 -0.5800 -0.2300
 4373TIP3    H134678   2.675   1.203   2.452  0.5975 -0.1949 -0.6915
 4373TIP3    H234679   2.534   1.255   2.434  0.6031  0.5565  1.2450
 4374TIP3   OH234680   3.622   2.613   7.554 -0.4378 -0.0531 -0.1792
 4374TIP3    H134681   3.691   2.567   7.601 -1.5057  0.5653  2.1227
 4374TIP3    H234682   3.661   2.697   7.531 -0.0894 -0.1260  0.1403
 4375TIP3   OH234683   3.819   4.244   3.093 -0.4517  0.3064 -0.3164
 4375TIP3    H134684   3.729   4.231   3.122 -0.7785  0.1594 -1.3852
 4375TIP3    H234685   3.817   4.325   3.043  0.2756  0.9942  0.7139
 4376TIP3   OH234686   1.310   1.694   1.026 -0.0495  0.4569 -0.7169
 4376TIP3    H134687   1.378   1.689   1.094  0.1511  0.3108 -0.9275
 4376TIP3    H234688   1.353   1.736   0.952 -0.1506  0.2478 -0.8962
 4377TIP3   OH234689   4.224   4.412   1.111  0.3860  0.2794  0.0480
 4377TIP3    H134690   4.266   4.490   1.146  1.4099 -0.2139 -0.0532
 4377TIP3    H234691   4.296   4.354   1.088 -0.3081 -0.0419 -1.4169
 4378TIP3   OH234692   6.715   2.357   2.097  0.3713  0.1588  0.1954
 4378TIP3    H134693   6.633   2.369   2.050  0.3307  0.1763  0.2715
 4378TIP3    H234694   6.783   2.366   2.029  0.4049  1.8678  0.4287
 4379TIP3   OH234695   6.008   4.527   7.637  0.0376 -0.1440 -0.3098
 4379TIP3    H134696   5.957   4.466   7.690 -0.4303  1.2361  0.8899
 4379TIP3    H234697   6.012   4.487   7.551 -1.0225 -1.4261  0.2128
 4380TIP3   OH234698   1.152   3.076   1.424  0.0778 -0.2116 -0.4845
 4380TIP3    H134699   1.117   3.035   1.502  1.5102 -0.7755 -0.0967
 4380TIP3    H234700   1.196   3.155   1.457  1.0763 -0.6883 -0.6330
 4381TIP3   OH234701   4.878   4.979   6.340  0.4506  0.1556 -1.0882
 4381TIP3    H134702   4.880   5.070   6.372 -1.0597 -0.1910  0.1328
 4381TIP3    H234703   4.962   4.943   6.368  1.4366  1.3860 -2.3365
 4382TIP3   OH234704   3.879   2.801   8.416 -0.2248  0.0070  0.2605
 4382TIP3    H134705   3.959   2.817   8.466  0.2602  0.5357 -0.6485
 4382TIP3    H234706   3.905   2.741   8.346 -0.1735  1.4891 -1.0669
 4383TIP3   OH234707   2.829   5.441   1.998 -1.0613 -0.7170 -0.2068
 4383TIP3    H134708   2.754   5.390   1.967 -0.7365 -2.3444  1.5053
 4383TIP3    H234709   2.868   5.387   2.067  0.2018  1.2251  0.6902
 4384TIP3   OH234710   0.958   3.267   7.624 -0.0862 -0.2302 -0.1056
 4384TIP3    H134711   1.019   3.266   7.551  0.4972  1.6726  0.3047
 4384TIP3    H234712   0.967   3.181   7.664  2.1229 -0.1119 -0.2447
 4385TIP3   OH234713   3.018   5.759   8.615 -0.0353 -0.0843  0.3519
 4385TIP3    H134714   2.950   5.693   8.601  1.1277 -1.4186  0.7580
 4385TIP3    H234715   2.970   5.838   8.637 -1.4537 -1.1586  1.3083
 4386TIP3   OH234716   0.092   6.296   2.881  0.1385 -0.0386 -0.0663
 4386TIP3    H134717   0.168   6.242   2.903  1.6275  1.2728 -1.7427
 4386TIP3    H234718   0.129   6.382   2.864 -1.6323  0.4276 -1.7697
 4387TIP3   OH234719   1.754   3.998   1.678  0.0304 -0.0216 -0.0794
 4387TIP3    H134720   1.797   4.081   1.700  2.0972 -0.9913 -0.2678
 4387TIP3    H234721   1.734   3.958   1.762 -0.0856  0.2175  0.0082
 4388TIP3   OH234722   5.509   6.738   1.579  0.3632  0.2270 -0.2218
 4388TIP3    H134723   5.516   6.795   1.655  1.6688  2.4387 -1.8732
 4388TIP3    H234724   5.542   6.653   1.609  0.6132  0.9672  1.7162
 4389TIP3   OH234725   2.123   4.034   1.573 -0.2938  0.9544 -1.1035
 4389TIP3    H134726   2.166   3.979   1.638 -2.2458 -1.5739 -1.7689
 4389TIP3    H234727   2.193   4.062   1.514  1.0553  0.9350  0.4179
 4390TIP3   OH234728   5.751   3.302   7.948  0.6064 -0.0472  0.3223
 4390TIP3    H134729   5.825   3.241   7.947  0.8454  0.2246  1.2669
 4390TIP3    H234730   5.727   3.310   8.040  1.2415  2.0898  0.3534
 4391TIP3   OH234731   0.244   5.799   7.770 -0.2829 -0.2855 -0.0937
 4391TIP3    H134732   0.236   5.709   7.802  0.2029 -0.2529  0.1190
 4391TIP3    H234733   0.315   5.795   7.706  0.8695  0.2731  1.1235
 4392TIP3   OH234734   1.870   3.697   7.999  0.1805  0.3968  0.7267
 4392TIP3    H134735   1.866   3.649   7.917  0.2460  0.8823  0.4381
 4392TIP3    H234736   1.853   3.631   8.066 -3.7080  0.6345  0.1574
 4393TIP3   OH234737   2.969   6.444   0.220 -0.5218 -0.3733  0.0674
 4393TIP3    H134738   2.922   6.504   0.162  0.0460  1.0115  0.9950
 4393TIP3    H234739   2.904   6.418   0.286 -0.0416  1.6170  1.4042
 4394TIP3   OH234740   3.205   4.888   0.454  0.4262  0.5946  0.0941
 4394TIP3    H134741   3.118   4.913   0.423  0.4438  0.8072  0.2125
 4394TIP3    H234742   3.220   4.942   0.532 -0.6062 -1.6341  1.9462
 4395TIP3   OH234743   2.815   0.603   1.041 -0.3585 -0.4722 -0.5839
 4395TIP3    H134744   2.806   0.535   0.974  0.0687 -0.4972 -0.6178
 4395TIP3    H234745   2.872   0.564   1.108  0.9153  0.2862 -1.1887
 4396TIP3   OH234746   1.079   2.196   1.249 -0.0707 -0.0396  0.2104
 4396TIP3    H134747   1.118   2.122   1.201 -0.3711 -0.2718  0.3157
 4396TIP3    H234748   1.090   2.173   1.341 -0.0982  0.0850  0.2443
 4397TIP3   OH234749   5.976   2.124   0.885 -0.1730  0.3084 -0.0914
 4397TIP3    H134750   6.040   2.192   0.908 -0.1873  0.6174 -0.9079
 4397TIP3    H234751   6.010   2.044   0.924 -1.0190  1.0630  2.3609
 4398TIP3   OH234752   1.687   3.638   1.729 -0.2646 -0.0744 -0.7878
 4398TIP3    H134753   1.638   3.558   1.750  0.7141 -0.5061 -0.1013
 4398TIP3    H234754   1.692   3.638   1.633 -0.3506 -0.7957 -0.8000
 4399TIP3   OH234755   5.014   3.990   7.080 -0.1022 -0.4929 -0.5706
 4399TIP3    H134756   4.957   4.066   7.068  0.5236 -0.1733 -1.6106
 4399TIP3    H234757   4.955   3.914   7.071 -0.4601 -0.1630 -1.0703
 4400TIP3   OH234758   0.230   4.495   0.891  0.0631 -1.2342  0.3776
 4400TIP3    H134759   0.150   4.463   0.933  1.0045 -1.6807  1.9103
 4400TIP3    H234760   0.288   4.419   0.889  0.6823 -0.7555 -0.1080
 4401TIP3   OH234761   2.887   0.907   7.944 -0.5612 -0.2719  0.2159
 4401TIP3    H134762   2.897   0.848   7.869 -0.8270  0.0294 -0.0547
 4401TIP3    H234763   2.797   0.940   7.938 -1.3884 -1.9822  1.9191
 4402TIP3   OH234764   3.434   6.079   0.441 -0.2665  0.2330 -0.1395
 4402TIP3    H134765   3.454   6.140   0.371 -0.3111  1.4837  0.8980
 4402TIP3    H234766   3.379   6.012   0.400  0.6388  0.3195 -1.5278
 4403TIP3   OH234767   5.131   1.783   1.585 -0.1090 -0.3986  0.6901
 4403TIP3    H134768   5.178   1.784   1.502 -0.8895  0.3440  0.2478
 4403TIP3    H234769   5.135   1.691   1.613  0.7442 -0.5285  0.1801
 4404TIP3   OH234770   0.038   1.799   2.201 -0.0289 -0.2763  0.2199
 4404TIP3    H134771   0.044   1.705   2.182  0.4581 -0.1068 -0.4862
 4404TIP3    H234772   0.010   1.803   2.292  0.6109 -1.1094  0.4630
 4405TIP3   OH234773   0.717   5.208   1.409 -0.7444 -0.4659 -0.1552
 4405TIP3    H134774   0.652   5.276   1.392 -0.4590 -0.0612  0.3573
 4405TIP3    H234775   0.781   5.250   1.466  1.2328 -0.0942 -2.4540
 4406TIP3   OH234776   0.167   5.238   7.899  0.2623  0.3566 -0.2674
 4406TIP3    H134777   0.229   5.168   7.919 -1.6898 -1.0332  1.2626
 4406TIP3    H234778   0.129   5.215   7.815 -0.4625 -0.5182  0.2891
 4407TIP3   OH234779   3.291   6.644   2.020 -0.0178 -0.1122 -0.6929
 4407TIP3    H134780   3.369   6.692   1.991  0.7002 -1.6515 -1.4562
 4407TIP3    H234781   3.317   6.603   2.102 -1.1403  1.9838  0.7826
 4408TIP3   OH234782   4.901   2.963   7.661  0.1833  0.2846 -0.5493
 4408TIP3    H134783   4.919   2.926   7.748  1.1298 -0.4174 -1.0296
 4408TIP3    H234784   4.872   3.053   7.680 -0.8654 -0.2464  0.5531
 4409TIP3   OH234785   0.139   4.611   7.543  0.3660 -0.2286 -0.0457
 4409TIP3    H134786   0.112   4.642   7.629  2.6730  1.5389  0.1395
 4409TIP3    H234787   0.057   4.587   7.499 -1.1738  1.7404  1.5514
 4410TIP3   OH234788   1.946   4.685   1.485  0.0239  0.1807  0.8731
 4410TIP3    H134789   2.019   4.653   1.538  0.1192 -0.1980  0.5190
 4410TIP3    H234790   1.936   4.777   1.511  0.9409  0.3792  0.5747
 4411TIP3   OH234791   1.552   3.997   0.824  0.0029 -0.7475 -0.1410
 4411TIP3    H134792   1.516   4.082   0.847  1.0608 -0.0969 -0.8454
 4411TIP3    H234793   1.478   3.949   0.786 -0.1580  0.5688 -1.5646
 4412TIP3   OH234794   2.031   4.137   0.860 -0.7567  0.1658  0.4733
 4412TIP3    H134795   2.026   4.071   0.790 -0.6632 -0.0658  0.6862
 4412TIP3    H234796   2.103   4.109   0.915  2.1635  2.6751 -1.7175
 4413TIP3   OH234797   5.882   1.482   2.337  0.1649  0.6756  0.2754
 4413TIP3    H134798   5.818   1.411   2.348  2.4694 -1.8920 -1.5506
 4413TIP3    H234799   5.915   1.498   2.425 -0.5510 -0.3904  0.7654
 4414TIP3   OH234800   0.950   2.836   0.671  0.8311 -0.1132 -0.5223
 4414TIP3    H134801   0.876   2.881   0.630 -0.2835 -0.4999  0.9710
 4414TIP3    H234802   1.027   2.875   0.631 -0.1736  0.1286 -2.3115
 4415TIP3   OH234803   1.317   6.120   8.384 -0.5730 -0.5670 -0.2876
 4415TIP3    H134804   1.385   6.061   8.416 -1.3261 -0.1986  2.2859
 4415TIP3    H234805   1.236   6.069   8.390 -0.5362 -1.4316 -4.5081
 4416TIP3   OH234806   0.918   2.159   7.857  0.1589 -0.3644 -0.7363
 4416TIP3    H134807   0.948   2.225   7.794 -0.5090 -0.9344 -1.6724
 4416TIP3    H234808   0.849   2.112   7.811 -0.7818 -0.3888  0.6584
 4417TIP3   OH234809   5.982   6.138   2.227  0.1623 -0.1821  0.4022
 4417TIP3    H134810   6.028   6.221   2.236  0.2774 -0.3738  1.8596
 4417TIP3    H234811   5.997   6.093   2.311 -2.6917 -0.2048  1.0111
 4418TIP3   OH234812   0.739   3.794   7.052 -0.2001  0.3388 -0.0431
 4418TIP3    H134813   0.739   3.764   6.961  0.0555 -1.1222  0.4064
 4418TIP3    H234814   0.828   3.825   7.067 -0.2911  0.7491 -0.3403
 4419TIP3   OH234815   2.124   0.883   7.106 -0.0332 -0.6991 -0.1317
 4419TIP3    H134816   2.147   0.793   7.129  0.8042 -0.6165 -0.6042
 4419TIP3    H234817   2.028   0.883   7.104 -0.2054 -0.7505  3.0915
 4420TIP3   OH234818   0.432   1.259   7.927 -0.3465  0.4115  0.6496
 4420TIP3    H134819   0.350   1.305   7.911  0.0191  0.1418 -2.6105
 4420TIP3    H234820   0.408   1.166   7.922  0.0670  0.3313  0.0733
 4421TIP3   OH234821   2.088   6.206   1.761 -0.0442 -0.1112  0.5229
 4421TIP3    H134822   2.156   6.216   1.827 -0.4651  0.4201  0.8813
 4421TIP3    H234823   2.081   6.112   1.747  0.9042 -0.1583  0.3368
 4422TIP3   OH234824   3.496   5.033   0.934  0.2775  0.3677 -0.0645
 4422TIP3    H134825   3.488   5.103   0.999  0.7952 -0.6089  1.0911
 4422TIP3    H234826   3.579   5.051   0.890 -0.7207  1.8242 -1.4801
 4423TIP3   OH234827   6.567   2.889   0.437 -0.0326  0.0593 -0.6691
 4423TIP3    H134828   6.606   2.949   0.373 -0.1535  0.5255 -0.3077
 4423TIP3    H234829   6.603   2.917   0.521 -1.1692  0.5244 -0.3161
 4424TIP3   OH234830   2.585   5.411   8.562 -0.1193 -0.6098  0.4655
 4424TIP3    H134831   2.660   5.469   8.551 -0.0708 -1.0554 -2.1234
 4424TIP3    H234832   2.600   5.340   8.500 -2.0709 -1.3440  0.7511
 4425TIP3   OH234833   3.845   6.109   7.898  0.0983  0.0087 -0.4368
 4425TIP3    H134834   3.855   6.093   7.804  1.5362  1.0987 -0.4978
 4425TIP3    H234835   3.833   6.204   7.905  1.4083  0.1332  0.5523
 4426TIP3   OH234836   2.765   4.837   1.486 -0.0786 -0.4512 -0.2990
 4426TIP3    H134837   2.726   4.864   1.569  0.3134 -0.8196  0.0110
 4426TIP3    H234838   2.812   4.756   1.507  1.4608  0.3543 -0.4873
 4427TIP3   OH234839   1.559   3.736   0.956 -0.0706  0.1779  0.9953
 4427TIP3    H134840   1.540   3.762   1.046  2.5235 -1.9023  2.3004
 4427TIP3    H234841   1.589   3.816   0.913 -1.4403  1.2243  1.8956
 4428TIP3   OH234842   2.375   3.211   6.936  0.1479  0.8053  0.0937
 4428TIP3    H134843   2.443   3.153   6.971  0.0452  1.4897  1.5176
 4428TIP3    H234844   2.343   3.166   6.858  0.1295 -1.0217  1.0852
 4429TIP3   OH234845   3.936   0.320   1.081  0.0213  0.3771 -0.4867
 4429TIP3    H134846   3.969   0.409   1.081  0.0834  0.4657  2.4102
 4429TIP3    H234847   4.009   0.266   1.051  1.3144  1.0045  1.3726
 4430TIP3   OH234848   4.035   3.395   2.074  0.3238  0.1629 -0.0079
 4430TIP3    H134849   3.972   3.324   2.086  0.4982 -0.3780 -2.0096
 4430TIP3    H234850   4.056   3.423   2.163  1.0701 -2.9868  0.9273
 4431TIP3   OH234851   3.960   4.607   0.732 -0.0212  0.0897  1.0729
 4431TIP3    H134852   3.986   4.579   0.820 -0.9807  2.2197  2.1074
 4431TIP3    H234853   3.918   4.692   0.745 -0.1690  0.4906 -1.4703
 4432TIP3   OH234854   2.638   2.729   8.117 -0.0555  0.2548  0.5202
 4432TIP3    H134855   2.666   2.649   8.161 -2.6730 -0.5071  0.9919
 4432TIP3    H234856   2.658   2.714   8.025  0.7838 -0.3106  0.7756
 4433TIP3   OH234857   0.836   4.929   0.611 -0.0373 -0.4735  0.1168
 4433TIP3    H134858   0.849   4.933   0.705 -0.2712 -1.8779  0.2289
 4433TIP3    H234859   0.923   4.911   0.575 -0.0238 -0.3647  0.0938
 4434TIP3   OH234860   3.165   0.099   0.843  0.2849 -0.3479  0.0034
 4434TIP3    H134861   3.229   0.047   0.794  0.3203 -0.9162  0.6368
 4434TIP3    H234862   3.178   0.188   0.812  2.0250 -0.2909  0.7641
 4435TIP3   OH234863   2.494   4.400   2.354 -0.2726 -0.0981 -0.4842
 4435TIP3    H134864   2.444   4.477   2.381  1.4636  1.6732 -1.9946
 4435TIP3    H234865   2.528   4.363   2.436 -0.7267  1.0652  0.2470
 4436TIP3   OH234866   1.009   0.746   1.712  0.2809  0.1565  0.1942
 4436TIP3    H134867   0.958   0.671   1.743  0.9609 -0.1884  0.5247
 4436TIP3    H234868   1.002   0.742   1.616 -0.9682  0.6017  0.2582
 4437TIP3   OH234869   6.171   5.158   1.301  0.2417  0.2903 -0.6127
 4437TIP3    H134870   6.257   5.117   1.309  0.6262  0.7538 -2.1345
 4437TIP3    H234871   6.115   5.106   1.359  1.2690 -0.7874 -0.5461
 4438TIP3   OH234872   3.144   5.071   0.644 -0.2774  0.4372 -0.6421
 4438TIP3    H134873   3.134   5.135   0.715  0.4663  0.4290 -0.5244
 4438TIP3    H234874   3.059   5.071   0.600 -1.3326 -0.7275  1.2204
 4439TIP3   OH234875   2.197   5.949   6.422  0.1382  0.0469  0.1038
 4439TIP3    H134876   2.116   5.909   6.392  0.6281  0.1095 -1.3868
 4439TIP3    H234877   2.173   6.040   6.441 -0.7416 -0.5946  2.5162
 4440TIP3   OH234878   4.367   1.214   1.434  0.1257 -0.0639 -0.0232
 4440TIP3    H134879   4.382   1.230   1.341 -1.7817 -1.6316 -0.6833
 4440TIP3    H234880   4.425   1.142   1.456  0.6604  0.3822  0.0493
 4441TIP3   OH234881   3.568   0.817   8.134 -0.2053  0.1091 -0.0523
 4441TIP3    H134882   3.647   0.785   8.177 -0.1297 -0.8816 -0.8853
 4441TIP3    H234883   3.502   0.818   8.203  0.5748  1.1421  0.6990
 4442TIP3   OH234884   5.542   6.624   8.081 -0.4118 -0.3043  0.0382
 4442TIP3    H134885   5.585   6.552   8.033 -0.5916  0.3464 -1.1341
 4442TIP3    H234886   5.493   6.580   8.151  0.0422 -1.2663 -0.2247
 4443TIP3   OH234887   4.039   5.870   8.315  0.4058 -0.4294 -0.1207
 4443TIP3    H134888   4.016   5.864   8.408  0.9264  0.1524  0.0589
 4443TIP3    H234889   4.096   5.947   8.310 -0.1500 -0.0642 -1.0316
 4444TIP3   OH234890   3.737   2.653   2.534 -0.3099  0.0137  0.2266
 4444TIP3    H134891   3.685   2.733   2.521  0.7540  0.6046 -0.4975
 4444TIP3    H234892   3.827   2.680   2.520  0.1148 -1.2392  0.4024
 4445TIP3   OH234893   3.542   5.596   0.581 -0.0218 -0.2494 -0.6235
 4445TIP3    H134894   3.577   5.682   0.606  0.1831 -0.8038  1.1952
 4445TIP3    H234895   3.609   5.534   0.611  0.0015 -1.0542 -2.2437
 4446TIP3   OH234896   5.589   2.613   0.725  0.3915  0.2638 -0.1899
 4446TIP3    H134897   5.500   2.595   0.696  1.1371 -0.2278 -2.3261
 4446TIP3    H234898   5.615   2.692   0.678  0.8655  0.8506  0.9907
 4447TIP3   OH234899   5.092   6.673   1.649  0.1041 -0.3181 -0.4779
 4447TIP3    H134900   5.134   6.723   1.580 -0.4516 -0.4505 -0.9200
 4447TIP3    H234901   4.998   6.683   1.633 -0.0187 -1.9720 -0.9379
 4448TIP3   OH234902   4.010   2.508   7.570  0.0178  0.3504 -0.4405
 4448TIP3    H134903   4.067   2.583   7.585 -0.3735  0.3915  0.9966
 4448TIP3    H234904   3.948   2.510   7.643 -2.2574  0.6954 -2.2370
 4449TIP3   OH234905   6.854   0.363   1.790  0.2448 -0.4427  0.4914
 4449TIP3    H134906   6.926   0.331   1.736  0.4499  0.6703  0.0766
 4449TIP3    H234907   6.845   0.298   1.860  1.6476 -0.5964  0.5502
 4450TIP3   OH234908   5.085   3.841   2.280 -0.2109  0.1287 -0.5439
 4450TIP3    H134909   5.060   3.763   2.231  0.5697 -0.7604  0.4052
 4450TIP3    H234910   5.181   3.844   2.272  0.0862 -0.6853  1.7308
 4451TIP3   OH234911   5.896   1.928   1.798  0.0899 -0.4913  0.5341
 4451TIP3    H134912   5.896   1.843   1.754  2.7028 -1.1831  1.7000
 4451TIP3    H234913   5.834   1.918   1.871  0.7049 -1.5721  0.9239
 4452TIP3   OH234914   3.188   1.780   7.894  0.8004 -0.0596 -0.0165
 4452TIP3    H134915   3.130   1.786   7.970 -0.1034 -0.4110 -0.6599
 4452TIP3    H234916   3.146   1.834   7.827  1.9208  0.7669 -0.0740
 4453TIP3   OH234917   6.791   1.505   2.782  0.1050 -0.3589 -0.4093
 4453TIP3    H134918   6.774   1.483   2.874 -1.5365 -1.2996 -0.8986
 4453TIP3    H234919   6.849   1.437   2.751  1.3223  0.4035  0.1087
 4454TIP3   OH234920   3.950   4.195   6.868  0.5439  0.0342  0.2206
 4454TIP3    H134921   4.033   4.179   6.822  0.2722 -1.1476  0.1088
 4454TIP3    H234922   3.918   4.278   6.831  0.9789 -0.2170 -0.7637
 4455TIP3   OH234923   6.478   5.515   0.884  1.3360  0.0419 -0.3399
 4455TIP3    H134924   6.472   5.422   0.907 -1.6014  0.8457  3.2609
 4455TIP3    H234925   6.552   5.547   0.936  0.8795  0.0996  0.2853
 4456TIP3   OH234926   4.550   6.491   2.933  0.1246 -0.2929  0.4773
 4456TIP3    H134927   4.480   6.529   2.880  1.7522  1.0542 -0.8496
 4456TIP3    H234928   4.583   6.418   2.881  1.7086  1.0166 -0.4799
 4457TIP3   OH234929   1.495   3.941   7.294  0.1666 -0.0170 -0.2160
 4457TIP3    H134930   1.472   4.023   7.337  0.5190  1.2962 -2.3477
 4457TIP3    H234931   1.420   3.922   7.237  0.4174 -0.7521 -0.3126
 4458TIP3   OH234932   4.009   4.726   7.440  0.1859  0.6891  0.1461
 4458TIP3    H134933   3.953   4.688   7.508  1.1412 -0.3340  0.3852
 4458TIP3    H234934   4.091   4.676   7.445  1.2698  2.3896  0.0527
 4459TIP3   OH234935   3.309   1.876   0.692  0.2004 -0.0070  0.1897
 4459TIP3    H134936   3.373   1.936   0.730 -0.6559  0.8904  0.2501
 4459TIP3    H234937   3.228   1.926   0.690 -0.5437 -1.1847  0.2769
 4460TIP3   OH234938   4.942   4.432   7.228  0.4909  0.1326  0.1012
 4460TIP3    H134939   5.033   4.453   7.246  0.6205 -0.8887  0.6409
 4460TIP3    H234940   4.894   4.464   7.305  0.2716  1.4407 -0.5530
 4461TIP3   OH234941   5.498   2.142   2.737 -0.6987  0.0018  0.0679
 4461TIP3    H134942   5.510   2.047   2.741  0.6941  0.1788  3.2402
 4461TIP3    H234943   5.579   2.175   2.700 -1.1102 -0.0175 -0.8643
 4462TIP3   OH234944   5.637   0.276   2.931  0.3068 -0.0355 -0.0425
 4462TIP3    H134945   5.728   0.269   2.959  0.3568  1.2492  0.1676
 4462TIP3    H234946   5.610   0.186   2.913  1.6441 -0.4208 -0.2008
 4463TIP3   OH234947   0.336   3.150   8.302  0.2208 -0.5361 -0.6729
 4463TIP3    H134948   0.286   3.226   8.272 -1.1300 -1.0938  0.0960
 4463TIP3    H234949   0.409   3.144   8.240  1.3790  2.3753  0.2082
 4464TIP3   OH234950   3.651   0.019   8.599 -0.0666  0.7838  0.0700
 4464TIP3    H134951   3.556   0.032   8.590  0.0175  0.5060 -1.7627
 4464TIP3    H234952   3.662  -0.019   8.686 -1.7920 -0.3026 -0.1256
 4465TIP3   OH234953   5.393   5.987   2.500  0.5364 -0.4540 -0.2292
 4465TIP3    H134954   5.331   5.924   2.462  1.5539 -0.0457 -2.7916
 4465TIP3    H234955   5.474   5.972   2.451  1.5300  1.1850  0.8384
 4466TIP3   OH234956   0.246   2.692   7.992 -0.1376  0.2087  0.0960
 4466TIP3    H134957   0.203   2.725   7.913 -1.9333 -0.4780  0.7227
 4466TIP3    H234958   0.332   2.661   7.962 -0.5405  0.5330 -1.4611
 4467TIP3   OH234959   5.129   2.322   8.058  0.0810  0.2262  0.1933
 4467TIP3    H134960   5.140   2.401   8.005 -0.3145  0.9264  1.1381
 4467TIP3    H234961   5.070   2.267   8.006 -1.0238  1.2809  0.2742
 4468TIP3   OH234962   3.269   3.051   2.187 -0.0225  0.6825  0.0052
 4468TIP3    H134963   3.219   2.991   2.132 -0.6793  1.2675 -0.0562
 4468TIP3    H234964   3.210   3.125   2.201  0.3723  0.8223  0.9850
 4469TIP3   OH234965   1.357   5.510   1.905  0.4228 -0.8075  0.3913
 4469TIP3    H134966   1.423   5.454   1.946  0.4363 -1.3734 -0.3882
 4469TIP3    H234967   1.328   5.461   1.828 -2.1887 -1.3787  1.6407
 4470TIP3   OH234968   4.942   6.228   7.055 -0.1251 -0.0240 -0.2487
 4470TIP3    H134969   4.932   6.283   6.977 -0.0376  0.6882  0.2265
 4470TIP3    H234970   4.905   6.144   7.031  1.3229 -0.3242 -1.5923
 4471TIP3   OH234971   2.417   5.092   8.216 -0.3216 -0.4835 -0.0860
 4471TIP3    H134972   2.401   5.019   8.156  0.3724 -0.0557 -0.8139
 4471TIP3    H234973   2.477   5.056   8.282 -0.3573 -0.7094 -0.1756
 4472TIP3   OH234974   3.233   0.080   1.285  0.1401  0.8047  0.0286
 4472TIP3    H134975   3.225   0.118   1.198 -1.8577  1.8209  0.5868
 4472TIP3    H234976   3.167   0.127   1.337  0.4809 -0.5825  1.7861
 4473TIP3   OH234977   5.989   2.363   0.202  0.4605 -0.0745 -0.2892
 4473TIP3    H134978   6.075   2.320   0.198  0.4965 -0.0263 -0.0022
 4473TIP3    H234979   5.939   2.321   0.132  1.3680  1.3195 -1.8512
 4474TIP3   OH234980   0.694   4.161   2.208  0.4981 -0.1508  0.3460
 4474TIP3    H134981   0.684   4.253   2.229  1.1654 -0.4567  2.1668
 4474TIP3    H234982   0.784   4.153   2.175  0.0762  0.0076 -0.8989
 4475TIP3   OH234983   0.019   6.308   7.686  0.8212 -0.0775 -0.0388
 4475TIP3    H134984   0.042   6.229   7.637 -0.2825 -0.6456  0.3154
 4475TIP3    H234985  -0.065   6.335   7.648  1.1506  0.8901 -0.1009
 4476TIP3   OH234986   0.863   0.143   7.706 -0.1531  0.1420 -0.1004
 4476TIP3    H134987   0.806   0.216   7.682 -1.8088 -1.5652 -1.6816
 4476TIP3    H234988   0.817   0.099   7.778  0.0627 -0.2172 -0.1808
 4477TIP3   OH234989   4.543   3.626   0.485 -0.4175  0.0279 -0.4639
 4477TIP3    H134990   4.509   3.548   0.442  0.0481 -1.9132  2.3804
 4477TIP3    H234991   4.465   3.679   0.503 -0.8173 -0.0418 -1.8626
 4478TIP3   OH234992   6.040   1.717   1.988  0.1136  0.2710 -0.2931
 4478TIP3    H134993   6.101   1.726   1.915 -0.4439  0.9667 -0.7025
 4478TIP3    H234994   5.955   1.741   1.950 -1.0648 -3.7918 -0.6109
 4479TIP3   OH234995   4.304   6.751   0.231 -0.3219  0.1003 -0.1390
 4479TIP3    H134996   4.364   6.691   0.186  0.2562  0.4403  0.1691
 4479TIP3    H234997   4.237   6.694   0.268  1.1070 -0.5687  1.5732
 4480TIP3   OH234998   5.562   4.922   8.166  0.8286  0.0231 -0.1576
 4480TIP3    H134999   5.526   5.011   8.161  0.3006 -0.2091 -0.5880
 4480TIP3    H235000   5.487   4.867   8.188  0.7982 -0.5369 -1.5519
 4481TIP3   OH235001   4.231   4.841   1.928 -0.0810 -0.5263  0.0654
 4481TIP3    H135002   4.320   4.806   1.939 -0.2009 -1.5105 -1.7251
 4481TIP3    H235003   4.182   4.804   2.002  0.9664  0.0177  1.0718
 4482TIP3   OH235004   3.190   0.280   2.190 -0.0098 -0.2185 -0.0490
 4482TIP3    H135005   3.178   0.197   2.235 -1.1277  0.6487  1.3148
 4482TIP3    H235006   3.106   0.325   2.198  0.5732  1.0652 -0.7457
 4483TIP3   OH235007   0.196   6.448   8.435  0.0373  0.2671  0.0233
 4483TIP3    H135008   0.111   6.488   8.415 -1.0246 -1.7783  0.0931
 4483TIP3    H235009   0.258   6.495   8.380 -0.7712  3.0691  1.2947
 4484TIP3   OH235010   5.091   5.689   1.795  0.1929  0.3476 -0.2325
 4484TIP3    H135011   5.114   5.735   1.875 -1.7021 -0.1485  0.6479
 4484TIP3    H235012   5.143   5.609   1.797 -1.3488 -0.6803  1.6223
 4485TIP3   OH235013   0.490   4.114   0.009 -0.3216 -0.4170 -0.4568
 4485TIP3    H135014   0.584   4.131   0.020 -0.4059  0.2253 -0.6741
 4485TIP3    H235015   0.454   4.198  -0.019 -0.8564 -0.8407 -1.0618
 4486TIP3   OH235016   1.642   3.188   8.462  0.1177 -0.2746  0.7006
 4486TIP3    H135017   1.697   3.144   8.397 -0.3816  0.2410 -0.0833
 4486TIP3    H235018   1.651   3.134   8.541 -1.1022 -2.2455 -0.4387
 4487TIP3   OH235019   0.890   3.513   0.208 -0.4391  0.3937  0.1613
 4487TIP3    H135020   0.800   3.497   0.179  0.4605 -0.1326 -2.5997
 4487TIP3    H235021   0.943   3.504   0.129  2.1681 -0.0533  1.8341
 4488TIP3   OH235022   1.097   5.345   7.273 -0.0936 -0.1741  0.1508
 4488TIP3    H135023   1.102   5.321   7.180 -0.5647  1.1730 -0.2527
 4488TIP3    H235024   1.140   5.431   7.278 -0.8016  0.1487  1.0158
 4489TIP3   OH235025   3.358   3.319   8.198 -0.1565  0.2152 -0.0103
 4489TIP3    H135026   3.398   3.340   8.282  0.0213  0.3612 -0.1316
 4489TIP3    H235027   3.431   3.310   8.137 -0.3668  2.4370 -0.6798
 4490TIP3   OH235028   6.686   1.177   1.391 -0.5266  0.0302 -0.1239
 4490TIP3    H135029   6.675   1.165   1.485  0.8844 -1.0008 -0.0448
 4490TIP3    H235030   6.635   1.255   1.369 -1.0307  0.1639  1.4511
 4491TIP3   OH235031   6.080   5.901   0.514  0.0589 -0.4802  0.2860
 4491TIP3    H135032   6.124   5.971   0.562  2.0563 -1.3647 -0.1219
 4491TIP3    H235033   5.987   5.918   0.525  0.4843  1.1117  1.8200
 4492TIP3   OH235034   5.800   4.902   0.664  0.4147  0.0934  0.6038
 4492TIP3    H135035   5.844   4.818   0.657  2.4070  1.0859  0.4635
 4492TIP3    H235036   5.753   4.912   0.581 -1.7538 -1.8043  1.4815
 4493TIP3   OH235037   3.993   3.094   7.517 -0.1672  0.4477  0.4288
 4493TIP3    H135038   3.909   3.093   7.563 -1.2425 -1.4560 -1.3542
 4493TIP3    H235039   3.982   3.159   7.448 -0.1234  0.3629  0.3399
 4494TIP3   OH235040   1.493   3.015   0.815  0.2743  0.2936 -0.3151
 4494TIP3    H135041   1.583   2.993   0.790  1.5612  2.4735  1.9459
 4494TIP3    H235042   1.469   3.088   0.757  0.8007  1.0955  0.4544
 4495TIP3   OH235043   6.319   3.101   1.687  0.0935 -0.5001  0.2866
 4495TIP3    H135044   6.234   3.114   1.643  0.7472  0.2851 -0.8023
 4495TIP3    H235045   6.296   3.081   1.778 -1.2266  1.8957  0.5577
 4496TIP3   OH235046   1.546   2.269   7.484 -0.5097 -0.1492 -0.1445
 4496TIP3    H135047   1.491   2.321   7.543 -0.7200 -0.7144  0.1621
 4496TIP3    H235048   1.542   2.316   7.401 -1.3331 -0.1014 -0.0863
 4497TIP3   OH235049   1.204   6.646   1.267  0.8210  0.1323  0.7268
 4497TIP3    H135050   1.142   6.658   1.195 -1.9616  2.6090  3.2540
 4497TIP3    H235051   1.274   6.709   1.250  0.7966 -0.1277 -0.3729
 4498TIP3   OH235052   2.293   5.293   1.453  0.1914 -0.7952 -0.5837
 4498TIP3    H135053   2.238   5.231   1.500  0.1112 -0.7123 -0.5685
 4498TIP3    H235054   2.285   5.375   1.501 -0.7528 -0.4179 -1.3578
 4499TIP3   OH235055   2.199   3.692   2.148 -0.5969  0.4096 -1.1221
 4499TIP3    H135056   2.141   3.687   2.072 -1.2679  0.0528 -0.6005
 4499TIP3    H235057   2.164   3.625   2.208  0.8416 -0.3845 -1.1325
 4500TIP3   OH235058   0.597   1.643   1.504 -0.3871 -0.3719 -0.4190
 4500TIP3    H135059   0.579   1.553   1.533  0.3651 -0.4129 -0.0812
 4500TIP3    H235060   0.570   1.698   1.578  0.6597 -0.4207  0.0061
 4501TIP3   OH235061   3.051   0.257   0.169 -0.4310  0.4202 -1.0462
 4501TIP3    H135062   2.987   0.186   0.170 -0.9091  0.8484 -0.3133
 4501TIP3    H235063   3.131   0.217   0.204 -1.2002  0.6583  1.1559
 4502TIP3   OH235064   6.098   0.304   0.487  0.2918  0.1735 -0.2985
 4502TIP3    H135065   6.084   0.229   0.544 -0.6133  0.3459 -0.2868
 4502TIP3    H235066   6.145   0.368   0.541 -1.8759  0.9427  0.7540
 4503TIP3   OH235067   0.951   6.382   7.659 -0.6052  0.0685  0.4916
 4503TIP3    H135068   0.979   6.405   7.748 -1.4139 -0.6170  0.9273
 4503TIP3    H235069   0.866   6.425   7.649 -1.1007 -0.8881  0.5146
 4504TIP3   OH235070   2.738   1.454   1.899 -0.1440  0.2297 -0.1473
 4504TIP3    H135071   2.722   1.398   1.976 -1.9740 -1.0056 -1.3313
 4504TIP3    H235072   2.826   1.430   1.870 -0.7964 -2.0079 -0.5021
 4505TIP3   OH235073   2.127   1.403   7.174  0.0397 -0.8494  0.5387
 4505TIP3    H135074   2.090   1.321   7.207  0.8258 -1.3376  0.2091
 4505TIP3    H235075   2.181   1.377   7.100 -0.2564  0.0450  0.0015
 4506TIP3   OH235076   6.480   3.933   7.197  0.6199 -0.1518  0.7292
 4506TIP3    H135077   6.481   3.839   7.180  2.7988  0.2475 -2.1650
 4506TIP3    H235078   6.492   3.941   7.291  1.3738 -2.7647  0.9218
 4507TIP3   OH235079   6.001   3.243   2.182  0.2462  0.4064 -0.0305
 4507TIP3    H135080   6.049   3.190   2.245 -0.6298 -2.0007 -1.2781
 4507TIP3    H235081   5.950   3.304   2.237  3.0473  1.6933  1.3579
 4508TIP3   OH235082   0.172   2.286   7.204 -0.3817 -0.0852  0.5303
 4508TIP3    H135083   0.124   2.207   7.181  0.0927  0.1044 -1.2496
 4508TIP3    H235084   0.106   2.356   7.198 -0.3866 -0.1100  0.2957
 4509TIP3   OH235085   1.610   5.288   7.760 -0.2678 -0.6692 -0.3267
 4509TIP3    H135086   1.618   5.302   7.854 -1.8686  0.1335 -0.2631
 4509TIP3    H235087   1.655   5.362   7.720  0.2959 -0.9400 -0.1950
 4510TIP3   OH235088   0.583   6.209   0.076  0.0266  0.4363 -0.3736
 4510TIP3    H135089   0.556   6.163  -0.003  0.2899 -1.3839  0.5407
 4510TIP3    H235090   0.514   6.191   0.140  0.5446  0.6127  0.2527
 4511TIP3   OH235091   2.230   1.737   6.993 -0.3878 -0.1846  0.0945
 4511TIP3    H135092   2.249   1.779   7.077 -1.4909 -3.5524  2.2335
 4511TIP3    H235093   2.135   1.740   6.985 -0.3259 -0.2761 -0.8271
 4512TIP3   OH235094   6.664   3.966   0.961  0.9282 -0.2691 -0.7259
 4512TIP3    H135095   6.623   3.945   0.878  1.1015  0.1164 -0.9099
 4512TIP3    H235096   6.630   4.052   0.984 -0.0030 -0.8559  0.1682
 4513TIP3   OH235097   4.049   3.908   8.005 -0.0493 -0.4235 -0.2025
 4513TIP3    H135098   4.056   3.835   8.066 -0.0081 -0.7033 -0.5411
 4513TIP3    H235099   4.050   3.868   7.918  1.5500  0.0745 -0.4609
 4514TIP3   OH235100   2.391   2.030   2.174  0.0851 -0.0936 -0.2561
 4514TIP3    H135101   2.305   1.988   2.168  0.4485 -0.8678 -0.2086
 4514TIP3    H235102   2.380   2.100   2.237 -0.2862 -0.7781  0.4453
 4515TIP3   OH235103   1.174   0.816   2.857 -0.1321 -0.4995 -0.4247
 4515TIP3    H135104   1.215   0.815   2.943  3.4834 -0.4223 -1.9769
 4515TIP3    H235105   1.127   0.900   2.854  1.4748  0.5009  0.7552
 4516TIP3   OH235106   5.723   4.839   2.843 -0.1814  0.2478 -0.1208
 4516TIP3    H135107   5.707   4.925   2.804 -0.7601 -0.0621 -0.5777
 4516TIP3    H235108   5.817   4.838   2.861  0.3373 -0.0087 -2.4993
 4517TIP3   OH235109   0.588   5.158   6.874  0.2316 -0.3177  0.7787
 4517TIP3    H135110   0.511   5.101   6.885 -0.2958  0.3622  0.6977
 4517TIP3    H235111   0.650   5.105   6.823 -0.9585 -0.2109 -0.8912
 4518TIP3   OH235112   3.922   4.480   7.851  0.5108 -0.3750 -0.3817
 4518TIP3    H135113   3.995   4.421   7.871  0.1339 -0.6291  0.2613
 4518TIP3    H235114   3.850   4.423   7.826 -0.4054 -0.3240  1.9538
 4519TIP3   OH235115   2.295   6.642   2.295  0.5036  0.3150  0.2145
 4519TIP3    H135116   2.306   6.616   2.204 -0.9957  0.9830 -0.1900
 4519TIP3    H235117   2.373   6.609   2.340  1.1648 -0.1867 -1.2664
 4520TIP3   OH235118   6.089   4.788   8.236 -0.1735 -0.0284 -0.1578
 4520TIP3    H135119   5.994   4.789   8.223 -0.7347 -1.2131  2.8804
 4520TIP3    H235120   6.119   4.714   8.183 -0.7857  0.7208 -1.6280
 4521TIP3   OH235121   5.332   3.870   7.925 -0.3972  0.4237  0.1045
 4521TIP3    H135122   5.299   3.843   8.011  0.1670 -1.4349 -0.2300
 4521TIP3    H235123   5.254   3.880   7.871 -0.6678  0.2038  0.4511
 4522TIP3   OH235124   3.526   1.497   7.744  1.1017 -0.0661 -0.1703
 4522TIP3    H135125   3.498   1.492   7.835  0.1298  1.7752 -0.3244
 4522TIP3    H235126   3.445   1.488   7.694  1.6360 -1.1291 -0.8688
 4523TIP3   OH235127   1.968   3.339   0.164 -0.1849 -0.3327 -0.3406
 4523TIP3    H135128   2.009   3.419   0.197 -0.1421  0.3917 -2.0660
 4523TIP3    H235129   1.875   3.350   0.185 -0.2367  0.3585 -0.8950
 4524TIP3   OH235130   0.466   0.917   0.913 -0.8020 -0.3506  0.1922
 4524TIP3    H135131   0.476   0.845   0.851 -0.9510 -0.9739  0.8697
 4524TIP3    H235132   0.497   0.994   0.866  0.8314 -1.1022 -0.0341
 4525TIP3   OH235133   6.790   2.136   7.130  0.2686 -0.0543  0.9876
 4525TIP3    H135134   6.756   2.155   7.042  0.2241  0.3627  1.0893
 4525TIP3    H235135   6.747   2.200   7.186  0.2780 -0.3383  1.3181
 4526TIP3   OH235136   4.038   1.913   1.927  0.5727  0.4555 -0.1196
 4526TIP3    H135137   3.982   1.980   1.888 -0.1209 -0.3010 -0.4602
 4526TIP3    H235138   4.068   1.951   2.009  0.9931  1.5624 -0.7690
 4527TIP3   OH235139   1.529   5.210   1.839 -0.3258  0.2856  0.1878
 4527TIP3    H135140   1.449   5.261   1.830  0.0151  0.8486  0.2682
 4527TIP3    H235141   1.575   5.223   1.756 -0.8109 -0.9246 -0.2988
 4528TIP3   OH235142   6.812   1.700   7.041 -0.0292  0.1363 -0.1030
 4528TIP3    H135143   6.853   1.622   7.003  1.3257  0.2637  1.0185
 4528TIP3    H235144   6.733   1.667   7.084 -1.7985  0.0248 -3.1443
 4529TIP3   OH235145   2.063   3.755   2.798  0.1855 -0.4968  0.4626
 4529TIP3    H135146   2.014   3.778   2.719 -1.3069  0.7680  1.6993
 4529TIP3    H235147   2.109   3.835   2.823 -2.0700  0.2434  2.7057
 4530TIP3   OH235148   0.938   5.207   8.149 -0.3983  0.1238  0.2392
 4530TIP3    H135149   0.876   5.279   8.138 -0.6501  0.3579  2.5934
 4530TIP3    H235150   1.010   5.245   8.198  0.0609 -0.9332  0.4021
 4531TIP3   OH235151   1.788   5.598   0.825  0.2710 -0.2143 -0.3502
 4531TIP3    H135152   1.826   5.682   0.800  2.4438 -1.0499  0.0103
 4531TIP3    H235153   1.822   5.580   0.912  0.9105 -2.0560 -0.9255
 4532TIP3   OH235154   6.271   2.465   7.596 -0.8240  0.2585  0.0573
 4532TIP3    H135155   6.280   2.493   7.505 -1.4031  0.0161 -0.0836
 4532TIP3    H235156   6.276   2.545   7.647 -2.6611  0.6903 -0.3520
 4533TIP3   OH235157   5.835   0.017   6.939  0.2594 -0.9275  0.2480
 4533TIP3    H135158   5.762  -0.011   6.994 -0.0936 -0.8137 -0.1545
 4533TIP3    H235159   5.816  -0.020   6.853 -0.3369  0.6858 -0.3637
 4534TIP3   OH235160   4.795   5.529   6.820 -0.6081  0.5463 -0.4054
 4534TIP3    H135161   4.852   5.539   6.897 -0.4578 -0.7751 -0.3257
 4534TIP3    H235162   4.839   5.464   6.766 -1.9939 -0.4349 -0.3973
 4535TIP3   OH235163   4.766   6.852   1.053  0.2708  0.1052 -0.1432
 4535TIP3    H135164   4.791   6.853   1.145  1.8989 -1.4146 -0.5027
 4535TIP3    H235165   4.833   6.798   1.011  0.0569  1.4557 -2.3748
 4536TIP3   OH235166   5.015   3.410   7.169 -0.3587 -0.2812 -0.1175
 4536TIP3    H135167   4.956   3.484   7.180 -1.8701 -1.4298 -0.2387
 4536TIP3    H235168   4.958   3.335   7.158  1.0602 -1.9082  2.5027
 4537TIP3   OH235169   5.280   1.022   7.805  0.3873  0.7215  0.2730
 4537TIP3    H135170   5.276   0.964   7.728 -0.4596  0.6697  0.3422
 4537TIP3    H235171   5.245   1.105   7.774 -0.5282  0.5253  0.7417
 4538TIP3   OH235172   4.907   3.079   0.460 -0.0412  0.6666 -0.2867
 4538TIP3    H135173   4.850   3.105   0.533 -1.0532 -0.2146 -0.7401
 4538TIP3    H235174   4.891   3.144   0.392 -3.5866 -1.6024 -1.9464
 4539TIP3   OH235175   4.223   4.569   7.455 -0.1390  0.0816  0.1080
 4539TIP3    H135176   4.260   4.597   7.539  0.8179 -1.2065  0.1460
 4539TIP3    H235177   4.246   4.476   7.449  0.0090  0.2025 -1.6918
 4540TIP3   OH235178   3.776   0.121   1.280  0.0429 -0.5593 -0.1425
 4540TIP3    H135179   3.754   0.201   1.232  0.9536 -1.1561 -1.6261
 4540TIP3    H235180   3.858   0.142   1.325  1.1626 -1.1230 -1.8384
 4541TIP3   OH235181   0.995   6.485   7.906  0.2432  0.0326  0.5993
 4541TIP3    H135182   1.082   6.466   7.942 -0.2968 -0.0717  1.9119
 4541TIP3    H235183   0.936   6.475   7.981 -0.8900  0.2027 -0.2514
 4542TIP3   OH235184   0.980   5.524   7.821  0.4757 -0.6769  0.1695
 4542TIP3    H135185   0.980   5.475   7.739 -0.4542 -0.7910  0.2304
 4542TIP3    H235186   0.983   5.616   7.794  0.3811 -0.7196  0.0090
 4543TIP3   OH235187   5.389   0.519   8.477  0.0661 -0.1367 -0.1852
 4543TIP3    H135188   5.364   0.430   8.451 -2.8007 -0.6150  3.3540
 4543TIP3    H235189   5.461   0.506   8.540  1.9371  0.4327 -2.0871
 4544TIP3   OH235190   2.056   4.509   1.689 -0.3001  0.1435  0.1377
 4544TIP3    H135191   2.082   4.435   1.634 -1.2901  0.8174 -1.2733
 4544TIP3    H235192   1.979   4.477   1.737  0.9786 -0.6907  1.7707
 4545TIP3   OH235193   2.452   6.446   2.787 -0.4272  0.0513 -0.3266
 4545TIP3    H135194   2.534   6.482   2.821 -0.1838 -1.1462  0.3920
 4545TIP3    H235195   2.406   6.522   2.751  0.3229  0.9832  0.6258
 4546TIP3   OH235196   4.597   4.936   2.230 -0.5276  0.9588 -0.1935
 4546TIP3    H135197   4.557   4.851   2.248 -2.1344  1.7579  0.2079
 4546TIP3    H235198   4.685   4.930   2.269  0.7344 -1.6274 -3.0650
 4547TIP3   OH235199   0.452   6.787   8.004  0.0535  0.1176  0.8317
 4547TIP3    H135200   0.521   6.854   8.001 -0.7008  0.8865 -1.1111
 4547TIP3    H235201   0.382   6.828   8.056 -0.1087  0.5537  0.2797
 4548TIP3   OH235202   3.519   3.864   2.894 -0.7012 -0.0304 -0.3382
 4548TIP3    H135203   3.598   3.904   2.930 -2.6514  3.0361  0.9173
 4548TIP3    H235204   3.525   3.881   2.800  0.3291 -0.2958 -0.3369
 4549TIP3   OH235205   2.678   6.671   0.775 -0.2836 -0.6386  0.5665
 4549TIP3    H135206   2.761   6.693   0.732 -0.4641  0.7689  0.9125
 4549TIP3    H235207   2.704   6.627   0.856  0.0984 -0.8321  0.3454
 4550TIP3   OH235208   3.934   6.046   0.662  0.1637 -0.0360  0.4062
 4550TIP3    H135209   3.948   5.954   0.636  0.6786 -0.0819  0.8386
 4550TIP3    H235210   3.982   6.097   0.596 -0.0405 -0.0772  0.2230
 4551TIP3   OH235211   5.938   3.650   1.870  1.2753 -0.3115  0.1405
 4551TIP3    H135212   5.850   3.685   1.882  0.9918 -1.1481  0.5923
 4551TIP3    H235213   5.942   3.575   1.929  1.8776 -1.0096 -0.7690
 4552TIP3   OH235214   3.770   5.780   1.417  0.3615 -0.9610  0.1350
 4552TIP3    H135215   3.757   5.832   1.497  0.7574  1.2912 -1.1788
 4552TIP3    H235216   3.864   5.787   1.400 -0.1075  1.1806 -2.0965
 4553TIP3   OH235217   4.235   5.863   2.262 -0.3039 -0.3211  0.6058
 4553TIP3    H135218   4.230   5.769   2.279  0.3194 -0.6053 -0.6368
 4553TIP3    H235219   4.329   5.882   2.260 -0.3846  0.0581 -0.4353
 4554TIP3   OH235220   3.228   4.871   7.210  0.5806  0.1790  0.4783
 4554TIP3    H135221   3.170   4.816   7.262  1.5071  0.3632  1.7587
 4554TIP3    H235222   3.181   4.885   7.128 -1.1490  0.2559  1.4256
 4555TIP3   OH235223   4.863   3.345   1.416 -0.0371 -0.1807  0.7124
 4555TIP3    H135224   4.939   3.370   1.363  1.6694 -2.1361  2.0769
 4555TIP3    H235225   4.843   3.256   1.388 -1.2924 -0.0061  1.0153
 4556TIP3   OH235226   0.215   0.281   1.602 -0.2297 -0.6050 -0.6942
 4556TIP3    H135227   0.166   0.287   1.520 -0.6345  0.8576 -0.3723
 4556TIP3    H235228   0.289   0.341   1.591 -2.2053  2.5041  1.2227
 4557TIP3   OH235229   5.037   2.806   0.128  0.3171 -0.7440 -0.0044
 4557TIP3    H135230   5.114   2.774   0.174  1.2724 -0.1204 -1.1302
 4557TIP3    H235231   5.052   2.899   0.115  0.2735 -0.9474 -1.8722
 4558TIP3   OH235232   0.571   2.902   7.179  0.4983 -0.3375  0.0945
 4558TIP3    H135233   0.633   2.935   7.113  0.7518  0.1118  0.5493
 4558TIP3    H235234   0.489   2.889   7.131  1.4088 -2.8018 -0.9879
 4559TIP3   OH235235   1.667   5.011   8.576 -0.4715 -0.0026  0.7697
 4559TIP3    H135236   1.598   5.062   8.532 -1.3666  0.4895  2.6513
 4559TIP3    H235237   1.749   5.051   8.545 -1.1064  1.4051  0.8112
 4560TIP3   OH235238   0.250   0.504   1.361 -0.0830  0.0037 -0.1682
 4560TIP3    H135239   0.295   0.586   1.379  2.5070 -1.3159 -0.1852
 4560TIP3    H235240   0.167   0.530   1.322 -1.3064  2.7098  3.6052
 4561TIP3   OH235241   4.335   5.083   1.881  0.0114  0.0713 -0.3724
 4561TIP3    H135242   4.284   5.084   1.962  1.8670  0.9096  0.8586
 4561TIP3    H235243   4.348   4.990   1.862 -0.4837 -0.1347  0.2634
 4562TIP3   OH235244   3.949   1.659   8.314 -0.4002 -0.0002 -0.3135
 4562TIP3    H135245   3.897   1.705   8.249  0.7932  1.6328 -0.1696
 4562TIP3    H235246   4.016   1.721   8.340  2.5788 -2.4511 -1.5547
 4563TIP3   OH235247   0.815   0.789   0.371 -0.6155  0.2567 -0.0808
 4563TIP3    H135248   0.799   0.760   0.461 -1.4344  1.3436  0.1501
 4563TIP3    H235249   0.728   0.788   0.330 -0.1768 -0.7759 -1.0554
 4564TIP3   OH235250   1.433   3.062   6.827  0.0470  0.2311  0.0491
 4564TIP3    H135251   1.428   2.972   6.796  0.6286  0.1996  0.0405
 4564TIP3    H235252   1.354   3.104   6.792 -0.5170 -0.4139  0.5272
 4565TIP3   OH235253   0.996   1.816   1.112  0.0369 -0.3485 -0.1601
 4565TIP3    H135254   0.979   1.851   1.025 -0.2790 -0.0853  0.0031
 4565TIP3    H235255   1.083   1.850   1.135  0.1570 -0.4911 -0.4080
 4566TIP3   OH235256   1.131   6.188   7.945 -0.6104 -0.4388 -0.2548
 4566TIP3    H135257   1.210   6.165   7.995 -1.1595  0.7790  1.2775
 4566TIP3    H235258   1.072   6.114   7.958 -1.0132  0.1515  1.5997
 4567TIP3   OH235259   1.195   6.518   7.642  0.2938 -0.4188  0.2130
 4567TIP3    H135260   1.116   6.465   7.632 -1.4650  2.1265 -0.4905
 4567TIP3    H235261   1.193   6.578   7.567  2.1547  0.6240  0.9403
 4568TIP3   OH235262   0.240   0.822   1.496  0.3054 -0.4499 -0.4346
 4568TIP3    H135263   0.175   0.832   1.427 -1.9875 -2.4724  1.2609
 4568TIP3    H235264   0.270   0.911   1.514 -1.5902  0.5013 -1.6793
 4569TIP3   OH235265   4.670   1.189   8.308  0.3640 -1.1252  0.1626
 4569TIP3    H135266   4.637   1.272   8.342  1.5078 -1.2135  1.5937
 4569TIP3    H235267   4.627   1.123   8.363 -0.0955 -1.4721 -0.5922
 4570TIP3   OH235268   4.588   1.181   7.168  0.2805 -0.4134  0.2451
 4570TIP3    H135269   4.520   1.137   7.219 -0.0143  1.0662  1.1704
 4570TIP3    H235270   4.664   1.186   7.227  0.1494  0.7233  0.3411
 4571TIP3   OH235271   5.551   1.517   7.208 -0.5001  0.0613  0.2997
 4571TIP3    H135272   5.574   1.504   7.116 -0.3820  0.8008  0.2173
 4571TIP3    H235273   5.504   1.438   7.232 -0.0589 -0.3779 -0.2451
 4572TIP3   OH235274   0.390   6.235   2.017  0.6331 -0.0546  0.1336
 4572TIP3    H135275   0.457   6.303   2.016  1.9866 -1.3209  1.1850
 4572TIP3    H235276   0.317   6.273   1.967  2.2878  1.1557 -1.5101
 4573TIP3   OH235277   3.693   4.796   0.366 -0.1699  0.4400 -0.1345
 4573TIP3    H135278   3.599   4.809   0.358 -0.3542 -0.5475  0.2536
 4573TIP3    H235279   3.727   4.880   0.396 -1.1591  0.2907  1.4715
 4574TIP3   OH235280   0.947   5.383   7.566 -0.1427  0.0240  0.2609
 4574TIP3    H135281   0.877   5.321   7.582  0.1992 -0.4959 -0.2322
 4574TIP3    H235282   0.978   5.363   7.478  0.5621  0.3076  0.4328
 4575TIP3   OH235283   2.849   2.106   6.742  0.2732  0.5188  0.4873
 4575TIP3    H135284   2.801   2.069   6.667  0.7190  0.7153  0.0968
 4575TIP3    H235285   2.842   2.201   6.729  2.1074  0.5839 -0.4848
 4576TIP3   OH235286   5.502   2.659   1.246  0.0028 -0.4603  0.0602
 4576TIP3    H135287   5.486   2.565   1.241 -0.1909 -0.3999 -0.4776
 4576TIP3    H235288   5.498   2.690   1.155  0.0509  0.0698  0.2320
 4577TIP3   OH235289   0.282   0.720   8.391  0.1102  0.1792  0.1504
 4577TIP3    H135290   0.299   0.814   8.395 -0.9753  0.4441 -0.8767
 4577TIP3    H235291   0.322   0.685   8.471  0.1613  1.5691  0.7667
 4578TIP3   OH235292   4.923   2.097   3.042 -0.0714  0.5811  0.1645
 4578TIP3    H135293   4.857   2.122   2.977 -0.4733 -0.6078  0.0823
 4578TIP3    H235294   4.988   2.167   3.038 -0.8346  1.2880 -0.4516
 4579TIP3   OH235295   1.069   6.296   1.147  0.4129  0.2019 -0.4925
 4579TIP3    H135296   1.106   6.260   1.227  0.2218  0.6767 -0.1895
 4579TIP3    H235297   1.115   6.249   1.077 -0.4561 -1.2747 -0.1122
 4580TIP3   OH235298   3.409   4.360   8.649  0.3889  0.3463 -0.1042
 4580TIP3    H135299   3.396   4.291   8.584 -0.3892 -0.0313  0.4468
 4580TIP3    H235300   3.364   4.330   8.727 -0.6816  1.8395 -0.0957
 4581TIP3   OH235301   3.975   6.156   1.993 -0.2362 -0.4939  0.2991
 4581TIP3    H135302   3.985   6.211   2.071  0.7006 -1.6158  1.0087
 4581TIP3    H235303   3.999   6.068   2.022 -2.0266 -1.3800 -0.7199
 4582TIP3   OH235304   4.533   5.987   8.272  0.5034 -0.0746 -0.8191
 4582TIP3    H135305   4.573   6.004   8.358  0.7549 -0.1790 -0.9153
 4582TIP3    H235306   4.559   6.061   8.218 -0.8606  0.7494 -0.4024
 4583TIP3   OH235307   3.650   2.354   7.870 -0.1070  0.4426 -0.0592
 4583TIP3    H135308   3.582   2.366   7.805 -1.1367  1.6530  1.1883
 4583TIP3    H235309   3.614   2.290   7.932 -0.8956  2.3511  1.5461
 4584TIP3   OH235310   4.457   5.608   7.223 -0.0624 -0.2357 -0.4201
 4584TIP3    H135311   4.514   5.552   7.170 -0.9242 -0.9670 -0.6033
 4584TIP3    H235312   4.423   5.673   7.162 -1.7574 -1.6159 -1.0185
 4585TIP3   OH235313   3.969   3.990   0.624 -0.6507  0.1783  0.0167
 4585TIP3    H135314   3.875   3.974   0.627 -1.1653  2.9415  0.9783
 4585TIP3    H235315   3.998   3.982   0.716  0.0390 -0.4752 -0.2429
 4586TIP3   OH235316   4.787   0.039   6.625 -0.1803  0.6923  0.4556
 4586TIP3    H135317   4.838   0.080   6.695  0.6281 -1.6667  1.3502
 4586TIP3    H235318   4.740  -0.032   6.668 -1.9716  0.9853 -0.9127
 4587TIP3   OH235319   4.563   0.815   7.039  0.7531  0.4825 -0.6400
 4587TIP3    H135320   4.472   0.844   7.034  0.0878 -1.2808  0.3895
 4587TIP3    H235321   4.558   0.720   7.035  2.4337  0.2788  0.9329
 4588TIP3   OH235322   2.464   0.823   0.010  0.2615  0.1848  0.0454
 4588TIP3    H135323   2.555   0.853   0.014  1.1340 -2.3714  2.2711
 4588TIP3    H235324   2.470   0.728   0.002 -2.2526  0.0387 -0.9420
 4589TIP3   OH235325   3.193   5.939   2.237  0.0748  0.1991 -0.1739
 4589TIP3    H135326   3.099   5.952   2.252 -0.1671  0.6467 -1.8197
 4589TIP3    H235327   3.214   5.859   2.285 -1.1404  0.1212  0.2688
 4590TIP3   OH235328   2.704   1.149   7.347  0.5120  0.3936  0.4611
 4590TIP3    H135329   2.734   1.063   7.376 -1.5530 -0.9522 -1.1438
 4590TIP3    H235330   2.780   1.186   7.302  0.5859 -1.9659 -1.5790
 4591TIP3   OH235331   6.222   3.733   0.850  0.6098 -0.1472  0.0555
 4591TIP3    H135332   6.203   3.645   0.881  0.9543 -0.6507 -1.1247
 4591TIP3    H235333   6.248   3.722   0.759 -0.0037  1.2482 -0.3200
 4592TIP3   OH235334   0.291   5.050   1.988 -0.0016 -0.2628  0.1927
 4592TIP3    H135335   0.322   4.990   2.056 -2.2050 -0.0274  1.4920
 4592TIP3    H235336   0.248   5.121   2.036 -0.9186  0.3323 -1.4350
 4593TIP3   OH235337   4.021   3.081   2.249  0.5723  0.1288  0.4162
 4593TIP3    H135338   3.942   3.081   2.196 -0.2912  0.4043  1.6495
 4593TIP3    H235339   4.033   2.989   2.274  0.3454  0.1495  0.6172
 4594TIP3   OH235340   6.594   0.856   1.352  0.6756 -0.5497  0.3558
 4594TIP3    H135341   6.502   0.829   1.354  0.2721  0.7670  0.4606
 4594TIP3    H235342   6.591   0.951   1.339  2.0389 -0.5619 -0.1945
 4595TIP3   OH235343   1.258   0.368   2.385 -0.2420  0.3863  0.4176
 4595TIP3    H135344   1.170   0.349   2.416 -0.6541  1.2885 -0.1643
 4595TIP3    H235345   1.285   0.288   2.339 -0.9152  0.2568  0.2394
 4596TIP3   OH235346   3.112   1.326   6.747 -0.5193  0.1760 -0.1719
 4596TIP3    H135347   3.146   1.244   6.709  2.1752  1.0139  0.2198
 4596TIP3    H235348   3.153   1.330   6.833 -0.1308  2.2039 -0.4197
 4597TIP3   OH235349   1.985   5.732   8.654 -0.0726 -0.0403  0.2438
 4597TIP3    H135350   2.062   5.696   8.698  0.4219 -2.1120 -2.0940
 4597TIP3    H235351   1.912   5.677   8.682 -0.4916  1.0338  1.3525
 4598TIP3   OH235352   0.458   3.169   8.614  0.4273 -0.0648 -0.3335
 4598TIP3    H135353   0.386   3.232   8.621 -0.5112 -0.9112 -1.8771
 4598TIP3    H235354   0.519   3.209   8.552  0.8180  0.1909  0.2015
 4599TIP3   OH235355   6.747   2.294   7.344 -0.0534  0.4862 -0.5983
 4599TIP3    H135356   6.687   2.355   7.387  0.2899 -0.0498  0.6808
 4599TIP3    H235357   6.807   2.350   7.294  0.8839  1.2854  1.3482
 4600TIP3   OH235358   5.701   3.102   1.022 -0.2721  0.1942 -0.7806
 4600TIP3    H135359   5.649   3.142   0.952  0.0279 -0.3939 -1.3530
 4600TIP3    H235360   5.767   3.168   1.042 -0.6332  0.5468 -0.7418
 4601TIP3   OH235361   5.577   2.899   7.952 -0.0699  0.3140 -0.1701
 4601TIP3    H135362   5.553   2.933   8.038 -1.4438 -0.2403 -0.3102
 4601TIP3    H235363   5.585   2.977   7.897 -1.4296  0.5649 -0.0621
 4602TIP3   OH235364   0.048   6.268   8.575 -0.1443  0.1203  0.5623
 4602TIP3    H135365   0.091   6.340   8.529 -1.6449  0.1798 -0.8566
 4602TIP3    H235366   0.116   6.230   8.629  1.1724  1.4051 -0.1228
 4603TIP3   OH235367   4.193   3.909   7.287  0.2087  0.3438 -0.0203
 4603TIP3    H135368   4.146   3.875   7.211  0.1678  0.4072 -0.0228
 4603TIP3    H235369   4.281   3.871   7.280 -0.0364 -0.3047  0.3369
 4604TIP3   OH235370   5.043   0.765   7.654  0.0938 -0.3526  0.0416
 4604TIP3    H135371   5.110   0.825   7.622 -0.1234  0.6754  1.3827
 4604TIP3    H235372   4.981   0.757   7.582 -1.3668  3.3352  0.6618
 4605TIP3   OH235373   4.523   5.826   7.464  0.1670  0.1753  0.1403
 4605TIP3    H135374   4.553   5.836   7.373  0.6785 -0.8565  0.1847
 4605TIP3    H235375   4.469   5.904   7.479 -0.6504 -0.0647 -1.3261
 4606TIP3   OH235376   6.777   3.529   7.058 -0.1861 -0.4213 -0.2820
 4606TIP3    H135377   6.830   3.508   6.980  1.1513 -1.7863  0.9127
 4606TIP3    H235378   6.839   3.523   7.130 -1.4355  0.6500  0.9182
 4607TIP3   OH235379   4.406   3.099   6.582  0.0750 -0.6230 -0.0697
 4607TIP3    H135380   4.322   3.075   6.621 -0.0066  1.7923  1.5025
 4607TIP3    H235381   4.426   3.184   6.622  2.7188 -0.6109 -1.2752
 4608TIP3   OH235382   5.629   5.847   0.367 -0.5002  0.4500  0.6010
 4608TIP3    H135383   5.629   5.756   0.337 -0.0594  0.7219 -0.2528
 4608TIP3    H235384   5.536   5.868   0.379 -0.6033 -0.1230  0.8679
 4609TIP3   OH235385   5.917   1.955   0.665  0.0318 -0.0193  0.0092
 4609TIP3    H135386   5.992   1.897   0.674  0.4455  0.8736  3.8139
 4609TIP3    H235387   5.926   2.017   0.736 -1.6429  3.3762 -2.4794
 4610TIP3   OH235388   5.328   1.548   2.430 -0.6471  0.6624 -0.1584
 4610TIP3    H135389   5.421   1.550   2.451 -0.1961  0.8389 -2.0000
 4610TIP3    H235390   5.286   1.593   2.503  0.7282  0.8282  0.5715
 4611TIP3   OH235391   3.366   4.130   0.729 -0.2179 -0.1509  0.5049
 4611TIP3    H135392   3.389   4.201   0.669 -2.2070  0.2548  0.1479
 4611TIP3    H235393   3.381   4.166   0.816  0.9664 -0.1148  0.3045
 4612TIP3   OH235394   4.352   0.720   7.962  0.1853 -0.0738  0.0141
 4612TIP3    H135395   4.390   0.774   8.031 -0.4597  1.4973 -0.8359
 4612TIP3    H235396   4.258   0.730   7.971  0.0598 -0.7104 -0.4423
 4613TIP3   OH235397   3.283   0.099   8.356  0.7677 -0.4034 -0.3344
 4613TIP3    H135398   3.256   0.190   8.359  2.1416  0.0572 -0.9644
 4613TIP3    H235399   3.295   0.074   8.448  2.0796  0.6194 -0.1922
 4614TIP3   OH235400   2.270   1.615   1.641  0.1354  0.5090 -0.4732
 4614TIP3    H135401   2.180   1.618   1.673  0.1187  1.1859 -0.5827
 4614TIP3    H235402   2.324   1.613   1.720  0.0014 -1.6799 -0.3618
 4615TIP3   OH235403   2.208   3.979   2.710  0.5663 -0.3121  0.2064
 4615TIP3    H135404   2.195   3.893   2.670  1.4975 -0.4211  0.1168
 4615TIP3    H235405   2.258   4.028   2.645  1.1329 -0.1185  0.7825
 4616TIP3   OH235406   1.869   0.982   7.681 -0.4674 -0.2251  0.4692
 4616TIP3    H135407   1.788   0.956   7.638 -0.1885  0.2498 -0.3614
 4616TIP3    H235408   1.935   0.922   7.648 -0.9423 -2.5678  3.3448
 4617TIP3   OH235409   2.645   3.048   8.609 -0.5295  0.3364 -0.4132
 4617TIP3    H135410   2.583   2.983   8.577  1.5411 -0.7785 -2.4859
 4617TIP3    H235411   2.593   3.108   8.662 -3.4276 -0.2630 -2.3858
 4618TIP3   OH235412   1.769   6.648   0.685  0.3744 -0.6337 -0.3699
 4618TIP3    H135413   1.738   6.641   0.775  1.7726 -0.6908  0.1277
 4618TIP3    H235414   1.700   6.607   0.633 -0.2934 -0.9089  0.7032
 4619TIP3   OH235415   2.592   3.031   7.615  0.4838 -0.7181  0.5598
 4619TIP3    H135416   2.556   3.119   7.618  0.2243 -0.7940 -0.1181
 4619TIP3    H235417   2.615   3.017   7.523  1.4266 -1.0022  0.8204
 4620TIP3   OH235418   0.191   4.209   6.599  0.6770  0.0276 -0.2695
 4620TIP3    H135419   0.236   4.126   6.607  1.0091 -0.1114 -2.7120
 4620TIP3    H235420   0.196   4.248   6.686  0.9368 -2.2603  0.8052
 4621TIP3   OH235421   6.593   0.861   6.827 -0.6086 -0.6019  0.0596
 4621TIP3    H135422   6.656   0.843   6.896  0.7762  1.1130 -0.6725
 4621TIP3    H235423   6.575   0.775   6.788  0.3549 -1.2811  1.0448
 4622TIP3   OH235424   1.803   1.121   8.398 -0.1982 -0.5068  0.1805
 4622TIP3    H135425   1.818   1.140   8.491  0.3483 -0.3757  0.0685
 4622TIP3    H235426   1.749   1.194   8.368  2.2589  1.2239 -0.3500
 4623TIP3   OH235427   1.332   2.783   8.616 -0.7269 -0.2011 -0.4714
 4623TIP3    H135428   1.374   2.869   8.613 -0.0651 -0.5372 -1.4541
 4623TIP3    H235429   1.379   2.735   8.685 -1.5614  0.4287  0.5758
 4624TIP3   OH235430   3.021   4.174   0.981  0.1705  0.5270  0.6357
 4624TIP3    H135431   2.982   4.087   0.989 -0.3572  0.7850  0.9300
 4624TIP3    H235432   3.083   4.180   1.054  0.1293  0.4406  0.6772
 4625TIP3   OH235433   3.209   1.728   6.926  0.2449 -0.1307  0.0208
 4625TIP3    H135434   3.123   1.702   6.894  0.7114 -1.1282 -0.4786
 4625TIP3    H235435   3.225   1.671   7.002  0.2522  0.4038  0.4240
 4626TIP3   OH235436   6.620   0.675   1.132 -0.6126 -0.1138 -0.3027
 4626TIP3    H135437   6.635   0.737   1.202 -1.7553  2.6893 -2.3409
 4626TIP3    H235438   6.672   0.707   1.059 -2.4998 -0.5403 -1.9413
 4627TIP3   OH235439   3.453   2.052   8.505 -0.3613  0.0187  0.1706
 4627TIP3    H135440   3.472   1.971   8.553 -0.4066 -0.0295  0.1066
 4627TIP3    H235441   3.488   2.121   8.562  3.4584 -0.2142 -1.5943
 4628TIP3   OH235442   0.860   2.447   2.813  0.2291 -0.6087  0.1729
 4628TIP3    H135443   0.775   2.488   2.799  1.1542  1.1837 -0.6720
 4628TIP3    H235444   0.845   2.354   2.798 -1.3950 -0.2291 -0.8773
 4629TIP3   OH235445   5.365   6.582   0.295 -0.0107 -0.2683  0.2830
 4629TIP3    H135446   5.439   6.612   0.348  0.2759 -1.5464  0.6320
 4629TIP3    H235447   5.336   6.501   0.338 -1.9376  0.4629  0.4495
 4630TIP3   OH235448   0.015   1.048   7.769  0.1325  0.5098  0.4453
 4630TIP3    H135449  -0.002   1.142   7.755 -0.6490  0.5915  1.7716
 4630TIP3    H235450   0.058   1.020   7.689 -1.5992  1.5180 -0.9342
 4631TIP3   OH235451   2.944   3.863   0.985 -0.6189 -0.4070  0.2740
 4631TIP3    H135452   3.003   3.787   0.980 -2.6048 -1.9584 -0.9578
 4631TIP3    H235453   2.874   3.834   1.043 -1.6722  0.2826 -0.6315
 4632TIP3   OH235454   1.478   0.400   1.522 -0.0246  0.1926  0.6530
 4632TIP3    H135455   1.441   0.327   1.473  0.1543  1.7841 -2.0202
 4632TIP3    H235456   1.403   0.455   1.543  0.2917  1.7164 -1.8217
 4633TIP3   OH235457   6.656   1.333   7.054 -0.3039 -0.1125 -0.7235
 4633TIP3    H135458   6.615   1.419   7.066 -1.6788 -0.6934 -1.0959
 4633TIP3    H235459   6.613   1.295   6.977 -0.0893 -1.3383 -0.2715
 4634TIP3   OH235460   1.925   5.208   1.700 -0.2024 -0.1287 -0.3367
 4634TIP3    H135461   2.020   5.210   1.708 -0.2803 -0.7655  1.1954
 4634TIP3    H235462   1.893   5.210   1.791 -1.6031 -1.2866 -0.7568
 4635TIP3   OH235463   0.161   5.401   0.400 -0.1760  0.1608 -0.2790
 4635TIP3    H135464   0.235   5.436   0.450  0.1222 -1.2699  0.3531
 4635TIP3    H235465   0.190   5.405   0.309  1.0759 -1.1636  0.0207
 4636TIP3   OH235466   1.766   6.165   1.736  0.1240  0.2526 -0.2455
 4636TIP3    H135467   1.853   6.161   1.775 -0.0031 -2.1167 -0.0642
 4636TIP3    H235468   1.778   6.130   1.647 -0.4401  1.0305 -0.6376
 4637TIP3   OH235469   2.100   2.927   1.165  0.2086  0.3549  0.5149
 4637TIP3    H135470   2.015   2.972   1.160  0.2296  0.6220  2.1525
 4637TIP3    H235471   2.144   2.967   1.240  1.4229 -0.4159  0.2385
 4638TIP3   OH235472   2.267   0.154   8.248 -0.2835  0.1122 -0.7887
 4638TIP3    H135473   2.277   0.145   8.342  1.7524  1.6737 -0.8115
 4638TIP3    H235474   2.203   0.224   8.237 -0.2622  0.1685 -0.5596
 4639TIP3   OH235475   6.146   0.778   6.782 -0.0312  0.2698 -0.2606
 4639TIP3    H135476   6.080   0.709   6.780 -1.2705  1.4275 -1.5713
 4639TIP3    H235477   6.100   0.854   6.818  1.1886  0.5424  0.7749
 4640TIP3   OH235478   3.140   1.921   1.848 -0.5480 -0.4910  0.4505
 4640TIP3    H135479   3.184   1.837   1.863  0.5047 -0.1529 -0.5852
 4640TIP3    H235480   3.051   1.896   1.822  0.2851 -1.4289 -1.7874
 4641TIP3   OH235481   5.314   4.294   8.361 -0.6243 -0.0524  0.2287
 4641TIP3    H135482   5.318   4.248   8.445  1.7953  0.0901  0.2658
 4641TIP3    H235483   5.267   4.234   8.303  0.9867 -1.8980  0.7181
 4642TIP3   OH235484   0.119   1.577   2.484 -0.0484  0.1831  0.2884
 4642TIP3    H135485   0.209   1.552   2.465 -0.0274 -1.3745  2.1838
 4642TIP3    H235486   0.122   1.614   2.572 -1.0315  1.7587 -0.2834
 4643TIP3   OH235487   6.557   0.744   8.417 -0.1847  0.6538  0.4046
 4643TIP3    H135488   6.491   0.705   8.360  1.0894 -0.8600 -0.1077
 4643TIP3    H235489   6.592   0.671   8.467  1.0214  1.4365  0.7467
 4644TIP3   OH235490   4.600   2.663   0.749 -0.0058 -0.1049 -0.1604
 4644TIP3    H135491   4.553   2.708   0.819 -0.7499  0.6413 -1.1108
 4644TIP3    H235492   4.688   2.700   0.752  0.1295 -0.4710  0.7109
 4645TIP3   OH235493   2.521   1.062   7.109  0.7415 -0.1995  0.8829
 4645TIP3    H135494   2.609   1.027   7.098  0.5043 -0.3003 -1.2516
 4645TIP3    H235495   2.466   1.005   7.055 -0.1458  1.5809 -0.1866
 4646TIP3   OH235496   5.374   4.521   1.841  0.4026 -0.0811  0.3569
 4646TIP3    H135497   5.415   4.453   1.788 -1.3704 -0.7655 -0.2002
 4646TIP3    H235498   5.351   4.590   1.779  0.7329  0.3224  0.6725
 4647TIP3   OH235499   2.289   6.032   8.188 -0.1162  0.1079  0.1639
 4647TIP3    H135500   2.373   6.075   8.169  1.3031 -1.5676  2.0660
 4647TIP3    H235501   2.227   6.072   8.128  2.2948  0.5537 -2.2432
 4648TIP3   OH235502   2.073   3.541   0.336  0.2671 -0.2636 -0.0993
 4648TIP3    H135503   2.001   3.601   0.317  0.5621  0.3026  0.5368
 4648TIP3    H235504   2.079   3.540   0.431 -1.0962 -2.9570  0.0347
 4649TIP3   OH235505   1.180   0.177   1.626  0.0149 -0.0581 -0.3373
 4649TIP3    H135506   1.251   0.149   1.568  1.0124  0.4492  0.5881
 4649TIP3    H235507   1.164   0.268   1.601 -1.0575 -0.4728 -1.2417
 4650TIP3   OH235508   6.404   4.525   8.092  0.6123  0.4526  0.0964
 4650TIP3    H135509   6.410   4.458   8.024  1.0397  0.4320  0.1470
 4650TIP3    H235510   6.495   4.556   8.103  0.5766  0.3437  0.7664
 4651TIP3   OH235511   2.341   4.207   2.241 -0.1251  0.0077  0.5099
 4651TIP3    H135512   2.360   4.167   2.156 -0.3653  0.2103  0.3579
 4651TIP3    H235513   2.407   4.275   2.250 -0.2907  0.1956  0.3375
 4652TIP3   OH235514   1.011   6.563   0.269 -0.4875  0.3045  0.3969
 4652TIP3    H135515   1.075   6.615   0.316  0.5611 -0.3965 -0.2214
 4652TIP3    H235516   0.964   6.626   0.214 -1.5115  1.0813  2.0966
 4653TIP3   OH235517   0.965   5.468   2.190  0.2671  0.0990  0.5993
 4653TIP3    H135518   0.965   5.563   2.182  0.2573  0.1241  0.8982
 4653TIP3    H235519   0.905   5.449   2.261  2.5542  0.0701  2.6611
 4654TIP3   OH235520   6.743   4.346   0.333 -0.0703  0.2773  0.7963
 4654TIP3    H135521   6.699   4.302   0.406 -0.9829  1.0152  0.7118
 4654TIP3    H235522   6.733   4.440   0.353  0.9964  0.4601  0.4866
 4655TIP3   OH235523   5.094   0.543   7.784  0.3499 -0.1610 -0.2211
 4655TIP3    H135524   5.082   0.625   7.735  0.4700 -0.7520 -1.2695
 4655TIP3    H235525   5.152   0.567   7.857  0.3925  0.6825 -0.5182
 4656TIP3   OH235526   6.697   3.516   7.965  0.5223  0.2167  0.1294
 4656TIP3    H135527   6.609   3.531   7.998  0.7434  1.9310  0.0238
 4656TIP3    H235528   6.695   3.426   7.932 -1.5335  0.5782 -0.9168
 4657TIP3   OH235529   5.931   2.017   0.032  0.1379  0.9172 -0.3089
 4657TIP3    H135530   6.023   1.993   0.040  0.5477  2.6062  0.4751
 4657TIP3    H235531   5.889   1.940  -0.006  1.5914 -0.4489  0.7521
 4658TIP3   OH235532   2.020   2.083   0.150 -0.0462  0.8050 -0.0069
 4658TIP3    H135533   2.093   2.142   0.168  0.9876 -0.8089  1.4152
 4658TIP3    H235534   2.058   2.013   0.097 -0.3039 -0.4739  1.4226
 4659TIP3   OH235535   2.087   4.164   0.409 -0.0480 -0.5468  0.1627
 4659TIP3    H135536   2.005   4.179   0.361 -0.0144  0.1076  0.3020
 4659TIP3    H235537   2.105   4.247   0.451  1.6200 -0.1432 -1.2589
 4660TIP3   OH235538   3.565   1.301   8.492 -0.0567  0.2642  0.2007
 4660TIP3    H135539   3.620   1.340   8.424  0.8919 -0.2178  0.6880
 4660TIP3    H235540   3.517   1.232   8.446  0.7096 -0.1773  0.0508
 4661TIP3   OH235541   3.334   5.417   0.596 -0.1451  0.3432  0.3456
 4661TIP3    H135542   3.296   5.456   0.675 -1.1564  0.1039 -0.0176
 4661TIP3    H235543   3.402   5.479   0.570  0.7166  0.0651  1.8127
 4662TIP3   OH235544   5.299   5.925   8.520  0.1318  0.2892  0.5137
 4662TIP3    H135545   5.253   6.002   8.554 -1.6990 -0.5044 -0.1006
 4662TIP3    H235546   5.271   5.917   8.429 -0.7795 -1.8490  0.9229
 4663TIP3   OH235547   4.075   2.436   2.179  0.1896 -0.1459 -0.4983
 4663TIP3    H135548   4.169   2.420   2.185  0.4346  1.3189 -0.0667
 4663TIP3    H235549   4.037   2.349   2.164  1.4837 -0.9880  0.8131
 4664TIP3   OH235550   4.033   5.906   0.951  0.1448 -0.2108  0.7176
 4664TIP3    H135551   4.064   5.964   0.881  1.2603 -1.9873 -0.3314
 4664TIP3    H235552   3.955   5.864   0.914  0.5443 -0.9074  0.6659
 4665TIP3   OH235553   0.560   3.123   7.779 -0.4111  0.2482 -0.2717
 4665TIP3    H135554   0.540   3.031   7.762  3.0333 -0.4184 -1.3998
 4665TIP3    H235555   0.518   3.170   7.706 -3.4858 -0.0863  1.1005
 4666TIP3   OH235556   1.500   2.277   0.700 -0.1403  0.3229  0.4114
 4666TIP3    H135557   1.429   2.339   0.715 -2.1758 -2.3512  3.2190
 4666TIP3    H235558   1.456   2.191   0.695  2.5682 -1.0982 -2.3771
 4667TIP3   OH235559   5.832   6.546   0.338  0.2986  0.5907  0.4694
 4667TIP3    H135560   5.766   6.591   0.286  1.0390  3.3913  1.7909
 4667TIP3    H235561   5.783   6.506   0.410 -0.3324 -0.6231 -0.5817
 4668TIP3   OH235562   1.802   5.571   7.183  0.4989  0.4326  0.1151
 4668TIP3    H135563   1.851   5.530   7.111  0.6387 -0.7860  0.8856
 4668TIP3    H235564   1.719   5.524   7.185  0.3584  0.6937  0.5320
 4669TIP3   OH235565   5.807   2.066   8.391 -0.2536  0.2211  0.1227
 4669TIP3    H135566   5.844   1.988   8.432  0.9706  1.4081  1.3899
 4669TIP3    H235567   5.877   2.098   8.333  0.0175  1.4136  1.0656
 4670TIP3   OH235568   1.701   1.002   1.409  0.2068 -0.5871 -0.2050
 4670TIP3    H135569   1.796   0.997   1.420  0.2501 -0.6945 -0.6012
 4670TIP3    H235570   1.685   0.958   1.325 -0.3137 -1.5831  0.4011
 4671TIP3   OH235571   0.805   1.160   0.357 -0.6110  1.2492 -0.5127
 4671TIP3    H135572   0.709   1.156   0.364 -0.6192  2.3395  0.2835
 4671TIP3    H235573   0.827   1.097   0.288 -1.9972  1.8553 -1.5568
 4672TIP3   OH235574   6.322   1.347   7.106 -0.3404  0.0812  0.1990
 4672TIP3    H135575   6.322   1.411   7.177 -1.6676 -0.6449  0.8838
 4672TIP3    H235576   6.230   1.331   7.087 -0.0075 -0.0811 -1.3903
 4673TIP3   OH235577   3.495   5.960   1.451  0.2305  0.2076  0.4129
 4673TIP3    H135578   3.464   6.045   1.482  0.1452  0.6235 -0.7613
 4673TIP3    H235579   3.590   5.971   1.444  0.0536  0.8831 -1.5924
 4674TIP3   OH235580   3.764   6.084   2.243  0.0848  0.0727 -0.1568
 4674TIP3    H135581   3.702   6.154   2.262 -0.3591  0.2231 -1.9336
 4674TIP3    H235582   3.793   6.102   2.153 -0.4032 -2.2435 -0.8510
 4675TIP3   OH235583   6.738   2.425   8.255 -0.4903 -0.0027 -0.1352
 4675TIP3    H135584   6.830   2.421   8.229 -0.7287  2.0433 -1.5488
 4675TIP3    H235585   6.741   2.454   8.346  0.2587 -0.4135 -0.0170
 4676TIP3   OH235586   6.076   3.010   1.244  0.3448  0.4070 -0.5379
 4676TIP3    H135587   6.009   2.974   1.186  2.8795 -1.5815 -2.4591
 4676TIP3    H235588   6.087   3.101   1.215 -1.2102  0.6539 -0.4144
 4677TIP3   OH235589   3.766   2.279   1.050  0.1263  0.1937 -0.3124
 4677TIP3    H135590   3.851   2.322   1.052 -0.4047  1.5104 -2.4104
 4677TIP3    H235591   3.709   2.336   1.101 -0.0686  0.8178 -1.1973
 4678TIP3   OH235592   6.313   4.772   8.001 -0.5281  0.3213 -0.1360
 4678TIP3    H135593   6.258   4.732   7.933  0.4796 -0.4758 -0.5027
 4678TIP3    H235594   6.361   4.699   8.039  2.5786  1.2779 -1.9084
 4679TIP3   OH235595   3.975   6.504   6.829  0.3371  0.4986 -0.1948
 4679TIP3    H135596   3.902   6.554   6.794 -1.3555 -1.1411  0.7895
 4679TIP3    H235597   4.005   6.450   6.756 -0.7572 -0.2160 -0.1504
 4680TIP3   OH235598   5.373   1.067   0.493 -0.0128 -0.1239 -0.1022
 4680TIP3    H135599   5.450   1.117   0.519  0.4138 -0.8148  0.0047
 4680TIP3    H235600   5.302   1.101   0.548 -0.0633  1.3454 -1.0515
 4681TIP3   OH235601   5.619   4.959   7.614  0.4003  0.2473 -0.0454
 4681TIP3    H135602   5.665   4.890   7.565 -0.3795  0.5593 -1.2581
 4681TIP3    H235603   5.675   4.976   7.690  0.7872 -1.4717  0.1038
 4682TIP3   OH235604   4.226   6.248   7.288 -0.3710 -0.2025  0.3988
 4682TIP3    H135605   4.245   6.297   7.208 -3.4702  1.3091  0.4266
 4682TIP3    H235606   4.309   6.205   7.310  1.4717  1.8776 -1.8237
 4683TIP3   OH235607   2.387   3.503   0.737  0.3445 -0.9837  0.5950
 4683TIP3    H135608   2.328   3.506   0.812 -0.0552 -0.5201  0.2659
 4683TIP3    H235609   2.441   3.582   0.747  0.2816 -0.9149  0.3896
 4684TIP3   OH235610   2.021   4.924   1.057  0.1593 -0.2197 -0.1236
 4684TIP3    H135611   2.063   4.911   0.972 -0.8145 -0.8695 -0.5241
 4684TIP3    H235612   2.050   4.850   1.110 -0.8274 -0.9243 -0.5497
 4685TIP3   OH235613   5.021   6.045   0.538  0.4626 -0.6919 -0.1552
 4685TIP3    H135614   5.031   5.958   0.575  0.9578 -0.0935  1.1966
 4685TIP3    H235615   4.964   6.091   0.600  0.8620  0.1822 -0.4123
 4686TIP3   OH235616   4.158   3.971   1.122  0.1263 -0.0148  0.0395
 4686TIP3    H135617   4.135   4.044   1.066  0.1102 -0.1601 -0.1433
 4686TIP3    H235618   4.191   4.012   1.203 -0.3769  0.1880  0.1417
 4687TIP3   OH235619   6.852   3.306   0.600  0.1560  0.1292 -0.1663
 4687TIP3    H135620   6.760   3.314   0.575  0.2418 -1.3998 -1.0905
 4687TIP3    H235621   6.851   3.307   0.696 -0.6457  1.5333 -0.1637
 4688TIP3   OH235622   1.732   0.404   2.305  0.0271 -0.4824 -0.2058
 4688TIP3    H135623   1.678   0.329   2.329  0.2595 -0.1999  1.3160
 4688TIP3    H235624   1.727   0.408   2.210 -1.0653 -1.6182 -0.2189
 4689TIP3   OH235625   1.448   3.237   0.121 -0.2649  0.1583 -0.0227
 4689TIP3    H135626   1.382   3.219   0.054 -0.7147 -1.2614  0.7690
 4689TIP3    H235627   1.525   3.189   0.091  0.0192  0.7865 -0.3042
 4690TIP3   OH235628   2.678   2.739   1.406  0.3374 -0.1890 -0.0573
 4690TIP3    H135629   2.656   2.686   1.330 -1.2603 -2.3057  1.7417
 4690TIP3    H235630   2.593   2.759   1.446  1.1210  1.0271  1.0866
 4691TIP3   OH235631   0.488   3.559   0.495 -0.1835  0.1386 -0.1288
 4691TIP3    H135632   0.506   3.499   0.568  0.7122 -0.4102 -0.7689
 4691TIP3    H235633   0.550   3.630   0.507 -0.3318  0.2655 -0.1163
 4692TIP3   OH235634   2.604   0.289   0.627  0.2503  0.5439  0.3450
 4692TIP3    H135635   2.635   0.246   0.547 -1.6347 -2.1020  0.9289
 4692TIP3    H235636   2.523   0.333   0.601  1.3586  2.6020  0.1233
 4693TIP3   OH235637   1.376   4.857   2.050  0.1731 -0.5211  0.0020
 4693TIP3    H135638   1.406   4.879   2.138  0.9764 -3.7015  0.6501
 4693TIP3    H235639   1.308   4.921   2.031  0.1645  0.4452  2.8299
 4694TIP3   OH235640   4.859   3.306   0.707  0.1435 -0.1314  0.1435
 4694TIP3    H135641   4.816   3.224   0.681 -0.8435  0.6495 -0.7725
 4694TIP3    H235642   4.880   3.349   0.624  0.1552  0.7955  0.6185
 4695TIP3   OH235643   6.778   4.042   0.608  0.2177  0.1473 -0.1286
 4695TIP3    H135644   6.728   4.123   0.595 -0.8461 -0.7329 -1.9255
 4695TIP3    H235645   6.828   4.057   0.688  0.1401  2.6279 -0.4684
 4696TIP3   OH235646   3.440   2.882   1.553 -0.0164 -0.6966  0.4442
 4696TIP3    H135647   3.467   2.931   1.476 -2.5013 -2.5577 -1.8080
 4696TIP3    H235648   3.385   2.942   1.603  0.0486 -0.0393 -0.2673
 4697TIP3   OH235649   0.326   0.078   1.771  0.1745  0.2726 -0.1673
 4697TIP3    H135650   0.306   0.141   1.702  0.6218  0.5293 -0.0612
 4697TIP3    H235651   0.272   0.107   1.846 -0.4192 -0.0897 -0.4429
 4698TIP3   OH235652   6.828   4.736   8.461  0.3787  0.2477  0.4206
 4698TIP3    H135653   6.817   4.661   8.519 -1.7814  0.6539  0.6250
 4698TIP3    H235654   6.902   4.713   8.405 -1.1504 -2.7407 -0.5772
 4699TIP3   OH235655   1.396   6.333   1.524  0.0082  0.2662  0.1779
 4699TIP3    H135656   1.471   6.293   1.479  1.2759  1.6363  1.0006
 4699TIP3    H235657   1.364   6.398   1.462 -1.1852 -0.9759 -0.5836
 4700TIP3   OH235658   5.901   4.465   8.220 -0.8875  0.0687 -0.1080
 4700TIP3    H135659   5.990   4.491   8.200 -0.1069 -2.0463  0.3721
 4700TIP3    H235660   5.848   4.503   8.150  0.4811  0.7438 -0.8090
 4701TIP3   OH235661   4.201   5.930   1.330 -0.2693  0.6561  0.5864
 4701TIP3    H135662   4.263   5.981   1.278 -1.9395  0.4438 -1.7790
 4701TIP3    H235663   4.135   5.902   1.267 -2.1438 -0.1174  2.7757
 4702TIP3   OH235664   5.716   4.749   7.444  0.1897 -0.3862 -0.8608
 4702TIP3    H135665   5.698   4.723   7.354 -1.9273 -0.4540 -0.4711
 4702TIP3    H235666   5.680   4.678   7.497  0.9461 -0.1040  0.0626
 4703TIP3   OH235667   0.396   2.258   7.969 -0.3554 -0.4700 -0.2355
 4703TIP3    H135668   0.403   2.173   8.014 -1.2959 -0.4664 -0.0546
 4703TIP3    H235669   0.457   2.315   8.015 -1.0128 -0.5775  0.8013
 4704TIP3   OH235670   1.386   4.790   2.645 -0.1920 -0.2569 -0.0850
 4704TIP3    H135671   1.429   4.745   2.572 -1.6914  1.5695 -2.2416
 4704TIP3    H235672   1.318   4.729   2.673 -1.3334  0.0016 -2.0650
 4705TIP3   OH235673   0.420   5.916   1.352 -0.3747 -0.5881 -0.3085
 4705TIP3    H135674   0.469   5.974   1.409 -1.9380  1.2656 -0.7378
 4705TIP3    H235675   0.473   5.837   1.346  0.3790 -0.4386  2.7836
 4706TIP3   OH235676   5.878   3.311   1.921  0.1948 -0.0386 -0.1025
 4706TIP3    H135677   5.896   3.274   2.007  0.9679 -1.5406 -0.8680
 4706TIP3    H235678   5.783   3.307   1.913  0.1059  0.2697  0.7491
 4707TIP3   OH235679   1.159   3.176   8.184 -0.3818  0.1096  0.3234
 4707TIP3    H135680   1.071   3.137   8.185  0.2080 -1.3685  2.8100
 4707TIP3    H235681   1.210   3.117   8.129 -0.8109  0.7748 -0.8333
 4708TIP3   OH235682   1.961   2.503   1.650 -0.4027 -0.4499 -0.9711
 4708TIP3    H135683   1.886   2.542   1.606  0.8270  2.0440 -1.0146
 4708TIP3    H235684   1.947   2.521   1.743  0.1202  0.0458 -0.9813
 4709TIP3   OH235685   2.607   6.247   1.781 -0.1292 -0.0277  0.6714
 4709TIP3    H135686   2.567   6.226   1.865  0.3366  1.6913  1.3769
 4709TIP3    H235687   2.673   6.314   1.802 -0.5573  1.0386 -1.1567
 4710TIP3   OH235688   5.258   2.826   0.563 -0.3636  0.3382 -0.2162
 4710TIP3    H135689   5.316   2.755   0.591  0.0708  0.4327 -0.8476
 4710TIP3    H235690   5.171   2.787   0.562 -0.3592  0.2527  0.9528
 4711TIP3   OH235691   2.140   4.910   7.948  0.0311 -0.3026 -1.0418
 4711TIP3    H135692   2.140   4.980   8.014 -2.5041 -1.2091  0.0218
 4711TIP3    H235693   2.193   4.841   7.987 -0.9893 -0.6100 -0.1587
 4712TIP3   OH235694   1.497   4.898   8.276  0.0194  0.3893 -0.1849
 4712TIP3    H135695   1.570   4.843   8.304 -0.2601  1.6593  3.6130
 4712TIP3    H235696   1.419   4.854   8.310 -0.5044  1.3777 -0.0572
 4713TIP3   OH235697   4.939   5.457   6.293  0.0944  0.6545  0.0026
 4713TIP3    H135698   4.880   5.484   6.222 -0.3779 -0.7096 -0.1528
 4713TIP3    H235699   4.912   5.368   6.314  1.3595  0.4159  0.7274
 4714TIP3   OH235700   4.915   1.023   7.595  0.1628 -0.2236 -0.1115
 4714TIP3    H135701   5.010   1.015   7.606  0.0474 -0.4680  0.7885
 4714TIP3    H235702   4.879   0.968   7.664 -0.6394 -1.4296 -1.4279
 4715TIP3   OH235703   2.223   4.866   2.748  0.5576 -0.3694  0.0249
 4715TIP3    H135704   2.131   4.841   2.752  0.2177  0.6113 -0.9478
 4715TIP3    H235705   2.267   4.806   2.807 -0.3527 -2.4524 -1.3073
 4716TIP3   OH235706   2.990   0.933   0.978  0.4285 -0.3516  0.5244
 4716TIP3    H135707   3.086   0.931   0.977  0.4422 -2.9457  0.2438
 4716TIP3    H235708   2.967   0.916   1.069  0.1181  2.8792  1.1880
 4717TIP3   OH235709   5.830   5.573   2.380 -0.7369  0.2944  0.6038
 4717TIP3    H135710   5.771   5.532   2.444 -1.6214 -0.5276 -0.7028
 4717TIP3    H235711   5.914   5.527   2.393  0.0709  2.2658  3.2797
 4718TIP3   OH235712   2.062   5.918   0.404  0.9040  0.5395  0.7913
 4718TIP3    H135713   2.103   5.844   0.359  0.2156  0.4023  0.3769
 4718TIP3    H235714   2.070   5.897   0.497  3.4102  1.3897  0.8526
 4719TIP3   OH235715   1.591   1.474   8.092 -1.0316 -0.2076 -0.7536
 4719TIP3    H135716   1.504   1.514   8.099 -0.6668  0.6214 -0.7800
 4719TIP3    H235717   1.640   1.533   8.034 -0.3177 -0.4198 -0.3861
 4720TIP3   OH235718   3.751   3.479   0.180 -0.1190  0.3564  0.4510
 4720TIP3    H135719   3.725   3.518   0.263 -1.9720  0.3870 -0.0952
 4720TIP3    H235720   3.781   3.553   0.127 -0.1750  0.5259  0.6548
 4721TIP3   OH235721   6.770   3.761   0.655  0.3694 -0.9224  0.5174
 4721TIP3    H135722   6.768   3.743   0.749 -2.1763 -1.6358  0.3811
 4721TIP3    H235723   6.751   3.855   0.649  1.1724 -0.7335  0.6974
 4722TIP3   OH235724   1.120   4.597   6.804 -0.2035  0.3279  0.6698
 4722TIP3    H135725   1.207   4.560   6.788 -0.5246 -1.2143  2.1524
 4722TIP3    H235726   1.136   4.687   6.832  0.9222  0.0907  0.8230
 4723TIP3   OH235727   0.114   0.267   8.415 -0.0740  0.4596  0.4031
 4723TIP3    H135728   0.036   0.212   8.407  0.1886  0.0565  0.5406
 4723TIP3    H235729   0.116   0.318   8.334  0.8652 -1.3174 -0.7677
 4724TIP3   OH235730   3.406   0.699   8.319  0.5052  0.5342 -0.2660
 4724TIP3    H135731   3.418   0.651   8.401 -0.1903  0.0237 -0.4538
 4724TIP3    H235732   3.334   0.759   8.337  0.5617  0.6429 -0.4065
 4725TIP3   OH235733   6.387   1.360   2.017 -0.1075 -0.4059  0.5349
 4725TIP3    H135734   6.457   1.411   1.977  0.9922 -0.6564  2.0890
 4725TIP3    H235735   6.340   1.422   2.072 -0.7080 -0.3983  0.0331
 4726TIP3   OH235736   0.331   1.982   7.816 -0.1215 -0.3983 -0.0471
 4726TIP3    H135737   0.271   1.930   7.870 -0.5542  0.0847 -0.0554
 4726TIP3    H235738   0.383   1.916   7.769 -0.8652 -0.8377 -0.2809
 4727TIP3   OH235739   4.578   5.673   1.030 -0.2842  0.6363 -0.2014
 4727TIP3    H135740   4.630   5.753   1.028  1.2638 -0.3480 -2.0382
 4727TIP3    H235741   4.607   5.628   1.110  2.1660 -0.1209 -1.4240
 4728TIP3   OH235742   6.824   5.017   0.706  0.1165  0.2557 -0.1742
 4728TIP3    H135743   6.871   5.060   0.634  0.8763 -0.3136 -0.0386
 4728TIP3    H235744   6.852   5.064   0.784  0.7950 -0.3246 -0.0487
 4729TIP3   OH235745   3.503   0.272   6.731 -0.0804 -0.0153  0.1178
 4729TIP3    H135746   3.485   0.206   6.663 -0.3593 -1.3845  1.4614
 4729TIP3    H235747   3.424   0.326   6.733  0.4818  0.9614 -1.5804
 4730TIP3   OH235748   4.380   6.768   1.698 -0.2628 -0.1551  0.1517
 4730TIP3    H135749   4.425   6.761   1.783 -1.0263  0.0498  0.5808
 4730TIP3    H235750   4.303   6.713   1.707  0.0626 -0.7716 -0.7001
 4731TIP3   OH235751   1.430   3.182   7.637 -0.2140  0.4342  0.4440
 4731TIP3    H135752   1.411   3.095   7.673 -0.0071  0.8272  1.5461
 4731TIP3    H235753   1.510   3.169   7.586 -1.0657 -0.3446 -0.7432
 4732TIP3   OH235754   2.832   2.772   2.797  0.3183 -0.0353 -0.1542
 4732TIP3    H135755   2.874   2.698   2.841  1.3478  0.1873 -0.7350
 4732TIP3    H235756   2.856   2.848   2.850  1.4802  0.2204 -1.0078
 4733TIP3   OH235757   3.967   4.926   0.313  0.2676  0.1252  0.6144
 4733TIP3    H135758   3.986   4.862   0.381  0.6176  0.6823  1.0532
 4733TIP3    H235759   3.920   4.996   0.359 -0.2059  0.1345  0.1229
 4734TIP3   OH235760   3.124   0.245   7.607  0.1283 -0.2188  0.2851
 4734TIP3    H135761   3.107   0.154   7.632 -1.3925  0.0851  0.4129
 4734TIP3    H235762   3.206   0.267   7.651 -0.6459 -0.8254  2.1164
 4735TIP3   OH235763   3.260   5.526   7.902 -0.7925  0.1005 -0.6657
 4735TIP3    H135764   3.272   5.496   7.992 -1.6094 -0.8510 -0.8518
 4735TIP3    H235765   3.348   5.551   7.873 -0.8157  2.5659  1.0907
 4736TIP3   OH235766   2.637   3.327   6.728 -0.1320 -0.2804 -0.1473
 4736TIP3    H135767   2.672   3.252   6.776  1.9824  1.0420  0.5739
 4736TIP3    H235768   2.713   3.385   6.718 -1.1749  0.7964 -2.5976
 4737TIP3   OH235769   2.863   4.200   0.767  0.2878 -0.5966 -0.0902
 4737TIP3    H135770   2.793   4.246   0.813  1.7682  0.7849  0.8808
 4737TIP3    H235771   2.929   4.184   0.834  1.8357  0.0843 -1.3759
 4738TIP3   OH235772   2.571   6.404   7.172  0.0078  0.3075 -0.0804
 4738TIP3    H135773   2.573   6.446   7.257 -0.9364  0.8479 -0.3112
 4738TIP3    H235774   2.647   6.440   7.125  0.2956  0.3056  0.3798
 4739TIP3   OH235775   4.097   3.305   2.344  0.3480  0.1110  0.0831
 4739TIP3    H135776   4.081   3.218   2.309  0.0402  0.1473  0.1286
 4739TIP3    H235777   4.017   3.326   2.394  0.4025  0.4327  0.0388
 4740TIP3   OH235778   0.144   2.669   0.230 -0.2015 -0.6623 -0.4295
 4740TIP3    H135779   0.079   2.740   0.223 -0.5186 -0.9933 -0.9188
 4740TIP3    H235780   0.110   2.601   0.172  1.3566 -0.2369 -1.9318
 4741TIP3   OH235781   5.185   6.001   7.134 -0.2168  0.1306 -0.0556
 4741TIP3    H135782   5.125   6.054   7.186  0.2640  2.2967 -1.5461
 4741TIP3    H235783   5.169   5.911   7.161 -1.7254  0.9522  1.9700
 4742TIP3   OH235784   2.233   1.690   0.288  0.4975  0.0522 -0.0940
 4742TIP3    H135785   2.299   1.622   0.299 -1.1696 -1.4545  1.3126
 4742TIP3    H235786   2.279   1.772   0.303  2.1661 -0.9042  0.2066
 4743TIP3   OH235787   5.233   1.162   2.771  0.3993 -0.0763  0.0772
 4743TIP3    H135788   5.264   1.244   2.811 -1.3511  0.8951 -0.4378
 4743TIP3    H235789   5.179   1.122   2.838  0.8450 -0.5649  0.1470
 4744TIP3   OH235790   1.747   0.058   0.726  0.0809  0.4737  0.0683
 4744TIP3    H135791   1.727  -0.036   0.725 -1.7750  0.8203 -1.3877
 4744TIP3    H235792   1.840   0.063   0.704  0.3815 -1.0383  0.8729
 4745TIP3   OH235793   3.950   0.076   1.690 -0.3890 -0.5579 -0.8405
 4745TIP3    H135794   4.034   0.052   1.651 -0.8263  0.6829 -2.6441
 4745TIP3    H235795   3.972   0.142   1.755 -0.0386  0.6888 -2.1704
 4746TIP3   OH235796   3.204   5.977   0.081  0.0451  0.0701  0.3939
 4746TIP3    H135797   3.147   5.928   0.022 -0.5051  2.0102 -0.7614
 4746TIP3    H235798   3.201   5.927   0.163  0.6828 -2.5997 -1.0834
 4747TIP3   OH235799   3.439   1.006   8.350  0.8639 -0.1438 -0.1781
 4747TIP3    H135800   3.394   1.027   8.268  0.8686 -1.5858 -0.5807
 4747TIP3    H235801   3.368   0.985   8.412  0.9091 -1.0799 -0.4237
 4748TIP3   OH235802   4.872   3.945   2.422  0.1785 -0.2370  0.3307
 4748TIP3    H135803   4.810   3.877   2.449 -0.8439 -0.0808 -1.4767
 4748TIP3    H235804   4.946   3.896   2.385 -0.5526 -0.4033 -0.9616
 4749TIP3   OH235805   0.108   4.548   7.055 -0.4289  0.4988 -0.5703
 4749TIP3    H135806   0.037   4.509   7.107 -0.5319  0.4430 -0.7523
 4749TIP3    H235807   0.065   4.582   6.977 -0.5652  2.2458  0.2136
 4750TIP3   OH235808   1.067   5.190   0.831 -0.2923 -0.0568 -0.0638
 4750TIP3    H135809   1.062   5.285   0.818  0.4867  0.0068  0.0363
 4750TIP3    H235810   0.997   5.170   0.892 -0.2297  0.5106  0.1984
 4751TIP3   OH235811   1.730   2.920   8.394 -0.1161  0.4307  0.1743
 4751TIP3    H135812   1.713   2.827   8.381  0.8367  0.5384 -2.5412
 4751TIP3    H235813   1.770   2.948   8.311  0.1327  3.1300  1.1323
 4752TIP3   OH235814   4.692   6.413   1.213  0.4528 -0.4747  0.1457
 4752TIP3    H135815   4.741   6.451   1.286 -0.3089  0.3050  0.2671
 4752TIP3    H235816   4.616   6.470   1.202 -0.9023 -2.1134  0.5083
 4753TIP3   OH235817   5.082   3.973   1.685  0.0978  0.0308 -0.5514
 4753TIP3    H135818   5.012   3.956   1.748 -1.8329  2.6353 -1.8265
 4753TIP3    H235819   5.060   3.918   1.609 -1.1328  1.4753 -1.2828
 4754TIP3   OH235820   5.527   2.174   7.029 -0.2087  0.3375  0.1516
 4754TIP3    H135821   5.607   2.223   7.011  0.1833 -0.4498 -0.2881
 4754TIP3    H235822   5.483   2.166   6.944 -0.5057  0.3176  0.3032
 4755TIP3   OH235823   1.632   1.616   0.259  0.2797  0.1886  0.4976
 4755TIP3    H135824   1.636   1.522   0.277  0.7867  0.0546 -0.2800
 4755TIP3    H235825   1.659   1.625   0.168  0.4358  1.1102  0.6181
 4756TIP3   OH235826   2.141   1.302   0.211  0.5885 -0.2030  0.0055
 4756TIP3    H135827   2.136   1.330   0.120  0.0139  1.1064  0.4105
 4756TIP3    H235828   2.104   1.214   0.211 -0.6155  0.2603 -0.8426
 4757TIP3   OH235829   5.533   6.264   0.528  0.4872  0.0533 -0.6154
 4757TIP3    H135830   5.613   6.234   0.486  0.6380 -2.0721  1.0593
 4757TIP3    H235831   5.562   6.329   0.592  0.7294  0.1599 -0.8327
 4758TIP3   OH235832   3.666   4.503   0.071 -0.7788  0.4053 -0.2289
 4758TIP3    H135833   3.648   4.596   0.053 -0.6311  0.8266  1.6686
 4758TIP3    H235834   3.582   4.459   0.054 -0.5647  0.6715 -2.2396
 4759TIP3   OH235835   1.609   4.423   7.656 -0.2195  0.6013 -0.5151
 4759TIP3    H135836   1.619   4.345   7.602 -0.3686  0.7398 -0.7431
 4759TIP3    H235837   1.582   4.491   7.595  0.9068  1.0848 -0.4917
 4760TIP3   OH235838   3.518   2.397   8.151 -0.0144 -0.0464  0.1302
 4760TIP3    H135839   3.461   2.349   8.092  1.4645 -1.5427 -0.1272
 4760TIP3    H235840   3.513   2.488   8.120 -1.5153 -0.2894 -0.4340
 4761TIP3   OH235841   3.356   4.195   1.471 -0.3487  0.0802 -0.7134
 4761TIP3    H135842   3.342   4.288   1.450  0.2715  1.3796  3.6559
 4761TIP3    H235843   3.451   4.183   1.461  0.4266  1.4948  3.2500
 4762TIP3   OH235844   2.883   0.645   0.584  0.5096 -0.3876  0.1375
 4762TIP3    H135845   2.831   0.713   0.541  0.6682  0.2678  0.9476
 4762TIP3    H235846   2.840   0.634   0.669 -0.1601 -2.0783 -0.3810
 4763TIP3   OH235847   1.092   3.100   1.049  0.3407 -0.0098 -0.1184
 4763TIP3    H135848   0.998   3.117   1.042  0.5020  0.5671 -1.1036
 4763TIP3    H235849   1.115   3.126   1.138  0.0263  2.2823 -0.6548
 4764TIP3   OH235850   3.462   4.724   7.777  0.0992  0.4177 -0.0646
 4764TIP3    H135851   3.529   4.742   7.843  0.1203 -1.2777  0.4295
 4764TIP3    H235852   3.396   4.792   7.790  0.8047  0.9704  0.7235
 4765TIP3   OH235853   5.433   2.337   2.097 -0.8887  0.5033 -0.3205
 4765TIP3    H135854   5.352   2.322   2.048 -0.8111  0.2850 -0.3840
 4765TIP3    H235855   5.421   2.423   2.138 -1.9222 -0.2917  1.1637
 4766TIP3   OH235856   2.203   5.006   0.374  0.4744  0.3114  0.2327
 4766TIP3    H135857   2.130   4.975   0.321  0.6996  1.0940 -0.5457
 4766TIP3    H235858   2.281   4.988   0.321  0.9745 -1.3223  1.4047
 4767TIP3   OH235859   5.131   5.576   8.019 -0.0679  0.1264 -0.1678
 4767TIP3    H135860   5.179   5.595   7.939 -0.0833 -1.4624 -0.5811
 4767TIP3    H235861   5.053   5.529   7.990 -0.6046  0.4582  0.6978
 4768TIP3   OH235862   2.343   0.909   1.060 -0.1396  0.3132 -0.0325
 4768TIP3    H135863   2.388   0.931   0.978 -0.9865  2.7010  0.0450
 4768TIP3    H235864   2.394   0.952   1.128 -0.3387 -0.3096  0.5202
 4769TIP3   OH235865   3.112   4.354   7.690  0.2150 -0.6687  0.1779
 4769TIP3    H135866   3.018   4.370   7.682  0.6103  2.3993  0.5904
 4769TIP3    H235867   3.153   4.432   7.653  2.6369 -2.0605 -0.2598
 4770TIP3   OH235868   1.435   2.892   0.384 -0.1331  0.2338 -0.0098
 4770TIP3    H135869   1.531   2.893   0.380 -0.1182  1.8667  0.2585
 4770TIP3    H235870   1.408   2.967   0.332 -1.3037 -0.4865 -0.4734
 4771TIP3   OH235871   0.506   1.863   1.636  0.1801 -0.1820  0.4299
 4771TIP3    H135872   0.497   1.931   1.569 -1.0556  0.3187  1.0679
 4771TIP3    H235873   0.481   1.907   1.718  1.3757 -0.8574  1.1904
 4772TIP3   OH235874   6.237   5.908   1.884 -0.4077 -0.0985  0.2326
 4772TIP3    H135875   6.214   5.981   1.941  1.3199 -0.7873  1.9355
 4772TIP3    H235876   6.160   5.851   1.885 -0.7569  0.3768  1.1345
 4773TIP3   OH235877   1.350   5.809   7.969  0.0576 -0.2192  0.2730
 4773TIP3    H135878   1.446   5.814   7.971  0.0131  0.9794  0.0108
 4773TIP3    H235879   1.331   5.716   7.956  1.1959 -0.4047 -0.1691
 4774TIP3   OH235880   6.459   1.170   0.475 -0.8426 -0.1164  0.0814
 4774TIP3    H135881   6.495   1.113   0.544 -1.1190 -0.8845 -0.3982
 4774TIP3    H235882   6.536   1.204   0.430 -0.6802 -0.4333  0.1169
 4775TIP3   OH235883   6.226   4.297   8.259 -1.0961 -0.3430 -0.2890
 4775TIP3    H135884   6.317   4.278   8.236 -0.5465  0.7495  0.8651
 4775TIP3    H235885   6.200   4.224   8.315 -0.1427  0.4597  1.2729
 4776TIP3   OH235886   2.266   6.343   0.048  0.3117  0.3350 -0.1174
 4776TIP3    H135887   2.309   6.413   0.098 -0.6762 -0.2965  1.7170
 4776TIP3    H235888   2.313   6.340  -0.035  1.2030  2.3101  0.2568
 4777TIP3   OH235889   2.782   6.247   1.100  0.1573  0.1137  0.0406
 4777TIP3    H135890   2.765   6.296   1.181 -0.1266  0.5070 -0.2512
 4777TIP3    H235891   2.706   6.190   1.090  0.0484  0.2812 -0.1023
 4778TIP3   OH235892   0.621   0.942   1.865 -0.4051  0.3693 -0.4641
 4778TIP3    H135893   0.679   1.012   1.893 -0.9340  0.7725 -0.3535
 4778TIP3    H235894   0.569   0.980   1.794 -0.8949  0.1887 -0.2081
 4779TIP3   OH235895   1.301   6.278   0.032  0.3211  0.3455 -0.3779
 4779TIP3    H135896   1.211   6.297   0.058  0.2639  2.3070 -1.7414
 4779TIP3    H235897   1.295   6.199  -0.021 -0.2273 -0.8682  1.4490
 4780TIP3   OH235898   6.198   2.819   2.079 -0.3410  0.0843  0.0952
 4780TIP3    H135899   6.267   2.778   2.026  1.8640  1.9729  1.3253
 4780TIP3    H235900   6.154   2.878   2.019 -0.5144 -0.6950 -0.5638
 4781TIP3   OH235901   1.493   3.063   8.094 -0.3346 -0.0453 -0.1263
 4781TIP3    H135902   1.528   3.001   8.030  1.5588  0.2552  0.5433
 4781TIP3    H235903   1.468   3.008   8.169  0.0725 -0.1404 -0.0567
 4782TIP3   OH235904   4.539   5.374   1.655  0.2382  0.4732  0.1384
 4782TIP3    H135905   4.531   5.431   1.579 -0.2315  0.5351  0.2356
 4782TIP3    H235906   4.456   5.383   1.702  1.2202  1.9473  1.7251
 4783TIP3   OH235907   6.732   5.132   3.218  0.2994 -0.3674 -0.4242
 4783TIP3    H135908   6.699   5.046   3.241 -1.2650  0.2025 -0.3891
 4783TIP3    H235909   6.686   5.154   3.136  0.2140  0.6570 -0.1207
 4784TIP3   OH235910   3.157   2.084   7.580 -0.2683 -0.1682 -0.1231
 4784TIP3    H135911   3.092   2.110   7.515  1.1667  1.3833 -1.0157
 4784TIP3    H235912   3.232   2.054   7.528  0.1677 -0.8261  0.8587
 4785TIP3   OH235913   2.678   2.739   0.261  0.1440  0.1079  0.3320
 4785TIP3    H135914   2.744   2.796   0.220  0.4319 -1.3859 -1.3744
 4785TIP3    H235915   2.623   2.710   0.189 -2.3446  1.1332  1.6896
 4786TIP3   OH235916   4.789   2.220   2.057 -0.1354 -0.1262  0.4978
 4786TIP3    H135917   4.799   2.202   1.963  2.6093 -0.9677  0.8741
 4786TIP3    H235918   4.814   2.312   2.067  1.2839 -0.4925  0.5725
 4787TIP3   OH235919   4.756   2.193   0.250 -0.9018 -0.1569  0.0104
 4787TIP3    H135920   4.686   2.257   0.265 -0.2555  0.5519  0.0850
 4787TIP3    H235921   4.759   2.141   0.331  0.9109  2.0370  1.4797
 4788TIP3   OH235922   3.438   5.373   6.353  0.3174  0.2385 -0.4729
 4788TIP3    H135923   3.446   5.443   6.418 -2.4099 -0.9352  1.3045
 4788TIP3    H235924   3.466   5.294   6.400 -1.2887 -0.5560 -0.7743
 4789TIP3   OH235925   6.762   5.520   7.435  0.4966  0.0410 -0.2797
 4789TIP3    H135926   6.671   5.549   7.445 -0.1236 -1.6704 -0.5855
 4789TIP3    H235927   6.791   5.502   7.524  0.5142  0.4889 -0.1905
 4790TIP3   OH235928   5.006   4.712   1.307 -0.4430  0.2636 -0.1429
 4790TIP3    H135929   4.947   4.660   1.252 -0.8829  0.0242  0.5473
 4790TIP3    H235930   4.951   4.746   1.377  0.4051 -0.6914  1.0183
 4791TIP3   OH235931   5.383   0.758   2.298  0.9773  0.1707 -0.2701
 4791TIP3    H135932   5.316   0.800   2.353  0.6445 -0.2257 -0.3625
 4791TIP3    H235933   5.453   0.822   2.293  0.7533  0.4558  0.1219
 4792TIP3   OH235934   5.838   0.787   0.321 -0.1517  0.0221  0.0015
 4792TIP3    H135935   5.887   0.818   0.245 -1.8738 -0.1151 -1.2216
 4792TIP3    H235936   5.814   0.697   0.299 -1.6911  0.3696  0.1486
 4793TIP3   OH235937   3.787   5.275   0.269 -0.1057  0.0831 -0.5583
 4793TIP3    H135938   3.824   5.243   0.351  0.9036  1.4800 -0.4375
 4793TIP3    H235939   3.850   5.249   0.202  0.9843  2.0801 -0.4046
 4794TIP3   OH235940   5.200   3.250   7.270 -0.6201 -0.0750  0.6009
 4794TIP3    H135941   5.236   3.290   7.349 -1.3441 -0.9315  1.3992
 4794TIP3    H235942   5.155   3.321   7.225  1.1655  0.7913  0.0886
 4795TIP3   OH235943   6.175   4.144   1.846 -0.0842  0.1380 -0.5432
 4795TIP3    H135944   6.236   4.075   1.871 -2.7842 -2.7442 -1.3361
 4795TIP3    H235945   6.181   4.149   1.751 -0.0010  0.9686 -0.5050
 4796TIP3   OH235946   0.630   5.049   8.086  0.4709 -0.3730 -0.1207
 4796TIP3    H135947   0.545   5.016   8.058  1.0116 -0.6777 -1.4833
 4796TIP3    H235948   0.653   5.115   8.021  2.2496 -1.8465 -1.0829
 4797TIP3   OH235949   6.660   6.078   7.723  0.5784 -0.1638 -0.8621
 4797TIP3    H135950   6.616   6.037   7.648 -0.1036 -2.8455  0.8832
 4797TIP3    H235951   6.744   6.032   7.729  1.7881  1.8361 -1.4549
 4798TIP3   OH235952   3.810   4.264   0.054  0.1866 -0.0430 -0.4370
 4798TIP3    H135953   3.731   4.211   0.066  0.7833 -0.6885  0.9499
 4798TIP3    H235954   3.779   4.354   0.053 -0.5875 -0.2958  0.0092
 4799TIP3   OH235955   6.847   4.588   0.433  0.6854  0.1919  0.0475
 4799TIP3    H135956   6.819   4.677   0.457 -0.0355 -0.0025 -0.0492
 4799TIP3    H235957   6.847   4.540   0.516  1.1078  0.2827  0.1051
 4800TIP3   OH235958   5.716   0.092   1.709  0.4123 -0.0334 -0.3815
 4800TIP3    H135959   5.761   0.016   1.673 -1.1301 -0.4927 -1.4415
 4800TIP3    H235960   5.772   0.167   1.684  0.6611 -0.5858 -1.5328
 4801TIP3   OH235961   5.642   1.552   6.951 -0.4049 -0.0246  0.4099
 4801TIP3    H135962   5.724   1.507   6.972 -0.2283  1.2868  2.9610
 4801TIP3    H235963   5.669   1.626   6.897 -0.0691 -0.2749  0.2291
 4802TIP3   OH235964   5.731   2.238   0.911  0.0762  0.3399 -0.4392
 4802TIP3    H135965   5.676   2.163   0.885  1.4771 -0.3579 -1.4818
 4802TIP3    H235966   5.820   2.205   0.907  0.6299  1.5803  0.8312
 4803TIP3   OH235967   6.706   1.878   0.588  0.0808  0.4676 -0.2361
 4803TIP3    H135968   6.724   1.851   0.678  0.1566  0.3133 -0.2959
 4803TIP3    H235969   6.698   1.973   0.592  0.1363  0.4656 -0.0754
 4804TIP3   OH235970   4.459   5.456   6.648  0.2608 -0.1976  0.3700
 4804TIP3    H135971   4.378   5.405   6.647  0.4448 -0.4915  0.0385
 4804TIP3    H235972   4.495   5.444   6.736  1.3792 -2.3954 -0.3029
 4805TIP3   OH235973   5.356   0.771   1.291  0.3788  0.0330  0.5353
 4805TIP3    H135974   5.326   0.767   1.382  0.8392  1.4785  0.7708
 4805TIP3    H235975   5.403   0.688   1.278 -1.6307 -1.2302  0.8777
 4806TIP3   OH235976   0.849   1.918   2.125 -0.1641  0.3527  0.1794
 4806TIP3    H135977   0.762   1.946   2.096 -0.4725  1.0325  1.6836
 4806TIP3    H235978   0.839   1.900   2.218  1.7213  2.4048  0.8876
 4807TIP3   OH235979   4.320   1.023   0.903 -0.4652  0.2819 -0.2658
 4807TIP3    H135980   4.228   1.038   0.882 -0.4740  0.7566  0.0872
 4807TIP3    H235981   4.318   0.964   0.979 -0.4832  0.5571 -0.0539
 4808TIP3   OH235982   6.853   2.400   2.581 -0.0989 -0.2962  0.6038
 4808TIP3    H135983   6.942   2.425   2.605  0.9219 -0.3055 -2.7541
 4808TIP3    H235984   6.853   2.305   2.588  0.0681 -0.2838  0.8098
 4809TIP3   OH235985   4.534   4.488   0.740 -0.0576 -0.1993 -0.2793
 4809TIP3    H135986   4.538   4.569   0.791  2.4730 -0.2178 -0.3161
 4809TIP3    H235987   4.580   4.423   0.793 -0.0138 -1.0009 -1.2654
 4810TIP3   OH235988   4.314   4.459   2.849  0.2112  0.4553  0.3728
 4810TIP3    H135989   4.308   4.552   2.827 -0.0696 -0.2512 -3.2443
 4810TIP3    H235990   4.231   4.438   2.891 -1.6100  1.0846 -2.6272
 4811TIP3   OH235991   6.468   4.842   0.469 -0.3628 -0.7665 -0.1275
 4811TIP3    H135992   6.481   4.837   0.564 -2.1182 -0.0316  0.1979
 4811TIP3    H235993   6.398   4.780   0.451 -0.8050 -0.0962 -0.7715
 4812TIP3   OH235994   5.648   2.463   8.508 -0.4625 -0.5284 -0.3371
 4812TIP3    H135995   5.714   2.488   8.443  0.6576 -1.6861  0.3081
 4812TIP3    H235996   5.614   2.379   8.476 -1.0103 -0.3598 -0.2078
 4813TIP3   OH235997   1.708   4.197   0.555 -0.4284  0.3577 -0.3125
 4813TIP3    H135998   1.652   4.159   0.488  0.7986 -0.1330 -1.1003
 4813TIP3    H235999   1.656   4.268   0.593 -1.6558 -0.2407 -0.8291
 4814TIP3   OH236000   5.714   6.356   1.399 -0.4899  0.1351 -0.4088
 4814TIP3    H136001   5.780   6.290   1.418  0.7893  1.3033 -0.6327
 4814TIP3    H236002   5.630   6.309   1.404  0.3751 -1.4894 -0.6318
 4815TIP3   OH236003   5.926   6.103   0.953  0.0285 -0.5871 -0.3508
 4815TIP3    H136004   5.976   6.021   0.948 -1.5573 -1.6030 -0.0546
 4815TIP3    H236005   5.893   6.105   1.043 -0.7277 -0.0870 -0.6367
 4816TIP3   OH236006   3.016   3.158   8.411  0.4399  0.2001  0.2481
 4816TIP3    H136007   3.041   3.243   8.373 -2.1700  1.1544  0.4862
 4816TIP3    H236008   3.009   3.100   8.335  1.6055  0.3233  0.0177
 4817TIP3   OH236009   5.615   5.406   8.012 -0.7202  0.0909 -0.2585
 4817TIP3    H136010   5.706   5.377   8.012 -0.3028  1.1232  2.2561
 4817TIP3    H236011   5.596   5.425   8.104 -1.6625  5.2461 -1.1980
 4818TIP3   OH236012   5.154   1.760   0.294 -0.0244  0.1942  0.0910
 4818TIP3    H136013   5.200   1.793   0.371  0.1223 -2.0376  1.0528
 4818TIP3    H236014   5.103   1.834   0.263  0.4011  1.3510  1.9600
 4819TIP3   OH236015   4.394   4.100   7.365  0.4150 -0.0101  0.6072
 4819TIP3    H136016   4.331   4.052   7.311  0.6554 -0.7907  1.0076
 4819TIP3    H236017   4.377   4.192   7.345  0.7915 -0.2815 -1.1192
 4820TIP3   OH236018   5.622   1.011   6.882  0.2363  0.2010 -0.1276
 4820TIP3    H136019   5.664   1.091   6.915  1.2069 -0.2326 -0.2722
 4820TIP3    H236020   5.680   0.980   6.813 -0.1277 -0.6364 -0.0678
 4821TIP3   OH236021   1.891   0.580   1.739 -1.1177  0.4606  0.0876
 4821TIP3    H136022   1.809   0.537   1.716 -1.3773  0.5685  0.7759
 4821TIP3    H236023   1.913   0.633   1.662 -0.0132 -1.9583 -1.3839
 4822TIP3   OH236024   0.396   4.143   8.364  0.3839  0.5680 -0.5115
 4822TIP3    H136025   0.317   4.125   8.312  0.9296 -1.2881 -0.7673
 4822TIP3    H236026   0.363   4.150   8.454 -0.2178  1.0466 -0.7583
 4823TIP3   OH236027   2.888   3.222   0.440  0.4515 -0.3406  0.0292
 4823TIP3    H136028   2.814   3.280   0.458 -0.7677 -1.3380 -1.4801
 4823TIP3    H236029   2.942   3.271   0.377 -0.1427 -0.4931 -0.6128
 4824TIP3   OH236030   1.653   6.028   0.460  0.7988  0.6636 -0.1752
 4824TIP3    H136031   1.625   6.116   0.435  0.1804 -0.4620 -4.1489
 4824TIP3    H236032   1.643   5.976   0.380  0.7994 -3.1378  2.0388
 4825TIP3   OH236033   3.501   1.917   2.217  0.8117  0.2557 -0.4151
 4825TIP3    H136034   3.455   1.996   2.248  0.0349 -0.2295 -0.3261
 4825TIP3    H236035   3.465   1.846   2.270  3.7102  0.2148  1.7863
 4826TIP3   OH236036   4.419   6.038   1.132  0.1473 -0.5478 -0.1143
 4826TIP3    H136037   4.454   6.122   1.101 -0.7363  0.7499  2.1858
 4826TIP3    H236038   4.475   6.016   1.206 -0.7057 -1.0997  0.3720
 4827TIP3   OH236039   5.453   5.163   1.223  0.1429  0.2671 -0.2506
 4827TIP3    H136040   5.519   5.184   1.158  1.4763 -1.8677  0.3269
 4827TIP3    H236041   5.491   5.192   1.306 -0.9741  1.7392 -0.1986
 4828TIP3   OH236042   2.211   3.566   0.072  0.1226  0.1726  0.1787
 4828TIP3    H136043   2.187   3.566   0.165 -0.3948  0.1765  0.0466
 4828TIP3    H236044   2.188   3.478   0.041  2.2623 -0.5665  0.5429
 4829TIP3   OH236045   5.628   4.565   7.653  0.3405  0.3209  0.0642
 4829TIP3    H136046   5.606   4.483   7.697 -0.2978  0.5372  0.1472
 4829TIP3    H236047   5.675   4.616   7.719 -1.2121  0.9267  0.7364
 4830TIP3   OH236048   0.651   5.741   0.705 -0.0734 -0.7954 -0.8704
 4830TIP3    H136049   0.636   5.723   0.612  1.8274 -1.2731 -1.1250
 4830TIP3    H236050   0.577   5.699   0.750 -0.2057 -1.8798 -2.0538
 4831TIP3   OH236051   5.534   2.065   0.228 -0.3359  0.5494  0.1464
 4831TIP3    H136052   5.483   2.127   0.175 -0.7158  1.8716  1.9486
 4831TIP3    H236053   5.617   2.110   0.245 -0.4344  0.4030  1.0984
 4832TIP3   OH236054   6.342   0.947   0.071  0.1023  0.6615  0.0488
 4832TIP3    H136055   6.354   0.973  -0.021  1.3611 -0.0789 -0.0130
 4832TIP3    H236056   6.430   0.929   0.102 -0.5154 -1.5600  0.6782
 4833TIP3   OH236057   5.854   5.732   0.813  0.1611  0.0313 -0.3944
 4833TIP3    H136058   5.873   5.791   0.739 -0.2122  1.2975  0.4730
 4833TIP3    H236059   5.891   5.777   0.889 -2.9402  0.8190  0.8233
 4834TIP3   OH236060   2.527   4.821   0.411  0.0460 -0.1202 -0.5153
 4834TIP3    H136061   2.476   4.882   0.358 -0.8133 -0.8020 -0.5049
 4834TIP3    H236062   2.580   4.877   0.468  0.0452  0.6076 -1.2115
 4835TIP3   OH236063   5.212   0.316   7.179  0.1647  0.3926 -0.1504
 4835TIP3    H136064   5.231   0.388   7.119 -1.4089  0.1747 -0.9786
 4835TIP3    H236065   5.118   0.300   7.168 -0.3085  0.6604  2.7697
 4836TIP3   OH236066   6.346   5.605   1.361 -0.0728 -0.2968 -0.3001
 4836TIP3    H136067   6.255   5.612   1.333  0.3687  1.2503 -1.4720
 4836TIP3    H236068   6.372   5.695   1.381  1.2591 -0.6912 -0.1512
 4837TIP3   OH236069   5.960   5.004   7.707 -0.3952 -0.3144  0.0339
 4837TIP3    H136070   5.961   5.092   7.669 -2.6545 -0.4027 -0.3449
 4837TIP3    H236071   6.002   4.950   7.640  2.6212  0.6287  0.9749
 4838TIP3   OH236072   5.074   1.621   8.321 -0.0461 -0.1430 -0.5335
 4838TIP3    H136073   5.010   1.551   8.333 -2.0225  1.4975 -0.8843
 4838TIP3    H236074   5.126   1.593   8.246  2.8989 -3.7005  2.4516
 4839TIP3   OH236075   5.050   6.228   1.359 -0.0850  0.0454  0.4386
 4839TIP3    H136076   5.105   6.184   1.425  0.3873 -0.1682 -0.0897
 4839TIP3    H236077   5.061   6.321   1.377 -0.1985 -0.0178  0.8530
 4840TIP3   OH236078   2.525   4.616   1.859  0.3872 -0.3644  0.2025
 4840TIP3    H136079   2.434   4.612   1.829  0.0699 -1.2756  1.2137
 4840TIP3    H236080   2.518   4.629   1.953  1.2890 -1.0226  0.3727
 4841TIP3   OH236081   3.029   0.019   8.286  0.2722  0.5798  0.6845
 4841TIP3    H136082   3.001  -0.064   8.325  0.1267 -0.8204 -2.1579
 4841TIP3    H236083   3.125   0.013   8.285  0.2853 -1.3014 -2.6129
 4842TIP3   OH236084   1.023   2.528   0.441 -0.3990 -0.6328 -0.0106
 4842TIP3    H136085   0.993   2.453   0.389 -0.0024 -0.6220 -0.2582
 4842TIP3    H236086   1.022   2.602   0.381  0.2305 -0.6562 -0.0568
 4843TIP3   OH236087   2.368   1.215   1.942 -0.7446 -0.6788 -0.6356
 4843TIP3    H136088   2.353   1.183   2.031 -0.9851 -0.1722 -0.4888
 4843TIP3    H236089   2.282   1.245   1.912 -0.3439  0.9357 -0.3150
 4844TIP3   OH236090   3.004   5.943   7.503 -0.4328  0.0020 -0.3001
 4844TIP3    H136091   2.909   5.948   7.497 -0.4791 -1.9350 -4.1789
 4844TIP3    H236092   3.020   5.866   7.558 -1.0532  0.6033  0.7513
 4845TIP3   OH236093   3.029   2.243   1.974 -0.0669 -0.4691 -0.7984
 4845TIP3    H136094   3.026   2.285   2.060  0.8018  0.5901 -1.2662
 4845TIP3    H236095   3.122   2.238   1.953 -0.2970  1.2047 -2.5658
 4846TIP3   OH236096   2.212   6.453   8.371 -0.2233  0.2019  0.7131
 4846TIP3    H136097   2.241   6.458   8.280  1.3863 -1.3303  1.0858
 4846TIP3    H236098   2.147   6.382   8.371 -0.3073  0.2798  0.7256
 4847TIP3   OH236099   3.135   5.610   0.322 -0.4652 -0.1869 -0.5808
 4847TIP3    H136100   3.136   5.522   0.359 -2.0186  0.3343  0.8105
 4847TIP3    H236101   3.071   5.658   0.374  1.8509  2.3989  0.1259
 4848TIP3   OH236102   0.635   2.632   6.974  0.6618  0.2538  0.0593
 4848TIP3    H136103   0.541   2.620   6.981  0.4081  2.2823  1.0343
 4848TIP3    H236104   0.646   2.715   6.927  1.9192  0.4614  0.6500
 4849TIP3   OH236105   4.209   5.699   0.782  0.2276  0.6741  0.3517
 4849TIP3    H136106   4.212   5.611   0.819 -3.1199  1.4982  3.0785
 4849TIP3    H236107   4.259   5.753   0.843 -3.6016  1.6739  2.9923
 4850TIP3   OH236108   0.929   3.791   8.054 -0.4336  0.2920 -0.0941
 4850TIP3    H136109   0.862   3.859   8.052  0.8385  1.6108  0.4885
 4850TIP3    H236110   0.966   3.796   8.142  1.8019  1.0068 -1.0162
 4851TIP3   OH236111   5.600   3.326   1.977  0.0565  0.0845 -0.2966
 4851TIP3    H136112   5.589   3.412   2.018  1.4283  0.7625 -1.2894
 4851TIP3    H236113   5.517   3.282   1.992  0.7197 -0.0752  3.9495
 4852TIP3   OH236114   5.728   2.741   8.159 -0.6693 -0.2288  0.3335
 4852TIP3    H136115   5.648   2.694   8.137 -0.2608 -0.4356 -0.7907
 4852TIP3    H236116   5.699   2.814   8.213 -1.8011  0.4021 -1.0460
 4853TIP3   OH236117   4.461   0.139   7.484  0.2339  0.8373  0.0249
 4853TIP3    H136118   4.490   0.184   7.563  0.2040  0.4016  0.2918
 4853TIP3    H236119   4.491   0.049   7.496 -3.8679 -0.5250  1.8371
 4854TIP3   OH236120   0.342   1.393   1.123  0.6608  0.5186 -0.0848
 4854TIP3    H136121   0.252   1.369   1.143  0.9228 -0.0906  0.3928
 4854TIP3    H236122   0.339   1.488   1.108 -0.3277  0.2726 -1.6999
 4855TIP3   OH236123   1.987   4.663   0.347 -0.8520 -0.4246 -0.0555
 4855TIP3    H136124   2.051   4.625   0.407 -2.6178 -2.5705  0.5852
 4855TIP3    H236125   2.015   4.634   0.260  0.3357  0.6593 -0.0693
 4856TIP3   OH236126   0.700   5.682   2.017  0.3524 -0.1966 -0.7655
 4856TIP3    H136127   0.788   5.647   2.033  0.3477  0.4887  0.9701
 4856TIP3    H236128   0.700   5.703   1.924  2.3932  0.6919 -0.6335
 4857TIP3   OH236129   6.236   2.663   1.051 -0.3126  0.7730 -0.1779
 4857TIP3    H136130   6.154   2.706   1.027 -0.5949  0.3914  0.0937
 4857TIP3    H236131   6.272   2.716   1.122 -0.0663  1.2270 -0.6297
 4858TIP3   OH236132   5.652   2.968   8.246  0.0033  0.0859  0.6983
 4858TIP3    H136133   5.647   3.060   8.273  1.0475 -0.0844  1.5361
 4858TIP3    H236134   5.566   2.931   8.270 -0.8915  1.1059 -0.7803
 4859TIP3   OH236135   0.629   1.814   7.971  0.1399  0.1785  0.1855
 4859TIP3    H136136   0.724   1.808   7.966  0.2244  0.8166  0.7935
 4859TIP3    H236137   0.599   1.803   7.881  0.9121  1.7737 -0.3046
 4860TIP3   OH236138   6.345   6.622   1.230  0.4714  0.3292  0.1900
 4860TIP3    H136139   6.351   6.706   1.185  1.0626  0.0505 -0.2652
 4860TIP3    H236140   6.424   6.617   1.284  0.1739  0.2976  0.6298
 4861TIP3   OH236141   5.451   3.046   8.468  0.1120  0.2218  0.7400
 4861TIP3    H136142   5.413   3.041   8.381  0.1950  1.7402  0.5876
 4861TIP3    H236143   5.379   3.074   8.524  0.2353 -0.0480  1.0390
 4862TIP3   OH236144   4.662   1.820   1.170 -0.4948 -0.0244  0.5762
 4862TIP3    H136145   4.724   1.843   1.101  0.7154 -1.0100  1.3012
 4862TIP3    H236146   4.617   1.742   1.137  0.4283 -0.7865  1.0776
 4863TIP3   OH236147   2.311   6.652   2.658  0.0781  0.0403  0.1145
 4863TIP3    H136148   2.225   6.613   2.642 -0.2126  1.0144 -0.8150
 4863TIP3    H236149   2.303   6.741   2.625  0.9192  0.7049  1.6096
 4864TIP3   OH236150   2.373   1.851   8.147 -0.0235  0.2951 -0.4190
 4864TIP3    H136151   2.443   1.813   8.093  0.0688 -1.3247  0.7756
 4864TIP3    H236152   2.297   1.852   8.089 -0.1394 -2.1535 -0.4052
 4865TIP3   OH236153   4.350   1.993   1.512  0.5988 -0.3389 -0.4342
 4865TIP3    H136154   4.379   2.081   1.536  2.3946 -0.7851 -0.8577
 4865TIP3    H236155   4.264   1.984   1.554 -0.2345  2.0806 -1.4614
 4866TIP3   OH236156   5.676   5.362   0.290  0.3887  0.5526 -0.5398
 4866TIP3    H136157   5.744   5.321   0.344 -0.7132 -1.7161 -0.7405
 4866TIP3    H236158   5.648   5.292   0.230 -2.9394  0.9509  0.3383
 4867TIP3   OH236159   5.501   4.132   7.283  0.2841 -0.5830 -0.4927
 4867TIP3    H136160   5.572   4.077   7.251  0.7439 -1.4107  1.7691
 4867TIP3    H236161   5.429   4.118   7.221  1.0055 -2.2722 -0.9844
 4868TIP3   OH236162   2.839   3.987   8.548  0.4502  0.6824 -0.1120
 4868TIP3    H136163   2.800   3.933   8.479 -0.7321  1.4129 -0.0567
 4868TIP3    H236164   2.776   4.058   8.560  0.7170  0.6630  1.5924
 4869TIP3   OH236165   4.207   0.271   2.184 -0.2408  0.2552 -0.1723
 4869TIP3    H136166   4.122   0.232   2.167  0.3135 -0.5148 -1.2495
 4869TIP3    H236167   4.271   0.208   2.149  0.6943  1.8303 -1.4300
 4870TIP3   OH236168   0.244   1.380   0.714 -0.0928  0.0951  0.1717
 4870TIP3    H136169   0.266   1.395   0.622 -0.5641 -0.9970 -0.1280
 4870TIP3    H236170   0.167   1.435   0.730  2.3502  3.6056  1.1053
 4871TIP3   OH236171   4.802   3.958   1.379 -0.9495  0.1276  0.2183
 4871TIP3    H136172   4.896   3.973   1.392 -0.7490 -1.6661  1.1123
 4871TIP3    H236173   4.790   3.968   1.285  0.0840  0.6191  0.1162
 4872TIP3   OH236174   5.070   1.311   2.554 -0.6058 -0.6282 -0.0746
 4872TIP3    H136175   5.144   1.285   2.499 -1.0847 -2.0791 -0.0864
 4872TIP3    H236176   5.096   1.286   2.643 -0.4832  0.2357  0.1369
 4873TIP3   OH236177   6.767   5.143   0.231 -0.1279 -0.2168  0.0906
 4873TIP3    H136178   6.715   5.113   0.156 -0.1410  0.7668 -0.3105
 4873TIP3    H236179   6.702   5.165   0.298 -0.2521  0.8844 -0.3627
 4874TIP3   OH236180   1.512   0.656   8.497 -0.0827  0.6131  0.0542
 4874TIP3    H136181   1.541   0.718   8.564 -1.4581  1.7735 -0.3707
 4874TIP3    H236182   1.435   0.697   8.458 -0.1655 -0.7051 -1.2623
 4875TIP3   OH236183   4.348   3.340   2.385 -0.0012  0.4314  0.0837
 4875TIP3    H136184   4.364   3.434   2.373  0.1799  0.8895  3.1916
 4875TIP3    H236185   4.254   3.333   2.398 -0.0313  0.1399 -0.2738
 4876TIP3   OH236186   1.321   4.745   0.581 -0.6050 -0.4276 -0.3522
 4876TIP3    H136187   1.254   4.741   0.649  0.2035  0.8210  0.5664
 4876TIP3    H236188   1.404   4.747   0.629 -0.0265  0.6297 -1.3498
 4877TIP3   OH236189   0.256   2.859   0.635  0.1642  0.6183  0.3555
 4877TIP3    H136190   0.209   2.941   0.649 -0.5381  0.2948 -0.0254
 4877TIP3    H236191   0.280   2.861   0.542 -0.6981 -0.0275  0.1078
 4878TIP3   OH236192   5.095   3.214   0.810  0.3482 -0.1881 -0.0916
 4878TIP3    H136193   5.081   3.120   0.808 -0.2251 -0.0953 -0.9594
 4878TIP3    H236194   5.009   3.252   0.794  0.9474  0.4380 -2.2142
 4879TIP3   OH236195   4.861   3.113   1.244 -0.0570 -0.3451  0.0162
 4879TIP3    H136196   4.797   3.106   1.174 -1.0889  0.5106  0.8472
 4879TIP3    H236197   4.838   3.042   1.304 -0.3341  0.0590  0.3927
 4880TIP3   OH236198   0.423   1.032   2.126  0.3514 -0.0701 -0.1029
 4880TIP3    H136199   0.405   1.120   2.094 -0.8485 -0.6612 -1.1150
 4880TIP3    H236200   0.409   0.975   2.051 -1.9914 -1.4597  1.2444
 4881TIP3   OH236201   2.353   5.649   0.490 -0.2875  0.3306 -0.1594
 4881TIP3    H136202   2.336   5.595   0.413  1.8940 -0.8233  0.0926
 4881TIP3    H236203   2.445   5.677   0.480  0.1081 -0.0132  2.0943
 4882TIP3   OH236204   3.769   6.601   7.806  1.0440  0.9107  0.4396
 4882TIP3    H136205   3.782   6.655   7.728  0.9708 -0.0777 -0.2720
 4882TIP3    H236206   3.707   6.651   7.859 -0.3445  0.7839 -0.9714
 4883TIP3   OH236207   3.835   3.744   7.918  0.2050  0.3025  0.1987
 4883TIP3    H136208   3.806   3.677   7.981 -1.9660  0.4860 -0.5138
 4883TIP3    H236209   3.838   3.697   7.835 -2.7654  1.2944 -0.5868
 4884TIP3   OH236210   2.142   2.551   1.368 -0.1707 -0.2842 -0.3757
 4884TIP3    H136211   2.067   2.599   1.332  0.2273  1.1642  0.6315
 4884TIP3    H236212   2.199   2.536   1.293 -0.7853 -0.0848 -0.8906
 4885TIP3   OH236213   4.103   2.895   8.176  0.2088  0.0216 -0.3700
 4885TIP3    H136214   4.041   2.824   8.194 -1.3059  0.6214 -2.8118
 4885TIP3    H236215   4.156   2.864   8.103  0.3057  0.9233 -0.7057
 4886TIP3   OH236216   1.800   0.963   1.111 -0.3563 -0.3548 -0.7870
 4886TIP3    H136217   1.895   0.969   1.105 -0.5047  1.7824 -3.3892
 4886TIP3    H236218   1.779   0.874   1.083  0.8317 -0.3638 -1.7140
 4887TIP3   OH236219   1.712   2.449   0.442  0.5572 -0.0342  0.1101
 4887TIP3    H136220   1.675   2.536   0.456 -0.9744 -0.3495 -1.5190
 4887TIP3    H236221   1.804   2.464   0.422 -0.1759  1.5256 -2.6226
 4888TIP3   OH236222   0.581   2.414   0.782  0.1392 -0.5890 -0.1033
 4888TIP3    H136223   0.603   2.427   0.874 -0.6521 -0.7275  0.1104
 4888TIP3    H236224   0.623   2.487   0.737  1.9956 -1.4487  0.1320
 4889TIP3   OH236225   5.316   2.186   1.221 -0.5811  0.0572 -0.1875
 4889TIP3    H136226   5.274   2.160   1.139  0.3596 -0.6388 -0.4724
 4889TIP3    H236227   5.245   2.190   1.285 -1.2016 -0.2212 -0.8472
 4890TIP3   OH236228   5.329   2.509   8.448  0.0843 -0.6832  0.6370
 4890TIP3    H136229   5.286   2.426   8.469 -2.8493  0.6335  0.4178
 4890TIP3    H236230   5.289   2.535   8.365  1.5713  0.5699  0.2780
 4891TIP3   OH236231   1.141   3.708   1.369  0.0144 -0.0031 -0.0452
 4891TIP3    H136232   1.101   3.630   1.333  0.5596 -1.0494  1.5138
 4891TIP3    H236233   1.192   3.677   1.444 -0.7707  1.9939  1.3986
 4892TIP3   OH236234   3.862   4.884   2.158 -0.0037  0.4204 -0.3636
 4892TIP3    H136235   3.788   4.944   2.159 -2.4249 -2.3141 -1.7509
 4892TIP3    H236236   3.868   4.854   2.067  2.4710  0.1028 -0.1707
 4893TIP3   OH236237   1.883   3.723   0.901  0.0157 -0.1600  0.0828
 4893TIP3    H136238   1.938   3.751   0.827 -0.3708 -0.7545 -0.4318
 4893TIP3    H236239   1.830   3.800   0.921  2.2062  1.0369  1.7153
 4894TIP3   OH236240   5.176   6.864   0.963 -0.1899  0.6382 -0.2430
 4894TIP3    H136241   5.183   6.932   0.896 -0.9267  0.2696 -0.7004
 4894TIP3    H236242   5.098   6.814   0.939  1.4623 -1.6859 -1.1220
 4895TIP3   OH236243   1.873   6.043   0.854 -0.4687  0.1413  0.3292
 4895TIP3    H136244   1.907   6.121   0.898 -0.2325  0.7208 -0.8229
 4895TIP3    H236245   1.945   5.980   0.858 -0.8533 -0.2407  1.7491
 4896TIP3   OH236246   6.133   4.398   1.915 -0.3503 -0.2459 -0.7003
 4896TIP3    H136247   6.169   4.315   1.883 -0.3344 -0.4004 -0.2942
 4896TIP3    H236248   6.156   4.399   2.008 -1.1348 -0.2086 -0.5007
 4897TIP3   OH236249   0.134   1.618   8.058  0.0560 -0.1804 -0.2688
 4897TIP3    H136250   0.064   1.651   8.115 -2.4111 -1.6853 -2.2414
 4897TIP3    H236251   0.172   1.697   8.019  0.1597  0.7204  1.5220
 4898TIP3   OH236252   3.007   4.134   2.536  0.0993 -0.6884 -0.1657
 4898TIP3    H136253   3.000   4.222   2.499 -0.4147  0.2428  1.9938
 4898TIP3    H236254   3.067   4.088   2.478  0.9258  1.2888 -0.9637
 4899TIP3   OH236255   4.259   1.173   6.706  0.2978  0.1962  0.3176
 4899TIP3    H136256   4.248   1.097   6.649 -0.1515  0.1374  0.4818
 4899TIP3    H236257   4.249   1.139   6.795 -1.8167  0.7493  0.3401
 4900TIP3   OH236258   6.130   4.850   7.523 -0.2932 -0.0967 -0.2263
 4900TIP3    H136259   6.124   4.815   7.434  0.6176  1.6740 -1.0381
 4900TIP3    H236260   6.109   4.776   7.580  1.4077 -1.9328 -1.8240
 4901TIP3   OH236261   4.838   3.668   7.785  0.6907 -0.3009 -0.4413
 4901TIP3    H136262   4.911   3.716   7.824 -0.4237  0.4865  0.7614
 4901TIP3    H236263   4.871   3.639   7.700  2.4234 -0.0674  0.1149
 4902TIP3   OH236264   2.621   2.370   0.028  0.2308  0.2979  0.4506
 4902TIP3    H136265   2.606   2.283  -0.010  1.1225  0.6394 -0.7710
 4902TIP3    H236266   2.687   2.355   0.096 -0.2567 -0.1051  0.8371
 4903TIP3   OH236267   6.300   4.921   1.713  0.4540 -0.1439  0.3229
 4903TIP3    H136268   6.252   4.906   1.632  0.9875  0.7482 -0.1673
 4903TIP3    H236269   6.235   4.954   1.774  0.3699  0.7962 -0.2533
 4904TIP3   OH236270   0.131   3.292   7.507  0.4520 -0.0723  0.5988
 4904TIP3    H136271   0.112   3.201   7.530 -0.3283  0.1076  0.6912
 4904TIP3    H236272   0.077   3.344   7.566 -0.5191  0.4157 -0.6645
 4905TIP3   OH236273   1.594   4.243   1.976  0.0834  0.6409  0.0562
 4905TIP3    H136274   1.588   4.264   1.883  2.2904 -1.1954 -0.5998
 4905TIP3    H236275   1.664   4.300   2.009  1.4430 -0.7987 -0.1970
 4906TIP3   OH236276   4.716   0.707   7.992  0.0680 -0.0012  0.2339
 4906TIP3    H136277   4.774   0.711   8.067  0.4244 -1.2908  0.0393
 4906TIP3    H236278   4.642   0.763   8.017  0.2417 -0.2928  1.4780
 4907TIP3   OH236279   2.926   1.651   0.204 -0.4938 -0.2888 -0.3110
 4907TIP3    H136280   2.832   1.637   0.189 -0.6660  0.9810 -0.6165
 4907TIP3    H236281   2.929   1.708   0.281  0.1489 -2.1809  1.1102
 4908TIP3   OH236282   1.314   3.375   6.827  0.3977  0.5338  0.4134
 4908TIP3    H136283   1.348   3.456   6.865  0.7248  0.3639  0.4817
 4908TIP3    H236284   1.262   3.335   6.898  0.9233  0.2681  0.6532
 4909TIP3   OH236285   0.384   5.893   7.228 -0.0879 -0.0775 -0.1607
 4909TIP3    H136286   0.446   5.911   7.157 -0.0766 -1.1545 -0.4400
 4909TIP3    H236287   0.436   5.903   7.307  0.5614 -1.3221 -0.4042
 4910TIP3   OH236288   1.007   4.601   8.019  0.1297 -0.3712  0.6857
 4910TIP3    H136289   1.101   4.607   8.034  0.0326 -1.1637  1.7845
 4910TIP3    H236290   0.975   4.691   8.028  0.7492 -0.1351  0.5332
 4911TIP3   OH236291   5.191   0.469   2.368 -0.1401  0.4505  0.2147
 4911TIP3    H136292   5.120   0.442   2.425 -2.0776  1.4301 -1.5954
 4911TIP3    H236293   5.189   0.565   2.371  0.3355  0.5005 -0.7643
 4912TIP3   OH236294   0.426   4.355   8.614 -0.1329  0.2487  0.2858
 4912TIP3    H136295   0.364   4.396   8.553  0.2573  0.8826  0.3103
 4912TIP3    H236296   0.451   4.426   8.673  0.7582  0.0361  0.1628
 4913TIP3   OH236297   4.207   3.555   1.034 -0.2125 -0.3526  0.0714
 4913TIP3    H136298   4.222   3.617   0.962  2.1306 -0.4776  0.3828
 4913TIP3    H236299   4.143   3.599   1.090  1.3579  1.8594  0.2896
 4914TIP3   OH236300   4.320   6.203   2.467 -0.0585 -0.4436 -0.8912
 4914TIP3    H136301   4.387   6.137   2.449  0.4777  0.0436 -0.7092
 4914TIP3    H236302   4.367   6.287   2.460 -0.7108 -0.0873 -1.0436
 4915TIP3   OH236303   3.462   1.901   6.549  0.0586  0.7787  0.2820
 4915TIP3    H136304   3.502   1.822   6.514 -0.1629  0.4134  0.8399
 4915TIP3    H236305   3.448   1.882   6.642 -1.8151  0.7180  0.0251
 4916TIP3   OH236306   0.432   0.655   1.576  0.6208 -0.2102 -0.3671
 4916TIP3    H136307   0.496   0.725   1.564 -0.0847  0.4729 -0.1391
 4916TIP3    H236308   0.348   0.695   1.556  0.2718 -1.1648 -0.8814
 4917TIP3   OH236309   2.628   2.456   7.982 -0.3255 -0.3748  0.9166
 4917TIP3    H136310   2.643   2.368   7.947 -0.8889 -0.5908  1.2032
 4917TIP3    H236311   2.619   2.511   7.905  2.2367 -0.1431  0.6907
 4918TIP3   OH236312   3.734   4.324   7.676  0.5211 -0.8287  0.1270
 4918TIP3    H136313   3.648   4.367   7.683  0.9362  0.1272 -0.4413
 4918TIP3    H236314   3.751   4.321   7.582  0.8513 -1.5640  0.2068
 4919TIP3   OH236315   2.008   4.158   1.789 -0.1611 -0.4938  0.5141
 4919TIP3    H136316   2.089   4.170   1.838  0.1411  0.5076 -0.1955
 4919TIP3    H236317   2.035   4.129   1.702 -0.2591  2.6603 -0.7224
 4920TIP3   OH236318   1.051   6.737   2.024 -0.7067 -0.0231 -0.3195
 4920TIP3    H136319   1.094   6.746   1.939 -0.0171 -0.4014 -0.0214
 4920TIP3    H236320   1.025   6.826   2.048 -0.6103  0.1305 -0.7779
 4921TIP3   OH236321   0.068   6.257   7.973 -0.3448 -0.2426 -0.3069
 4921TIP3    H136322   0.034   6.308   7.899  0.8044 -0.3253 -0.9103
 4921TIP3    H236323   0.078   6.321   8.044 -1.3522 -0.1431 -0.2320
 4922TIP3   OH236324   4.107   3.282   8.407  0.1698  0.1554 -0.1876
 4922TIP3    H136325   4.186   3.336   8.399 -0.2482  1.1342  1.6605
 4922TIP3    H236326   4.128   3.219   8.476 -0.7222  0.5745  0.4798
 4923TIP3   OH236327   2.132   4.385   1.415  0.5045  0.1136 -0.3337
 4923TIP3    H136328   2.165   4.296   1.429  0.0900 -0.2689 -1.6470
 4923TIP3    H236329   2.074   4.378   1.339 -1.9887  0.9141  1.3687
 4924TIP3   OH236330   6.575   2.745   0.133 -0.4076  0.4052 -0.2147
 4924TIP3    H136331   6.556   2.839   0.137  0.5582  0.5773  0.8066
 4924TIP3    H236332   6.529   2.715   0.054 -1.3012  1.5913 -0.1780
 4925TIP3   OH236333   5.641   3.250   8.497 -0.0705 -0.4445 -0.3126
 4925TIP3    H136334   5.592   3.330   8.512  1.1466  0.1542  0.7426
 4925TIP3    H236335   5.575   3.184   8.476 -1.0931  0.8128 -1.1622
 4926TIP3   OH236336   1.101   1.166   8.105 -0.1086  0.0224 -0.2759
 4926TIP3    H136337   1.026   1.209   8.146  0.0974  0.5564 -0.4542
 4926TIP3    H236338   1.104   1.202   8.017  0.1245 -0.2915 -0.3973
 4927TIP3   OH236339   5.687   2.144   7.528  0.1637  0.3942 -0.6675
 4927TIP3    H136340   5.613   2.090   7.558  0.6943  0.7528  1.4290
 4927TIP3    H236341   5.684   2.136   7.432 -0.4840 -2.4047 -0.5253
 4928TIP3   OH236342   3.214   5.504   1.567 -0.0729  0.4382  0.0744
 4928TIP3    H136343   3.254   5.535   1.648  1.5854 -1.3451  0.0080
 4928TIP3    H236344   3.194   5.412   1.584 -1.3286  0.4829 -0.9735
 4929TIP3   OH236345   2.176   5.012   1.960  0.1099  0.7877 -0.0608
 4929TIP3    H136346   2.112   4.944   1.939 -0.3540  0.6843  1.5350
 4929TIP3    H236347   2.252   4.965   1.993 -0.1991  1.0060  1.0180
 4930TIP3   OH236348   0.198   3.080   0.993  0.3063 -0.3233 -0.5037
 4930TIP3    H136349   0.243   3.030   1.060 -0.9136 -0.6322  0.1131
 4930TIP3    H236350   0.117   3.033   0.978 -0.7786  1.2958 -0.0726
 4931TIP3   OH236351   2.729   2.805   8.380 -0.1577 -0.6545  0.3275
 4931TIP3    H136352   2.648   2.778   8.423 -0.3867 -1.7952 -0.7261
 4931TIP3    H236353   2.705   2.814   8.288  0.6701  0.1111  0.1719
 4932TIP3   OH236354   4.974   4.759   7.364  0.6001 -0.4789  0.0745
 4932TIP3    H136355   4.935   4.686   7.413  0.0863 -0.8159 -0.8175
 4932TIP3    H236356   4.949   4.743   7.273  0.3468  0.9127 -0.1127
 4933TIP3   OH236357   0.307   0.334   0.326  0.3773 -0.3288 -0.0992
 4933TIP3    H136358   0.316   0.404   0.262  1.8184  0.6240  1.0663
 4933TIP3    H236359   0.396   0.320   0.359 -0.0778 -1.8615  0.5918
 4934TIP3   OH236360   4.248   3.208   0.700  0.0386  0.4155  0.2232
 4934TIP3    H136361   4.169   3.202   0.754 -0.2522 -0.8891 -0.2884
 4934TIP3    H236362   4.303   3.137   0.732  0.5951  0.7196 -0.0575
 4935TIP3   OH236363   5.842   0.127   1.375 -0.1828 -0.3000 -0.8968
 4935TIP3    H136364   5.773   0.063   1.389 -1.5657  1.2033 -0.5410
 4935TIP3    H236365   5.923   0.077   1.386 -1.1901 -1.7371  0.5922
 4936TIP3   OH236366   2.392   3.755   1.813 -0.5209 -0.1978 -0.2424
 4936TIP3    H136367   2.461   3.800   1.764 -0.9378  1.9954  1.0750
 4936TIP3    H236368   2.311   3.800   1.787 -0.9330 -0.0233  1.2733
 4937TIP3   OH236369   4.935   0.288   7.476  0.3810 -0.0292 -0.0982
 4937TIP3    H136370   5.018   0.334   7.487  0.9599 -1.3760  1.7398
 4937TIP3    H236371   4.930   0.269   7.382  0.3068  3.2607 -0.8935
 4938TIP3   OH236372   0.804   3.835   0.282 -0.0696 -0.1016 -0.2371
 4938TIP3    H136373   0.814   3.765   0.346  0.7730 -0.3715 -0.6491
 4938TIP3    H236374   0.742   3.896   0.322  1.1337  0.2058  1.2309
 4939TIP3   OH236375   0.225   2.451   2.689  0.3470 -0.2291  0.1889
 4939TIP3    H136376   0.164   2.511   2.734 -0.7181 -0.2099 -1.2125
 4939TIP3    H236377   0.258   2.394   2.759 -2.6656 -1.4091  0.8026
 4940TIP3   OH236378   2.186   2.620   0.715  0.0089 -0.3999 -0.4866
 4940TIP3    H136379   2.198   2.604   0.808 -2.3404 -0.1343 -0.0788
 4940TIP3    H236380   2.200   2.535   0.673  0.9617 -0.5423  0.0933
 4941TIP3   OH236381   1.077   1.993   1.970  0.7046  0.2989  0.1174
 4941TIP3    H136382   1.055   1.991   1.877 -0.0452 -0.3664  0.3003
 4941TIP3    H236383   0.995   1.974   2.015  0.9287  1.1976  0.9414
 4942TIP3   OH236384   1.836   6.366   7.261 -0.4284 -0.0487  1.0201
 4942TIP3    H136385   1.823   6.460   7.256  1.0127  0.1202 -1.0341
 4942TIP3    H236386   1.751   6.328   7.240 -0.8738  0.7820  1.2823
 4943TIP3   OH236387   4.387   4.331   1.763 -0.8144  0.2806  0.2705
 4943TIP3    H136388   4.380   4.426   1.776 -0.2598  0.2956  0.4682
 4943TIP3    H236389   4.334   4.294   1.833  0.2695  0.4143  1.1849
 4944TIP3   OH236390   1.319   5.763   1.974 -0.1709  0.8984  0.2999
 4944TIP3    H136391   1.263   5.810   1.911 -1.1361  0.6446  0.9398
 4944TIP3    H236392   1.307   5.671   1.951 -1.2291  0.7380  1.3748
 4945TIP3   OH236393   4.133   1.606   8.096 -0.5846 -0.7494  0.0884
 4945TIP3    H136394   4.045   1.602   8.059 -1.7180  1.1652  2.2763
 4945TIP3    H236395   4.147   1.699   8.114  1.3945 -1.1605  0.9530
 4946TIP3   OH236396   2.204   5.902   1.916  0.2210 -0.2338 -0.7720
 4946TIP3    H136397   2.223   5.825   1.971  0.0211  1.5177  1.9472
 4946TIP3    H236398   2.109   5.902   1.907  0.1855 -0.0513 -0.3904
 4947TIP3   OH236399   0.797   6.020   2.778  0.2556  0.6798 -0.4032
 4947TIP3    H136400   0.770   5.934   2.747  0.1793  0.6495 -0.2558
 4947TIP3    H236401   0.840   6.061   2.703 -1.6117  1.3494 -1.1626
 4948TIP3   OH236402   4.649   0.449   8.411 -0.0470 -0.3075 -0.2180
 4948TIP3    H136403   4.593   0.516   8.371 -1.7793  0.2961  2.8844
 4948TIP3    H236404   4.621   0.367   8.369 -0.9182  0.3815 -1.0372
 4949TIP3   OH236405   3.250   0.243   7.962 -0.1086  0.1142 -0.4725
 4949TIP3    H136406   3.216   0.175   7.903 -0.6397 -0.6883  0.7154
 4949TIP3    H236407   3.340   0.217   7.980 -0.4476 -0.5236  0.3242
 4950TIP3   OH236408   2.783   2.038   0.484 -0.4291  0.0246  0.2694
 4950TIP3    H136409   2.804   2.107   0.547  0.0296 -0.0431  0.1945
 4950TIP3    H236410   2.866   1.993   0.469 -0.6591 -0.3405  0.0726
 4951TIP3   OH236411   1.583   2.326   1.599  0.0565 -0.0829  0.2813
 4951TIP3    H136412   1.559   2.277   1.678 -1.2007 -0.0332 -0.0406
 4951TIP3    H236413   1.516   2.395   1.593  1.8040  1.7770  0.7653
 4952TIP3   OH236414   6.036   4.998   0.416 -0.4003 -0.7689 -0.3278
 4952TIP3    H136415   6.025   4.984   0.322  2.9104 -2.5035 -0.5988
 4952TIP3    H236416   6.023   4.912   0.455 -1.2778 -0.1587  0.7673
 4953TIP3   OH236417   0.888   0.014   1.340  0.3426  0.4605  0.0490
 4953TIP3    H136418   0.866   0.098   1.382 -1.5386  0.1130 -0.1526
 4953TIP3    H236419   0.893  -0.048   1.413 -0.8127  0.2715 -0.0151
 4954TIP3   OH236420   4.061   6.652   0.751  0.3519 -0.0262  0.5183
 4954TIP3    H136421   4.004   6.631   0.825  1.2431  1.1659  1.6008
 4954TIP3    H236422   4.145   6.677   0.792  0.4825  1.9289 -0.7913
 4955TIP3   OH236423   2.937   5.817   0.784 -0.2620 -0.5439  0.3053
 4955TIP3    H136424   2.935   5.875   0.861 -1.1555  1.2106 -0.9599
 4955TIP3    H236425   2.850   5.776   0.782 -0.4604 -0.1218 -0.0704
 4956TIP3   OH236426   3.428   6.208   0.695  0.0808 -0.2871 -0.1402
 4956TIP3    H136427   3.460   6.131   0.741 -1.3568 -1.6143 -1.2603
 4956TIP3    H236428   3.413   6.179   0.605 -0.7215  1.2247 -0.5381
 4957TIP3   OH236429   5.769   5.244   8.218 -0.0636 -1.2104 -0.1637
 4957TIP3    H136430   5.771   5.157   8.259 -0.4142 -1.3918 -0.5158
 4957TIP3    H236431   5.818   5.232   8.136  1.0712 -0.7236  0.4310
 4958TIP3   OH236432   1.646   0.197   8.555  0.1756  0.3034 -0.0423
 4958TIP3    H136433   1.643   0.114   8.603 -0.8172  0.6857  0.6040
 4958TIP3    H236434   1.567   0.243   8.584  1.0125  1.7173  0.0351
 4959TIP3   OH236435   1.948   3.599   2.022 -0.1840 -0.1509  0.3364
 4959TIP3    H136436   1.888   3.674   2.031  0.7685  0.6278  0.3842
 4959TIP3    H236437   1.891   3.523   2.019 -1.1631  0.5450  0.7338
 4960TIP3   OH236438   4.911   4.972   7.606  0.0383 -0.7746  0.3124
 4960TIP3    H136439   4.875   4.929   7.683 -0.0324 -2.0914 -0.4276
 4960TIP3    H236440   4.975   4.910   7.570  0.4095  0.0034 -0.4326
 4961TIP3   OH236441   2.201   5.719   0.206  0.0019 -0.0792  0.4230
 4961TIP3    H136442   2.240   5.787   0.152  0.6580 -1.0955 -0.4247
 4961TIP3    H236443   2.265   5.648   0.206 -1.0667 -1.0874  0.4808
 4962TIP3   OH236444   4.598   0.377   0.566 -0.6230 -0.0456 -0.1660
 4962TIP3    H136445   4.511   0.339   0.579 -0.0990 -1.5026 -0.7415
 4962TIP3    H236446   4.584   0.472   0.575 -2.3346 -0.2159 -0.6582
 4963TIP3   OH236447   5.900   4.083   1.110  0.1125 -0.1068  0.0007
 4963TIP3    H136448   5.836   4.119   1.172  0.4348  0.6400 -0.0869
 4963TIP3    H236449   5.894   3.988   1.122 -0.2584  0.0000  0.7467
 4964TIP3   OH236450   2.048   3.520   8.398 -0.0644  0.7104  0.3319
 4964TIP3    H136451   2.023   3.610   8.420 -0.2228  0.2125  2.4117
 4964TIP3    H236452   2.119   3.529   8.334  1.1611  2.3884  1.8297
 4965TIP3   OH236453   1.395   5.229   7.062 -0.5501  0.0605 -0.0756
 4965TIP3    H136454   1.400   5.143   7.103 -1.1930  0.5369  1.0626
 4965TIP3    H236455   1.310   5.230   7.017 -0.9224  0.3755  0.6124
 4966TIP3   OH236456   6.548   4.192   0.850  0.6393 -0.3781  0.4410
 4966TIP3    H136457   6.586   4.280   0.846  0.6424 -0.3828  0.3615
 4966TIP3    H236458   6.462   4.205   0.890 -0.9031  0.2120 -2.7297
 4967TIP3   OH236459   4.895   4.265   0.127 -0.2053 -0.1819  0.1140
 4967TIP3    H136460   4.872   4.241   0.217  0.0104 -2.1546 -0.3153
 4967TIP3    H236461   4.987   4.291   0.132 -0.2980  0.0873  0.5076
 4968TIP3   OH236462   3.210   5.966   0.831  0.3157  0.1900  0.4794
 4968TIP3    H136463   3.157   5.901   0.785  1.3055  0.1477 -0.6599
 4968TIP3    H236464   3.178   5.964   0.921 -0.5860 -0.8980  0.1582
 4969TIP3   OH236465   4.265   1.617   7.745 -0.4922  0.3063 -0.3858
 4969TIP3    H136466   4.324   1.611   7.820 -2.1977  1.7631  1.1829
 4969TIP3    H236467   4.311   1.674   7.683  1.1785 -1.3525 -0.7584
 4970TIP3   OH236468   0.977   3.943   7.101 -0.2881 -0.4233 -0.0709
 4970TIP3    H136469   0.951   4.029   7.134  1.5523  0.1111  0.1002
 4970TIP3    H236470   0.995   3.958   7.008 -2.4436 -1.2412 -0.6831
 4971TIP3   OH236471   5.021   1.573   7.160  0.1408  0.3458 -0.4024
 4971TIP3    H136472   5.082   1.503   7.135 -0.9166 -0.2024 -1.6475
 4971TIP3    H236473   5.065   1.620   7.230  0.5315 -2.1302  1.1517
 4972TIP3   OH236474   1.801   2.270   1.790  0.3453 -0.9073  0.1114
 4972TIP3    H136475   1.777   2.362   1.773  1.7662 -0.4944  0.2246
 4972TIP3    H236476   1.751   2.247   1.869 -2.4136 -1.2518 -1.5987
 4973TIP3   OH236477   3.231   5.586   2.141  0.2334  0.2287  0.1054
 4973TIP3    H136478   3.319   5.577   2.106 -0.3533 -3.0099 -0.9381
 4973TIP3    H236479   3.242   5.627   2.227  2.7562 -0.2792  0.0828
 4974TIP3   OH236480   2.708   1.415   0.114 -0.4855  0.3369 -0.3552
 4974TIP3    H136481   2.800   1.390   0.101 -0.4307  0.0345  0.5134
 4974TIP3    H236482   2.666   1.400   0.030  0.0682 -0.4351 -0.5012
 4975TIP3   OH236483   1.331   1.523   0.231 -0.1878 -0.2505  0.4517
 4975TIP3    H136484   1.405   1.561   0.278  0.3212 -0.1002 -0.4413
 4975TIP3    H236485   1.272   1.492   0.299  1.1461 -1.2494  1.2001
 4976TIP3   OH236486   4.930   3.870   8.555  0.0028  0.1130 -0.6755
 4976TIP3    H136487   4.839   3.876   8.584  0.0558 -0.7015 -0.3150
 4976TIP3    H236488   4.929   3.904   8.466 -0.6673  0.0381 -0.7018
 4977TIP3   OH236489   1.882   2.756   0.980  0.8617  0.0285  0.3731
 4977TIP3    H136490   1.803   2.705   0.961  1.3982 -0.0182 -1.9132
 4977TIP3    H236491   1.883   2.762   1.076 -1.7740 -0.1810  0.4992
 4978TIP3   OH236492   5.925   6.209   0.695  0.1695 -0.4423  0.6502
 4978TIP3    H136493   5.960   6.166   0.772 -0.3188 -1.1382  0.4968
 4978TIP3    H236494   5.883   6.288   0.728  3.3641  1.4174  0.6594
 4979TIP3   OH236495   1.919   0.146   7.334 -0.1067 -0.0631 -0.0997
 4979TIP3    H136496   1.841   0.124   7.384  0.3559  0.3714  0.8595
 4979TIP3    H236497   1.904   0.109   7.247 -0.9470 -0.8279  0.3546
 4980TIP3   OH236498   0.917   2.281   7.138  0.0631  0.0854  0.0564
 4980TIP3    H136499   0.839   2.284   7.193 -0.5220 -3.0048 -0.4471
 4980TIP3    H236500   0.985   2.244   7.195  0.3487 -0.0286 -0.3488
 4981TIP3   OH236501   6.817   2.941   7.303  0.0621  0.4433 -0.4922
 4981TIP3    H136502   6.815   2.941   7.399  1.6939  1.8299 -0.4071
 4981TIP3    H236503   6.882   2.874   7.280 -0.2832  0.1541 -0.6353
 4982TIP3   OH236504   3.333   6.015   7.157 -0.0098 -0.0428  0.2019
 4982TIP3    H136505   3.302   6.069   7.084  1.6657 -0.3223 -0.7748
 4982TIP3    H236506   3.253   5.981   7.198 -1.0063 -0.2803 -1.8258
 4983TIP3   OH236507   4.476   2.417   0.675 -0.3482  0.0422  0.2787
 4983TIP3    H136508   4.541   2.488   0.675  1.2552 -1.3446 -1.1604
 4983TIP3    H236509   4.413   2.442   0.608  0.0281  0.2810  0.0084
 4984TIP3   OH236510   1.202   6.774   7.772  1.3102 -0.0787 -0.5096
 4984TIP3    H136511   1.263   6.732   7.833  3.5574  1.8619 -1.2503
 4984TIP3    H236512   1.181   6.706   7.708  1.1826 -1.3270  0.8078
 4985TIP3   OH236513   2.233   4.372   1.946 -0.5614 -0.3263 -0.0195
 4985TIP3    H136514   2.231   4.465   1.922 -0.8605 -0.1163  0.8022
 4985TIP3    H236515   2.170   4.364   2.017  1.3145 -0.6480  1.6986
 4986TIP3   OH236516   4.380   1.696   8.343  0.1967 -0.0576 -0.3031
 4986TIP3    H136517   4.347   1.617   8.385  1.1042  0.5085  1.6320
 4986TIP3    H236518   4.422   1.745   8.414 -1.0630  2.5851 -1.2136
 4987TIP3   OH236519   0.233   1.992   2.982 -0.4802  0.3063  0.0619
 4987TIP3    H136520   0.308   2.020   3.033  0.9203  0.0641 -1.7559
 4987TIP3    H236521   0.270   1.939   2.911 -2.3708  0.0852 -0.8431
 4988TIP3   OH236522   3.874   6.347   8.299 -0.4233 -0.0150  0.1351
 4988TIP3    H136523   3.950   6.335   8.355 -1.9162 -1.5334  1.9914
 4988TIP3    H236524   3.881   6.277   8.234 -1.9117 -2.5340  2.4598
 4989TIP3   OH236525   2.671   2.157   2.094 -0.3639 -0.0547  0.1965
 4989TIP3    H136526   2.652   2.250   2.104 -1.0409 -0.1378 -0.2476
 4989TIP3    H236527   2.626   2.115   2.167 -0.7815 -0.1175 -0.0944
 4990TIP3   OH236528   2.787   1.193   1.183  0.0277  0.0693  0.5232
 4990TIP3    H136529   2.798   1.115   1.129 -0.8286  0.7209 -0.6268
 4990TIP3    H236530   2.730   1.166   1.254  0.1131 -0.4620  0.3914
 4991TIP3   OH236531   4.117   2.414   0.627  0.3337 -0.0167  0.3414
 4991TIP3    H136532   4.050   2.475   0.655  1.3224  1.0403  0.5013
 4991TIP3    H236533   4.166   2.393   0.706  1.2881  0.6444 -0.0489
 4992TIP3   OH236534   1.559   4.424   0.652  0.1040  0.1183 -0.6565
 4992TIP3    H136535   1.488   4.469   0.698 -1.2916 -1.1975 -1.4455
 4992TIP3    H236536   1.621   4.494   0.629  0.5098  0.9333  2.4720
 4993TIP3   OH236537   6.426   5.314   6.529 -0.2216  0.1806 -0.1373
 4993TIP3    H136538   6.504   5.304   6.584 -0.1527  1.4446  0.0051
 4993TIP3    H236539   6.378   5.232   6.542  1.6291 -1.1585 -1.1274
 4994TIP3   OH236540   1.484   5.527   8.433 -0.0842 -0.2245  0.0216
 4994TIP3    H136541   1.550   5.581   8.478 -0.0278  0.0128 -0.3393
 4994TIP3    H236542   1.519   5.517   8.345 -1.9372  2.4281 -1.1276
 4995TIP3   OH236543   5.999   1.208   0.609 -0.2712 -0.6145 -0.6292
 4995TIP3    H136544   5.992   1.175   0.699 -0.3355 -0.2637 -0.5034
 4995TIP3    H236545   5.992   1.130   0.554 -1.0017 -0.7466 -0.3609
 4996TIP3   OH236546   0.787   5.641   0.169  0.4852 -0.1900 -0.1565
 4996TIP3    H136547   0.725   5.611   0.237  0.8065  0.2458  0.3357
 4996TIP3    H236548   0.745   5.616   0.087 -0.6947  0.7411  0.1382
 4997TIP3   OH236549   0.270   2.323   1.432 -0.0768 -0.0935  0.3089
 4997TIP3    H136550   0.359   2.336   1.399 -0.3882  2.5766  0.3417
 4997TIP3    H236551   0.276   2.243   1.484  1.8456 -0.9959 -1.1588
 4998TIP3   OH236552   4.384   1.710   8.055 -0.1166  0.5539  0.1748
 4998TIP3    H136553   4.424   1.707   8.142 -1.2072  1.5288  0.7362
 4998TIP3    H236554   4.299   1.668   8.066 -0.0878  0.2990 -0.5276
 4999TIP3   OH236555   6.509   5.212   8.110  0.3163  0.6456 -0.0251
 4999TIP3    H136556   6.603   5.209   8.096  0.4110  0.0213  0.7227
 4999TIP3    H236557   6.488   5.132   8.158 -0.4564  1.2217  0.6300
 5000TIP3   OH236558   0.804   0.079   0.725  0.4249 -0.0611  0.3683
 5000TIP3    H136559   0.888   0.118   0.701  0.6601 -1.3391 -1.0507
 5000TIP3    H236560   0.824  -0.013   0.743 -0.1976  0.2291  3.1012
 5001TIP3   OH236561   1.082   4.719   1.731 -0.1842 -0.6094  0.5155
 5001TIP3    H136562   1.088   4.758   1.644  0.1171 -2.3419 -0.2827
 5001TIP3    H236563   1.072   4.794   1.790 -1.7164  0.5492 -1.1041
 5002TIP3   OH236564   4.834   3.650   0.491 -0.0042  0.1191  1.0824
 5002TIP3    H136565   4.838   3.608   0.577 -3.0308  2.5985  2.6390
 5002TIP3    H236566   4.742   3.640   0.464  0.9966 -1.2366 -2.3551
 5003TIP3   OH236567   3.637   6.484   7.137 -0.0018  0.1757  0.8557
 5003TIP3    H136568   3.711   6.524   7.181  0.6250 -0.9808  0.8979
 5003TIP3    H236569   3.663   6.392   7.124  0.3484  0.6373 -2.8854
 5004TIP3   OH236570   5.841   2.058   2.562 -0.1141 -0.5380 -0.4218
 5004TIP3    H136571   5.884   1.987   2.610 -2.6303 -2.1540 -0.3397
 5004TIP3    H236572   5.869   2.047   2.472  1.9953  0.4046  0.0676
 5005TIP3   OH236573   2.827   1.596   8.487  0.6642  0.5774 -0.3863
 5005TIP3    H136574   2.852   1.545   8.410 -3.2082  0.2427 -1.6349
 5005TIP3    H236575   2.808   1.684   8.452 -2.7972 -0.0009 -0.3432
 5006TIP3   OH236576   1.586   6.169   1.398  0.2982  0.0891 -0.4225
 5006TIP3    H136577   1.656   6.118   1.439  0.4471  1.0632  0.5929
 5006TIP3    H236578   1.632   6.239   1.351  0.0322  0.3952 -0.2278
 5007TIP3   OH236579   4.381   3.243   7.547  0.2736 -0.0855  0.6264
 5007TIP3    H136580   4.427   3.159   7.548 -1.2782 -1.1322 -2.5620
 5007TIP3    H236581   4.421   3.292   7.476  0.6379  1.6240  1.9567
 5008TIP3   OH236582   6.083   2.528   0.444 -0.0707 -0.5245 -0.1213
 5008TIP3    H136583   6.028   2.452   0.429 -0.6152 -0.2329  0.3708
 5008TIP3    H236584   6.145   2.527   0.371  0.0884 -1.5673  0.0114
 5009TIP3   OH236585   1.428   2.461   7.287  0.4466 -0.0478  0.0420
 5009TIP3    H136586   1.341   2.479   7.252  1.1399 -0.5271 -2.0448
 5009TIP3    H236587   1.467   2.399   7.225  1.6514 -1.2243  1.8648
 5010TIP3   OH236588   5.985   4.392   1.592 -0.4988 -0.0018  0.7648
 5010TIP3    H136589   5.895   4.406   1.620 -0.2172 -0.5447  2.0030
 5010TIP3    H236590   6.034   4.465   1.630 -0.6715  1.3924 -1.4912
 5011TIP3   OH236591   3.596   5.620   0.011  0.5655  0.8994 -0.1399
 5011TIP3    H136592   3.602   5.705  -0.033  1.6766  0.4507 -0.9134
 5011TIP3    H236593   3.551   5.638   0.093 -2.2467  1.6752 -1.7171
 5012TIP3   OH236594   5.873   0.765   2.594  0.2716  0.0208 -0.0892
 5012TIP3    H136595   5.936   0.803   2.532  1.7136 -1.1876  0.5619
 5012TIP3    H236596   5.807   0.723   2.539  0.7459  0.1901 -0.7980
 5013TIP3   OH236597   5.598   6.187   8.107  0.4268 -0.2290  0.1226
 5013TIP3    H136598   5.617   6.254   8.041  0.4706  0.4031  0.7665
 5013TIP3    H236599   5.630   6.106   8.068  1.8821  0.3712  0.0067
 5014TIP3   OH236600   0.264   6.418   7.721  0.2114 -0.1711  0.6296
 5014TIP3    H136601   0.183   6.377   7.694 -0.9973  1.6773  1.2402
 5014TIP3    H236602   0.316   6.347   7.759 -1.3457 -1.2874  0.7623
 5015TIP3   OH236603   0.587   5.045   2.439  0.2974 -0.3708 -0.0071
 5015TIP3    H136604   0.621   4.976   2.495 -0.2237 -0.5759  0.0571
 5015TIP3    H236605   0.493   5.046   2.455  0.2913  0.3115 -0.0545
 5016TIP3   OH236606   4.891   4.886   0.487  0.4145  0.0276  0.3842
 5016TIP3    H136607   4.830   4.929   0.427  1.3705  1.4619  0.3955
 5016TIP3    H236608   4.839   4.816   0.527 -2.2700  3.0527  2.7589
 5017TIP3   OH236609   2.942   6.423   2.743  0.0880 -0.3017 -0.6767
 5017TIP3    H136610   2.998   6.353   2.777 -0.5578 -1.4909 -1.9733
 5017TIP3    H236611   2.921   6.476   2.820  0.4132 -1.6681  0.3919
 5018TIP3   OH236612   2.928   0.039   0.278 -0.5958 -0.4908  0.4407
 5018TIP3    H136613   2.923  -0.034   0.217  0.0393 -1.1412  1.1352
 5018TIP3    H236614   2.856   0.024   0.340 -0.5037 -0.5025  0.5466
 5019TIP3   OH236615   3.149   3.835   1.850  0.1165 -0.1721 -0.9124
 5019TIP3    H136616   3.240   3.818   1.826 -0.4450 -2.6049 -1.5484
 5019TIP3    H236617   3.148   3.928   1.875  2.3407  0.4232 -2.7332
 5020TIP3   OH236618   4.216   0.380   1.292  0.0095  0.0068 -0.1602
 5020TIP3    H136619   4.253   0.352   1.208 -0.0386 -0.3942 -0.0485
 5020TIP3    H236620   4.291   0.418   1.339  0.3998 -1.2434  0.2591
 5021TIP3   OH236621   1.308   6.089   1.630 -0.6692  0.1963  0.1508
 5021TIP3    H136622   1.303   6.178   1.596 -0.5493  0.2434  0.2553
 5021TIP3    H236623   1.372   6.094   1.701 -0.0484 -0.1407 -0.3807
 5022TIP3   OH236624   4.137   4.335   7.810 -0.1319 -0.2367  0.6485
 5022TIP3    H136625   4.229   4.343   7.787 -0.2307  0.0813  0.3594
 5022TIP3    H236626   4.123   4.241   7.821 -0.0333 -0.3823 -0.3924
 5023TIP3   OH236627   2.345   6.098   7.844 -0.1222  0.0560 -0.3405
 5023TIP3    H136628   2.330   6.069   7.754  0.9430  0.6046 -0.7122
 5023TIP3    H236629   2.264   6.075   7.890  0.3394 -2.7683 -0.7603
 5024TIP3   OH236630   2.919   4.968   8.305  1.1209 -0.0434 -0.8115
 5024TIP3    H136631   2.879   4.974   8.392  0.9528 -3.1650 -0.5661
 5024TIP3    H236632   3.013   4.966   8.323  1.1692  1.1561 -0.8803
 5025TIP3   OH236633   5.399   6.170   7.271 -0.7745 -0.8077  0.2035
 5025TIP3    H136634   5.494   6.174   7.275 -0.7912  0.3421 -0.1757
 5025TIP3    H236635   5.378   6.196   7.181 -1.4800  0.2858  0.6536
 5026TIP3   OH236636   6.056   5.862   0.975 -0.2509 -0.6523 -0.0939
 5026TIP3    H136637   6.130   5.826   0.927  0.2057 -0.3110  0.3401
 5026TIP3    H236638   6.091   5.880   1.063 -0.7750 -0.2503  0.0379
 5027TIP3   OH236639   6.508   1.104   2.041  0.1351  0.1649 -0.2101
 5027TIP3    H136640   6.585   1.137   2.086 -0.7185 -0.0643  1.4754
 5027TIP3    H236641   6.446   1.177   2.041  0.4895  0.5313 -2.0383
 5028TIP3   OH236642   1.970   6.786   7.122  0.4279 -0.5827  0.0684
 5028TIP3    H136643   2.054   6.824   7.098  0.3141 -0.3771  0.0001
 5028TIP3    H236644   1.906   6.857   7.110 -0.2346 -1.5171 -2.7711
 5029TIP3   OH236645   2.914   5.320   0.024 -0.1551 -0.6918  0.6404
 5029TIP3    H136646   2.974   5.351  -0.044  1.6880 -0.5001  2.2562
 5029TIP3    H236647   2.875   5.400   0.059  0.5903 -0.5859  1.2635
 5030TIP3   OH236648   1.314   1.010   0.300 -0.0773 -0.2224  0.0629
 5030TIP3    H136649   1.325   0.968   0.215  0.1135  0.5060 -0.2775
 5030TIP3    H236650   1.236   0.968   0.337  1.2062 -2.3082  0.6103
 5031TIP3   OH236651   6.757   0.261   0.361  0.4719  0.6602  0.6356
 5031TIP3    H136652   6.805   0.220   0.289 -0.2307  0.9497 -0.0109
 5031TIP3    H236653   6.680   0.205   0.373  1.0666  0.0562  1.8313
 5032TIP3   OH236654   5.468   4.695   8.552  0.2517 -0.5452 -0.7199
 5032TIP3    H136655   5.378   4.679   8.525  0.3644 -2.0561 -0.2972
 5032TIP3    H236656   5.519   4.689   8.471  0.0388 -0.1624 -0.8863
 5033TIP3   OH236657   2.392   3.200   1.801 -0.0845  0.4302 -0.1845
 5033TIP3    H136658   2.353   3.113   1.794  2.3200 -0.6088 -2.5262
 5033TIP3    H236659   2.355   3.249   1.728 -0.0797  0.7944  0.0556
 5034TIP3   OH236660   6.666   3.252   0.949 -0.3191 -0.3340  0.0545
 5034TIP3    H136661   6.749   3.290   0.923  0.2511 -2.5019 -1.6441
 5034TIP3    H236662   6.678   3.226   1.040  0.2780  0.8109  0.3113
 5035TIP3   OH236663   2.539   4.142   0.125 -0.4392 -0.1006 -0.2914
 5035TIP3    H136664   2.605   4.161   0.191 -0.2471 -0.7378 -0.2951
 5035TIP3    H236665   2.571   4.185   0.045 -1.5087  2.1363  0.4145
 5036TIP3   OH236666   5.844   4.187   7.273  0.3017  0.3297 -0.0086
 5036TIP3    H136667   5.833   4.251   7.343  0.2550 -0.7833  1.0423
 5036TIP3    H236668   5.925   4.141   7.295  1.6777  1.5969 -2.0730
 5037TIP3   OH236669   2.483   0.312   0.357 -0.2573 -0.2921  0.2501
 5037TIP3    H136670   2.499   0.248   0.287  0.3279 -0.5697  0.6269
 5037TIP3    H236671   2.517   0.394   0.322  1.9285 -0.8289  0.9542
 5038TIP3   OH236672   2.786   3.620   1.577  0.1650  0.5420 -0.5614
 5038TIP3    H136673   2.758   3.579   1.495 -0.4327  1.2023 -0.7016
 5038TIP3    H236674   2.715   3.601   1.639  0.0066  1.1206 -0.5568
 5039TIP3   OH236675   4.986   5.510   0.115  0.6802  0.2010 -0.2127
 5039TIP3    H136676   4.950   5.591   0.149  1.4337  0.2645  0.4624
 5039TIP3    H236677   5.067   5.535   0.072 -0.7829  0.2951 -3.1623
 5040TIP3   OH236678   2.314   2.964   0.116 -0.1590 -0.1586  0.1749
 5040TIP3    H136679   2.264   2.920   0.185  1.0449  0.6476  1.6067
 5040TIP3    H236680   2.399   2.981   0.155  0.5659  0.3345 -1.5278
 5041TIP3   OH236681   1.411   6.034   1.267 -0.0737  0.8217 -0.9952
 5041TIP3    H136682   1.486   6.081   1.302 -0.0883  0.2991 -0.2515
 5041TIP3    H236683   1.339   6.056   1.326  0.2158 -1.1854  0.1806
 5042TIP3   OH236684   2.810   3.414   2.234  0.3740  0.2468  0.1661
 5042TIP3    H136685   2.887   3.451   2.276  0.0349  0.6764  0.4275
 5042TIP3    H236686   2.755   3.385   2.307 -0.2104  0.9794  0.0336
 5043TIP3   OH236687   0.912   4.465   1.622  0.0022 -0.7931 -0.2118
 5043TIP3    H136688   0.968   4.475   1.545  0.7482 -1.6781  0.1970
 5043TIP3    H236689   0.824   4.456   1.585  0.1699  0.1828 -0.8844
 5044TIP3   OH236690   4.429   0.518   1.366 -0.7114 -1.0340 -0.1414
 5044TIP3    H136691   4.499   0.516   1.300 -0.1228 -0.5923  0.4609
 5044TIP3    H236692   4.447   0.596   1.418 -1.2893 -1.2679  0.4207
 5045TIP3   OH236693   2.699   4.422   1.793  0.5537  0.8826 -0.3939
 5045TIP3    H136694   2.711   4.381   1.879  1.7610  0.4792 -0.7309
 5045TIP3    H236695   2.619   4.472   1.801 -0.4782 -0.7959  0.3423
 5046TIP3   OH236696   5.673   0.017   0.316 -0.7135  0.3387  0.6981
 5046TIP3    H136697   5.766   0.039   0.325 -0.5378 -0.9514  2.5769
 5046TIP3    H236698   5.627   0.098   0.334  0.0310  0.7176  0.9464
 5047TIP3   OH236699   3.486   5.830   8.467  0.0843  0.2738 -0.1935
 5047TIP3    H136700   3.506   5.907   8.521 -0.1311 -0.3997  0.8694
 5047TIP3    H236701   3.396   5.808   8.489  1.3483 -2.7453  2.7468
 5048TIP3   OH236702   3.505   2.948   0.331  1.1363  0.2727  0.1522
 5048TIP3    H136703   3.491   3.009   0.403  1.8786 -0.2611  0.7740
 5048TIP3    H236704   3.432   2.885   0.339  1.4003  0.0186  0.6652
 5049TIP3   OH236705   6.267   6.340   0.153  0.3293  0.3601  0.0429
 5049TIP3    H136706   6.190   6.397   0.153 -0.2119 -0.3415 -0.6312
 5049TIP3    H236707   6.236   6.257   0.188  0.5899 -0.1607 -0.9246
 5050TIP3   OH236708   1.370   4.958   3.090 -0.0278  0.0988  0.4343
 5050TIP3    H136709   1.451   4.913   3.066 -0.2444 -0.2065  0.2663
 5050TIP3    H236710   1.301   4.910   3.044 -0.6534 -1.4209  2.7574
 5051TIP3   OH236711   3.229   5.369   1.210 -0.3332 -0.0095  0.2764
 5051TIP3    H136712   3.180   5.289   1.191 -0.2693  0.2611 -1.1471
 5051TIP3    H236713   3.171   5.440   1.181  0.5958  0.3397 -0.8040
 5052TIP3   OH236714   5.669   2.754   0.477 -0.2144 -0.0654 -0.2662
 5052TIP3    H136715   5.642   2.790   0.393  1.3934  0.6371 -0.5147
 5052TIP3    H236716   5.718   2.675   0.456  3.0775  1.8257 -0.3180
 5053TIP3   OH236717   0.892   3.631   0.451  0.1289  0.2392  0.3575
 5053TIP3    H136718   0.832   3.568   0.490 -2.2362  1.6641 -0.7726
 5053TIP3    H236719   0.926   3.586   0.374 -2.1309  0.4860 -0.8745
 5054TIP3   OH236720   2.549   6.165   8.033  0.1336  0.0270  0.1278
 5054TIP3    H136721   2.476   6.147   7.975  0.2392  1.1591 -0.3692
 5054TIP3    H236722   2.622   6.185   7.975  0.8760 -1.1307  0.6116
 5055TIP3   OH236723   0.654   0.863   1.119  0.0877  0.2836 -0.0030
 5055TIP3    H136724   0.597   0.922   1.070  1.7393  1.0553 -1.0931
 5055TIP3    H236725   0.602   0.783   1.130 -1.3185  1.0666 -0.6328
 5056TIP3   OH236726   6.395   4.461   3.043 -0.4982 -0.1153 -0.0537
 5056TIP3    H136727   6.467   4.399   3.052  0.7245  0.8133 -2.4816
 5056TIP3    H236728   6.427   4.541   3.085 -0.6649 -0.1072  0.0569
 5057TIP3   OH236729   1.324   6.210   2.521 -0.3160 -0.4470  0.1013
 5057TIP3    H136730   1.336   6.154   2.597  0.9216  0.5931  0.7228
 5057TIP3    H236731   1.260   6.275   2.548  0.7623  0.4413  0.5907
 5058TIP3   OH236732   5.109   1.830   7.775 -0.6780 -0.2394  0.6298
 5058TIP3    H136733   5.064   1.879   7.706 -1.0649  0.7242  1.5525
 5058TIP3    H236734   5.197   1.867   7.777 -1.0156  0.5487  1.4298
 5059TIP3   OH236735   2.335   3.871   8.237  0.1610 -0.0423  0.0951
 5059TIP3    H136736   2.247   3.839   8.217 -0.7650  2.5560 -0.4824
 5059TIP3    H236737   2.353   3.841   8.325 -1.3920 -0.5184  0.2749
 5060TIP3   OH236738   3.210   2.878   3.023  0.2826  0.3168 -0.0262
 5060TIP3    H136739   3.173   2.925   3.097 -1.4980  0.2701 -0.8427
 5060TIP3    H236740   3.229   2.946   2.958 -1.5485  0.0680 -0.8945
 5061TIP3   OH236741   3.730   6.242   7.127 -0.1012  0.7935  0.1641
 5061TIP3    H136742   3.821   6.222   7.151 -0.5170 -0.8347  0.4983
 5061TIP3    H236743   3.678   6.178   7.176 -1.2815  0.1949 -1.7704
 5062TIP3   OH236744   2.968   0.346   0.987 -0.4185  0.7820  0.3878
 5062TIP3    H136745   2.900   0.279   0.996  0.4179 -0.1729 -0.2718
 5062TIP3    H236746   2.960   0.375   0.896 -1.4244  2.3275  0.9201
 5063TIP3   OH236747   0.958   1.468   7.630  0.5567  0.2836  0.2576
 5063TIP3    H136748   1.015   1.392   7.619 -0.1562 -0.8152  3.2145
 5063TIP3    H236749   0.891   1.457   7.563  1.6464 -0.5259 -0.7362
 5064TIP3   OH236750   6.871   6.545   0.923 -0.4687 -0.4081 -0.1239
 5064TIP3    H136751   6.825   6.527   1.006 -0.0846 -0.5110  0.0667
 5064TIP3    H236752   6.946   6.487   0.924  0.9883  1.3875  0.6581
 5065TIP3   OH236753   1.164   2.518   7.254  0.4743  0.2080  0.0618
 5065TIP3    H136754   1.122   2.511   7.168 -2.4977 -0.2410  1.4400
 5065TIP3    H236755   1.094   2.544   7.313  2.6333  1.5204  2.2517
 5066TIP3   OH236756   6.504   4.334   1.324 -0.1209 -0.5455  0.4135
 5066TIP3    H136757   6.492   4.361   1.233  1.3517 -0.5453  0.1949
 5066TIP3    H236758   6.442   4.262   1.336 -1.4621  0.4667 -0.0909
 5067TIP3   OH236759   1.206   2.727   1.638 -0.6553 -0.3607  0.5548
 5067TIP3    H136760   1.117   2.731   1.674 -0.8085  0.3435  0.1145
 5067TIP3    H236761   1.258   2.779   1.699 -0.8669  0.6173 -0.0752
 5068TIP3   OH236762   2.187   2.375   0.566 -0.2559  0.3028 -0.0657
 5068TIP3    H136763   2.191   2.329   0.482  1.5028 -0.9661  0.6344
 5068TIP3    H236764   2.128   2.322   0.619 -2.5353  1.9074 -0.8929
 5069TIP3   OH236765   6.041   4.340   6.591 -0.2864 -0.3399  0.4700
 5069TIP3    H136766   6.122   4.311   6.549 -1.9150 -0.7787 -2.6314
 5069TIP3    H236767   6.014   4.265   6.644  0.5793 -0.7162  0.3997
 5070TIP3   OH236768   6.855   1.887   2.942  0.3829 -0.6154  0.4113
 5070TIP3    H136769   6.790   1.949   2.975  0.2330 -0.4921 -0.1068
 5070TIP3    H236770   6.938   1.932   2.951  0.1193  0.3187 -1.4530
 5071TIP3   OH236771   2.454   5.029   7.181  0.0311  0.2063 -0.4671
 5071TIP3    H136772   2.394   5.091   7.223 -0.5758 -0.5699 -0.1560
 5071TIP3    H236773   2.400   4.952   7.162  0.4951  0.2101 -1.9219
 5072TIP3   OH236774   4.858   3.555   1.162 -0.0050 -0.3165  0.3644
 5072TIP3    H136775   4.947   3.590   1.164  0.2287 -0.6740 -1.6578
 5072TIP3    H236776   4.807   3.622   1.116 -0.7953 -0.1551  1.4247
 5073TIP3   OH236777   3.076   2.060   0.729 -0.4454 -0.0876 -0.4116
 5073TIP3    H136778   3.082   2.136   0.671 -1.3206  0.4381  0.1572
 5073TIP3    H236779   3.085   2.097   0.817  1.6536 -0.9629 -0.1884
 5074TIP3   OH236780   6.184   1.925   0.075 -0.4742  0.0233  0.0569
 5074TIP3    H136781   6.228   1.937   0.159 -0.9102 -0.9710  0.4444
 5074TIP3    H236782   6.227   1.987   0.016  1.7245 -1.1603  0.3021
 5075TIP3   OH236783   6.276   6.565   1.538 -0.2987  0.2148  0.3788
 5075TIP3    H136784   6.245   6.647   1.579 -1.6314 -0.4439  0.7589
 5075TIP3    H236785   6.264   6.579   1.444  0.1182  0.6971  0.3918
 5076TIP3   OH236786   2.118   1.784   7.991  0.2663  0.0712 -0.3752
 5076TIP3    H136787   2.046   1.737   8.033 -0.3712  0.2202 -1.2803
 5076TIP3    H236788   2.091   1.876   7.993  0.3538  0.1086 -0.8837
 5077TIP3   OH236789   3.034   5.498   8.472  0.3557  0.1331  0.1149
 5077TIP3    H136790   3.061   5.418   8.428 -0.6059 -0.8756  1.2940
 5077TIP3    H236791   2.944   5.513   8.441  0.6993  1.0560 -0.4844
 5078TIP3   OH236792   0.204   1.799   7.364 -0.3202  0.0040 -0.2064
 5078TIP3    H136793   0.278   1.858   7.351  1.1111 -1.9220 -1.3489
 5078TIP3    H236794   0.134   1.835   7.310  0.2737  1.0450 -0.2999
 5079TIP3   OH236795   5.982   6.460   1.654 -0.0943 -0.0072  0.3539
 5079TIP3    H136796   5.910   6.405   1.685 -0.3764 -0.0227 -0.3181
 5079TIP3    H236797   6.061   6.420   1.692 -0.3776 -0.3802  0.5508
 5080TIP3   OH236798   2.596   1.790   1.634 -0.0243 -0.5118  1.0901
 5080TIP3    H136799   2.571   1.789   1.541 -1.1572  0.0276  1.3784
 5080TIP3    H236800   2.564   1.706   1.668 -0.1659 -0.4416  1.1312
 5081TIP3   OH236801   4.503   3.739   1.170  0.4210 -0.0088  0.3068
 5081TIP3    H136802   4.502   3.770   1.261 -2.7886 -1.4553  0.8816
 5081TIP3    H236803   4.457   3.655   1.172  0.3935 -0.1707 -2.6313
 5082TIP3   OH236804   3.233   0.310   0.667 -0.2512  0.2302 -0.4745
 5082TIP3    H136805   3.297   0.275   0.604 -0.3058 -1.7031  0.4778
 5082TIP3    H236806   3.284   0.370   0.721  0.8314 -1.2817  0.2668
 5083TIP3   OH236807   5.047   1.774   2.830  0.0067  0.2137  0.1130
 5083TIP3    H136808   4.959   1.811   2.823 -0.2979 -0.7246 -1.2006
 5083TIP3    H236809   5.034   1.691   2.877  0.5967  1.3285  2.4114
 5084TIP3   OH236810   0.793   0.937   0.647  0.0430 -0.2896  0.1020
 5084TIP3    H136811   0.729   0.988   0.598  0.1125 -1.7925 -1.6654
 5084TIP3    H236812   0.759   0.848   0.645  0.1960 -0.4652  2.6430
 5085TIP3   OH236813   3.817   2.478   8.062  0.6880  0.0040  0.6229
 5085TIP3    H136814   3.827   2.452   8.154 -0.5051 -0.7781  0.5484
 5085TIP3    H236815   3.727   2.455   8.040  0.8976  0.3695 -0.6894
 5086TIP3   OH236816   1.910   2.830   2.465 -0.3922 -0.0918 -0.0158
 5086TIP3    H136817   1.926   2.904   2.407 -0.4485 -1.4922 -1.8928
 5086TIP3    H236818   1.991   2.821   2.516  0.1790  0.3128 -0.8396
 5087TIP3   OH236819   1.175   2.861   0.871 -0.5876 -0.6615 -0.1071
 5087TIP3    H136820   1.207   2.942   0.912  2.2281 -0.7617 -1.7847
 5087TIP3    H236821   1.100   2.889   0.818  0.5246  0.9896 -0.9189
 5088TIP3   OH236822   3.127   1.315   2.641 -0.1903  0.1405  0.0233
 5088TIP3    H136823   3.062   1.380   2.617 -0.9191 -0.0712  1.3598
 5088TIP3    H236824   3.106   1.239   2.585  0.4729  0.9066 -1.3105
 5089TIP3   OH236825   2.753   0.520   7.880  0.8067  0.2007  0.1325
 5089TIP3    H136826   2.822   0.462   7.909 -0.0333 -0.6706  0.4447
 5089TIP3    H236827   2.798   0.592   7.837  2.0309  0.7468  2.1997
 5090TIP3   OH236828   4.212   0.082   1.552  0.6230 -0.0613 -0.2612
 5090TIP3    H136829   4.249   0.170   1.565 -0.6161  0.3807  0.5253
 5090TIP3    H236830   4.277   0.023   1.591  1.8267  0.4178 -1.4717
 5091TIP3   OH236831   5.201   3.999   1.161 -1.0654 -0.2593 -0.6670
 5091TIP3    H136832   5.284   3.952   1.170 -1.7161 -1.2185  0.6302
 5091TIP3    H236833   5.222   4.075   1.108  0.5170 -0.8048 -0.8662
 5092TIP3   OH236834   1.880   0.143   8.405 -0.1664  0.4163  0.1251
 5092TIP3    H136835   1.944   0.167   8.471 -0.0132  1.3776 -0.3515
 5092TIP3    H236836   1.797   0.175   8.439 -0.5604 -1.5313  1.1133
 5093TIP3   OH236837   2.421   3.409   8.099  0.5130 -0.8301 -0.2251
 5093TIP3    H136838   2.383   3.481   8.049 -1.9657 -2.5465 -1.0105
 5093TIP3    H236839   2.433   3.444   8.187  3.2852  1.7128 -1.4312
 5094TIP3   OH236840   1.500   0.192   0.944 -0.3027 -0.0535  0.2076
 5094TIP3    H136841   1.457   0.107   0.932 -0.2094 -0.0687 -0.0207
 5094TIP3    H236842   1.593   0.172   0.947 -0.1484  0.2195 -1.6378
 5095TIP3   OH236843   0.099   1.771   0.532  0.3401 -0.6110  0.2264
 5095TIP3    H136844   0.061   1.837   0.474 -1.8985 -0.1693  2.0619
 5095TIP3    H236845   0.077   1.800   0.620  3.7543 -1.1842  1.4137
 5096TIP3   OH236846   5.071   4.023   7.348  0.1284 -0.0650 -0.9035
 5096TIP3    H136847   5.084   3.930   7.367 -0.3734 -0.0460 -0.4340
 5096TIP3    H236848   5.055   4.027   7.254 -0.0576 -0.4810 -0.8911
 5097TIP3   OH236849   3.106   6.360   7.089 -0.6399 -0.6652  0.5273
 5097TIP3    H136850   3.097   6.289   7.026  0.1288 -0.8585  0.6219
 5097TIP3    H236851   3.164   6.325   7.156  2.1961  0.9860 -0.8674
 5098TIP3   OH236852   5.401   3.269   2.259 -0.2063 -0.7072 -0.4542
 5098TIP3    H136853   5.315   3.278   2.217  0.2627 -0.1430 -1.3341
 5098TIP3    H236854   5.403   3.340   2.323  0.2171  0.3439 -1.5764
 5099TIP3   OH236855   6.567   0.310   7.582  0.1275  0.2606  0.6023
 5099TIP3    H136856   6.610   0.355   7.655 -1.1555  0.0446  1.5261
 5099TIP3    H236857   6.638   0.290   7.521  1.3911 -0.3875  2.2141
 5100TIP3   OH236858   5.884   4.632   8.509  0.0855 -0.2508 -0.2969
 5100TIP3    H136859   5.936   4.552   8.505 -0.7836 -1.0751  2.4126
 5100TIP3    H236860   5.946   4.700   8.536 -0.0748 -1.2735  3.1684
 5101TIP3   OH236861   3.664   6.741   1.181  0.0216 -0.1495  0.4540
 5101TIP3    H136862   3.691   6.832   1.175 -3.1140  0.8642  0.0965
 5101TIP3    H236863   3.695   6.702   1.099 -0.5605  1.1860 -0.4308
 5102TIP3   OH236864   6.076   1.501   0.486  0.1977 -0.2378 -0.0823
 5102TIP3    H136865   6.103   1.451   0.410 -0.4139 -1.6546  0.5924
 5102TIP3    H236866   6.121   1.585   0.477  1.4907 -1.0031 -1.1071
 5103TIP3   OH236867   0.239   0.631   1.948  0.3176 -0.2819 -0.9046
 5103TIP3    H136868   0.209   0.720   1.969 -0.1377 -0.5264 -0.5078
 5103TIP3    H236869   0.191   0.608   1.869  0.5137 -0.1366 -1.0671
 5104TIP3   OH236870   1.596   5.522   0.452 -0.0794 -0.4291 -0.3974
 5104TIP3    H136871   1.593   5.470   0.371  0.8991 -0.4984 -0.4005
 5104TIP3    H236872   1.639   5.603   0.426 -0.1441 -0.2792 -0.0360
 5105TIP3   OH236873   2.478   1.464   8.212  0.0589  0.2803 -0.0979
 5105TIP3    H136874   2.441   1.536   8.263 -0.8954  0.9083 -1.6121
 5105TIP3    H236875   2.569   1.459   8.241  0.2310  2.2899 -0.1386
 5106TIP3   OH236876   0.088   1.311   2.680  0.6202 -0.9557  0.4556
 5106TIP3    H136877   0.073   1.216   2.684  0.9710 -1.0191  0.3541
 5106TIP3    H236878   0.181   1.319   2.659  0.6370 -0.5841  0.6760
 5107TIP3   OH236879   1.007   5.581   1.073  0.3144 -0.0011  0.0302
 5107TIP3    H136880   1.037   5.663   1.034 -0.3672 -0.0375 -0.5968
 5107TIP3    H236881   1.083   5.524   1.071  0.3440  0.0547 -1.1113
 5108TIP3   OH236882   6.459   2.960   6.715  0.2990 -0.2150  0.0376
 5108TIP3    H136883   6.430   2.960   6.806  0.5761 -0.1781  0.1276
 5108TIP3    H236884   6.545   3.002   6.718  0.0882  0.2589 -0.3108
 5109TIP3   OH236885   3.411   4.012   7.384 -0.3719  0.5368 -0.5230
 5109TIP3    H136886   3.502   4.002   7.353 -0.7249  0.0236 -1.4414
 5109TIP3    H236887   3.381   3.922   7.398 -0.5466  0.7294  0.3769
 5110TIP3   OH236888   0.865   5.153   1.044  0.2715  0.0475  0.0941
 5110TIP3    H136889   0.897   5.107   1.122 -0.0030  1.9725  1.3943
 5110TIP3    H236890   0.856   5.084   0.979  1.7863 -1.4269  1.3369
 5111TIP3   OH236891   3.598   5.253   1.312  0.4053  0.0620  0.9923
 5111TIP3    H136892   3.677   5.301   1.334  0.9861 -0.1571 -0.5257
 5111TIP3    H236893   3.555   5.237   1.396  2.2305 -0.2875  1.9002
 5112TIP3   OH236894   3.843   6.823   0.969  0.6519 -0.0833 -0.4004
 5112TIP3    H136895   3.813   6.740   0.932  0.7959  0.4569 -1.8160
 5112TIP3    H236896   3.912   6.798   1.031  0.2643 -1.0541 -0.3381
 5113TIP3   OH236897   2.824   1.798   7.611 -0.3765 -0.2397  0.2220
 5113TIP3    H136898   2.780   1.868   7.658 -1.9957 -0.5344 -0.7802
 5113TIP3    H236899   2.795   1.807   7.520  0.9916 -0.9769 -0.3321
 5114TIP3   OH236900   4.002   4.523   0.088 -0.0839 -0.1205  0.1476
 5114TIP3    H136901   3.960   4.558   0.167 -1.7963  1.5789 -1.3856
 5114TIP3    H236902   3.967   4.434   0.080 -0.0694 -0.2328  1.1610
 5115TIP3   OH236903   1.690   2.029   7.276 -0.1977  0.1416  0.2624
 5115TIP3    H136904   1.783   2.006   7.277  0.5570  2.8863  1.2651
 5115TIP3    H236905   1.654   1.987   7.353  0.6405  0.5121  0.8744
 5116TIP3   OH236906   0.407   6.069   2.247  0.1511  0.1470 -0.0450
 5116TIP3    H136907   0.391   6.131   2.176 -0.2598  1.4826  1.1730
 5116TIP3    H236908   0.445   6.122   2.317  0.4759 -1.1240  0.7731
 5117TIP3   OH236909   5.006   0.181   6.745  0.2470  0.1684  0.3619
 5117TIP3    H136910   5.072   0.150   6.683  1.0468  1.0121  0.7617
 5117TIP3    H236911   4.967   0.258   6.703  0.0854  0.1436  0.4644
 5118TIP3   OH236912   0.260   4.113   0.319 -0.1530  0.1041 -0.5708
 5118TIP3    H136913   0.198   4.182   0.294 -0.5038 -0.2186 -0.6051
 5118TIP3    H236914   0.341   4.135   0.273  0.8041  2.3119  1.8646
 5119TIP3   OH236915   5.126   5.805   2.036  0.4003 -0.2592  0.1753
 5119TIP3    H136916   5.050   5.809   2.095  0.9157  1.7081  0.7881
 5119TIP3    H236917   5.183   5.875   2.066  1.9984 -1.0209 -0.9450
 5120TIP3   OH236918   0.057   6.608   7.821 -0.1531  0.3094 -0.1117
 5120TIP3    H136919   0.103   6.531   7.790 -0.9028  0.2131 -1.0151
 5120TIP3    H236920   0.060   6.670   7.748  0.4663  1.1607  0.6069
 5121TIP3   OH236921   0.461   3.209   2.030 -0.2244 -0.8058  0.7842
 5121TIP3    H136922   0.379   3.178   2.067 -0.6395  0.1825  0.7109
 5121TIP3    H236923   0.506   3.253   2.103 -0.4036 -0.1106  0.4840
 5122TIP3   OH236924   2.625   3.797   7.510  0.2624  0.4866 -0.7655
 5122TIP3    H136925   2.633   3.777   7.603  2.6383  0.1369 -0.9860
 5122TIP3    H236926   2.572   3.726   7.475 -0.8742  0.7608  0.3430
 5123TIP3   OH236927   5.196   3.414   0.967 -0.1785 -0.4902 -0.1321
 5123TIP3    H136928   5.116   3.374   0.934 -0.7101  1.0039 -0.7307
 5123TIP3    H236929   5.255   3.416   0.891  0.4200 -1.5112  0.2852
 5124TIP3   OH236930   1.366   1.027   1.960 -0.3407 -0.1533 -0.0542
 5124TIP3    H136931   1.374   1.095   1.893  4.0165 -1.8950 -1.6472
 5124TIP3    H236932   1.339   0.949   1.912 -3.1536 -0.2172  1.4050
 5125TIP3   OH236933   3.250   1.375   8.618  0.0667 -0.1413 -0.1831
 5125TIP3    H136934   3.221   1.439   8.683 -0.4732  1.7372 -2.1543
 5125TIP3    H236935   3.329   1.413   8.580  0.6278 -1.4212 -0.3547
 5126TIP3   OH236936   3.903   6.692   8.038  0.5118 -0.0461  0.2692
 5126TIP3    H136937   3.972   6.725   7.980  1.9309 -1.1437  1.2358
 5126TIP3    H236938   3.836   6.657   7.979  1.7520 -0.8225 -0.7378
 5127TIP3   OH236939   1.244   4.804   8.427 -0.3060  0.0723  0.0246
 5127TIP3    H136940   1.177   4.749   8.386  1.3671 -1.7787 -0.3862
 5127TIP3    H236941   1.194   4.869   8.476 -2.3932 -0.1901 -1.5724
 5128TIP3   OH236942   2.878   3.874   0.698  0.1065 -0.0052 -0.1531
 5128TIP3    H136943   2.881   3.824   0.780  1.8486 -0.3553 -0.4042
 5128TIP3    H236944   2.872   3.966   0.726  1.6858 -0.0440  0.4275
 5129TIP3   OH236945   1.535   3.501   2.121  0.2555 -0.0997 -0.1143
 5129TIP3    H136946   1.622   3.460   2.117  1.0186  1.4799 -1.0563
 5129TIP3    H236947   1.544   3.568   2.189 -0.7977 -1.0576  1.0160
 5130TIP3   OH236948   6.351   4.238   2.514 -0.5006 -0.0676  0.4689
 5130TIP3    H136949   6.435   4.199   2.489  0.1077  0.9149  0.9244
 5130TIP3    H236950   6.286   4.181   2.474  0.3951  0.6605 -2.2895
 5131TIP3   OH236951   2.968   5.494   7.662 -0.5873  0.2793 -0.3406
 5131TIP3    H136952   3.000   5.487   7.572 -0.4235  1.7704 -0.4270
 5131TIP3    H236953   2.891   5.549   7.656 -0.9406 -0.1162  0.3654
 5132TIP3   OH236954   2.560   3.682   0.178 -0.2063 -0.2260  0.5722
 5132TIP3    H136955   2.475   3.719   0.205 -0.5140 -0.8543  0.4712
 5132TIP3    H236956   2.557   3.591   0.209 -0.7893 -1.1597 -2.0145
 5133TIP3   OH236957   5.988   4.934   0.176  0.2179 -0.3324  0.3601
 5133TIP3    H136958   6.048   4.899   0.110 -0.1083  0.6314 -0.4745
 5133TIP3    H236959   5.904   4.893   0.157  0.1326 -0.0850  0.1963
 5134TIP3   OH236960   4.712   2.089   2.485 -0.6461  0.4183 -0.0546
 5134TIP3    H136961   4.767   2.118   2.412  1.4957  1.1798  1.7679
 5134TIP3    H236962   4.632   2.141   2.477 -0.3335  0.7009 -1.6716
 5135TIP3   OH236963   2.922   4.627   8.294  0.0657  0.1088  0.1252
 5135TIP3    H136964   2.976   4.642   8.372 -0.1102  1.2806  0.0309
 5135TIP3    H236965   2.950   4.694   8.232 -2.5463  1.7811  0.6112
 5136TIP3   OH236966   1.582   3.498   0.025  0.2871  0.1951 -0.2311
 5136TIP3    H136967   1.555   3.439  -0.046 -0.0526 -1.8752  1.5035
 5136TIP3    H236968   1.532   3.578   0.010 -2.2946 -1.3594 -0.5593
 5137TIP3   OH236969   2.194   0.753   1.459  0.4333 -0.2487 -0.3055
 5137TIP3    H136970   2.239   0.736   1.377 -0.2697 -0.8948 -0.5673
 5137TIP3    H236971   2.203   0.671   1.509  0.3537 -0.0606  0.0231
 5138TIP3   OH236972   0.875   3.657   8.489  0.1353  0.0087 -0.2163
 5138TIP3    H136973   0.844   3.731   8.541 -0.2900 -0.3367  0.0346
 5138TIP3    H236974   0.910   3.595   8.553 -1.1867 -0.8008 -0.2261
 5139TIP3   OH236975   2.043   5.919   7.358  0.1428 -0.0757  0.2355
 5139TIP3    H136976   2.077   5.832   7.377 -0.1927 -0.5323 -1.1597
 5139TIP3    H236977   1.973   5.932   7.421 -1.2636 -1.7360 -0.9003
 5140TIP3   OH236978   3.553   6.478   2.022 -0.1303  0.3571  0.2463
 5140TIP3    H136979   3.563   6.572   2.035 -0.0534  0.1635  1.7893
 5140TIP3    H236980   3.613   6.438   2.086  1.1138 -0.7467 -1.5188
 5141TIP3   OH236981   3.422   4.581   2.019 -0.6490  0.0470 -0.3963
 5141TIP3    H136982   3.500   4.592   1.964 -0.7697  1.7350 -0.2852
 5141TIP3    H236983   3.349   4.576   1.956 -0.5220 -0.7776 -0.4767
 5142TIP3   OH236984   1.574   2.627   7.447 -0.0427 -0.5107  0.1889
 5142TIP3    H136985   1.668   2.614   7.440  0.3058  1.9986 -0.9517
 5142TIP3    H236986   1.536   2.568   7.382  0.9406 -0.0194 -0.8584
 5143TIP3   OH236987   5.835   4.269   0.055 -0.4163  0.7570 -0.4600
 5143TIP3    H136988   5.856   4.323  -0.022 -0.4698 -0.3982 -1.3211
 5143TIP3    H236989   5.740   4.271   0.060 -0.3662  2.5374  0.8857
 5144TIP3   OH236990   4.982   4.177   2.512 -0.4885 -0.0493  0.3664
 5144TIP3    H136991   5.075   4.158   2.526 -0.6874 -1.0999  0.3749
 5144TIP3    H236992   4.947   4.097   2.472 -1.4526  0.2202  0.6365
 5145TIP3   OH236993   2.135   3.046   1.421 -0.0850  0.5005  0.8283
 5145TIP3    H136994   2.091   2.964   1.442  0.8707 -0.1020  0.5287
 5145TIP3    H236995   2.218   3.042   1.468  0.5270  0.7237 -0.2075
 5146TIP3   OH236996   1.197   3.046   2.167 -0.2620 -0.0079 -0.7552
 5146TIP3    H136997   1.156   3.051   2.254  0.9387 -1.3428 -0.0703
 5146TIP3    H236998   1.246   3.128   2.160 -0.4200  0.1430 -0.1893
 5147TIP3   OH236999   3.840   1.746   2.208  0.4589  0.5479 -0.4751
 5147TIP3    H137000   3.884   1.805   2.268 -0.8545  1.4778 -0.3917
 5147TIP3    H237001   3.803   1.803   2.140  0.2512 -0.2911 -1.0833
 5148TIP3   OH237002   6.833   4.268   1.968 -0.4792 -0.4748  0.5713
 5148TIP3    H137003   6.832   4.226   1.882  0.7767 -1.0375  0.8165
 5148TIP3    H237004   6.903   4.332   1.963  0.4539 -1.3843  1.5647
 5149TIP3   OH237005   3.210   6.790   7.287  0.1847 -0.1312 -0.5751
 5149TIP3    H137006   3.241   6.701   7.268  3.2437  0.2261  1.7940
 5149TIP3    H237007   3.132   6.777   7.340 -0.3532 -1.3178 -1.5904
 5150TIP3   OH237008   4.212   5.477   1.229  0.1392  0.3225 -0.4030
 5150TIP3    H137009   4.175   5.565   1.224  0.3029  0.3975 -0.3043
 5150TIP3    H237010   4.136   5.419   1.228  0.0380  0.4586 -0.6105
 5151TIP3   OH237011   3.116   1.085   0.134 -0.7439  0.1142  0.7163
 5151TIP3    H137012   3.210   1.068   0.122 -0.9498 -0.3675 -0.2824
 5151TIP3    H237013   3.086   1.016   0.193 -0.9355 -1.1942 -0.8423
 5152TIP3   OH237014   5.291   0.768   0.955 -0.1638 -0.0259  0.1299
 5152TIP3    H137015   5.218   0.709   0.935  0.3480 -0.2834 -1.0453
 5152TIP3    H237016   5.353   0.713   1.005 -0.8159  0.2343  1.2612
 5153TIP3   OH237017   5.036   3.800   1.176 -0.1959 -0.0854 -0.6689
 5153TIP3    H137018   5.015   3.794   1.083 -0.0957 -0.8994 -0.6465
 5153TIP3    H237019   5.117   3.850   1.180 -1.7246  2.5818 -0.8082
 5154TIP3   OH237020   5.899   1.673   2.634 -0.2141 -0.0847  0.3495
 5154TIP3    H137021   5.965   1.607   2.611 -1.5099 -0.3584 -3.2372
 5154TIP3    H237022   5.946   1.756   2.627 -0.1339 -0.2691 -2.3016
 5155TIP3   OH237023   6.093   3.365   6.542 -0.3631  0.2675  0.4490
 5155TIP3    H137024   6.076   3.405   6.627  0.5477 -0.8232  1.1793
 5155TIP3    H237025   6.188   3.355   6.539 -0.2249  1.5519 -1.3105
 5156TIP3   OH237026   3.348   0.531   1.150  0.4298 -0.1457  0.3035
 5156TIP3    H137027   3.314   0.607   1.197  0.3033 -0.9271  1.5054
 5156TIP3    H237028   3.433   0.559   1.117 -0.4576  1.1733 -1.0232
 5157TIP3   OH237029   5.954   3.634   1.299 -0.4400 -0.4614  0.5255
 5157TIP3    H137030   5.879   3.693   1.309 -0.6297 -0.5581 -0.2358
 5157TIP3    H237031   6.024   3.690   1.265 -0.5408 -0.6198  0.0554
 5158TIP3   OH237032   2.410   2.639   1.518  0.3735 -0.2051 -0.1229
 5158TIP3    H137033   2.398   2.712   1.457  4.3822 -0.3001 -1.2625
 5158TIP3    H237034   2.431   2.564   1.462 -1.4222 -1.7861  1.1678
 5159TIP3   OH237035   0.141   5.236   8.534  0.1573  0.0152 -0.5138
 5159TIP3    H137036   0.057   5.265   8.569  0.4745  0.2850  0.0372
 5159TIP3    H237037   0.179   5.184   8.603  1.5974  2.0395  0.3248
 5160TIP3   OH237038   2.569   3.600   7.350 -0.1181 -0.2570  0.5343
 5160TIP3    H137039   2.548   3.630   7.262 -0.8202 -0.5775  0.5851
 5160TIP3    H237040   2.664   3.603   7.354 -0.0484 -0.6737 -0.4004
 5161TIP3   OH237041   4.828   4.537   2.042  0.0336 -0.6167  0.0519
 5161TIP3    H137042   4.844   4.555   1.949  1.4193  1.6268  0.6463
 5161TIP3    H237043   4.867   4.451   2.056  2.8970  0.4027 -0.8079
 5162TIP3   OH237044   5.670   5.555   0.094  0.3509 -0.1895 -0.8260
 5162TIP3    H137045   5.593   5.582   0.145 -0.6398 -1.3989 -1.6224
 5162TIP3    H237046   5.702   5.476   0.140  3.1239  2.0018  1.3978
 5163TIP3   OH237047   1.144   1.900   1.323 -0.2558 -0.0978  0.2881
 5163TIP3    H137048   1.159   1.823   1.378  0.4039 -2.4715 -2.8955
 5163TIP3    H237049   1.225   1.950   1.330  0.5388 -1.3099  0.1486
 5164TIP3   OH237050   1.980   4.338   1.153 -0.7536  0.1080  0.5755
 5164TIP3    H137051   1.974   4.385   1.070  2.0905 -2.8093 -1.5796
 5164TIP3    H237052   1.890   4.317   1.175 -1.7807  2.9228 -0.4672
 5165TIP3   OH237053   2.997   0.652   7.371  0.4995 -0.4417 -0.2834
 5165TIP3    H137054   2.920   0.681   7.321 -0.3183 -1.4636  0.3463
 5165TIP3    H237055   2.968   0.655   7.462  1.4156 -0.2644  0.0124
 5166TIP3   OH237056   2.394   2.188   7.807 -0.0250  0.5350  0.6098
 5166TIP3    H137057   2.407   2.161   7.898  0.4971  0.8060  0.6169
 5166TIP3    H237058   2.387   2.283   7.811 -0.9575  0.4827  0.4763
 5167TIP3   OH237059   3.900   1.029   6.676  0.0262 -0.0322 -0.1957
 5167TIP3    H137060   3.951   1.087   6.733  0.9685  0.9382 -1.9602
 5167TIP3    H237061   3.815   1.023   6.719  1.2158 -0.7742  2.2264
 5168TIP3   OH237062   5.730   6.155   7.781  0.3244  0.1313 -0.2647
 5168TIP3    H137063   5.820   6.132   7.756  1.8859  2.4158  2.6977
 5168TIP3    H237064   5.708   6.229   7.724  0.9123  0.5237  0.0087
 5169TIP3   OH237065   1.148   0.011   8.427  0.0619 -0.5625 -0.0556
 5169TIP3    H137066   1.229  -0.000   8.477  0.1840 -1.4638 -0.4392
 5169TIP3    H237067   1.118   0.099   8.451  0.7486 -0.5072  0.6704
 5170TIP3   OH237068   2.251   2.969   8.529 -0.2921  0.1741 -0.0343
 5170TIP3    H137069   2.265   2.972   8.623  0.5536  0.7170 -0.1660
 5170TIP3    H237070   2.156   2.977   8.519 -0.4830 -0.8909  0.7962
 5171TIP3   OH237071   5.934   2.601   0.730  0.1287  0.3465 -0.1150
 5171TIP3    H137072   6.013   2.548   0.734 -1.4048 -2.0116  1.1592
 5171TIP3    H237073   5.932   2.634   0.640  0.5271 -2.9242 -1.4721
 5172TIP3   OH237074   6.294   0.386   7.253  0.3101 -0.3294 -0.2918
 5172TIP3    H137075   6.268   0.321   7.318  2.2124  0.9483  1.8707
 5172TIP3    H237076   6.313   0.465   7.303 -2.0465  2.0573 -2.8380
 5173TIP3   OH237077   3.649   0.293   0.203 -0.2914 -0.5828  0.0117
 5173TIP3    H137078   3.635   0.372   0.255  0.7169 -0.7618  0.5788
 5173TIP3    H237079   3.657   0.325   0.113 -0.9354 -0.1545  0.1030
 5174TIP3   OH237080   5.958   3.275   1.047  0.5216  0.4247 -0.1920
 5174TIP3    H137081   5.914   3.355   1.016  1.0906  1.9029  2.5384
 5174TIP3    H237082   5.997   3.238   0.968  0.2514  2.8617 -1.5782
 5175TIP3   OH237083   0.525   4.597   0.963 -0.0710 -0.0208 -0.1771
 5175TIP3    H137084   0.513   4.656   0.889  0.0215  0.3302  0.0894
 5175TIP3    H237085   0.448   4.540   0.961 -0.0925  0.0215 -0.5123
 5176TIP3   OH237086   2.378   1.668   8.355  0.6558  0.3339  0.4616
 5176TIP3    H137087   2.357   1.711   8.437  0.7690  0.0978  0.6169
 5176TIP3    H237088   2.384   1.739   8.291 -0.3979  0.4248  0.4497
 5177TIP3   OH237089   0.619   3.839   2.134 -0.0926 -0.5197 -0.1168
 5177TIP3    H137090   0.646   3.748   2.145 -0.1712 -0.3946  1.2194
 5177TIP3    H237091   0.701   3.889   2.137 -0.1520 -0.4464  0.4197
 5178TIP3   OH237092   0.183   6.492   1.340  0.4702 -0.1986 -0.6729
 5178TIP3    H137093   0.138   6.576   1.346  0.9519  0.2211 -2.3775
 5178TIP3    H237094   0.114   6.427   1.349  0.1559  0.3259  1.1743
 5179TIP3   OH237095   5.243   5.926   1.496  0.2148  0.4685 -0.2411
 5179TIP3    H137096   5.289   5.855   1.542  1.1782  1.2784  0.0768
 5179TIP3    H237097   5.287   5.932   1.411 -0.5330  0.0276 -0.6740
 5180TIP3   OH237098   3.589   3.857   7.933 -0.6693 -0.1469  0.1547
 5180TIP3    H137099   3.671   3.812   7.949 -1.0307 -1.1489 -0.7346
 5180TIP3    H237100   3.590   3.878   7.840 -1.2462  0.1974  0.2187
 5181TIP3   OH237101   4.607   1.682   7.342  0.0396  0.0092  0.1873
 5181TIP3    H137102   4.682   1.740   7.333  3.6118 -3.7279  2.4365
 5181TIP3    H237103   4.619   1.616   7.273 -0.5171 -1.2163  1.2087
 5182TIP3   OH237104   5.604   2.089   7.822  0.3268 -0.0208 -0.4540
 5182TIP3    H137105   5.619   2.182   7.805  0.3761  0.1965  0.7248
 5182TIP3    H237106   5.692   2.051   7.826  0.3177 -0.7225 -3.8560
 5183TIP3   OH237107   6.078   3.569   8.542 -0.0509 -0.0030  0.0882
 5183TIP3    H137108   6.018   3.496   8.559 -0.8153  0.4228 -0.6971
 5183TIP3    H237109   6.155   3.549   8.595 -0.5489 -0.9911  0.4762
 5184TIP3   OH237110   4.236   5.418   7.221  0.3418  0.1793  0.0259
 5184TIP3    H137111   4.312   5.361   7.233  0.9285  0.3811 -2.3105
 5184TIP3    H237112   4.270   5.507   7.237  1.0356  0.4151 -2.4140
 5185TIP3   OH237113   4.077   3.811   0.414 -0.5307 -0.0007  0.4716
 5185TIP3    H137114   4.047   3.877   0.476 -2.8948  1.0062 -1.5672
 5185TIP3    H237115   4.132   3.860   0.353 -1.6857  0.0064 -0.6142
 5186TIP3   OH237116   4.368   1.123   8.580  0.6999  0.1107 -0.1291
 5186TIP3    H137117   4.350   1.029   8.583  0.2900  0.2020  2.9029
 5186TIP3    H237118   4.305   1.157   8.516 -0.4964 -1.3971  0.1808
 5187TIP3   OH237119   5.813   0.209   7.898  0.3502 -0.5766  0.3222
 5187TIP3    H137120   5.730   0.255   7.885  0.2508 -0.0517  2.4607
 5187TIP3    H237121   5.880   0.272   7.873  0.1884  0.4933  2.4524
 5188TIP3   OH237122   4.863   5.025   8.393  0.5882  0.3201  0.1928
 5188TIP3    H137123   4.889   5.061   8.477  1.3177  2.7425 -0.9872
 5188TIP3    H237124   4.772   5.053   8.381  0.3758 -0.3065  0.3119
 5189TIP3   OH237125   3.091   1.074   2.478  0.3670 -0.0067 -0.6367
 5189TIP3    H137126   3.097   1.040   2.567  0.9222  0.4854 -0.4741
 5189TIP3    H237127   3.032   1.014   2.432 -1.0977  0.5512  0.4472
 5190TIP3   OH237128   1.547   1.607   1.871  0.2453 -0.3775  0.5067
 5190TIP3    H137129   1.527   1.613   1.965 -1.5895  0.2493  0.1010
 5190TIP3    H237130   1.462   1.600   1.828  1.0515 -0.5037 -1.1397
 5191TIP3   OH237131   3.842   4.620   7.609  0.1694  0.0188  0.3920
 5191TIP3    H137132   3.759   4.582   7.582  0.7018  0.6906 -2.4221
 5191TIP3    H237133   3.878   4.556   7.670 -1.7552 -0.9429  0.5954
 5192TIP3   OH237134   4.590   5.125   1.980  0.2515 -0.0895 -0.4175
 5192TIP3    H137135   4.499   5.140   1.956  0.4756  0.4957 -0.9390
 5192TIP3    H237136   4.590   5.039   2.022 -0.9678  0.9511  1.9520
 5193TIP3   OH237137   3.787   4.839   1.039  0.2062  0.0467 -0.1844
 5193TIP3    H137138   3.791   4.911   1.103  0.6763 -0.8957  0.8713
 5193TIP3    H237139   3.698   4.805   1.047 -0.5923  1.5586 -1.9110
 5194TIP3   OH237140   2.913   3.366   1.878 -0.8348  0.0844 -0.6281
 5194TIP3    H137141   2.998   3.381   1.918 -1.4194  1.2562  0.2210
 5194TIP3    H237142   2.861   3.444   1.900 -1.5770  0.2125 -2.6045
 5195TIP3   OH237143   5.177   6.009   2.658 -0.2014  0.2431  0.2316
 5195TIP3    H137144   5.239   6.041   2.593  0.4813 -0.2452  0.6335
 5195TIP3    H237145   5.225   5.943   2.708 -1.8446 -2.2894 -1.2576
 5196TIP3   OH237146   6.142   0.764   7.577  0.6937  0.3341  0.1868
 5196TIP3    H137147   6.157   0.850   7.536 -0.5191  0.8363  0.7524
 5196TIP3    H237148   6.188   0.702   7.520 -3.0903  0.5762 -3.5990
 5197TIP3   OH237149   4.163   4.068   7.654 -0.1758 -0.5386 -0.3448
 5197TIP3    H137150   4.174   3.979   7.618 -0.9942 -1.1597  0.8886
 5197TIP3    H237151   4.177   4.058   7.748 -2.5263  0.1876  0.1499
 5198TIP3   OH237152   0.721   5.983   8.518  0.6120  0.2902 -0.3082
 5198TIP3    H137153   0.751   6.029   8.440 -0.5297  2.2875  0.3817
 5198TIP3    H237154   0.629   5.965   8.501  0.7313 -0.6403 -0.0311
 5199TIP3   OH237155   2.062   2.525   0.969 -0.1286  0.4572  0.5795
 5199TIP3    H137156   2.032   2.610   1.000 -0.6849 -0.0177  1.3867
 5199TIP3    H237157   1.993   2.464   0.996 -0.3782 -0.0718 -1.1412
 5200TIP3   OH237158   4.338   0.868   1.111  0.2853  0.0159 -0.3459
 5200TIP3    H137159   4.282   0.881   1.187 -2.3801  2.3842 -2.4911
 5200TIP3    H237160   4.311   0.784   1.074  1.4788 -1.0660  1.1022
 5201TIP3   OH237161   5.843   1.638   0.087  0.0488  0.5076  0.5767
 5201TIP3    H137162   5.912   1.572   0.088  0.1970  0.6514  0.2553
 5201TIP3    H237163   5.839   1.670   0.177 -1.2284 -1.1646  1.1651
 5202TIP3   OH237164   6.709   4.483   1.465  0.1893 -0.2830  0.0638
 5202TIP3    H137165   6.626   4.447   1.431  0.1811 -1.6304  1.4211
 5202TIP3    H237166   6.712   4.455   1.556  2.9102 -1.7043 -0.3514
 5203TIP3   OH237167   1.648   5.762   7.940  0.5455  0.3699  0.4186
 5203TIP3    H137168   1.665   5.822   7.867  0.2109  0.9989  0.8512
 5203TIP3    H237169   1.711   5.690   7.927 -1.2306 -0.8879 -1.9585
 5204TIP3   OH237170   3.430   5.534   0.860 -0.0923  0.4319  0.1401
 5204TIP3    H137171   3.438   5.444   0.891  0.1986  0.1102 -0.8429
 5204TIP3    H237172   3.519   5.560   0.838  0.1774  1.7413  2.4494
 5205TIP3   OH237173   0.894   3.368   0.879 -0.1006 -0.2161  0.8117
 5205TIP3    H137174   0.933   3.443   0.924 -0.7389  1.5279 -1.3385
 5205TIP3    H237175   0.967   3.326   0.833  0.2218 -0.8108  1.8426
 5206TIP3   OH237176   5.348   3.006   8.212 -0.1493 -0.4993 -0.8467
 5206TIP3    H137177   5.359   3.074   8.145 -0.8463 -0.7302 -1.2020
 5206TIP3    H237178   5.253   2.998   8.223 -0.1086  1.5893  2.2598
 5207TIP3   OH237179   4.483   2.169   8.295 -0.2900  0.3420 -0.3774
 5207TIP3    H137180   4.561   2.205   8.337  0.1241 -1.5119  0.5600
 5207TIP3    H237181   4.514   2.136   8.210 -0.1100 -0.1217 -0.1334
 5208TIP3   OH237182   5.002   1.153   8.009  0.4816  0.0220 -0.3012
 5208TIP3    H137183   4.919   1.123   7.973 -0.0513  0.5270  0.4903
 5208TIP3    H237184   4.985   1.242   8.040  1.0677 -0.1974  0.6977
 5209TIP3   OH237185   2.427   6.147   7.359 -0.4554  0.3597  0.2941
 5209TIP3    H137186   2.418   6.231   7.405  0.9634  0.6887  0.0152
 5209TIP3    H237187   2.518   6.146   7.328 -0.5662 -1.1013 -0.0666
 5210TIP3   OH237188   1.660   3.846   0.184  0.7324  0.0247 -0.1600
 5210TIP3    H137189   1.595   3.828   0.117  2.3471  0.2954 -1.8763
 5210TIP3    H237190   1.709   3.921   0.151  1.3905  0.3657  1.4790
 5211TIP3   OH237191   1.510   6.303   7.559  0.1429 -0.3513 -0.2491
 5211TIP3    H137192   1.474   6.365   7.621  0.5261 -1.5689  1.2421
 5211TIP3    H237193   1.546   6.357   7.489  0.6207  1.1246  1.0838
 5212TIP3   OH237194   6.192   0.923   2.102  0.0343  0.4997  0.9233
 5212TIP3    H137195   6.161   0.993   2.044 -0.9057  0.8274  1.8011
 5212TIP3    H237196   6.218   0.853   2.042 -1.4862  0.5907  0.1010
 5213TIP3   OH237197   1.861   1.248   8.650  0.2556 -0.1337  0.0762
 5213TIP3    H137198   1.863   1.327   8.706  0.8468  0.4232 -0.7000
 5213TIP3    H237199   1.915   1.185   8.697  1.5666  0.6593 -0.2856
 5214TIP3   OH237200   6.857   2.013   8.190 -0.0453 -0.4982 -0.2480
 5214TIP3    H137201   6.843   1.953   8.263  1.1026 -1.3007 -0.6735
 5214TIP3    H237202   6.927   2.071   8.219 -0.8385  0.3760 -0.0193
 5215TIP3   OH237203   4.869   0.863   6.874  0.0841 -0.1044  0.0883
 5215TIP3    H137204   4.816   0.865   6.794 -0.3639 -1.5940  0.3030
 5215TIP3    H237205   4.805   0.868   6.945  0.3373 -0.5412  0.3502
 5216TIP3   OH237206   6.495   4.732   7.762  0.2767  0.7615 -0.1009
 5216TIP3    H137207   6.405   4.715   7.735 -0.0455 -0.3511  1.4712
 5216TIP3    H237208   6.487   4.799   7.830  0.7874  1.6945 -0.9551
 5217TIP3   OH237209   2.014   0.565   8.535 -0.2393 -0.3483  0.4339
 5217TIP3    H137210   1.988   0.618   8.610  0.1630 -1.2103  1.2041
 5217TIP3    H237211   1.932   0.547   8.489 -0.4505  0.4393  0.4840
 5218TIP3   OH237212   0.720   6.449   7.995 -0.5166  0.9229  0.2540
 5218TIP3    H137213   0.729   6.501   8.075 -0.3755 -0.0654  0.8965
 5218TIP3    H237214   0.626   6.449   7.978 -0.3093  4.2258 -1.7182
 5219TIP3   OH237215   0.712   4.990   0.389  0.2125  0.4468 -0.5369
 5219TIP3    H137216   0.749   4.966   0.474 -0.9897  0.9588  0.1538
 5219TIP3    H237217   0.631   4.941   0.383 -0.7320  1.9183 -0.4706
 5220TIP3   OH237218   6.285   2.696   1.591  0.5232 -0.1386  0.2333
 5220TIP3    H137219   6.283   2.712   1.685  1.7692 -0.4276  0.3128
 5220TIP3    H237220   6.193   2.706   1.564  0.4674  2.3596  1.0619
 5221TIP3   OH237221   2.813   1.164   2.554 -0.0827 -0.4860 -0.2857
 5221TIP3    H137222   2.811   1.089   2.614  1.6690 -0.1273  0.2536
 5221TIP3    H237223   2.826   1.240   2.610 -0.0092  0.0361 -0.9915
 5222TIP3   OH237224   4.702   2.270   8.476  0.1144  0.0768 -0.3009
 5222TIP3    H137225   4.736   2.358   8.461  0.4864  0.2276  1.2335
 5222TIP3    H237226   4.769   2.212   8.441  1.0320  0.4054  0.8217
 5223TIP3   OH237227   5.895   3.387   0.027 -0.0713 -0.6094 -0.6464
 5223TIP3    H137228   5.824   3.451   0.029  0.3455 -0.1489 -0.5945
 5223TIP3    H237229   5.930   3.386   0.116  1.8176  1.2445 -1.2933
 5224TIP3   OH237230   4.340   4.604   0.603  0.2204  0.4076  0.4173
 5224TIP3    H137231   4.409   4.569   0.660  0.0344  1.5119  1.3539
 5224TIP3    H237232   4.280   4.530   0.590  2.1738 -0.9635 -1.4545
 5225TIP3   OH237233   5.821   1.740   0.348 -0.2985 -0.6495  0.1704
 5225TIP3    H137234   5.783   1.803   0.408 -2.5561 -1.3188 -0.4456
 5225TIP3    H237235   5.916   1.746   0.362 -0.5206  1.9222  1.0081
 5226TIP3   OH237236   2.056   1.269   2.416 -0.1089 -0.0643 -0.0529
 5226TIP3    H137237   2.047   1.191   2.360 -1.1863 -0.7800  1.0762
 5226TIP3    H237238   2.112   1.240   2.488 -0.7540  0.1088  0.5238
 5227TIP3   OH237239   6.674   4.368   2.175 -0.2744 -1.0647  0.2828
 5227TIP3    H137240   6.718   4.335   2.097  0.5497  1.3633 -0.3525
 5227TIP3    H237241   6.590   4.401   2.144 -0.1499 -0.5320  0.4985
 5228TIP3   OH237242   3.094   6.122   7.318 -0.2949  0.2892 -0.2482
 5228TIP3    H137243   3.028   6.191   7.323 -1.4280 -0.6971 -1.0337
 5228TIP3    H237244   3.076   6.066   7.393  0.1320  0.4191 -0.0454
 5229TIP3   OH237245   1.807   2.645   2.821  0.1436  0.4516 -0.3060
 5229TIP3    H137246   1.898   2.663   2.845  0.1717 -0.2539  0.1392
 5229TIP3    H237247   1.779   2.723   2.774  1.2330  0.3344 -1.1760
 5230TIP3   OH237248   0.144   1.757   1.413  0.3613 -0.0634  0.4478
 5230TIP3    H137249   0.219   1.706   1.384  0.1998  0.1378 -0.3329
 5230TIP3    H237250   0.112   1.801   1.334 -1.7320 -1.6031  0.3387
 5231TIP3   OH237251   0.729   5.244   2.314 -0.2082  0.9099  0.3751
 5231TIP3    H137252   0.679   5.312   2.269 -0.1589  1.7060  1.4779
 5231TIP3    H237253   0.663   5.194   2.362 -0.2341  0.2221 -0.3670
 5232TIP3   OH237254   4.236   0.370   0.966  0.3195 -0.0632  0.0148
 5232TIP3    H137255   4.212   0.280   0.944 -0.4660 -0.1148  1.0177
 5232TIP3    H237256   4.330   0.374   0.949  0.7698 -1.6546  1.7696
 5233TIP3   OH237257   2.712   6.634   1.313 -0.0626  0.4865 -0.7217
 5233TIP3    H137258   2.779   6.614   1.378  0.6892 -0.9946 -1.9131
 5233TIP3    H237259   2.629   6.613   1.356  0.4813 -1.4309 -0.5414
 5234TIP3   OH237260   3.082   5.224   0.867 -0.2012  0.2315 -0.2253
 5234TIP3    H137261   3.058   5.135   0.894 -1.1955  0.0939 -1.4573
 5234TIP3    H237262   3.082   5.274   0.948 -1.6203 -0.4651  0.2415
 5235TIP3   OH237263   0.958   0.152   1.068  0.1347  0.1411 -0.2846
 5235TIP3    H137264   1.022   0.097   1.114  0.4075 -0.8816 -1.8137
 5235TIP3    H237265   0.874   0.127   1.106  0.5580  1.3014  1.5556
 5236TIP3   OH237266   4.919   0.249   8.394  0.6976 -0.2316 -0.6143
 5236TIP3    H137267   4.901   0.287   8.308  0.9084  0.0213 -0.5476
 5236TIP3    H237268   4.859   0.174   8.400  0.6486 -0.2231 -0.9605
 5237TIP3   OH237269   5.147   5.165   2.548 -0.2621  0.1064  0.3003
 5237TIP3    H137270   5.084   5.128   2.485 -0.1516  2.4375 -1.3260
 5237TIP3    H237271   5.220   5.103   2.547 -1.6844 -1.6727  0.7820
 5238TIP3   OH237272   3.034   5.174   0.227 -0.6154 -0.0904  0.2772
 5238TIP3    H137273   2.994   5.216   0.151 -0.1794  0.8492  0.5614
 5238TIP3    H237274   2.961   5.135   0.274 -0.9573 -0.1522 -0.2908
 5239TIP3   OH237275   6.685   3.190   7.014  0.6437 -0.3319 -0.1396
 5239TIP3    H137276   6.757   3.199   7.076 -0.2473 -0.7763  0.9913
 5239TIP3    H237277   6.621   3.256   7.042 -0.7423 -2.0020  0.8534
 5240TIP3   OH237278   5.516   5.312   2.009  0.0947 -0.9427 -0.0357
 5240TIP3    H137279   5.511   5.216   2.007  2.1571 -1.1876  2.1577
 5240TIP3    H237280   5.563   5.332   2.090 -1.4872  2.0313  0.2667
 5241TIP3   OH237281   3.380   3.406   2.196 -0.6615 -0.6480 -0.4323
 5241TIP3    H137282   3.342   3.474   2.252  1.7000  0.0726  0.4180
 5241TIP3    H237283   3.395   3.332   2.256  1.2005 -0.1342 -0.1997
 5242TIP3   OH237284   6.535   3.499   0.899 -0.3923 -0.0175  0.2304
 5242TIP3    H137285   6.588   3.546   0.964 -0.2740  0.7458 -0.4060
 5242TIP3    H237286   6.549   3.406   0.919  0.2238  0.1978  0.8323
 5243TIP3   OH237287   5.928   3.700   0.289  0.0868  0.5612 -0.1670
 5243TIP3    H137288   5.888   3.750   0.360  0.8004  1.4475 -0.3699
 5243TIP3    H237289   5.949   3.615   0.327  0.8467  1.1694  0.8060
 5244TIP3   OH237290   5.339   6.825   1.193  0.1351  0.4572 -0.1018
 5244TIP3    H137291   5.351   6.731   1.180 -0.2552  0.4290 -0.2648
 5244TIP3    H237292   5.275   6.850   1.127  1.2279  1.0839 -0.9587
 5245TIP3   OH237293   3.895   3.919   2.610 -0.1605  0.4188 -0.2466
 5245TIP3    H137294   3.960   3.926   2.680  0.0838 -1.8669 -0.1625
 5245TIP3    H237295   3.811   3.934   2.653  0.0610 -0.0081  0.3454
 5246TIP3   OH237296   2.388   3.721   1.426 -0.2232 -0.4630 -0.1923
 5246TIP3    H137297   2.459   3.659   1.408  0.2614 -0.8201  2.6039
 5246TIP3    H237298   2.325   3.671   1.477 -1.6781  0.3707 -1.0864
 5247TIP3   OH237299   2.876   0.707   2.770 -0.6239 -0.4091 -0.0512
 5247TIP3    H137300   2.881   0.641   2.701 -0.7401 -1.3627  0.8317
 5247TIP3    H237301   2.848   0.659   2.847  1.0541  0.3352  1.0789
 5248TIP3   OH237302   3.437   6.491   0.745  0.7530 -0.0552 -0.2715
 5248TIP3    H137303   3.377   6.431   0.703 -1.1314  0.8498  1.0073
 5248TIP3    H237304   3.451   6.455   0.832 -0.4067  1.2811  0.5149
 5249TIP3   OH237305   6.396   1.851   1.419  0.4539  0.0169 -0.0594
 5249TIP3    H137306   6.310   1.885   1.444  1.2907  1.4834  0.9738
 5249TIP3    H237307   6.406   1.878   1.328 -0.9117 -1.8146 -0.8354
 5250TIP3   OH237308   6.008   6.604   6.344  0.0586  0.2058  0.3096
 5250TIP3    H137309   5.961   6.526   6.316  1.1398 -0.1048 -0.7156
 5250TIP3    H237310   6.057   6.576   6.421  0.3521 -0.0949  0.0123
 5251TIP3   OH237311   2.709   3.995   7.796 -0.0264 -0.0953 -0.3674
 5251TIP3    H137312   2.623   3.984   7.755 -0.8014  1.0183  0.8764
 5251TIP3    H237313   2.739   3.905   7.812 -2.6802 -0.6622  2.5438
 5252TIP3   OH237314   4.762   1.090   3.209  0.1682 -0.3265  0.1853
 5252TIP3    H137315   4.704   1.145   3.157  0.1958  1.2963  1.7686
 5252TIP3    H237316   4.728   1.001   3.198 -1.1035  0.2663 -0.8529
 5253TIP3   OH237317   5.213   3.992   0.249  0.0451  0.1336  0.8210
 5253TIP3    H137318   5.211   4.087   0.250 -0.7744  0.1373 -0.1686
 5253TIP3    H237319   5.122   3.966   0.263 -0.5458 -0.4129 -3.0526
 5254TIP3   OH237320   6.273   3.457   0.843 -0.2899 -0.0545 -0.1264
 5254TIP3    H137321   6.307   3.403   0.772 -0.4472 -0.8448  0.3905
 5254TIP3    H237322   6.349   3.507   0.873 -0.6197  1.8205 -2.1542
 5255TIP3   OH237323   5.383   5.354   8.499 -0.1054 -0.3414 -0.2793
 5255TIP3    H137324   5.474   5.347   8.469 -0.2587 -1.6051 -0.4999
 5255TIP3    H237325   5.333   5.303   8.436 -1.1263  1.1177 -0.6992
 5256TIP3   OH237326   2.909   4.565   1.697  0.4252 -0.2160 -0.1087
 5256TIP3    H137327   2.840   4.538   1.757  1.4603  0.7774  1.5962
 5256TIP3    H237328   2.863   4.580   1.614 -0.6547 -4.0514 -0.3749
 5257TIP3   OH237329   1.715   0.385   1.662 -0.6324  0.3075  0.2112
 5257TIP3    H137330   1.637   0.411   1.613 -0.5849  0.3811  0.1750
 5257TIP3    H237331   1.688   0.307   1.711 -0.7345  0.3459  0.2151
 5258TIP3   OH237332   4.860   1.203   0.936  0.4410  0.8089 -0.3125
 5258TIP3    H137333   4.828   1.113   0.930 -0.9092  1.3005 -0.7270
 5258TIP3    H237334   4.951   1.194   0.966 -0.1337 -0.6147  1.1267
 5259TIP3   OH237335   6.020   1.156   7.294  0.1231  0.1542 -0.3491
 5259TIP3    H137336   6.010   1.075   7.244 -1.1014 -1.0756  1.7392
 5259TIP3    H237337   6.018   1.225   7.228 -1.0431 -1.3831 -2.0342
 5260TIP3   OH237338   2.164   3.524   0.898 -0.1413 -0.0643  0.7541
 5260TIP3    H137339   2.110   3.453   0.934  1.2261 -0.9424  1.1396
 5260TIP3    H237340   2.200   3.568   0.975  1.8866 -1.2405  0.5562
 5261TIP3   OH237341   1.920   5.961   0.143 -0.4274  0.1897  0.5797
 5261TIP3    H137342   1.972   5.956   0.223  0.6475 -1.9692 -0.1882
 5261TIP3    H237343   1.965   5.904   0.081 -0.4261  2.7966 -2.0728
 5262TIP3   OH237344   3.276   2.721   7.024  0.2584 -0.0709  0.9688
 5262TIP3    H137345   3.305   2.791   7.083 -0.1534  1.3113 -0.3979
 5262TIP3    H237346   3.334   2.728   6.948 -2.4218  1.6821 -1.0925
 5263TIP3   OH237347   0.866   6.750   7.574  0.0752  0.8821 -0.0673
 5263TIP3    H137348   0.805   6.680   7.599  2.3923 -1.5320 -0.6387
 5263TIP3    H237349   0.855   6.817   7.642 -1.4834 -0.5275  1.1592
 5264TIP3   OH237350   0.589   6.676   0.060  0.2141 -0.2542 -1.0090
 5264TIP3    H137351   0.500   6.650   0.083  0.3005  0.3590  0.0419
 5264TIP3    H237352   0.642   6.598   0.077  0.4913  0.5274  2.2746
 5265TIP3   OH237353   0.182   4.935   2.306 -0.1115  0.7687  0.1029
 5265TIP3    H137354   0.187   4.904   2.397  0.4500 -0.2410 -0.2663
 5265TIP3    H237355   0.273   4.937   2.276 -0.0502  3.1905  0.2226
 5266TIP3   OH237356   0.787   1.882   2.404  0.5147 -0.0823  0.5383
 5266TIP3    H137357   0.814   1.904   2.493 -1.4625  1.8609  0.7569
 5266TIP3    H237358   0.697   1.850   2.413  0.6627 -0.9121 -0.6545
 5267TIP3   OH237359   4.621   4.687   6.812  0.2806  0.3733  0.0619
 5267TIP3    H137360   4.692   4.659   6.754  0.3392 -2.0757  1.2179
 5267TIP3    H237361   4.644   4.650   6.898 -0.7795  2.2596  1.2332
 5268TIP3   OH237362   6.509   2.230   8.068  0.4177  0.0594  0.1241
 5268TIP3    H137363   6.547   2.282   7.997  2.1834 -0.3123  0.7307
 5268TIP3    H237364   6.555   2.146   8.063 -2.6979 -1.7257 -1.1358
 5269TIP3   OH237365   4.913   6.857   1.979 -0.4609 -0.1069  0.3039
 5269TIP3    H137366   4.921   6.916   2.054 -3.5530  0.3669  0.4081
 5269TIP3    H237367   4.922   6.769   2.017 -0.9472  0.1653  1.0917
 5270TIP3   OH237368   6.550   5.418   0.627  0.4490  0.2699 -0.2317
 5270TIP3    H137369   6.637   5.431   0.590  1.7044 -0.6991  2.1302
 5270TIP3    H237370   6.549   5.472   0.706 -1.2107  0.4527 -0.3403
 5271TIP3   OH237371   4.868   2.158   8.297  0.2627  0.1523  0.0777
 5271TIP3    H137372   4.960   2.132   8.294 -0.1663 -1.5700  0.5810
 5271TIP3    H237373   4.826   2.102   8.232 -0.8051 -0.8915  1.6068
 5272TIP3   OH237374   0.297   2.948   8.618 -0.3835  0.8200 -0.0991
 5272TIP3    H137375   0.362   3.013   8.591  2.3655 -1.3482  0.8962
 5272TIP3    H237376   0.292   2.887   8.545  0.4347 -0.2426  0.7047
 5273TIP3   OH237377   0.464   5.366   7.153 -0.4385  0.4580  0.0989
 5273TIP3    H137378   0.440   5.455   7.178 -0.1609  0.3424  0.7991
 5273TIP3    H237379   0.383   5.315   7.162  0.1640 -0.1405  3.4138
 5274TIP3   OH237380   5.612   5.629   0.866 -0.3300 -0.0028 -0.3691
 5274TIP3    H137381   5.704   5.635   0.838  0.0284 -0.0926  0.7250
 5274TIP3    H237382   5.564   5.685   0.805  0.8723  2.5604  0.8894
 5275TIP3   OH237383   2.750   2.752   7.562 -0.1557 -0.0050 -0.1742
 5275TIP3    H137384   2.757   2.838   7.521  1.1577 -0.2481 -0.4906
 5275TIP3    H237385   2.824   2.703   7.528 -1.6501 -1.7432 -1.0977
 5276TIP3   OH237386   2.511   0.732   7.847  0.3192 -0.3024  0.2259
 5276TIP3    H137387   2.558   0.649   7.837  0.2239 -0.1535 -1.9787
 5276TIP3    H237388   2.534   0.782   7.770 -2.2146  0.3872 -0.1876
 5277TIP3   OH237389   0.568   5.628   7.316  0.3625 -0.0903 -0.5801
 5277TIP3    H137390   0.618   5.709   7.325  1.8796 -1.0652  0.0959
 5277TIP3    H237391   0.633   5.562   7.293 -0.9760 -0.9733 -2.0750
 5278TIP3   OH237392   5.345   3.228   1.931  0.0384 -0.0853  0.4027
 5278TIP3    H137393   5.293   3.191   1.861 -0.5743  1.3235  0.0840
 5278TIP3    H237394   5.290   3.221   2.009  0.1313 -0.3112  0.4489
 5279TIP3   OH237395   5.115   4.437   1.275 -0.0968  0.0576 -0.2491
 5279TIP3    H137396   5.132   4.474   1.189 -0.5207 -0.8565 -0.7335
 5279TIP3    H237397   5.181   4.369   1.286 -2.4276 -2.5866 -1.5729
 5280TIP3   OH237398   4.680   3.372   1.879  0.0140  0.0497 -0.2424
 5280TIP3    H137399   4.595   3.380   1.835  0.7899  2.1407 -1.4930
 5280TIP3    H237400   4.658   3.352   1.970 -1.7719 -0.5621 -0.7616
 5281TIP3   OH237401   1.700   4.782   8.414  0.0097  0.6501 -0.6158
 5281TIP3    H137402   1.670   4.718   8.479 -0.9304  1.0355 -0.6550
 5281TIP3    H237403   1.715   4.862   8.464  2.0000  0.2135 -0.4217
 5282TIP3   OH237404   6.578   2.467   7.456 -0.1614  0.1927 -0.2392
 5282TIP3    H137405   6.503   2.492   7.401  0.6030 -1.2750 -2.0659
 5282TIP3    H237406   6.618   2.550   7.481 -0.8354  0.9332 -1.4989
 5283TIP3   OH237407   5.873   3.610   8.133  0.7218 -0.0997 -0.0237
 5283TIP3    H137408   5.944   3.558   8.171  1.0560 -1.0858 -1.8974
 5283TIP3    H237409   5.896   3.701   8.154  1.7447 -0.5025  0.6869
 5284TIP3   OH237410   5.192   6.514   1.852  0.1838 -0.2597 -0.4253
 5284TIP3    H137411   5.174   6.596   1.805 -0.0384 -0.5862 -0.9162
 5284TIP3    H237412   5.106   6.476   1.868  0.2126  0.1036  0.7432
 5285TIP3   OH237413   0.664   5.767   1.358  0.1724  0.0857 -0.0434
 5285TIP3    H137414   0.691   5.676   1.351 -1.0430 -0.1945 -1.7958
 5285TIP3    H237415   0.678   5.790   1.450  0.0108 -2.0113  0.5447
 5286TIP3   OH237416   0.578   5.643   2.418  0.4208  0.1268  0.5812
 5286TIP3    H137417   0.566   5.717   2.359 -0.9258 -0.5396 -0.0107
 5286TIP3    H237418   0.528   5.667   2.496  1.7357  0.7572  1.2580
 5287TIP3   OH237419   3.604   0.808   0.368  0.3247 -0.5619  0.5922
 5287TIP3    H137420   3.515   0.842   0.377 -0.1676 -1.9437  1.2892
 5287TIP3    H237421   3.632   0.836   0.281 -0.4172  0.7168  0.7448
 5288TIP3   OH237422   2.790   3.778   8.360 -0.0494 -0.1315 -0.7063
 5288TIP3    H137423   2.782   3.683   8.368 -2.2992  0.0911  0.3668
 5288TIP3    H237424   2.729   3.801   8.290  0.0677  0.5898 -0.5739
 5289TIP3   OH237425   0.949   1.380   0.461  0.2855  0.0632  0.1781
 5289TIP3    H137426   1.017   1.322   0.496  0.5444 -0.0810 -0.5484
 5289TIP3    H237427   0.876   1.322   0.441  0.7852 -0.1371 -1.1758
 5290TIP3   OH237428   4.376   6.626   7.892  0.5704 -0.4803  0.1686
 5290TIP3    H137429   4.403   6.626   7.984 -1.3691  0.2540  0.7796
 5290TIP3    H237430   4.410   6.709   7.857 -2.0695  1.2637  1.3830
 5291TIP3   OH237431   2.527   4.038   1.264  0.5264  0.3433  0.1581
 5291TIP3    H137432   2.506   4.006   1.176 -0.0002  1.0938  0.0023
 5291TIP3    H237433   2.592   3.976   1.298 -1.5395 -1.7529  0.4532
 5292TIP3   OH237434   6.811   4.196   1.657  0.9954 -0.4360  0.5260
 5292TIP3    H137435   6.732   4.150   1.630 -1.3062  2.2394  2.1508
 5292TIP3    H237436   6.853   4.222   1.575 -1.0655  0.0208 -0.4365
 5293TIP3   OH237437   4.782   2.934   2.197  0.1115  0.3985 -0.1045
 5293TIP3    H137438   4.822   2.897   2.119 -1.3880  0.6462 -1.0174
 5293TIP3    H237439   4.744   3.017   2.169  0.1739  0.8479  1.0559
 5294TIP3   OH237440   0.345   5.011   8.408  0.3923  0.1529 -0.0452
 5294TIP3    H137441   0.282   5.080   8.389 -0.8114 -0.8786  0.0512
 5294TIP3    H237442   0.430   5.050   8.389 -0.2152  1.7869  0.4423
 5295TIP3   OH237443   3.706   5.667   7.503  0.3340 -0.7140  0.2466
 5295TIP3    H137444   3.722   5.658   7.597 -3.5196  0.6213  1.2244
 5295TIP3    H237445   3.672   5.581   7.476 -1.7435 -0.1626  0.9486
 5296TIP3   OH237446   2.766   4.241   1.603  0.4307  0.0611  0.1779
 5296TIP3    H137447   2.728   4.318   1.646 -2.4239 -0.8469 -0.4763
 5296TIP3    H237448   2.835   4.212   1.662 -0.1527  1.6338  1.7320
 5297TIP3   OH237449   3.730   5.391   8.197 -0.4276  0.0104  0.4546
 5297TIP3    H137450   3.733   5.396   8.292 -0.9448  2.8166  0.3902
 5297TIP3    H237451   3.817   5.419   8.168  0.0915 -1.8307  0.0419
 5298TIP3   OH237452   3.759   1.171   1.084 -0.5410  0.1911  0.2359
 5298TIP3    H137453   3.773   1.086   1.127  1.5130 -0.2504 -1.1585
 5298TIP3    H237454   3.844   1.214   1.088  0.0683 -0.2052 -3.9194
 5299TIP3   OH237455   6.100   2.203   0.590  0.0181 -0.3208 -0.0736
 5299TIP3    H137456   6.079   2.191   0.498  1.0646  0.4207 -0.4271
 5299TIP3    H237457   6.017   2.190   0.636 -0.6640  0.0203 -1.1763
 5300TIP3   OH237458   6.300   2.092   8.311 -0.0998  0.0024 -0.9356
 5300TIP3    H137459   6.333   2.011   8.272  0.6311 -0.2546  0.1698
 5300TIP3    H237460   6.235   2.062   8.375 -1.4516  0.4290 -2.0748
 5301TIP3   OH237461   3.770   4.120   7.062 -0.2329 -0.3040  0.0084
 5301TIP3    H137462   3.840   4.119   6.997  1.0943 -1.1386  1.4010
 5301TIP3    H237463   3.750   4.213   7.074  0.6712 -0.0510 -0.3748
 5302TIP3   OH237464   6.018   6.412   2.292  0.2522  0.4358 -0.3236
 5302TIP3    H137465   6.110   6.435   2.281  0.7657 -1.5389 -0.5304
 5302TIP3    H237466   6.001   6.422   2.385  0.8608  0.1997 -0.1872
 5303TIP3   OH237467   4.909   1.387   1.816 -0.3509 -0.1885  0.3584
 5303TIP3    H137468   4.820   1.417   1.797 -0.5025 -1.7517 -1.7198
 5303TIP3    H237469   4.897   1.309   1.870 -0.2823 -0.7173 -0.3806
 5304TIP3   OH237470   1.989   4.333   2.086 -0.1551  0.0513 -0.2047
 5304TIP3    H137471   1.900   4.368   2.090 -0.7011 -1.1985 -0.7033
 5304TIP3    H237472   1.984   4.249   2.132  1.0001  0.3785  0.5686
 5305TIP3   OH237473   1.068   3.525   8.646  0.5157  0.5103 -0.0693
 5305TIP3    H137474   1.117   3.508   8.726 -4.2259 -0.7178  2.9671
 5305TIP3    H237475   1.071   3.443   8.597 -1.5034 -0.9655  2.0647
 5306TIP3   OH237476   2.441   2.845   7.202 -0.2289 -0.1237 -0.7086
 5306TIP3    H137477   2.491   2.896   7.266 -1.1810 -1.8582  1.5927
 5306TIP3    H237478   2.500   2.775   7.175  0.2163  0.6832 -1.8669
 5307TIP3   OH237479   5.906   0.817   8.360  0.0001  0.0171 -0.4914
 5307TIP3    H137480   5.958   0.737   8.362  1.2698  0.7445 -2.1827
 5307TIP3    H237481   5.820   0.788   8.329  0.0201 -0.8718  0.2288
 5308TIP3   OH237482   6.772   4.697   7.730 -0.3371  0.3119  0.0269
 5308TIP3    H137483   6.793   4.790   7.720 -2.2511  0.7052 -0.6579
 5308TIP3    H237484   6.677   4.694   7.742 -0.1707 -1.4752  1.4029
 5309TIP3   OH237485   4.295   1.021   7.795 -0.4926 -0.5308  0.6931
 5309TIP3    H137486   4.381   0.979   7.790 -0.9012 -1.5662  1.7462
 5309TIP3    H237487   4.301   1.095   7.735  0.9216 -0.9478  0.2693
 5310TIP3   OH237488   4.574   3.669   0.774 -0.4415  0.1782 -0.4895
 5310TIP3    H137489   4.583   3.657   0.680 -0.8146 -0.3889 -0.4593
 5310TIP3    H237490   4.514   3.600   0.801 -2.5681  1.9948 -0.2634
 5311TIP3   OH237491   1.839   4.577   0.973 -0.0957  0.0933 -0.2525
 5311TIP3    H137492   1.769   4.512   0.975  0.0701 -0.1108 -1.0785
 5311TIP3    H237493   1.910   4.535   0.926  0.0043  0.8727 -0.8215
 5312TIP3   OH237494   5.770   6.273   2.118  0.0291 -0.0861 -0.0442
 5312TIP3    H137495   5.732   6.205   2.062 -1.3173  0.7030 -0.1187
 5312TIP3    H237496   5.841   6.228   2.164 -0.3319 -1.3468 -0.6554
 5313TIP3   OH237497   6.241   0.560   0.288 -0.2198 -0.1654  0.3127
 5313TIP3    H137498   6.263   0.483   0.340 -1.5014 -0.7358  0.0578
 5313TIP3    H237499   6.235   0.527   0.198  0.2651  0.4529  0.0466
 5314TIP3   OH237500   3.784   3.681   1.330  0.4481  0.1647  0.8569
 5314TIP3    H137501   3.852   3.680   1.263 -0.5844  1.1998 -0.2647
 5314TIP3    H237502   3.811   3.750   1.390 -0.3197  1.6502 -0.4248
 5315TIP3   OH237503   0.813   5.877   8.217 -0.3001 -0.2855 -0.1702
 5315TIP3    H137504   0.758   5.801   8.197  0.7608 -1.1294  0.0367
 5315TIP3    H237505   0.785   5.944   8.155  0.5874 -1.7346 -2.2605
 5316TIP3   OH237506   3.025   3.958   7.731 -0.3386  0.2272  0.1636
 5316TIP3    H137507   3.101   4.007   7.698 -0.0499 -1.8367 -2.6701
 5316TIP3    H237508   2.953   3.985   7.674 -0.5549 -1.3121 -0.3417
 5317TIP3   OH237509   4.439   5.746   7.732  0.0209 -0.2908 -0.2802
 5317TIP3    H137510   4.354   5.764   7.772  1.0161  0.9089  1.4338
 5317TIP3    H237511   4.432   5.784   7.644 -1.4199 -0.8219 -0.4222
 5318TIP3   OH237512   5.359   5.858   6.898  0.0700 -0.3645 -0.4462
 5318TIP3    H137513   5.344   5.766   6.922  0.7402 -0.4317 -0.2773
 5318TIP3    H237514   5.435   5.856   6.840  0.4733  0.1545  0.0595
 5319TIP3   OH237515   0.271   6.761   2.479 -0.0149  0.2218 -0.2620
 5319TIP3    H137516   0.347   6.753   2.421  0.5860  0.3365  0.4887
 5319TIP3    H237517   0.289   6.840   2.531 -2.0546  2.0232 -2.0780
 5320TIP3   OH237518   4.167   6.183   6.541  0.8581  0.5223 -0.2174
 5320TIP3    H137519   4.174   6.277   6.557 -0.9818  0.6801 -0.1438
 5320TIP3    H237520   4.184   6.143   6.626  2.2477  0.7230 -0.3731
 5321TIP3   OH237521   0.414   4.689   7.637 -0.0898 -0.3722  0.8888
 5321TIP3    H137522   0.436   4.596   7.646  2.0149  0.2554  3.3208
 5321TIP3    H237523   0.322   4.689   7.611 -0.3125 -3.1229  1.3703
 5322TIP3   OH237524   3.716   5.446   8.480 -0.6342  0.4092  0.1308
 5322TIP3    H137525   3.688   5.484   8.564 -2.1498  1.1253 -0.6413
 5322TIP3    H237526   3.809   5.464   8.475 -0.6638  1.0113  1.3450
 5323TIP3   OH237527   6.546   0.596   0.287  0.1921  0.3075 -0.0266
 5323TIP3    H137528   6.482   0.653   0.329 -1.7928 -1.5088 -0.3966
 5323TIP3    H237529   6.545   0.516   0.340  1.5283 -0.0893 -0.5610
 5324TIP3   OH237530   3.418   3.256   2.415  0.0429 -0.0823 -0.2332
 5324TIP3    H137531   3.502   3.303   2.414  0.1234 -0.2255 -0.3414
 5324TIP3    H237532   3.407   3.229   2.506 -0.3050  0.6765 -0.0477
 5325TIP3   OH237533   3.997   6.748   1.155  0.0999  0.1294  0.2989
 5325TIP3    H137534   4.049   6.668   1.170  0.8143  0.6465  0.6476
 5325TIP3    H237535   3.962   6.770   1.241  0.4107  0.5322  0.3249
 5326TIP3   OH237536   3.915   0.406   7.687  0.1647 -0.0261  0.3881
 5326TIP3    H137537   3.886   0.346   7.756 -0.8361  1.4576  1.3146
 5326TIP3    H237538   4.010   0.396   7.685  0.2394  0.0360  2.1356
 5327TIP3   OH237539   2.488   2.571   0.827 -0.0904  0.2625  0.4345
 5327TIP3    H137540   2.559   2.558   0.889  0.3030 -0.7302 -0.2107
 5327TIP3    H237541   2.424   2.503   0.848  0.4385 -0.6413 -0.7826
 5328TIP3   OH237542   4.713   5.691   0.094 -0.0023 -0.9470 -0.5213
 5328TIP3    H137543   4.648   5.679   0.025 -0.9954  0.9607 -0.0066
 5328TIP3    H237544   4.746   5.780   0.081  2.2339 -1.6926 -0.4899
 5329TIP3   OH237545   2.698   0.452   1.339  0.6059 -0.0812 -0.2097
 5329TIP3    H137546   2.792   0.444   1.325  0.8181  0.7434  0.6350
 5329TIP3    H237547   2.688   0.533   1.389 -0.6268  0.2165 -0.9081
 5330TIP3   OH237548   6.752   0.131   8.256 -0.2376 -0.1294  0.0298
 5330TIP3    H137549   6.799   0.056   8.220  2.4553  1.6117 -0.4062
 5330TIP3    H237550   6.728   0.184   8.179  1.9357  1.5966  0.4305
 5331TIP3   OH237551   0.832   5.417   8.559 -0.3078 -0.3104 -0.0062
 5331TIP3    H137552   0.803   5.337   8.516 -1.0782 -0.0894  0.0844
 5331TIP3    H237553   0.752   5.459   8.589  0.2235 -0.5761  1.8864
 5332TIP3   OH237554   6.118   1.011   8.267  0.2346 -0.5680  0.5734
 5332TIP3    H137555   6.045   1.064   8.236 -0.4455 -2.0590 -0.5020
 5332TIP3    H237556   6.078   0.944   8.322  1.0241 -0.3115  1.5057
 5333TIP3   OH237557   5.211   0.453   1.198  0.2963  0.2917 -0.1022
 5333TIP3    H137558   5.156   0.392   1.148 -0.8240 -0.0412  1.4682
 5333TIP3    H237559   5.259   0.398   1.259  0.8061  0.8063 -0.0330
 5334TIP3   OH237560   3.607   2.350   2.367  0.5604 -0.1303 -0.1703
 5334TIP3    H137561   3.588   2.443   2.363 -1.3926 -0.5156 -1.7823
 5334TIP3    H237562   3.668   2.340   2.440  0.5900  2.3420  0.2095
 5335TIP3   OH237563   1.575   3.642   0.376  0.1890  0.5305  0.1989
 5335TIP3    H137564   1.539   3.677   0.294  0.7072  1.1569  0.2301
 5335TIP3    H237565   1.547   3.705   0.443  0.5728  0.5361  0.3581
 5336TIP3   OH237566   5.515   0.889   0.809  0.2856  0.2210 -0.3257
 5336TIP3    H137567   5.430   0.851   0.833  0.1435  0.4933 -0.3961
 5336TIP3    H237568   5.532   0.857   0.721 -0.8948  2.0873 -1.3013
 5337TIP3   OH237569   4.282   1.124   8.064  0.3384 -0.1406  0.2132
 5337TIP3    H137570   4.316   1.205   8.025  1.0021 -0.2917  0.4604
 5337TIP3    H237571   4.286   1.060   7.993  0.9161 -0.2469  0.3376
 5338TIP3   OH237572   3.487   3.225   0.124 -0.2931  0.0720 -1.0734
 5338TIP3    H137573   3.438   3.251   0.202  0.4316  0.7195 -0.8174
 5338TIP3    H237574   3.507   3.307   0.079  1.2230 -0.0797 -0.7463
 5339TIP3   OH237575   5.982   0.476   7.765  0.4377 -0.1360 -0.4770
 5339TIP3    H137576   5.916   0.541   7.788  0.3619 -0.7741  1.2972
 5339TIP3    H237577   5.961   0.451   7.675 -0.5534  1.0609 -0.6018
 5340TIP3   OH237578   0.809   1.489   0.200 -0.1974 -0.4140  0.1939
 5340TIP3    H137579   0.830   1.503   0.292 -0.9452  1.4043  0.1407
 5340TIP3    H237580   0.730   1.435   0.201  0.4848 -1.4304  0.5656
 5341TIP3   OH237581   3.936   6.400   7.753  0.4817 -0.3396 -0.4498
 5341TIP3    H137582   4.006   6.378   7.815 -0.0669 -1.1448 -0.1123
 5341TIP3    H237583   3.910   6.489   7.777  0.1644 -0.7049  0.5865
 5342TIP3   OH237584   4.962   5.208   0.485  0.8173 -0.5952  0.4682
 5342TIP3    H137585   4.903   5.160   0.543 -0.4838 -0.9697 -1.0829
 5342TIP3    H237586   4.949   5.167   0.399  2.2515  0.3107 -0.2161
 5343TIP3   OH237587   2.918   1.727   0.516 -0.4031 -0.4904  0.5894
 5343TIP3    H137588   2.957   1.814   0.510 -1.0679 -0.0697  1.9572
 5343TIP3    H237589   2.987   1.668   0.484  0.3479  0.4478  0.4095
 5344TIP3   OH237590   0.589   3.253   1.620  0.0936 -0.1503 -0.3552
 5344TIP3    H137591   0.537   3.320   1.577 -0.4843 -0.7076 -0.5533
 5344TIP3    H237592   0.524   3.190   1.653  0.5336  0.0707  1.0125
 5345TIP3   OH237593   3.181   0.008   0.536  0.5034 -0.5177  0.1355
 5345TIP3    H137594   3.201  -0.055   0.467 -1.7130 -1.3296  0.1591
 5345TIP3    H237595   3.254   0.000   0.597  1.6376 -1.0380 -1.2342
 5346TIP3   OH237596   6.391   3.673   6.900  0.0462 -0.3495  0.6421
 5346TIP3    H137597   6.299   3.696   6.887 -0.1181  0.1514  2.4223
 5346TIP3    H237598   6.401   3.587   6.858 -0.2027  1.2440 -3.0443
 5347TIP3   OH237599   0.045   4.033   7.916  0.5199 -0.1650 -0.7117
 5347TIP3    H137600   0.136   4.045   7.942  0.2044 -2.5388  2.0115
 5347TIP3    H237601   0.047   3.961   7.853  0.4562 -1.5975  0.8457
 5348TIP3   OH237602   6.198   5.033   8.078 -0.0551 -0.5370  0.0833
 5348TIP3    H137603   6.248   4.952   8.068  0.2852 -0.2618 -0.4929
 5348TIP3    H237604   6.135   5.033   8.006 -0.0761 -0.3075  0.0992
 5349TIP3   OH237605   1.981   0.303   1.824  0.3347  0.4894  0.3417
 5349TIP3    H137606   1.988   0.393   1.794  1.9285 -0.8572 -4.0253
 5349TIP3    H237607   1.966   0.251   1.745  1.2430 -3.2934  2.3754
 5350TIP3   OH237608   0.212   2.901   8.214  0.3371 -0.4650  0.5915
 5350TIP3    H137609   0.260   2.852   8.148 -0.9577  1.0589 -1.6213
 5350TIP3    H237610   0.273   2.971   8.240  0.1621  0.1644 -0.5930
 5351TIP3   OH237611   2.276   4.064   0.095 -0.4983 -0.1080  0.3736
 5351TIP3    H137612   2.257   4.150   0.133  0.0498  0.9644 -1.6496
 5351TIP3    H237613   2.370   4.067   0.076 -0.4618 -1.1850  0.3602
 5352TIP3   OH237614   5.664   6.088   7.285 -0.3095 -0.5514 -0.0147
 5352TIP3    H137615   5.602   6.029   7.327 -1.0375 -0.7572 -1.3035
 5352TIP3    H237616   5.727   6.030   7.242  0.3148 -0.3493  0.6095
 5353TIP3   OH237617   2.457   1.024   0.497 -0.1520 -0.1544 -0.3259
 5353TIP3    H137618   2.486   1.101   0.446 -0.7997  0.1851 -0.1942
 5353TIP3    H237619   2.460   0.952   0.434 -1.0451  0.2811 -0.8951
 5354TIP3   OH237620   6.708   3.240   7.862  0.2438  0.6153  0.0041
 5354TIP3    H137621   6.645   3.184   7.817  0.7659  0.2801 -0.3256
 5354TIP3    H237622   6.703   3.213   7.954  1.1628 -0.6517 -0.2906
 5355TIP3   OH237623   3.061   0.352   8.525 -0.0949  0.6552 -0.3710
 5355TIP3    H137624   3.135   0.356   8.464  1.4742 -0.3564  1.3690
 5355TIP3    H237625   3.099   0.322   8.607 -2.5892 -0.7214  0.3853
 5356TIP3   OH237626   0.433   5.597   1.908  0.8628 -0.6154 -0.3027
 5356TIP3    H137627   0.451   5.650   1.986  0.5330  1.1408 -1.3755
 5356TIP3    H237628   0.511   5.605   1.854 -0.0795  0.7261 -1.5170
 5357TIP3   OH237629   5.635   6.405   7.951  0.1860 -0.5794  0.0402
 5357TIP3    H137630   5.602   6.368   7.870 -0.1684 -0.7517  0.2599
 5357TIP3    H237631   5.731   6.404   7.941  0.1382 -0.4520 -0.4349
 5358TIP3   OH237632   4.546   0.934   7.793  1.0655 -0.0038 -0.0155
 5358TIP3    H137633   4.557   0.868   7.725  0.3622  1.1761 -1.3308
 5358TIP3    H237634   4.634   0.964   7.813  1.2606 -0.2262 -0.5446
 5359TIP3   OH237635   0.299   3.912   2.170  0.0616  0.2769  0.0244
 5359TIP3    H137636   0.252   3.913   2.254  0.8125 -2.6292  0.5996
 5359TIP3    H237637   0.232   3.894   2.105 -0.2845  0.9430  0.1808
 5360TIP3   OH237638   1.605   1.785   2.739 -0.6608 -0.1557 -0.2508
 5360TIP3    H137639   1.601   1.793   2.644  0.9043 -2.1831 -0.5480
 5360TIP3    H237640   1.521   1.746   2.763 -1.2192  0.7201 -0.7259
 5361TIP3   OH237641   6.746   3.802   8.625 -0.4888 -0.3639 -0.4002
 5361TIP3    H137642   6.798   3.861   8.681 -1.5786 -0.8124  1.1648
 5361TIP3    H237643   6.777   3.820   8.536  1.6787  0.0342  0.3598
 5362TIP3   OH237644   5.336   2.567   0.636  0.4700 -0.4557 -0.0619
 5362TIP3    H137645   5.248   2.547   0.603  0.7862  0.3933 -1.5042
 5362TIP3    H237646   5.322   2.592   0.728 -0.5750 -1.9177  0.2046
 5363TIP3   OH237647   1.317   6.165   2.223  0.8930 -0.1301 -0.3393
 5363TIP3    H137648   1.363   6.100   2.170  2.7995 -0.0930  1.1572
 5363TIP3    H237649   1.338   6.141   2.313 -0.2514  1.2327  0.3210
 5364TIP3   OH237650   4.162   5.248   2.318 -0.1319 -0.5444  0.4069
 5364TIP3    H137651   4.223   5.173   2.314  1.6943  0.9050 -3.0549
 5364TIP3    H237652   4.092   5.225   2.258 -0.7417 -0.3689  1.0435
 5365TIP3   OH237653   2.843   1.026   1.773 -0.2900 -0.0485  0.1842
 5365TIP3    H137654   2.756   1.059   1.795  0.1426  1.6809 -0.5794
 5365TIP3    H237655   2.853   0.948   1.828 -1.0981  1.4342  2.5879
 5366TIP3   OH237656   1.025   3.636   2.770  0.0065  0.1194 -0.3618
 5366TIP3    H137657   1.053   3.545   2.777  0.6655  0.4157  3.2674
 5366TIP3    H237658   0.929   3.632   2.777 -0.4821 -0.4061 -4.7579
 5367TIP3   OH237659   0.925   5.747   1.250  0.2265 -0.3445 -0.1465
 5367TIP3    H137660   0.833   5.730   1.269  0.9387 -2.4068  1.9280
 5367TIP3    H237661   0.953   5.671   1.199  0.6107  0.6927 -1.5338
 5368TIP3   OH237662   1.899   4.952   0.416  0.2350  0.6900 -0.1841
 5368TIP3    H137663   1.909   4.958   0.511  1.2791  0.6893 -0.2822
 5368TIP3    H237664   1.919   4.860   0.395  1.0658  0.9332 -0.5093
 5369TIP3   OH237665   1.226   2.478   8.305  0.1089 -0.1171 -0.0406
 5369TIP3    H137666   1.182   2.548   8.353 -0.5670  1.2212 -2.4466
 5369TIP3    H237667   1.293   2.523   8.253 -1.7512 -0.8331 -3.2999
 5370TIP3   OH237668   5.698   3.091   2.086 -0.4961 -0.6447 -0.0083
 5370TIP3    H137669   5.681   3.184   2.072 -2.4655 -0.5192  2.4807
 5370TIP3    H237670   5.738   3.086   2.172 -0.1304 -2.1111 -0.2275
 5371TIP3   OH237671   4.796   6.486   1.655 -0.1993  0.2748  0.0459
 5371TIP3    H137672   4.707   6.458   1.632  0.3753 -0.3298 -1.5984
 5371TIP3    H237673   4.828   6.530   1.577  1.1533 -0.0366  0.4018
 5372TIP3   OH237674   1.845   6.096   1.171  0.0073  0.2426  0.2433
 5372TIP3    H137675   1.825   6.189   1.158  0.1012  0.3588  0.8714
 5372TIP3    H237676   1.871   6.090   1.263  0.2278 -0.3686  0.1462
 5373TIP3   OH237677   2.048   3.236   7.404  0.2960 -0.3594  0.0696
 5373TIP3    H137678   2.080   3.193   7.325 -0.5023 -0.1623 -0.3735
 5373TIP3    H237679   1.971   3.286   7.375  0.2461  0.0591  0.8844
 5374TIP3   OH237680   3.838   3.843   7.128  0.5274 -0.2903  0.2347
 5374TIP3    H137681   3.911   3.822   7.069 -0.0241 -1.4636 -0.0507
 5374TIP3    H237682   3.803   3.925   7.093  0.4209 -0.7983 -0.8938
 5375TIP3   OH237683   2.596   3.971   0.783 -0.4520  0.2713 -0.0547
 5375TIP3    H137684   2.645   4.036   0.834 -1.9735  1.0537  0.4657
 5375TIP3    H237685   2.644   3.965   0.700 -1.1065  3.2927 -0.7782
 5376TIP3   OH237686   6.441   5.557   1.718  0.2596 -0.2974  0.1806
 5376TIP3    H137687   6.470   5.483   1.664  0.7906 -0.2555  0.4047
 5376TIP3    H237688   6.518   5.614   1.724  0.4660 -0.6957  1.6507
 5377TIP3   OH237689   5.840   4.335   1.939  0.2163 -0.4650 -0.6521
 5377TIP3    H137690   5.935   4.335   1.927  0.3714 -1.3854  0.3730
 5377TIP3    H237691   5.826   4.281   2.017 -0.9391  1.9645  0.9384
 5378TIP3   OH237692   5.107   3.727   1.458 -0.9035  0.6304 -0.3943
 5378TIP3    H137693   5.199   3.755   1.453 -0.8204  0.0774 -2.7603
 5378TIP3    H237694   5.060   3.790   1.404 -1.8719  0.5919  0.3838
 5379TIP3   OH237695   6.419   0.180   1.531 -0.0253  0.2880  0.1594
 5379TIP3    H137696   6.333   0.163   1.568 -0.1200  1.8265  0.7061
 5379TIP3    H237697   6.476   0.193   1.608  0.1459  1.7672 -0.1918
 5380TIP3   OH237698   1.036   4.461   7.242 -0.0015 -0.0011 -0.7805
 5380TIP3    H137699   1.083   4.521   7.300  0.6162 -0.9318 -0.2923
 5380TIP3    H237700   1.030   4.508   7.159 -0.4105  1.1258 -0.1250
 5381TIP3   OH237701   0.405   0.957   8.399 -0.5172 -0.6075 -0.0522
 5381TIP3    H137702   0.473   0.977   8.336 -0.7081  1.5256  0.3419
 5381TIP3    H237703   0.452   0.925   8.476 -0.1112 -0.9700 -0.4473
 5382TIP3   OH237704   0.103   3.826   2.004  0.7380 -0.2307 -0.2230
 5382TIP3    H137705   0.081   3.734   2.012  1.8317 -0.3757  1.4594
 5382TIP3    H237706   0.102   3.843   1.909 -0.6086 -1.6511 -0.4958
 5383TIP3   OH237707   2.719   5.215   0.302  0.4749 -0.8740  0.3093
 5383TIP3    H137708   2.647   5.180   0.354 -0.6650 -1.7954 -1.7249
 5383TIP3    H237709   2.732   5.304   0.333 -0.9733 -0.9912  1.3017
 5384TIP3   OH237710   2.830   5.908   1.033  0.5005  0.2737 -0.6127
 5384TIP3    H137711   2.781   5.830   1.007  2.2857 -1.0072 -0.2881
 5384TIP3    H237712   2.767   5.980   1.025 -1.0010 -1.0930 -1.5521
 5385TIP3   OH237713   4.968   2.890   7.951 -0.6662 -0.4599 -0.7362
 5385TIP3    H137714   4.942   2.799   7.961  0.1471 -0.5473  0.9907
 5385TIP3    H237715   5.056   2.894   7.988 -0.7349  1.0449 -0.6624
 5386TIP3   OH237716   3.645   1.832   1.994 -0.4610 -0.3782  0.4370
 5386TIP3    H137717   3.570   1.834   2.053 -1.5167 -0.1298 -0.8822
 5386TIP3    H237718   3.633   1.753   1.941 -0.4113  0.2694 -0.5629
 5387TIP3   OH237719   3.420   0.217   7.670 -0.0657 -0.6204 -0.2793
 5387TIP3    H137720   3.480   0.290   7.656 -0.0359 -0.6393 -0.2479
 5387TIP3    H237721   3.453   0.173   7.748  0.4085 -1.1744 -0.7877
 5388TIP3   OH237722   3.558   3.482   1.661 -0.5878  0.4974  0.6303
 5388TIP3    H137723   3.476   3.473   1.708 -0.7528  0.4567  0.3348
 5388TIP3    H237724   3.539   3.451   1.573 -0.3300  0.7494  0.4840
 5389TIP3   OH237725   2.679   0.248   8.132  0.3199 -0.3016  0.4296
 5389TIP3    H137726   2.639   0.335   8.134  2.6396  0.9833 -2.1249
 5389TIP3    H237727   2.707   0.232   8.222  2.1625  2.8758  0.5854
 5390TIP3   OH237728   4.565   4.619   2.190  0.2611  0.2768  0.3118
 5390TIP3    H137729   4.609   4.539   2.161  2.1386  1.2474  0.3732
 5390TIP3    H237730   4.520   4.593   2.270  1.0267 -0.6727  0.4531
 5391TIP3   OH237731   3.398   2.095   7.447 -0.4578  0.6129  0.4538
 5391TIP3    H137732   3.487   2.080   7.416  0.0698 -0.6885  2.4594
 5391TIP3    H237733   3.374   2.181   7.411  1.5227  0.9282 -0.2284
 5392TIP3   OH237734   0.519   1.665   1.011 -0.1973 -0.1109 -1.0179
 5392TIP3    H137735   0.513   1.740   1.070  0.8338 -0.6824 -0.1463
 5392TIP3    H237736   0.566   1.698   0.934  1.9775 -0.2696  0.1589
 5393TIP3   OH237737   1.554   1.282   1.373  0.8742 -0.2240  0.0456
 5393TIP3    H137738   1.481   1.248   1.321 -1.3300 -0.4290  2.9923
 5393TIP3    H237739   1.576   1.211   1.433  2.2877  0.4742  0.3864
 5394TIP3   OH237740   3.052   2.765   1.258  0.2351 -0.1602 -0.0698
 5394TIP3    H137741   3.053   2.685   1.206  0.3749 -0.4689  0.4071
 5394TIP3    H237742   2.996   2.825   1.208 -0.2440 -0.7082 -0.1944
 5395TIP3   OH237743   0.430   4.590   8.012  0.4197  0.0149  0.7602
 5395TIP3    H137744   0.463   4.521   7.955  1.2265  0.4960  0.6177
 5395TIP3    H237745   0.415   4.547   8.096 -0.7895 -0.7025  0.1958
 5396TIP3   OH237746   4.211   2.269   0.053  0.3152  0.6736 -0.2952
 5396TIP3    H137747   4.248   2.358   0.050 -0.6729  1.0770 -1.6662
 5396TIP3    H237748   4.136   2.276   0.112  1.8011  0.0637  1.7747
 5397TIP3   OH237749   6.051   4.836   6.802  0.4044 -0.5337  0.2764
 5397TIP3    H137750   6.084   4.755   6.763  1.6462  0.2061 -0.2662
 5397TIP3    H237751   6.120   4.864   6.862 -0.1228 -0.0066  0.6482
 5398TIP3   OH237752   2.098   3.828   8.069 -0.1233 -0.1668  0.6486
 5398TIP3    H137753   2.011   3.799   8.042 -0.0865 -0.2462  0.6128
 5398TIP3    H237754   2.096   3.923   8.061  0.4946 -0.2951 -1.5185
 5399TIP3   OH237755   6.854   6.066   8.329 -0.0105 -0.0910 -0.0060
 5399TIP3    H137756   6.797   6.025   8.265 -0.2461 -0.9887  0.7623
 5399TIP3    H237757   6.799   6.133   8.370 -0.6887 -1.2379  1.0309
 5400TIP3   OH237758   5.297   5.145   0.939  0.1803  0.0520  0.3672
 5400TIP3    H137759   5.391   5.157   0.946  0.1136 -0.2100  2.4465
 5400TIP3    H237760   5.285   5.051   0.930  0.1202  0.1155 -0.2559
 5401TIP3   OH237761   3.084   2.137   1.219  0.2131  0.3879 -0.5148
 5401TIP3    H137762   3.056   2.157   1.129 -0.6079  0.4296 -0.2570
 5401TIP3    H237763   3.020   2.182   1.274  0.7763  0.4445  0.0916
 5402TIP3   OH237764   5.699   0.667   8.011  0.1079 -0.6307 -0.4264
 5402TIP3    H137765   5.652   0.663   8.094  0.8763  1.9471  0.2381
 5402TIP3    H237766   5.789   0.643   8.033  0.5845  1.1899 -0.1863
 5403TIP3   OH237767   0.166   1.583   1.034 -0.1646  0.8764 -0.5545
 5403TIP3    H137768   0.105   1.551   1.101  1.2630  0.3196  0.5634
 5403TIP3    H237769   0.142   1.536   0.955  0.5701 -1.6018  0.5613
 5404TIP3   OH237770   6.516   0.453   8.484  0.2411  0.8352  0.0229
 5404TIP3    H137771   6.468   0.419   8.409 -0.7254  0.3744  0.8274
 5404TIP3    H237772   6.586   0.390   8.499 -1.8734 -1.2766  1.8685
 5405TIP3   OH237773   1.535   5.531   0.720  0.0394  1.0597  0.1220
 5405TIP3    H137774   1.620   5.532   0.763  0.0516 -0.4940  0.2144
 5405TIP3    H237775   1.554   5.504   0.630 -0.4150 -0.1432  0.3671
 5406TIP3   OH237776   2.295   3.102   0.954  0.5238  0.3654 -0.6634
 5406TIP3    H137777   2.213   3.136   0.991  0.1808 -2.6901  1.8510
 5406TIP3    H237778   2.358   3.113   1.025  1.2374 -0.9871 -1.0705
 5407TIP3   OH237779   5.208   5.358   0.558 -0.0342 -0.1188 -0.0116
 5407TIP3    H137780   5.146   5.285   0.559  0.2118 -0.3239  1.1241
 5407TIP3    H237781   5.293   5.319   0.576 -0.0929  0.5898  2.0359
 5408TIP3   OH237782   5.701   0.960   8.141 -0.1734 -0.0751  0.3092
 5408TIP3    H137783   5.615   0.989   8.173 -0.5503  0.5866 -1.2039
 5408TIP3    H237784   5.764   1.014   8.188 -0.7900  2.0516 -1.1610
 5409TIP3   OH237785   6.345   2.496   0.309  0.0867 -0.0282  0.6379
 5409TIP3    H137786   6.324   2.580   0.350 -1.2478  1.0076 -1.9606
 5409TIP3    H237787   6.411   2.517   0.243 -1.1262 -0.7487 -0.8561
 5410TIP3   OH237788   5.078   3.871   7.816  0.2028 -0.1673  0.3422
 5410TIP3    H137789   5.024   3.949   7.809  1.1591  0.8308  2.9117
 5410TIP3    H237790   5.076   3.832   7.728 -2.1456  1.4575 -0.4074
 5411TIP3   OH237791   3.645   5.397   7.526  0.3133 -0.4803  0.2191
 5411TIP3    H137792   3.607   5.373   7.610 -0.8742 -0.8588 -0.4108
 5411TIP3    H237793   3.721   5.339   7.517  1.2872  0.5030  1.6306
 5412TIP3   OH237794   1.506   0.620   7.406  0.1548  0.1556  0.1726
 5412TIP3    H137795   1.580   0.665   7.365 -0.5526 -1.0002 -2.6092
 5412TIP3    H237796   1.448   0.691   7.435  2.0173  1.0617  1.9048
 5413TIP3   OH237797   0.327   6.673   2.089 -0.2738 -0.2817  0.4104
 5413TIP3    H137798   0.295   6.613   2.021 -2.8976  0.3609  0.9733
 5413TIP3    H237799   0.356   6.751   2.041  1.1692 -1.1270 -0.1614
 5414TIP3   OH237800   3.665   3.388   8.255 -0.4129  0.0880  0.5385
 5414TIP3    H137801   3.651   3.308   8.205 -0.6540  0.4935 -0.0691
 5414TIP3    H237802   3.753   3.379   8.292  0.1094  0.1184 -0.6438
 5415TIP3   OH237803   5.473   1.525   7.911  0.6291  0.0031  0.3156
 5415TIP3    H137804   5.486   1.526   7.816  0.0351  1.4294  0.2275
 5415TIP3    H237805   5.561   1.538   7.947  0.7772  0.0013 -0.0363
 5416TIP3   OH237806   3.270   0.572   7.316  0.2160 -0.1905 -0.0752
 5416TIP3    H137807   3.177   0.593   7.314  0.0849 -0.7922 -1.3413
 5416TIP3    H237808   3.307   0.632   7.381 -0.7072  1.5317 -1.0715
 5417TIP3   OH237809   6.781   5.515   0.483  0.4389  0.1486 -0.1888
 5417TIP3    H137810   6.783   5.597   0.433 -0.6632 -0.5675 -1.4910
 5417TIP3    H237811   6.872   5.487   0.485  0.4763 -0.0856 -2.3740
 5418TIP3   OH237812   2.836   4.566   1.453  0.1920  0.5736 -0.7568
 5418TIP3    H137813   2.880   4.496   1.404 -1.5310 -1.0945 -0.0360
 5418TIP3    H237814   2.743   4.556   1.431 -0.2579  1.7602  0.4494
 5419TIP3   OH237815   1.596   2.620   1.305  0.4950 -0.1758 -0.6078
 5419TIP3    H137816   1.627   2.658   1.222  1.5738 -0.1732 -0.2199
 5419TIP3    H237817   1.510   2.584   1.284  0.3291  0.6817 -1.4905
 5420TIP3   OH237818   1.566   3.839   2.148 -0.4830  0.2456  0.2987
 5420TIP3    H137819   1.580   3.866   2.239  1.2143  1.0910 -0.1607
 5420TIP3    H237820   1.485   3.883   2.122 -0.8930  0.1297  1.3506
 5421TIP3   OH237821   4.985   0.093   0.689  0.3725  0.3024  0.8272
 5421TIP3    H137822   4.961   0.171   0.739  1.0526  0.0373  1.5949
 5421TIP3    H237823   4.967   0.021   0.749  0.3088 -0.0960  0.3350
 5422TIP3   OH237824   4.132   0.213   2.683  0.0609 -0.1028  0.1905
 5422TIP3    H137825   4.074   0.288   2.699  0.2467  0.2275 -0.6048
 5422TIP3    H237826   4.079   0.152   2.633  0.1868 -0.1001  0.0524
 5423TIP3   OH237827   4.241   1.468   8.426  0.3721  0.4163  0.6280
 5423TIP3    H137828   4.146   1.483   8.423  0.2705  0.0003  1.5228
 5423TIP3    H237829   4.251   1.377   8.399  0.7301  1.0676 -1.6867
 5424TIP3   OH237830   3.642   5.944   0.203 -0.2710  0.2938 -0.1498
 5424TIP3    H137831   3.669   5.978   0.288  0.6424  0.7479 -0.6072
 5424TIP3    H237832   3.716   5.961   0.146 -1.3469  1.1618 -1.3543
 5425TIP3   OH237833   2.821   5.922   1.607  0.7971 -0.0310  0.2215
 5425TIP3    H137834   2.841   5.913   1.514  1.1750  0.9795  0.1933
 5425TIP3    H237835   2.873   5.997   1.636 -0.1907  0.3825  0.9890
 5426TIP3   OH237836   6.670   0.599   1.489 -0.1801 -0.1579 -0.8279
 5426TIP3    H137837   6.656   0.600   1.584  1.3766  0.9107 -0.5607
 5426TIP3    H237838   6.621   0.675   1.457 -0.7770 -0.5696 -0.8943
 5427TIP3   OH237839   2.578   2.952   2.833  0.4236  0.0851 -0.2830
 5427TIP3    H137840   2.597   2.880   2.773  1.5254  0.5674 -0.5345
 5427TIP3    H237841   2.663   2.977   2.868  0.2736  2.2776 -1.3537
 5428TIP3   OH237842   4.149   6.585   1.742  0.7143  0.2244  0.3069
 5428TIP3    H137843   4.173   6.540   1.823  0.0559  0.3117  0.5658
 5428TIP3    H237844   4.062   6.550   1.720  0.3184  1.1382  0.3584
 5429TIP3   OH237845   5.654   3.869   2.065  0.1406  0.2870  0.5075
 5429TIP3    H137846   5.671   3.962   2.052  2.6434 -0.1516  0.0763
 5429TIP3    H237847   5.660   3.857   2.160  0.5279  0.4627  0.5085
 5430TIP3   OH237848   5.577   6.655   0.446 -0.3851  0.2274 -0.1801
 5430TIP3    H137849   5.625   6.622   0.522  1.1035 -0.7309 -1.4701
 5430TIP3    H237850   5.623   6.736   0.422 -0.7484  0.4429 -0.1550
 5431TIP3   OH237851   3.161   2.224   0.952  0.5971  0.7474 -0.4964
 5431TIP3    H137852   3.246   2.219   0.995 -0.5209 -2.2127  1.7147
 5431TIP3    H237853   3.145   2.317   0.941  2.6224  1.5503  2.2186
 5432TIP3   OH237854   4.913   1.640   0.592  0.2304 -0.1211  0.1744
 5432TIP3    H137855   4.892   1.570   0.654  0.7025  0.4164  0.9662
 5432TIP3    H237856   4.840   1.641   0.530  0.3910 -1.5380 -0.0578
 5433TIP3   OH237857   3.375   2.149   1.092  0.3588  0.8616  0.4910
 5433TIP3    H137858   3.311   2.082   1.116  0.9337  0.1498  0.0668
 5433TIP3    H237859   3.438   2.150   1.165  0.6157  0.5979  0.2744
 5434TIP3   OH237860   3.069   4.663   8.514 -0.0788 -0.3285 -0.1302
 5434TIP3    H137861   3.155   4.702   8.496  0.4668 -2.5444 -3.0054
 5434TIP3    H237862   3.085   4.601   8.585  0.0410  1.0326  1.1101
 5435TIP3   OH237863   6.753   0.961   8.335 -0.3869 -0.1571  0.3683
 5435TIP3    H137864   6.694   1.035   8.323 -1.0159 -0.9966 -2.4343
 5435TIP3    H237865   6.696   0.888   8.358 -0.0386 -0.3125  0.7662
 5436TIP3   OH237866   2.962   1.524   1.030 -0.5243 -0.7214  0.1785
 5436TIP3    H137867   2.873   1.490   1.029  0.0880 -2.5298 -2.1882
 5436TIP3    H237868   2.967   1.580   0.953  0.2010  0.0459  0.7567
 5437TIP3   OH237869   4.266   2.522   0.083  0.3726  0.5691  0.6540
 5437TIP3    H137870   4.261   2.537   0.177  0.6681  0.4400  0.6921
 5437TIP3    H237871   4.360   2.520   0.064  0.3602 -0.7474  0.5823
 5438TIP3   OH237872   2.445   4.567   0.294 -0.4059  0.0657  0.0472
 5438TIP3    H137873   2.497   4.510   0.351 -1.0380 -2.1000 -1.4121
 5438TIP3    H237874   2.479   4.655   0.311  3.8017 -1.1364 -0.7977
 5439TIP3   OH237875   4.137   6.867   0.425 -0.2197  0.0809 -0.2846
 5439TIP3    H137876   4.122   6.777   0.397 -1.0555 -0.1179  0.7378
 5439TIP3    H237877   4.051   6.898   0.453  0.3003  0.7763  0.5794
 5440TIP3   OH237878   1.665   1.863   7.486 -0.0576  0.1381 -0.2192
 5440TIP3    H137879   1.700   1.787   7.439  0.3423 -0.3470  0.8254
 5440TIP3    H237880   1.717   1.867   7.566  1.3542  2.7275 -1.1152
 5441TIP3   OH237881   3.159   2.168   1.667 -0.4099  0.3042  0.2565
 5441TIP3    H137882   3.070   2.169   1.632 -0.7951  0.0971  1.1859
 5441TIP3    H237883   3.160   2.092   1.726  0.7183 -0.3525 -0.5628
 5442TIP3   OH237884   0.052   0.848   7.540  0.6742  0.4947  0.2369
 5442TIP3    H137885   0.108   0.923   7.522 -0.9189  1.2928 -1.9088
 5442TIP3    H237886   0.086   0.779   7.482  0.7774  0.2825  0.5517
 5443TIP3   OH237887   2.005   4.449   8.516 -0.3644  0.1131 -0.1184
 5443TIP3    H137888   1.928   4.459   8.461 -0.1395  0.4510 -0.3692
 5443TIP3    H237889   2.031   4.357   8.505 -1.9558 -0.6125  1.5848
 5444TIP3   OH237890   5.671   0.676   6.834 -0.2699  0.5092 -0.2827
 5444TIP3    H137891   5.731   0.723   6.892  1.7881 -0.9345 -1.0916
 5444TIP3    H237892   5.700   0.585   6.838  0.4400  0.4045 -3.9578
 5445TIP3   OH237893   3.408   6.164   8.149 -0.2601  1.0529 -0.0723
 5445TIP3    H137894   3.459   6.244   8.160  2.3300 -0.1967 -1.8643
 5445TIP3    H237895   3.454   6.098   8.202  0.9568 -0.3995 -2.6998
 5446TIP3   OH237896   2.018   3.250   0.466  0.0988 -0.2956  0.6391
 5446TIP3    H137897   2.059   3.282   0.386 -1.5867  2.3671  0.7293
 5446TIP3    H237898   2.090   3.244   0.529  0.8634  1.3152 -0.0263
 5447TIP3   OH237899   1.997   4.661   1.198  0.0445 -0.4593 -0.3545
 5447TIP3    H137900   1.961   4.681   1.285 -0.2624 -1.9076 -0.1351
 5447TIP3    H237901   1.920   4.640   1.145  0.2725  0.0114 -0.8807
 5448TIP3   OH237902   2.325   5.644   2.032 -0.1212  0.1652 -0.5748
 5448TIP3    H137903   2.286   5.644   2.120  0.3600 -0.4321 -0.3528
 5448TIP3    H237904   2.321   5.553   2.004  0.5461  0.2004 -0.8015
 5449TIP3   OH237905   1.243   6.002   0.779  0.2883 -0.1500  0.4022
 5449TIP3    H137906   1.309   6.037   0.720  0.6428  0.3591  1.0942
 5449TIP3    H237907   1.264   5.909   0.787 -0.5730 -0.5246 -1.3273
 5450TIP3   OH237908   6.507   5.760   1.976  0.7366 -0.1015 -0.1004
 5450TIP3    H137909   6.465   5.843   1.953  0.8525 -0.1103 -0.3449
 5450TIP3    H237910   6.434   5.704   2.003  0.2338 -0.9364 -2.8690
 5451TIP3   OH237911   2.433   6.438   1.087 -0.0416  0.0943  0.5194
 5451TIP3    H137912   2.404   6.521   1.050 -1.8453 -0.6856  0.0592
 5451TIP3    H237913   2.526   6.435   1.068 -0.0373  1.7701  0.0883
 5452TIP3   OH237914   3.078   2.297   7.779 -0.0952 -0.0463  0.1458
 5452TIP3    H137915   3.087   2.340   7.694  2.4145 -0.0824  0.3286
 5452TIP3    H237916   3.136   2.220   7.773 -1.9532 -1.6060  0.9690
 5453TIP3   OH237917   6.344   0.909   8.118 -0.0250  0.0293 -0.4701
 5453TIP3    H137918   6.396   0.985   8.093  0.7453  0.1604  1.3262
 5453TIP3    H237919   6.264   0.946   8.156  0.4823 -0.0025  0.6854
 5454TIP3   OH237920   6.277   0.733   1.892  0.1117 -0.2823  0.0349
 5454TIP3    H137921   6.324   0.778   1.822  1.7693 -2.3788 -0.3198
 5454TIP3    H237922   6.207   0.686   1.846 -1.9048  2.1277  0.4566
 5455TIP3   OH237923   3.471   0.621   8.632 -0.1947  0.1139 -0.2823
 5455TIP3    H137924   3.409   0.627   8.704  1.2694  0.3103  1.0143
 5455TIP3    H237925   3.515   0.706   8.631  1.1533 -0.5603 -0.1188
 5456TIP3   OH237926   5.013   2.738   8.258  0.4675 -0.4131  0.0163
 5456TIP3    H137927   5.039   2.827   8.231 -1.9013  1.3742  2.9591
 5456TIP3    H237928   4.918   2.738   8.248  0.4826 -3.0269 -0.7288
 5457TIP3   OH237929   4.798   2.622   1.433  0.2319 -0.7169  0.1455
 5457TIP3    H137930   4.712   2.624   1.476  0.2168 -1.8698  0.2105
 5457TIP3    H237931   4.860   2.638   1.504  0.1065 -0.6614  0.2433
 5458TIP3   OH237932   2.729   4.963   0.974  0.2128  0.0112  0.7677
 5458TIP3    H137933   2.745   4.890   1.034 -2.5905  0.5594  2.3415
 5458TIP3    H237934   2.640   4.950   0.943  1.5765 -0.3902 -3.7126
 5459TIP3   OH237935   3.032   3.109   0.662 -0.7411 -0.9659 -0.6531
 5459TIP3    H137936   2.964   3.169   0.633 -0.7503 -0.6404  0.0164
 5459TIP3    H237937   3.000   3.075   0.746  0.2273 -0.2624  0.0296
 5460TIP3   OH237938   4.284   0.740   0.092  0.0520  0.2513  0.4235
 5460TIP3    H137939   4.228   0.669   0.061  1.6161 -0.7324 -0.2898
 5460TIP3    H237940   4.249   0.763   0.178 -0.2108 -1.7396  0.9102
 5461TIP3   OH237941   4.516   6.821   0.948  0.3970  0.4059 -0.6902
 5461TIP3    H137942   4.455   6.879   0.993 -0.6484  1.0705 -2.8247
 5461TIP3    H237943   4.596   6.824   1.001 -0.8480  0.7876  1.2918
 5462TIP3   OH237944   0.792   5.436   7.305  0.7117  0.2774 -0.1080
 5462TIP3    H137945   0.837   5.385   7.237  1.2555  2.0824 -1.1756
 5462TIP3    H237946   0.864   5.474   7.356  0.3059 -1.0472  1.5175
 5463TIP3   OH237947   5.094   0.370   0.785  0.4403 -0.1279 -0.1549
 5463TIP3    H137948   5.101   0.464   0.768 -0.8170  0.3664  1.7285
 5463TIP3    H237949   5.001   0.356   0.804  0.5198 -1.8589 -0.7856
 5464TIP3   OH237950   5.309   0.141   0.494  0.1764  0.1653 -0.6296
 5464TIP3    H137951   5.324   0.107   0.406 -1.8107 -0.4580 -0.7661
 5464TIP3    H237952   5.242   0.208   0.483 -0.2120 -0.0328  0.4165
 5465TIP3   OH237953   1.213   5.768   0.203 -0.1047  0.0862 -0.7839
 5465TIP3    H137954   1.180   5.856   0.221 -2.0174 -0.7408  0.0501
 5465TIP3    H237955   1.229   5.731   0.290 -1.5626 -1.1685 -1.0210
 5466TIP3   OH237956   2.479   1.413   1.777 -0.6342  0.5321  0.6306
 5466TIP3    H137957   2.570   1.406   1.805 -0.9109  2.0976  2.0582
 5466TIP3    H237958   2.433   1.345   1.827 -0.3825  0.2298  0.4582
 5467TIP3   OH237959   1.380   3.451   0.661 -0.0952  0.3913  0.0069
 5467TIP3    H137960   1.390   3.454   0.756 -0.5592  1.3404  0.0343
 5467TIP3    H237961   1.395   3.359   0.638  1.2125  0.3651  0.8520
 5468TIP3   OH237962   3.114   2.471   7.551 -0.4623 -0.3805  0.1479
 5468TIP3    H137963   3.030   2.495   7.514 -1.5381  0.5664  2.9321
 5468TIP3    H237964   3.163   2.434   7.478 -2.5717  0.7841 -1.9934
 5469TIP3   OH237965   6.816   5.301   1.175  0.3907  0.0206  0.2840
 5469TIP3    H137966   6.766   5.239   1.227  1.9227 -0.2292  1.5436
 5469TIP3    H237967   6.805   5.384   1.220 -0.9223  0.5282 -0.8939
 5470TIP3   OH237968   4.923   6.000   2.645  0.0313 -0.2754 -0.1134
 5470TIP3    H137969   4.927   5.905   2.631  0.3145 -0.5525  1.5774
 5470TIP3    H237970   5.012   6.030   2.630  0.8217 -0.8785  2.7439
 5471TIP3   OH237971   3.596   6.350   8.187 -0.3524  0.4306 -0.0101
 5471TIP3    H137972   3.680   6.367   8.229 -0.2316  0.9494 -0.4601
 5471TIP3    H237973   3.616   6.339   8.095 -0.3488 -2.5993  0.2427
 5472TIP3   OH237974   3.659   4.236   1.644  0.3116  1.0114 -0.1399
 5472TIP3    H137975   3.584   4.190   1.681  0.0540  0.8414 -0.8671
 5472TIP3    H237976   3.729   4.170   1.642  0.2706  0.9678 -0.1321
 5473TIP3   OH237977   2.817   3.237   8.140  0.5366 -0.6220  0.4063
 5473TIP3    H137978   2.751   3.227   8.209  0.7019 -0.2177  0.6239
 5473TIP3    H237979   2.866   3.154   8.142 -0.0067 -0.9517  0.1926
 5474TIP3   OH237980   6.507   6.665   7.278  0.3036  0.3129  0.1622
 5474TIP3    H137981   6.562   6.743   7.287 -1.7744  1.8275  0.3045
 5474TIP3    H237982   6.466   6.674   7.192 -0.6763 -0.1168  0.5645
 5475TIP3   OH237983   1.335   2.483   0.769 -0.1726  0.1381  0.2609
 5475TIP3    H137984   1.302   2.532   0.844  0.5252  0.4590  0.3595
 5475TIP3    H237985   1.362   2.550   0.706 -0.9801 -0.1238 -0.3928
 5476TIP3   OH237986   4.999   1.015   2.340  0.3926  0.1708  0.3739
 5476TIP3    H137987   4.927   1.011   2.403  0.3824  0.1441  0.3605
 5476TIP3    H237988   5.069   0.963   2.380  1.0733  1.6901  1.2543
 5477TIP3   OH237989   0.207   1.151   1.232 -0.4027 -0.3137 -0.3522
 5477TIP3    H137990   0.253   1.070   1.212  0.1674 -0.0540 -0.1230
 5477TIP3    H237991   0.245   1.180   1.315 -1.4919 -0.4727  0.2206
 5478TIP3   OH237992   2.678   6.365   0.069  0.1860  0.2785 -0.3179
 5478TIP3    H137993   2.679   6.441   0.127  0.9628 -0.1702  0.2738
 5478TIP3    H237994   2.692   6.400  -0.018  0.4538  0.8200 -0.0559
 5479TIP3   OH237995   2.660   1.564   1.286 -0.2767  0.1173 -0.1233
 5479TIP3    H137996   2.610   1.535   1.363 -2.8477  4.9408  0.4508
 5479TIP3    H237997   2.740   1.601   1.323 -0.9143  1.2657  0.1435
 5480TIP3   OH237998   5.152   5.078   1.577 -0.1297 -0.2614 -0.6395
 5480TIP3    H137999   5.153   5.161   1.530  1.0627 -0.0490 -0.2718
 5480TIP3    H238000   5.061   5.048   1.572 -0.6591  1.2460 -0.4437
 5481TIP3   OH238001   2.745   5.274   7.838 -0.1337  0.3791  0.2315
 5481TIP3    H138002   2.831   5.231   7.835 -0.7463 -0.9043  0.1914
 5481TIP3    H238003   2.697   5.228   7.907 -2.0141 -1.4699 -2.0757
 5482TIP3   OH238004   0.645   5.839   2.239 -0.4644  0.3334 -0.8822
 5482TIP3    H138005   0.688   5.924   2.238  2.4744 -1.0256 -0.4214
 5482TIP3    H238006   0.678   5.795   2.160 -1.7926 -0.4817 -1.0202
 5483TIP3   OH238007   2.520   3.522   7.836  0.2196  0.0595  0.0335
 5483TIP3    H138008   2.547   3.574   7.912  0.9780 -1.2328  0.6722
 5483TIP3    H238009   2.434   3.558   7.812 -0.9860 -0.7420  2.7254
 5484TIP3   OH238010   3.920   6.334   1.811 -0.9107 -0.5830 -0.3337
 5484TIP3    H138011   3.925   6.398   1.882  0.2277  0.4701 -1.3161
 5484TIP3    H238012   3.939   6.250   1.852 -0.0776  0.0382  0.5821
 5485TIP3   OH238013   1.485   5.013   1.526 -0.6131  0.0489  0.4265
 5485TIP3    H138014   1.580   5.027   1.529 -0.4710 -0.6499 -0.3100
 5485TIP3    H238015   1.454   5.074   1.458 -0.6566  0.0951  0.4877
 5486TIP3   OH238016   4.485   3.092   0.785  0.3477 -0.0467 -0.3516
 5486TIP3    H138017   4.557   3.116   0.727  1.5313 -1.8281  0.3285
 5486TIP3    H238018   4.513   3.123   0.871 -0.5357  0.8375 -0.3590
 5487TIP3   OH238019   0.577   4.841   6.954 -0.5242 -0.4591 -0.6898
 5487TIP3    H138020   0.588   4.751   6.925 -1.8287 -0.9373  0.1650
 5487TIP3    H238021   0.650   4.888   6.916 -0.8638 -1.4911 -2.7563
 5488TIP3   OH238022   0.861   6.669   0.738 -0.5225 -0.5047  0.2786
 5488TIP3    H138023   0.889   6.578   0.735 -0.9760 -0.6392 -0.0798
 5488TIP3    H238024   0.920   6.714   0.677 -0.6899 -0.6737 -0.0118
 5489TIP3   OH238025   3.384   3.569   8.031  1.4241  0.3959 -0.0391
 5489TIP3    H138026   3.353   3.567   7.940 -0.8758  0.8265  0.6849
 5489TIP3    H238027   3.347   3.491   8.072  0.5749  1.3529  1.0733
 5490TIP3   OH238028   4.160   5.985   2.489  0.7797 -0.3300 -0.9406
 5490TIP3    H138029   4.202   6.071   2.491 -1.9337  1.1241 -0.9761
 5490TIP3    H238030   4.194   5.943   2.410  1.5851  1.0262 -1.3533
 5491TIP3   OH238031   1.808   1.917   0.265  0.0036  0.0982 -0.5715
 5491TIP3    H138032   1.855   1.979   0.211  0.5206  0.6127  0.4348
 5491TIP3    H238033   1.836   1.831   0.234 -0.7688  0.3433 -2.0116
 5492TIP3   OH238034   2.296   3.300   1.576  0.2159 -0.2284  0.1687
 5492TIP3    H138035   2.312   3.286   1.483 -0.8307 -0.5433  0.0154
 5492TIP3    H238036   2.201   3.291   1.585 -0.0591  2.5647  0.8046
 5493TIP3   OH238037   2.094   0.113   0.373 -0.1070 -0.5213  0.2094
 5493TIP3    H138038   2.121   0.022   0.374  0.6564 -0.3042 -0.1371
 5493TIP3    H238039   2.003   0.111   0.341 -0.3806 -1.2164  0.9997
 5494TIP3   OH238040   3.926   6.849   7.159 -0.5684  0.5587  0.4540
 5494TIP3    H138041   4.007   6.799   7.162 -1.7219 -1.9680 -3.0719
 5494TIP3    H238042   3.858   6.786   7.184 -1.8472  0.9958 -1.6721
 5495TIP3   OH238043   5.807   2.529   0.338 -0.6631 -0.0143 -0.0088
 5495TIP3    H138044   5.740   2.514   0.271 -0.7545  1.9480 -0.4097
 5495TIP3    H238045   5.884   2.484   0.304 -0.3763  1.8561 -2.0861
 5496TIP3   OH238046   6.463   6.553   0.904  0.0194  0.0341 -0.4675
 5496TIP3    H138047   6.479   6.515   0.818  0.4761 -0.4531 -0.1790
 5496TIP3    H238048   6.373   6.583   0.901 -0.2408 -0.7529 -0.8369
 5497TIP3   OH238049   4.595   3.364   8.571  0.1407 -0.2656  0.1505
 5497TIP3    H138050   4.623   3.429   8.636 -0.8200  0.8907 -0.5495
 5497TIP3    H238051   4.671   3.307   8.561  1.3145  1.1977  0.2573
 5498TIP3   OH238052   4.779   3.691   8.239 -0.4724 -0.1374 -0.3777
 5498TIP3    H138053   4.802   3.731   8.155 -2.0766 -1.7266 -1.6577
 5498TIP3    H238054   4.705   3.742   8.271 -0.7006 -0.3371 -0.5873
 5499TIP3   OH238055   3.986   3.543   7.744  0.3944  0.1609 -0.2374
 5499TIP3    H138056   3.901   3.549   7.702  1.0054  1.5929 -1.3318
 5499TIP3    H238057   4.033   3.475   7.695 -0.1058 -0.6677  0.4012
 5500TIP3   OH238058   5.945   3.954   0.621  0.5053  0.2856  0.5468
 5500TIP3    H138059   5.870   3.994   0.577 -0.2340 -0.7090  0.8602
 5500TIP3    H238060   6.009   3.939   0.551  0.5717  1.4506  0.3318
 5501TIP3   OH238061   3.853   2.259   0.611  0.6394 -0.3262  0.0075
 5501TIP3    H138062   3.926   2.320   0.604  0.5776  0.1314  2.3827
 5501TIP3    H238063   3.893   2.175   0.636  0.5119 -0.6135 -0.7337
 5502TIP3   OH238064   0.503   0.058   0.193 -0.5710 -0.0900  0.5742
 5502TIP3    H138065   0.503  -0.002   0.118 -3.4606 -1.7918  1.7610
 5502TIP3    H238066   0.595   0.083   0.203  0.1981 -1.2926 -2.3159
 5503TIP3   OH238067   2.069   0.233   8.601 -0.1019 -0.1098 -0.1851
 5503TIP3    H138068   2.130   0.177   8.649  0.0041 -0.9772 -1.2783
 5503TIP3    H238069   2.124   0.296   8.555 -0.0295 -0.6138 -0.8176
 5504TIP3   OH238070   4.519   3.208   1.031 -0.8532  0.4879 -0.0269
 5504TIP3    H138071   4.560   3.147   1.092 -1.0674  0.4750  0.1067
 5504TIP3    H238072   4.530   3.294   1.072 -1.5284  0.4103  0.3251
 5505TIP3   OH238073   0.903   4.940   0.864  0.0451 -0.0442 -0.1304
 5505TIP3    H138074   0.866   4.856   0.892 -0.1550 -0.0248 -0.3328
 5505TIP3    H238075   0.994   4.921   0.844 -0.1971 -0.3855 -0.9423
 5506TIP3   OH238076   4.641   6.173   1.370 -0.1657 -0.3648  0.3862
 5506TIP3    H138077   4.701   6.167   1.296 -0.0498  1.3419  0.3112
 5506TIP3    H238078   4.677   6.113   1.435  0.6949 -0.5919 -0.2914
 5507TIP3   OH238079   6.207   1.146   1.948  0.4365 -0.1255 -0.4439
 5507TIP3    H138080   6.188   1.135   1.855  0.4333 -0.1163 -0.4443
 5507TIP3    H238081   6.260   1.226   1.952  0.3692 -0.0818 -0.4292
 5508TIP3   OH238082   5.331   1.144   1.864  0.1461  0.5646 -0.0669
 5508TIP3    H138083   5.408   1.166   1.813  0.6711 -0.8060  0.0785
 5508TIP3    H238084   5.356   1.160   1.955  0.3042  0.0262 -0.0119
 5509TIP3   OH238085   5.653   2.328   1.917 -0.3339 -0.1521 -0.1838
 5509TIP3    H138086   5.670   2.416   1.883 -1.3856  0.1011 -0.0880
 5509TIP3    H238087   5.580   2.340   1.978 -1.1265 -1.2386 -0.8932
 5510TIP3   OH238088   1.120   2.164   0.854 -0.3803 -0.3531  0.4635
 5510TIP3    H138089   1.086   2.207   0.776 -1.1663 -0.6084  0.6545
 5510TIP3    H238090   1.132   2.235   0.917  0.2224 -0.1514  0.1342
 5511TIP3   OH238091   5.026   2.684   0.536 -0.5625  0.5474 -0.6008
 5511TIP3    H138092   4.994   2.694   0.446 -2.5224 -0.2304 -0.0201
 5511TIP3    H238093   4.972   2.615   0.574 -0.0732  1.1687  1.3284
 5512TIP3   OH238094   6.046   5.729   1.701 -0.5578 -0.5759  0.0424
 5512TIP3    H138095   6.017   5.647   1.660  0.0728  0.0330 -1.6968
 5512TIP3    H238096   6.039   5.712   1.795 -1.2499 -2.3282 -0.2853
 5513TIP3   OH238097   2.004   3.847   2.530 -0.3460 -0.2959  0.6536
 5513TIP3    H138098   2.066   3.865   2.460 -0.9855 -0.5578  0.0040
 5513TIP3    H238099   1.919   3.844   2.486 -0.7663 -0.3922  1.4556
 5514TIP3   OH238100   6.422   1.497   7.528 -0.0871 -0.0227 -0.2278
 5514TIP3    H138101   6.360   1.550   7.478 -0.0843 -1.1695 -1.5025
 5514TIP3    H238102   6.500   1.492   7.472  0.8053  0.5582  0.9103
 5515TIP3   OH238103   3.882   6.635   8.544  0.3227 -0.2772 -0.0229
 5515TIP3    H138104   3.807   6.591   8.505  0.9136 -0.4039 -1.0674
 5515TIP3    H238105   3.855   6.726   8.554  0.1991 -0.2146 -0.8743
 5516TIP3   OH238106   6.476   6.819   8.318 -0.2831 -0.0256 -0.2315
 5516TIP3    H138107   6.401   6.837   8.262  0.3523  0.9816 -0.7940
 5516TIP3    H238108   6.456   6.865   8.400 -0.0068  0.7932 -0.6111
 5517TIP3   OH238109   3.971   6.479   1.550  0.3251 -0.5605 -0.0825
 5517TIP3    H138110   3.930   6.440   1.627 -0.4960  0.5304  0.0641
 5517TIP3    H238111   3.907   6.467   1.479  0.3980 -0.1943 -0.2153
 5518TIP3   OH238112   0.632   6.509   7.417  0.1199  0.8700 -0.4938
 5518TIP3    H138113   0.541   6.535   7.405 -0.3783 -0.3826  0.3505
 5518TIP3    H238114   0.681   6.557   7.350 -1.3247  0.6135 -1.7664
 5519TIP3   OH238115   5.011   6.566   7.608  0.3877  0.3044 -0.0285
 5519TIP3    H138116   5.093   6.533   7.645 -0.3277  1.1759  2.5904
 5519TIP3    H238117   4.999   6.651   7.650 -1.6334  0.3857 -0.6910
 5520TIP3   OH238118   1.292   3.577   2.735 -0.0629 -0.1657  0.0312
 5520TIP3    H138119   1.343   3.618   2.804 -0.6302  0.4045  0.1174
 5520TIP3    H238120   1.213   3.630   2.728 -0.3705 -0.6787 -0.5167
 5521TIP3   OH238121   1.796   4.969   1.508  0.3166 -0.4552  0.1848
 5521TIP3    H138122   1.852   5.039   1.540 -0.6589  0.6227 -0.3728
 5521TIP3    H238123   1.753   4.935   1.586 -0.6766  0.9162  0.2693
 5522TIP3   OH238124   5.057   3.708   2.830  0.3488 -0.4893  0.3121
 5522TIP3    H138125   4.962   3.701   2.820  0.4733 -1.2591 -0.4278
 5522TIP3    H238126   5.084   3.765   2.758  0.6237 -1.5851 -0.4713
 5523TIP3   OH238127   1.419   5.021   0.981  0.0469  0.2596  0.1572
 5523TIP3    H138128   1.349   5.057   1.037 -0.0612  1.3945 -0.6838
 5523TIP3    H238129   1.484   5.090   0.976 -0.1880  0.4067 -1.5389
 5524TIP3   OH238130   0.488   2.883   7.718  0.3057 -0.5266  0.0424
 5524TIP3    H138131   0.505   2.915   7.629  0.0361  0.3854  0.3076
 5524TIP3    H238132   0.534   2.799   7.723 -0.5431 -1.1195 -1.3047
 5525TIP3   OH238133   0.336   0.344   8.078 -0.4821  0.0429 -0.0362
 5525TIP3    H138134   0.257   0.391   8.105 -1.0883 -0.4609 -0.9096
 5525TIP3    H238135   0.408   0.394   8.117 -1.0933  1.8225 -1.0888
 5526TIP3   OH238136   4.140   1.257   2.723  0.3527  0.0033 -0.6495
 5526TIP3    H138137   4.137   1.179   2.669  0.1453  0.0612 -0.7227
 5526TIP3    H238138   4.081   1.319   2.679  0.2711  0.0885 -0.4199
 5527TIP3   OH238139   1.378   3.093   8.485  0.2711 -0.0186 -0.1239
 5527TIP3    H138140   1.341   3.044   8.413 -0.1709  1.1232 -0.6992
 5527TIP3    H238141   1.469   3.109   8.459  0.4889 -0.7139  0.1771
 5528TIP3   OH238142   4.242   3.516   8.370 -0.4640 -0.4277  0.1850
 5528TIP3    H138143   4.335   3.509   8.349 -0.6533 -1.0050 -0.5335
 5528TIP3    H238144   4.230   3.606   8.399  0.2611 -0.2649 -0.0078
 5529TIP3   OH238145   5.439   3.372   1.595 -0.3339 -0.0129  0.6704
 5529TIP3    H138146   5.436   3.432   1.670 -0.2784  1.4521 -0.4501
 5529TIP3    H238147   5.474   3.425   1.523  0.3496 -1.5848 -0.2214
 5530TIP3   OH238148   1.199   5.803   7.180 -0.1559  0.7728 -0.3222
 5530TIP3    H138149   1.132   5.857   7.223  2.5290  2.3827  2.2699
 5530TIP3    H238150   1.251   5.866   7.129  1.8102  0.3804  1.0887
 5531TIP3   OH238151   2.285   0.279   7.422 -0.0182  0.6784  0.8224
 5531TIP3    H138152   2.314   0.346   7.484  2.5734  0.3644  0.0538
 5531TIP3    H238153   2.363   0.260   7.370 -1.6488 -0.3603 -1.3529
 5532TIP3   OH238154   1.262   2.321   0.079 -0.3482 -0.5273  0.6267
 5532TIP3    H138155   1.248   2.262   0.153 -1.4529 -0.7015  0.2934
 5532TIP3    H238156   1.179   2.366   0.068  0.5236  1.2282  0.9716
 5533TIP3   OH238157   6.627   4.956   8.644 -0.1013 -0.1968 -0.3552
 5533TIP3    H138158   6.612   4.902   8.722  0.4312  0.8857  0.5146
 5533TIP3    H238159   6.542   4.996   8.626  0.3630  1.7186  1.3614
 5534TIP3   OH238160   3.012   1.361   8.415 -0.1369 -0.5058  0.7757
 5534TIP3    H138161   3.000   1.371   8.509 -0.7136  2.0258  0.5274
 5534TIP3    H238162   2.952   1.291   8.390 -1.9718  0.5542  1.9699
 5535TIP3   OH238163   4.261   4.948   7.940 -0.4667  0.1170  0.2903
 5535TIP3    H138164   4.265   5.024   7.882 -1.8059 -1.5952 -2.2390
 5535TIP3    H238165   4.168   4.928   7.947 -0.1224 -1.5280  0.5666
 5536TIP3   OH238166   2.169   0.605   0.432  0.1593  0.1499 -0.0366
 5536TIP3    H138167   2.184   0.512   0.414  1.1099  0.3804 -0.5577
 5536TIP3    H238168   2.188   0.615   0.525  0.0953 -0.1774  0.0122
 5537TIP3   OH238169   6.681   3.664   1.055 -0.2981 -0.1828 -0.1169
 5537TIP3    H138170   6.730   3.741   1.026  0.9369 -1.5295 -1.7796
 5537TIP3    H238171   6.741   3.619   1.116  0.3683 -1.4948 -1.6646
 5538TIP3   OH238172   0.986   0.511   2.241  0.2958 -0.1603  0.4610
 5538TIP3    H138173   1.039   0.464   2.177  0.9250 -0.5133  1.2157
 5538TIP3    H238174   0.902   0.465   2.242  0.0261  0.2820 -0.6048
 5539TIP3   OH238175   1.705   3.410   0.250  0.0369 -0.1454  0.6995
 5539TIP3    H138176   1.638   3.435   0.187  0.9965  0.9154  0.0528
 5539TIP3    H238177   1.694   3.472   0.323 -1.1844 -1.4804  1.6968
 5540TIP3   OH238178   2.851   2.552   7.144 -0.3037  0.3564 -0.3315
 5540TIP3    H138179   2.870   2.513   7.059 -0.1311  0.0619 -0.1587
 5540TIP3    H238180   2.925   2.610   7.161 -1.6051  2.5451 -1.6227
 5541TIP3   OH238181   1.742   1.955   0.872  0.2402  0.2781 -0.4955
 5541TIP3    H138182   1.813   1.893   0.884  0.7280  0.8362 -0.4812
 5541TIP3    H238183   1.692   1.921   0.797  0.7510  0.1087 -0.7593
 5542TIP3   OH238184   5.268   5.421   1.044  0.0514  0.4264  0.3166
 5542TIP3    H138185   5.283   5.332   1.011  0.9344  1.1971 -1.4674
 5542TIP3    H238186   5.180   5.417   1.084 -0.3663 -0.9780 -0.6600
 5543TIP3   OH238187   1.869   2.622   1.285  0.1175 -0.0599 -0.0033
 5543TIP3    H138188   1.787   2.614   1.334 -0.4843 -0.9092 -1.0892
 5543TIP3    H238189   1.864   2.553   1.219  1.1100  0.7376 -0.9509
 5544TIP3   OH238190   3.968   3.700   1.112  0.2945  0.3874 -0.2159
 5544TIP3    H138191   4.023   3.778   1.117  0.9115 -0.0979  0.8065
 5544TIP3    H238192   3.908   3.718   1.039  0.3636  1.8502  0.0510
 5545TIP3   OH238193   3.713   3.121   1.532  0.0252 -0.1280 -0.0451
 5545TIP3    H138194   3.738   3.211   1.510 -0.9038 -0.3256 -2.1887
 5545TIP3    H238195   3.654   3.095   1.461  0.7772 -2.6575  0.1709
 5546TIP3   OH238196   4.541   0.998   1.467  0.0390 -0.3704 -0.5090
 5546TIP3    H138197   4.578   0.985   1.380 -0.7040  2.0188 -1.2556
 5546TIP3    H238198   4.613   0.979   1.527  0.9944 -0.6429 -1.7010
 5547TIP3   OH238199   2.680   6.612   8.438  0.3104 -0.2426  0.5521
 5547TIP3    H138200   2.722   6.527   8.454 -1.8752 -1.3520  0.8502
 5547TIP3    H238201   2.716   6.642   8.355  0.5499 -1.8645  0.0313
 5548TIP3   OH238202   0.120   2.297   1.142  0.1681 -0.3631  0.1965
 5548TIP3    H138203   0.115   2.300   1.238 -0.1180 -0.0206  0.1749
 5548TIP3    H238204   0.039   2.340   1.113  0.7483  0.4782 -0.1984
 5549TIP3   OH238205   0.958   6.251   8.248 -0.5026 -0.4612 -0.3822
 5549TIP3    H138206   0.995   6.242   8.160 -1.7889 -0.6021 -0.9308
 5549TIP3    H238207   0.879   6.197   8.247 -0.8984  0.0679  0.6500
 5550TIP3   OH238208   6.191   1.043   0.780  0.5376 -0.6153 -0.0014
 5550TIP3    H138209   6.213   1.130   0.745  1.3833 -1.0650 -0.6034
 5550TIP3    H238210   6.221   0.982   0.714 -0.8352 -1.3496  0.0227
 5551TIP3   OH238211   5.839   5.801   8.250 -0.7235 -0.4338 -0.4043
 5551TIP3    H138212   5.799   5.797   8.337 -0.1014 -0.9140 -0.1423
 5551TIP3    H238213   5.867   5.892   8.242  2.6330 -1.1563  1.4569
 5552TIP3   OH238214   3.969   0.608   2.269  0.4918 -0.3106 -0.3926
 5552TIP3    H138215   4.057   0.605   2.233 -0.6164  1.6921 -3.7431
 5552TIP3    H238216   3.943   0.700   2.262 -1.4864 -0.6360  1.5404
 5553TIP3   OH238217   4.477   3.873   0.119 -0.0207  0.4759 -0.0680
 5553TIP3    H138218   4.550   3.922   0.081  0.1419 -0.1718 -0.6221
 5553TIP3    H238219   4.469   3.796   0.063 -0.8555  0.3249  0.2474
 5554TIP3   OH238220   4.994   0.060   6.998  0.3744 -0.2647 -0.0189
 5554TIP3    H138221   4.990  -0.028   6.962  1.3751 -0.2019 -0.3382
 5554TIP3    H238222   5.004   0.117   6.921  3.0564 -0.1650  0.3026
 5555TIP3   OH238223   3.641   1.735   1.569 -0.7611 -0.4419  0.0088
 5555TIP3    H138224   3.650   1.693   1.655 -1.1112  0.5945  0.5757
 5555TIP3    H238225   3.593   1.672   1.516 -2.9740 -0.0515  1.4022
 5556TIP3   OH238226   1.878   0.332   7.762  0.2698 -0.6472  0.0606
 5556TIP3    H138227   1.786   0.329   7.785 -0.1974 -0.8400 -1.7041
 5556TIP3    H238228   1.888   0.266   7.693  1.2529  0.7969 -1.2414
 5557TIP3   OH238229   1.719   4.526   0.337  0.0507 -0.2077 -0.5028
 5557TIP3    H138230   1.806   4.540   0.300  0.3923  1.3330  0.7791
 5557TIP3    H238231   1.660   4.579   0.283  0.6099  2.3959  1.2284
 5558TIP3   OH238232   4.623   5.953   7.836  0.4912  0.1402  0.1200
 5558TIP3    H138233   4.661   5.871   7.805  1.2067  0.7799 -0.7474
 5558TIP3    H238234   4.528   5.938   7.835  0.6360 -0.8155  0.4112
 5559TIP3   OH238235   5.059   0.538   3.049  0.5132 -0.1470 -0.2911
 5559TIP3    H138236   5.142   0.494   3.031  0.5377 -1.6910  2.9277
 5559TIP3    H238237   4.994   0.468   3.051 -0.0926  0.4149  1.3765
 5560TIP3   OH238238   5.366   5.720   1.637 -0.3760  0.6569  0.0881
 5560TIP3    H138239   5.447   5.735   1.685  0.9814  1.2237 -2.1905
 5560TIP3    H238240   5.347   5.627   1.651 -0.2766  0.8916  1.9828
 5561TIP3   OH238241   2.462   5.974   6.296 -0.0849 -0.5527  0.3979
 5561TIP3    H138242   2.435   6.030   6.223  3.0183  1.5509  0.6660
 5561TIP3    H238243   2.382   5.958   6.345 -1.9390 -0.4741 -2.4027
 5562TIP3   OH238244   3.032   1.712   2.814  0.9981  0.1314 -0.5135
 5562TIP3    H138245   3.010   1.800   2.846  0.3151  0.0798 -0.8013
 5562TIP3    H238246   3.120   1.721   2.777  1.1260  0.5782 -0.1101
 5563TIP3   OH238247   2.482   5.883   2.066  0.0871 -0.0297 -0.2250
 5563TIP3    H138248   2.464   5.789   2.066 -0.9416  0.0195  3.2994
 5563TIP3    H238249   2.396   5.924   2.078  0.7565  1.1636  0.7655
 5564TIP3   OH238250   3.659   0.266   8.341  0.1675 -0.3570  0.2221
 5564TIP3    H138251   3.719   0.200   8.377 -0.4931 -0.8950  0.3700
 5564TIP3    H238252   3.628   0.227   8.259  0.9972  0.4822 -0.4982
 5565TIP3   OH238253   2.020   1.474   2.801 -0.4174  0.1514 -0.5804
 5565TIP3    H138254   2.029   1.560   2.842  0.9948 -1.7641  3.6060
 5565TIP3    H238255   1.928   1.451   2.814 -0.7167  0.8226 -1.4067
 5566TIP3   OH238256   4.002   0.520   8.435 -0.2645  0.0949  0.3430
 5566TIP3    H138257   4.006   0.593   8.373 -0.9087 -0.2349 -0.1021
 5566TIP3    H238258   3.955   0.451   8.387 -1.4706  0.0941  1.4772
 5567TIP3   OH238259   0.543   6.508   1.299  0.1393  0.2903 -0.0472
 5567TIP3    H138260   0.539   6.588   1.352  0.1732 -0.2270  0.7451
 5567TIP3    H238261   0.630   6.472   1.316 -0.2274 -0.4238  0.3505
 5568TIP3   OH238262   0.084   0.218   1.162 -0.3124 -0.5440  0.4831
 5568TIP3    H138263   0.032   0.150   1.119 -0.6913 -0.6176  1.0424
 5568TIP3    H238264   0.066   0.298   1.112  0.1531 -0.8507 -0.1924
 5569TIP3   OH238265   6.155   5.815   0.233 -0.2561  0.1908 -0.1039
 5569TIP3    H138266   6.093   5.751   0.199  0.3042 -0.5646  0.2605
 5569TIP3    H238267   6.127   5.830   0.324  0.6388 -0.8989  0.3836
 5570TIP3   OH238268   1.663   2.643   8.439  0.3136  0.3636 -0.2030
 5570TIP3    H138269   1.693   2.555   8.462  0.0005  0.3955  0.3398
 5570TIP3    H238270   1.615   2.630   8.357  0.5863  0.0921 -0.3232
 5571TIP3   OH238271   0.745   2.375   6.942 -0.3991 -0.6573  0.7584
 5571TIP3    H138272   0.808   2.367   7.014 -0.0378 -0.7275  0.4380
 5571TIP3    H238273   0.702   2.459   6.957  0.4417 -0.1591  0.4498
 5572TIP3   OH238274   3.747   5.334   6.942 -0.2115  0.4457  0.4622
 5572TIP3    H138275   3.693   5.284   6.882 -0.0507  1.8338 -0.9075
 5572TIP3    H238276   3.716   5.424   6.932  1.0987  0.9871  1.0379
 5573TIP3   OH238277   6.665   5.502   8.074 -0.5205 -0.1622 -0.1501
 5573TIP3    H138278   6.698   5.413   8.062  1.7110  0.7370 -1.1875
 5573TIP3    H238279   6.723   5.557   8.022 -1.5728  1.9791  0.7931
 5574TIP3   OH238280   5.276   1.259   2.350 -0.0210 -0.4710  0.6023
 5574TIP3    H138281   5.316   1.227   2.269  1.0199 -0.0993  0.9476
 5574TIP3    H238282   5.293   1.353   2.349 -1.3765 -0.2101  0.5149
 5575TIP3   OH238283   6.721   5.768   2.615 -0.5358  0.8528 -0.2049
 5575TIP3    H138284   6.627   5.779   2.632 -0.4464  1.2596  0.0523
 5575TIP3    H238285   6.757   5.857   2.624  0.4171  0.2636  3.1238
 5576TIP3   OH238286   3.514   6.802   6.870 -0.0185 -0.0937 -0.2216
 5576TIP3    H138287   3.427   6.809   6.831 -0.3431 -1.2795  0.2660
 5576TIP3    H238288   3.520   6.879   6.927 -0.1847  0.7520 -1.3163
 5577TIP3   OH238289   6.503   0.150   2.084  0.8012 -0.1489  0.1506
 5577TIP3    H138290   6.526   0.183   2.171 -0.8143  0.1776  0.4964
 5577TIP3    H238291   6.537   0.061   2.082  5.4708  1.3942 -0.8692
 5578TIP3   OH238292   3.717   0.344   7.950 -0.8055  0.3847 -0.3384
 5578TIP3    H138293   3.629   0.306   7.952 -0.8027  0.3426  1.8769
 5578TIP3    H238294   3.775   0.272   7.927 -1.1508 -0.1453  0.4036
 5579TIP3   OH238295   4.326   3.502   7.198  0.1109  0.5670  0.4431
 5579TIP3    H138296   4.238   3.484   7.230  0.7795  2.3531  3.7767
 5579TIP3    H238297   4.381   3.434   7.237  0.3932  0.1299 -0.6778
 5580TIP3   OH238298   0.421   3.203   7.548  0.7560  0.5719 -0.1618
 5580TIP3    H138299   0.459   3.227   7.463 -0.5348  1.1947 -0.5862
 5580TIP3    H238300   0.329   3.229   7.542  0.3791 -0.3717  1.0460
 5581TIP3   OH238301   6.869   4.054   2.135 -0.0858 -0.3913 -0.1459
 5581TIP3    H138302   6.878   4.140   2.093  0.6076  0.6643  2.0178
 5581TIP3    H238303   6.938   4.001   2.095 -0.2698  0.1566 -1.2366
 5582TIP3   OH238304   0.699   5.573   7.599 -0.3730  0.8124 -0.0303
 5582TIP3    H138305   0.781   5.533   7.629  0.0476 -0.7490 -2.9597
 5582TIP3    H238306   0.727   5.643   7.540 -1.1885  2.5061  1.4970
 5583TIP3   OH238307   5.036   0.389   8.656  0.9718 -0.0945  0.2579
 5583TIP3    H138308   5.047   0.478   8.622 -1.5814  0.1174 -0.2384
 5583TIP3    H238309   5.110   0.377   8.715  2.2316  1.7724 -0.8034
 5584TIP3   OH238310   5.023   0.145   2.187  0.2282  0.3184 -0.3579
 5584TIP3    H138311   4.998   0.208   2.254 -0.1940  0.5426 -0.7243
 5584TIP3    H238312   5.019   0.193   2.105  0.2661 -0.0839 -0.5999
 5585TIP3   OH238313   6.339   6.088   8.467  0.4032 -0.2828  0.4354
 5585TIP3    H138314   6.391   6.010   8.449  0.8510 -0.0709  0.7808
 5585TIP3    H238315   6.262   6.056   8.514  0.0079 -0.6469 -0.4478
 5586TIP3   OH238316   1.874   1.705   8.197 -0.4519 -0.0259 -0.2473
 5586TIP3    H138317   1.892   1.784   8.247 -0.1202 -0.9508  1.1730
 5586TIP3    H238318   1.842   1.736   8.112  0.2311  1.6147  0.0564
 5587TIP3   OH238319   5.570   0.377   8.206 -0.0666  1.1337  0.4462
 5587TIP3    H138320   5.523   0.304   8.247  0.8713  0.1467 -0.1854
 5587TIP3    H238321   5.658   0.373   8.244  0.3581  1.1572 -0.5126
 5588TIP3   OH238322   4.416   4.197   0.289 -0.4693 -0.2077  0.0753
 5588TIP3    H138323   4.444   4.203   0.380  2.6815 -1.1739 -0.6823
 5588TIP3    H238324   4.492   4.228   0.238 -1.7278 -0.6476 -2.2291
 5589TIP3   OH238325   4.236   1.438   6.840  0.4742 -0.1958  0.0906
 5589TIP3    H138326   4.298   1.496   6.795 -0.2705  0.6284  0.1054
 5589TIP3    H238327   4.232   1.360   6.785 -0.0961  0.6161 -1.0555
 5590TIP3   OH238328   5.626   5.916   2.375 -0.1590 -0.0217 -1.0496
 5590TIP3    H138329   5.718   5.927   2.401 -0.7665  0.4627  1.0804
 5590TIP3    H238330   5.628   5.846   2.310  1.4974 -1.6517  0.6416
 5591TIP3   OH238331   4.984   5.393   8.345  0.1115 -0.6428 -0.5672
 5591TIP3    H138332   4.894   5.425   8.337  0.0358  0.3217  2.5612
 5591TIP3    H238333   4.977   5.316   8.401  1.3854  1.5377  2.9492
 5592TIP3   OH238334   1.813   5.151   2.681 -0.0730 -0.2880 -0.4892
 5592TIP3    H138335   1.755   5.156   2.605  1.9829  0.6417 -2.1159
 5592TIP3    H238336   1.798   5.232   2.729 -0.3779 -0.2324 -0.6782
 5593TIP3   OH238337   3.048   0.973   2.733 -0.5316  0.3607 -0.2504
 5593TIP3    H138338   3.086   1.016   2.809 -0.4400 -0.2833  0.0742
 5593TIP3    H238339   2.982   0.914   2.769  1.5712 -2.2737 -0.3274
 5594TIP3   OH238340   4.209   2.328   7.927 -0.0916  0.3371  0.0083
 5594TIP3    H138341   4.158   2.408   7.939  0.7676  0.6236  2.1658
 5594TIP3    H238342   4.263   2.322   8.006  1.8117 -0.9685 -1.3146
 5595TIP3   OH238343   2.328   0.856   2.245 -0.2455  0.1559  0.2351
 5595TIP3    H138344   2.309   0.876   2.153 -1.0698 -1.1480  0.0925
 5595TIP3    H238345   2.243   0.864   2.288 -0.1906 -0.9112  0.5560
 5596TIP3   OH238346   4.478   4.768   1.469  0.8616  0.1146 -0.2674
 5596TIP3    H138347   4.542   4.709   1.430  0.5964  0.1199 -0.7147
 5596TIP3    H238348   4.412   4.780   1.401  0.0207 -0.4393  0.4402
 5597TIP3   OH238349   0.910   4.416   7.848  0.1794  0.2704 -0.2723
 5597TIP3    H138350   0.940   4.486   7.906  0.3797  0.5524 -0.7063
 5597TIP3    H238351   0.834   4.454   7.803  0.7197  0.4776 -1.0353
 5598TIP3   OH238352   5.895   0.425   3.126  0.0613 -0.3008 -0.6571
 5598TIP3    H138353   5.977   0.473   3.137 -0.0314 -0.4195  0.6922
 5598TIP3    H238354   5.920   0.348   3.074  1.1784 -1.1817  1.0831
 5599TIP3   OH238355   3.016   3.025   8.138  0.0569 -0.3467  0.2582
 5599TIP3    H138356   3.094   3.044   8.086 -0.2128 -2.4083 -1.0142
 5599TIP3    H238357   3.036   2.943   8.182 -1.1631 -0.5860  0.4011
 5600TIP3   OH238358   3.568   6.731   7.914  0.8298  0.0595 -0.0784
 5600TIP3    H138359   3.506   6.713   7.843  2.8813  1.2551 -2.3166
 5600TIP3    H238360   3.535   6.680   7.987 -2.7472  0.5545 -1.1069
 5601TIP3   OH238361   6.440   4.255   0.146 -0.0331  0.0697 -0.1072
 5601TIP3    H138362   6.440   4.229   0.238  0.9419 -0.8253 -0.3386
 5601TIP3    H238363   6.370   4.203   0.107  0.7151 -0.9026 -0.2033
 5602TIP3   OH238364   1.782   3.358   2.028  0.2680 -0.1096  0.3137
 5602TIP3    H138365   1.757   3.294   1.962 -2.0977  0.8468  0.2070
 5602TIP3    H238366   1.775   3.311   2.111 -1.7668  0.0282  0.2648
 5603TIP3   OH238367   5.146   2.294   0.486 -0.2156  0.2516 -0.0797
 5603TIP3    H138368   5.142   2.241   0.407 -0.0185 -0.1716  0.1926
 5603TIP3    H238369   5.238   2.321   0.493 -0.4955  1.4580 -0.7531
 5604TIP3   OH238370   0.776   3.859   7.402  0.4278 -0.4401  0.2506
 5604TIP3    H138371   0.711   3.926   7.425  1.9241  0.9057  0.7186
 5604TIP3    H238372   0.810   3.886   7.316 -1.5190 -2.6699 -1.3641
 5605TIP3   OH238373   2.950   6.645   0.900  0.0323  1.3788  0.8671
 5605TIP3    H138374   3.022   6.581   0.899  0.4432  1.8266 -0.2959
 5605TIP3    H238375   2.960   6.692   0.983 -0.5907 -0.3793  2.0028
 5606TIP3   OH238376   4.064   0.343   7.403  0.1826 -0.2991 -0.4653
 5606TIP3    H138377   4.067   0.249   7.385 -0.5579 -0.6255  0.9467
 5606TIP3    H238378   4.143   0.360   7.455  0.3273 -0.1242 -0.7363
 5607TIP3   OH238379   3.337   1.294   0.639  0.1315  0.8011  0.4383
 5607TIP3    H138380   3.267   1.266   0.579  1.6094  0.6252 -1.3045
 5607TIP3    H238381   3.294   1.303   0.724 -1.7022 -0.7222 -0.2545
 5608TIP3   OH238382   3.687   4.396   7.110 -0.7786 -0.1208  0.3610
 5608TIP3    H138383   3.724   4.472   7.066 -1.3514  1.2423  2.1193
 5608TIP3    H238384   3.593   4.409   7.104 -1.0360 -2.3266 -1.9766
 5609TIP3   OH238385   4.737   2.910   8.128 -0.9021 -0.2331 -0.0768
 5609TIP3    H138386   4.667   2.858   8.091  0.0420 -1.4668 -0.1805
 5609TIP3    H238387   4.804   2.914   8.059 -0.6600  0.5343  0.1835
 5610TIP3   OH238388   1.520   1.810   7.980 -0.0392  0.3426  0.3759
 5610TIP3    H138389   1.461   1.880   7.951 -1.0770 -0.2264  1.0566
 5610TIP3    H238390   1.481   1.778   8.061  0.5847 -0.8259  0.2320
 5611TIP3   OH238391   1.998   0.863   0.758  0.4830 -0.1222 -0.2457
 5611TIP3    H138392   2.055   0.910   0.697 -0.1341 -0.9698 -1.5095
 5611TIP3    H238393   1.933   0.820   0.703 -0.8023  0.0160  1.1001
 5612TIP3   OH238394   0.308   3.888   0.852  0.4132 -0.4634 -0.4186
 5612TIP3    H138395   0.403   3.895   0.867  0.6117  1.7463 -2.2541
 5612TIP3    H238396   0.300   3.829   0.777  0.4062  0.0089 -0.7931
 5613TIP3   OH238397   1.713   3.836   1.920 -0.1234 -0.5756  0.1620
 5613TIP3    H138398   1.695   3.757   1.868 -0.2193 -0.6280  0.2714
 5613TIP3    H238399   1.663   3.822   2.001 -0.7633 -0.0515 -0.1344
 5614TIP3   OH238400   4.583   6.448   0.260 -0.4179  0.4178 -0.0521
 5614TIP3    H138401   4.602   6.439   0.354 -0.6440  1.1433  0.0705
 5614TIP3    H238402   4.647   6.392   0.217  0.8477  1.4227  0.4553
 5615TIP3   OH238403   4.073   2.724   6.739  0.4896 -0.5890  0.4094
 5615TIP3    H138404   3.979   2.711   6.726  0.6861 -1.1478 -0.5666
 5615TIP3    H238405   4.109   2.636   6.748  1.0577 -0.4337 -0.2480
 5616TIP3   OH238406   0.018   1.616   1.696 -0.1728 -0.3675 -0.0881
 5616TIP3    H138407   0.034   1.599   1.603  0.3853 -0.9607  0.1059
 5616TIP3    H238408   0.106   1.620   1.734 -0.3973  0.0230  0.3859
 5617TIP3   OH238409   4.642   3.034   7.397 -0.4088 -0.6467 -0.7204
 5617TIP3    H138410   4.678   3.011   7.312  0.7927 -1.2092 -0.0957
 5617TIP3    H238411   4.717   3.033   7.456 -0.4071  3.7491 -0.3230
 5618TIP3   OH238412   5.104   3.427   1.290 -0.5305 -0.4093  0.3236
 5618TIP3    H138413   5.031   3.475   1.250  1.5900  1.8629 -1.0915
 5618TIP3    H238414   5.182   3.466   1.251  1.4560 -4.4288 -0.1378
 5619TIP3   OH238415   6.080   6.528   0.260 -0.5106 -0.5015  0.6689
 5619TIP3    H138416   5.993   6.568   0.265 -1.1170 -1.3320 -1.6460
 5619TIP3    H238417   6.095   6.491   0.347 -2.7250 -0.8199  0.9813
 5620TIP3   OH238418   0.092   3.069   1.599 -0.0352 -0.0507  0.5283
 5620TIP3    H138419   0.028   3.007   1.634 -1.4138  1.6397  1.1382
 5620TIP3    H238420   0.083   3.061   1.504 -2.4055  1.2652  0.5501
 5621TIP3   OH238421   3.309   1.524   3.047 -0.4349 -0.5695 -0.4447
 5621TIP3    H138422   3.305   1.479   2.962  0.1020  0.2183 -0.8959
 5621TIP3    H238423   3.370   1.596   3.033  0.9060 -1.3616  1.0681
 5622TIP3   OH238424   4.563   5.968   0.176 -0.3294  0.0626  0.4580
 5622TIP3    H138425   4.593   5.954   0.266  1.2517  1.5850  0.2188
 5622TIP3    H238426   4.522   6.055   0.178  1.1002  0.7930 -0.5829
 5623TIP3   OH238427   1.723   3.340   0.608 -0.3970  0.4883  0.6490
 5623TIP3    H138428   1.806   3.383   0.586  1.6602 -1.1919  4.2607
 5623TIP3    H238429   1.690   3.388   0.684 -3.8119  2.1415 -1.6146
 5624TIP3   OH238430   0.039   5.118   0.949 -0.5315  0.1157  0.1795
 5624TIP3    H138431   0.122   5.116   0.996 -0.9158  1.7799  0.9763
 5624TIP3    H238432   0.000   5.203   0.970 -1.4232  0.3003 -1.9528
 5625TIP3   OH238433   5.578   0.580   2.940 -0.3804  0.2896  0.2031
 5625TIP3    H138434   5.609   0.490   2.926 -0.6288  0.4285 -1.4067
 5625TIP3    H238435   5.657   0.630   2.960  0.1092  0.1218 -1.1848
 5626TIP3   OH238436   4.585   3.069   1.676 -0.4539  0.3114  0.3773
 5626TIP3    H138437   4.564   3.063   1.769  0.4405 -0.2596  0.5533
 5626TIP3    H238438   4.676   3.098   1.673 -0.0624 -0.8997 -0.2778
 5627TIP3   OH238439   6.638   4.004   7.999 -0.1905  0.1648 -0.3811
 5627TIP3    H138440   6.726   4.028   7.971  1.0061 -1.6015  1.5241
 5627TIP3    H238441   6.608   4.079   8.050  0.4557  0.5775 -0.5920
 5628TIP3   OH238442   3.120   1.870   1.300  0.0853 -0.6627 -0.4067
 5628TIP3    H138443   3.110   1.955   1.258  3.8322 -0.5491 -1.4631
 5628TIP3    H238444   3.126   1.808   1.228  0.6416 -1.3174  0.1869
 5629TIP3   OH238445   1.449   1.693   0.493  0.3331 -0.2105 -0.6739
 5629TIP3    H138446   1.508   1.700   0.418 -0.0541 -1.3185 -1.1017
 5629TIP3    H238447   1.433   1.599   0.503 -0.3340 -0.0208  0.2453
 5630TIP3   OH238448   4.022   3.848   1.981  1.0099  0.1415 -0.5926
 5630TIP3    H138449   3.963   3.782   2.017  2.1366  0.4816  2.0984
 5630TIP3    H238450   3.964   3.917   1.950 -0.0857 -0.7916 -0.6886
 5631TIP3   OH238451   0.184   1.380   7.958  0.1720  0.4559 -0.4057
 5631TIP3    H138452   0.113   1.355   7.899 -0.9696  0.4280  0.9442
 5631TIP3    H238453   0.164   1.469   7.984  1.1087  0.7534 -0.6625
 5632TIP3   OH238454   4.700   5.410   0.115 -0.2130 -0.0924  0.1438
 5632TIP3    H138455   4.788   5.376   0.103 -0.4491  0.1057 -3.0584
 5632TIP3    H238456   4.712   5.502   0.136  0.3275 -0.1827  0.2343
 5633TIP3   OH238457   0.481   4.764   6.660  0.1005 -0.0159 -0.5110
 5633TIP3    H138458   0.558   4.733   6.707 -0.7266 -2.1917 -0.4501
 5633TIP3    H238459   0.414   4.774   6.728  0.1064  1.1129 -0.6600
 5634TIP3   OH238460   3.976   2.002   7.564 -0.2929 -0.0004  0.1379
 5634TIP3    H138461   3.897   2.040   7.602  0.4550  2.0552 -0.2459
 5634TIP3    H238462   4.010   2.070   7.506  0.4012 -1.8131 -1.6815
 5635TIP3   OH238463   5.655   1.068   8.472 -0.4765 -0.5002 -0.3390
 5635TIP3    H138464   5.617   0.980   8.464  0.6189 -0.9882 -0.4516
 5635TIP3    H238465   5.638   1.109   8.387 -0.7333 -0.7219 -0.3966
 5636TIP3   OH238466   0.257   3.762   0.141  0.2937  0.0966 -0.5389
 5636TIP3    H138467   0.313   3.817   0.085 -0.2084 -0.0999 -1.2476
 5636TIP3    H238468   0.181   3.817   0.160 -0.8222 -0.7292 -2.2939
 5637TIP3   OH238469   1.941   3.277   8.544  0.1340  0.1266 -0.1136
 5637TIP3    H138470   1.966   3.349   8.487  0.3984 -0.0415 -0.2133
 5637TIP3    H238471   1.942   3.314   8.632  2.0113 -0.1725  0.0480
 5638TIP3   OH238472   2.093   4.928   8.393 -0.1303 -0.0342  0.0155
 5638TIP3    H138473   2.131   4.858   8.446 -0.4518 -0.4272 -0.2589
 5638TIP3    H238474   2.057   4.990   8.457  0.2469 -0.0709  0.2615
 5639TIP3   OH238475   5.967   3.975   2.006  0.4919  0.3222  0.0479
 5639TIP3    H138476   5.890   4.017   1.969  0.5666  1.7330  1.3476
 5639TIP3    H238477   6.038   3.998   1.947  0.2003  0.4770 -0.2431
 5640TIP3   OH238478   1.757   0.942   1.708 -0.5671 -0.5349 -0.1337
 5640TIP3    H138479   1.719   0.857   1.683  0.2458 -0.8166 -0.4554
 5640TIP3    H238480   1.723   1.004   1.643 -2.7753 -0.1811  1.2529
 5641TIP3   OH238481   3.521   0.138   7.902  0.3503  0.4545  0.2455
 5641TIP3    H138482   3.556   0.054   7.873 -1.0787  0.5088 -1.8424
 5641TIP3    H238483   3.520   0.132   7.997  1.0504 -1.5579  0.1765
 5642TIP3   OH238484   4.678   0.896   2.343  0.4144  0.6375  0.0966
 5642TIP3    H138485   4.737   0.929   2.412 -0.3529  0.0635  1.0590
 5642TIP3    H238486   4.605   0.957   2.343 -1.1088 -1.0371  2.0215
 5643TIP3   OH238487   3.532   1.473   0.405  0.4995  0.3506 -0.2979
 5643TIP3    H138488   3.461   1.510   0.458  0.2648 -1.6482  0.8978
 5643TIP3    H238489   3.612   1.512   0.440  0.1066  1.6294 -0.7873
 5644TIP3   OH238490   3.898   1.369   7.504 -0.4675 -0.1533 -0.1206
 5644TIP3    H138491   3.968   1.311   7.534 -1.1613 -0.2206  1.4694
 5644TIP3    H238492   3.942   1.452   7.485  0.4378 -0.9590 -1.8223
 5645TIP3   OH238493   0.255   5.821   6.701  0.0669  0.2693 -0.2622
 5645TIP3    H138494   0.213   5.748   6.656  0.2666  0.6381 -1.0637
 5645TIP3    H238495   0.184   5.885   6.713 -0.2883 -0.3328  1.1113
 5646TIP3   OH238496   3.417   0.548   7.834  0.2599 -0.3250  0.7254
 5646TIP3    H138497   3.451   0.473   7.786  1.2047  0.3727  0.2732
 5646TIP3    H238498   3.322   0.537   7.831  0.2309  0.0471 -1.9133
 5647TIP3   OH238499   3.285   3.018   1.225  0.0766 -0.4446  0.3233
 5647TIP3    H138500   3.313   3.027   1.134 -3.1467 -1.1188 -0.9022
 5647TIP3    H238501   3.226   3.092   1.239 -0.7207 -1.2257  1.2700
 5648TIP3   OH238502   1.019   3.207   0.698  0.2081 -0.0251 -0.1823
 5648TIP3    H138503   1.100   3.184   0.744 -0.6017 -1.0864  0.7818
 5648TIP3    H238504   1.048   3.243   0.614  1.6525 -2.2309 -0.7109
 5649TIP3   OH238505   5.615   5.359   0.847  0.6775 -0.3635 -0.0031
 5649TIP3    H138506   5.690   5.325   0.896  0.2648  0.4741  1.2271
 5649TIP3    H238507   5.615   5.453   0.865  1.4519  0.2942 -2.8901
 5650TIP3   OH238508   5.392   5.952   7.660 -0.5061  0.2333  0.2771
 5650TIP3    H138509   5.350   5.949   7.574  2.5838  2.1845 -1.4927
 5650TIP3    H238510   5.469   5.895   7.652  0.1270  0.8515  1.5562
 5651TIP3   OH238511   3.664   2.511   1.654  0.1010  0.2790  0.1220
 5651TIP3    H138512   3.757   2.523   1.674 -0.0168 -0.9826  1.6575
 5651TIP3    H238513   3.655   2.417   1.639 -0.6260  0.6183 -1.8774
 5652TIP3   OH238514   1.297   5.157   8.064  0.4613  0.1754 -0.3293
 5652TIP3    H138515   1.247   5.235   8.085  0.6966 -0.0162  0.9932
 5652TIP3    H238516   1.301   5.108   8.146  0.5890 -1.0712 -1.0537
 5653TIP3   OH238517   1.905   5.454   2.522 -0.3489 -0.5375 -0.2933
 5653TIP3    H138518   1.991   5.415   2.509 -0.1532 -0.0212 -0.5876
 5653TIP3    H238519   1.878   5.427   2.609  0.3472 -0.2567  0.0101
 5654TIP3   OH238520   6.780   2.399   0.517  0.1348 -0.5296 -0.5295
 5654TIP3    H138521   6.725   2.459   0.467  1.1752  2.5744  1.7417
 5654TIP3    H238522   6.865   2.443   0.522  0.5650 -1.4832  2.4337
 5655TIP3   OH238523   1.852   3.578   1.143  0.0083  0.2765 -0.3497
 5655TIP3    H138524   1.935   3.551   1.185  0.0371  1.6776  0.5522
 5655TIP3    H238525   1.877   3.649   1.084 -0.3340 -0.3814 -1.3039
 5656TIP3   OH238526   6.850   2.897   0.988 -0.3887 -0.1930 -0.2614
 5656TIP3    H138527   6.803   2.819   0.960  0.9814 -1.5252  0.9119
 5656TIP3    H238528   6.862   2.885   1.082  2.8733 -0.3808 -0.5680
 5657TIP3   OH238529   0.218   4.430   1.204 -0.0222 -0.4877  0.1249
 5657TIP3    H138530   0.146   4.474   1.158 -0.1313  0.2094  0.9325
 5657TIP3    H238531   0.282   4.411   1.136 -0.0092  0.8655 -0.2678
 5658TIP3   OH238532   3.600   5.005   2.121  0.0759  0.4682  0.4006
 5658TIP3    H138533   3.574   5.061   2.195 -0.7426  1.6435 -0.7307
 5658TIP3    H238534   3.518   4.969   2.089  0.4516 -0.2110  0.1937
 5659TIP3   OH238535   2.194   4.963   0.048  0.7701  0.1977  0.3213
 5659TIP3    H138536   2.166   5.022  -0.023  1.9035 -0.8952 -1.0804
 5659TIP3    H238537   2.174   4.875   0.016  1.7873 -0.3483  1.1304
 5660TIP3   OH238538   2.916   5.214   1.684 -0.9352  0.2515 -0.1689
 5660TIP3    H138539   2.959   5.278   1.628  1.4942  0.7334  2.0169
 5660TIP3    H238540   2.830   5.252   1.702 -0.2425  2.0408 -0.4039
 5661TIP3   OH238541   6.215   0.741   0.484  0.2090 -0.4246 -0.7406
 5661TIP3    H138542   6.210   0.687   0.563 -1.0541 -0.8541 -1.0864
 5661TIP3    H238543   6.239   0.680   0.415 -1.9858 -0.7670 -1.2782
 5662TIP3   OH238544   3.998   5.264   1.788 -0.7259 -0.1493 -0.0714
 5662TIP3    H138545   3.951   5.334   1.834  0.0424  0.2639  0.1091
 5662TIP3    H238546   3.950   5.184   1.810 -2.8480  0.5182 -1.9086
 5663TIP3   OH238547   4.112   5.312   0.657 -0.0460  0.0314  0.3985
 5663TIP3    H138548   4.200   5.350   0.653 -0.1813  0.3009 -0.3375
 5663TIP3    H238549   4.127   5.218   0.661  0.2810  0.0845  0.4799
 5664TIP3   OH238550   2.991   4.403   2.438 -0.3087  0.5632  0.0634
 5664TIP3    H138551   2.907   4.448   2.444 -0.1420  0.9750 -0.5499
 5664TIP3    H238552   3.043   4.459   2.380 -0.4563 -0.9622 -1.6107
 5665TIP3   OH238553   6.278   3.540   2.435 -0.3715 -0.3920 -0.3508
 5665TIP3    H138554   6.224   3.525   2.358 -0.3365  0.0827 -0.4720
 5665TIP3    H238555   6.235   3.491   2.505 -0.5528 -0.6047 -0.6097
 5666TIP3   OH238556   1.156   5.891   1.770  0.8094  0.2904  0.2680
 5666TIP3    H138557   1.209   5.925   1.697 -0.1571  0.6851 -0.2771
 5666TIP3    H238558   1.118   5.969   1.810 -0.9162 -0.0750 -0.5864
 5667TIP3   OH238559   4.359   4.659   1.082  0.3891 -0.8894 -0.6943
 5667TIP3    H138560   4.362   4.732   1.144  0.2112 -0.5394 -1.0954
 5667TIP3    H238561   4.407   4.691   1.006  1.4644 -1.6782 -0.3665
 5668TIP3   OH238562   6.020   6.208   6.455  0.4376  0.7174 -0.0496
 5668TIP3    H138563   5.982   6.192   6.541 -0.3954  1.4167 -0.2712
 5668TIP3    H238564   5.977   6.288   6.424  1.1831  0.8253 -0.8491
 5669TIP3   OH238565   2.224   0.942   1.991  0.0898  0.2921 -0.0815
 5669TIP3    H138566   2.282   0.984   1.928 -0.4557  0.3470 -0.5582
 5669TIP3    H238567   2.138   0.946   1.950 -0.1581 -0.2841  0.3685
 5670TIP3   OH238568   2.942   2.773   1.512 -0.1366 -0.1318 -0.4029
 5670TIP3    H138569   2.851   2.751   1.495 -0.7026  1.5531  0.2506
 5670TIP3    H238570   2.986   2.759   1.428 -0.7755 -1.8120 -0.5065
 5671TIP3   OH238571   6.721   3.616   7.709 -0.2334 -0.1463  0.4420
 5671TIP3    H138572   6.627   3.610   7.694 -0.0635 -0.4282 -0.5991
 5671TIP3    H238573   6.730   3.619   7.805 -1.2956  0.0004  0.5502
 5672TIP3   OH238574   1.191   3.630   6.535 -0.7073 -0.1674 -0.5148
 5672TIP3    H138575   1.146   3.662   6.613 -0.8249  0.2234 -0.7368
 5672TIP3    H238576   1.212   3.539   6.554  2.3557  0.7888  1.3937
 5673TIP3   OH238577   5.290   4.716   1.639  0.0242  0.4007 -0.0913
 5673TIP3    H138578   5.213   4.660   1.624  0.5088 -0.0750 -0.8746
 5673TIP3    H238579   5.285   4.783   1.571 -0.4408  1.2009  0.7193
 5674TIP3   OH238580   1.818   3.509   8.194 -0.3873 -0.6684  0.3327
 5674TIP3    H138581   1.738   3.464   8.168 -0.2947 -0.9277  0.4900
 5674TIP3    H238582   1.886   3.443   8.186 -0.3738 -0.7890  1.3175
 5675TIP3   OH238583   0.881   5.718   0.446  0.1459  0.0702 -0.4021
 5675TIP3    H138584   0.878   5.686   0.356  2.1099  1.0010 -0.8611
 5675TIP3    H238585   0.811   5.784   0.450 -0.9050 -0.9903 -0.7844
 5676TIP3   OH238586   6.328   0.719   1.339  0.2684  0.0729  0.5992
 5676TIP3    H138587   6.280   0.797   1.367 -2.4831 -0.7443 -1.4287
 5676TIP3    H238588   6.286   0.692   1.257  2.2341 -2.5666  0.3073
 5677TIP3   OH238589   2.013   5.440   8.363 -0.7033  0.6161  0.0337
 5677TIP3    H138590   2.023   5.427   8.457 -0.8890  0.9950  0.1080
 5677TIP3    H238591   1.944   5.378   8.338  0.7019 -0.9159 -0.2156
 5678TIP3   OH238592   2.867   1.109   8.322  0.1646 -0.0459 -0.2135
 5678TIP3    H138593   2.816   1.065   8.391  0.3232 -0.0242 -0.0820
 5678TIP3    H238594   2.941   1.051   8.306  0.6161  0.3831  0.2757
 5679TIP3   OH238595   6.107   6.452   6.587 -0.7177 -0.3488  0.0118
 5679TIP3    H138596   6.187   6.433   6.636 -1.6644  0.7825  2.1535
 5679TIP3    H238597   6.038   6.453   6.654 -1.8247  3.1043 -0.9647
 5680TIP3   OH238598   0.352   1.156   0.067  0.0883 -0.1325 -0.2227
 5680TIP3    H138599   0.366   1.244   0.032  2.9182  0.5770  2.2633
 5680TIP3    H238600   0.309   1.170   0.151  1.4926 -0.9997  0.6802
 5681TIP3   OH238601   4.990   1.359   7.681 -0.1758 -0.4271  0.3420
 5681TIP3    H138602   5.036   1.440   7.705  2.7049 -1.1633 -2.0649
 5681TIP3    H238603   5.022   1.294   7.743 -0.7536 -0.2019  0.8810
 5682TIP3   OH238604   5.213   6.288   0.103  0.3145  0.1915  0.2069
 5682TIP3    H138605   5.172   6.291   0.189 -0.9882  1.9293 -0.4327
 5682TIP3    H238606   5.162   6.222   0.055  0.9246 -0.6421  0.6608
 5683TIP3   OH238607   4.814   4.584   1.142 -0.4492 -0.0105  0.2025
 5683TIP3    H138608   4.889   4.584   1.083 -0.9620  1.0003 -0.4930
 5683TIP3    H238609   4.756   4.516   1.108 -0.5522  0.2809 -0.2102
 5684TIP3   OH238610   3.430   6.667   1.572  0.0464 -0.2984 -0.0179
 5684TIP3    H138611   3.493   6.598   1.550  1.4736  1.1913 -0.7812
 5684TIP3    H238612   3.361   6.658   1.508  1.8642  1.0142 -2.3146
 5685TIP3   OH238613   0.169   3.788   0.620  0.5482  0.6206  0.3057
 5685TIP3    H138614   0.162   3.698   0.652  0.5991  0.0997 -1.0817
 5685TIP3    H238615   0.079   3.814   0.600  0.5624  0.7831  0.4531
 5686TIP3   OH238616   3.735   0.622   7.944 -0.0773 -0.4018  0.3214
 5686TIP3    H138617   3.725   0.526   7.940  0.3756 -0.4546  0.3470
 5686TIP3    H238618   3.652   0.654   7.977  0.5282 -0.9657  2.5544
 5687TIP3   OH238619   5.305   3.989   0.856  0.7081  0.3453  0.8991
 5687TIP3    H138620   5.281   4.044   0.930  0.7152  2.6764 -0.7287
 5687TIP3    H238621   5.374   4.038   0.810  1.2962 -1.4039 -0.2201
 5688TIP3   OH238622   5.114   4.769   0.707  0.4779 -0.0723 -0.5167
 5688TIP3    H138623   5.181   4.775   0.639  2.5095 -2.1916  1.1647
 5688TIP3    H238624   5.053   4.703   0.675  0.0630  0.6546 -1.2886
 5689TIP3   OH238625   2.876   2.156   1.607 -0.1656 -0.3308  0.3724
 5689TIP3    H138626   2.844   2.142   1.697  0.1301 -1.9404  0.2629
 5689TIP3    H238627   2.880   2.251   1.597  1.1021 -0.0908  2.5382
 5690TIP3   OH238628   6.690   6.423   1.618 -0.2234  0.4901  0.2978
 5690TIP3    H138629   6.604   6.400   1.583 -1.0196 -0.2863  2.5404
 5690TIP3    H238630   6.705   6.513   1.591 -2.8535  1.4667  1.7250
 5691TIP3   OH238631   0.642   3.559   7.871 -0.2450 -0.0994 -0.1610
 5691TIP3    H138632   0.698   3.489   7.836 -0.0171 -0.7796  1.4663
 5691TIP3    H238633   0.670   3.569   7.962 -1.4989  0.8884  0.1532
 5692TIP3   OH238634   2.235   4.426   7.924 -0.6151 -0.4931 -0.4518
 5692TIP3    H138635   2.321   4.417   7.964 -1.6716 -2.3227  1.6750
 5692TIP3    H238636   2.233   4.361   7.854  0.1146  0.4127 -1.3372
 5693TIP3   OH238637   2.224   4.597   0.460  0.2102  0.1748  0.7376
 5693TIP3    H138638   2.310   4.620   0.426  0.6275  1.7599  2.6809
 5693TIP3    H238639   2.235   4.511   0.501  0.5352 -0.1753 -0.0697
 5694TIP3   OH238640   4.434   1.446   1.585  1.1021 -0.0737 -0.0369
 5694TIP3    H138641   4.425   1.540   1.565 -0.6194 -0.2183 -0.0548
 5694TIP3    H238642   4.416   1.403   1.502  0.2798 -0.4606  0.3309
 5695TIP3   OH238643   1.169   1.135   2.636 -0.2642 -0.0381 -0.0684
 5695TIP3    H138644   1.113   1.096   2.703 -0.8211  2.6812  1.1996
 5695TIP3    H238645   1.119   1.126   2.555 -1.7936  0.8198  0.7370
 5696TIP3   OH238646   1.785   4.212   2.369  0.1782 -0.1029 -0.4356
 5696TIP3    H138647   1.771   4.306   2.358 -1.5160  0.1977  2.8224
 5696TIP3    H238648   1.873   4.205   2.405 -0.9203  0.7920  2.8240
 5697TIP3   OH238649   6.561   3.688   7.136 -0.0062  0.4992  0.0637
 5697TIP3    H138650   6.495   3.698   7.067 -0.4318 -0.2863  0.3461
 5697TIP3    H238651   6.607   3.607   7.115  1.2410  1.2977 -0.4155
 5698TIP3   OH238652   3.795   6.025   8.519  0.3810 -0.5291  0.2780
 5698TIP3    H138653   3.764   5.993   8.435  0.7549 -0.3866  0.0833
 5698TIP3    H238654   3.743   6.103   8.536  1.4093  0.3875 -0.6099
 5699TIP3   OH238655   5.916   1.195   2.031 -0.3400  0.5602 -0.0986
 5699TIP3    H138656   5.892   1.288   2.036  0.0608  0.6914 -0.5371
 5699TIP3    H238657   6.012   1.196   2.026 -0.3657  0.1427 -0.6755
 5700TIP3   OH238658   1.332   3.171   0.367  0.0544  0.2570 -0.0389
 5700TIP3    H138659   1.372   3.189   0.282  1.6077 -0.4527  0.5131
 5700TIP3    H238660   1.239   3.187   0.353  0.2690  0.1253 -1.8783
 5701TIP3   OH238661   6.388   1.878   2.588 -0.4384  0.2324  0.5122
 5701TIP3    H138662   6.458   1.942   2.575  1.3243 -1.2979  1.9087
 5701TIP3    H238663   6.406   1.808   2.525 -1.2694  0.2482  0.2401
 5702TIP3   OH238664   2.226   4.096   7.268  0.0765 -0.1169  0.1692
 5702TIP3    H138665   2.210   4.187   7.241  0.5255  1.0087  3.2463
 5702TIP3    H238666   2.319   4.082   7.251  0.0396  0.0502 -0.1809
 5703TIP3   OH238667   0.069   4.933   8.211  0.2492 -0.2672 -0.8895
 5703TIP3    H138668   0.136   4.992   8.245 -1.7708  1.0951  1.0317
 5703TIP3    H238669   0.068   4.860   8.273  1.0894 -1.1933 -1.9128
 5704TIP3   OH238670   4.095   2.983   1.690  0.4875 -0.5831  0.3850
 5704TIP3    H138671   4.005   2.953   1.680  0.9042 -2.2780  1.3005
 5704TIP3    H238672   4.096   3.030   1.773 -0.5523  3.8769 -1.7892
 5705TIP3   OH238673   4.437   5.316   0.579  0.4056  0.1748 -0.2963
 5705TIP3    H138674   4.451   5.305   0.485  1.4093 -1.5865 -0.0003
 5705TIP3    H238675   4.515   5.362   0.610  2.0663 -2.7120  0.1841
 5706TIP3   OH238676   3.760   2.016   2.170 -0.6901  0.1296 -0.4102
 5706TIP3    H138677   3.711   2.082   2.122  0.5244 -0.0040 -1.9376
 5706TIP3    H238678   3.699   1.942   2.178 -1.8275  1.1583  0.7263
 5707TIP3   OH238679   3.829   4.851   8.476 -0.2423 -0.4653  0.6731
 5707TIP3    H138680   3.802   4.885   8.561 -0.6671 -0.0925  0.3930
 5707TIP3    H238681   3.841   4.929   8.422  0.4883 -0.6773  0.5240
 5708TIP3   OH238682   4.706   6.343   7.026 -0.1709  0.1166 -0.0557
 5708TIP3    H138683   4.657   6.382   7.099 -1.3535 -3.4682  1.2587
 5708TIP3    H238684   4.783   6.305   7.067  0.7347  0.6406 -1.2225
 5709TIP3   OH238685   5.700   6.287   7.533 -0.2945  0.1157 -0.2765
 5709TIP3    H138686   5.688   6.193   7.522 -0.4923  0.0266  0.6598
 5709TIP3    H238687   5.660   6.326   7.454 -2.6158 -0.4373  0.5511
 5710TIP3   OH238688   1.499   0.867   0.111 -0.0205  0.3432  0.1677
 5710TIP3    H138689   1.575   0.878   0.168  1.2937  0.8053 -1.5792
 5710TIP3    H238690   1.455   0.788   0.144  1.6382 -0.3747  0.7805
 5711TIP3   OH238691   6.096   5.013   1.880 -0.4470  0.5238 -0.0058
 5711TIP3    H138692   6.035   4.964   1.935  0.7504 -1.0906 -0.0519
 5711TIP3    H238693   6.137   5.077   1.939 -0.2776 -0.1638  0.6255
 5712TIP3   OH238694   3.990   6.797   1.427  0.4536  0.3005 -0.5490
 5712TIP3    H138695   4.004   6.734   1.497  2.5060 -0.5247 -1.6028
 5712TIP3    H238696   3.921   6.855   1.459 -1.4283 -2.3464  0.5411
 5713TIP3   OH238697   4.030   6.583   8.256 -0.2409 -0.2530 -0.4528
 5713TIP3    H138698   3.958   6.528   8.287 -1.1277  1.1660  0.1075
 5713TIP3    H238699   4.003   6.609   8.168  0.1446 -0.6314 -0.6890
 5714TIP3   OH238700   3.961   4.676   1.590  0.2210  0.2280 -0.1167
 5714TIP3    H138701   4.051   4.707   1.587  0.4349 -0.4168 -0.6819
 5714TIP3    H238702   3.960   4.609   1.659 -0.2631  1.5151  1.1738
 5715TIP3   OH238703   5.511   3.643   7.863  0.0759 -0.0149 -0.8401
 5715TIP3    H138704   5.548   3.612   7.946  1.0030  1.0468 -0.8257
 5715TIP3    H238705   5.444   3.705   7.888  0.0600 -0.0141 -0.8839
 5716TIP3   OH238706   1.961   1.726   1.384  0.2059  0.1499  0.0652
 5716TIP3    H138707   1.929   1.686   1.303  0.0101  1.1807 -0.3923
 5716TIP3    H238708   2.039   1.676   1.408 -0.0115 -0.4607 -0.5040
 5717TIP3   OH238709   6.117   1.112   2.287  0.0626  0.5146  0.1062
 5717TIP3    H138710   6.180   1.184   2.283  0.2624  0.3994  1.0155
 5717TIP3    H238711   6.154   1.045   2.230  0.0819  0.9680 -0.4228
 5718TIP3   OH238712   6.414   5.299   7.063  0.4188 -0.1596  0.0851
 5718TIP3    H138713   6.503   5.291   7.029 -0.5370 -0.1539 -2.6515
 5718TIP3    H238714   6.369   5.220   7.032 -0.6112 -0.0655  1.2389
 5719TIP3   OH238715   6.338   5.207   7.347 -0.1582  0.0658  0.3098
 5719TIP3    H138716   6.430   5.200   7.372 -0.5612 -0.9791  1.5880
 5719TIP3    H238717   6.340   5.239   7.257  1.5166 -1.5532 -0.2823
 5720TIP3   OH238718   1.584   6.357   8.196  0.4348  0.6875 -0.1305
 5720TIP3    H138719   1.515   6.363   8.130  0.9059 -0.1805 -0.7363
 5720TIP3    H238720   1.556   6.415   8.267 -1.3909 -0.3855  0.0768
 5721TIP3   OH238721   5.719   3.134   0.093 -0.1691  0.1945  0.3595
 5721TIP3    H138722   5.704   3.173   0.007  0.5125 -0.9363 -0.3057
 5721TIP3    H238723   5.702   3.204   0.155 -2.0531  0.6585 -0.6088
 5722TIP3   OH238724   1.757   3.900   7.427  0.3510  0.3363 -0.1509
 5722TIP3    H138725   1.821   3.962   7.393  0.5462 -1.2358 -2.9117
 5722TIP3    H238726   1.679   3.913   7.373  0.1311 -1.2407 -0.2660
 5723TIP3   OH238727   6.010   3.438   0.719  0.3882 -0.1412  0.0019
 5723TIP3    H138728   6.094   3.414   0.756  0.4052  0.2191  0.2013
 5723TIP3    H238729   5.991   3.369   0.656  0.0216 -1.1550  1.1840
 5724TIP3   OH238730   5.796   3.960   7.984 -0.2904 -0.3410 -0.1685
 5724TIP3    H138731   5.807   3.889   7.921  0.3605  0.0382 -0.4903
 5724TIP3    H238732   5.707   3.992   7.970 -0.4885 -0.9036 -0.2143
 5725TIP3   OH238733   2.666   5.475   2.258 -0.0289 -0.1702  0.1002
 5725TIP3    H138734   2.580   5.436   2.275  0.0695 -0.8955 -0.9506
 5725TIP3    H238735   2.690   5.443   2.171  0.3858  1.7029 -0.5205
 5726TIP3   OH238736   1.321   2.590   0.309  0.8615  0.1171  1.0980
 5726TIP3    H138737   1.374   2.654   0.357  1.6488  1.1829 -1.0467
 5726TIP3    H238738   1.236   2.633   0.298  1.7429  1.4309 -1.3555
 5727TIP3   OH238739   5.276   4.525   0.321 -0.1830  0.6008  0.0559
 5727TIP3    H138740   5.334   4.577   0.376  1.0385 -0.4642 -0.1883
 5727TIP3    H238741   5.209   4.587   0.292  0.7295  1.8248  0.4776
 5728TIP3   OH238742   2.920   6.435   2.462  0.1507  0.0491 -0.0229
 5728TIP3    H138743   2.916   6.421   2.557  4.0897  0.8974  0.4370
 5728TIP3    H238744   2.923   6.347   2.425 -0.3811 -0.2913  0.7137
 5729TIP3   OH238745   3.655   5.365   0.654  0.0749 -0.0634 -0.2121
 5729TIP3    H138746   3.575   5.344   0.606 -1.6446  2.0346  1.5044
 5729TIP3    H238747   3.663   5.294   0.718 -2.1800  1.0759  1.5124
 5730TIP3   OH238748   3.908   0.371   2.719 -0.1535  0.0918 -0.4335
 5730TIP3    H138749   3.890   0.457   2.682  2.4173  0.4690 -1.0577
 5730TIP3    H238750   3.836   0.316   2.690 -0.6643  1.4981 -1.9997
 5731TIP3   OH238751   0.145   1.089   8.571  0.2346 -0.0211  0.0437
 5731TIP3    H138752   0.218   1.070   8.630 -0.9627 -1.0947  1.2354
 5731TIP3    H238753   0.098   1.161   8.613  0.1731  0.1623 -0.3334
 5732TIP3   OH238754   4.060   0.993   0.807 -0.2632 -0.4247 -0.4589
 5732TIP3    H138755   3.982   0.939   0.822 -0.3178 -0.4491 -0.8183
 5732TIP3    H238756   4.038   1.045   0.729  0.0600 -0.3974 -0.5318
 5733TIP3   OH238757   0.373   3.262   0.461 -0.6510  0.2716 -0.0632
 5733TIP3    H138758   0.417   3.315   0.528  0.2156  0.9212 -1.1089
 5733TIP3    H238759   0.444   3.216   0.416 -1.2046 -0.0504 -0.6186
 5734TIP3   OH238760   2.468   2.395   1.335 -0.6313  0.3112 -0.0167
 5734TIP3    H138761   2.496   2.311   1.298  2.4174  0.2492  2.0218
 5734TIP3    H238762   2.508   2.461   1.279 -1.8667  0.4068 -0.8108
 5735TIP3   OH238763   1.998   1.106   0.483  0.3032  1.0030  0.3553
 5735TIP3    H138764   2.040   1.186   0.515  1.3992 -0.0057  1.5793
 5735TIP3    H238765   1.905   1.123   0.491  0.5171  2.1759  0.5626
 5736TIP3   OH238766   0.150   2.961   7.827  0.3609 -0.1552  0.2682
 5736TIP3    H138767   0.120   2.998   7.910  0.7000 -1.4814  1.0069
 5736TIP3    H238768   0.232   2.916   7.848  0.6135 -0.2468 -0.8450
 5737TIP3   OH238769   1.270   0.811   0.591  0.8000 -0.2941  0.1653
 5737TIP3    H138770   1.209   0.885   0.592  1.1019 -0.0331 -0.3812
 5737TIP3    H238771   1.222   0.740   0.633  0.2917  0.0452  0.1663
 5738TIP3   OH238772   4.968   5.732   7.106  0.2630  0.0360 -0.2340
 5738TIP3    H138773   5.016   5.707   7.028 -0.4144  0.0073 -0.6520
 5738TIP3    H238774   4.979   5.657   7.166  1.4462  0.4028  0.0190
 5739TIP3   OH238775   5.347   0.660   0.635 -0.0820 -0.0490 -0.4136
 5739TIP3    H138776   5.402   0.703   0.570 -0.1543 -0.2082 -0.5817
 5739TIP3    H238777   5.408   0.606   0.686  0.1294  0.8354  0.2967
 5740TIP3   OH238778   3.172   2.628   1.523 -0.2259 -0.0869  0.0339
 5740TIP3    H138779   3.117   2.697   1.561  0.7431 -0.1762  1.6917
 5740TIP3    H238780   3.240   2.613   1.588 -0.3061 -2.5129 -0.3674
 5741TIP3   OH238781   3.848   2.892   1.621 -0.4788 -0.0674  0.2941
 5741TIP3    H138782   3.786   2.958   1.593 -0.4712 -0.1762  0.0224
 5741TIP3    H238783   3.815   2.863   1.706 -0.3385  0.4681  0.5336
 5742TIP3   OH238784   1.131   0.795   7.857 -1.0352 -0.1019  0.0670
 5742TIP3    H138785   1.160   0.782   7.948 -0.9367 -1.5705 -0.1557
 5742TIP3    H238786   1.036   0.809   7.864 -0.9471  0.3490  0.4323
 5743TIP3   OH238787   2.101   6.576   2.946  0.2421 -0.0879 -0.1662
 5743TIP3    H138788   2.090   6.627   2.865 -0.3440  0.7718  0.4436
 5743TIP3    H238789   2.085   6.486   2.920  1.8034 -0.0659 -1.3887
 5744TIP3   OH238790   6.271   1.264   8.480  0.4410  0.2168 -0.0430
 5744TIP3    H138791   6.288   1.172   8.459  0.5264  0.3044 -0.3751
 5744TIP3    H238792   6.229   1.299   8.401  2.1409  0.9390 -0.6771
 5745TIP3   OH238793   3.450   4.554   7.329  0.5319  0.2384  0.4356
 5745TIP3    H138794   3.483   4.485   7.388 -0.5816 -1.5271 -0.9064
 5745TIP3    H238795   3.452   4.514   7.242 -4.5044  0.0678  0.0993
 5746TIP3   OH238796   1.362   4.371   7.458  0.2831  0.1895 -0.1854
 5746TIP3    H138797   1.333   4.328   7.538 -0.0065  2.7114  1.1500
 5746TIP3    H238798   1.304   4.447   7.449  1.1864  0.7188 -2.0490
 5747TIP3   OH238799   6.569   5.906   7.544  0.3423 -0.3271 -0.1969
 5747TIP3    H138800   6.554   5.876   7.454 -1.2996 -0.5942  0.1367
 5747TIP3    H238801   6.497   5.966   7.561  1.1700  0.4562  0.6413
 5748TIP3   OH238802   3.224   0.869   8.460 -0.3909 -0.0158  0.1865
 5748TIP3    H138803   3.205   0.810   8.532  0.4138  0.0543  0.4726
 5748TIP3    H238804   3.193   0.954   8.489 -3.4307 -0.5799 -1.0295
 5749TIP3   OH238805   4.736   0.927   0.620  0.2719  0.7750  0.3111
 5749TIP3    H138806   4.813   0.966   0.579 -0.4324  2.4699  0.5102
 5749TIP3    H238807   4.742   0.834   0.598  3.0638  0.5929  1.4569
 5750TIP3   OH238808   6.484   6.644   0.459 -0.2744  0.4418  0.3220
 5750TIP3    H138809   6.569   6.660   0.499 -0.5637  3.1893  0.0794
 5750TIP3    H238810   6.440   6.584   0.519  0.8812  1.0833  1.8892
 5751TIP3   OH238811   0.672   3.182   3.145  0.7872  0.1652  0.3381
 5751TIP3    H138812   0.766   3.181   3.163  0.6565  1.5616  1.2597
 5751TIP3    H238813   0.666   3.194   3.050  1.5273 -0.5143  0.1957
 5752TIP3   OH238814   2.068   6.805   0.092 -0.3948  0.3120  0.2630
 5752TIP3    H138815   2.144   6.757   0.125  0.0686  0.9890  0.1858
 5752TIP3    H238816   2.078   6.893   0.126 -1.3387  0.3246  0.5480
 5753TIP3   OH238817   2.708   5.994   7.839 -0.3156 -0.3085 -0.2225
 5753TIP3    H138818   2.689   5.916   7.891  1.3583  1.2775  3.0340
 5753TIP3    H238819   2.799   5.983   7.811 -0.3951  0.0369 -0.6366
 5754TIP3   OH238820   2.637   1.269   0.793  0.4696  0.3146 -0.6252
 5754TIP3    H138821   2.670   1.355   0.765 -3.3038  1.5219 -1.9877
 5754TIP3    H238822   2.607   1.283   0.883  0.8154  0.0792 -0.4686
 5755TIP3   OH238823   4.014   5.747   0.593 -0.1618  0.2596 -0.4666
 5755TIP3    H138824   3.970   5.672   0.552 -0.6536  0.3962 -0.2043
 5755TIP3    H238825   4.078   5.708   0.653 -1.0622  0.0208  0.3743
 5756TIP3   OH238826   4.992   1.654   0.881 -0.0825  0.2067  0.2196
 5756TIP3    H138827   5.006   1.725   0.817 -0.2906  2.1276  2.1955
 5756TIP3    H238828   4.896   1.646   0.886 -0.1129  0.8896  1.0819
 5757TIP3   OH238829   4.640   5.124   1.708  0.5258  0.1090 -0.0110
 5757TIP3    H138830   4.597   5.201   1.670  0.9818  0.6281  0.4999
 5757TIP3    H238831   4.631   5.136   1.802  1.9479  0.3336  0.1204
 5758TIP3   OH238832   6.719   5.696   1.631 -0.7558  0.7207  0.0259
 5758TIP3    H138833   6.799   5.714   1.582 -1.1934  0.1749 -0.9123
 5758TIP3    H238834   6.716   5.765   1.698  1.7989 -0.6821  1.7614
 5759TIP3   OH238835   4.982   3.530   1.630  0.5331 -0.7882  0.7617
 5759TIP3    H138836   5.011   3.453   1.581  2.2383  0.2010  0.1245
 5759TIP3    H238837   4.992   3.603   1.569 -1.6404 -0.0898  1.1442
 5760TIP3   OH238838   3.260   3.090   2.848  0.5791 -0.3078 -0.0822
 5760TIP3    H138839   3.183   3.106   2.794  1.4801  2.2754 -0.7485
 5760TIP3    H238840   3.331   3.076   2.785  1.1081 -0.2076  0.4854
 5761TIP3   OH238841   6.097   2.243   2.152 -0.3347 -0.9729  0.3254
 5761TIP3    H138842   6.006   2.257   2.178 -0.5112 -1.7252  0.1384
 5761TIP3    H238843   6.100   2.152   2.122  0.7416 -1.3615  1.5093
 5762TIP3   OH238844   0.289   4.288   6.843  0.1114 -0.5640  0.1840
 5762TIP3    H138845   0.367   4.342   6.851  0.7823 -1.5223  0.3046
 5762TIP3    H238846   0.249   4.290   6.930  0.2955 -0.5105  0.2671
 5763TIP3   OH238847   2.651   3.538   0.810 -0.6096  0.3377 -0.2215
 5763TIP3    H138848   2.612   3.509   0.892 -0.5476  0.1319 -0.2656
 5763TIP3    H238849   2.724   3.478   0.796  1.5097  2.3655  1.3094
 5764TIP3   OH238850   2.794   3.321   1.170  0.2217 -0.1159  0.7489
 5764TIP3    H138851   2.768   3.400   1.217 -0.4337 -0.0341  0.2743
 5764TIP3    H238852   2.825   3.261   1.237  0.5176  0.4636  1.1389
 5765TIP3   OH238853   1.841   3.531   1.448  0.0364  0.2494 -0.0073
 5765TIP3    H138854   1.912   3.595   1.439 -1.2419  1.9300  1.1471
 5765TIP3    H238855   1.791   3.538   1.367  0.7323 -0.4086 -0.5113
 5766TIP3   OH238856   5.821   0.273   0.281 -0.2458  0.3500  0.1373
 5766TIP3    H138857   5.875   0.312   0.349 -0.2071  1.1286 -0.3170
 5766TIP3    H238858   5.731   0.283   0.312 -0.2690  1.2595 -0.1807
 5767TIP3   OH238859   2.156   6.631   1.210  0.1217 -0.9854 -0.3005
 5767TIP3    H138860   2.157   6.606   1.117 -1.4585 -1.9014 -0.1069
 5767TIP3    H238861   2.228   6.692   1.219  1.0620 -1.8007 -1.8817
 5768TIP3   OH238862   4.225   1.520   1.286 -0.8087 -0.3584 -0.4625
 5768TIP3    H138863   4.282   1.464   1.234 -0.7034 -0.0047 -0.7280
 5768TIP3    H238864   4.266   1.606   1.283 -0.5689 -0.4249  0.5530
 5769TIP3   OH238865   5.751   3.631   0.006  0.0502  0.2987  0.3021
 5769TIP3    H138866   5.764   3.652   0.099 -1.7522  0.8071  0.4796
 5769TIP3    H238867   5.740   3.715  -0.037 -0.3654  0.0113 -0.1649
 5770TIP3   OH238868   3.863   0.511   7.437 -0.2535 -0.3441 -0.1428
 5770TIP3    H138869   3.928   0.459   7.390  0.3197 -0.8544  1.1471
 5770TIP3    H238870   3.874   0.485   7.529  1.1809  3.1920  0.8506
 5771TIP3   OH238871   6.678   6.251   8.450 -0.4281 -0.7095 -0.1453
 5771TIP3    H138872   6.592   6.260   8.491 -0.4013  0.9791 -0.4085
 5771TIP3    H238873   6.740   6.282   8.516 -0.2522  0.4754 -0.8401
 5772TIP3   OH238874   4.493   0.853   8.165 -0.4549  0.2857  0.2684
 5772TIP3    H138875   4.539   0.791   8.222  0.3146  0.6980  0.1057
 5772TIP3    H238876   4.540   0.935   8.176 -1.1105  0.7026  0.0344
 5773TIP3   OH238877   0.588   5.483   2.185  1.0715 -0.1023  0.6689
 5773TIP3    H138878   0.608   5.546   2.116 -2.2836  0.7865  0.2842
 5773TIP3    H238879   0.579   5.536   2.265 -1.9429  0.1189  0.3116
 5774TIP3   OH238880   6.284   1.278   8.144 -0.2850  0.0727 -0.0530
 5774TIP3    H138881   6.206   1.289   8.199 -0.8504  3.5212 -1.3050
 5774TIP3    H238882   6.251   1.283   8.054  0.8897 -3.4270 -0.8658
 5775TIP3   OH238883   5.443   0.559   2.685 -0.0514  0.1419  1.3589
 5775TIP3    H138884   5.389   0.630   2.649  3.5262  2.3419 -0.1973
 5775TIP3    H238885   5.482   0.597   2.764  1.8055 -0.0357  0.5816
 5776TIP3   OH238886   4.775   4.342   2.308  0.2153  0.5953  0.1152
 5776TIP3    H138887   4.802   4.381   2.225  0.4031 -2.9906 -1.6703
 5776TIP3    H238888   4.856   4.310   2.347 -0.3213 -2.9136 -1.3041
 5777TIP3   OH238889   3.159   3.662   0.183  0.2858  0.1331 -0.4865
 5777TIP3    H138890   3.206   3.598   0.130 -1.2819 -0.4339 -1.2553
 5777TIP3    H238891   3.078   3.679   0.135 -0.0385  1.5405  0.4777
 5778TIP3   OH238892   1.607   5.834   8.221 -0.6153  0.1703 -0.0376
 5778TIP3    H138893   1.636   5.756   8.173 -2.3908 -0.2340 -0.5377
 5778TIP3    H238894   1.630   5.907   8.164 -0.7414 -0.1542 -0.5143
 5779TIP3   OH238895   1.299   1.660   2.373  0.6302  0.3108  0.0295
 5779TIP3    H138896   1.231   1.619   2.319  0.9484  1.1365 -1.0389
 5779TIP3    H238897   1.258   1.669   2.460 -0.1330 -0.4360 -0.2398
 5780TIP3   OH238898   3.285   5.576   1.841 -0.8743  0.1680 -0.4920
 5780TIP3    H138899   3.193   5.566   1.864 -0.3926  0.8668  2.0581
 5780TIP3    H238900   3.304   5.668   1.855  0.3177 -0.0634 -0.4802
 5781TIP3   OH238901   6.092   2.541   2.034  0.0965  0.3600 -0.2572
 5781TIP3    H138902   6.056   2.511   1.950 -1.1421  1.3411 -0.1165
 5781TIP3    H238903   6.126   2.462   2.075 -0.1110 -0.2871 -1.2894
 5782TIP3   OH238904   2.292   2.636   1.766 -0.4945 -0.2855  0.6777
 5782TIP3    H138905   2.370   2.631   1.712 -0.7678 -0.8341  0.3211
 5782TIP3    H238906   2.235   2.567   1.731 -1.0994  0.0585  0.9846
 5783TIP3   OH238907   0.204   6.494   2.345  0.3310 -0.2964  0.5537
 5783TIP3    H138908   0.211   6.579   2.389  0.3477  0.4881 -0.9089
 5783TIP3    H238909   0.294   6.461   2.344  0.6118  0.4614 -0.3566
 5784TIP3   OH238910   0.905   2.464   1.955 -0.0723 -0.4163  0.0101
 5784TIP3    H138911   0.969   2.401   1.988  0.1071  0.0077  0.4740
 5784TIP3    H238912   0.820   2.427   1.981 -0.0194 -0.9636 -0.5832
 5785TIP3   OH238913   4.249   4.692   1.612 -0.6818  0.0749  0.2918
 5785TIP3    H138914   4.328   4.712   1.562 -0.9029  2.7340  0.8597
 5785TIP3    H238915   4.280   4.648   1.691  0.1284  0.3656  0.1347
 5786TIP3   OH238916   5.455   2.298   0.521 -0.6060  0.0352  0.1278
 5786TIP3    H138917   5.526   2.338   0.570 -1.3834 -0.6349  1.8950
 5786TIP3    H238918   5.447   2.210   0.557 -1.9103 -0.1270 -0.4722
 5787TIP3   OH238919   4.749   1.611   2.558 -0.6076 -0.4792 -0.4721
 5787TIP3    H138920   4.791   1.597   2.643  0.2786 -0.5698 -0.9169
 5787TIP3    H238921   4.672   1.665   2.578 -0.3762 -0.4456  0.3758
 5788TIP3   OH238922   3.508   5.967   0.820 -0.1218 -0.1534 -0.0415
 5788TIP3    H138923   3.527   5.998   0.908 -1.9340  0.8741  0.0325
 5788TIP3    H238924   3.418   5.934   0.824  0.2078 -1.2916 -1.2078
 5789TIP3   OH238925   3.127   4.709   1.815  0.2956  0.0821  0.0888
 5789TIP3    H138926   3.106   4.801   1.804 -1.1360 -0.4926 -3.7252
 5789TIP3    H238927   3.078   4.665   1.746  1.6956 -3.4509  1.0989
 5790TIP3   OH238928   2.616   4.632   7.643 -0.1564  0.0815  0.1920
 5790TIP3    H138929   2.569   4.593   7.717 -1.4404 -0.0903 -0.6714
 5790TIP3    H238930   2.575   4.718   7.632  1.1171  0.7671  0.6591
 5791TIP3   OH238931   1.271   0.919   2.209 -0.2943 -0.0614  0.3450
 5791TIP3    H138932   1.262   0.831   2.171  1.2474  0.1024 -0.4545
 5791TIP3    H238933   1.318   0.969   2.143 -2.1882  1.7533  0.2679
 5792TIP3   OH238934   3.250   5.896   1.776  0.0758 -0.2421  0.4793
 5792TIP3    H138935   3.319   5.843   1.737 -0.8608 -0.7112 -0.5704
 5792TIP3    H238936   3.194   5.921   1.703 -1.8948 -1.3840  1.5292
 5793TIP3   OH238937   5.532   3.803   7.205 -0.1778  0.4913 -0.3714
 5793TIP3    H138938   5.489   3.796   7.120 -0.2272  0.3987 -0.3387
 5793TIP3    H238939   5.609   3.858   7.188 -1.0515  1.8215 -0.1371
 5794TIP3   OH238940   0.280   0.055   7.741 -0.7634  0.1170  0.1792
 5794TIP3    H138941   0.194   0.013   7.738 -1.1876  0.7644  2.0293
 5794TIP3    H238942   0.324   0.013   7.815  0.3094  0.2191 -0.3753
 5795TIP3   OH238943   4.155   0.888   6.659 -0.1589 -0.0853 -0.2015
 5795TIP3    H138944   4.156   0.804   6.705  0.3974  0.0193 -0.0192
 5795TIP3    H238945   4.077   0.933   6.692  0.1342 -0.0850  0.4978
 5796TIP3   OH238946   4.690   6.846   0.462  0.0515 -0.4746  0.1051
 5796TIP3    H138947   4.696   6.875   0.553  2.0518  0.1969 -0.1999
 5796TIP3    H238948   4.598   6.859   0.439  0.1180  2.3437  1.0710
 5797TIP3   OH238949   1.376   1.120   8.034 -0.3593  0.5247 -0.0517
 5797TIP3    H138950   1.282   1.135   8.046 -0.8607 -1.6564 -0.7727
 5797TIP3    H238951   1.397   1.162   7.951 -0.8385  0.5215 -0.1764
 5798TIP3   OH238952   6.103   1.639   8.123 -0.0226 -0.2688 -0.2056
 5798TIP3    H138953   6.052   1.580   8.067 -0.6019  0.2235 -0.1966
 5798TIP3    H238954   6.088   1.726   8.087 -0.7314  0.1068  0.9551
 5799TIP3   OH238955   1.696   5.034   7.530  0.4604 -0.1160  0.0346
 5799TIP3    H138956   1.602   5.051   7.519  0.8709  2.0172 -0.5740
 5799TIP3    H238957   1.706   5.020   7.625 -0.4043  0.1574  0.1820
 5800TIP3   OH238958   5.744   0.038   8.128  0.5067  0.2913  0.1705
 5800TIP3    H138959   5.661   0.057   8.172  0.6940  0.4973  0.4407
 5800TIP3    H238960   5.768   0.121   8.086  0.3595  0.1126 -0.2755
 5801TIP3   OH238961   3.637   0.390   8.588  0.1687 -0.3923 -0.3997
 5801TIP3    H138962   3.614   0.330   8.517 -1.1689  0.9403 -1.1554
 5801TIP3    H238963   3.566   0.454   8.590  1.6865  1.3860  0.1196
 5802TIP3   OH238964   3.970   0.753   1.975  0.0445  0.1863 -0.0887
 5802TIP3    H138965   3.964   0.806   2.055 -0.7530  0.3385 -0.2419
 5802TIP3    H238966   3.974   0.663   2.006 -0.8276  0.2095  0.1151
 5803TIP3   OH238967   2.312   6.386   1.848 -0.4386 -0.0221  0.2178
 5803TIP3    H138968   2.347   6.353   1.765 -0.0563  0.5900  0.1313
 5803TIP3    H238969   2.302   6.308   1.903  0.2592 -0.3033 -0.0532
 5804TIP3   OH238970   1.905   6.779   2.138 -0.5026 -0.2584 -0.4164
 5804TIP3    H138971   1.814   6.790   2.111  0.0419 -0.3009 -2.4097
 5804TIP3    H238972   1.956   6.799   2.060  1.1564 -1.5392  0.2818
 5805TIP3   OH238973   2.834   0.151   7.906  0.0477  0.4964 -0.5498
 5805TIP3    H138974   2.893   0.224   7.924  1.6087 -0.6343 -0.8730
 5805TIP3    H238975   2.770   0.153   7.977  1.6581  0.5700  0.9554
 5806TIP3   OH238976   6.264   5.469   6.703  0.2094 -0.2781 -0.0374
 5806TIP3    H138977   6.302   5.430   6.624  0.3208  0.5362 -0.4022
 5806TIP3    H238978   6.244   5.395   6.760  0.3309 -0.8646 -0.7433
 5807TIP3   OH238979   2.247   1.948   1.427  0.5416  0.5014 -0.1280
 5807TIP3    H138980   2.323   1.901   1.393  0.1765 -0.9270  0.9503
 5807TIP3    H238981   2.268   1.964   1.519 -0.2747  0.4807  0.0708
 5808TIP3   OH238982   3.356   0.695   7.549 -0.0290  0.0456  0.3702
 5808TIP3    H138983   3.362   0.630   7.619 -0.4371 -0.4299 -0.0295
 5808TIP3    H238984   3.319   0.773   7.591 -0.9159 -0.4558  0.5481
 5809TIP3   OH238985   1.497   6.091   1.833  0.2989 -0.7383 -0.8099
 5809TIP3    H138986   1.494   6.049   1.919 -4.3799 -0.7428 -0.7200
 5809TIP3    H238987   1.587   6.076   1.802  2.0109 -1.3369  3.6785
 5810TIP3   OH238988   1.887   2.446   0.725 -0.3980  0.0098 -0.1677
 5810TIP3    H138989   1.895   2.366   0.673 -1.3200 -1.2846  1.5877
 5810TIP3    H238990   1.963   2.446   0.782 -1.5584 -0.9255  1.4761
 5811TIP3   OH238991   5.382   0.349   1.817 -0.4359 -0.3013  0.1010
 5811TIP3    H138992   5.345   0.396   1.892  0.9143 -0.8874  1.1945
 5811TIP3    H238993   5.393   0.415   1.749 -1.7955  0.2271  0.3634
 5812TIP3   OH238994   3.743   6.553   0.995  0.0322  0.2803 -0.0218
 5812TIP3    H138995   3.679   6.514   1.055  1.1228  1.7207  2.2052
 5812TIP3    H238996   3.753   6.488   0.925 -1.1337 -1.6087  1.4605
 5813TIP3   OH238997   6.811   0.521   0.394  0.9616  0.2205 -0.2800
 5813TIP3    H138998   6.804   0.438   0.348 -1.5430 -0.6584  1.4959
 5813TIP3    H238999   6.751   0.579   0.348  2.1319  0.8515 -1.0486
 5814TIP3   OH239000   0.884   1.591   1.971 -0.1068  0.3615 -0.5266
 5814TIP3    H139001   0.813   1.630   2.022 -0.5372 -0.8899 -0.1395
 5814TIP3    H239002   0.844   1.573   1.886 -0.3041 -0.4754 -0.2614
 5815TIP3   OH239003   2.023   2.787   1.505  0.1518 -0.0509 -0.5704
 5815TIP3    H139004   2.038   2.757   1.595 -1.5864  0.8776  0.0930
 5815TIP3    H239005   1.987   2.711   1.460  0.7759 -0.4477 -0.4075
 5816TIP3   OH239006   4.703   4.175   1.511 -0.4940  0.2746 -0.4480
 5816TIP3    H139007   4.720   4.083   1.490 -1.1111 -0.3574  1.5765
 5816TIP3    H239008   4.737   4.223   1.436  0.1551 -1.5798 -1.4150
 5817TIP3   OH239009   1.059   3.376   2.712 -0.1938 -0.1750 -0.0098
 5817TIP3    H139010   1.093   3.368   2.623 -2.5573  0.4638 -1.0481
 5817TIP3    H239011   1.011   3.295   2.728  0.9682 -0.6911  1.0889
 5818TIP3   OH239012   2.545   1.203   8.619 -0.6238 -0.1199 -0.5010
 5818TIP3    H139013   2.524   1.282   8.568 -1.2176  0.4852  0.6383
 5818TIP3    H239014   2.605   1.154   8.563 -2.3709 -0.2292 -2.4385
 5819TIP3   OH239015   2.123   2.501   7.610  0.5505  0.3584 -0.0474
 5819TIP3    H139016   2.106   2.594   7.596  1.4990  0.6509  0.6429
 5819TIP3    H239017   2.198   2.482   7.554  1.0126  0.2697  0.5894
 5820TIP3   OH239018   0.178   1.707   8.470  0.3881  0.1758  0.1986
 5820TIP3    H139019   0.172   1.720   8.375  1.2149 -0.8147 -0.0175
 5820TIP3    H239020   0.272   1.718   8.489  0.0796  1.4708  1.0965
 5821TIP3   OH239021   0.663   2.903   1.614  0.0503 -0.4356  0.4956
 5821TIP3    H139022   0.634   2.957   1.688 -0.6014 -1.0099  0.6676
 5821TIP3    H239023   0.644   2.814   1.641  1.6635 -0.8330  0.4605
 5822TIP3   OH239024   5.489   4.167   0.763  0.1731  0.4298 -0.1619
 5822TIP3    H139025   5.476   4.245   0.709  0.1725  0.2631 -0.4033
 5822TIP3    H239026   5.525   4.200   0.845  0.2989  0.6710 -0.3153
 5823TIP3   OH239027   4.726   3.370   7.331 -0.5581 -0.0165  0.1387
 5823TIP3    H139028   4.731   3.460   7.299 -2.5454  0.2609  0.4751
 5823TIP3    H239029   4.770   3.318   7.263  0.7110  1.1905 -0.0125
 5824TIP3   OH239030   4.961   0.986   1.568  0.9415 -0.2013 -0.2612
 5824TIP3    H139031   5.009   1.066   1.592  2.0587 -1.4531  1.9811
 5824TIP3    H239032   5.027   0.930   1.528  0.1325 -0.0320 -1.9442
 5825TIP3   OH239033   0.522   0.929   8.656  0.7363  0.4316  0.0378
 5825TIP3    H139034   0.533   0.892   8.744 -2.5055  1.2064  0.8751
 5825TIP3    H239035   0.480   1.014   8.671 -1.5758 -0.1832 -2.2803
 5826TIP3   OH239036   5.696   0.324   7.645 -0.1821 -0.0085  0.2208
 5826TIP3    H139037   5.719   0.381   7.719 -1.6553  0.4452  0.3683
 5826TIP3    H239038   5.766   0.338   7.582  0.9928 -0.2244  1.4154
 5827TIP3   OH239039   1.641   5.354   7.113  0.2632 -0.0789 -0.7566
 5827TIP3    H139040   1.554   5.324   7.087  0.1240  0.0602 -0.4635
 5827TIP3    H239041   1.701   5.296   7.068  0.0035 -0.6731 -0.3463
 5828TIP3   OH239042   0.653   5.214   1.984 -0.1665 -0.3364 -0.5568
 5828TIP3    H139043   0.570   5.247   2.019  0.0623  0.8538 -1.0918
 5828TIP3    H239044   0.643   5.219   1.889  0.2062 -0.9950 -0.6374
 5829TIP3   OH239045   0.423   2.169   1.618  0.0838  0.3056  1.1105
 5829TIP3    H139046   0.466   2.129   1.543  0.6485 -2.9644  2.9718
 5829TIP3    H239047   0.362   2.102   1.649 -2.3477  2.6918  1.8713
 5830TIP3   OH239048   4.905   2.246   7.866 -0.0254  0.3131  0.5486
 5830TIP3    H139049   4.917   2.163   7.913  0.7862  0.3512  0.4246
 5830TIP3    H239050   4.886   2.219   7.776  2.1857  0.2310  0.0423
 5831TIP3   OH239051   2.020   0.055   1.626 -0.2043  0.1123 -0.1023
 5831TIP3    H139052   2.045   0.109   1.551  0.9270 -1.8331 -1.2260
 5831TIP3    H239053   2.103   0.018   1.657 -0.9787 -1.5694  0.0854
 5832TIP3   OH239054   2.603   6.266   8.323 -0.4434  0.1162 -0.8270
 5832TIP3    H139055   2.563   6.342   8.281 -0.7391  0.5665  0.2596
 5832TIP3    H239056   2.537   6.234   8.384  1.2505  1.6666  1.9777
 5833TIP3   OH239057   0.513   4.020   6.871  0.0166  0.1535 -0.6277
 5833TIP3    H139058   0.524   4.100   6.922  1.2299  1.0859 -2.2797
 5833TIP3    H239059   0.451   3.967   6.923  2.3634  0.3025  2.6409
 5834TIP3   OH239060   4.797   3.636   1.850 -0.3259  0.0290  0.3283
 5834TIP3    H139061   4.733   3.571   1.880 -0.4451 -0.9829 -1.9514
 5834TIP3    H239062   4.795   3.630   1.755  1.5027  1.6322  0.1263
 5835TIP3   OH239063   5.478   5.215   7.106  0.3393  0.1235  0.0228
 5835TIP3    H139064   5.550   5.272   7.076  0.7088  0.0240  0.7131
 5835TIP3    H239065   5.478   5.224   7.201 -0.8638  0.4749  0.0030
 5836TIP3   OH239066   3.823   2.328   1.945  0.3208  0.5942  0.2325
 5836TIP3    H139067   3.854   2.258   1.887  0.9916 -0.3028  1.6236
 5836TIP3    H239068   3.728   2.329   1.932  0.3760 -0.1381 -0.2939
 5837TIP3   OH239069   3.111   4.472   1.958 -0.2033 -0.2858  0.3655
 5837TIP3    H139070   3.091   4.539   1.894 -0.2286  0.3587  1.0350
 5837TIP3    H239071   3.124   4.520   2.040  0.7016 -1.0015  0.6608
 5838TIP3   OH239072   2.841   1.240   2.829 -0.1985 -0.2255  0.0330
 5838TIP3    H139073   2.912   1.177   2.841  1.5944  1.9728  2.0578
 5838TIP3    H239074   2.885   1.321   2.801 -2.0798  0.8121 -0.1155
 5839TIP3   OH239075   0.214   3.346   1.538 -0.4294 -0.1013  0.0051
 5839TIP3    H139076   0.260   3.307   1.464  1.0750  1.4788  0.0477
 5839TIP3    H239077   0.126   3.306   1.536  0.1482 -1.3765 -1.5429
 5840TIP3   OH239078   1.944   6.352   8.054  0.7827 -0.3875 -0.5471
 5840TIP3    H139079   1.870   6.385   8.003  0.2594 -0.9060 -0.1357
 5840TIP3    H239080   1.939   6.399   8.137 -0.8218 -2.4185  0.6170
 5841TIP3   OH239081   1.371   2.435   7.923 -0.2660  0.0715  0.3361
 5841TIP3    H139082   1.382   2.366   7.989 -2.2728  0.2358  0.9174
 5841TIP3    H239083   1.276   2.442   7.912 -0.0416  1.6316 -0.9182
 5842TIP3   OH239084   5.934   6.190   0.145 -0.0182  0.3450  0.0158
 5842TIP3    H139085   5.965   6.250   0.076  0.8392  0.6305  0.6298
 5842TIP3    H239086   5.865   6.139   0.103 -0.0058  1.0083 -0.8468
 5843TIP3   OH239087   4.151   6.438   2.460  0.5002  0.0565  0.6040
 5843TIP3    H139088   4.092   6.363   2.455 -0.1279  0.5259  0.9293
 5843TIP3    H239089   4.122   6.486   2.537  2.5570 -0.7543  1.9574
 5844TIP3   OH239090   4.615   3.368   2.533  0.5910  0.0452 -0.5231
 5844TIP3    H139091   4.533   3.349   2.488 -0.6617  1.7722  0.8472
 5844TIP3    H239092   4.593   3.441   2.592  1.9267 -2.2462  3.1922
 5845TIP3   OH239093   6.291   1.995   7.174 -0.1363 -0.7807 -0.5302
 5845TIP3    H139094   6.348   2.051   7.227  0.6531 -0.4740 -1.6552
 5845TIP3    H239095   6.263   1.925   7.234  0.1157 -0.0372  0.4716
 5846TIP3   OH239096   0.632   3.714   8.240  0.0402  0.4800 -0.5301
 5846TIP3    H139097   0.700   3.657   8.276  0.2370  0.4073 -1.0132
 5846TIP3    H239098   0.557   3.656   8.228  0.8119 -0.1451 -2.7960
 5847TIP3   OH239099   0.007   3.177   7.200  0.1994 -0.3683  0.0019
 5847TIP3    H139100   0.046   3.226   7.274  0.1305 -0.3999  0.0591
 5847TIP3    H239101   0.004   3.087   7.231 -1.1372 -0.1763  0.5077
 5848TIP3   OH239102   0.583   6.015   1.533 -0.2365 -0.4421 -0.3086
 5848TIP3    H139103   0.664   6.055   1.563 -1.1763  0.0046  1.8506
 5848TIP3    H239104   0.542   5.980   1.613 -0.9983 -2.8942 -1.6597
 5849TIP3   OH239105   0.327   2.480   8.625 -0.1732  0.2376 -0.2266
 5849TIP3    H139106   0.315   2.518   8.712 -1.6152 -0.4790 -0.0782
 5849TIP3    H239107   0.333   2.556   8.566  0.9168  0.7290  0.4865
 5850TIP3   OH239108   1.292   5.345   1.702  0.2132 -0.2055  0.4193
 5850TIP3    H139109   1.316   5.401   1.628  3.2906 -2.0260 -0.1017
 5850TIP3    H239110   1.196   5.348   1.703  0.1231  1.5966 -2.2564
 5851TIP3   OH239111   4.914   0.516   1.277  0.4329  0.1836 -0.3313
 5851TIP3    H139112   4.933   0.525   1.370 -1.1545  1.3375 -0.0668
 5851TIP3    H239113   4.980   0.570   1.233  1.4141 -0.6607  0.0871
 5852TIP3   OH239114   2.132   6.106   1.320 -0.8957 -0.3292  0.3141
 5852TIP3    H139115   2.157   6.184   1.369 -0.2835  0.6126 -1.4228
 5852TIP3    H239116   2.140   6.131   1.228 -0.3502 -2.5299 -0.3102
 5853TIP3   OH239117   3.013   2.555   7.899  0.0746 -0.0778  0.8222
 5853TIP3    H139118   3.054   2.484   7.850  0.3453 -0.6988  1.8966
 5853TIP3    H239119   2.919   2.547   7.880  0.2953  0.5016 -0.5805
 5854TIP3   OH239120   5.803   6.637   8.445 -0.4194 -0.0804  0.3153
 5854TIP3    H139121   5.769   6.722   8.418 -3.2024 -0.6694  1.5571
 5854TIP3    H239122   5.811   6.643   8.540  1.1601 -0.6497  0.2448
 5855TIP3   OH239123   3.687   2.254   1.531 -0.2594 -0.2631  0.7466
 5855TIP3    H139124   3.634   2.203   1.592  1.5320 -0.6507  2.0630
 5855TIP3    H239125   3.765   2.200   1.518 -0.4102  0.0123 -1.6116
 5856TIP3   OH239126   6.215   5.202   2.038  0.4885  0.0282  0.0766
 5856TIP3    H139127   6.233   5.265   2.108 -0.4337  1.3040 -0.7982
 5856TIP3    H239128   6.297   5.198   1.988  1.1369 -0.8534  1.1520
 5857TIP3   OH239129   6.815   2.102   0.949  0.3757  0.1760  0.0137
 5857TIP3    H139130   6.848   2.183   0.911 -0.3678  0.6027  0.2486
 5857TIP3    H239131   6.757   2.131   1.020 -1.0737 -0.5098 -0.8389
 5858TIP3   OH239132   0.023   6.716   1.419 -0.1064  0.1559 -0.5875
 5858TIP3    H139133  -0.035   6.743   1.489  0.3757 -0.4353  0.0561
 5858TIP3    H239134  -0.011   6.760   1.341 -1.3180 -0.0670 -0.2039
 5859TIP3   OH239135   6.856   0.014   1.714  0.8925  0.1505  0.2557
 5859TIP3    H139136   6.872  -0.018   1.803  0.4797  0.0309  0.2873
 5859TIP3    H239137   6.924   0.080   1.700  0.4988  0.7292  0.9473
 5860TIP3   OH239138   6.245   4.676   0.453 -0.1180 -0.2048  0.0586
 5860TIP3    H139139   6.151   4.670   0.433 -0.0518 -1.1875 -0.0399
 5860TIP3    H239140   6.253   4.642   0.542  0.3021 -1.5786 -0.4699
 5861TIP3   OH239141   2.391   2.334   0.883 -0.3904 -0.5742 -0.1514
 5861TIP3    H139142   2.347   2.314   0.966 -1.4147 -0.5779 -0.6784
 5861TIP3    H239143   2.380   2.255   0.830  0.2472 -0.5695 -0.3015
 5862TIP3   OH239144   2.104   0.716   8.274  0.4004  0.1455  0.2398
 5862TIP3    H139145   2.188   0.682   8.304 -0.1909 -3.4064 -1.5687
 5862TIP3    H239146   2.039   0.672   8.328 -0.3724  0.8799 -0.0668
 5863TIP3   OH239147   3.751   1.485   1.176  0.4059 -0.1323 -0.0234
 5863TIP3    H139148   3.715   1.406   1.217  1.6511 -0.2496  0.8970
 5863TIP3    H239149   3.681   1.550   1.184  0.3069 -0.3822  1.6128
 5864TIP3   OH239150   2.437   4.626   2.119  0.0678 -0.2260  0.0470
 5864TIP3    H139151   2.484   4.655   2.198  0.0567  1.7952 -0.6315
 5864TIP3    H239152   2.357   4.585   2.153  0.0323  0.6677  1.1039
 5865TIP3   OH239153   5.475   6.197   0.074 -0.2373 -0.0977  0.2128
 5865TIP3    H139154   5.492   6.195  -0.020 -1.6876 -0.2302 -0.0642
 5865TIP3    H239155   5.387   6.233   0.082  0.0759  0.4285  1.5597
 5866TIP3   OH239156   6.582   5.141   0.476  0.1116 -0.0834  0.6593
 5866TIP3    H139157   6.646   5.124   0.546 -0.4164 -0.4421  1.0602
 5866TIP3    H239158   6.553   5.054   0.450 -0.8145  0.1024  1.0424
 5867TIP3   OH239159   4.106   1.091   1.923  0.2106  0.2175 -0.4937
 5867TIP3    H139160   4.030   1.035   1.939  0.5295 -0.4431 -1.1988
 5867TIP3    H239161   4.152   1.049   1.850  1.0776  0.7829 -0.2956
 5868TIP3   OH239162   4.204   6.683   6.734  0.8073 -0.2384  0.3065
 5868TIP3    H139163   4.126   6.715   6.779 -0.7590 -0.6326 -2.0147
 5868TIP3    H239164   4.259   6.761   6.724 -1.2122  1.0587 -1.7572
 5869TIP3   OH239165   4.535   3.886   8.210  0.0549  0.4566  0.1891
 5869TIP3    H139166   4.541   3.849   8.122  1.9474 -0.9332  0.8289
 5869TIP3    H239167   4.458   3.845   8.249  0.6112 -0.8260 -0.0153
 5870TIP3   OH239168   2.865   6.408   2.157 -0.2286 -0.1344 -0.1117
 5870TIP3    H139169   2.809   6.474   2.199 -0.8012 -0.5576 -0.1960
 5870TIP3    H239170   2.897   6.354   2.229 -0.3064 -0.1778 -0.1097
 5871TIP3   OH239171   3.725   2.813   0.390  0.5014  0.0825  0.2838
 5871TIP3    H139172   3.718   2.732   0.340 -0.5362 -0.0063  0.5638
 5871TIP3    H239173   3.651   2.867   0.360 -1.9018 -1.0560  3.6248
 5872TIP3   OH239174   1.223   1.848   8.209 -0.2736  0.1976 -0.3931
 5872TIP3    H139175   1.224   1.883   8.299  0.8466 -1.5239  0.3277
 5872TIP3    H239176   1.184   1.917   8.157  0.1044  1.7331  1.2458
 5873TIP3   OH239177   4.943   3.443   2.583 -1.1020 -0.3719 -0.4537
 5873TIP3    H139178   4.945   3.524   2.635 -1.2409  0.8248 -2.2049
 5873TIP3    H239179   5.035   3.418   2.575 -1.1460 -1.1057  1.1201
 5874TIP3   OH239180   5.633   6.753   7.064  0.0820 -0.0326 -0.1210
 5874TIP3    H139181   5.602   6.766   6.975 -0.9633  0.5398  0.3104
 5874TIP3    H239182   5.613   6.661   7.083 -1.1640  0.2574  0.0574
 5875TIP3   OH239183   0.465   3.391   0.714 -0.0769 -0.5046 -0.2206
 5875TIP3    H139184   0.373   3.406   0.692 -0.1808  0.9336  1.0870
 5875TIP3    H239185   0.463   3.315   0.773 -0.2504 -1.3780 -1.3061
 5876TIP3   OH239186   3.100   1.159   2.931  0.2887  0.2734 -1.0847
 5876TIP3    H139187   3.077   1.235   2.984  0.6817 -0.4401  0.1728
 5876TIP3    H239188   3.183   1.183   2.889  0.3710  0.5761 -0.7530
 5877TIP3   OH239189   5.131   3.272   2.114  0.0716  0.5591  0.1398
 5877TIP3    H139190   5.062   3.226   2.066 -1.3420  0.4824  2.1119
 5877TIP3    H239191   5.097   3.278   2.204  2.3897  1.0647  1.0444
 5878TIP3   OH239192   2.338   3.804   0.170  0.0308  0.4910 -0.3779
 5878TIP3    H139193   2.293   3.880   0.132  0.2808  0.2808 -1.1152
 5878TIP3    H239194   2.282   3.730   0.147 -0.9187  0.5777  1.4956
 5879TIP3   OH239195   3.585   2.450   1.201 -0.1677 -0.3956 -0.1267
 5879TIP3    H139196   3.517   2.472   1.265  0.4738 -0.3417  0.5437
 5879TIP3    H239197   3.565   2.506   1.126  2.0214  3.5161  1.8990
 5880TIP3   OH239198   5.763   3.874   8.519 -0.0774 -0.0345 -0.4791
 5880TIP3    H139199   5.756   3.913   8.431 -3.6613 -3.1286 -1.8836
 5880TIP3    H239200   5.701   3.923   8.572 -0.7434 -0.4926 -0.8119
 5881TIP3   OH239201   2.127   6.226   6.498  0.5178 -0.1060  0.4621
 5881TIP3    H139202   2.155   6.314   6.472 -0.2491  0.0850  0.2702
 5881TIP3    H239203   2.034   6.235   6.516  0.3856 -0.9333  0.2015
 5882TIP3   OH239204   5.393   5.346   6.554 -0.3179 -0.1118 -0.1641
 5882TIP3    H139205   5.478   5.326   6.514 -0.9754 -1.3621 -1.0187
 5882TIP3    H239206   5.402   5.436   6.587  0.9715  0.1688 -1.2035
 5883TIP3   OH239207   1.086   1.617   0.550  0.0180 -0.5212  0.1454
 5883TIP3    H139208   1.034   1.542   0.520  1.1419 -1.1617 -0.2425
 5883TIP3    H239209   1.076   1.617   0.645 -2.2852  0.5751 -0.0107
 5884TIP3   OH239210   0.072   3.295   2.563  0.2251 -0.3750 -0.5476
 5884TIP3    H139211  -0.007   3.253   2.596  1.3162  0.1117  3.1246
 5884TIP3    H239212   0.141   3.230   2.578  0.8448 -0.1139 -2.0659
 5885TIP3   OH239213   6.625   1.368   0.113 -0.5738  0.3662 -0.2201
 5885TIP3    H139214   6.653   1.457   0.132 -0.9975  0.4877 -0.1404
 5885TIP3    H239215   6.594   1.335   0.197  0.0884 -0.0477 -0.1338
 5886TIP3   OH239216   3.889   5.420   0.535  0.4993  0.3871 -0.8178
 5886TIP3    H139217   3.961   5.367   0.569  0.9880  0.8419 -1.1283
 5886TIP3    H239218   3.810   5.374   0.563  0.8989  0.2410  0.1117
 5887TIP3   OH239219   5.869   4.228   7.977  0.6707 -0.1742 -0.4562
 5887TIP3    H139220   5.911   4.258   8.057 -0.2180  0.1580 -0.0993
 5887TIP3    H239221   5.863   4.133   7.988  1.5858 -0.2660 -0.6540
 5888TIP3   OH239222   4.160   5.600   2.274  0.2802  0.8305 -0.5086
 5888TIP3    H139223   4.199   5.533   2.331 -0.8024  0.1286 -0.5688
 5888TIP3    H239224   4.162   5.561   2.186  0.6563  1.3373 -0.7324
 5889TIP3   OH239225   1.467   2.818   2.612 -0.5561  0.3047  0.6188
 5889TIP3    H139226   1.449   2.894   2.556  1.1326 -1.2257 -2.2695
 5889TIP3    H239227   1.559   2.827   2.635 -1.0080  0.4240  2.4804
 5890TIP3   OH239228   5.630   5.117   0.444 -0.1264  0.5598 -0.1043
 5890TIP3    H139229   5.625   5.044   0.382  2.3745 -0.2449  0.5359
 5890TIP3    H239230   5.719   5.151   0.434 -0.1229  1.3210  2.0275
 5891TIP3   OH239231   0.905   4.730   6.684 -0.0490 -0.3542 -0.2958
 5891TIP3    H139232   0.845   4.688   6.622 -0.2214 -0.9994  0.2946
 5891TIP3    H239233   0.941   4.658   6.735 -0.2103  0.1897  0.6130
 5892TIP3   OH239234   0.728   3.487   1.374  0.1466 -0.3091  0.5644
 5892TIP3    H139235   0.721   3.430   1.450 -0.3955  1.0653  1.5884
 5892TIP3    H239236   0.660   3.553   1.387 -0.3528 -0.3493 -1.4198
 5893TIP3   OH239237   6.423   1.528   8.224 -0.2454  0.0329  0.4036
 5893TIP3    H139238   6.343   1.475   8.216  0.0730 -0.4209  0.1912
 5893TIP3    H239239   6.424   1.556   8.316 -0.8490  0.3706  0.3187
 5894TIP3   OH239240   4.237   5.683   2.648  0.7438  1.0113  0.3831
 5894TIP3    H139241   4.268   5.607   2.599 -0.0577  0.9362 -0.0161
 5894TIP3    H239242   4.285   5.679   2.731  0.4409 -0.1260  0.5113
 5895TIP3   OH239243   3.264   5.147   0.047 -0.4711  0.0825 -0.1432
 5895TIP3    H139244   3.305   5.232   0.035 -0.6824  0.0596 -1.0491
 5895TIP3    H239245   3.194   5.163   0.110  0.8322  0.1376  1.3656
 5896TIP3   OH239246   5.123   5.656   2.625  0.0084 -0.2369  0.6624
 5896TIP3    H139247   5.033   5.645   2.594 -0.0099  1.5067 -0.0467
 5896TIP3    H239248   5.142   5.577   2.675 -1.9407 -0.6062  0.8747
 5897TIP3   OH239249   2.303   1.963   0.089  0.5311  0.0855 -0.3750
 5897TIP3    H139250   2.375   1.921   0.137  0.7241  1.1197  0.2694
 5897TIP3    H239251   2.314   2.057   0.107  0.4302  0.4803 -2.2090
 5898TIP3   OH239252   5.363   6.649   2.502 -0.4750  0.1472  0.0567
 5898TIP3    H139253   5.361   6.553   2.507 -1.0021  0.1437 -0.0945
 5898TIP3    H239254   5.337   6.677   2.590 -0.1301  0.1531  0.1568
 5899TIP3   OH239255   6.710   2.686   7.537  0.2741  0.5969  0.2612
 5899TIP3    H139256   6.771   2.634   7.589  1.1625  1.3987  0.0436
 5899TIP3    H239257   6.671   2.747   7.599 -2.4482 -1.6601  1.0148
 5900TIP3   OH239258   3.415   2.100   0.819 -0.5208 -0.2972  0.0828
 5900TIP3    H139259   3.384   2.097   0.910  0.5617 -2.6736  0.4381
 5900TIP3    H239260   3.507   2.122   0.826 -0.9754  2.0988 -0.6762
 5901TIP3   OH239261   1.715   5.502   7.639 -0.1882 -0.7953  0.3350
 5901TIP3    H139262   1.624   5.526   7.619  0.5161  0.9259 -1.0478
 5901TIP3    H239263   1.768   5.565   7.591  1.7636 -1.2363  1.7636
 5902TIP3   OH239264   4.949   1.492   2.763 -0.2757 -0.3308  0.1350
 5902TIP3    H139265   4.997   1.428   2.709  0.3512 -0.2106  0.5333
 5902TIP3    H239266   4.933   1.447   2.845  1.2015  0.3900  0.8556
 5903TIP3   OH239267   1.800   1.812   2.469 -0.2039  0.3011 -0.6218
 5903TIP3    H139268   1.823   1.774   2.384  0.0475  1.9895 -1.3544
 5903TIP3    H239269   1.710   1.843   2.458 -0.7994 -1.0073  0.3197
 5904TIP3   OH239270   6.251   6.169   6.765 -0.5748  0.4838  0.6192
 5904TIP3    H139271   6.307   6.211   6.700 -0.0768 -0.3988  0.4632
 5904TIP3    H239272   6.164   6.166   6.724 -0.6123  1.2949  0.6139
 5905TIP3   OH239273   5.623   4.722   0.890  0.0491 -0.0232  0.3279
 5905TIP3    H139274   5.648   4.644   0.940 -0.4309 -1.9389 -2.2237
 5905TIP3    H239275   5.576   4.777   0.953  1.1473 -1.3624  2.4302
 5906TIP3   OH239276   4.316   3.637   6.949  0.2807 -0.1257  0.0447
 5906TIP3    H139277   4.344   3.574   7.015 -0.7841 -0.5361  0.1129
 5906TIP3    H239278   4.375   3.621   6.875  1.2785  0.1293  0.7611
 5907TIP3   OH239279   0.500   1.168   1.131  0.4211 -0.5199  0.2425
 5907TIP3    H139280   0.509   1.205   1.043 -0.5038 -0.0172  0.3532
 5907TIP3    H239281   0.441   1.228   1.176  1.3164 -0.4760  1.3840
 5908TIP3   OH239282   3.071   1.268   0.490 -0.1858  0.1246  0.2803
 5908TIP3    H139283   2.990   1.305   0.454 -0.3417 -1.0123 -0.5863
 5908TIP3    H239284   3.041   1.200   0.551  0.1131  0.6159  0.9881
 5909TIP3   OH239285   6.608   6.760   7.549  0.1456  0.1809 -0.7460
 5909TIP3    H139286   6.611   6.819   7.473 -0.3097 -0.3215 -1.1639
 5909TIP3    H239287   6.684   6.785   7.602 -0.6630  1.9326 -0.3272
 5910TIP3   OH239288   1.629   6.285   0.386 -0.4015  0.3663  0.1401
 5910TIP3    H139289   1.573   6.306   0.311  0.3267 -1.2321 -0.8923
 5910TIP3    H239290   1.688   6.360   0.394 -0.8259  0.7798 -0.5344
 5911TIP3   OH239291   1.454   5.399   2.140 -0.3501  0.0121  0.0275
 5911TIP3    H139292   1.399   5.323   2.117  0.8998 -0.9799  0.2292
 5911TIP3    H239293   1.454   5.400   2.236 -2.8404  2.1605  0.1491
 5912TIP3   OH239294   3.419   5.744   7.091 -0.2380 -0.4632 -0.2257
 5912TIP3    H139295   3.501   5.784   7.061  0.8493 -1.3123  1.4758
 5912TIP3    H239296   3.368   5.817   7.125 -0.2071  0.0775 -1.3103
 5913TIP3   OH239297   4.221   0.038   1.282  0.8104 -0.7045  0.0457
 5913TIP3    H139298   4.150  -0.012   1.243  0.1238  0.8552 -0.7798
 5913TIP3    H239299   4.197   0.046   1.374 -0.3116  0.1460 -0.3000
 5914TIP3   OH239300   2.209   6.530   2.058  0.0602 -0.5033 -0.6424
 5914TIP3    H139301   2.251   6.489   1.982 -0.0260 -1.5506 -0.1373
 5914TIP3    H239302   2.125   6.485   2.066  0.7045 -1.5203  0.9909
 5915TIP3   OH239303   3.216   6.527   8.023  0.5357  0.0244 -0.2727
 5915TIP3    H139304   3.186   6.592   7.960  2.3872 -0.4374 -1.7252
 5915TIP3    H239305   3.245   6.453   7.969  0.2898 -1.2418  1.2453
 5916TIP3   OH239306   6.123   4.658   1.605  0.3791  0.0270  0.5063
 5916TIP3    H139307   6.166   4.597   1.545 -1.2579  0.3739 -1.1387
 5916TIP3    H239308   6.112   4.738   1.553 -1.7358  0.1040  0.9766
 5917TIP3   OH239309   5.462   2.177   3.007 -0.6970  0.3760 -0.4404
 5917TIP3    H139310   5.448   2.161   2.914 -2.5666  2.0141 -0.4972
 5917TIP3    H239311   5.395   2.124   3.051 -0.0760 -0.0812 -0.0252
 5918TIP3   OH239312   1.112   0.007   2.506 -0.5665  0.1261 -0.6823
 5918TIP3    H139313   1.118  -0.055   2.434  0.0143 -0.3885 -0.1977
 5918TIP3    H239314   1.200   0.013   2.541 -1.5137 -3.0755  2.8422
 5919TIP3   OH239315   0.926   1.389   0.936  0.6823  0.1728  0.1278
 5919TIP3    H139316   0.957   1.413   1.023 -0.2494  2.7225 -0.1331
 5919TIP3    H239317   0.895   1.472   0.898 -0.4983 -1.1296 -1.9890
 5920TIP3   OH239318   0.361   6.491   7.378 -0.4347  0.8948  0.0811
 5920TIP3    H139319   0.333   6.572   7.335 -3.2233  0.3530  0.6693
 5920TIP3    H239320   0.324   6.496   7.466 -0.9479 -1.1274  0.0407
 5921TIP3   OH239321   2.275   2.420   7.400  0.6375 -0.3491  0.0501
 5921TIP3    H139322   2.369   2.434   7.411  0.7388 -1.0631  0.0916
 5921TIP3    H239323   2.264   2.393   7.309  0.5258 -0.7174  0.1714
 5922TIP3   OH239324   6.516   3.445   3.053 -0.1587  0.2899 -0.5649
 5922TIP3    H139325   6.572   3.467   3.127  0.5889  0.2676 -1.1086
 5922TIP3    H239326   6.529   3.352   3.040 -1.6462 -0.0850  0.3628
 5923TIP3   OH239327   2.121   0.292   7.107 -0.3366  0.0254  0.0910
 5923TIP3    H139328   2.089   0.326   7.024  2.4311  1.6104 -0.4382
 5923TIP3    H239329   2.085   0.352   7.173 -0.5511  0.2230 -0.2070
 5924TIP3   OH239330   2.815   1.403   0.445  0.0350 -0.8478 -0.2147
 5924TIP3    H139331   2.825   1.463   0.371  1.8674 -1.4437 -0.4884
 5924TIP3    H239332   2.792   1.459   0.519  0.6658  0.0725 -0.7037
 5925TIP3   OH239333   6.398   0.452   0.050 -0.2766 -0.2245  0.2373
 5925TIP3    H139334   6.457   0.480   0.119 -1.8017 -0.2835  1.6327
 5925TIP3    H239335   6.455   0.434  -0.025  1.3975  0.1158  1.3759
 5926TIP3   OH239336   3.358   5.863   7.470 -0.7559 -0.0633 -0.6791
 5926TIP3    H139337   3.451   5.840   7.462 -0.4033  1.3148 -0.8909
 5926TIP3    H239338   3.358   5.940   7.528 -1.8666 -0.6415  0.1266
 5927TIP3   OH239339   0.101   3.438   7.279  0.2109  0.0736 -0.0552
 5927TIP3    H139340   0.123   3.382   7.353 -0.2982  0.7964  0.6611
 5927TIP3    H239341   0.079   3.523   7.318  1.7334  1.0357 -1.1652
 5928TIP3   OH239342   0.220   5.123   0.111  0.2070  0.1700  0.2470
 5928TIP3    H139343   0.258   5.122   0.199 -0.7588  0.7255  0.6888
 5928TIP3    H239344   0.158   5.049   0.111  0.4589 -0.0439 -0.0886
 5929TIP3   OH239345   0.842   0.117   1.766 -0.0035  0.1172  0.3240
 5929TIP3    H139346   0.750   0.123   1.792 -0.1432  0.6651 -0.2500
 5929TIP3    H239347   0.850   0.181   1.695  0.8150  0.0519  0.3515
 5930TIP3   OH239348   6.101   4.197   1.224 -0.1561 -0.6301  0.1623
 5930TIP3    H139349   6.061   4.185   1.310  0.0134 -0.8595  0.2087
 5930TIP3    H239350   6.047   4.145   1.165  1.6406 -3.2080  0.6416
 5931TIP3   OH239351   1.098   5.621   7.414  0.0062  0.5015  0.1783
 5931TIP3    H139352   1.139   5.607   7.500  0.4717  3.4629  0.5258
 5931TIP3    H239353   1.165   5.666   7.363 -0.8756  0.3033 -1.2078
 5932TIP3   OH239354   5.087   5.682   0.582  0.4951 -0.3272 -0.3556
 5932TIP3    H139355   5.009   5.633   0.609  0.1530 -0.2829 -1.2411
 5932TIP3    H239356   5.147   5.673   0.656  0.0415 -1.2194 -0.0756
 5933TIP3   OH239357   3.179   4.096   1.909  0.3959 -0.4777  0.1490
 5933TIP3    H139358   3.263   4.093   1.954  0.1752  0.2781  0.6295
 5933TIP3    H239359   3.127   4.158   1.959 -0.3832 -0.7832 -0.2634
 5934TIP3   OH239360   5.859   2.906   7.635  0.0447 -0.3331 -0.1322
 5934TIP3    H139361   5.943   2.863   7.618 -0.2010 -1.1529  0.6187
 5934TIP3    H239362   5.823   2.924   7.548  1.8198  1.7687 -0.5257
 5935TIP3   OH239363   4.219   0.988   1.692 -0.0564 -0.4698 -0.0469
 5935TIP3    H139364   4.144   0.937   1.663 -1.0861 -0.3891  2.2097
 5935TIP3    H239365   4.286   0.975   1.625 -0.9553 -3.1938 -0.5024
 5936TIP3   OH239366   3.321   1.358   2.820  0.3742 -0.0025 -0.3166
 5936TIP3    H139367   3.248   1.387   2.766  0.5932 -1.7627 -1.6642
 5936TIP3    H239368   3.391   1.338   2.757  1.2333 -0.4999  0.7552
 5937TIP3   OH239369   3.670   5.344   1.949  0.0343 -0.7840  0.3537
 5937TIP3    H139370   3.673   5.391   1.866 -2.8440 -1.0609 -0.0329
 5937TIP3    H239371   3.649   5.411   2.014 -1.4581 -1.0741  0.2112
 5938TIP3   OH239372   4.261   6.015   8.343 -0.7375 -0.0091 -0.3415
 5938TIP3    H139373   4.279   6.095   8.393 -0.4766  0.2845 -0.8915
 5938TIP3    H239374   4.342   5.999   8.295 -0.5908 -0.9315  0.1994
 5939TIP3   OH239375   1.340   6.848   0.673 -0.4428  0.3537  0.3763
 5939TIP3    H139376   1.353   6.822   0.765  2.2383  1.6218  0.4755
 5939TIP3    H239377   1.346   6.766   0.624  0.6249 -0.0834  1.1869
 5940TIP3   OH239378   6.191   1.322   0.316 -0.1175 -0.1900  0.3888
 5940TIP3    H139379   6.225   1.263   0.383  2.1076 -0.3501 -0.7920
 5940TIP3    H239380   6.188   1.269   0.237  1.6565  1.1183 -0.6416
 5941TIP3   OH239381   5.136   5.402   7.453 -0.2898 -0.2580  0.1402
 5941TIP3    H139382   5.097   5.403   7.540 -1.5380  1.1265 -0.3812
 5941TIP3    H239383   5.219   5.447   7.464 -0.0891 -0.7590  0.7489
 5942TIP3   OH239384   1.974   0.328   2.109 -0.0619  0.0955  0.9889
 5942TIP3    H139385   2.010   0.310   2.022 -1.0363  2.0633  0.1063
 5942TIP3    H239386   1.910   0.258   2.124  2.5080 -2.2757  1.7138
 5943TIP3   OH239387   3.061   3.021   7.844  0.0476  0.0194  0.1888
 5943TIP3    H139388   3.089   2.934   7.874 -0.2807 -0.2912 -0.3908
 5943TIP3    H239389   3.117   3.082   7.892 -0.2535 -0.4785  1.1828
 5944TIP3   OH239390   1.011   5.389   1.770  0.0878  0.1621 -0.8932
 5944TIP3    H139391   0.980   5.342   1.847 -1.0259 -0.8617 -1.9203
 5944TIP3    H239392   1.027   5.478   1.801 -2.0264  0.2332  0.1561
 5945TIP3   OH239393   1.363   4.759   1.526  0.6536  0.0477 -0.1101
 5945TIP3    H139394   1.271   4.783   1.534  1.1671  1.8051  1.0983
 5945TIP3    H239395   1.410   4.843   1.524  2.2357 -0.8012 -0.7000
 5946TIP3   OH239396   5.176   4.830   8.603 -0.4959  0.2450 -0.1994
 5946TIP3    H139397   5.165   4.812   8.696 -0.2092  1.3927  0.0723
 5946TIP3    H239398   5.114   4.771   8.560 -0.7627 -0.1720  0.7265
 5947TIP3   OH239399   6.150   0.910   1.383  0.0372 -0.4480  0.6340
 5947TIP3    H139400   6.130   0.957   1.464  0.3164  0.2524  0.2979
 5947TIP3    H239401   6.074   0.852   1.370 -1.8771  2.1619 -0.6145
 5948TIP3   OH239402   1.845   2.154   2.856  0.2348 -0.2509  0.4418
 5948TIP3    H139403   1.841   2.228   2.917 -0.5661 -1.1354  1.4870
 5948TIP3    H239404   1.775   2.170   2.793  0.7100  0.3791  0.0579
 5949TIP3   OH239405   4.916   1.664   7.506  0.3515 -0.4691  0.0470
 5949TIP3    H139406   4.843   1.673   7.568  1.2354 -1.5114  1.2954
 5949TIP3    H239407   4.894   1.723   7.434 -0.7546  0.7485  1.3284
 5950TIP3   OH239408   3.472   5.219   2.205  0.2803 -0.1069 -0.6695
 5950TIP3    H139409   3.488   5.237   2.113 -0.0702  1.6747 -0.4128
 5950TIP3    H239410   3.387   5.259   2.223 -0.4447 -1.8694  0.0570
 5951TIP3   OH239411   2.212   4.221   8.248 -0.3422  0.2939  0.4276
 5951TIP3    H139412   2.277   4.284   8.280  0.2372 -0.8306  1.5426
 5951TIP3    H239413   2.263   4.157   8.197 -0.5251 -0.7026  1.4674
 5952TIP3   OH239414   2.926   3.438   7.653  0.3600  0.1860 -0.3588
 5952TIP3    H139415   2.918   3.448   7.748 -0.4992 -0.0406 -0.4014
 5952TIP3    H239416   2.985   3.509   7.626  0.6472  0.2196  0.3434
 5953TIP3   OH239417   5.558   2.085   2.452 -0.3725 -0.0279  0.4347
 5953TIP3    H139418   5.643   2.067   2.494 -1.1297  1.5264  2.8102
 5953TIP3    H239419   5.564   2.176   2.424 -1.5080  0.3372  1.3298
 5954TIP3   OH239420   0.269   1.545   2.163 -0.3626  0.0682  0.2594
 5954TIP3    H139421   0.324   1.587   2.228 -0.4142  0.3543  0.1215
 5954TIP3    H239422   0.288   1.592   2.081 -1.9258  1.2096  0.5002
 5955TIP3   OH239423   0.510   0.564   2.641 -0.2967 -0.5219 -0.1089
 5955TIP3    H139424   0.500   0.536   2.550  1.3256 -1.4063 -0.0338
 5955TIP3    H239425   0.593   0.527   2.670  0.1775  1.3565  1.1438
 5956TIP3   OH239426   5.723   6.573   1.250 -0.4919 -0.1360 -0.8072
 5956TIP3    H139427   5.727   6.501   1.314 -0.6989 -1.1371 -1.8921
 5956TIP3    H239428   5.719   6.652   1.304  0.0297 -0.9125  0.4148
 5957TIP3   OH239429   6.516   1.155   6.846 -0.4645 -0.0338 -0.4715
 5957TIP3    H139430   6.469   1.179   6.766 -2.5072 -0.4594  0.5210
 5957TIP3    H239431   6.504   1.060   6.853 -1.0925  0.1161  0.7599
 5958TIP3   OH239432   5.143   0.902   8.054 -0.1123 -0.2087 -0.1687
 5958TIP3    H139433   5.211   0.927   8.116 -1.2005  1.3295  0.4637
 5958TIP3    H239434   5.113   0.984   8.016 -2.3541 -0.6798  0.3982
 5959TIP3   OH239435   5.883   2.671   0.028 -0.5033 -0.0033 -0.5668
 5959TIP3    H139436   5.885   2.722  -0.053 -0.5636  1.5959  0.3875
 5959TIP3    H239437   5.794   2.636   0.031 -0.0351 -1.4492 -1.9526
 5960TIP3   OH239438   4.705   4.829   6.514 -0.1608  0.0777 -0.4875
 5960TIP3    H139439   4.750   4.851   6.596  0.3680  1.3179 -1.0879
 5960TIP3    H239440   4.767   4.854   6.445 -0.4683 -1.2472 -1.2742
 5961TIP3   OH239441   0.741   4.958   1.495  0.1313 -0.5997 -0.4306
 5961TIP3    H139442   0.723   5.050   1.479 -2.7165 -0.8388  0.7214
 5961TIP3    H239443   0.730   4.948   1.590  2.6027 -1.7721 -0.1751
 5962TIP3   OH239444   0.619   6.003   8.038  0.1061  0.3739  0.1981
 5962TIP3    H139445   0.639   5.969   7.950 -0.3587 -1.4136  0.7349
 5962TIP3    H239446   0.524   6.003   8.042  0.0127  3.0636 -0.2034
 5963TIP3   OH239447   4.948   0.558   8.423  0.5530  0.4659 -0.5393
 5963TIP3    H139448   4.941   0.562   8.327 -1.5205 -0.6213 -0.4856
 5963TIP3    H239449   5.018   0.620   8.444  1.2030  0.5746 -2.7663
 5964TIP3   OH239450   5.496   0.594   7.407 -0.1273  0.0482  0.2474
 5964TIP3    H139451   5.507   0.627   7.318 -1.1217  0.5204  0.2776
 5964TIP3    H239452   5.434   0.656   7.447 -0.9269 -1.0492  0.7585
 5965TIP3   OH239453   2.839   6.448   7.091  0.0136  0.4972  0.0556
 5965TIP3    H139454   2.850   6.540   7.067  0.6664  0.5172  0.4039
 5965TIP3    H239455   2.926   6.410   7.079 -0.8073 -0.7546 -2.7587
 5966TIP3   OH239456   2.060   4.894   1.669 -0.4581 -0.1132 -0.2983
 5966TIP3    H139457   2.076   4.977   1.625 -0.6904 -0.0381 -0.2457
 5966TIP3    H239458   2.007   4.917   1.746  0.8273 -0.0927  0.6204
 5967TIP3   OH239459   1.519   4.633   2.084  0.1088  0.6738 -0.7646
 5967TIP3    H139460   1.458   4.561   2.099  0.9753  0.1229  0.3410
 5967TIP3    H239461   1.464   4.709   2.065 -0.9285  0.2768  0.5486
 5968TIP3   OH239462   4.791   4.968   7.931  0.0682  0.1159 -0.6012
 5968TIP3    H139463   4.884   4.989   7.940  0.3385 -1.5273  1.3557
 5968TIP3    H239464   4.770   4.919   8.011 -1.8295 -1.8625 -2.1807
 5969TIP3   OH239465   2.278   4.569   1.161 -0.0246  0.3809  0.2100
 5969TIP3    H139466   2.270   4.482   1.201 -1.4577 -0.3575 -1.5743
 5969TIP3    H239467   2.196   4.613   1.182  0.3036  0.9534  0.3021
 5970TIP3   OH239468   3.019   1.940   7.752 -0.0992  0.1615 -0.2525
 5970TIP3    H139469   3.081   1.988   7.698  1.0395 -1.5327 -0.5568
 5970TIP3    H239470   2.978   1.877   7.691 -0.7957  0.0547  0.3129
 5971TIP3   OH239471   5.732   4.253   1.661  0.2985 -0.2585  0.3320
 5971TIP3    H139472   5.726   4.192   1.735 -2.3241  0.1753  0.5619
 5971TIP3    H239473   5.715   4.198   1.584 -0.4182 -0.1225  0.3880
 5972TIP3   OH239474   0.364   3.732   7.622 -0.2480  0.6487  0.2513
 5972TIP3    H139475   0.374   3.651   7.671  0.9485  0.0322 -0.9502
 5972TIP3    H239476   0.446   3.779   7.636 -0.6886  1.3798  0.4435
 5973TIP3   OH239477   6.843   1.467   1.461  0.1033  0.3667  0.4122
 5973TIP3    H139478   6.775   1.526   1.429  1.6747  0.5351 -2.9796
 5973TIP3    H239479   6.867   1.414   1.385  1.5696 -1.9128  2.3072
 5974TIP3   OH239480   6.635   5.587   7.163  0.6071 -0.0358 -0.6968
 5974TIP3    H139481   6.577   5.652   7.202  1.8075  1.7989 -1.8634
 5974TIP3    H239482   6.718   5.596   7.209  1.2587  0.3772 -1.9111
 5975TIP3   OH239483   4.165   3.416   7.558  0.2630 -0.1512 -0.1572
 5975TIP3    H139484   4.221   3.338   7.553  0.0933 -0.3239  0.6212
 5975TIP3    H239485   4.146   3.436   7.466  1.2731 -0.3245 -0.4199
 5976TIP3   OH239486   6.595   1.534   0.474  0.1966  0.7835  0.5113
 5976TIP3    H139487   6.686   1.556   0.495 -0.2515  1.3667  1.9767
 5976TIP3    H239488   6.582   1.446   0.510  0.8183 -0.3419 -1.7984
 5977TIP3   OH239489   2.210   3.562   1.583 -0.2156 -0.0126 -0.0079
 5977TIP3    H139490   2.249   3.476   1.598 -1.0562 -0.4832 -0.4986
 5977TIP3    H239491   2.123   3.557   1.622 -0.8406  0.1149 -1.3439
 5978TIP3   OH239492   3.929   4.290   8.167 -0.1317  0.4733  0.4551
 5978TIP3    H139493   3.864   4.287   8.238 -1.8010  0.6071 -0.9850
 5978TIP3    H239494   3.907   4.214   8.113  0.2638  1.1062 -0.6018
 5979TIP3   OH239495   6.486   4.769   0.726 -0.0118 -0.5078  0.3174
 5979TIP3    H139496   6.525   4.686   0.756 -1.5812 -0.8026  1.7131
 5979TIP3    H239497   6.523   4.835   0.785  1.3404 -0.1651 -0.8795
 5980TIP3   OH239498   4.010   1.324   8.183 -0.4938 -0.4369  0.3448
 5980TIP3    H139499   4.089   1.373   8.161 -0.0407 -1.2662  0.0775
 5980TIP3    H239500   3.990   1.273   8.104 -0.6872 -1.0292  0.7696
 5981TIP3   OH239501   2.912   3.479   7.941  0.0489  0.3984  0.1526
 5981TIP3    H139502   2.904   3.407   8.003  1.2568 -1.4944 -1.7368
 5981TIP3    H239503   2.837   3.535   7.960 -0.9456 -1.3342  1.7363
 5982TIP3   OH239504   6.485   0.186   2.394 -0.0786 -0.0857  0.0470
 5982TIP3    H139505   6.578   0.168   2.402 -0.0422 -0.2416 -0.6701
 5982TIP3    H239506   6.459   0.216   2.481  0.4128 -1.0640  0.5568
 5983TIP3   OH239507   4.271   6.822   7.680 -0.1016 -0.4226 -0.3255
 5983TIP3    H139508   4.334   6.867   7.737  0.1606 -0.6475 -0.4404
 5983TIP3    H239509   4.321   6.753   7.637 -0.4763 -0.7458 -0.2498
 5984TIP3   OH239510   5.879   2.469   8.315 -0.3141  0.6851  0.2000
 5984TIP3    H139511   5.941   2.485   8.387  0.2835  0.6996 -0.3156
 5984TIP3    H239512   5.912   2.523   8.243 -0.5176  0.1311 -0.3070
 5985TIP3   OH239513   4.043   2.804   0.373  0.3084  0.3853  0.6775
 5985TIP3    H139514   3.960   2.849   0.388  0.2058 -0.0924  1.6119
 5985TIP3    H239515   4.098   2.832   0.446  0.2822 -0.9063  1.2127
 5986TIP3   OH239516   2.613   4.137   8.052  0.3642  0.1601  0.0425
 5986TIP3    H139517   2.665   4.165   7.977  0.4558 -0.8180 -0.2698
 5986TIP3    H239518   2.667   4.160   8.128 -0.3711  2.5376 -0.0637
 5987TIP3   OH239519   2.194   6.250   0.304  0.6548 -0.2233  0.6556
 5987TIP3    H139520   2.100   6.264   0.317  0.9370  0.5595  1.9991
 5987TIP3    H239521   2.207   6.267   0.210 -0.0577  2.8447  0.9878
 5988TIP3   OH239522   5.619   0.552   2.150  0.2977 -0.4091 -0.0036
 5988TIP3    H139523   5.540   0.580   2.105 -0.1720 -0.2915  0.8712
 5988TIP3    H239524   5.688   0.606   2.112 -0.3702  0.9542  0.6532
 5989TIP3   OH239525   2.497   5.001   2.677  0.0174  0.0046  0.6838
 5989TIP3    H139526   2.550   4.931   2.714  0.5775 -0.8636 -1.6065
 5989TIP3    H239527   2.547   5.032   2.602 -1.1407  1.5375  0.5029
 5990TIP3   OH239528   0.926   3.999   0.703  0.1752  0.5078 -0.7535
 5990TIP3    H139529   0.901   4.081   0.659  0.9242 -0.8906 -4.1013
 5990TIP3    H239530   0.844   3.966   0.739 -0.9294  0.9598 -2.6756
 5991TIP3   OH239531   4.687   4.819   7.730 -0.2717 -0.0085  0.1146
 5991TIP3    H139532   4.619   4.862   7.677  0.1205  0.2353 -0.1930
 5991TIP3    H239533   4.694   4.873   7.808 -0.6018 -0.1699  0.2582
 5992TIP3   OH239534   0.447   0.579   2.141  0.1467 -0.4572  0.6220
 5992TIP3    H139535   0.399   0.545   2.065 -0.2116 -0.1922  0.7244
 5992TIP3    H239536   0.479   0.665   2.112  1.6345 -1.1401  0.1283
 5993TIP3   OH239537   1.459   6.107   0.180 -0.0317 -0.1938 -0.8720
 5993TIP3    H139538   1.411   6.181   0.143 -0.6722 -0.0093  0.2869
 5993TIP3    H239539   1.415   6.030   0.143 -0.1709 -0.0081 -1.0976
 5994TIP3   OH239540   6.772   1.731   8.185  0.2042 -0.4655 -0.0788
 5994TIP3    H139541   6.760   1.765   8.273 -0.8435 -1.8872  0.3581
 5994TIP3    H239542   6.690   1.687   8.164  0.1475  0.4476 -2.0734
 5995TIP3   OH239543   5.225   2.398   1.483  0.3853 -0.1874 -0.0744
 5995TIP3    H139544   5.238   2.455   1.408  1.9905 -0.7360 -0.2694
 5995TIP3    H239545   5.139   2.358   1.469 -0.0887  1.0018 -0.7119
 5996TIP3   OH239546   4.300   4.529   6.613  0.5763  0.1303  0.3657
 5996TIP3    H139547   4.296   4.496   6.523 -0.2652  2.2435 -0.4370
 5996TIP3    H239548   4.208   4.531   6.641  0.7336  0.5551  0.8562
 5997TIP3   OH239549   0.306   2.587   2.453  0.6045  0.6237 -0.4261
 5997TIP3    H139550   0.396   2.615   2.470  0.3802  1.6184 -0.7850
 5997TIP3    H239551   0.280   2.541   2.533  1.3578  0.4998 -0.2429
 5998TIP3   OH239552   5.282   6.540   2.988 -0.4667 -0.3605  0.5376
 5998TIP3    H139553   5.188   6.524   2.996 -0.6096  0.6571  1.0435
 5998TIP3    H239554   5.289   6.633   2.968  0.4482 -0.3767  0.7341
 5999TIP3   OH239555   2.715   0.635   1.717 -0.3639 -0.3272 -0.2916
 5999TIP3    H139556   2.745   0.691   1.788 -0.5993  1.5037 -1.5648
 5999TIP3    H239557   2.795   0.604   1.676 -0.1993  0.7685 -0.8278
 6000TIP3   OH239558   3.347   2.581   8.590  0.1413 -0.7739 -0.7382
 6000TIP3    H139559   3.434   2.594   8.630 -0.8061  0.8482  0.9832
 6000TIP3    H239560   3.287   2.581   8.665 -1.4716 -0.4960 -1.9975
 6001TIP3   OH239561   3.432   4.845   2.911  0.6155  0.2858 -0.0858
 6001TIP3    H139562   3.406   4.855   2.820 -0.3784  4.1298  0.4295
 6001TIP3    H239563   3.525   4.867   2.912  1.0269 -1.3412 -0.3239
 6002TIP3   OH239564   3.649   4.544   1.849 -0.5310 -0.5155 -0.2133
 6002TIP3    H139565   3.707   4.500   1.912  1.5927 -0.0179 -1.7427
 6002TIP3    H239566   3.648   4.486   1.773  1.1333  1.2917 -1.6927
 6003TIP3   OH239567   6.396   0.268   0.799  0.3569  0.5436  0.1000
 6003TIP3    H139568   6.451   0.270   0.878  0.9252  0.2783 -0.2837
 6003TIP3    H239569   6.317   0.221   0.826  0.8489 -0.1698  0.3269
 6004TIP3   OH239570   2.952   2.221   7.450  0.1075  0.2581 -0.3880
 6004TIP3    H139571   2.883   2.285   7.469 -0.0834 -0.3350  1.0797
 6004TIP3    H239572   2.923   2.176   7.371 -1.0790  0.1668  0.0880
 6005TIP3   OH239573   0.379   5.071   7.313  0.3462  0.2593  0.6252
 6005TIP3    H139574   0.345   5.006   7.374  0.5121  0.0182  0.4610
 6005TIP3    H239575   0.323   5.148   7.326 -0.8709 -0.4494 -0.3087
 6006TIP3   OH239576   6.385   0.280   2.637 -0.4499  0.3305  0.2572
 6006TIP3    H139577   6.391   0.184   2.637  0.6093  0.3865 -0.7671
 6006TIP3    H239578   6.293   0.298   2.660 -1.5490 -0.9969 -2.6592
 6007TIP3   OH239579   5.085   0.832   0.455 -0.4590  0.2389 -0.4693
 6007TIP3    H139580   5.175   0.827   0.423 -0.1585  0.8425  0.2481
 6007TIP3    H239581   5.044   0.898   0.399 -0.5477 -0.2477 -0.9889
 6008TIP3   OH239582   4.705   2.425   7.838  0.3539 -0.0012 -0.0802
 6008TIP3    H139583   4.711   2.440   7.744  2.0628 -1.9013 -0.3369
 6008TIP3    H239584   4.780   2.370   7.859 -0.0019  0.3325  2.4053
 6009TIP3   OH239585   3.065   3.235   2.206 -0.0035  0.0666 -0.7420
 6009TIP3    H139586   3.053   3.315   2.258  1.5286  0.0010 -0.2367
 6009TIP3    H239587   3.087   3.266   2.118  0.8573  0.2185 -0.4813
 6010TIP3   OH239588   1.485   3.980   8.302  0.1735 -0.1249  0.2936
 6010TIP3    H139589   1.493   3.960   8.396 -0.2705 -1.6755  0.0212
 6010TIP3    H239590   1.402   4.027   8.295 -1.0959 -2.2248  0.3896
 6011TIP3   OH239591   1.202   1.739   1.524  0.2391 -0.1100  0.4832
 6011TIP3    H139592   1.269   1.798   1.558  1.2580 -0.4359 -0.8621
 6011TIP3    H239593   1.222   1.654   1.563  1.0402 -0.3520 -0.4177
 6012TIP3   OH239594   4.909   6.432   0.320 -0.0850  0.4076 -0.1865
 6012TIP3    H139595   4.869   6.425   0.234 -1.7591  2.3293  0.3479
 6012TIP3    H239596   4.942   6.522   0.324  1.7716 -0.2368  0.4950
 6013TIP3   OH239597   0.047   2.548   7.683 -0.0740 -0.2403  0.4655
 6013TIP3    H139598   0.102   2.489   7.632 -0.1231  0.0612  0.0580
 6013TIP3    H239599   0.019   2.496   7.758 -0.7910 -1.0026 -0.3008
 6014TIP3   OH239600   4.497   4.234   0.547 -0.0390 -0.0740 -1.0963
 6014TIP3    H139601   4.508   4.148   0.586 -0.8819 -0.0349 -0.7400
 6014TIP3    H239602   4.479   4.292   0.621 -1.7294 -0.0123 -1.5110
 6015TIP3   OH239603   5.031   5.430   1.179 -0.6296  0.2283  0.4786
 6015TIP3    H139604   4.964   5.498   1.186 -0.4755  0.3029  1.2274
 6015TIP3    H239605   4.985   5.356   1.139 -1.0868  0.3857  0.7061
 6016TIP3   OH239606   2.154   2.974   0.630  0.1514 -0.0494  0.1468
 6016TIP3    H139607   2.189   3.063   0.631 -3.7355  1.6625  1.3336
 6016TIP3    H239608   2.132   2.955   0.721  0.2136 -2.0037 -0.1934
 6017TIP3   OH239609   3.562   1.316   1.010  0.3565  0.2081  0.1281
 6017TIP3    H139610   3.564   1.324   0.915 -0.5514 -2.8665 -0.2480
 6017TIP3    H239611   3.638   1.262   1.031 -0.3963 -0.5440  0.9592
 6018TIP3   OH239612   0.188   2.195   1.952 -0.1008 -0.3586 -0.0852
 6018TIP3    H139613   0.190   2.274   2.007 -0.7461  0.1900 -0.8185
 6018TIP3    H239614   0.126   2.137   1.995  0.8705 -0.7462  0.8151
 6019TIP3   OH239615   1.450   6.791   0.917  0.1321 -1.1029 -0.0748
 6019TIP3    H139616   1.518   6.804   0.982 -2.0425 -1.1162  2.3753
 6019TIP3    H239617   1.412   6.706   0.938 -3.0819  0.4690  1.2043
 6020TIP3   OH239618   1.270   4.494   1.545  0.0525 -0.0545  0.0862
 6020TIP3    H139619   1.329   4.562   1.514  0.4894 -0.0064  0.9637
 6020TIP3    H239620   1.248   4.521   1.635 -1.3156 -0.0713 -0.2234
 6021TIP3   OH239621   6.175   1.308   1.055  0.6185  0.2937  0.2521
 6021TIP3    H139622   6.135   1.256   0.985 -0.6878  0.5694  0.7539
 6021TIP3    H239623   6.127   1.391   1.054  1.7328  0.9660  0.3803
 6022TIP3   OH239624   5.913   4.134   6.746 -0.5213 -0.1405  0.5792
 6022TIP3    H139625   5.937   4.055   6.794  0.3522 -0.3175 -0.1331
 6022TIP3    H239626   5.885   4.195   6.814 -0.7342 -0.8920  1.1787
 6023TIP3   OH239627   1.818   5.577   8.074 -0.0426  0.0433 -0.5579
 6023TIP3    H139628   1.866   5.651   8.111 -0.3328 -0.2063  0.3504
 6023TIP3    H239629   1.886   5.522   8.035  0.4394 -0.3084  0.7130
 6024TIP3   OH239630   4.295   1.558   0.510 -0.5214  0.2070  0.2546
 6024TIP3    H139631   4.256   1.471   0.499  0.2138 -0.0303 -0.4910
 6024TIP3    H239632   4.264   1.586   0.597 -2.7619  0.2512 -0.4797
 6025TIP3   OH239633   6.642   3.499   0.648 -0.2062 -0.5505 -0.6469
 6025TIP3    H139634   6.606   3.493   0.736 -1.5574 -1.6477 -1.2368
 6025TIP3    H239635   6.683   3.585   0.644  3.8895 -2.0180  2.5122
 6026TIP3   OH239636   4.197   3.235   1.315  0.1595 -0.7663 -0.2115
 6026TIP3    H139637   4.265   3.205   1.255  1.5373 -0.8104  1.3153
 6026TIP3    H239638   4.243   3.291   1.377 -1.5211  0.5900 -0.1279
 6027TIP3   OH239639   0.843   1.959   1.328  0.4296 -0.0430 -0.1835
 6027TIP3    H139640   0.809   2.000   1.249  1.8610 -0.0614 -0.8155
 6027TIP3    H239641   0.919   1.910   1.300  1.1606  0.2129  1.2567
 6028TIP3   OH239642   3.605   1.595   2.228 -0.0776 -0.1808  0.3154
 6028TIP3    H139643   3.673   1.659   2.207  1.0278 -1.9233 -1.7404
 6028TIP3    H239644   3.595   1.543   2.148 -3.0258 -0.7554  0.9206
 6029TIP3   OH239645   6.013   6.306   8.153  0.0574  0.1323  0.0818
 6029TIP3    H139646   6.102   6.282   8.177  0.3561  1.1422  0.0126
 6029TIP3    H239647   5.974   6.340   8.234 -0.1665 -0.0333  0.0444
 6030TIP3   OH239648   2.475   5.790   7.377  0.2802  0.3914  0.5247
 6030TIP3    H139649   2.444   5.706   7.410 -0.4218 -0.0017 -1.0423
 6030TIP3    H239650   2.472   5.848   7.453 -2.0226 -0.2582  1.0090
 6031TIP3   OH239651   6.340   0.481   7.545  0.4696  0.7842  0.2488
 6031TIP3    H139652   6.352   0.539   7.470 -1.6726 -0.7364 -1.4117
 6031TIP3    H239653   6.423   0.432   7.550  1.3019  2.1072  0.0260
 6032TIP3   OH239654   5.237   4.780   7.407 -0.0961 -0.1389 -0.4048
 6032TIP3    H139655   5.163   4.734   7.368 -0.4323  0.1778 -0.1535
 6032TIP3    H239656   5.280   4.715   7.462  1.0363 -0.9204 -2.1036
 6033TIP3   OH239657   0.144   4.843   7.971 -0.0011 -0.5425  0.5015
 6033TIP3    H139658   0.104   4.868   8.054 -0.7547 -0.1973  0.0369
 6033TIP3    H239659   0.118   4.752   7.958 -0.1180 -0.5094  0.5049
 6034TIP3   OH239660   6.261   2.672   7.776 -0.4906 -0.3455  0.4111
 6034TIP3    H139661   6.240   2.653   7.867  0.7489 -1.6669  0.4539
 6034TIP3    H239662   6.350   2.705   7.778 -1.3143  2.1336 -0.0970
 6035TIP3   OH239663   2.421   4.732   2.585 -0.2689  0.0598  0.6833
 6035TIP3    H139664   2.360   4.797   2.620 -0.2960 -1.0118  2.7379
 6035TIP3    H239665   2.502   4.747   2.634 -0.2399 -1.3593  1.0948
 6036TIP3   OH239666   6.040   1.438   2.061  0.1730 -0.7105 -0.1210
 6036TIP3    H139667   6.008   1.527   2.045  0.6598 -0.3536  0.8137
 6036TIP3    H239668   6.076   1.441   2.150 -2.0164 -2.4639  0.9379
 6037TIP3   OH239669   3.044   3.936   8.373 -0.2173 -0.0123 -0.1475
 6037TIP3    H139670   2.965   3.882   8.373  0.0092 -0.3488 -0.0830
 6037TIP3    H239671   3.077   3.931   8.463 -0.2928  0.3791 -0.0968
 6038TIP3   OH239672   4.333   0.061   6.710 -0.1829  0.4460 -0.0437
 6038TIP3    H139673   4.239   0.068   6.726 -0.3954  1.1870 -1.4521
 6038TIP3    H239674   4.351   0.126   6.641  0.7759 -1.7725 -2.0395
 6039TIP3   OH239675   2.196   2.351   7.138  0.2958 -0.6403 -0.2349
 6039TIP3    H139676   2.250   2.272   7.130  1.1500  0.0339 -1.6779
 6039TIP3    H239677   2.178   2.376   7.047 -3.1076 -1.2034  0.1501
 6040TIP3   OH239678   3.936   5.063   1.493  0.4388 -0.0353 -0.2711
 6040TIP3    H139679   3.970   5.153   1.485 -0.4936  0.2991 -0.6824
 6040TIP3    H239680   3.978   5.029   1.572  0.2857  1.0034  0.2835
 6041TIP3   OH239681   4.004   2.396   0.988 -0.1649  0.4729  0.2272
 6041TIP3    H139682   3.991   2.490   0.975  0.9031  0.7411  0.9540
 6041TIP3    H239683   4.095   2.380   0.964 -0.2377 -0.3191  0.4305
 6042TIP3   OH239684   2.357   4.458   0.698 -0.0884 -0.4504  0.2486
 6042TIP3    H139685   2.347   4.519   0.771 -1.4778 -1.7329  1.2049
 6042TIP3    H239686   2.322   4.375   0.732 -1.2543 -0.9753 -2.0242
 6043TIP3   OH239687   3.993   4.948   1.749 -0.3117 -0.2996  0.2714
 6043TIP3    H139688   4.066   4.925   1.807  0.4280 -1.1975 -0.9618
 6043TIP3    H239689   3.915   4.922   1.798  0.2539 -0.4390  1.1352
 6044TIP3   OH239690   4.712   1.701   1.569  0.3282  0.0182  0.0092
 6044TIP3    H139691   4.708   1.617   1.615  1.4187  0.9408  1.9179
 6044TIP3    H239692   4.621   1.723   1.552 -0.1170 -0.5821  1.4333
 6045TIP3   OH239693   4.344   2.379   8.157  0.0426 -0.9452 -0.1406
 6045TIP3    H139694   4.360   2.372   8.251  0.7130  1.7605  0.0146
 6045TIP3    H239695   4.424   2.347   8.116  0.4735 -0.4282  0.2800
 6046TIP3   OH239696   2.561   5.544   1.829 -0.5309 -0.3350 -0.2585
 6046TIP3    H139697   2.519   5.615   1.781 -0.4199 -0.4478 -0.5294
 6046TIP3    H239698   2.493   5.509   1.886 -0.9133 -0.7469 -0.9472
 6047TIP3   OH239699   1.890   0.836   2.653 -0.2731 -0.3708  0.0414
 6047TIP3    H139700   1.975   0.877   2.640 -0.4075 -0.3080 -0.6931
 6047TIP3    H239701   1.837   0.902   2.696 -0.3898  0.1249 -0.8358
 6048TIP3   OH239702   0.700   5.915   0.424  1.2569  0.5546  0.5949
 6048TIP3    H139703   0.719   6.009   0.431 -0.4989  0.8273  2.5193
 6048TIP3    H239704   0.612   5.910   0.388  0.1690 -0.1805  3.1114
 6049TIP3   OH239705   6.845   2.957   0.217 -0.1503  1.0543  0.2941
 6049TIP3    H139706   6.773   3.010   0.253  0.1680 -0.1940  3.0134
 6049TIP3    H239707   6.924   3.002   0.247  0.1287  0.1287  0.9972
 6050TIP3   OH239708   6.260   4.243   7.348 -0.0290 -0.0742  0.2999
 6050TIP3    H139709   6.293   4.244   7.438  1.0034  0.6154 -0.0713
 6050TIP3    H239710   6.182   4.186   7.352 -0.2264  0.2467  1.6921
 6051TIP3   OH239711   1.942   2.997   8.597  0.2245 -0.5248  0.0171
 6051TIP3    H139712   1.933   3.092   8.593  0.9166 -0.4766 -0.6671
 6051TIP3    H239713   1.856   2.963   8.571 -0.2159 -0.0946  0.8689
 6052TIP3   OH239714   5.141   2.158   0.235 -0.0029 -0.1652  0.2892
 6052TIP3    H139715   5.208   2.188   0.173  0.6189  0.0636  1.0578
 6052TIP3    H239716   5.063   2.146   0.181  0.4507  0.2871 -0.4954
 6053TIP3   OH239717   0.490   2.241   1.017 -0.4445  0.4320 -0.6282
 6053TIP3    H139718   0.474   2.293   0.939 -0.1627 -0.3513 -1.2252
 6053TIP3    H239719   0.422   2.173   1.016 -0.1033  0.0815 -0.5044
 6054TIP3   OH239720   6.125   0.223   2.676 -0.1009 -0.3738  0.0026
 6054TIP3    H139721   6.137   0.190   2.587 -0.4923 -1.0461  0.1881
 6054TIP3    H239722   6.093   0.147   2.725  0.0285  0.0131  0.6954
 6055TIP3   OH239723   2.422   4.990   0.214  0.5299  0.4432 -0.8168
 6055TIP3    H139724   2.358   4.966   0.147  3.4183 -1.8528 -3.0481
 6055TIP3    H239725   2.485   5.046   0.168  1.7589  0.0905  0.3796
 6056TIP3   OH239726   6.653   0.487   7.759  0.3631 -0.2000 -0.4009
 6056TIP3    H139727   6.619   0.503   7.847 -1.9128  2.4413 -1.5830
 6056TIP3    H239728   6.680   0.574   7.728  0.4981 -0.9299 -2.5059
 6057TIP3   OH239729   0.229   3.552   2.209 -0.5456  0.2469  0.4959
 6057TIP3    H139730   0.315   3.512   2.226 -0.7111 -0.7481 -0.7819
 6057TIP3    H239731   0.234   3.579   2.117 -1.5693  0.2604  0.4387
 6058TIP3   OH239732   1.110   6.153   1.867  0.9191 -0.2070  0.4379
 6058TIP3    H139733   1.065   6.235   1.889 -0.3193  0.0223 -2.4873
 6058TIP3    H239734   1.197   6.181   1.838 -0.1202  0.4287 -2.4096
 6059TIP3   OH239735   1.679   2.230   0.917  0.3536  0.0265 -0.5741
 6059TIP3    H139736   1.633   2.266   0.841 -0.4799 -0.0752 -0.1294
 6059TIP3    H239737   1.687   2.136   0.898 -1.4746 -0.3293  0.2447
 6060TIP3   OH239738   6.806   0.579   8.452 -0.7144  0.2685 -0.0233
 6060TIP3    H139739   6.810   0.673   8.470  0.6848  0.3368 -0.6072
 6060TIP3    H239740   6.826   0.538   8.536 -0.2242  0.5126 -0.0172
 6061TIP3   OH239741   0.132   2.202   7.775  0.4026 -0.4923  0.1741
 6061TIP3    H139742   0.058   2.146   7.750  0.4088 -0.2180 -0.4823
 6061TIP3    H239743   0.091   2.281   7.811  0.3169  0.3904 -1.7596
 6062TIP3   OH239744   0.298   1.281   1.456 -0.0982  0.4345  0.5884
 6062TIP3    H139745   0.285   1.372   1.427 -2.3975  0.3278  1.0351
 6062TIP3    H239746   0.374   1.285   1.514  1.1757  1.6360 -1.0626
 6063TIP3   OH239747   5.825   4.834   8.176  1.1324  0.5132  0.4177
 6063TIP3    H139748   5.730   4.842   8.172  1.1408  0.3665 -0.2355
 6063TIP3    H239749   5.857   4.878   8.097  1.4087 -1.9869 -0.9770
 6064TIP3   OH239750   2.822   4.227   7.693 -0.2945  0.1202  0.1317
 6064TIP3    H139751   2.784   4.152   7.739 -1.9404  0.5618 -0.4362
 6064TIP3    H239752   2.752   4.292   7.692  1.1095  1.6917  0.6257
 6065TIP3   OH239753   1.323   6.373   1.772 -0.2085 -0.6948 -0.3717
 6065TIP3    H139754   1.411   6.402   1.798 -0.6806  0.7197 -0.2908
 6065TIP3    H239755   1.332   6.350   1.680  0.3605 -1.0769 -0.2299
 6066TIP3   OH239756   4.573   2.622   1.629 -0.1192  0.2689  0.3936
 6066TIP3    H139757   4.484   2.655   1.645 -0.2262  0.4813 -0.5435
 6066TIP3    H239758   4.615   2.622   1.715 -0.0295  3.0798  0.4588
 6067TIP3   OH239759   3.904   6.698   0.501  0.2234  0.0225  0.3438
 6067TIP3    H139760   3.954   6.678   0.580  0.4485 -0.3614  0.1102
 6067TIP3    H239761   3.813   6.704   0.531  0.5089  1.9022  0.9784
 6068TIP3   OH239762   1.193   0.541   7.355  0.0182  0.4514 -0.6303
 6068TIP3    H139763   1.262   0.475   7.342  2.0354  2.5080 -1.0807
 6068TIP3    H239764   1.149   0.547   7.271 -1.1289 -1.2458 -0.1988
 6069TIP3   OH239765   5.255   4.715   2.258 -0.1334 -0.3235  0.4470
 6069TIP3    H139766   5.171   4.754   2.280 -0.2760  0.1481 -0.8632
 6069TIP3    H239767   5.317   4.754   2.320 -0.3341  1.7491 -0.5818
 6070TIP3   OH239768   3.248   4.336   8.383  0.3500  0.2490 -0.0069
 6070TIP3    H139769   3.305   4.333   8.306 -1.1329  0.4866 -1.1566
 6070TIP3    H239770   3.258   4.425   8.417  0.0712  0.5472 -0.6868
 6071TIP3   OH239771   6.199   1.317   7.640 -0.2597 -0.5558  0.3868
 6071TIP3    H139772   6.261   1.390   7.645 -2.1183  1.0759  0.9568
 6071TIP3    H239773   6.193   1.298   7.546 -1.2269  1.4573 -0.0260
 6072TIP3   OH239774   4.617   3.171   8.178  0.0234 -0.4802 -0.3472
 6072TIP3    H139775   4.564   3.200   8.104 -0.1944  2.1111  0.7079
 6072TIP3    H239776   4.659   3.091   8.148  2.4002  1.9639 -4.4562
 6073TIP3   OH239777   3.452   5.433   6.648  0.3854 -0.4117 -0.1732
 6073TIP3    H139778   3.466   5.461   6.739  0.4826 -2.4638  0.5002
 6073TIP3    H239779   3.493   5.348   6.643 -0.4117 -0.7312 -1.9128
 6074TIP3   OH239780   3.691   0.248   0.903  0.2310 -0.2170  0.1757
 6074TIP3    H139781   3.607   0.221   0.940 -0.2209  1.9901  0.9126
 6074TIP3    H239782   3.744   0.273   0.978  0.5602  1.0172 -0.4409
 6075TIP3   OH239783   5.909   6.052   8.131  0.3880  0.5641 -0.5599
 6075TIP3    H139784   5.840   6.029   8.069 -2.0314  1.5061  1.6011
 6075TIP3    H239785   5.934   6.141   8.107  0.5821  0.3710 -1.0942
 6076TIP3   OH239786   0.559   0.217   7.140  0.1335  0.2153 -0.1707
 6076TIP3    H139787   0.528   0.131   7.113 -0.1148  0.0715  0.5460
 6076TIP3    H239788   0.644   0.227   7.096  0.8157 -0.9861  0.7976
 6077TIP3   OH239789   1.895   1.954   8.342 -0.1787 -0.0885 -0.0262
 6077TIP3    H139790   1.911   2.028   8.284  0.0597 -1.0871 -1.2952
 6077TIP3    H239791   1.808   1.971   8.380 -0.9397 -0.0032 -1.6972
 6078TIP3   OH239792   4.277   0.878   0.352 -0.3005 -0.0663  0.3274
 6078TIP3    H139793   4.331   0.941   0.400 -0.2349 -0.2852  0.5389
 6078TIP3    H239794   4.204   0.931   0.318 -0.0288  0.2035  0.1545
 6079TIP3   OH239795   5.599   3.568   8.127 -0.4413  0.1299 -0.2290
 6079TIP3    H139796   5.570   3.639   8.184 -2.8590 -0.6892 -0.3289
 6079TIP3    H239797   5.694   3.573   8.128 -0.5247  2.3479  1.0338
 6080TIP3   OH239798   6.298   6.134   2.198  0.0076  0.2852  0.0628
 6080TIP3    H139799   6.369   6.089   2.245 -0.2596 -0.2628 -0.0502
 6080TIP3    H239800   6.336   6.158   2.114  1.0655  2.8656  1.1532
 6081TIP3   OH239801   4.563   6.714   2.166  0.5960  0.1227 -0.0320
 6081TIP3    H139802   4.593   6.742   2.253  1.7324  0.9463 -0.6492
 6081TIP3    H239803   4.486   6.661   2.183  3.1344 -3.3734  1.8285
 6082TIP3   OH239804   0.803   0.217   1.483 -0.5578  0.7168  0.8046
 6082TIP3    H139805   0.847   0.300   1.465  0.3443  0.4510  1.7151
 6082TIP3    H239806   0.713   0.232   1.454 -0.0200  1.4389 -0.6104
 6083TIP3   OH239807   0.528   0.160   1.472  0.1919 -0.2660  0.0341
 6083TIP3    H139808   0.513   0.226   1.540 -0.3428  0.4155 -0.7129
 6083TIP3    H239809   0.444   0.155   1.426  0.0788 -1.8450  0.3841
 6084TIP3   OH239810   3.511   1.814   8.181 -0.0791 -0.4416  0.9202
 6084TIP3    H139811   3.468   1.730   8.167  1.0879 -0.8650 -0.3474
 6084TIP3    H239812   3.440   1.878   8.182 -0.8453 -1.2641  0.2576
 6085TIP3   OH239813   3.228   1.692   7.196  0.7070  0.3011 -0.2236
 6085TIP3    H139814   3.299   1.756   7.198  0.1916  0.9255 -1.2775
 6085TIP3    H239815   3.153   1.739   7.231  0.0460  0.6592 -2.0282
 6086TIP3   OH239816   6.377   6.394   0.694  0.1160 -0.4142 -0.9045
 6086TIP3    H139817   6.308   6.380   0.629 -1.1024 -1.8831  0.6120
 6086TIP3    H239818   6.452   6.346   0.661  0.0420  0.2042 -1.9973
 6087TIP3   OH239819   0.011   2.364   0.076 -0.1109  0.1464  1.1794
 6087TIP3    H139820  -0.044   2.291   0.047 -0.1290  0.1137  1.2973
 6087TIP3    H239821   0.093   2.323   0.103  0.2170  0.2537  0.3883
 6088TIP3   OH239822   5.580   5.750   1.804  0.2684 -0.0431  0.6730
 6088TIP3    H139823   5.649   5.793   1.752  1.0025 -0.3873  1.3371
 6088TIP3    H239824   5.617   5.664   1.824 -0.8257 -0.6564  0.0953
 6089TIP3   OH239825   1.789   1.315   2.774  0.3124  0.2456 -0.3199
 6089TIP3    H139826   1.722   1.311   2.706 -1.6511  0.2343  1.5076
 6089TIP3    H239827   1.825   1.226   2.777  0.1579  0.1510 -1.0725
 6090TIP3   OH239828   6.299   1.846   7.819  0.5421 -0.0932  0.3910
 6090TIP3    H139829   6.343   1.924   7.854  0.7742 -0.2041  0.3497
 6090TIP3    H239830   6.363   1.808   7.759  0.0204  0.2835 -0.4191
 6091TIP3   OH239831   3.125   5.198   1.988 -0.8429 -0.0973  0.2300
 6091TIP3    H139832   3.181   5.271   1.964 -1.7258  0.0313 -1.6385
 6091TIP3    H239833   3.159   5.124   1.938 -1.6131 -0.2913 -0.0310
 6092TIP3   OH239834   1.510   6.514   7.363  0.1960 -0.0356 -0.3037
 6092TIP3    H139835   1.595   6.542   7.328 -0.5377  0.9656 -1.3090
 6092TIP3    H239836   1.467   6.595   7.389 -0.5723 -0.5223 -0.0333
 6093TIP3   OH239837   3.702   2.909   8.236  0.3371 -0.1432  0.4952
 6093TIP3    H139838   3.771   2.863   8.284  0.5940  0.2961  0.5509
 6093TIP3    H239839   3.689   2.990   8.285 -1.2634 -0.8706  1.3475
 6094TIP3   OH239840   4.991   3.200   2.740 -0.3974 -0.3379 -0.1903
 6094TIP3    H139841   5.056   3.238   2.681 -0.4749 -2.2604 -1.5735
 6094TIP3    H239842   5.043   3.146   2.800 -0.5807 -0.6658 -0.3284
 6095TIP3   OH239843   6.689   1.626   0.100 -0.6518 -0.0710  0.5003
 6095TIP3    H139844   6.777   1.663   0.090 -0.5688 -0.5464 -0.7469
 6095TIP3    H239845   6.651   1.676   0.172  0.7267 -0.0453  1.2585
 6096TIP3   OH239846   0.231   5.422   8.084  0.0792 -0.0424  0.1583
 6096TIP3    H139847   0.322   5.399   8.061 -0.2094 -0.1882 -0.8595
 6096TIP3    H239848   0.178   5.375   8.020 -0.7427 -0.1801  0.9197
 6097TIP3   OH239849   0.805   2.958   1.236 -0.2710 -0.3838  0.0571
 6097TIP3    H139850   0.876   2.920   1.288  0.9699 -0.4454 -1.6077
 6097TIP3    H239851   0.792   2.897   1.165  0.4780  1.2964 -1.6276
 6098TIP3   OH239852   5.828   6.132   1.528  0.1372  0.7573  0.0846
 6098TIP3    H139853   5.764   6.064   1.550 -1.0209  1.4021 -1.1534
 6098TIP3    H239854   5.912   6.087   1.529 -0.7592 -1.2545 -2.5969
 6099TIP3   OH239855   6.283   2.366   0.753  0.2973  0.3666  0.3353
 6099TIP3    H139856   6.259   2.354   0.661  0.7295 -0.8573  0.3592
 6099TIP3    H239857   6.347   2.297   0.770  2.0240  2.0448  0.9316
 6100TIP3   OH239858   0.615   3.991   0.424  0.0561  0.2600 -0.5589
 6100TIP3    H139859   0.647   4.081   0.417  1.6772 -0.2032  0.3826
 6100TIP3    H239860   0.526   4.000   0.458 -0.1835  1.5279 -1.4564
 6101TIP3   OH239861   6.039   6.014   1.252 -0.4631  0.4365 -0.5010
 6101TIP3    H139862   6.088   5.997   1.332  1.8648 -0.8071 -2.0785
 6101TIP3    H239863   5.956   6.051   1.282 -0.4810 -1.7234  2.5612
 6102TIP3   OH239864   1.184   6.721   2.271  0.3696 -0.4953 -0.0449
 6102TIP3    H139865   1.130   6.731   2.194  1.2976 -0.6851 -0.7404
 6102TIP3    H239866   1.205   6.627   2.274 -1.1666 -0.8363  1.4984
 6103TIP3   OH239867   0.803   1.155   1.848 -0.2007  0.1149  0.7844
 6103TIP3    H139868   0.876   1.093   1.847 -0.3822 -0.1769  2.5596
 6103TIP3    H239869   0.844   1.241   1.859 -0.0337  0.1648 -0.1629
 6104TIP3   OH239870   2.143   6.662   6.721 -0.2964 -0.4182  0.0705
 6104TIP3    H139871   2.196   6.584   6.738  0.9059  0.1791 -0.7868
 6104TIP3    H239872   2.194   6.733   6.759 -1.8270 -0.1261  1.6725
 6105TIP3   OH239873   1.736   1.858   0.608 -0.5293 -0.0982  0.2504
 6105TIP3    H139874   1.665   1.799   0.583 -1.5381  0.5860  1.3760
 6105TIP3    H239875   1.810   1.800   0.627 -1.2264 -0.9398  0.4800
 6106TIP3   OH239876   5.059   3.030   8.264 -0.5222  0.2625  0.4101
 6106TIP3    H139877   5.084   3.081   8.341  0.6108  1.5226 -0.7394
 6106TIP3    H239878   5.031   3.096   8.200 -0.8531 -0.7056 -0.4589
 6107TIP3   OH239879   1.033   5.791   7.769 -0.2765  0.4437 -0.2309
 6107TIP3    H139880   1.094   5.836   7.711  1.8408 -1.6225  0.2599
 6107TIP3    H239881   1.069   5.803   7.857  0.1906 -1.8003 -0.0442
 6108TIP3   OH239882   6.117   4.766   0.003 -0.5009  0.4268 -0.5334
 6108TIP3    H139883   6.206   4.743  -0.025 -1.4240 -0.5907 -2.9311
 6108TIP3    H239884   6.093   4.696   0.064 -0.2109 -0.2354 -1.1518
 6109TIP3   OH239885   6.351   2.133   8.641  0.4091 -0.1896 -0.5529
 6109TIP3    H139886   6.339   2.222   8.609  3.6265  0.4360 -0.3347
 6109TIP3    H239887   6.444   2.115   8.629  0.0996 -3.0976  0.5435
 6110TIP3   OH239888   2.951   5.425   0.588 -0.9151  0.0516 -0.3146
 6110TIP3    H139889   3.014   5.414   0.517  0.0509  3.3787 -0.1659
 6110TIP3    H239890   3.004   5.420   0.668 -2.0360 -3.9625  0.3833
 6111TIP3   OH239891   3.605   4.909   1.674 -0.3862  0.2284 -0.5723
 6111TIP3    H139892   3.647   4.921   1.589 -1.5230  0.1615 -1.1589
 6111TIP3    H239893   3.522   4.867   1.654 -1.1046  1.1085  0.4755
 6112TIP3   OH239894   2.446   3.899   1.034 -0.1599 -0.2008 -0.3569
 6112TIP3    H139895   2.392   3.885   0.956  1.3904  0.4094 -1.6028
 6112TIP3    H239896   2.503   3.823   1.037 -0.0104 -0.0749  0.0052
 6113TIP3   OH239897   1.439   4.521   7.835 -0.3380  0.3253 -0.4321
 6113TIP3    H139898   1.481   4.457   7.779 -1.8181 -0.8591 -0.2573
 6113TIP3    H239899   1.494   4.525   7.913 -0.2556 -0.7906 -0.4262
 6114TIP3   OH239900   0.100   2.714   2.315 -0.7911 -0.1859 -0.5981
 6114TIP3    H139901   0.132   2.744   2.230 -0.9103 -0.7818 -0.8621
 6114TIP3    H239902   0.168   2.653   2.345  0.6456  2.0827  1.0305
 6115TIP3   OH239903   0.109   5.943   7.257 -0.1721  0.0301  0.2033
 6115TIP3    H139904   0.203   5.924   7.249 -0.1055  0.7402 -0.8803
 6115TIP3    H239905   0.080   5.887   7.329  0.9014 -0.8554 -0.0155
 6116TIP3   OH239906   5.821   0.359   8.296 -0.0939  0.0967 -0.3147
 6116TIP3    H139907   5.850   0.388   8.383  1.3240 -0.6010 -0.5149
 6116TIP3    H239908   5.903   0.347   8.247 -0.8851  0.8880 -1.8894
 6117TIP3   OH239909   1.794   2.389   8.458 -0.4471  0.6090  0.1501
 6117TIP3    H139910   1.879   2.434   8.453 -0.1140 -0.0598 -0.2995
 6117TIP3    H239911   1.804   2.329   8.532 -0.6028  0.6863  0.2328
 6118TIP3   OH239912   3.360   6.477   8.544  0.2846 -0.4855 -0.6638
 6118TIP3    H139913   3.306   6.481   8.465 -2.3306  2.7297  1.0732
 6118TIP3    H239914   3.299   6.452   8.614  2.5149 -3.2411  0.5240
 6119TIP3   OH239915   4.179   2.989   1.125 -0.0486 -0.4139  0.0709
 6119TIP3    H139916   4.216   2.905   1.152 -0.7170 -0.4058  1.0436
 6119TIP3    H239917   4.085   2.980   1.138 -0.1602  0.3812 -0.1162
 6120TIP3   OH239918   6.756   0.691   0.886  0.3348  0.0394 -0.0490
 6120TIP3    H139919   6.704   0.732   0.817  0.8011 -1.6553 -1.4746
 6120TIP3    H239920   6.817   0.635   0.840  1.9377  0.2403  1.6860
 6121TIP3   OH239921   1.777   4.085   0.111 -0.1417  0.2963 -0.0232
 6121TIP3    H139922   1.790   4.161   0.167  1.5535  0.8516 -1.0704
 6121TIP3    H239923   1.866   4.057   0.088 -0.7633 -0.8794 -1.1312
 6122TIP3   OH239924   6.527   0.559   6.912 -0.0681  0.0596  0.5076
 6122TIP3    H139925   6.593   0.490   6.911 -0.3290 -0.1900  0.0076
 6122TIP3    H239926   6.450   0.519   6.871 -0.5586  0.3183  1.1501
 6123TIP3   OH239927   1.641   6.410   1.792  0.6389  0.2540  0.3106
 6123TIP3    H139928   1.677   6.459   1.866  1.7308  1.7067 -1.1096
 6123TIP3    H239929   1.703   6.340   1.776  1.6312  1.3009 -0.6047
 6124TIP3   OH239930   0.652   2.844   6.793 -0.0561 -0.8438 -0.4317
 6124TIP3    H139931   0.574   2.835   6.739 -0.3806  1.1586 -0.3758
 6124TIP3    H239932   0.725   2.830   6.732 -0.4358 -1.5247 -0.7405
 6125TIP3   OH239933   5.239   5.730   7.294  1.3859 -0.6199  0.6985
 6125TIP3    H139934   5.272   5.668   7.229 -1.0015  0.7294 -2.0590
 6125TIP3    H239935   5.157   5.690   7.324  1.7365 -0.5308  1.7854
 6126TIP3   OH239936   6.113   6.402   0.545 -0.2095 -0.2767 -0.2491
 6126TIP3    H139937   6.170   6.339   0.501  0.3856  0.7832 -1.0453
 6126TIP3    H239938   6.061   6.349   0.605  0.5747 -1.4655 -0.5746
 6127TIP3   OH239939   1.335   5.495   1.471  0.3430 -0.4316 -1.0383
 6127TIP3    H139940   1.317   5.586   1.493 -2.7786 -1.1903  0.0742
 6127TIP3    H239941   1.314   5.488   1.377  1.3834  0.1358 -1.3224
 6128TIP3   OH239942   2.858   2.224   2.475  0.2205 -0.5110 -0.4776
 6128TIP3    H139943   2.940   2.177   2.458 -0.7251 -1.4046 -2.9291
 6128TIP3    H239944   2.805   2.163   2.525  1.2603  0.3695  1.8503
 6129TIP3   OH239945   5.680   5.175   1.416 -0.0221  0.1424  0.0341
 6129TIP3    H139946   5.673   5.211   1.505  2.0520  1.7226 -0.3511
 6129TIP3    H239947   5.746   5.106   1.424 -0.1863 -0.0396 -0.1909
 6130TIP3   OH239948   6.708   6.746   6.741 -0.2359  0.2701  0.3548
 6130TIP3    H139949   6.781   6.685   6.755  0.3985  1.3520  2.3030
 6130TIP3    H239950   6.642   6.695   6.695  0.4875 -1.7181  1.3796
 6131TIP3   OH239951   3.185   6.402   1.562 -0.1699 -0.6230 -0.2098
 6131TIP3    H139952   3.122   6.465   1.528 -0.6096 -0.4076  0.9282
 6131TIP3    H239953   3.192   6.424   1.655  2.7825  0.3776 -0.5693
 6132TIP3   OH239954   4.486   3.336   8.009  0.5064 -0.4688  0.1517
 6132TIP3    H139955   4.432   3.403   8.050  0.9605 -0.2139  0.3345
 6132TIP3    H239956   4.424   3.282   7.960 -0.0785 -0.9227  1.3510
 6133TIP3   OH239957   3.032   1.953   0.417  0.2672  0.1265  0.1767
 6133TIP3    H139958   3.021   1.978   0.325  0.0727 -0.8913 -0.0981
 6133TIP3    H239959   3.125   1.968   0.435  0.5289 -0.5671 -0.4953
 6134TIP3   OH239960   6.499   3.131   0.711 -0.2565  0.1412 -0.1107
 6134TIP3    H139961   6.551   3.118   0.791  0.5744  0.3270 -0.6025
 6134TIP3    H239962   6.437   3.059   0.711 -0.2132  0.0887  0.6631
 6135TIP3   OH239963   6.130   1.976   2.056 -0.1059  0.3152  0.1833
 6135TIP3    H139964   6.093   1.887   2.053 -0.9086  0.5268  2.1661
 6135TIP3    H239965   6.209   1.971   2.004 -1.0211 -1.1258 -1.1597
 6136TIP3   OH239966   5.732   4.328   0.671 -0.3163 -0.1141  0.3873
 6136TIP3    H139967   5.754   4.295   0.758 -0.0885 -1.3660 -0.1333
 6136TIP3    H239968   5.735   4.251   0.614  0.5891  0.8678 -0.9309
 6137TIP3   OH239969   0.998   5.956   1.043 -0.6444  0.3074 -0.0920
 6137TIP3    H139970   1.067   5.895   1.019 -0.7322  0.3951 -0.5767
 6137TIP3    H239971   0.949   5.911   1.112 -0.2684  0.1362  0.0643
 6138TIP3   OH239972   2.849   5.057   8.545  0.0887  0.7684 -0.6332
 6138TIP3    H139973   2.916   5.126   8.547  1.5008 -0.5619  0.3866
 6138TIP3    H239974   2.779   5.089   8.601  1.0916  1.0369  0.4947
 6139TIP3   OH239975   2.081   2.445   8.444  0.0844  0.1839 -0.5007
 6139TIP3    H139976   2.097   2.374   8.383  0.1775 -0.4735  0.2689
 6139TIP3    H239977   2.085   2.524   8.390  2.6605 -0.1681 -0.9629
 6140TIP3   OH239978   2.563   3.559   8.294  0.2108  0.0764  0.7008
 6140TIP3    H139979   2.601   3.476   8.322  1.0171 -0.0931 -0.8096
 6140TIP3    H239980   2.562   3.613   8.373  0.7017 -0.9824  1.4509
 6141TIP3   OH239981   1.989   1.751   0.125 -0.1925  0.0131 -0.2520
 6141TIP3    H139982   2.038   1.789   0.053  0.9783 -0.2379  0.3924
 6141TIP3    H239983   2.055   1.730   0.192 -1.0892 -0.8987  0.3920
 6142TIP3   OH239984   2.165   3.116   7.823  0.3437  0.9757 -0.1869
 6142TIP3    H139985   2.255   3.086   7.813  0.9992  3.0417 -1.0495
 6142TIP3    H239986   2.151   3.122   7.917 -0.0444 -2.3759  0.0965
 6143TIP3   OH239987   6.673   1.576   1.126 -0.9118 -0.3940  0.0345
 6143TIP3    H139988   6.676   1.608   1.216  2.3897  0.2510 -0.1556
 6143TIP3    H239989   6.723   1.494   1.128 -2.3007 -1.3092 -0.9414
 6144TIP3   OH239990   6.330   4.126   1.384 -0.0529 -0.1113 -0.1812
 6144TIP3    H139991   6.268   4.154   1.317 -0.7734 -1.5611 -0.1575
 6144TIP3    H239992   6.278   4.071   1.443  0.7294  0.5479  1.1759
 6145TIP3   OH239993   6.612   3.383   0.379  0.7200  0.4824 -0.0159
 6145TIP3    H139994   6.691   3.393   0.325  0.7160  0.1133 -0.0948
 6145TIP3    H239995   6.628   3.437   0.456  0.5115  1.4310 -0.6190
 6146TIP3   OH239996   0.627   3.443   0.253  0.2285  0.2944  0.5758
 6146TIP3    H139997   0.546   3.456   0.203  0.5081  0.1106  0.0682
 6146TIP3    H239998   0.618   3.502   0.328 -0.4572  0.1425  0.6254
 6147TIP3   OH239999   4.552   5.613   7.956 -1.1019  0.1253 -0.0159
 6147TIP3    H140000   4.574   5.679   8.022  2.2116 -0.1569 -0.6594
 6147TIP3    H240001   4.510   5.663   7.886 -1.4002  1.0193  0.7792
 6148TIP3   OH240002   5.999   6.692   1.871  0.3446 -0.2238  0.0048
 6148TIP3    H140003   5.949   6.649   1.941 -1.2877 -0.5986 -1.3104
 6148TIP3    H240004   6.088   6.659   1.881  0.5697  0.9743  2.8613
 6149TIP3   OH240005   2.073   3.044   1.859 -0.1374 -0.3876 -0.1864
 6149TIP3    H140006   2.083   3.137   1.838  1.3989 -0.7917 -1.4973
 6149TIP3    H240007   2.162   3.009   1.853 -0.5458 -1.7750  1.2320
 6150TIP3   OH240008   4.372   6.121   0.438 -1.0258  0.4726 -0.1309
 6150TIP3    H140009   4.466   6.106   0.453 -0.7748  2.6889  0.8316
 6150TIP3    H240010   4.329   6.048   0.483  0.2067 -0.1553  0.0718
 6151TIP3   OH240011   6.239   4.252   0.990  0.3267  0.0097 -0.2739
 6151TIP3    H140012   6.178   4.206   0.933  0.3061  1.0428 -1.1054
 6151TIP3    H240013   6.214   4.225   1.079 -0.7111 -0.3116 -0.6570
 6152TIP3   OH240014   2.993   0.316   0.531 -0.1692  0.2348  0.1272
 6152TIP3    H140015   3.067   0.299   0.589 -0.6660 -0.0210  0.7054
 6152TIP3    H240016   2.948   0.231   0.524 -1.6550  0.8304  1.5905
 6153TIP3   OH240017   6.092   3.830   1.209  0.0543  0.4391 -0.0369
 6153TIP3    H140018   6.032   3.815   1.136  0.0241  2.8894 -0.6019
 6153TIP3    H240019   6.161   3.886   1.172  1.6068 -0.6121  1.1222
 6154TIP3   OH240020   4.081   2.561   7.939 -0.3074  0.1519 -0.0596
 6154TIP3    H140021   4.072   2.656   7.939 -1.0436  0.1656  2.7863
 6154TIP3    H240022   3.992   2.528   7.944 -0.0181 -0.4906  2.7802
 6155TIP3   OH240023   5.109   3.727   7.016  0.6990  0.4284 -0.1484
 6155TIP3    H140024   5.125   3.820   7.001 -2.4318  0.9445 -0.9951
 6155TIP3    H240025   5.099   3.719   7.111 -1.2131  1.4339 -0.2272
 6156TIP3   OH240026   5.429   3.785   1.426 -0.4082  0.0723  0.0316
 6156TIP3    H140027   5.467   3.707   1.386  1.5460 -0.2924  2.4250
 6156TIP3    H240028   5.425   3.765   1.519 -1.6740  2.1398  0.4792
 6157TIP3   OH240029   1.444   6.486   7.759  0.3990  0.3826  0.0336
 6157TIP3    H140030   1.435   6.504   7.852 -0.4884 -3.2622  0.8230
 6157TIP3    H240031   1.357   6.501   7.723  0.0109 -0.7878  0.4171
 6158TIP3   OH240032   0.119   3.949   2.377 -0.0759 -0.4684 -0.5280
 6158TIP3    H140033   0.109   4.044   2.364  1.1978 -0.5959 -2.9245
 6158TIP3    H240034   0.042   3.924   2.427 -0.3639  1.8530  0.3370
 6159TIP3   OH240035   6.291   2.121   7.920  0.3818 -0.0889  0.6022
 6159TIP3    H140036   6.357   2.164   7.974  0.3739 -0.2573  0.7465
 6159TIP3    H240037   6.250   2.192   7.871  0.0482  0.1164  1.1824
 6160TIP3   OH240038   4.034   1.412   7.016 -0.4802 -0.1863  0.2974
 6160TIP3    H140039   4.096   1.462   6.963  0.2850 -1.5163 -0.1105
 6160TIP3    H240040   3.985   1.478   7.066  1.3615  0.9020  0.7383
 6161TIP3   OH240041   4.203   3.785   0.907 -0.4309  0.3543 -0.1452
 6161TIP3    H140042   4.230   3.860   0.959  1.0126  0.0672 -0.4250
 6161TIP3    H240043   4.185   3.821   0.820 -1.6975  0.6564  0.2261
 6162TIP3   OH240044   0.038   4.575   7.911 -0.1385  0.0003 -0.1131
 6162TIP3    H140045   0.037   4.480   7.901 -0.8303 -0.0951  0.7154
 6162TIP3    H240046   0.009   4.608   7.826  0.8143 -0.4925 -0.6444
 6163TIP3   OH240047   2.886   3.322   7.202  0.6533  0.0357 -0.1982
 6163TIP3    H140048   2.979   3.335   7.219  0.9582 -1.4787 -0.6274
 6163TIP3    H240049   2.871   3.229   7.214 -0.2401 -0.2365 -2.7849
 6164TIP3   OH240050   4.676   2.516   8.329 -0.3580 -0.4965  0.0187
 6164TIP3    H140051   4.673   2.612   8.330 -1.8785 -0.5100  0.0059
 6164TIP3    H240052   4.736   2.494   8.258  0.1624  0.4400  0.1536
 6165TIP3   OH240053   5.274   6.538   8.106 -0.1939 -0.3950 -0.3154
 6165TIP3    H140054   5.307   6.621   8.070 -0.3833 -0.3712 -0.4343
 6165TIP3    H240055   5.303   6.472   8.044 -0.2545 -0.3900 -0.3491
 6166TIP3   OH240056   4.729   3.071   0.649 -0.6180 -0.1458 -0.0326
 6166TIP3    H140057   4.681   3.051   0.569 -0.0036  0.9381 -0.7045
 6166TIP3    H240058   4.751   2.986   0.685  0.0348 -0.6856 -1.6007
 6167TIP3   OH240059   4.844   5.987   7.546 -0.1162 -0.7687  0.3109
 6167TIP3    H140060   4.831   5.937   7.465  0.9192 -1.3761  0.4948
 6167TIP3    H240061   4.859   5.920   7.613 -0.4033 -0.2527  0.8981
 6168TIP3   OH240062   3.808   2.383   2.654  0.1266  1.1661 -0.1649
 6168TIP3    H140063   3.793   2.477   2.654 -0.3304  1.1385 -2.0441
 6168TIP3    H240064   3.896   2.372   2.619 -0.0559  0.8903 -0.5509
 6169TIP3   OH240065   6.650   4.302   3.096  0.1057 -0.5414  0.1957
 6169TIP3    H140066   6.735   4.344   3.092 -0.0254 -0.3418 -0.7170
 6169TIP3    H240067   6.663   4.225   3.152  0.8656 -0.4946  0.0815
 6170TIP3   OH240068   1.393   2.915   1.739 -0.1795 -0.4360  0.4417
 6170TIP3    H140069   1.372   2.921   1.832 -0.8071  0.4554  0.2510
 6170TIP3    H240070   1.363   2.998   1.702 -1.0707 -1.2702 -0.7729
 6171TIP3   OH240071   4.013   5.344   8.657 -0.1932  0.0581 -0.2287
 6171TIP3    H140072   3.970   5.258   8.650 -2.3377  1.0112  0.6052
 6171TIP3    H240073   3.997   5.385   8.572 -0.1106  0.0632 -0.2419
 6172TIP3   OH240074   1.773   5.503   1.497  0.0282  0.7453  0.1444
 6172TIP3    H140075   1.863   5.535   1.498  0.1314  0.8839 -3.2098
 6172TIP3    H240076   1.734   5.541   1.418 -2.8635  0.3072  1.2192
 6173TIP3   OH240077   1.546   4.075   0.354  0.0860  0.5435 -0.2657
 6173TIP3    H140078   1.588   4.006   0.301 -0.0568  0.9065 -0.8674
 6173TIP3    H240079   1.452   4.057   0.346  0.0348  0.9581 -0.6488
 6174TIP3   OH240080   1.292   5.338   7.764  0.1483  0.5188 -0.2188
 6174TIP3    H140081   1.269   5.276   7.695 -0.3859 -0.1328  0.5424
 6174TIP3    H240082   1.387   5.329   7.773  0.2066  0.5172 -0.7704
 6175TIP3   OH240083   2.885   4.458   0.995 -0.9455 -0.1828 -0.4756
 6175TIP3    H140084   2.875   4.363   1.000 -1.7813 -0.0772 -0.0339
 6175TIP3    H240085   2.969   4.476   1.037 -1.2133 -0.6465  0.2782
 6176TIP3   OH240086   1.780   4.629   1.876  0.3135  0.2291 -0.3772
 6176TIP3    H140087   1.689   4.646   1.851  0.4323 -0.4333 -1.3454
 6176TIP3    H240088   1.797   4.541   1.841  1.5165  0.6069 -0.7702
 6177TIP3   OH240089   5.886   1.653   1.748 -0.1324  0.0540  0.0102
 6177TIP3    H140090   5.945   1.599   1.695 -1.6550 -1.7767  0.0787
 6177TIP3    H240091   5.799   1.636   1.713 -1.2463 -1.3698  3.1054
 6178TIP3   OH240092   5.487   1.846   2.765 -0.6077  0.4120 -0.0746
 6178TIP3    H140093   5.437   1.765   2.775 -0.9773  0.6376 -0.0809
 6178TIP3    H240094   5.555   1.825   2.702 -0.3714 -0.0486  0.3300
 6179TIP3   OH240095   1.740   2.862   0.429 -0.2075 -0.6639 -0.7785
 6179TIP3    H140096   1.739   2.948   0.388  2.2696 -0.3715 -0.4235
 6179TIP3    H240097   1.828   2.855   0.466 -1.1940 -2.2945  1.5026
 6180TIP3   OH240098   4.442   1.349   1.210  0.0330 -0.4608  0.6608
 6180TIP3    H140099   4.440   1.353   1.115  0.4767 -1.6590  0.5819
 6180TIP3    H240100   4.485   1.430   1.237 -2.1485  1.0350 -0.0046
 6181TIP3   OH240101   6.839   4.375   0.629 -0.1210 -0.7253  0.2494
 6181TIP3    H140102   6.773   4.434   0.665  0.3179  0.4675 -0.8129
 6181TIP3    H240103   6.895   4.352   0.704 -0.1530  0.4250  0.6409
 6182TIP3   OH240104   1.683   3.096   7.596  0.4748  0.3205  0.1867
 6182TIP3    H140105   1.761   3.149   7.612 -0.2885  2.2277 -1.7754
 6182TIP3    H240106   1.705   3.042   7.521 -0.2907  1.5121 -0.9508
 6183TIP3   OH240107   4.154   4.906   6.802 -0.5579  0.7681 -0.2411
 6183TIP3    H140108   4.229   4.852   6.774 -0.9536 -0.5172  1.0706
 6183TIP3    H240109   4.131   4.956   6.723 -1.0213 -1.9782 -2.0116
 6184TIP3   OH240110   6.591   0.505   1.977  0.2673 -0.4397 -0.2298
 6184TIP3    H140111   6.603   0.510   1.882 -2.6097  0.7704 -0.6364
 6184TIP3    H240112   6.575   0.596   2.003 -1.7875 -1.0692  0.9146
 6185TIP3   OH240113   1.758   2.110   0.455  0.0330 -0.4521 -0.1770
 6185TIP3    H140114   1.745   2.046   0.526 -0.1923  0.9089  1.0446
 6185TIP3    H240115   1.764   2.056   0.376 -1.1705 -1.9274  0.6800
 6186TIP3   OH240116   3.826   2.404   8.325  0.5247  0.2538  0.1193
 6186TIP3    H140117   3.852   2.437   8.412  2.0972 -1.2815  0.2817
 6186TIP3    H240118   3.776   2.325   8.344  0.3468  0.2451 -0.3778
 6187TIP3   OH240119   6.804   4.909   1.891  0.4334  0.2828 -0.1974
 6187TIP3    H140120   6.750   4.986   1.903  2.1357  1.3476  1.1913
 6187TIP3    H240121   6.798   4.862   1.974  0.8026 -0.1380 -0.3997
 6188TIP3   OH240122   2.805   1.487   7.454 -0.3767  0.0386  0.2396
 6188TIP3    H140123   2.782   1.543   7.379 -0.1050  0.8399  0.7409
 6188TIP3    H240124   2.721   1.461   7.491 -0.5095 -0.0237 -0.1031
 6189TIP3   OH240125   3.306   3.150   1.584 -0.5286  0.2010 -0.5066
 6189TIP3    H140126   3.279   3.232   1.625  0.1366 -0.5634  1.5733
 6189TIP3    H240127   3.227   3.096   1.583 -0.4545  0.0686  0.2126
 6190TIP3   OH240128   1.637   0.078   1.468 -0.7705  0.2942 -0.1993
 6190TIP3    H140129   1.664   0.113   1.553 -0.0386  3.5592 -1.6257
 6190TIP3    H240130   1.711   0.024   1.439 -0.9745 -0.7348  1.1288
 6191TIP3   OH240131   6.069   2.822   0.867 -0.1003  0.2162  0.4275
 6191TIP3    H140132   6.026   2.765   0.803  1.0813  0.6157 -0.7905
 6191TIP3    H240133   6.009   2.827   0.940 -0.9629 -1.2607 -0.1462
 6192TIP3   OH240134   0.003   3.123   8.656 -0.7068  0.5509  0.6833
 6192TIP3    H140135  -0.027   3.058   8.719  1.8291 -0.6219  0.8105
 6192TIP3    H240136   0.062   3.074   8.598  1.2649  2.6912  0.7529
 6193TIP3   OH240137   5.387   5.954   0.264  0.1119 -0.1625 -0.3683
 6193TIP3    H140138   5.442   5.994   0.196 -1.2472  0.6467 -1.0407
 6193TIP3    H240139   5.320   5.906   0.215 -0.1514 -0.6117  0.4224
 6194TIP3   OH240140   6.496   3.947   7.526 -0.2480 -0.5589  0.4724
 6194TIP3    H140141   6.471   4.013   7.591 -0.5737 -1.5882  1.4293
 6194TIP3    H240142   6.413   3.914   7.493 -0.0843 -0.5446  0.0373
 6195TIP3   OH240143   3.628   0.857   8.513 -0.5913 -0.1754 -0.5567
 6195TIP3    H140144   3.683   0.822   8.443  0.5474  1.1035 -0.3283
 6195TIP3    H240145   3.564   0.912   8.467 -0.6043 -0.2946 -0.6835
 6196TIP3   OH240146   1.926   5.927   1.893 -0.0432 -0.2416  0.0100
 6196TIP3    H140147   1.861   5.958   1.957 -0.6114  1.4448 -1.3001
 6196TIP3    H240148   1.876   5.868   1.836 -0.2982  0.5602 -0.6162
 6197TIP3   OH240149   5.882   4.986   0.925 -0.3996  0.0633  0.0029
 6197TIP3    H140150   5.917   5.072   0.900  1.0125 -0.7001 -0.8074
 6197TIP3    H240151   5.846   4.950   0.843  0.2019 -0.6306  0.0299
 6198TIP3   OH240152   6.590   2.941   2.364 -0.4885  0.4369  0.1601
 6198TIP3    H140153   6.606   2.991   2.284 -3.8952  1.9449  0.2175
 6198TIP3    H240154   6.541   2.864   2.334 -1.6420  0.9310  0.6793
 6199TIP3   OH240155   6.114   2.843   6.793  0.3444 -0.6831  0.1710
 6199TIP3    H140156   6.123   2.922   6.740 -0.8562  0.3735  1.4494
 6199TIP3    H240157   6.168   2.860   6.870 -0.6230 -0.6917  0.8724
 6200TIP3   OH240158   0.170   3.782   1.308  0.0661  0.0925 -0.2876
 6200TIP3    H140159   0.240   3.835   1.348  0.1344 -0.6252  0.5827
 6200TIP3    H240160   0.104   3.846   1.283 -0.4348  0.5528  1.9221
 6201TIP3   OH240161   3.770   1.681   8.622  0.2387 -0.4045 -0.0929
 6201TIP3    H140162   3.761   1.590   8.652  0.8603 -0.4598 -0.0583
 6201TIP3    H240163   3.737   1.680   8.532 -0.5705 -0.4752  0.1940
 6202TIP3   OH240164   0.311   6.625   0.106  0.4091  0.3017  0.6210
 6202TIP3    H140165   0.248   6.670   0.050  0.2815  0.5453  0.9591
 6202TIP3    H240166   0.267   6.544   0.132  0.9889 -0.4798 -0.7406
 6203TIP3   OH240167   1.492   4.255   8.079 -0.1311  0.0891  0.6243
 6203TIP3    H140168   1.450   4.168   8.074  0.7882 -0.3314  0.0959
 6203TIP3    H240169   1.418   4.316   8.084 -0.9946 -0.4109 -3.0982
 6204TIP3   OH240170   5.314   4.166   6.736 -0.0719 -0.1817  0.3797
 6204TIP3    H140171   5.333   4.080   6.772  1.7235 -0.2558 -0.6200
 6204TIP3    H240172   5.314   4.153   6.641  0.9050  0.9954  0.1839
 6205TIP3   OH240173   2.423   6.700   0.968 -0.1007 -0.0091  0.1266
 6205TIP3    H140174   2.420   6.757   1.046  0.8813  0.8791 -0.4615
 6205TIP3    H240175   2.504   6.725   0.924 -0.6829 -0.4580 -1.2231
 6206TIP3   OH240176   1.076   0.590   0.309  0.5406  0.0223  0.2571
 6206TIP3    H140177   1.000   0.553   0.355 -0.0359 -0.5663 -1.1111
 6206TIP3    H240178   1.054   0.682   0.297 -0.7939 -0.4670 -1.6111
 6207TIP3   OH240179   1.151   5.758   0.923  0.3104 -0.0792 -0.1339
 6207TIP3    H140180   1.092   5.756   0.848 -0.9826 -1.0794  0.8774
 6207TIP3    H240181   1.232   5.718   0.891  0.8140  2.0769 -1.7865
 6208TIP3   OH240182   5.446   2.434   1.671 -0.4972  0.3024  0.1074
 6208TIP3    H140183   5.499   2.356   1.660 -1.9232 -0.5730 -0.9743
 6208TIP3    H240184   5.369   2.418   1.616 -3.0198  0.4719  3.3187
 6209TIP3   OH240185   0.706   2.738   8.077  0.0616  0.2900  0.0158
 6209TIP3    H140186   0.800   2.725   8.078  0.0769 -0.0330  2.7546
 6209TIP3    H240187   0.669   2.652   8.094 -0.7822  0.3205 -1.4975
 6210TIP3   OH240188   6.173   4.945   8.456  1.1736 -0.2724  0.2071
 6210TIP3    H140189   6.141   4.890   8.527  0.0574  0.6175  0.4277
 6210TIP3    H240190   6.195   4.883   8.386  1.3575 -1.0870  0.9716
 6211TIP3   OH240191   1.448   3.838   0.023 -0.6190  0.0525 -0.1842
 6211TIP3    H140192   1.409   3.924   0.006  0.0430  0.6184  1.0072
 6211TIP3    H240193   1.384   3.776  -0.011 -0.8682  1.0207 -1.5457
 6212TIP3   OH240194   3.719   4.511   1.026  0.1248 -0.6565 -0.1074
 6212TIP3    H140195   3.648   4.559   1.069 -0.4472 -0.7121 -0.9572
 6212TIP3    H240196   3.708   4.530   0.933  2.6641  1.2545 -0.1216
 6213TIP3   OH240197   3.278   6.353   0.386  0.3501 -0.4052 -0.0159
 6213TIP3    H140198   3.229   6.433   0.408  2.2125  0.2832  2.0208
 6213TIP3    H240199   3.219   6.282   0.407 -0.7445  0.4128 -0.2329
 6214TIP3   OH240200   1.162   4.690   0.845  0.8706  0.0401 -0.0059
 6214TIP3    H140201   1.178   4.784   0.856 -0.0496 -0.0507  3.6090
 6214TIP3    H240202   1.073   4.684   0.813  0.7548  0.4393  0.2266
 6215TIP3   OH240203   4.054   2.606   2.522 -0.0612 -0.5519 -0.0436
 6215TIP3    H140204   4.056   2.531   2.463  1.2088  1.0018 -2.1255
 6215TIP3    H240205   4.085   2.572   2.606 -2.0356 -2.8681 -0.1628
 6216TIP3   OH240206   4.021   4.328   1.270 -0.2224 -0.0125 -0.3487
 6216TIP3    H140207   3.952   4.291   1.215 -0.9076  1.1014 -0.2548
 6216TIP3    H240208   4.077   4.376   1.210 -0.3479  0.2868 -0.2275
 6217TIP3   OH240209   1.558   2.195   0.200  0.1963 -0.1960 -0.1181
 6217TIP3    H140210   1.491   2.251   0.239 -0.1630 -0.3640 -0.4895
 6217TIP3    H240211   1.531   2.106   0.221  0.0586 -0.2838 -0.6398
 6218TIP3   OH240212   0.427   0.616   7.579 -0.0185  0.2762 -0.0971
 6218TIP3    H140213   0.523   0.617   7.583  0.0231 -0.1181 -0.8429
 6218TIP3    H240214   0.407   0.593   7.489 -0.8230  0.6865 -0.0320
 6219TIP3   OH240215   6.014   3.851   8.160 -0.0142  0.8926  0.2784
 6219TIP3    H140216   6.040   3.895   8.079  2.4695  0.3504  0.7128
 6219TIP3    H240217   6.096   3.821   8.199 -1.3855 -2.0653  1.1903
 6220TIP3   OH240218   3.414   3.234   8.500 -0.6355  0.1055 -0.0513
 6220TIP3    H140219   3.370   3.154   8.471  1.5802 -1.7701  1.3799
 6220TIP3    H240220   3.403   3.234   8.595 -1.1753  1.9428 -0.0735
 6221TIP3   OH240221   2.590   1.436   8.517 -0.4198  0.0378 -0.0831
 6221TIP3    H140222   2.663   1.494   8.541 -1.2320  1.0678 -0.0129
 6221TIP3    H240223   2.512   1.488   8.536 -1.1588 -0.4486 -1.6245
 6222TIP3   OH240224   3.803   0.137   7.562  0.0456 -0.0681 -0.3210
 6222TIP3    H140225   3.746   0.195   7.512  0.9602  0.5644 -0.6538
 6222TIP3    H240226   3.890   0.150   7.524  0.2881 -1.6222 -0.3896
 6223TIP3   OH240227   2.500   5.883   2.403  0.3170  0.1423  0.3121
 6223TIP3    H140228   2.540   5.796   2.406  1.0757  0.5131  1.9148
 6223TIP3    H240229   2.574   5.944   2.404 -0.2216  0.8096  0.1967
 6224TIP3   OH240230   0.739   3.998   0.905 -0.0610 -0.6359 -0.1364
 6224TIP3    H140231   0.797   3.958   0.970  1.0491 -0.8833 -1.2290
 6224TIP3    H240232   0.728   4.088   0.936  0.1386 -0.8526  0.5936
 6225TIP3   OH240233   2.382   0.280   7.967 -0.3079  0.0097 -0.4470
 6225TIP3    H140234   2.322   0.352   7.986  0.8615  1.0406 -0.5193
 6225TIP3    H240235   2.433   0.310   7.892  0.1341 -0.9412 -0.5474
 6226TIP3   OH240236   1.262   1.627   1.835  0.5423 -0.7165 -0.3154
 6226TIP3    H140237   1.251   1.567   1.761 -0.7932 -1.2851  0.2956
 6226TIP3    H240238   1.236   1.575   1.911 -2.1934  1.0046  0.0797
 6227TIP3   OH240239   1.970   2.768   0.579  0.0111 -0.3137 -0.2970
 6227TIP3    H140240   2.050   2.815   0.598 -0.4622  0.6019 -0.5352
 6227TIP3    H240241   1.963   2.703   0.649  0.3701  0.3441  0.3550
 6228TIP3   OH240242   4.160   0.557   7.131 -0.2529 -0.8073  0.1263
 6228TIP3    H140243   4.087   0.523   7.184 -1.3971 -0.7387 -1.3391
 6228TIP3    H240244   4.147   0.518   7.044  1.3072 -0.5551 -0.2544
 6229TIP3   OH240245   6.355   4.996   7.551 -0.0824  0.6070  0.7327
 6229TIP3    H140246   6.290   4.926   7.547 -0.1545  0.7195 -0.2215
 6229TIP3    H240247   6.345   5.043   7.469  1.3506  0.4801  0.4584
 6230TIP3   OH240248   6.313   1.585   7.256 -0.1411  0.2180  0.0269
 6230TIP3    H140249   6.263   1.634   7.320 -1.0862 -2.1666  1.2206
 6230TIP3    H240250   6.275   1.609   7.171  0.6360  2.8394  0.3529
 6231TIP3   OH240251   2.822   1.065   0.299  0.0510 -0.0772 -0.0044
 6231TIP3    H140252   2.890   1.131   0.286  0.7176 -1.1574 -2.7283
 6231TIP3    H240253   2.845   1.024   0.382  1.2531  1.2521  0.3741
 6232TIP3   OH240254   4.323   4.575   1.834 -0.5148  0.0870 -0.1469
 6232TIP3    H140255   4.391   4.604   1.894 -0.1144  0.6349 -0.8506
 6232TIP3    H240256   4.242   4.580   1.885 -0.0754 -0.2698  0.5959
 6233TIP3   OH240257   6.842   6.823   1.068 -0.4166  0.3279 -0.2144
 6233TIP3    H140258   6.758   6.789   1.099 -0.7449  1.5089  0.2455
 6233TIP3    H240259   6.872   6.758   1.004 -0.9180 -0.9049  0.7530
 6234TIP3   OH240260   0.478   0.645   1.144 -0.3893 -0.0055 -0.0699
 6234TIP3    H140261   0.408   0.616   1.085  0.5392  0.6575 -1.5476
 6234TIP3    H240262   0.556   0.598   1.115  1.0508  3.3130 -2.2175
 6235TIP3   OH240263   4.443   0.596   2.001  0.3687  0.5502 -0.0917
 6235TIP3    H140264   4.468   0.673   1.949 -1.4911  1.7431  0.6423
 6235TIP3    H240265   4.523   0.570   2.047  1.2592  1.4700 -1.0706
 6236TIP3   OH240266   6.765   3.825   2.487 -0.1248 -0.1991 -0.3482
 6236TIP3    H140267   6.741   3.737   2.516  1.1262 -0.8351 -1.1457
 6236TIP3    H240268   6.703   3.883   2.531 -0.7797 -1.4529  0.4272
 6237TIP3   OH240269   5.694   6.071   1.935  0.1975 -0.0744  0.4814
 6237TIP3    H140270   5.719   5.983   1.963 -0.6499  0.2678  2.4648
 6237TIP3    H240271   5.645   6.058   1.854  0.0037 -1.4341  0.7958
 6238TIP3   OH240272   1.705   6.552   6.973 -0.0391 -0.1288  0.2472
 6238TIP3    H140273   1.790   6.543   6.930  0.2578 -1.4264  1.0568
 6238TIP3    H240274   1.650   6.486   6.931 -0.3741  0.0940  0.3391
 6239TIP3   OH240275   5.379   5.487   7.906  0.1548  0.4235 -0.4476
 6239TIP3    H140276   5.472   5.486   7.930  0.6912  0.0859 -2.3407
 6239TIP3    H240277   5.346   5.402   7.936 -0.8575  2.2187  4.4751
 6240TIP3   OH240278   0.026   3.384   1.940 -0.0861 -0.0005  0.1360
 6240TIP3    H140279  -0.002   3.393   1.849  0.9040 -1.3714 -0.3405
 6240TIP3    H240280   0.086   3.458   1.954 -0.2768  0.2420 -0.3036
 6241TIP3   OH240281   5.467   6.271   7.767  0.0116  0.1573 -0.0957
 6241TIP3    H140282   5.455   6.221   7.685 -0.4715  0.0304  0.0516
 6241TIP3    H240283   5.404   6.232   7.828  1.1582 -0.5237  0.7004
 6242TIP3   OH240284   3.077   1.809   8.172 -0.3884  0.8229  0.3841
 6242TIP3    H140285   3.126   1.794   8.253  0.2419  1.0088  0.0453
 6242TIP3    H240286   3.046   1.722   8.146 -0.6871  0.7768  0.8755
 6243TIP3   OH240287   1.547   6.480   0.601 -0.0080 -0.1806 -0.1953
 6243TIP3    H140288   1.527   6.386   0.603 -0.3041 -0.1286 -0.5849
 6243TIP3    H240289   1.477   6.520   0.652 -0.0347 -0.1457 -0.2595
 6244TIP3   OH240290   1.244   4.256   1.897  0.0252  0.0590 -0.0864
 6244TIP3    H140291   1.206   4.171   1.920 -0.5656  0.1599 -0.6611
 6244TIP3    H240292   1.171   4.318   1.905  0.2608  0.3863 -0.4497
 6245TIP3   OH240293   3.501   0.114   8.169  0.0474  0.6322  0.3832
 6245TIP3    H140294   3.556   0.050   8.213  1.0605  1.0096 -0.2882
 6245TIP3    H240295   3.413   0.098   8.202  0.3914 -0.6818  0.6969
 6246TIP3   OH240296   1.646   6.020   6.986  0.0271 -0.1002 -0.1473
 6246TIP3    H140297   1.558   6.010   6.948  0.5783 -1.5932 -1.1430
 6246TIP3    H240298   1.695   5.947   6.949  1.2794 -0.1861  1.6176
 6247TIP3   OH240299   3.674   3.785   8.562  0.0329 -0.7176  0.0272
 6247TIP3    H140300   3.651   3.704   8.516 -0.7114  0.3696 -1.6085
 6247TIP3    H240301   3.612   3.791   8.634 -0.1504 -1.3998 -0.0666
 6248TIP3   OH240302   5.532   6.018   1.116  0.6003 -0.2950  0.8001
 6248TIP3    H140303   5.515   6.042   1.025 -1.2103 -2.0775  0.6020
 6248TIP3    H240304   5.523   5.922   1.118 -0.3169 -0.2257  2.9954
 6249TIP3   OH240305   2.566   0.507   8.108 -0.1545  0.4120 -0.0864
 6249TIP3    H140306   2.620   0.508   8.029 -1.2623 -1.4827 -0.9344
 6249TIP3    H240307   2.503   0.578   8.094  0.8228  1.3128 -0.0143
 6250TIP3   OH240308   5.960   3.719   2.543  0.3027  0.6762  0.3514
 6250TIP3    H140309   5.875   3.701   2.582 -0.5165  1.2118 -1.0747
 6250TIP3    H240310   5.950   3.806   2.503  1.6099  0.8743  0.3955
 6251TIP3   OH240311   4.801   5.990   2.022 -0.5685 -0.6658 -0.4451
 6251TIP3    H140312   4.706   5.997   2.013 -0.5746  0.5628  0.3389
 6251TIP3    H240313   4.831   6.080   2.035  0.5955 -1.1282  0.2788
 6252TIP3   OH240314   1.284   3.322   2.182  0.5860 -0.1079 -0.4063
 6252TIP3    H140315   1.214   3.350   2.123  0.9092  1.5927 -0.0290
 6252TIP3    H240316   1.359   3.308   2.125  0.2760 -0.7727 -0.6642
 6253TIP3   OH240317   6.826   1.713   7.503  0.0425  0.1572  0.1654
 6253TIP3    H140318   6.906   1.707   7.450 -0.2463  2.1683 -0.6153
 6253TIP3    H240319   6.858   1.731   7.592  0.4705 -0.0878  0.0646
 6254TIP3   OH240320   0.036   3.922   0.139  0.1739  0.0981 -0.1018
 6254TIP3    H140321   0.008   4.013   0.123 -0.5410 -0.1119 -0.0757
 6254TIP3    H240322   0.005   3.903   0.227 -0.6542 -0.5319 -0.5178
 6255TIP3   OH240323   0.500   1.159   7.005 -0.1432 -0.1141  0.0136
 6255TIP3    H140324   0.541   1.074   6.987 -0.0558  0.0959 -0.8205
 6255TIP3    H240325   0.572   1.214   7.037 -0.0564 -0.1649 -0.0922
 6256TIP3   OH240326   5.311   0.579   1.662 -0.5797 -0.0763  0.3441
 6256TIP3    H140327   5.337   0.670   1.674 -0.0504 -0.2316  0.3833
 6256TIP3    H240328   5.224   0.573   1.703  0.0712  0.0199  1.7860
 6257TIP3   OH240329   1.370   3.521   0.939 -0.8478 -0.0300 -0.3652
 6257TIP3    H140330   1.315   3.566   1.003  0.3042  0.3932  0.3596
 6257TIP3    H240331   1.452   3.571   0.938  0.0511 -1.4386 -0.3856
 6258TIP3   OH240332   6.505   2.398   1.097  0.4371 -0.6637  1.0003
 6258TIP3    H140333   6.508   2.487   1.063 -2.4661 -0.8290 -0.0056
 6258TIP3    H240334   6.594   2.379   1.124  1.4422  2.0036 -0.1290
 6259TIP3   OH240335   0.977   0.419   1.349 -0.1814 -0.2267  0.2772
 6259TIP3    H140336   0.980   0.366   1.269 -0.7903 -0.6894  0.5513
 6259TIP3    H240337   0.985   0.509   1.318 -0.1204 -0.4212 -0.2828
 6260TIP3   OH240338   1.267   0.815   1.761 -0.6590 -0.2460 -0.0121
 6260TIP3    H140339   1.333   0.786   1.699  0.1185 -0.2809  0.8137
 6260TIP3    H240340   1.184   0.783   1.725 -0.0238 -1.9719 -0.0167
 6261TIP3   OH240341   1.951   4.197   7.588  0.3498 -0.2119  0.0656
 6261TIP3    H140342   1.975   4.105   7.594 -0.6973 -0.4351  1.6207
 6261TIP3    H240343   1.867   4.203   7.633  0.3652  1.4947 -0.0398
 6262TIP3   OH240344   5.489   3.429   6.383 -0.3286 -0.0841 -0.4113
 6262TIP3    H140345   5.565   3.434   6.441 -0.8838  2.0056  0.2188
 6262TIP3    H240346   5.454   3.341   6.397  0.1765 -0.0080  1.6119
 6263TIP3   OH240347   2.892   2.906   3.126 -0.3301 -0.0175  0.1053
 6263TIP3    H140348   2.863   2.980   3.180  0.3820  1.7519 -1.7990
 6263TIP3    H240349   2.911   2.945   3.040  2.4910 -1.9744 -0.2914
 6264TIP3   OH240350   1.577   4.881   0.460  0.4233 -0.3274  0.1970
 6264TIP3    H140351   1.551   4.880   0.552  1.1263 -1.1317  0.3990
 6264TIP3    H240352   1.672   4.874   0.461  0.3742 -1.4192 -0.6061
 6265TIP3   OH240353   0.900   4.379   0.706  0.2142  0.2465  0.2210
 6265TIP3    H140354   0.814   4.397   0.668  0.0904 -0.2255  0.2738
 6265TIP3    H240355   0.955   4.356   0.632 -0.1703 -1.2334  0.3624
 6266TIP3   OH240356   2.795   5.570   1.669 -0.8097 -0.4761 -0.3082
 6266TIP3    H140357   2.716   5.549   1.719 -1.6993 -2.1456 -2.2465
 6266TIP3    H240358   2.780   5.659   1.636  0.3119  1.1542  3.1400
 6267TIP3   OH240359   1.399   4.741   1.075  0.8596 -0.0332  0.6714
 6267TIP3    H140360   1.476   4.728   1.130  1.0165  0.9962  0.7169
 6267TIP3    H240361   1.398   4.835   1.057 -0.0372 -0.1295  0.1529
 6268TIP3   OH240362   5.253   0.487   6.964  0.1793 -0.3372  0.6554
 6268TIP3    H140363   5.330   0.539   6.941  0.0467  0.0869  1.1427
 6268TIP3    H240364   5.183   0.551   6.975 -0.0918 -0.6585  0.8423
 6269TIP3   OH240365   1.345   2.482   1.578 -0.5512  0.1719  0.6716
 6269TIP3    H140366   1.282   2.549   1.605 -0.7279  0.3919 -0.2787
 6269TIP3    H240367   1.316   2.454   1.492 -0.7546 -1.4775  1.2303
 6270TIP3   OH240368   0.367   3.518   7.841  0.2360 -0.3793  0.5076
 6270TIP3    H140369   0.344   3.433   7.805  1.6228  0.1558 -1.9268
 6270TIP3    H240370   0.462   3.514   7.853  0.5017  1.0917 -0.6758
 6271TIP3   OH240371   5.190   6.419   1.536  0.4886  0.4347  0.2015
 6271TIP3    H140372   5.138   6.483   1.584 -1.6592 -0.7579 -0.4010
 6271TIP3    H240373   5.211   6.352   1.600 -2.3267 -1.1262 -0.3510
 6272TIP3   OH240374   1.675   6.625   7.662  0.1426 -0.2176  0.0362
 6272TIP3    H140375   1.671   6.701   7.604  0.2113  1.0450  1.5987
 6272TIP3    H240376   1.584   6.610   7.688  0.0572 -1.0518 -0.7081
 6273TIP3   OH240377   2.064   5.473   8.014 -0.2870  0.1785  0.1682
 6273TIP3    H140378   2.098   5.544   7.958  1.2491 -0.6182  0.0351
 6273TIP3    H240379   2.121   5.398   7.995 -1.9911 -1.1884  0.1440
 6274TIP3   OH240380   3.999   2.183   1.749  0.2016 -0.0184 -0.5139
 6274TIP3    H140381   4.054   2.247   1.706 -1.0523  2.1061  0.8605
 6274TIP3    H240382   3.974   2.121   1.679  1.9761  0.5781 -1.7279
 6275TIP3   OH240383   1.321   5.958   8.656 -0.0552 -0.0730 -0.8619
 6275TIP3    H140384   1.260   5.896   8.695  1.7876 -0.9821  0.7739
 6275TIP3    H240385   1.350   5.917   8.575 -0.7696 -0.1527 -1.0769
 6276TIP3   OH240386   4.806   3.457   2.349 -0.0143  1.3652  0.0341
 6276TIP3    H140387   4.733   3.457   2.411 -1.0134 -4.2584 -0.5906
 6276TIP3    H240388   4.884   3.457   2.404 -0.6675  1.7129  1.0006
 6277TIP3   OH240389   5.000   6.140   7.304  0.3577 -0.1129  0.0330
 6277TIP3    H140390   4.999   6.207   7.372  1.1055 -0.2285  0.1668
 6277TIP3    H240391   4.939   6.172   7.238  2.1042  1.6530 -0.8061
 6278TIP3   OH240392   2.450   1.978   2.748 -0.1457 -0.9303 -0.1305
 6278TIP3    H140393   2.503   1.899   2.757  1.5074  0.1197 -0.3271
 6278TIP3    H240394   2.480   2.035   2.818 -0.7918 -0.1717 -0.4571
 6279TIP3   OH240395   2.623   2.184   1.228 -0.5479  0.3218  0.0552
 6279TIP3    H140396   2.570   2.120   1.180 -0.3341  0.0017  0.2441
 6279TIP3    H240397   2.702   2.136   1.252 -0.6031  0.5143  0.6208
 6280TIP3   OH240398   0.040   2.445   1.918  0.0157 -0.1171 -0.3698
 6280TIP3    H140399   0.070   2.407   1.835  3.0318 -0.1412  0.6035
 6280TIP3    H240400   0.007   2.531   1.894  2.3655  0.5735 -1.5251
 6281TIP3   OH240401   2.559   3.280   1.554 -0.5071  0.3407 -0.2848
 6281TIP3    H140402   2.573   3.332   1.475  1.5711  0.9757  0.4278
 6281TIP3    H240403   2.523   3.342   1.618 -3.5580 -0.4837 -1.0503
 6282TIP3   OH240404   4.813   4.223   0.384  0.7617 -0.4416 -0.2179
 6282TIP3    H140405   4.846   4.198   0.470 -2.4227 -1.6779  0.7942
 6282TIP3    H240406   4.771   4.307   0.398  3.6814  1.4275 -1.6216
 6283TIP3   OH240407   2.708   3.403   0.046 -0.1620 -0.2925 -0.2189
 6283TIP3    H140408   2.673   3.440   0.127  0.0364 -2.1026  0.7552
 6283TIP3    H240409   2.631   3.378  -0.005 -0.3878 -2.3124  0.9893
 6284TIP3   OH240410   3.085   3.504   1.145  0.4677  0.4009  0.2035
 6284TIP3    H140411   3.173   3.541   1.134  0.5462  0.3818  0.7538
 6284TIP3    H240412   3.046   3.555   1.216  0.7710 -0.8839  1.3379
 6285TIP3   OH240413   0.768   5.199   7.084 -0.3555 -0.7525  0.0804
 6285TIP3    H140414   0.681   5.230   7.057  0.1684  0.1693 -0.6051
 6285TIP3    H240415   0.815   5.185   7.002  0.2311 -0.9949  0.4509
 6286TIP3   OH240416   1.756   5.028   0.685  0.3004  0.6302 -0.5533
 6286TIP3    H140417   1.777   5.100   0.745  0.5904 -0.5073  0.7511
 6286TIP3    H240418   1.780   4.949   0.733 -0.9903 -0.4085 -1.5454
 6287TIP3   OH240419   5.139   6.116   6.820  0.3280  0.7316  0.3049
 6287TIP3    H140420   5.060   6.093   6.772  0.6043 -0.6464  0.4570
 6287TIP3    H240421   5.124   6.205   6.850 -1.0500  0.5920  0.0913
 6288TIP3   OH240422   1.734   4.625   0.586  0.3800  0.0243  0.4334
 6288TIP3    H140423   1.816   4.674   0.583  0.8068 -0.6781  0.4109
 6288TIP3    H240424   1.728   4.584   0.500  0.0333  0.0307  0.4554
 6289TIP3   OH240425   4.471   6.001   2.040  0.1135 -0.5708  0.5499
 6289TIP3    H140426   4.444   5.921   1.994 -0.0239 -1.1962  1.6727
 6289TIP3    H240427   4.475   5.975   2.132 -1.2817  1.0681  1.1236
 6290TIP3   OH240428   5.226   6.295   0.845 -0.8795 -0.2379  0.2870
 6290TIP3    H140429   5.268   6.225   0.795  0.3436 -0.6260  1.7772
 6290TIP3    H240430   5.238   6.270   0.936 -2.7620  0.6036  0.8302
 6291TIP3   OH240431   5.461   4.865   7.242 -0.1931  0.1981 -0.0488
 6291TIP3    H140432   5.393   4.829   7.299 -1.2386  0.4927 -1.0646
 6291TIP3    H240433   5.462   4.959   7.261 -0.1300  0.2081 -0.0992
 6292TIP3   OH240434   4.734   5.856   0.672 -0.0102  0.1256 -0.5481
 6292TIP3    H140435   4.711   5.944   0.702 -0.3669  0.0121 -0.4796
 6292TIP3    H240436   4.661   5.802   0.700  0.4224 -0.2762 -0.1926
 6293TIP3   OH240437   1.275   6.577   0.691 -0.0174 -0.1853  0.3876
 6293TIP3    H140438   1.206   6.629   0.650 -1.0801 -0.2756  2.0019
 6293TIP3    H240439   1.230   6.524   0.756  1.2687 -1.9865 -0.1158
 6294TIP3   OH240440   1.544   2.390   1.924  0.2017  0.0802 -0.0662
 6294TIP3    H140441   1.452   2.399   1.950 -0.7508 -0.2134 -2.9444
 6294TIP3    H240442   1.547   2.305   1.878  1.1940  1.3187 -2.4720
 6295TIP3   OH240443   3.985   6.406   0.521 -0.3095  0.1489 -0.4004
 6295TIP3    H140444   4.055   6.354   0.561 -1.2332 -0.4805  0.4550
 6295TIP3    H240445   3.965   6.361   0.439  0.7883  0.7658 -1.0264
 6296TIP3   OH240446   3.530   6.330   7.508 -0.1312  0.5619 -0.6234
 6296TIP3    H140447   3.556   6.247   7.468 -0.1808  0.9511 -1.4840
 6296TIP3    H240448   3.607   6.385   7.501 -0.1764  0.6671 -0.2802
 6297TIP3   OH240449   1.404   6.687   2.028 -0.4241  0.1777  0.1673
 6297TIP3    H140450   1.443   6.604   2.001  0.0907  0.7944 -1.0642
 6297TIP3    H240451   1.412   6.687   2.123  1.1657 -0.4176  0.0703
 6298TIP3   OH240452   0.038   6.106   7.499 -0.1116 -0.2195 -0.3805
 6298TIP3    H140453   0.115   6.149   7.459 -0.5703  1.0267  0.0163
 6298TIP3    H240454   0.073   6.027   7.539  0.9222  0.1644 -0.4862
 6299TIP3   OH240455   0.478   5.384   8.547  0.7198  0.0336 -0.3401
 6299TIP3    H140456   0.486   5.293   8.519  0.3758 -0.5012  1.1918
 6299TIP3    H240457   0.384   5.403   8.537  0.6738 -0.0142 -0.0139
 6300TIP3   OH240458   0.142   1.064   8.025  0.5337  0.4333 -0.5808
 6300TIP3    H140459   0.146   1.075   8.120 -0.4945  1.4870 -0.6362
 6300TIP3    H240460   0.078   1.129   7.996  0.5459 -0.1343 -1.9581
 6301TIP3   OH240461   0.828   6.175   7.948  0.3092  0.2527  0.2313
 6301TIP3    H140462   0.824   6.261   7.906  1.2775  0.0948 -0.2200
 6301TIP3    H240463   0.746   6.167   7.996 -0.7997  0.5219 -1.5179
 6302TIP3   OH240464   3.248   6.704   1.377 -0.1458  0.4443 -0.4937
 6302TIP3    H140465   3.163   6.691   1.420 -0.2975 -0.5786 -1.0666
 6302TIP3    H240466   3.247   6.795   1.348 -1.1950  0.3514 -0.7890
 6303TIP3   OH240467   5.883   0.823   1.655 -0.4925  0.1689 -1.1888
 6303TIP3    H140468   5.903   0.916   1.663  0.2687 -0.1179  1.1155
 6303TIP3    H240469   5.802   0.811   1.706  0.8609 -0.7929  0.8791
 6304TIP3   OH240470   6.411   5.110   7.825 -0.7856  0.2375 -0.2270
 6304TIP3    H140471   6.374   5.090   7.739  1.0539 -0.1874 -0.9496
 6304TIP3    H240472   6.484   5.169   7.807 -1.4219  1.5267  1.2177
 6305TIP3   OH240473   0.181   1.791   0.128 -0.1742 -0.2126  0.2015
 6305TIP3    H140474   0.269   1.812   0.159 -1.2003  4.8691  0.5623
 6305TIP3    H240475   0.188   1.792   0.032  0.2887 -0.9723  0.2174
 6306TIP3   OH240476   5.770   0.980   1.218 -1.0882  0.0437 -0.4234
 6306TIP3    H140477   5.802   0.899   1.255 -2.1855  0.0197  0.5233
 6306TIP3    H240478   5.761   0.962   1.124 -0.3860 -0.5951 -0.3739
 6307TIP3   OH240479   3.978   6.835   8.359  0.0446 -0.1478 -0.9015
 6307TIP3    H140480   3.959   6.745   8.335  1.3086 -0.6424 -0.1529
 6307TIP3    H240481   3.983   6.834   8.454  1.2542  0.4498 -0.9460
 6308TIP3   OH240482   3.187   2.663   2.276 -0.0928 -0.6019 -0.1255
 6308TIP3    H140483   3.252   2.648   2.345  0.9329 -0.3564 -1.0179
 6308TIP3    H240484   3.221   2.738   2.227 -0.7124 -0.8803 -1.0081
 6309TIP3   OH240485   4.591   2.468   2.581  0.1603  0.2444 -0.6657
 6309TIP3    H140486   4.576   2.434   2.493  0.4842  0.1677 -0.6940
 6309TIP3    H240487   4.685   2.459   2.594  0.0747  0.0016 -0.2050
 6310TIP3   OH240488   6.005   2.117   8.150 -0.2646 -0.7634  0.8364
 6310TIP3    H140489   5.976   2.153   8.066  1.8624 -0.1257  0.2925
 6310TIP3    H240490   6.069   2.050   8.126  1.4031  0.3613  1.8846
 6311TIP3   OH240491   6.397   2.728   2.364  0.5623 -0.3289 -0.2712
 6311TIP3    H140492   6.379   2.791   2.434  0.9154  1.1112 -1.4316
 6311TIP3    H240493   6.313   2.685   2.348  0.4498 -0.5783  0.9306
 6312TIP3   OH240494   1.074   3.196   0.258 -0.3298 -0.3315  0.4367
 6312TIP3    H140495   1.022   3.134   0.206 -0.6805  0.3970 -0.1103
 6312TIP3    H240496   1.008   3.249   0.304 -0.0947  0.6153 -0.2797
 6313TIP3   OH240497   1.442   6.030   7.482 -0.0610 -0.3633 -0.6099
 6313TIP3    H140498   1.484   6.012   7.398  2.7159  1.0840  0.3558
 6313TIP3    H240499   1.474   6.117   7.507 -0.9951 -0.6354  1.8381
 6314TIP3   OH240500   1.735   2.091   1.977 -0.4955 -0.9141  0.2928
 6314TIP3    H140501   1.770   2.121   2.061 -0.6626 -1.6821  0.6404
 6314TIP3    H240502   1.674   2.021   2.000 -0.6174 -1.0616 -0.4664
 6315TIP3   OH240503   5.096   4.357   2.767 -0.0001  0.7366  0.0830
 6315TIP3    H140504   5.107   4.362   2.672  0.0605 -3.9685 -0.3760
 6315TIP3    H240505   5.184   4.338   2.800 -0.6263 -1.7296  0.5013
 6316TIP3   OH240506   4.191   0.107   0.668  0.6234 -0.2539  1.0146
 6316TIP3    H140507   4.113   0.091   0.722 -1.0987  1.9127 -0.6275
 6316TIP3    H240508   4.173   0.061   0.586  1.4679 -0.3681  0.8857
 6317TIP3   OH240509   0.769   5.121   8.550  0.8235 -0.1439  0.2065
 6317TIP3    H140510   0.715   5.042   8.538  0.1677  0.2867  0.2807
 6317TIP3    H240511   0.746   5.152   8.637  1.4277 -0.1239  0.3608
 6318TIP3   OH240512   3.830   6.090   7.626 -0.3332 -0.1961  0.3558
 6318TIP3    H140513   3.822   6.179   7.594 -0.4856 -0.3574 -0.0577
 6318TIP3    H240514   3.775   6.038   7.568 -1.0354 -0.4152  1.1847
 6319TIP3   OH240515   6.125   4.556   1.316 -0.5947  0.0489 -0.0467
 6319TIP3    H140516   6.057   4.511   1.266  0.4207 -0.3148 -1.1556
 6319TIP3    H240517   6.141   4.637   1.268 -0.2087  0.1019  0.1638
 6320TIP3   OH240518   5.248   6.492   7.716  0.1800  0.2446  0.0558
 6320TIP3    H140519   5.301   6.489   7.796  0.5551  1.3100 -0.1302
 6320TIP3    H240520   5.293   6.434   7.655  1.5658  1.6187 -0.3196
 6321TIP3   OH240521   4.532   1.523   0.268  0.2933 -0.3682 -0.3795
 6321TIP3    H140522   4.505   1.497   0.180  1.5596  2.3049 -1.6833
 6321TIP3    H240523   4.452   1.559   0.307  0.3529  1.4325 -1.7443
 6322TIP3   OH240524   4.191   0.311   7.789  0.2636  0.2379  0.2558
 6322TIP3    H140525   4.253   0.362   7.841 -2.0165  3.6865 -0.1073
 6322TIP3    H240526   4.122   0.286   7.850  0.7559 -1.4848  0.1603
 6323TIP3   OH240527   6.401   5.456   7.919 -0.1501  0.5091 -0.0771
 6323TIP3    H140528   6.456   5.454   7.998  0.3894 -0.3002 -0.4632
 6323TIP3    H240529   6.398   5.548   7.895  1.8497  0.4736 -0.5886
 6324TIP3   OH240530   4.872   5.750   7.709  0.1945  0.1518 -0.8809
 6324TIP3    H140531   4.820   5.696   7.768  1.0462 -0.7323 -0.9145
 6324TIP3    H240532   4.945   5.694   7.683  1.2254  1.3795 -0.7573
 6325TIP3   OH240533   3.497   5.725   0.285  0.1713  0.1854  0.6169
 6325TIP3    H140534   3.564   5.791   0.268  0.5652 -0.0743  1.1347
 6325TIP3    H240535   3.544   5.653   0.326  0.5208 -2.1426 -3.3543
 6326TIP3   OH240536   6.671   0.340   8.074  0.5121 -0.0795  0.0049
 6326TIP3    H140537   6.665   0.435   8.084 -0.2445 -0.0450 -0.7692
 6326TIP3    H240538   6.582   0.312   8.055  0.8869 -0.8412 -0.6573
 6327TIP3   OH240539   1.750   2.538   1.852  0.2816  0.6407  0.0696
 6327TIP3    H140540   1.731   2.632   1.853 -0.8382  0.4218  0.7833
 6327TIP3    H240541   1.669   2.496   1.881  0.6863 -0.5700 -0.4587
 6328TIP3   OH240542   5.697   1.335   7.934 -0.6155  0.2308  0.2160
 6328TIP3    H140543   5.616   1.284   7.933  1.3170 -3.0753 -1.4182
 6328TIP3    H240544   5.734   1.323   7.847  1.3047  2.3133  0.6584
 6329TIP3   OH240545   5.427   3.956   0.561  0.0160 -0.4536  0.3729
 6329TIP3    H140546   5.421   4.015   0.636  0.7392 -0.9244  0.8128
 6329TIP3    H240547   5.336   3.931   0.542 -0.5277  2.2534 -1.0205
 6330TIP3   OH240548   6.074   6.664   0.013  0.1123 -0.3062  0.1888
 6330TIP3    H140549   5.999   6.721   0.030  0.8586  0.7904 -0.0457
 6330TIP3    H240550   6.083   6.611   0.092 -0.0188  0.5974  0.8230
 6331TIP3   OH240551   5.510   4.292   6.902 -0.6285  0.6997 -0.5718
 6331TIP3    H140552   5.448   4.239   6.853  0.3166  0.0140 -1.0678
 6331TIP3    H240553   5.538   4.360   6.840 -0.6934  0.8544 -0.4331
 6332TIP3   OH240554   2.354   5.382   6.910  0.4146 -0.0890  0.0454
 6332TIP3    H140555   2.358   5.408   6.818 -0.5051  2.0859  0.5559
 6332TIP3    H240556   2.296   5.306   6.911  0.6496 -0.3070 -1.1844
 6333TIP3   OH240557   0.034   5.361   0.120 -0.1049  0.0243 -0.4483
 6333TIP3    H140558   0.128   5.341   0.120 -0.3598 -1.2362  0.0128
 6333TIP3    H240559  -0.002   5.308   0.190 -1.0043  1.3992  0.1741
 6334TIP3   OH240560   3.862   0.125   0.317  0.0180  0.5756  0.2601
 6334TIP3    H140561   3.788   0.167   0.272 -0.5683 -0.2191  0.4637
 6334TIP3    H240562   3.939   0.160   0.273 -0.4241  2.1816  0.6717
 6335TIP3   OH240563   0.475   6.695   2.308  0.5160 -0.0690 -0.2274
 6335TIP3    H140564   0.418   6.681   2.232  0.2447  1.3818 -0.3122
 6335TIP3    H240565   0.497   6.606   2.337 -1.0410 -0.6640 -0.7374
 6336TIP3   OH240566   5.600   5.052   0.837 -0.0308  0.0523  0.7078
 6336TIP3    H140567   5.672   5.015   0.785 -1.4094 -0.6514 -0.7966
 6336TIP3    H240568   5.601   5.145   0.816  0.2433 -0.0146  0.4078
 6337TIP3   OH240569   0.480   5.198   0.412  0.4148 -0.2835 -0.6652
 6337TIP3    H140570   0.437   5.132   0.465 -0.0326  0.3090 -0.2789
 6337TIP3    H240571   0.422   5.211   0.337 -0.4308  0.9511  0.1552
 6338TIP3   OH240572   3.356   2.800   8.279  0.2645 -0.1978  0.1509
 6338TIP3    H140573   3.266   2.778   8.305  0.7304 -2.0480  0.3386
 6338TIP3    H240574   3.400   2.823   8.361  0.4429 -1.2004  0.3551
 6339TIP3   OH240575   2.628   0.172   0.896 -0.1576  0.4419  0.0478
 6339TIP3    H140576   2.625   0.209   0.808 -0.5041  1.0877  0.3269
 6339TIP3    H240577   2.711   0.125   0.899 -0.2217  0.2551 -0.6826
 6340TIP3   OH240578   4.510   3.820   7.929  0.1239  0.0387  0.4405
 6340TIP3    H140579   4.469   3.861   7.853  1.5952 -0.5202 -0.6988
 6340TIP3    H240580   4.456   3.742   7.945 -1.2499  1.0844  1.1258
 6341TIP3   OH240581   1.519   2.290   2.513 -0.4334  0.3943  0.1339
 6341TIP3    H140582   1.543   2.251   2.429  0.7809  3.5985 -1.1831
 6341TIP3    H240583   1.502   2.382   2.492 -1.5516  1.0030  3.1979
 6342TIP3   OH240584   4.985   6.441   2.525  0.4726 -0.4181  0.6908
 6342TIP3    H140585   5.041   6.505   2.570 -0.8306  1.8851 -0.7412
 6342TIP3    H240586   4.947   6.388   2.596 -0.1903  1.9550  2.2388
 6343TIP3   OH240587   5.417   1.216   2.106 -0.2102 -0.5515  0.1403
 6343TIP3    H140588   5.456   1.142   2.152  1.5674 -0.0159 -0.4287
 6343TIP3    H240589   5.472   1.291   2.128 -0.1685 -0.0004 -1.6732
 6344TIP3   OH240590   1.874   0.698   1.492 -0.3598  0.0363  0.5545
 6344TIP3    H140591   1.933   0.700   1.416  1.6405 -1.9653  1.9223
 6344TIP3    H240592   1.793   0.662   1.458  0.2035 -0.0363 -0.7986
 6345TIP3   OH240593   5.982   2.278   2.554 -0.5611  0.0256 -0.5283
 6345TIP3    H140594   5.972   2.307   2.645 -0.2304 -4.1644  1.1211
 6345TIP3    H240595   5.934   2.195   2.551  0.2775 -0.4831 -3.9465
 6346TIP3   OH240596   1.313   3.604   8.579 -0.2949  0.3976  0.0399
 6346TIP3    H140597   1.316   3.526   8.524  1.0754 -0.5510  1.3596
 6346TIP3    H240598   1.231   3.595   8.628 -0.8663  0.5746 -0.8537
 6347TIP3   OH240599   4.454   4.920   7.557  0.0392 -0.1468  0.2816
 6347TIP3    H140600   4.539   4.960   7.538 -0.2259  1.0525  1.4550
 6347TIP3    H240601   4.390   4.989   7.539 -0.4234  0.0894  2.5142
 6348TIP3   OH240602   6.310   3.633   2.738  0.1480 -0.1405  0.2818
 6348TIP3    H140603   6.263   3.705   2.780 -0.5053 -0.8198  0.7220
 6348TIP3    H240604   6.280   3.554   2.782 -1.5654 -1.0412 -2.2767
 6349TIP3   OH240605   3.151   2.231   2.263 -0.3368  0.1578  0.1525
 6349TIP3    H140606   3.246   2.217   2.257 -0.6672 -1.8612 -1.5982
 6349TIP3    H240607   3.127   2.200   2.350  0.3855 -1.0695 -0.0694
 6350TIP3   OH240608   0.554   0.516   8.290 -0.3067 -0.1717 -0.1880
 6350TIP3    H140609   0.602   0.509   8.372 -1.5567 -0.2830  0.5727
 6350TIP3    H240610   0.577   0.438   8.241 -0.0412 -0.4259  0.3386
 6351TIP3   OH240611   4.072   0.920   8.607  0.0397  0.4793 -0.1254
 6351TIP3    H140612   4.027   0.965   8.535  0.1867 -1.7194 -1.6953
 6351TIP3    H240613   4.158   0.897   8.571  0.8701  1.0007  1.4382
 6352TIP3   OH240614   0.765   2.670   2.091 -0.2373  0.3252  0.0160
 6352TIP3    H140615   0.802   2.629   2.013 -1.0966  1.5822 -1.1122
 6352TIP3    H240616   0.835   2.727   2.124  0.4365 -0.8703  0.7178
 6353TIP3   OH240617   0.393   2.015   1.838 -1.0108 -0.4823 -0.3823
 6353TIP3    H140618   0.463   2.017   1.903 -0.4380 -0.4972 -0.9893
 6353TIP3    H240619   0.327   2.075   1.872  0.4201  1.6034 -1.0240
 6354TIP3   OH240620   6.834   5.148   7.372  0.4168  0.2999 -0.1186
 6354TIP3    H140621   6.746   5.178   7.395  0.8837  1.3659  0.3319
 6354TIP3    H240622   6.852   5.191   7.288  0.6783  0.4468  0.0115
 6355TIP3   OH240623   4.691   4.015   0.807  0.4863  0.0525 -0.5081
 6355TIP3    H140624   4.712   4.102   0.840 -1.0407  0.3749 -0.2973
 6355TIP3    H240625   4.618   3.986   0.861  0.5408 -1.0822 -1.0196
 6356TIP3   OH240626   2.508   5.797   7.690 -0.1091 -0.2194 -0.4252
 6356TIP3    H140627   2.451   5.872   7.672 -0.0046 -0.1763 -0.5803
 6356TIP3    H240628   2.531   5.806   7.782  0.7187  0.5079 -0.6892
 6357TIP3   OH240629   1.501   5.115   0.327  0.6760 -0.3737 -0.0416
 6357TIP3    H140630   1.522   5.028   0.361  1.4772 -0.0767  0.2245
 6357TIP3    H240631   1.473   5.099   0.236  1.6455 -0.8169 -0.2668
 6358TIP3   OH240632   1.595   3.310   7.354 -0.0885 -0.1161  0.3798
 6358TIP3    H140633   1.676   3.362   7.346 -0.8140  0.8597 -1.2309
 6358TIP3    H240634   1.573   3.288   7.263 -1.5075 -0.5675  0.8172
 6359TIP3   OH240635   1.049   0.934   0.989  0.5970  0.6452 -0.1049
 6359TIP3    H140636   0.956   0.915   0.975  0.2781  0.3679  2.0743
 6359TIP3    H240637   1.070   1.000   0.922 -0.9701  0.2154 -1.0709
 6360TIP3   OH240638   3.905   0.123   8.635  0.0550 -0.2840 -0.3134
 6360TIP3    H140639   3.811   0.113   8.621 -0.2904  0.0111  1.5790
 6360TIP3    H240640   3.915   0.211   8.671  0.9343 -0.6900  0.4728
 6361TIP3   OH240641   3.868   0.494   1.774  0.5886 -0.2496  0.3017
 6361TIP3    H140642   3.834   0.417   1.729  0.2587 -0.0037  0.1240
 6361TIP3    H240643   3.962   0.493   1.757  0.3762  0.2167 -0.9862
 6362TIP3   OH240644   3.175   1.165   1.278 -0.1114  0.2006  0.0789
 6362TIP3    H140645   3.134   1.250   1.264  2.2211  1.4752  0.3513
 6362TIP3    H240646   3.230   1.152   1.200  1.6099  0.2773  1.2274
 6363TIP3   OH240647   1.709   4.305   8.622  0.2477 -0.3092  0.5200
 6363TIP3    H140648   1.731   4.219   8.657 -1.7025 -1.3225 -0.5188
 6363TIP3    H240649   1.689   4.288   8.529 -0.0967  1.2762  0.2761
 6364TIP3   OH240650   3.997   2.965   6.925 -0.2063  0.3799 -0.3858
 6364TIP3    H140651   3.927   2.918   6.880 -0.2352 -0.0054  0.0499
 6364TIP3    H240652   3.959   2.989   7.009 -0.1655  1.1275 -0.5782
 6365TIP3   OH240653   0.168   4.788   7.156 -0.1875  0.3228 -0.3997
 6365TIP3    H140654   0.248   4.766   7.203 -1.5328 -1.3885  1.2331
 6365TIP3    H240655   0.137   4.704   7.121  0.1619  1.3450 -3.4996
 6366TIP3   OH240656   2.844   0.057   7.635 -0.8183 -1.0307 -0.1457
 6366TIP3    H140657   2.755   0.060   7.600 -1.7457 -3.4490  1.7057
 6366TIP3    H240658   2.846   0.127   7.700 -1.7049 -1.5092  0.4222
 6367TIP3   OH240659   6.283   0.807   0.916  0.4952  0.0355  0.1450
 6367TIP3    H140660   6.250   0.896   0.930  2.7509  1.0558 -0.5223
 6367TIP3    H240661   6.222   0.751   0.963 -1.2895  1.8844  0.1586
 6368TIP3   OH240662   2.037   0.127   7.633  0.2182  0.6506 -0.1771
 6368TIP3    H140663   2.105   0.061   7.619  0.2693  0.6493  0.0616
 6368TIP3    H240664   2.014   0.157   7.546  1.1341  1.2536 -0.2301
 6369TIP3   OH240665   6.322   4.492   1.476  0.3945 -0.0575  0.2081
 6369TIP3    H140666   6.260   4.515   1.406  1.5245  0.1870 -0.7481
 6369TIP3    H240667   6.399   4.459   1.430  0.6519 -1.2436  1.4016
 6370TIP3   OH240668   5.039   5.671   1.393 -0.0612  0.1883  0.1007
 6370TIP3    H140669   4.991   5.687   1.312  0.5020  1.3534 -0.0236
 6370TIP3    H240670   5.016   5.745   1.449  1.0960  0.4370  0.2690
 6371TIP3   OH240671   6.011   2.677   8.149 -0.1889  0.2891  0.3904
 6371TIP3    H140672   6.059   2.748   8.192 -0.4935  2.1566 -2.1190
 6371TIP3    H240673   5.922   2.710   8.139 -0.7097 -1.0405  0.3998
 6372TIP3   OH240674   2.832   2.391   0.781 -0.2184  0.0605 -0.6927
 6372TIP3    H140675   2.900   2.385   0.715  0.4789 -0.2933  0.0467
 6372TIP3    H240676   2.750   2.385   0.732  0.2907 -1.2799 -1.4203
 6373TIP3   OH240677   5.310   1.638   2.164  0.4980 -0.5623 -0.2917
 6373TIP3    H140678   5.296   1.620   2.257 -0.6519 -1.7374 -0.6667
 6373TIP3    H240679   5.344   1.727   2.162  0.0542 -0.3275  1.2196
 6374TIP3   OH240680   2.423   5.077   1.646  0.1796 -0.7533 -0.4769
 6374TIP3    H140681   2.412   5.002   1.587  0.4035 -1.5626  0.4881
 6374TIP3    H240682   2.464   5.144   1.592  1.9104 -2.0394 -0.8580
 6375TIP3   OH240683   4.985   4.333   1.657  0.7488 -0.5109  0.3928
 6375TIP3    H140684   5.070   4.292   1.642  0.1739 -1.8649  0.6354
 6375TIP3    H240685   4.922   4.270   1.623 -0.1234  1.8782 -2.9706
 6376TIP3   OH240686   5.097   0.604   7.234  0.2474 -0.3268  0.7244
 6376TIP3    H140687   5.123   0.516   7.261  0.3863 -1.0664 -1.5527
 6376TIP3    H240688   5.008   0.593   7.199  0.5615  0.2419 -0.3061
 6377TIP3   OH240689   5.295   4.309   7.677  0.2102 -0.2215 -0.1513
 6377TIP3    H140690   5.241   4.277   7.749 -1.0106  0.9623 -0.4911
 6377TIP3    H240691   5.279   4.247   7.606  1.5638 -1.5011  0.6098
 6378TIP3   OH240692   4.408   3.287   6.776 -0.0298 -0.3194  0.4217
 6378TIP3    H140693   4.452   3.364   6.814  0.6278 -0.1936 -0.5633
 6378TIP3    H240694   4.318   3.317   6.760  0.5531  0.7128 -1.2000
 6379TIP3   OH240695   0.310   6.196   1.724  0.9945 -0.8695 -0.2479
 6379TIP3    H140696   0.310   6.160   1.635  1.5835  0.1303 -0.6685
 6379TIP3    H240697   0.250   6.271   1.719 -0.0311 -1.6127  0.5549
 6380TIP3   OH240698   4.012   5.644   7.481 -0.4880 -0.6732 -0.1085
 6380TIP3    H140699   4.102   5.615   7.495 -0.0792  0.3206 -0.6140
 6380TIP3    H240700   4.004   5.651   7.386 -1.3239 -1.4102 -0.1134
 6381TIP3   OH240701   4.368   4.787   6.713  0.2570  0.8601 -0.1704
 6381TIP3    H140702   4.460   4.767   6.729  0.3200  0.6960 -0.7266
 6381TIP3    H240703   4.331   4.705   6.680 -0.1238  0.8836  0.1899
 6382TIP3   OH240704   4.412   4.815   8.197 -0.1344  0.3055  0.0511
 6382TIP3    H140705   4.347   4.853   8.255 -1.0394 -1.7642  0.4878
 6382TIP3    H240706   4.366   4.800   8.115 -0.2862 -1.1996  0.3708
 6383TIP3   OH240707   5.349   1.774   0.833  0.1920 -0.8420 -0.0833
 6383TIP3    H140708   5.391   1.785   0.919  0.3008  0.0136 -0.2371
 6383TIP3    H240709   5.278   1.838   0.833  1.6248  0.8399 -1.5105
 6384TIP3   OH240710   6.665   1.530   8.487 -0.4359  0.3530  0.3082
 6384TIP3    H140711   6.695   1.580   8.563 -1.5013  0.0308  0.9708
 6384TIP3    H240712   6.574   1.507   8.508 -1.0429  0.9789 -1.4255
 6385TIP3   OH240713   3.673   3.745   1.683 -0.2574 -0.4881  0.0159
 6385TIP3    H140714   3.624   3.663   1.682 -0.8786 -0.1602  0.9697
 6385TIP3    H240715   3.764   3.719   1.694 -0.0773 -1.1423 -2.4579
 6386TIP3   OH240716   4.401   3.959   7.038 -1.1212 -0.3557 -0.7319
 6386TIP3    H140717   4.402   3.884   7.097 -1.8124  0.2670  0.0968
 6386TIP3    H240718   4.421   4.034   7.095 -2.9424  0.4145 -1.0213
 6387TIP3   OH240719   3.905   0.862   2.230  0.0651  0.1771 -0.0064
 6387TIP3    H140720   3.830   0.909   2.195 -0.8585 -0.5551  0.9156
 6387TIP3    H240721   3.961   0.929   2.268 -0.3379  0.6833 -0.2981
 6388TIP3   OH240722   2.453   6.731   7.105  0.0840  0.2025  0.3590
 6388TIP3    H140723   2.494   6.801   7.157  1.2644 -0.4761  0.3765
 6388TIP3    H240724   2.438   6.770   7.019 -0.5853  0.9024  0.7762
 6389TIP3   OH240725   2.706   5.567   7.372  0.5566  0.6828  0.2619
 6389TIP3    H140726   2.690   5.613   7.290 -2.0438  0.6289  0.6407
 6389TIP3    H240727   2.707   5.636   7.438  0.5704  0.5539  0.3974
 6390TIP3   OH240728   2.633   3.013   7.349 -0.2711  0.2011  0.1995
 6390TIP3    H140729   2.723   3.031   7.320 -0.0014  2.0481  1.9713
 6390TIP3    H240730   2.584   3.091   7.325 -0.6233  0.6323  2.1555
 6391TIP3   OH240731   2.822   3.100   1.440 -0.4560 -0.0964 -0.5471
 6391TIP3    H140732   2.765   3.025   1.455  0.3908 -1.0035 -1.6374
 6391TIP3    H240733   2.807   3.158   1.515 -2.1056 -0.7236 -0.3583
 6392TIP3   OH240734   3.482   6.178   7.834  0.2534 -0.1265 -0.2406
 6392TIP3    H140735   3.453   6.117   7.902 -2.1882  0.2274 -0.8704
 6392TIP3    H240736   3.450   6.139   7.752 -0.3086  1.3975 -0.7649
 6393TIP3   OH240737   6.085   3.175   0.814  0.5992 -0.1228  0.4916
 6393TIP3    H140738   6.047   3.112   0.752  0.0556 -1.1571  1.8237
 6393TIP3    H240739   6.167   3.134   0.842  0.8662  0.3625  0.4227
 6394TIP3   OH240740   2.194   2.093   7.647 -0.0636  0.7143 -0.5767
 6394TIP3    H140741   2.209   2.001   7.671 -0.8786  0.2031 -1.9557
 6394TIP3    H240742   2.268   2.139   7.687  0.7579 -0.6316 -0.4634
 6395TIP3   OH240743   6.308   5.126   0.530  0.0013 -0.0097  0.4601
 6395TIP3    H140744   6.235   5.095   0.477  0.4165 -1.1187  0.5094
 6395TIP3    H240745   6.280   5.114   0.620 -0.2733  0.8418  0.4984
 6396TIP3   OH240746   2.096   1.319   7.471  0.9993 -0.5006  0.5398
 6396TIP3    H140747   2.043   1.268   7.410  2.0437 -1.4633  0.3997
 6396TIP3    H240748   2.033   1.354   7.534 -0.0303  0.0799 -0.7721
 6397TIP3   OH240749   1.267   3.867   1.671 -0.0131  0.2511 -0.1935
 6397TIP3    H140750   1.299   3.916   1.596 -2.2642 -0.4713 -1.7224
 6397TIP3    H240751   1.294   3.777   1.654 -0.7194  0.0475 -0.2936
 6398TIP3   OH240752   4.408   2.818   8.432  0.4796  0.1026 -0.0843
 6398TIP3    H140753   4.499   2.848   8.441 -0.2756  3.0094 -1.1251
 6398TIP3    H240754   4.404   2.783   8.343  0.2832  1.3272 -0.5781
 6399TIP3   OH240755   0.271   3.885   7.402 -0.2912 -0.2541 -0.3062
 6399TIP3    H140756   0.354   3.875   7.354  0.8580  0.7552  1.3627
 6399TIP3    H240757   0.260   3.802   7.448  0.7110  0.2035  0.7956
 6400TIP3   OH240758   4.397   0.568   7.282  0.5814  0.1652  0.3779
 6400TIP3    H140759   4.459   0.546   7.212  0.0990  3.0649 -1.0858
 6400TIP3    H240760   4.313   0.577   7.238  0.0509  0.9529  1.5059
 6401TIP3   OH240761   0.785   6.605   8.213  0.5792  0.1401 -0.0179
 6401TIP3    H140762   0.802   6.700   8.211  0.7584  0.1245  0.6648
 6401TIP3    H240763   0.742   6.590   8.297  0.2578 -0.3399 -0.2662
 6402TIP3   OH240764   6.509   5.814   1.432  0.4529  0.1234  0.2803
 6402TIP3    H140765   6.551   5.757   1.497  0.8504  0.7890  0.6234
 6402TIP3    H240766   6.510   5.901   1.472  0.4419  0.4944 -0.4994
 6403TIP3   OH240767   4.930   4.204   7.513 -0.0134  0.0970  0.0082
 6403TIP3    H140768   4.974   4.161   7.440  1.5251  1.9687 -0.2592
 6403TIP3    H240769   4.936   4.298   7.493 -0.6173  0.6013  1.9411
 6404TIP3   OH240770   2.049   4.210   2.410  0.1608  0.3952 -0.4527
 6404TIP3    H140771   2.104   4.142   2.373  0.7023 -0.3640  1.5966
 6404TIP3    H240772   2.105   4.255   2.474 -1.0208  0.8584  0.3100
 6405TIP3   OH240773   1.989   1.265   0.925  0.2435 -0.0228  0.3229
 6405TIP3    H140774   2.054   1.302   0.865 -0.4084  1.4570  0.4815
 6405TIP3    H240775   2.030   1.186   0.959  0.6034 -0.9664 -2.1022
 6406TIP3   OH240776   5.593   4.505   0.495  0.1888  0.8262  0.6190
 6406TIP3    H140777   5.581   4.593   0.460  1.2074  0.2245 -1.3970
 6406TIP3    H240778   5.668   4.513   0.554  0.4725  1.2410  0.2074
 6407TIP3   OH240779   4.596   2.034   0.457  0.1384  0.0872  0.6001
 6407TIP3    H140780   4.592   1.948   0.417 -0.0872  0.0003  0.8077
 6407TIP3    H240781   4.514   2.076   0.433  1.1155  1.0474 -1.2767
 6408TIP3   OH240782   5.681   6.759   2.028 -0.2327 -0.2000  0.8501
 6408TIP3    H140783   5.742   6.688   2.049 -1.1329 -1.0386  0.6878
 6408TIP3    H240784   5.604   6.715   1.992 -0.8014  0.8651  0.7187
 6409TIP3   OH240785   2.537   6.566   1.996  0.3086  0.6890 -0.4274
 6409TIP3    H140786   2.527   6.660   2.016 -0.7971  0.6857 -0.8738
 6409TIP3    H240787   2.477   6.551   1.924  1.9299  0.0376 -1.6904
 6410TIP3   OH240788   6.862   0.711   7.768  0.8062 -0.3305  0.2833
 6410TIP3    H140789   6.930   0.644   7.773  1.1959  0.0899  0.7680
 6410TIP3    H240790   6.877   0.754   7.684  0.7750 -0.6162  0.1294
 6411TIP3   OH240791   1.443   5.557   0.080 -0.3007 -0.2636 -0.8354
 6411TIP3    H140792   1.397   5.554  -0.004  0.3715  0.0563 -1.2259
 6411TIP3    H240793   1.383   5.605   0.138 -1.5515 -2.0245 -0.6005
 6412TIP3   OH240794   0.100   3.083   1.328  0.0337 -0.5110 -0.6163
 6412TIP3    H140795   0.186   3.119   1.308  0.0334 -0.4309 -0.4763
 6412TIP3    H240796   0.039   3.153   1.304  0.0644 -0.2074  0.1542
 6413TIP3   OH240797   4.112   0.013   7.467 -0.5554 -0.4480 -0.0115
 6413TIP3    H140798   4.163   0.020   7.548 -1.4684  0.4578  0.5087
 6413TIP3    H240799   4.167  -0.039   7.408  0.9058  0.3995  0.5697
 6414TIP3   OH240800   5.802   2.304   1.478 -0.2249  0.1346  0.5185
 6414TIP3    H140801   5.876   2.339   1.527 -0.0202  2.3931 -1.2098
 6414TIP3    H240802   5.841   2.245   1.413 -0.1716 -0.2939  0.9351
 6415TIP3   OH240803   0.126   5.103   1.732  0.0921  0.4163 -0.2221
 6415TIP3    H140804   0.191   5.174   1.735  1.3548 -0.5071 -2.6490
 6415TIP3    H240805   0.123   5.069   1.821  1.8392  1.4604  0.2835
 6416TIP3   OH240806   4.669   2.011   7.814 -0.6650 -0.2043 -0.2985
 6416TIP3    H140807   4.576   1.996   7.794 -0.7604 -0.9469  0.6460
 6416TIP3    H240808   4.703   2.055   7.735 -1.7554 -0.1216 -0.7496
 6417TIP3   OH240809   1.373   0.962   2.671  0.1291 -0.1099 -0.1985
 6417TIP3    H140810   1.327   1.042   2.645  0.2918 -0.3172 -1.1657
 6417TIP3    H240811   1.416   0.984   2.753 -2.2829 -0.1201  1.1709
 6418TIP3   OH240812   2.354   1.871   7.755  0.2267 -0.4212  0.0702
 6418TIP3    H140813   2.392   1.873   7.667 -2.3262  4.0999 -1.2273
 6418TIP3    H240814   2.410   1.930   7.806 -0.3238 -0.2410  0.4709
 6419TIP3   OH240815   3.494   4.811   7.291 -0.4005  0.1795 -0.0213
 6419TIP3    H140816   3.478   4.723   7.326  1.8308 -0.9393 -1.5137
 6419TIP3    H240817   3.413   4.834   7.245 -0.3222 -2.1280 -1.4951
 6420TIP3   OH240818   5.949   1.539   0.763 -0.1003 -0.4335 -0.1585
 6420TIP3    H140819   5.997   1.614   0.729  1.3753 -1.5105 -0.5760
 6420TIP3    H240820   5.962   1.543   0.858  1.6752 -1.2207 -0.3338
 6421TIP3   OH240821   2.090   2.985   0.356 -0.4915  0.0695  0.0431
 6421TIP3    H140822   2.119   3.075   0.364 -0.4299  0.1231 -0.7161
 6421TIP3    H240823   2.133   2.939   0.428  1.1563  0.2248 -0.8116
 6422TIP3   OH240824   3.279   1.655   2.660 -0.2106  0.7962  0.0341
 6422TIP3    H140825   3.317   1.592   2.599 -0.1276  0.6526  0.2340
 6422TIP3    H240826   3.227   1.714   2.605 -0.1410  0.6624 -0.1735
 6423TIP3   OH240827   4.224   0.140   0.191  0.0138  0.0008 -0.1894
 6423TIP3    H140828   4.253   0.059   0.233  3.6773  1.2619  0.0546
 6423TIP3    H240829   4.201   0.198   0.264  1.6773  0.5840 -0.0974
 6424TIP3   OH240830   4.307   5.340   1.798 -0.4505  0.5961 -0.3460
 6424TIP3    H140831   4.234   5.356   1.737 -0.8347 -0.3524 -0.1384
 6424TIP3    H240832   4.304   5.247   1.816  1.6380  0.2605 -1.3674
 6425TIP3   OH240833   1.097   3.797   7.343 -0.2014 -0.7811  0.5228
 6425TIP3    H140834   1.066   3.845   7.266  1.2526 -0.0309  0.3737
 6425TIP3    H240835   1.152   3.727   7.307  1.2512  0.1418  0.8857
 6426TIP3   OH240836   6.376   5.707   2.459 -0.0798  0.1980  0.1415
 6426TIP3    H140837   6.416   5.754   2.532  1.2340 -1.2756  0.4221
 6426TIP3    H240838   6.436   5.722   2.385 -2.0147  2.7191 -1.0841
 6427TIP3   OH240839   1.593   5.942   7.256 -0.3004 -0.4132 -0.3302
 6427TIP3    H140840   1.576   5.987   7.173 -0.8375 -1.1561 -0.6286
 6427TIP3    H240841   1.686   5.918   7.251  0.2566  1.4013  0.2154
 6428TIP3   OH240842   1.560   0.776   7.008 -0.6541  0.5586  0.0044
 6428TIP3    H140843   1.536   0.686   7.029  1.5125 -0.1097 -0.1472
 6428TIP3    H240844   1.484   0.828   7.036 -0.4151 -0.8430  3.9821
 6429TIP3   OH240845   4.771   4.480   8.652  0.1161 -0.0390 -0.5888
 6429TIP3    H140846   4.846   4.522   8.611  0.5613  2.4097  2.3318
 6429TIP3    H240847   4.808   4.421   8.717 -0.4279  0.7866  0.5081
 6430TIP3   OH240848   1.392   1.046   7.060  0.3002  0.9533  0.4857
 6430TIP3    H140849   1.311   1.081   7.097  0.3206  0.9141  0.5676
 6430TIP3    H240850   1.440   1.123   7.029 -1.3882  0.8397 -2.9847
 6431TIP3   OH240851   2.987   0.190   1.369  0.2416 -0.4526 -0.3710
 6431TIP3    H140852   2.922   0.169   1.302  0.0399 -1.0640  0.0049
 6431TIP3    H240853   2.951   0.152   1.450  0.7435 -0.2022 -0.0235
 6432TIP3   OH240854   0.724   0.454   2.230 -0.4023 -0.4831  0.2673
 6432TIP3    H140855   0.672   0.375   2.243 -1.5618  0.0914 -0.6226
 6432TIP3    H240856   0.663   0.515   2.187  0.0697  1.3343  2.0577
 6433TIP3   OH240857   4.767   3.123   7.852  0.2339 -0.0324 -0.5957
 6433TIP3    H140858   4.730   3.210   7.838 -1.4320 -0.5630  0.3375
 6433TIP3    H240859   4.699   3.074   7.897  2.1782 -0.9926  1.5184
 6434TIP3   OH240860   2.957   3.349   0.212  0.4990 -0.0936 -1.0573
 6434TIP3    H140861   3.020   3.289   0.172  0.6388  0.8580 -2.3364
 6434TIP3    H240862   2.892   3.363   0.143  0.2985  0.9619 -0.6599
 6435TIP3   OH240863   5.490   4.976   6.977 -0.5178  0.3020 -0.2418
 6435TIP3    H140864   5.434   4.914   7.024  1.1769 -0.1267  1.3631
 6435TIP3    H240865   5.491   5.054   7.032  1.3285 -0.1307  0.4492
 6436TIP3   OH240866   2.138   3.992   2.010  0.2219 -0.2630 -0.0879
 6436TIP3    H140867   2.120   3.937   1.933  1.7507  0.9976 -1.4242
 6436TIP3    H240868   2.052   4.025   2.037 -0.3926 -1.0705 -0.9850
 6437TIP3   OH240869   2.562   2.114   8.573  0.2801 -0.1227 -0.1277
 6437TIP3    H140870   2.468   2.115   8.557  0.3761  0.4890 -0.7022
 6437TIP3    H240871   2.582   2.024   8.598 -0.8367  0.2452  2.3471
 6438TIP3   OH240872   5.693   1.062   0.620 -0.1707  0.0306  0.0358
 6438TIP3    H140873   5.655   1.117   0.552 -0.1239 -0.8902 -0.7578
 6438TIP3    H240874   5.706   1.121   0.695  0.6137  1.2826 -1.0456
 6439TIP3   OH240875   2.246   6.020   0.950 -0.1884  0.3096 -0.0494
 6439TIP3    H140876   2.295   6.008   0.869 -0.4019  0.5863 -0.2216
 6439TIP3    H240877   2.254   6.113   0.970 -1.8422  0.6621 -0.8656
 6440TIP3   OH240878   4.771   4.919   6.958  0.6396  0.3629  0.5345
 6440TIP3    H140879   4.761   4.842   7.014  0.0484  0.2827  0.3277
 6440TIP3    H240880   4.801   4.885   6.874 -1.1434  0.1567 -0.0606
 6441TIP3   OH240881   4.347   3.643   1.518 -0.1001 -0.4319  0.5171
 6441TIP3    H140882   4.348   3.682   1.605  3.4114 -0.9290  0.8521
 6441TIP3    H240883   4.419   3.686   1.472 -1.3070 -0.8165 -1.8801
 6442TIP3   OH240884   5.617   6.413   7.285 -0.1965 -0.0789  0.0808
 6442TIP3    H140885   5.673   6.354   7.234 -1.5705 -0.1440 -1.4294
 6442TIP3    H240886   5.568   6.463   7.219  0.1383  2.0091  1.3293
 6443TIP3   OH240887   6.180   0.130   1.637  0.1636 -0.9886  0.0857
 6443TIP3    H140888   6.162   0.223   1.629  2.6988 -0.0246  3.4207
 6443TIP3    H240889   6.135   0.103   1.717  1.5589 -1.9289  0.6064
 6444TIP3   OH240890   3.301   6.801   6.705 -0.4563 -0.0508  0.1813
 6444TIP3    H140891   3.312   6.727   6.646 -0.6606  0.9300 -1.1497
 6444TIP3    H240892   3.359   6.869   6.669  1.0850 -0.0830  2.3616
 6445TIP3   OH240893   0.171   4.167   8.609  0.5318 -0.3099  0.0073
 6445TIP3    H140894   0.121   4.248   8.601  2.0665  0.7744  0.7513
 6445TIP3    H240895   0.133   4.123   8.685 -1.6968 -1.3957 -1.6242
 6446TIP3   OH240896   3.265   1.164   7.714  0.0871  0.0169  0.4260
 6446TIP3    H140897   3.260   1.076   7.679  2.9545  0.8752 -2.6996
 6446TIP3    H240898   3.180   1.204   7.693 -0.3002 -1.2391 -0.4874
 6447TIP3   OH240899   4.979   4.136   0.932 -0.4565  0.1477  0.0647
 6447TIP3    H140900   4.899   4.183   0.953 -1.2282 -1.6012  1.2435
 6447TIP3    H240901   4.956   4.044   0.942  1.6600 -0.4070  0.2482
 6448TIP3   OH240902   6.575   2.659   8.305 -0.1357 -0.6545  0.4612
 6448TIP3    H140903   6.628   2.579   8.297  0.4543 -0.3643  1.4459
 6448TIP3    H240904   6.554   2.665   8.398 -0.5023  0.1462  0.3314
 6449TIP3   OH240905   3.760   1.742   8.136  0.0197 -0.6762  0.8753
 6449TIP3    H140906   3.667   1.763   8.127  0.8713  3.6733 -0.3018
 6449TIP3    H240907   3.789   1.726   8.046  0.6157 -0.9036  1.1072
 6450TIP3   OH240908   1.795   6.760   1.711  0.1071  0.4007  0.1323
 6450TIP3    H140909   1.867   6.804   1.665  1.4654 -3.0384 -1.3571
 6450TIP3    H240910   1.838   6.706   1.777 -1.2655 -0.3931  0.4186
 6451TIP3   OH240911   1.599   0.194   7.577 -0.4468 -0.0624 -0.6401
 6451TIP3    H140912   1.545   0.134   7.628 -0.9254  0.5214 -0.4582
 6451TIP3    H240913   1.602   0.155   7.489  1.1121 -1.5513  0.0097
 6452TIP3   OH240914   2.747   3.220   2.058 -0.0325 -0.0178 -0.6185
 6452TIP3    H140915   2.780   3.294   2.109  1.1320 -0.3147 -0.9012
 6452TIP3    H240916   2.813   3.208   1.989  0.2665 -1.8441 -0.0843
 6453TIP3   OH240917   3.988   5.453   8.063 -0.2979 -0.5769 -0.1092
 6453TIP3    H140918   4.026   5.402   7.992 -1.1523 -0.2197 -0.8530
 6453TIP3    H240919   4.038   5.535   8.063  0.1825 -0.8742  0.1804
 6454TIP3   OH240920   1.982   2.146   2.092 -0.2687  0.7041 -0.2840
 6454TIP3    H140921   1.958   2.238   2.080 -0.9278  0.8290  1.5890
 6454TIP3    H240922   2.072   2.140   2.061 -0.3522  1.8944 -0.7988
 6455TIP3   OH240923   6.720   4.360   8.061  0.8032 -0.4329 -0.1103
 6455TIP3    H140924   6.670   4.309   8.126 -0.5753  0.4288 -0.4560
 6455TIP3    H240925   6.656   4.378   7.992  1.6370  0.6351 -0.6099
 6456TIP3   OH240926   5.983   5.249   7.593 -0.7060  0.4107 -0.0872
 6456TIP3    H140927   5.910   5.257   7.532  0.9161  0.7702 -2.1122
 6456TIP3    H240928   6.055   5.296   7.550  0.6828  0.2196  1.8890
 6457TIP3   OH240929   6.631   1.989   8.067  0.6478  0.6477  0.1038
 6457TIP3    H140930   6.627   1.895   8.048 -0.0840  1.0300 -1.9635
 6457TIP3    H240931   6.711   2.000   8.118  0.9814 -1.0410  0.0093
 6458TIP3   OH240932   0.142   1.127   2.380  0.0151  0.1966 -0.1059
 6458TIP3    H140933   0.096   1.211   2.384 -0.7310 -0.1432 -1.0992
 6458TIP3    H240934   0.197   1.134   2.302  0.0404 -0.1979 -0.1245
 6459TIP3   OH240935   4.468   5.650   8.601 -0.0911 -0.2682 -0.3853
 6459TIP3    H140936   4.384   5.695   8.596 -0.2857 -0.7067 -1.4249
 6459TIP3    H240937   4.454   5.569   8.551  0.3741 -1.2881  1.0532
 6460TIP3   OH240938   1.537   0.539   7.122 -0.5488  0.3704  0.1425
 6460TIP3    H140939   1.585   0.457   7.113  2.2791  1.9205 -0.0314
 6460TIP3    H240940   1.525   0.549   7.217 -1.2382 -0.3708  0.1482
 6461TIP3   OH240941   4.729   0.887   2.063 -0.3315 -0.3780  0.4531
 6461TIP3    H140942   4.716   0.887   2.158  1.6894 -1.0728  0.7900
 6461TIP3    H240943   4.788   0.813   2.047  1.2015  1.0693 -1.0350
 6462TIP3   OH240944   0.410   1.228   1.918 -0.1368 -0.1802  0.8684
 6462TIP3    H140945   0.315   1.227   1.928 -0.2232 -2.9545  0.5140
 6462TIP3    H240946   0.426   1.288   1.845 -1.9969 -2.2083 -1.3968
 6463TIP3   OH240947   5.517   5.602   0.342 -0.9206 -0.4470 -0.3247
 6463TIP3    H140948   5.556   5.516   0.351 -0.2051 -0.0213  0.8223
 6463TIP3    H240949   5.422   5.586   0.344 -0.8154 -1.3261 -1.5575
 6464TIP3   OH240950   4.003   4.223   0.483  0.2847 -0.1258  0.5513
 6464TIP3    H140951   4.019   4.146   0.538 -0.5049  0.0018  0.9796
 6464TIP3    H240952   4.001   4.188   0.394 -1.0061 -0.7764  0.8133
 6465TIP3   OH240953   4.100   2.785   2.042 -0.2675  0.7091  0.2788
 6465TIP3    H140954   4.051   2.828   2.112  0.0250 -0.2919  1.1405
 6465TIP3    H240955   4.033   2.748   1.985 -0.5925 -1.2177  1.8002
 6466TIP3   OH240956   3.190   6.602   6.946 -0.4612 -0.0353  0.7009
 6466TIP3    H140957   3.240   6.581   7.025 -1.4863  2.1329  2.0381
 6466TIP3    H240958   3.240   6.673   6.905  0.3699 -1.5123 -1.0017
 6467TIP3   OH240959   2.372   0.713   8.103 -0.2140  0.6464  0.0614
 6467TIP3    H140960   2.305   0.781   8.094  0.6499  1.5330  0.1992
 6467TIP3    H240961   2.440   0.737   8.041 -0.0593 -0.3060 -0.1517
 6468TIP3   OH240962   3.890   6.614   2.023 -0.4021  0.4814  0.1203
 6468TIP3    H140963   3.913   6.544   2.084  3.1426  0.4353 -1.0516
 6468TIP3    H240964   3.963   6.676   2.029 -3.1109  3.9001  0.6810
 6469TIP3   OH240965   0.874   3.723   0.778 -0.4523  0.0496 -0.0079
 6469TIP3    H140966   0.869   3.732   0.874  0.3098  2.1593 -0.1070
 6469TIP3    H240967   0.951   3.669   0.763  0.0844  0.6284  0.5752
 6470TIP3   OH240968   0.234   4.849   0.616  0.3778  0.9599  0.6408
 6470TIP3    H140969   0.192   4.802   0.688  0.5653 -1.6250 -0.8039
 6470TIP3    H240970   0.301   4.903   0.658 -0.2981  0.4389  2.4631
 6471TIP3   OH240971   1.241   2.338   7.483 -0.7101 -0.5756 -0.1208
 6471TIP3    H140972   1.297   2.381   7.548 -2.0997  0.0539  0.7201
 6471TIP3    H240973   1.250   2.392   7.404  0.1633 -0.7206 -0.1288
 6472TIP3   OH240974   1.416   6.754   7.418  0.1157 -0.4892 -0.0018
 6472TIP3    H140975   1.322   6.766   7.427 -0.3465 -3.2871 -0.3068
 6472TIP3    H240976   1.440   6.808   7.343 -1.5805 -0.9985 -0.9587
 6473TIP3   OH240977   0.299   4.896   7.487 -0.0872  0.1839  0.7437
 6473TIP3    H140978   0.360   4.823   7.492 -0.4975 -0.3366 -1.2600
 6473TIP3    H240979   0.234   4.877   7.556  0.5497 -0.6183  1.1415
 6474TIP3   OH240980   0.192   1.781   7.633  0.0177 -0.0187  0.2681
 6474TIP3    H140981   0.175   1.781   7.539 -0.1391 -0.6164  0.2907
 6474TIP3    H240982   0.241   1.701   7.648 -1.6174 -0.9480  0.9647
 6475TIP3   OH240983   2.108   6.856   0.862  0.2297 -0.2150  0.2592
 6475TIP3    H140984   2.099   6.761   0.850  0.1383 -0.1742 -0.0203
 6475TIP3    H240985   2.194   6.868   0.902  0.1624 -0.4290  0.4699
 6476TIP3   OH240986   2.138   1.920   0.680  0.0631 -0.1771  1.0620
 6476TIP3    H140987   2.084   1.848   0.714 -1.4106  0.1676 -0.4108
 6476TIP3    H240988   2.121   1.919   0.586  1.7302  0.7389  0.7312
 6477TIP3   OH240989   6.035   6.732   0.482  0.7108 -0.3766  0.1370
 6477TIP3    H140990   6.019   6.656   0.537 -1.3115 -0.1374 -0.0474
 6477TIP3    H240991   6.091   6.789   0.535 -0.3628 -0.6060  1.5789
 6478TIP3   OH240992   6.801   5.195   8.055  0.1065 -0.0069 -0.1058
 6478TIP3    H140993   6.885   5.196   8.008 -0.2380 -0.6660 -0.7331
 6478TIP3    H240994   6.824   5.162   8.142  0.4249 -0.6241 -0.4172
 6479TIP3   OH240995   6.012   3.987   0.081 -0.1386  0.0393  0.5883
 6479TIP3    H140996   6.048   3.912   0.034  0.8416  1.3563 -0.8602
 6479TIP3    H240997   5.933   4.011   0.032 -1.7710 -1.3516  2.3598
 6480TIP3   OH240998   6.713   1.810   1.785  0.2320 -0.2232  0.0621
 6480TIP3    H140999   6.664   1.849   1.712  0.5448  1.4471  0.6977
 6480TIP3    H241000   6.785   1.764   1.743 -0.3530 -0.4207 -0.7519
 6481TIP3   OH241001   2.080   2.981   8.116  0.2246  0.2336 -0.0952
 6481TIP3    H141002   2.038   3.023   8.191 -1.1138  2.1390 -1.8305
 6481TIP3    H241003   2.172   2.975   8.141 -0.4050 -0.6545  2.3108
 6482TIP3   OH241004   6.432   2.785   8.102 -0.3556 -0.2278 -0.2384
 6482TIP3    H141005   6.379   2.711   8.073  0.6522 -0.8614 -0.5382
 6482TIP3    H241006   6.483   2.752   8.176 -0.0464  0.2251 -0.2406
 6483TIP3   OH241007   1.225   5.524   7.955 -0.0961 -0.5667  0.3831
 6483TIP3    H141008   1.272   5.455   7.907  0.6308 -0.5087  0.9836
 6483TIP3    H241009   1.135   5.517   7.924  0.3125 -0.6114 -0.8953
 6484TIP3   OH241010   0.888   2.974   7.556  0.3210  0.0602  0.4334
 6484TIP3    H141011   0.926   2.912   7.618 -0.7553 -0.1431  0.9160
 6484TIP3    H241012   0.807   2.932   7.527 -0.4288  1.2351  0.7702
 6485TIP3   OH241013   3.716   4.420   1.440 -0.9543  0.4010  0.5391
 6485TIP3    H141014   3.622   4.435   1.426 -1.0741  0.3143  1.2048
 6485TIP3    H241015   3.719   4.359   1.514 -0.4760 -2.7343 -1.8837
 6486TIP3   OH241016   6.457   0.803   7.836  0.4266  0.2845  0.5004
 6486TIP3    H141017   6.382   0.860   7.820  1.1312  0.5184 -2.8922
 6486TIP3    H241018   6.481   0.771   7.749  2.7743 -1.7142  1.7569
 6487TIP3   OH241019   5.596   1.344   7.492  0.5374  0.3477 -0.0127
 6487TIP3    H141020   5.559   1.420   7.538  0.0679  0.5354 -0.6905
 6487TIP3    H241021   5.521   1.301   7.453  0.9352  0.2107 -0.6385
 6488TIP3   OH241022   4.402   1.249   1.796 -0.2555  0.3157  0.2906
 6488TIP3    H141023   4.428   1.326   1.745  1.0600  0.2180  0.7695
 6488TIP3    H241024   4.361   1.190   1.733  1.9008 -0.0790 -0.8256
 6489TIP3   OH241025   4.418   1.367   0.054  0.5432 -0.7544 -0.0436
 6489TIP3    H141026   4.346   1.428   0.037 -0.7442 -1.9758  0.7941
 6489TIP3    H241027   4.385   1.282   0.026  1.8156 -1.2876  0.0064
 6490TIP3   OH241028   5.908   2.684   7.151  0.1901 -0.4042  0.1260
 6490TIP3    H141029   5.997   2.653   7.170 -0.2239 -1.4799  0.3723
 6490TIP3    H241030   5.869   2.699   7.237  0.6693  1.7478  0.0233
 6491TIP3   OH241031   4.171   0.201   8.346 -0.4327  0.2694 -0.3618
 6491TIP3    H141032   4.198   0.214   8.437 -2.0696 -0.2847  0.2572
 6491TIP3    H241033   4.121   0.119   8.348 -2.0757  1.1898 -1.3719
 6492TIP3   OH241034   3.605   5.856   0.597  0.5136  0.4281  0.1410
 6492TIP3    H141035   3.577   5.912   0.669  0.9791  2.5468 -1.2039
 6492TIP3    H241036   3.534   5.863   0.533  1.1691  0.5839 -0.5875
 6493TIP3   OH241037   5.767   2.776   8.465  0.2273 -0.1446 -0.2652
 6493TIP3    H141038   5.672   2.773   8.465  0.1579  1.3370 -0.1681
 6493TIP3    H241039   5.791   2.771   8.372  0.0534 -0.3154 -0.3018
 6494TIP3   OH241040   6.181   6.251   1.752  0.1094 -0.2587 -0.3694
 6494TIP3    H141041   6.218   6.176   1.706  0.3353 -0.1582 -0.3526
 6494TIP3    H241042   6.140   6.214   1.830  1.4706 -0.2137  0.3933
 6495TIP3   OH241043   3.952   1.287   1.770  0.2955  0.1646  0.4984
 6495TIP3    H141044   4.024   1.227   1.789 -0.6181 -1.1798 -0.1026
 6495TIP3    H241045   3.874   1.232   1.769 -0.6976  1.5051  0.6980
 6496TIP3   OH241046   3.804   1.857   1.342  0.2038 -0.1739  0.1377
 6496TIP3    H141047   3.766   1.814   1.418 -0.0757 -1.4577 -0.6856
 6496TIP3    H241048   3.895   1.826   1.340  0.3993  0.3746  0.3079
 6497TIP3   OH241049   1.421   2.150   1.824  0.2137  0.0838  0.2935
 6497TIP3    H141050   1.362   2.102   1.765  1.5555 -0.4661 -0.6578
 6497TIP3    H241051   1.389   2.129   1.912 -1.4680  0.4341 -0.1871
 6498TIP3   OH241052   5.878   2.283   8.632  0.1250  0.0521  0.1413
 6498TIP3    H141053   5.786   2.310   8.632  0.0382 -0.0141  2.7979
 6498TIP3    H241054   5.875   2.187   8.624  0.0391  0.1386 -0.9546
 6499TIP3   OH241055   5.411   5.151   8.209 -0.2869 -0.1553  0.6899
 6499TIP3    H141056   5.394   5.208   8.134  1.2021 -1.1587 -0.4565
 6499TIP3    H241057   5.324   5.133   8.245 -1.0885 -0.0124 -1.0663
 6500TIP3   OH241058   2.156   1.097   2.626 -0.0724 -0.3052  0.3312
 6500TIP3    H141059   2.165   1.002   2.626 -0.2026 -0.3328  1.6621
 6500TIP3    H241060   2.108   1.117   2.706 -0.4873  0.8525 -0.1728
 6501TIP3   OH241061   5.174   0.438   7.517 -0.1256  0.5036  0.6266
 6501TIP3    H141062   5.245   0.382   7.547  1.0936  1.0669 -1.0510
 6501TIP3    H241063   5.159   0.499   7.589  0.2777 -0.3749  1.4619
 6502TIP3   OH241064   2.585   4.797   7.010 -0.0319  0.2102  0.3711
 6502TIP3    H141065   2.600   4.707   6.982 -0.3625  0.0613  0.6705
 6502TIP3    H241066   2.672   4.837   7.008 -0.0248  0.1643 -0.7154
 6503TIP3   OH241067   0.425   4.889   1.784 -0.0034 -0.0961 -0.0325
 6503TIP3    H141068   0.373   4.831   1.728 -1.0073  0.3778  0.3898
 6503TIP3    H241069   0.361   4.931   1.842  0.8574  0.4565  0.5474
 6504TIP3   OH241070   0.359   0.120   2.079  0.6196 -0.2088  0.1157
 6504TIP3    H141071   0.337   0.095   2.169  1.8035 -2.0577 -0.0376
 6504TIP3    H241072   0.311   0.201   2.063 -1.2402 -0.9277  1.7179
 6505TIP3   OH241073   4.305   0.455   2.563  0.2382 -0.0853 -0.1115
 6505TIP3    H141074   4.258   0.374   2.542 -0.2813  0.3381 -0.6179
 6505TIP3    H241075   4.299   0.462   2.659 -3.5151  1.5506 -0.3012
 6506TIP3   OH241076   0.053   3.607   8.145  0.0560 -0.4546 -0.4690
 6506TIP3    H141077  -0.040   3.597   8.127  0.5542 -3.6299 -1.8839
 6506TIP3    H241078   0.092   3.627   8.060  0.9073 -1.8155 -0.4338
 6507TIP3   OH241079   4.421   5.220   8.061 -0.0554  0.0806 -0.7062
 6507TIP3    H141080   4.382   5.239   8.146 -0.2885  1.3648 -1.0748
 6507TIP3    H241081   4.347   5.194   8.006 -0.0677  0.3436 -0.8142
 6508TIP3   OH241082   4.136   4.628   1.333  0.1459 -0.2901 -0.1398
 6508TIP3    H141083   4.167   4.718   1.322  0.8745 -0.5849 -0.5946
 6508TIP3    H241084   4.212   4.580   1.367 -0.2575 -0.7160  0.1790
 6509TIP3   OH241085   5.509   3.791   8.295 -0.2201 -0.5220  0.3181
 6509TIP3    H141086   5.440   3.857   8.292  1.4448  1.2603 -0.2371
 6509TIP3    H241087   5.590   3.840   8.298  1.0519 -2.5216  2.7095
 6510TIP3   OH241088   4.628   1.537   0.844 -0.2671  0.1429  0.3094
 6510TIP3    H141089   4.598   1.447   0.839  1.4671 -0.4063 -1.4614
 6510TIP3    H241090   4.567   1.580   0.904 -1.8168 -1.9042  0.2807
 6511TIP3   OH241091   0.576   6.728   1.455  0.1000 -0.1999 -0.5586
 6511TIP3    H141092   0.548   6.710   1.545  1.4408  1.6106  0.2628
 6511TIP3    H241093   0.581   6.823   1.449  1.9978 -0.3330 -1.9237
 6512TIP3   OH241094   6.243   6.185   8.226 -0.4929  0.1792 -0.2500
 6512TIP3    H141095   6.287   6.168   8.309  1.7587 -0.0485 -1.4108
 6512TIP3    H241096   6.183   6.112   8.215 -0.9135  0.2676  1.1860
 6513TIP3   OH241097   3.240   5.339   2.258 -0.2060 -0.2615 -0.1929
 6513TIP3    H141098   3.205   5.304   2.175 -0.3171  0.5925 -0.5135
 6513TIP3    H241099   3.171   5.396   2.291  0.6046  0.9260 -0.4988
 6514TIP3   OH241100   2.006   1.061   0.134 -0.7729 -0.1865  0.1991
 6514TIP3    H141101   1.964   0.998   0.192  0.0025  1.0706  2.2001
 6514TIP3    H241102   2.095   1.027   0.122 -0.8903 -0.3728 -0.1600
 6515TIP3   OH241103   3.092   2.947   2.030  0.5246  0.6322 -0.5038
 6515TIP3    H141104   3.029   2.989   1.971  1.4564  0.4673 -1.6437
 6515TIP3    H241105   3.109   2.862   1.989 -0.5505 -0.4879  1.2259
 6516TIP3   OH241106   5.891   3.952   7.606 -0.6939  0.0083 -0.2451
 6516TIP3    H141107   5.970   3.930   7.656 -1.1966  1.4802  1.2858
 6516TIP3    H241108   5.834   3.876   7.618 -0.6658  0.1836  1.1550
 6517TIP3   OH241109   2.496   5.094   1.042  0.1621 -0.5832  0.4641
 6517TIP3    H141110   2.533   5.085   1.130  1.4461  2.3443  0.3291
 6517TIP3    H241111   2.454   5.180   1.042 -2.1708 -1.6097 -1.0375
 6518TIP3   OH241112   5.106   1.277   0.600  0.5940 -0.5833  0.1930
 6518TIP3    H141113   5.011   1.264   0.590  0.5804 -1.2174  1.0618
 6518TIP3    H241114   5.136   1.296   0.511 -0.1776 -1.5428 -0.3031
 6519TIP3   OH241115   3.443   4.896   0.298  0.1907  0.0319  0.1138
 6519TIP3    H141116   3.364   4.879   0.351  1.1976  0.2803  1.7768
 6519TIP3    H241117   3.460   4.989   0.309  0.5539  0.0397 -0.4778
 6520TIP3   OH241118   4.762   3.805   7.992 -0.4577  0.2542  0.6062
 6520TIP3    H141119   4.784   3.746   7.920  0.5229  0.5562  0.6406
 6520TIP3    H241120   4.667   3.810   7.991 -0.4393  1.1393 -1.4063
 6521TIP3   OH241121   1.861   1.966   7.751  0.1064  0.6485  0.1090
 6521TIP3    H141122   1.775   2.005   7.736  0.0485  0.2497 -0.6551
 6521TIP3    H241123   1.897   2.015   7.825 -0.4970  1.2685  0.0040
 6522TIP3   OH241124   6.496   1.366   1.360 -0.2589 -0.5467  0.5619
 6522TIP3    H141125   6.492   1.340   1.268 -1.3771  0.4300  0.3075
 6522TIP3    H241126   6.413   1.412   1.375  0.6474  0.8278  1.5748
 6523TIP3   OH241127   5.220   5.543   8.344  0.3099 -0.0808 -0.3465
 6523TIP3    H141128   5.219   5.526   8.438 -0.0232 -0.1847 -0.3686
 6523TIP3    H241129   5.146   5.493   8.310  0.8375 -0.5999 -0.7587
 6524TIP3   OH241130   0.274   2.552   2.024  0.2289  0.2607 -0.1261
 6524TIP3    H141131   0.285   2.479   2.085 -1.5545  0.5146  0.5369
 6524TIP3    H241132   0.192   2.534   1.978  1.2076  0.4060 -2.0404
 6525TIP3   OH241133   3.983   5.498   8.415 -0.0476  0.3151 -0.4240
 6525TIP3    H141134   4.016   5.579   8.455  2.0981 -0.4746 -0.4564
 6525TIP3    H241135   4.035   5.488   8.335 -1.3721 -0.3124 -1.2400
 6526TIP3   OH241136   1.261   4.426   8.115 -0.1877  0.1639  0.3914
 6526TIP3    H141137   1.311   4.475   8.050  0.3565  0.5309  1.0679
 6526TIP3    H241138   1.192   4.382   8.065 -0.8353  1.7963 -0.1902
 6527TIP3   OH241139   2.697   4.206   7.408 -0.2168  0.5086  0.0426
 6527TIP3    H141140   2.700   4.160   7.324 -1.2183 -0.1904  0.3690
 6527TIP3    H241141   2.694   4.298   7.384 -0.0052  0.3403 -0.6725
 6528TIP3   OH241142   0.264   5.856   0.107 -0.3773 -0.2122  0.2297
 6528TIP3    H141143   0.193   5.844   0.044 -0.4125 -0.5146  0.3252
 6528TIP3    H241144   0.341   5.818   0.065 -0.7716 -2.0326  1.0751
 6529TIP3   OH241145   3.337   4.592   8.454 -0.5792  0.3308  0.7463
 6529TIP3    H141146   3.327   4.556   8.542 -2.5845 -1.3707 -0.0914
 6529TIP3    H241147   3.425   4.565   8.428 -0.5930 -0.6480  1.6168
 6530TIP3   OH241148   1.963   3.821   8.503 -0.1268 -0.2602  0.0352
 6530TIP3    H141149   1.876   3.783   8.521 -0.1831 -1.5942 -2.6024
 6530TIP3    H241150   1.953   3.864   8.418  2.2382 -2.2073 -1.3430
 6531TIP3   OH241151   3.905   0.987   7.764 -0.8419 -0.3997  0.4620
 6531TIP3    H141152   3.965   0.919   7.731  0.4499  0.3512  1.1904
 6531TIP3    H241153   3.881   0.958   7.852  0.3644  0.4546  1.0975
 6532TIP3   OH241154   4.947   6.320   6.767  0.6761  0.3545 -0.4217
 6532TIP3    H141155   4.879   6.280   6.713  2.4056 -0.1647 -2.2954
 6532TIP3    H241156   4.953   6.411   6.736  0.8052  0.4233 -0.2019
 6533TIP3   OH241157   2.397   2.037   1.083  0.1670 -0.7392  0.5624
 6533TIP3    H141158   2.445   1.954   1.089 -0.1446 -1.0923 -1.1590
 6533TIP3    H241159   2.350   2.031   0.999 -0.7289  0.7264  0.9230
 6534TIP3   OH241160   2.085   6.735   8.235  0.0540  0.3108  0.3413
 6534TIP3    H141161   2.059   6.731   8.327 -0.0300  1.0492  0.3547
 6534TIP3    H241162   2.025   6.676   8.190 -0.9862  1.2002  0.5204
 6535TIP3   OH241163   4.031   6.727   7.812 -0.4445 -0.0522  0.3362
 6535TIP3    H141164   4.112   6.730   7.761 -0.5227  0.5645  0.2340
 6535TIP3    H241165   3.965   6.765   7.754 -0.4914  0.8721  0.9630
 6536TIP3   OH241166   1.071   2.711   0.234  0.5418  0.2196 -0.4640
 6536TIP3    H141167   0.984   2.741   0.260  0.7906  0.3518  0.2369
 6536TIP3    H241168   1.080   2.739   0.143 -0.2327  0.0031 -0.6141
 6537TIP3   OH241169   4.027   5.435   0.302 -0.8881 -0.4633 -0.5133
 6537TIP3    H141170   3.962   5.407   0.367  1.1927 -1.2837  1.3579
 6537TIP3    H241171   3.988   5.412   0.218 -2.9559 -1.0215  0.5109
 6538TIP3   OH241172   4.123   6.205   1.051 -0.8583  0.0621 -0.1231
 6538TIP3    H141173   4.110   6.156   1.132  1.2752 -1.4006 -0.6009
 6538TIP3    H241174   4.044   6.188   1.000 -0.7894 -1.7367  0.3146
 6539TIP3   OH241175   6.581   5.228   7.480  0.3067  0.4001  0.4803
 6539TIP3    H141176   6.584   5.240   7.575  1.3754  0.5228  0.4456
 6539TIP3    H241177   6.575   5.317   7.445  2.1698  0.5467  0.3971
 6540TIP3   OH241178   6.346   4.274   1.618 -0.4008 -0.5941 -0.2484
 6540TIP3    H141179   6.377   4.215   1.549  2.1740  0.9171 -0.5110
 6540TIP3    H241180   6.316   4.352   1.572  0.1001 -0.0918  0.2616
 6541TIP3   OH241181   4.494   0.777   2.591 -0.1546  0.0508 -0.1573
 6541TIP3    H141182   4.465   0.742   2.675  0.0086 -0.6500 -0.3907
 6541TIP3    H241183   4.542   0.857   2.614  1.5995 -1.1552  0.6047
 6542TIP3   OH241184   4.979   4.591   0.545 -0.1416  0.2064 -0.8465
 6542TIP3    H141185   4.954   4.539   0.621  1.6752  1.5469  0.7749
 6542TIP3    H241186   4.962   4.534   0.470  0.4428 -2.1634  0.7131
 6543TIP3   OH241187   2.395   5.525   7.409 -0.4708 -0.5023 -0.7916
 6543TIP3    H141188   2.322   5.475   7.373 -0.5708  1.1090 -3.0508
 6543TIP3    H241189   2.473   5.480   7.375 -0.3223 -2.0445  1.3766
 6544TIP3   OH241190   5.363   3.544   0.006  0.2382  0.2137 -0.1512
 6544TIP3    H141191   5.407   3.536  -0.079  0.2914  1.3574 -0.2418
 6544TIP3    H241192   5.304   3.619  -0.004 -1.3131 -0.8981  0.1601
 6545TIP3   OH241193   0.571   3.967   7.852 -0.2129  0.0700  0.1606
 6545TIP3    H141194   0.651   3.960   7.904 -1.6929 -2.7206  2.3511
 6545TIP3    H241195   0.589   3.919   7.772  0.1424 -1.1541  0.9463
 6546TIP3   OH241196   0.808   6.095   2.227  0.1122  0.1839  0.5037
 6546TIP3    H141197   0.898   6.117   2.199  0.3909  0.5721  1.6733
 6546TIP3    H241198   0.752   6.138   2.162  0.7635 -0.0111 -0.2052
 6547TIP3   OH241199   4.716   2.062   1.272 -0.7093 -0.4739  0.6388
 6547TIP3    H141200   4.708   1.968   1.255 -1.9127 -0.5481  1.5035
 6547TIP3    H241201   4.685   2.104   1.191 -0.6746 -0.8172  0.4445
 6548TIP3   OH241202   6.728   3.329   2.858  0.2443  0.2018  0.0240
 6548TIP3    H141203   6.693   3.314   2.945 -1.8183 -0.4185 -0.8486
 6548TIP3    H241204   6.751   3.241   2.826  2.0187  0.5271  0.3076
 6549TIP3   OH241205   6.665   5.392   8.391  0.3373 -0.7749  0.0696
 6549TIP3    H141206   6.703   5.305   8.402  1.0863 -0.6126 -1.0715
 6549TIP3    H241207   6.593   5.379   8.329  0.4528 -0.5845 -0.1056
 6550TIP3   OH241208   2.891   3.798   1.976 -0.4324  0.1711  0.5211
 6550TIP3    H141209   2.978   3.806   1.937 -0.3156 -0.5903  0.6087
 6550TIP3    H241210   2.834   3.849   1.919 -0.2459 -0.8231 -0.6077
 6551TIP3   OH241211   2.688   2.909   0.756 -0.0687 -0.1619  0.1141
 6551TIP3    H141212   2.616   2.861   0.715 -1.7326  0.4790  2.1726
 6551TIP3    H241213   2.648   2.987   0.794  1.8783  0.6932  0.5767
 6552TIP3   OH241214   0.021   6.442   0.172 -0.0164 -0.2118 -0.1424
 6552TIP3    H141215  -0.066   6.469   0.202  0.2286 -0.2189  0.5904
 6552TIP3    H241216   0.004   6.392   0.092 -0.5151  1.7783 -1.3393
 6553TIP3   OH241217   1.699   5.579   1.228 -0.0930  0.5465  0.7772
 6553TIP3    H141218   1.733   5.657   1.272 -1.4844  1.4658  0.2762
 6553TIP3    H241219   1.604   5.587   1.234 -0.2695 -1.5576  1.4504
 6554TIP3   OH241220   3.594   4.501   0.775 -0.2311  0.5638 -0.2224
 6554TIP3    H141221   3.534   4.437   0.815 -0.6708  1.8048  1.2244
 6554TIP3    H241222   3.622   4.460   0.693 -1.0603 -1.1521  0.2987
 6555TIP3   OH241223   4.290   3.869   0.644  0.2029  0.2322 -0.6551
 6555TIP3    H141224   4.349   3.899   0.575 -0.1248 -1.0823 -1.5542
 6555TIP3    H241225   4.257   3.785   0.612 -1.2728  0.3929  0.3463
 6556TIP3   OH241226   1.255   6.428   8.081  0.1654 -0.0171  0.0126
 6556TIP3    H141227   1.206   6.412   8.161  1.3103  1.2999  1.0113
 6556TIP3    H241228   1.283   6.340   8.052  0.1822 -0.4687  1.3497
 6557TIP3   OH241229   1.735   0.690   3.192 -0.4315  0.6764 -0.2245
 6557TIP3    H141230   1.750   0.599   3.217 -2.2266  0.6729  0.9928
 6557TIP3    H241231   1.675   0.684   3.117 -0.9276  0.8569  0.1553
 6558TIP3   OH241232   2.663   1.627   0.297  0.4704 -0.0587  0.1574
 6558TIP3    H141233   2.647   1.543   0.252 -2.4094  0.4159  0.1415
 6558TIP3    H241234   2.632   1.693   0.235  0.5229  0.8820  1.1203
 6559TIP3   OH241235   5.718   2.694   7.837  0.0810  0.4866 -0.2733
 6559TIP3    H141236   5.736   2.752   7.764 -2.0863  1.7851  0.1329
 6559TIP3    H241237   5.690   2.752   7.908 -0.0525 -0.8957  0.8607
 6560TIP3   OH241238   4.109   2.060   8.575 -0.0879  0.1502 -0.4027
 6560TIP3    H141239   4.137   2.078   8.485 -1.8787  1.5549 -0.7264
 6560TIP3    H241240   4.139   2.136   8.625  0.7083 -0.5242  0.1925
 6561TIP3   OH241241   3.020   4.949   1.817 -0.7705 -1.2446 -0.2883
 6561TIP3    H141242   2.984   5.009   1.752 -1.9102  2.1048  3.0706
 6561TIP3    H241243   3.112   4.976   1.826 -0.2529 -2.5378 -1.2060
 6562TIP3   OH241244   4.446   5.376   8.539 -0.4828  0.1768 -0.0288
 6562TIP3    H141245   4.531   5.358   8.581  0.2310  0.2442 -1.4079
 6562TIP3    H241246   4.383   5.374   8.612  0.8712  1.5808  1.2634
 6563TIP3   OH241247   5.157   2.704   2.067  0.7456  0.0533 -0.4566
 6563TIP3    H141248   5.186   2.755   1.992  2.3672 -1.0493 -0.6378
 6563TIP3    H241249   5.237   2.665   2.102 -0.0820 -0.1669  1.3257
 6564TIP3   OH241250   5.209   1.251   0.345  0.0300 -0.2515  0.0255
 6564TIP3    H141251   5.272   1.181   0.362  1.5236  0.6813 -1.3425
 6564TIP3    H241252   5.263   1.328   0.326 -1.4936  0.4131 -2.0088
 6565TIP3   OH241253   2.371   5.598   2.488 -0.3373 -0.7518  0.4056
 6565TIP3    H141254   2.460   5.631   2.496 -0.6507  0.0277  0.8000
 6565TIP3    H241255   2.320   5.651   2.549 -1.2459 -0.5176 -0.5299
 6566TIP3   OH241256   4.791   6.188   1.695  0.1062 -0.2923 -0.5742
 6566TIP3    H141257   4.713   6.167   1.746  0.5344  1.4343  0.9252
 6566TIP3    H241258   4.798   6.284   1.700  3.2579 -0.4507  0.9721
 6567TIP3   OH241259   1.738   2.914   7.382  0.3587 -0.5834 -0.1387
 6567TIP3    H141260   1.830   2.927   7.358  0.3013 -2.3551 -1.6053
 6567TIP3    H241261   1.689   2.963   7.316  0.2436 -0.3923  0.0879
 6568TIP3   OH241262   5.652   3.608   1.074 -0.0347 -0.0593 -0.0536
 6568TIP3    H141263   5.633   3.568   1.160 -0.5134  0.0197 -0.1214
 6568TIP3    H241264   5.699   3.540   1.026  4.0023  1.2088  1.6828
 6569TIP3   OH241265   1.751   2.620   1.559  0.4463  0.6507 -0.1998
 6569TIP3    H141266   1.720   2.558   1.625 -0.9009 -0.4460 -1.8122
 6569TIP3    H241267   1.711   2.703   1.584 -1.5043 -0.1281 -0.5838
 6570TIP3   OH241268   5.129   3.615   7.956  0.2211 -0.1161  0.4152
 6570TIP3    H141269   5.104   3.686   7.897 -0.4002  0.5614  1.4789
 6570TIP3    H241270   5.133   3.655   8.043  0.5104 -1.2332  0.9356
 6571TIP3   OH241271   5.000   4.579   8.505 -0.2477 -0.5076 -0.0077
 6571TIP3    H141272   5.095   4.570   8.499 -0.1396  0.2319  0.3804
 6571TIP3    H241273   4.967   4.547   8.421  0.6183  2.5046 -1.6549
 6572TIP3   OH241274   5.231   4.126   8.156 -0.3557 -0.6548  0.2189
 6572TIP3    H141275   5.139   4.130   8.184 -0.5302 -1.2179 -0.2487
 6572TIP3    H241276   5.229   4.148   8.063  0.1510  0.6123  0.4892
 6573TIP3   OH241277   3.797   5.841   0.823 -0.1351  0.8741  0.1142
 6573TIP3    H141278   3.768   5.871   0.737 -1.2219 -1.4714 -0.4086
 6573TIP3    H241279   3.716   5.834   0.874  0.2619  0.2319  0.6665
 6574TIP3   OH241280   2.729   1.651   7.898 -0.4291 -0.1215  0.1569
 6574TIP3    H141281   2.739   1.598   7.977  2.9325  0.3004  0.1572
 6574TIP3    H241282   2.792   1.613   7.836  1.4590  3.1313 -0.1608
 6575TIP3   OH241283   2.557   6.138   6.511 -0.0804 -0.2625  0.3966
 6575TIP3    H141284   2.527   6.229   6.520 -0.8292 -0.4242 -0.3679
 6575TIP3    H241285   2.542   6.117   6.419  0.5384 -1.0121  0.4591
 6576TIP3   OH241286   0.874   4.652   0.874  0.0967  0.0334  0.2862
 6576TIP3    H141287   0.832   4.583   0.822 -2.2022  1.3468  0.2267
 6576TIP3    H241288   0.830   4.648   0.959 -1.2634  2.3077 -0.2014
 6577TIP3   OH241289   1.335   5.638   0.448 -0.3019  0.2489  0.2159
 6577TIP3    H141290   1.312   5.560   0.398 -0.9650  0.8992 -0.5143
 6577TIP3    H241291   1.416   5.614   0.493  0.5581 -0.2068 -1.4895
 6578TIP3   OH241292   2.439   3.080   0.716 -0.2501  0.2173  0.1056
 6578TIP3    H141293   2.425   2.995   0.674  1.9696 -0.3539  0.3791
 6578TIP3    H241294   2.403   3.069   0.804  2.4376 -1.5025  1.1256
 6579TIP3   OH241295   6.150   5.775   2.339 -0.5650  0.2696 -0.4914
 6579TIP3    H141296   6.233   5.802   2.379  0.2640  0.4823 -2.2662
 6579TIP3    H241297   6.162   5.682   2.319 -0.1750  0.6230 -2.0351
 6580TIP3   OH241298   3.935   5.095   0.079  0.1862 -0.2281  0.3532
 6580TIP3    H141299   3.962   5.010   0.115 -0.3851 -1.6403 -2.3117
 6580TIP3    H241300   3.844   5.082   0.054  0.5557  0.6221 -1.5689
 6581TIP3   OH241301   5.144   3.718   0.604 -0.3432  0.0418  0.0076
 6581TIP3    H141302   5.160   3.726   0.698 -0.8014  0.4177  0.0556
 6581TIP3    H241303   5.049   3.725   0.594 -0.1547  3.0990 -0.7416
 6582TIP3   OH241304   4.632   6.173   7.593  0.0763 -0.0035  0.3201
 6582TIP3    H141305   4.617   6.188   7.687 -1.4611 -0.0576  0.1234
 6582TIP3    H241306   4.724   6.150   7.587  0.5866  1.4408  1.6320
 6583TIP3   OH241307   6.630   4.204   8.592  0.5904 -0.4632  0.5526
 6583TIP3    H141308   6.570   4.226   8.664 -0.3915 -0.6594 -0.1915
 6583TIP3    H241309   6.579   4.148   8.534  0.0710  2.5110 -2.1918
 6584TIP3   OH241310   2.649   3.153   0.945  0.1480  0.0270 -0.7328
 6584TIP3    H141311   2.664   3.167   1.039  0.2290 -1.6375 -0.4589
 6584TIP3    H241312   2.604   3.232   0.915  0.9978  1.0130  0.4920
 6585TIP3   OH241313   6.703   0.594   8.185  0.0881 -0.0817  0.5049
 6585TIP3    H141314   6.714   0.570   8.277 -1.0787  2.5280  1.4330
 6585TIP3    H241315   6.768   0.663   8.171 -2.1181  2.1843  0.5824
 6586TIP3   OH241316   3.815   3.984   0.244 -0.0211  0.7834 -0.1474
 6586TIP3    H141317   3.760   3.979   0.166  0.0322 -0.2831 -0.1416
 6586TIP3    H241318   3.874   4.057   0.228  1.3877 -0.6911 -2.0568
 6587TIP3   OH241319   2.279   3.235   0.324  0.3794 -0.1135 -0.2490
 6587TIP3    H141320   2.316   3.313   0.366  0.9933  0.4930 -1.8280
 6587TIP3    H241321   2.342   3.165   0.343  0.0281 -0.1477  0.8396
 6588TIP3   OH241322   2.876   4.792   0.347  0.2251 -0.9915 -0.0078
 6588TIP3    H141323   2.797   4.814   0.297 -0.6414 -1.4583  1.1333
 6588TIP3    H241324   2.927   4.738   0.287 -1.5712 -2.9790  0.1436
 6589TIP3   OH241325   1.347   2.980   1.249  0.1453  1.1070  0.5586
 6589TIP3    H141326   1.379   2.909   1.305  0.3499  1.7451  1.2777
 6589TIP3    H241327   1.270   3.014   1.295  0.9431  2.3428  1.0282
 6590TIP3   OH241328   1.220   6.447   2.204 -0.0203 -0.6568 -0.2952
 6590TIP3    H141329   1.224   6.353   2.220  2.0104 -0.4596  0.7271
 6590TIP3    H241330   1.271   6.460   2.124 -1.3826 -0.5269 -1.1729
 6591TIP3   OH241331   1.523   3.142   7.068 -0.3543  0.5879  0.1474
 6591TIP3    H141332   1.616   3.120   7.065  0.0926  2.4143 -0.9410
 6591TIP3    H241333   1.490   3.119   6.982 -1.0326 -0.3962  0.6489
 6592TIP3   OH241334   1.566   2.543   2.422 -0.3003 -0.2355 -0.3265
 6592TIP3    H141335   1.587   2.636   2.422  0.7701 -0.4635 -0.1749
 6592TIP3    H241336   1.631   2.504   2.363 -1.0134 -0.8292 -0.7329
 6593TIP3   OH241337   4.615   5.498   1.878  0.0687 -0.4551 -0.5468
 6593TIP3    H141338   4.600   5.458   1.792  0.2623  1.2741 -1.4294
 6593TIP3    H241339   4.694   5.552   1.866  0.2190 -0.3447  0.7771
 6594TIP3   OH241340   2.742   5.190   7.150  0.0905  0.3644 -0.0996
 6594TIP3    H141341   2.792   5.222   7.074 -1.4505  1.5006 -0.6870
 6594TIP3    H241342   2.790   5.223   7.226  1.1266  0.0205 -0.5845
 6595TIP3   OH241343   1.831   5.663   2.354  0.8826  0.0607 -0.3353
 6595TIP3    H141344   1.847   5.590   2.413  2.4253  0.4146 -0.2723
 6595TIP3    H241345   1.795   5.732   2.410 -0.2286 -0.4983 -0.3310
 6596TIP3   OH241346   4.302   6.274   1.703 -0.5087  1.1070  0.5735
 6596TIP3    H141347   4.377   6.254   1.759 -0.1604  0.3260 -0.1473
 6596TIP3    H241348   4.244   6.327   1.758  0.5483  1.6935  1.1530
 6597TIP3   OH241349   6.577   0.978   0.689 -0.0219  0.2708 -0.1473
 6597TIP3    H141350   6.545   1.044   0.749  0.1649  1.4238 -1.2721
 6597TIP3    H241351   6.672   0.991   0.686  0.1371 -0.6773  0.3334
 6598TIP3   OH241352   6.696   5.006   7.040  0.1484 -0.2958  0.2036
 6598TIP3    H141353   6.701   5.074   6.973  1.2893  0.6322  1.1772
 6598TIP3    H241354   6.608   4.969   7.031 -0.6303  1.5575 -0.1397
 6599TIP3   OH241355   0.698   3.496   1.766 -0.0428 -0.4783 -0.4940
 6599TIP3    H141356   0.737   3.574   1.726  3.0645 -0.6824  1.7504
 6599TIP3    H241357   0.638   3.462   1.700 -0.5503  3.0619 -2.0484
 6600TIP3   OH241358   1.536   1.228   0.681 -0.7916 -0.1927  0.6658
 6600TIP3    H141359   1.478   1.162   0.643 -1.1206 -0.1378  1.0588
 6600TIP3    H241360   1.615   1.180   0.705 -1.1817 -0.5308  1.3053
 6601TIP3   OH241361   0.139   4.283   1.419  0.1659 -0.1112  0.8076
 6601TIP3    H141362   0.162   4.334   1.342 -0.5836 -1.9309 -0.6906
 6601TIP3    H241363   0.049   4.255   1.403  0.8646 -2.7398  1.0306
 6602TIP3   OH241364   5.423   0.525   7.823 -0.3506  0.6664  0.0150
 6602TIP3    H141365   5.356   0.549   7.887 -1.1350  1.2709 -0.9898
 6602TIP3    H241366   5.416   0.592   7.755  2.3920  1.7019  0.6410
 6603TIP3   OH241367   5.560   2.426   8.122  0.1798 -0.1119  0.1336
 6603TIP3    H141368   5.620   2.366   8.166  0.1959  0.4604  0.8890
 6603TIP3    H241369   5.474   2.386   8.134  0.0371  0.5986  1.6643
 6604TIP3   OH241370   3.416   2.643   7.293  0.0838 -0.1201 -0.0353
 6604TIP3    H141371   3.396   2.730   7.259 -1.8638 -0.0291  1.1462
 6604TIP3    H241372   3.459   2.659   7.377 -1.3509 -0.2212  0.7610
 6605TIP3   OH241373   3.330   0.812   1.139 -0.3936 -0.2368 -0.1379
 6605TIP3    H141374   3.379   0.836   1.061  1.8634 -0.5210  1.1152
 6605TIP3    H241375   3.382   0.845   1.212 -0.1081 -3.6717  1.4254
 6606TIP3   OH241376   2.839   5.342   7.416 -0.4234  0.0452 -0.0485
 6606TIP3    H141377   2.784   5.420   7.416 -0.1667  0.3043  2.2891
 6606TIP3    H241378   2.922   5.370   7.378 -0.8014  0.5410 -0.5107
 6607TIP3   OH241379   1.643   4.180   7.531  0.1533 -0.1227  0.1660
 6607TIP3    H141380   1.666   4.166   7.440 -0.2284 -0.9368  0.1856
 6607TIP3    H241381   1.580   4.111   7.551  0.4168 -0.1053  1.1163
 6608TIP3   OH241382   2.970   1.286   0.035 -0.5697 -0.7085  0.2284
 6608TIP3    H141383   3.018   1.207   0.062  2.5951  1.1966  0.6332
 6608TIP3    H241384   3.024   1.359   0.066 -2.9052  1.6644 -0.9037
 6609TIP3   OH241385   5.567   5.819   7.410 -0.6966  0.2744  0.0283
 6609TIP3    H141386   5.625   5.775   7.473 -1.3749 -0.2084  0.3323
 6609TIP3    H241387   5.609   5.805   7.325 -0.2286  0.1674  0.2702
 6610TIP3   OH241388   3.442   4.822   8.309 -0.2891 -0.2580 -0.1837
 6610TIP3    H141389   3.417   4.757   8.375 -4.8589  0.7367 -0.5910
 6610TIP3    H241390   3.452   4.771   8.228  1.2462 -0.9951  0.4461
 6611TIP3   OH241391   2.727   6.043   0.689  0.1180 -0.6035 -0.2862
 6611TIP3    H141392   2.724   5.954   0.654  1.5440 -0.9200  0.3096
 6611TIP3    H241393   2.811   6.047   0.735  0.2477  1.1675 -0.6081
 6612TIP3   OH241394   1.766   2.514   7.659 -0.3837  0.2785  0.1629
 6612TIP3    H141395   1.814   2.512   7.576  0.3590 -0.6860  0.5962
 6612TIP3    H241396   1.742   2.606   7.670 -0.5009  0.4289 -1.1108
 6613TIP3   OH241397   3.488   0.958   1.843 -0.2096 -0.1237  0.7033
 6613TIP3    H141398   3.563   0.903   1.821 -0.3324 -0.6456  1.5488
 6613TIP3    H241399   3.489   0.963   1.939 -2.2112 -1.5267  0.8550
 6614TIP3   OH241400   0.244   3.071   0.253 -0.5112 -0.2133  0.0095
 6614TIP3    H141401   0.282   3.008   0.191 -0.4812  0.6893 -0.9186
 6614TIP3    H241402   0.319   3.112   0.295 -0.5267 -0.6587  0.4731
 6615TIP3   OH241403   2.494   1.876   1.977  0.5982  0.1193  0.4047
 6615TIP3    H141404   2.532   1.804   2.027  0.0539  0.3549  1.1767
 6615TIP3    H241405   2.468   1.940   2.043  1.2606  1.1258 -0.2745
 6616TIP3   OH241406   6.412   5.426   2.144 -0.4630 -1.0301  0.6596
 6616TIP3    H141407   6.473   5.382   2.085  0.7678  1.8912 -0.4355
 6616TIP3    H241408   6.457   5.427   2.228 -0.7139 -2.1738  0.8309
 6617TIP3   OH241409   0.471   4.222   6.464  0.6605  0.2490 -0.1766
 6617TIP3    H141410   0.504   4.160   6.399  2.4100 -0.8617  1.6662
 6617TIP3    H241411   0.378   4.201   6.473  0.6193 -0.2400 -1.5527
 6618TIP3   OH241412   4.876   0.862   8.187 -0.2533 -0.5104 -0.2119
 6618TIP3    H141413   4.954   0.875   8.134  0.3004  0.2907  0.7473
 6618TIP3    H241414   4.820   0.938   8.166  0.4384  0.4034  1.1010
 6619TIP3   OH241415   4.625   4.839   1.698  0.0310 -0.2111 -0.6742
 6619TIP3    H141416   4.631   4.934   1.706 -0.2184 -0.2749  0.3588
 6619TIP3    H241417   4.574   4.826   1.618  2.0248  0.4688 -2.1358
 6620TIP3   OH241418   6.507   3.998   8.466 -0.9579  0.0051  0.0640
 6620TIP3    H141419   6.524   3.915   8.422  0.6975  0.4386 -0.2043
 6620TIP3    H241420   6.500   4.062   8.395  1.4010  0.6535  0.3058
 6621TIP3   OH241421   5.090   6.142   7.586  0.0647  0.1405  0.4017
 6621TIP3    H141422   5.148   6.072   7.556  2.0857  0.4375  3.1459
 6621TIP3    H241423   5.008   6.127   7.540  1.3771 -2.1364 -1.4372
 6622TIP3   OH241424   4.492   4.410   2.345  1.0607  0.2052 -0.9855
 6622TIP3    H141425   4.427   4.340   2.339  1.3711 -0.3167  0.9351
 6622TIP3    H241426   4.566   4.379   2.293  0.8947 -0.5418 -0.7821
 6623TIP3   OH241427   3.616   3.143   0.796  0.2520  0.8327  0.2455
 6623TIP3    H141428   3.642   3.231   0.770  0.1860  0.9587  0.6060
 6623TIP3    H241429   3.697   3.102   0.826  0.1723  0.9742  0.6552
 6624TIP3   OH241430   6.565   5.017   0.842 -0.1481  0.6246 -0.0888
 6624TIP3    H141431   6.573   5.013   0.937 -0.0202  0.2186 -0.1136
 6624TIP3    H241432   6.654   5.029   0.810  0.1498 -1.5951 -0.2571
 6625TIP3   OH241433   2.561   5.022   1.885  0.3924 -0.4794 -0.1360
 6625TIP3    H141434   2.514   5.042   1.804 -1.9199 -0.4676  1.1101
 6625TIP3    H241435   2.526   5.084   1.949  1.3763 -1.1702  1.1325
 6626TIP3   OH241436   4.486   3.724   8.538 -0.1747 -0.3760  0.0076
 6626TIP3    H141437   4.489   3.629   8.526  1.8468 -0.3928  0.2031
 6626TIP3    H241438   4.432   3.756   8.466 -1.2871 -1.6892  0.2210
 6627TIP3   OH241439   0.939   1.759   8.111  0.5459 -0.3423 -0.1771
 6627TIP3    H141440   1.033   1.749   8.126  0.8516  1.9990 -0.1586
 6627TIP3    H241441   0.932   1.771   8.016  0.7254  2.7019  0.0930
 6628TIP3   OH241442   3.771   0.492   8.233  0.4320  0.2194  0.5719
 6628TIP3    H141443   3.764   0.493   8.137 -1.6190  0.1245  0.6810
 6628TIP3    H241444   3.731   0.410   8.259 -0.7255  1.0911  1.6069
 6629TIP3   OH241445   0.078   4.108   1.078  0.3683  0.6869 -0.0111
 6629TIP3    H141446   0.029   4.190   1.076  0.8151  0.9462 -1.8705
 6629TIP3    H241447   0.169   4.134   1.068  0.7735  0.0882  1.7593
 6630TIP3   OH241448   5.734   2.224   0.380  0.0065  0.0468  0.7571
 6630TIP3    H141449   5.709   2.265   0.463 -0.9027  0.5507  0.2408
 6630TIP3    H241450   5.752   2.298   0.321  0.5629 -0.3051  0.4742
 6631TIP3   OH241451   4.377   1.130   0.267  0.2070  0.5985 -0.2730
 6631TIP3    H141452   4.350   1.161   0.181 -1.1969 -0.3348 -0.2126
 6631TIP3    H241453   4.386   1.035   0.256  0.5531  0.5377  0.4736
 6632TIP3   OH241454   4.957   3.051   1.505 -0.0997  0.3280  0.0298
 6632TIP3    H141455   5.048   3.080   1.500 -0.1194  0.8660  1.9757
 6632TIP3    H241456   4.920   3.101   1.577 -1.2522 -1.6696  0.9075
 6633TIP3   OH241457   2.807   2.349   7.792  0.1471  0.7582 -0.1322
 6633TIP3    H141458   2.773   2.341   7.703 -0.1717  0.4327  0.0195
 6633TIP3    H241459   2.898   2.319   7.786 -0.3470 -0.7948 -0.0320
 6634TIP3   OH241460   4.690   4.874   0.224  0.3148  0.3667  0.3045
 6634TIP3    H141461   4.657   4.938   0.287  1.0755  0.9390  0.1467
 6634TIP3    H241462   4.632   4.798   0.233 -0.0948  0.7623  1.0888
 6635TIP3   OH241463   5.426   1.005   1.111 -0.2676  0.1680 -0.0456
 6635TIP3    H141464   5.508   0.971   1.146 -0.1498  1.8950  1.4786
 6635TIP3    H241465   5.379   0.928   1.080  1.6696 -0.9106 -0.4316
 6636TIP3   OH241466   0.916   2.035   1.597 -0.4033  0.1565  0.6470
 6636TIP3    H141467   0.882   2.025   1.508  0.0621  1.2019  0.3386
 6636TIP3    H241468   0.958   1.951   1.616 -1.3909 -0.4438  0.2830
 6637TIP3   OH241469   0.400   3.664   6.663 -0.0232  0.1139  0.1039
 6637TIP3    H141470   0.437   3.580   6.689  3.7762  2.2467  2.4487
 6637TIP3    H241471   0.327   3.678   6.722  2.2424  0.3668  3.0755
 6638TIP3   OH241472   1.823   2.509   8.148 -0.3052  0.0416 -0.5464
 6638TIP3    H141473   1.910   2.549   8.149  0.2208 -1.0307 -1.0422
 6638TIP3    H241474   1.764   2.578   8.177  0.5827  1.0970 -1.1937
 6639TIP3   OH241475   2.069   1.999   2.839 -0.3320  0.3950  0.4759
 6639TIP3    H141476   1.994   2.058   2.841 -0.5895  0.3449 -2.6376
 6639TIP3    H241477   2.033   1.915   2.810  0.7324  0.0715  0.0408
 6640TIP3   OH241478   1.013   1.425   2.390 -0.5671 -0.1865 -0.5733
 6640TIP3    H141479   0.969   1.385   2.316 -0.6265 -0.9715 -0.1252
 6640TIP3    H241480   1.018   1.519   2.368  0.3369 -0.5368 -2.0298
 6641TIP3   OH241481   0.046   4.266   7.754  0.1494 -0.0983  0.0925
 6641TIP3    H141482   0.133   4.267   7.715  0.9394 -1.3204  1.6787
 6641TIP3    H241483   0.050   4.194   7.818 -2.0140 -0.1539  0.2261
 6642TIP3   OH241484   6.044   2.472   8.548  0.2157  0.0782  0.1672
 6642TIP3    H141485   6.012   2.384   8.570 -0.3671 -0.2578 -1.8879
 6642TIP3    H241486   6.003   2.528   8.614  1.3803 -1.2446  2.1490
 6643TIP3   OH241487   0.966   1.750   1.698 -0.1929 -0.2206 -0.3319
 6643TIP3    H141488   0.910   1.673   1.695 -1.6613  0.7565  0.5745
 6643TIP3    H241489   1.047   1.723   1.655 -1.2155 -1.7949 -1.3478
 6644TIP3   OH241490   4.108   6.226   1.341 -0.6992  0.1962  0.0089
 6644TIP3    H141491   4.164   6.302   1.356 -0.6716  0.0342  0.7599
 6644TIP3    H241492   4.117   6.173   1.420  1.0356 -1.7308 -1.3935
 6645TIP3   OH241493   3.622   2.100   1.854  0.1424  0.3406 -0.3396
 6645TIP3    H141494   3.636   2.018   1.902  1.1773  0.6980  0.0032
 6645TIP3    H241495   3.592   2.072   1.767 -0.8690 -0.3450  0.2097
 6646TIP3   OH241496   5.267   4.241   0.507 -0.5869 -0.6501  0.2724
 6646TIP3    H141497   5.285   4.314   0.567 -2.4352 -0.2415  0.3843
 6646TIP3    H241498   5.226   4.175   0.562  0.1890 -1.3958 -0.0323
 6647TIP3   OH241499   0.156   2.768   7.492  0.2591  0.5192  0.1162
 6647TIP3    H141500   0.176   2.715   7.416  0.2208  1.5957 -0.6726
 6647TIP3    H241501   0.154   2.706   7.565  0.0947 -0.5588 -0.7773
 6648TIP3   OH241502   6.121   5.842   2.872 -0.3698  0.2398 -0.0102
 6648TIP3    H141503   6.143   5.777   2.805 -0.2666  2.0076 -1.7927
 6648TIP3    H241504   6.199   5.845   2.928  0.9870  1.0986 -1.8306
 6649TIP3   OH241505   2.286   0.170   0.089  0.3479  0.5033  0.3810
 6649TIP3    H141506   2.330   0.104   0.143  0.3885  0.1003 -0.1276
 6649TIP3    H241507   2.354   0.235   0.071  1.0878 -0.6626 -1.2974
 6650TIP3   OH241508   1.992   0.983   1.356 -0.5449 -0.1911 -0.5662
 6650TIP3    H141509   1.990   0.913   1.291  1.4545  0.1113 -1.0151
 6650TIP3    H241510   2.050   0.950   1.425  0.2632  0.9413 -0.6877
 6651TIP3   OH241511   2.857   5.514   2.489  0.1773 -0.2821  0.0351
 6651TIP3    H141512   2.948   5.537   2.472  0.5237 -0.8873  1.0013
 6651TIP3    H241513   2.833   5.454   2.419 -0.0879  1.3140 -1.3113
 6652TIP3   OH241514   2.255   2.477   8.061  0.2974  0.4641 -0.2930
 6652TIP3    H141515   2.183   2.535   8.037  0.7966  1.6106  0.8235
 6652TIP3    H241516   2.314   2.478   7.986  0.8037  2.2815  0.0721
 6653TIP3   OH241517   1.371   2.030   0.816  0.8057 -0.2165 -0.1241
 6653TIP3    H141518   1.280   2.052   0.798  0.2910 -0.8509  1.5162
 6653TIP3    H241519   1.377   2.031   0.911  1.7064 -3.2462 -0.0682
 6654TIP3   OH241520   4.545   0.297   2.388  0.2380 -0.0172  0.2968
 6654TIP3    H141521   4.615   0.360   2.409 -1.6794  2.0557  0.8561
 6654TIP3    H241522   4.464   0.342   2.412 -1.2433 -3.1687  1.7863
 6655TIP3   OH241523   4.206   0.277   8.607 -0.0439  0.7878  0.6337
 6655TIP3    H141524   4.285   0.331   8.604  0.0699  0.6808  1.3922
 6655TIP3    H241525   4.210   0.234   8.692 -1.5695  1.7742  1.2505
 6656TIP3   OH241526   2.049   4.520   0.110 -0.0093 -0.0241  0.2483
 6656TIP3    H141527   2.084   4.444   0.157  4.5789  0.4392 -1.8909
 6656TIP3    H241528   2.029   4.487   0.023 -1.5088  0.5502  0.3499
 6657TIP3   OH241529   3.882   0.156   7.833 -0.5112  0.0991 -0.2446
 6657TIP3    H141530   3.918   0.074   7.867 -2.3195 -0.1609  1.1675
 6657TIP3    H241531   3.851   0.134   7.745  2.6462  0.3539 -1.5667
 6658TIP3   OH241532   3.115   0.063   6.848 -0.3901 -0.2382 -0.2567
 6658TIP3    H141533   3.162   0.147   6.847  1.4777 -1.1433  1.9312
 6658TIP3    H241534   3.163   0.009   6.786 -0.7831 -0.1181 -0.6747
 6659TIP3   OH241535   0.652   5.167   0.156 -0.2635  0.3582 -0.0966
 6659TIP3    H141536   0.679   5.120   0.235 -2.1095 -2.4333 -0.9567
 6659TIP3    H241537   0.594   5.106   0.111 -0.9676  2.6632 -2.5811
 6660TIP3   OH241538   1.742   3.155   0.340 -0.1456  0.0167  0.3348
 6660TIP3    H141539   1.830   3.161   0.376  0.3308  1.1020 -0.9105
 6660TIP3    H241540   1.713   3.246   0.332 -0.5757 -0.2234 -1.1479
 6661TIP3   OH241541   0.435   4.831   7.190  0.0226 -0.6674 -0.0994
 6661TIP3    H141542   0.414   4.923   7.205 -0.8674 -0.9715  0.6657
 6661TIP3    H241543   0.475   4.829   7.103 -3.2311  0.0005 -1.7908
 6662TIP3   OH241544   3.846   3.941   6.807  0.4488  0.0749  0.1480
 6662TIP3    H141545   3.905   3.865   6.803 -0.7109 -1.0789  2.7191
 6662TIP3    H241546   3.904   4.016   6.819  1.4880 -0.8694  1.2836
 6663TIP3   OH241547   2.523   2.363   0.324 -0.4875  0.2030 -0.3044
 6663TIP3    H141548   2.445   2.364   0.269 -0.7468 -0.4374  0.0443
 6663TIP3    H241549   2.562   2.276   0.309 -0.9051 -0.2291  0.9952
 6664TIP3   OH241550   3.122   1.066   1.966  0.5201 -0.2084 -0.3944
 6664TIP3    H141551   3.087   1.039   1.882  2.3266 -0.3900 -1.1481
 6664TIP3    H241552   3.188   1.132   1.944  1.6736 -0.9197  0.7751
 6665TIP3   OH241553   6.579   1.631   7.181  0.3326 -0.1066  0.3642
 6665TIP3    H141554   6.623   1.592   7.257 -2.9343  0.9234  3.0296
 6665TIP3    H241555   6.486   1.623   7.200 -0.6982  0.1709 -3.6812
 6666TIP3   OH241556   1.154   0.164   7.762 -0.1761 -0.0696  0.7836
 6666TIP3    H141557   1.151   0.068   7.766 -0.1033 -0.0340  2.2901
 6666TIP3    H241558   1.069   0.192   7.798 -0.2801  0.4343  0.1563
 6667TIP3   OH241559   1.704   1.653   7.266 -0.2354  0.1363  0.0362
 6667TIP3    H141560   1.735   1.620   7.182  2.4244  0.7444  0.6741
 6667TIP3    H241561   1.610   1.635   7.266  0.1186 -2.2847 -1.9314
 6668TIP3   OH241562   2.248   5.069   2.497 -0.8808  0.0442  0.5011
 6668TIP3    H141563   2.309   5.097   2.429 -1.4518 -0.7105 -0.3401
 6668TIP3    H241564   2.198   4.998   2.457 -2.0025  0.3476  1.3288
 6669TIP3   OH241565   1.757   0.822   8.271  1.0007  0.1501 -0.2061
 6669TIP3    H141566   1.745   0.751   8.208 -0.5428  1.5661 -1.5728
 6669TIP3    H241567   1.671   0.834   8.311  0.9220  1.9756 -0.8325
 6670TIP3   OH241568   0.627   0.753   7.855  0.0801 -0.0808 -0.0613
 6670TIP3    H141569   0.532   0.764   7.863  0.4602  5.3196  0.7484
 6670TIP3    H241570   0.642   0.739   7.762 -1.4551  0.4713 -0.4183
 6671TIP3   OH241571   1.600   2.698   2.099  0.3477  0.1876 -0.0860
 6671TIP3    H141572   1.655   2.744   2.036  2.4039 -3.8702 -1.6041
 6671TIP3    H241573   1.635   2.723   2.184  1.4072  1.2946 -0.8109
 6672TIP3   OH241574   6.385   4.017   7.858 -0.0430 -0.0168 -0.2330
 6672TIP3    H141575   6.476   4.001   7.883 -0.3833  0.4740  1.4230
 6672TIP3    H241576   6.388   4.096   7.805  0.6186 -0.6565 -1.1758
 6673TIP3   OH241577   1.526   2.194   8.053 -0.9181 -0.2473  0.5411
 6673TIP3    H141578   1.559   2.250   7.984 -0.7528 -0.9946  0.0039
 6673TIP3    H241579   1.554   2.236   8.134  0.6996 -0.4545  0.1177
 6674TIP3   OH241580   0.008   5.376   2.273 -0.7924 -0.3679 -0.3103
 6674TIP3    H141581   0.005   5.288   2.235 -0.1676 -1.1874  1.4099
 6674TIP3    H241582   0.082   5.418   2.230 -0.2165 -1.1992 -0.1634
 6675TIP3   OH241583   3.274   4.579   7.559 -0.8579  0.3077 -0.4963
 6675TIP3    H141584   3.267   4.667   7.595  0.1583 -0.0213  0.5333
 6675TIP3    H241585   3.317   4.591   7.474  2.6462  0.5265  1.1579
 6676TIP3   OH241586   1.192   2.052   7.073 -0.1554  0.2084 -0.1500
 6676TIP3    H141587   1.131   2.084   7.006  1.4336 -0.4275 -1.9720
 6676TIP3    H241588   1.164   2.096   7.153 -2.4593  0.6077 -1.0901
 6677TIP3   OH241589   6.342   0.792   1.637 -0.0996  0.9228 -0.0011
 6677TIP3    H141590   6.355   0.725   1.570 -0.7716  0.2733  0.5083
 6677TIP3    H241591   6.369   0.874   1.594  1.3166  0.2674 -0.4295
 6678TIP3   OH241592   1.265   1.280   0.342  0.1415 -0.1741 -0.1976
 6678TIP3    H141593   1.194   1.280   0.277  0.2253 -1.9590 -0.3323
 6678TIP3    H241594   1.298   1.190   0.342  2.3468  0.5754 -0.0466
 6679TIP3   OH241595   3.123   5.237   8.437  0.3009  0.0120  0.4143
 6679TIP3    H141596   3.100   5.152   8.398 -1.7644  0.8148 -0.2809
 6679TIP3    H241597   3.171   5.214   8.516  0.5892 -1.7854 -0.2172
 6680TIP3   OH241598   0.006   1.890   7.223 -0.1425 -0.0166 -0.7713
 6680TIP3    H141599  -0.025   1.970   7.181 -0.3440  0.5056  0.3517
 6680TIP3    H241600  -0.014   1.820   7.159  0.0671  0.8128 -1.7705
 6681TIP3   OH241601   5.769   6.118   1.234  0.3484 -0.5223  0.1738
 6681TIP3    H141602   5.732   6.120   1.322  1.8149 -0.4732  0.8138
 6681TIP3    H241603   5.707   6.066   1.183 -0.3581 -0.8318  1.3169
 6682TIP3   OH241604   2.297   5.349   2.660 -0.9244  0.0502  0.6155
 6682TIP3    H141605   2.248   5.431   2.661 -2.2513 -0.6589 -0.8743
 6682TIP3    H241606   2.376   5.367   2.711 -0.4223  2.7254 -0.9119
 6683TIP3   OH241607   4.650   4.149   1.869 -0.3661  0.1520 -0.3735
 6683TIP3    H141608   4.699   4.134   1.949  0.6656  1.8886 -0.6265
 6683TIP3    H241609   4.686   4.087   1.806 -0.0681 -0.1248  0.0700
 6684TIP3   OH241610   4.555   5.092   6.944 -0.5281 -0.2643 -0.4699
 6684TIP3    H141611   4.611   5.015   6.943 -1.4294 -0.9380 -0.7191
 6684TIP3    H241612   4.597   5.153   6.884 -0.5632 -1.1276 -1.3985
 6685TIP3   OH241613   5.156   1.983   0.751  0.1684 -0.1497 -0.3664
 6685TIP3    H141614   5.064   1.967   0.729  0.7865 -2.5397 -1.6448
 6685TIP3    H241615   5.199   1.991   0.666  1.4444 -1.3996  0.1110
 6686TIP3   OH241616   6.191   0.218   0.239 -0.4697 -0.2136 -0.1900
 6686TIP3    H141617   6.286   0.231   0.239 -0.2845 -1.4290 -0.4483
 6686TIP3    H241618   6.162   0.248   0.325  0.5689 -2.4705  1.0225
 6687TIP3   OH241619   4.471   4.260   7.855  0.3115  0.2158  1.0450
 6687TIP3    H141620   4.478   4.215   7.939  2.2609  1.4557  1.6203
 6687TIP3    H241621   4.482   4.353   7.877 -0.0504  0.6535 -0.4921
 6688TIP3   OH241622   4.230   5.522   8.279 -0.5087 -0.2559  0.0797
 6688TIP3    H141623   4.279   5.585   8.332 -1.6335  0.3070  0.4904
 6688TIP3    H241624   4.285   5.444   8.277  1.3443  1.0060 -1.1767
 6689TIP3   OH241625   3.821   0.574   8.648  0.0725 -0.2475  0.0895
 6689TIP3    H141626   3.747   0.514   8.640 -0.9455  1.0696 -0.6690
 6689TIP3    H241627   3.861   0.573   8.560 -0.1180  0.3999 -0.0039
 6690TIP3   OH241628   3.009   5.550   1.077  0.2204  0.1436  0.3031
 6690TIP3    H141629   2.917   5.576   1.072  0.0352 -0.0762  1.8877
 6690TIP3    H241630   3.050   5.618   1.132  1.0049  0.2339 -0.3780
 6691TIP3   OH241631   6.672   2.171   1.168  0.6016 -0.6999 -0.0828
 6691TIP3    H141632   6.735   2.142   1.235  1.2850  2.4108  0.7475
 6691TIP3    H241633   6.587   2.147   1.204  1.0935 -1.9422  0.3449
 6692TIP3   OH241634   2.321   2.928   1.840  1.0632 -0.2841 -0.1473
 6692TIP3    H141635   2.403   2.904   1.882  0.8584 -2.9162 -1.0516
 6692TIP3    H241636   2.276   2.844   1.825 -1.5737  1.0107 -0.1377
 6693TIP3   OH241637   1.013   6.196   0.498 -0.1995  0.3041  0.0873
 6693TIP3    H141638   0.930   6.177   0.453 -0.2407 -0.4569  0.4671
 6693TIP3    H241639   0.996   6.172   0.589  0.7809 -0.9267 -0.0316
 6694TIP3   OH241640   1.267   3.947   1.951 -0.3355 -0.5855 -0.2799
 6694TIP3    H141641   1.247   3.868   2.002  0.0638 -0.3973  0.1814
 6694TIP3    H241642   1.315   3.915   1.875  0.6959 -0.7053  0.4063
 6695TIP3   OH241643   2.450   3.877   2.732 -0.0418 -0.2279 -0.6980
 6695TIP3    H141644   2.517   3.905   2.795  0.9175 -1.2215 -1.2365
 6695TIP3    H241645   2.376   3.935   2.748  0.2506 -0.3111  1.1935
 6696TIP3   OH241646   2.543   5.247   2.046 -0.2596  0.1455  0.0925
 6696TIP3    H141647   2.629   5.226   2.081 -1.0964  0.0033  2.2451
 6696TIP3    H241648   2.485   5.244   2.122 -1.6764  3.2004 -0.7102
 6697TIP3   OH241649   3.020   5.523   1.827 -0.2147  0.5839  0.0671
 6697TIP3    H141650   2.969   5.524   1.745  0.0659  0.1638 -0.1181
 6697TIP3    H241651   2.957   5.494   1.893 -1.1290  3.2702  0.5028
 6698TIP3   OH241652   3.983   1.370   1.302  0.2426  0.0287  0.3176
 6698TIP3    H141653   3.907   1.416   1.266 -0.4572 -1.0702  0.3460
 6698TIP3    H241654   4.058   1.421   1.272 -0.4541  0.5807 -0.5455
 6699TIP3   OH241655   2.591   4.306   2.603  0.1433  0.4829  0.4423
 6699TIP3    H141656   2.680   4.280   2.629  0.0915 -0.7681 -0.5422
 6699TIP3    H241657   2.562   4.363   2.674  1.9768  1.4762  0.4701
 6700TIP3   OH241658   5.146   6.593   0.669 -0.0295  0.4460  0.6767
 6700TIP3    H141659   5.195   6.511   0.678 -1.0080 -0.4590 -1.4037
 6700TIP3    H241660   5.212   6.662   0.673  0.7908 -0.3857  2.6750
 6701TIP3   OH241661   2.405   6.454   1.556  0.0785  0.1015  0.2031
 6701TIP3    H141662   2.485   6.477   1.603  0.4296 -0.7907  0.0591
 6701TIP3    H241663   2.354   6.535   1.553 -0.1399  0.1116  2.4681
 6702TIP3   OH241664   6.293   3.820   8.222  0.4149  0.1041 -0.6273
 6702TIP3    H141665   6.370   3.876   8.232  0.2421  0.2687 -0.1734
 6702TIP3    H241666   6.328   3.732   8.212  0.6675  0.2052 -0.6365
 6703TIP3   OH241667   0.876   1.929   0.403  0.2798 -0.3419 -0.2753
 6703TIP3    H141668   0.785   1.959   0.393  0.3710  0.3980  0.9503
 6703TIP3    H241669   0.894   1.882   0.322 -1.6947 -1.8302  0.0592
 6704TIP3   OH241670   0.745   4.649   1.124  0.7601 -0.0550 -0.1392
 6704TIP3    H141671   0.670   4.631   1.068  1.1137 -0.1712 -0.5794
 6704TIP3    H241672   0.775   4.562   1.152  1.6685 -0.1041 -1.2122
 6705TIP3   OH241673   1.185   0.633   1.009 -0.0922 -0.4854 -0.5841
 6705TIP3    H141674   1.138   0.716   1.002  1.1974  0.3870  0.5396
 6705TIP3    H241675   1.197   0.605   0.918 -0.9685  0.3045 -0.9602
 6706TIP3   OH241676   1.384   1.186   1.003 -0.3869  0.1476  0.5899
 6706TIP3    H141677   1.353   1.205   1.091  0.3197  0.4263  0.7905
 6706TIP3    H241678   1.367   1.093   0.991  0.7894 -0.2334  1.5769
 6707TIP3   OH241679   4.690   0.610   1.464  0.9099  0.2261 -0.5716
 6707TIP3    H141680   4.742   0.547   1.514 -1.1229 -0.4048  0.8575
 6707TIP3    H241681   4.728   0.608   1.376  2.2970 -1.3210  0.0200
 6708TIP3   OH241682   2.904   3.090   0.011  0.1224 -0.4747  0.5285
 6708TIP3    H141683   2.930   3.139  -0.067 -1.3764 -0.0953  0.2186
 6708TIP3    H241684   2.811   3.070  -0.004  0.4154 -2.4723  1.1608
 6709TIP3   OH241685   2.305   1.452   8.570  0.3821  0.7385  0.3504
 6709TIP3    H141686   2.320   1.539   8.605 -0.1751  1.3174 -0.7957
 6709TIP3    H241687   2.255   1.466   8.489  1.4262 -0.5428 -0.5670
 6710TIP3   OH241688   6.344   3.825   0.068 -0.6293  0.1787 -0.2717
 6710TIP3    H141689   6.294   3.894   0.024  0.1536  0.0450 -1.4420
 6710TIP3    H241690   6.424   3.869   0.097  0.2300 -0.3571 -1.7127
 6711TIP3   OH241691   3.881   2.606   2.219  0.0245  0.0167 -0.4167
 6711TIP3    H141692   3.946   2.536   2.223  0.4869  0.4522 -0.0862
 6711TIP3    H241693   3.929   2.684   2.246  0.0523  0.8364 -2.6223
 6712TIP3   OH241694   3.543   3.541   2.036 -0.2471 -0.0210  0.1378
 6712TIP3    H141695   3.496   3.473   2.085 -1.8800 -0.0706 -1.3945
 6712TIP3    H241696   3.617   3.495   1.996 -1.8331 -1.2073 -1.6380
 6713TIP3   OH241697   0.654   2.059   8.357  0.3511 -0.0925  0.2578
 6713TIP3    H141698   0.650   2.143   8.404  2.3041  0.4432 -0.3960
 6713TIP3    H241699   0.743   2.027   8.375  2.0354  1.0760 -4.4135
 6714TIP3   OH241700   6.470   0.481   0.585 -0.2711 -0.4423 -0.4070
 6714TIP3    H141701   6.483   0.563   0.633 -0.7670 -0.9666  0.6531
 6714TIP3    H241702   6.436   0.420   0.650 -1.2222 -1.1073 -1.4906
 6715TIP3   OH241703   1.491   0.652   0.914 -0.1805 -0.1810  0.0414
 6715TIP3    H141704   1.411   0.616   0.951 -0.4147  0.7580  0.4859
 6715TIP3    H241705   1.546   0.576   0.895 -1.8788 -0.9977 -1.9742
 6716TIP3   OH241706   4.048   1.677   8.642 -0.3408 -0.4598 -0.6990
 6716TIP3    H141707   4.083   1.668   8.553 -0.0914  0.3125 -0.6835
 6716TIP3    H241708   3.953   1.683   8.630 -0.3379 -0.7393 -0.8789
 6717TIP3   OH241709   1.755   5.322   2.341  0.6688  0.5464  0.0548
 6717TIP3    H141710   1.800   5.380   2.403  0.4801  1.7525 -0.9094
 6717TIP3    H241711   1.686   5.280   2.393  0.6316  1.3927  0.7068
 6718TIP3   OH241712   1.908   3.291   8.014  0.5834  0.9028  0.9983
 6718TIP3    H141713   1.910   3.342   7.933 -1.0324  1.0546  1.0085
 6718TIP3    H241714   1.995   3.253   8.021  0.2988 -0.4637 -1.6723
 6719TIP3   OH241715   0.582   1.333   0.172 -0.2094 -0.3982  0.3939
 6719TIP3    H141716   0.575   1.240   0.194  0.5585 -0.6628 -0.4273
 6719TIP3    H241717   0.562   1.337   0.079  0.9118  0.1048  0.1710
 6720TIP3   OH241718   0.924   3.682   7.546 -0.3660  0.4629 -0.3213
 6720TIP3    H141719   0.982   3.728   7.608  2.0332 -0.3671 -1.8091
 6720TIP3    H241720   0.902   3.748   7.480 -0.7688  0.6573  0.0003
 6721TIP3   OH241721   6.447   4.424   1.068  0.6404 -0.2954 -0.2903
 6721TIP3    H141722   6.500   4.462   0.998  1.4796 -0.5514  0.1804
 6721TIP3    H241723   6.365   4.398   1.026  0.3423  1.3323 -0.7782
 6722TIP3   OH241724   0.093   2.740   8.500 -0.2224 -0.0254 -0.1056
 6722TIP3    H141725   0.020   2.801   8.493 -0.7210 -0.4904  0.8274
 6722TIP3    H241726   0.160   2.775   8.441 -1.2802  0.2724 -1.1658
 6723TIP3   OH241727   6.311   1.530   2.217  0.0042  0.1225 -0.0064
 6723TIP3    H141728   6.323   1.617   2.178  1.2356 -0.0805 -0.1109
 6723TIP3    H241729   6.273   1.547   2.303 -1.2599  0.6650 -0.6463
 6724TIP3   OH241730   6.729   4.201   7.536 -0.3761 -0.0472  0.5863
 6724TIP3    H141731   6.637   4.196   7.561 -0.4097  0.6248  0.6166
 6724TIP3    H241732   6.776   4.217   7.618 -0.3062  0.3081  0.4809
 6725TIP3   OH241733   6.355   1.784   1.047  0.2633 -0.0558 -0.4515
 6725TIP3    H141734   6.436   1.832   1.067 -1.0589  1.6787  1.0631
 6725TIP3    H241735   6.350   1.717   1.115 -0.3341  0.8817  0.4690
 6726TIP3   OH241736   2.932   5.030   7.629  0.2609 -0.1052  0.7017
 6726TIP3    H141737   2.987   5.093   7.675 -1.2027  1.2783  0.6325
 6726TIP3    H241738   2.855   5.080   7.603 -0.9343 -1.9218  0.5958
 6727TIP3   OH241739   3.989   1.660   7.687 -0.4704 -0.7001  0.2037
 6727TIP3    H141740   4.016   1.647   7.597 -1.2512  0.4604 -0.2313
 6727TIP3    H241741   4.070   1.656   7.738  0.1992  0.2227 -0.7492
 6728TIP3   OH241742   0.514   0.329   7.396  0.2608  0.1678 -0.2655
 6728TIP3    H141743   0.519   0.285   7.312 -0.3382 -0.9088  0.2414
 6728TIP3    H241744   0.469   0.412   7.377 -2.5098 -1.2788 -0.6049
 6729TIP3   OH241745   3.882   1.242   0.312  0.3985  0.0664 -1.0356
 6729TIP3    H141746   3.798   1.226   0.268 -0.1875  0.8226 -0.2275
 6729TIP3    H241747   3.881   1.335   0.331  0.8715 -0.1582  0.1193
 6730TIP3   OH241748   2.701   2.987   2.230 -0.4745  0.1799 -0.1547
 6730TIP3    H141749   2.662   3.025   2.309  0.7817  1.9926 -0.3477
 6730TIP3    H241750   2.736   3.062   2.182  1.7069 -1.1646 -0.8081
 6731TIP3   OH241751   4.896   4.007   2.137 -0.4435 -0.3491  0.3966
 6731TIP3    H141752   4.918   3.955   2.059 -0.2371 -0.4698  0.5343
 6731TIP3    H241753   4.938   3.961   2.209  0.8245  0.7051  0.3632
 6732TIP3   OH241754   5.921   0.267   7.009 -0.3389 -0.0401  0.4535
 6732TIP3    H141755   6.010   0.242   7.033 -0.5684 -0.9940  0.3615
 6732TIP3    H241756   5.882   0.187   6.975 -0.4152  0.9235 -1.9777
 6733TIP3   OH241757   0.656   4.684   0.267  0.2254  0.0687  0.2419
 6733TIP3    H141758   0.715   4.726   0.204  1.6464  0.4246  1.7306
 6733TIP3    H241759   0.610   4.618   0.216  2.3345 -0.6252 -0.9066
 6734TIP3   OH241760   3.007   6.791   8.646 -0.1609  0.3065 -0.3604
 6734TIP3    H141761   3.099   6.779   8.671 -0.7423  0.3869  2.1648
 6734TIP3    H241762   3.000   6.751   8.560  1.4154 -3.4173  1.0023
 6735TIP3   OH241763   4.278   4.260   2.007  0.1720  0.3458 -0.4736
 6735TIP3    H141764   4.341   4.223   2.069 -0.9432 -1.1564 -0.1858
 6735TIP3    H241765   4.218   4.311   2.061  0.0498  0.2384 -0.5079
 6736TIP3   OH241766   5.083   6.233   0.362 -0.0345 -0.9417 -0.6515
 6736TIP3    H141767   5.011   6.295   0.365  1.7465  1.1983  0.7276
 6736TIP3    H241768   5.053   6.158   0.414 -2.1522 -1.2670 -2.2057
 6737TIP3   OH241769   1.848   0.416   1.182  0.4057 -0.4627  0.0312
 6737TIP3    H141770   1.814   0.365   1.109 -0.0703  0.4571 -0.4111
 6737TIP3    H241771   1.942   0.418   1.169  0.4980 -1.7366  0.4054
 6738TIP3   OH241772   4.359   1.474   2.231  0.0524  0.3572 -0.2559
 6738TIP3    H141773   4.300   1.547   2.251  0.0638 -0.0524  1.3846
 6738TIP3    H241774   4.347   1.413   2.304  2.0696 -0.0102 -0.1791
 6739TIP3   OH241775   5.771   0.513   1.539  0.0345  0.6077  0.1424
 6739TIP3    H141776   5.821   0.432   1.552  0.2881  0.9447  1.3534
 6739TIP3    H241777   5.694   0.485   1.490  0.5259 -0.2239 -0.1865
 6740TIP3   OH241778   6.299   3.415   7.804 -0.3906  0.1560 -0.0184
 6740TIP3    H141779   6.284   3.507   7.782  2.4248  0.6115 -0.4485
 6740TIP3    H241780   6.347   3.418   7.887  2.5640 -0.6541 -1.5761
 6741TIP3   OH241781   0.583   6.251   1.403 -0.3969 -0.5351  0.1693
 6741TIP3    H141782   0.661   6.247   1.348 -1.2655  1.3867 -1.2827
 6741TIP3    H241783   0.573   6.161   1.435  0.4387 -1.6555 -2.4123
 6742TIP3   OH241784   2.383   4.685   7.351 -0.2737 -0.0424  0.1277
 6742TIP3    H141785   2.417   4.630   7.281  1.9413  1.4590 -0.0676
 6742TIP3    H241786   2.365   4.769   7.310  1.0813  0.8729  1.2958
 6743TIP3   OH241787   0.179   0.512   7.839  0.0666  0.0968 -0.8582
 6743TIP3    H141788   0.237   0.445   7.875  0.3900  1.0567  0.4877
 6743TIP3    H241789   0.091   0.481   7.860  0.1614 -0.4159 -1.1963
 6744TIP3   OH241790   6.391   2.737   1.894 -0.9642  0.3237 -0.0518
 6744TIP3    H141791   6.460   2.699   1.840 -0.6325  0.3619  0.3393
 6744TIP3    H241792   6.434   2.808   1.942 -0.9478 -0.4819  1.1764
 6745TIP3   OH241793   1.196   1.176   7.195 -0.2838 -1.0315  0.5579
 6745TIP3    H141794   1.199   1.123   7.275 -1.1762 -2.9783 -0.6444
 6745TIP3    H241795   1.225   1.263   7.224 -1.5567 -1.3712  3.2192
 6746TIP3   OH241796   5.477   2.539   0.366 -0.2356  0.3029  0.3641
 6746TIP3    H141797   5.438   2.465   0.412  1.1328 -0.5497  0.2093
 6746TIP3    H241798   5.468   2.613   0.426 -3.6476  0.6329 -0.3583
 6747TIP3   OH241799   2.956   5.772   0.492  0.2802 -0.3473  0.5404
 6747TIP3    H141800   2.861   5.771   0.480  0.3154 -2.0122  0.1737
 6747TIP3    H241801   2.969   5.758   0.586  0.1713  2.1444  0.9935
 6748TIP3   OH241802   2.280   5.745   8.074  0.4865  0.2487  0.0286
 6748TIP3    H141803   2.270   5.832   8.112  0.4033  0.1021  0.3465
 6748TIP3    H241804   2.276   5.685   8.149  2.4561  0.0793  0.0465
 6749TIP3   OH241805   2.947   2.413   1.558  0.5639 -0.5272 -0.0172
 6749TIP3    H141806   2.925   2.383   1.470 -0.1908 -1.5083  0.4854
 6749TIP3    H241807   2.991   2.497   1.545 -0.6862 -0.0328 -1.2556
 6750TIP3   OH241808   3.972   4.888   6.480 -0.4638 -0.2226  0.1739
 6750TIP3    H141809   4.025   4.966   6.497  0.7240 -0.7316 -1.0658
 6750TIP3    H241810   3.990   4.830   6.555  0.7214 -0.3742 -0.2178
 6751TIP3   OH241811   5.865   1.576   1.427 -0.4428  0.3244 -0.0802
 6751TIP3    H141812   5.914   1.561   1.345  1.3898  0.6928  0.8892
 6751TIP3    H241813   5.804   1.647   1.405 -0.9685 -0.5177 -1.4899
 6752TIP3   OH241814   1.136   3.884   6.869  0.1876 -0.0354 -1.0792
 6752TIP3    H141815   1.087   3.808   6.836 -1.4189  0.6954 -0.4890
 6752TIP3    H241816   1.078   3.959   6.852 -0.0490  0.5718  1.8881
 6753TIP3   OH241817   5.164   5.599   6.913  0.0204 -0.0435 -0.4401
 6753TIP3    H141818   5.122   5.569   6.832  0.4726  1.2631 -1.1833
 6753TIP3    H241819   5.210   5.522   6.945 -1.1643 -0.9167 -0.7589
 6754TIP3   OH241820   5.972   0.218   7.286  0.0998  0.1048  0.0036
 6754TIP3    H141821   6.016   0.247   7.206  2.3369 -0.3200  1.0277
 6754TIP3    H241822   5.885   0.191   7.256  0.1865  1.7553 -1.9622
 6755TIP3   OH241823   1.646   4.611   1.478 -0.3517  0.6093 -0.7438
 6755TIP3    H141824   1.740   4.632   1.479 -0.4272  1.0012  0.8095
 6755TIP3    H241825   1.613   4.656   1.401  0.6039  1.1669 -0.8483
 6756TIP3   OH241826   3.677   0.933   0.138 -0.2367  0.0746  0.6858
 6756TIP3    H141827   3.658   0.906   0.049  0.1374  0.0284  0.6228
 6756TIP3    H241828   3.767   0.965   0.136 -0.5181  0.9091  0.8525
 6757TIP3   OH241829   2.279   1.605   7.327 -0.4307  0.7211  0.0524
 6757TIP3    H141830   2.278   1.696   7.298 -0.6235 -0.1173 -2.9748
 6757TIP3    H241831   2.233   1.557   7.257  0.3936 -1.7874  1.1086
 6758TIP3   OH241832   2.775   5.532   8.406 -0.4917 -0.6149  1.0126
 6758TIP3    H141833   2.739   5.621   8.407  0.3972 -0.2405  1.4070
 6758TIP3    H241834   2.779   5.508   8.314  0.7678  0.4000  0.7845
 6759TIP3   OH241835   4.691   4.044   8.658 -0.1342 -0.5332 -0.2407
 6759TIP3    H141836   4.741   4.109   8.706  0.0471 -0.5821 -0.3590
 6759TIP3    H241837   4.731   4.044   8.570 -0.9297  0.0784 -0.6137
 6760TIP3   OH241838   1.035   5.653   1.896  0.3463  0.2923 -0.4962
 6760TIP3    H141839   1.073   5.696   1.973 -1.7620 -1.3166  1.5915
 6760TIP3    H241840   1.018   5.725   1.835  1.6101  1.7216  0.7375
 6761TIP3   OH241841   1.925   4.052   2.165  0.4267 -0.0449  0.1844
 6761TIP3    H141842   1.894   3.961   2.162 -1.1965  0.5142 -0.9478
 6761TIP3    H241843   1.872   4.094   2.232  1.4409  0.0105  0.9823
 6762TIP3   OH241844   0.856   6.780   0.426 -0.4603 -0.0184 -0.1142
 6762TIP3    H141845   0.805   6.861   0.428 -0.3027  0.1283 -1.2986
 6762TIP3    H241846   0.816   6.728   0.356 -0.4160 -0.8714  0.4836
 6763TIP3   OH241847   6.101   6.380   8.561  0.4417  0.1569  0.1463
 6763TIP3    H141848   6.054   6.463   8.568  0.6768  0.1811  1.7013
 6763TIP3    H241849   6.035   6.317   8.533  0.5124  1.0550 -2.3523
 6764TIP3   OH241850   1.456   3.990   7.688  0.0720 -0.2709 -0.2310
 6764TIP3    H141851   1.378   3.942   7.660  0.0642  0.1607 -0.9849
 6764TIP3    H241852   1.527   3.925   7.683 -0.1383 -0.5156 -0.0860
 6765TIP3   OH241853   5.023   4.450   7.958 -0.3435 -0.2909  0.1001
 6765TIP3    H141854   5.010   4.488   8.044 -1.7307 -0.8658  0.1726
 6765TIP3    H241855   4.960   4.496   7.902  1.4117  0.9829 -0.9262
 6766TIP3   OH241856   0.818   4.374   1.238  0.1444 -0.2467 -0.1920
 6766TIP3    H141857   0.897   4.413   1.275  0.6379 -1.7641  0.4290
 6766TIP3    H241858   0.758   4.366   1.312  1.0029 -2.9597  0.3363
 6767TIP3   OH241859   0.803   0.673   0.064 -0.3241  0.5641 -0.4973
 6767TIP3    H141860   0.743   0.716   0.126  0.4295  0.8827  0.0256
 6767TIP3    H241861   0.792   0.722  -0.017 -1.1427  0.2961 -0.5613
 6768TIP3   OH241862   2.579   3.192   8.006  0.1289  0.0439  0.4915
 6768TIP3    H141863   2.521   3.257   8.045 -0.1557  0.9612 -1.3311
 6768TIP3    H241864   2.667   3.220   8.030 -0.0580  0.1932  1.0169
 6769TIP3   OH241865   0.830   0.871   1.329  0.4043 -0.3981  0.0280
 6769TIP3    H141866   0.760   0.868   1.263  1.8890 -0.4538 -1.6134
 6769TIP3    H241867   0.830   0.962   1.360 -0.6053 -0.4819  0.2953
 6770TIP3   OH241868   5.932   2.221   1.237  0.3814  0.7400 -0.4387
 6770TIP3    H141869   5.955   2.280   1.166  1.4279 -0.6404 -1.3174
 6770TIP3    H241870   5.853   2.175   1.206 -1.7072  3.0370  1.1171
 6771TIP3   OH241871   5.004   5.210   1.026  0.1785 -0.3018  0.4300
 6771TIP3    H141872   5.080   5.184   1.077  0.8449  0.0785 -0.3375
 6771TIP3    H241873   5.037   5.218   0.936 -0.3769  1.4697  0.3480
 6772TIP3   OH241874   4.575   2.396   1.476  0.6281 -0.4840  0.6107
 6772TIP3    H141875   4.557   2.407   1.383 -1.8982 -1.5984  0.8959
 6772TIP3    H241876   4.571   2.485   1.512 -0.6727 -0.2784  0.0047
 6773TIP3   OH241877   5.263   4.190   7.444  0.2657 -0.1204  0.0457
 6773TIP3    H141878   5.184   4.139   7.428 -1.1248  2.3746 -1.9284
 6773TIP3    H241879   5.326   4.158   7.379 -1.0014  1.2692 -2.0259
 6774TIP3   OH241880   3.793   0.861   1.298 -0.1781 -0.1701  0.6237
 6774TIP3    H141881   3.805   0.772   1.266 -0.1773  0.6659 -1.9330
 6774TIP3    H241882   3.846   0.866   1.378  1.1587 -1.9781 -0.1005
 6775TIP3   OH241883   4.938   4.429   0.779 -0.0857 -0.0311 -0.0592
 6775TIP3    H141884   4.885   4.417   0.858  1.0442 -0.6242  0.6342
 6775TIP3    H241885   4.919   4.352   0.725  0.3806 -0.4564  0.3761
 6776TIP3   OH241886   2.070   2.642   8.266 -0.1686 -0.8050  0.3881
 6776TIP3    H141887   2.165   2.635   8.254 -0.0997  0.3656  0.1680
 6776TIP3    H241888   2.050   2.733   8.244 -1.3619 -1.0754  0.3233
 6777TIP3   OH241889   4.046   4.394   1.611  0.3841 -0.1969 -0.1630
 6777TIP3    H141890   4.017   4.303   1.602 -0.9203  0.2916 -1.0917
 6777TIP3    H241891   4.054   4.407   1.705 -0.0239 -1.0764  0.0073
 6778TIP3   OH241892   2.290   4.507   2.509 -0.6319 -0.0162 -0.3279
 6778TIP3    H141893   2.237   4.466   2.577  0.8849 -1.3204  0.1214
 6778TIP3    H241894   2.331   4.582   2.552  0.0368 -0.6249  0.1097
 6779TIP3   OH241895   0.655   1.203   7.237  0.1664  0.0698 -0.3399
 6779TIP3    H141896   0.674   1.111   7.217  2.6853  0.4415 -0.0211
 6779TIP3    H241897   0.728   1.231   7.292 -1.2166  1.9277  0.6684
 6780TIP3   OH241898   6.091   1.749   0.675  0.0921  0.4146 -0.6483
 6780TIP3    H141899   6.159   1.800   0.720  0.2167  0.1750 -0.5613
 6780TIP3    H241900   6.125   1.738   0.586  0.9411 -1.0740 -0.1865
 6781TIP3   OH241901   0.324   2.764   1.788 -0.0982  0.1499 -0.0554
 6781TIP3    H141902   0.392   2.737   1.850  0.5562 -0.1309 -0.8645
 6781TIP3    H241903   0.313   2.688   1.731 -0.8881  0.3023 -0.1104
 6782TIP3   OH241904   0.154   3.631   1.582  0.1959 -0.9667 -0.2653
 6782TIP3    H141905   0.171   3.537   1.569  1.3772 -0.7714 -0.2523
 6782TIP3    H241906   0.134   3.664   1.494  0.5635 -1.0890 -0.3970
 6783TIP3   OH241907   2.825   4.923   7.029 -0.2916 -0.8840  0.0183
 6783TIP3    H141908   2.850   4.830   7.028  1.7830 -0.3893  0.3504
 6783TIP3    H241909   2.896   4.966   6.981 -0.9812  0.5973  0.3002
 6784TIP3   OH241910   4.621   1.846   8.202 -0.2186 -0.2124 -0.1234
 6784TIP3    H141911   4.695   1.795   8.169 -1.6190 -1.0825 -2.1810
 6784TIP3    H241912   4.624   1.836   8.297  3.3342  1.3254  0.0550
 6785TIP3   OH241913   4.859   0.690   7.433 -0.9596 -0.5340 -0.0604
 6785TIP3    H141914   4.793   0.648   7.489 -2.1441  0.0830 -0.9431
 6785TIP3    H241915   4.852   0.644   7.349  0.3969 -1.0692  0.0981
 6786TIP3   OH241916   0.836   2.808   0.990 -0.4968 -0.0385 -0.5341
 6786TIP3    H141917   0.825   2.889   0.940 -0.1532  0.9176  0.8721
 6786TIP3    H241918   0.926   2.781   0.971  1.4386  2.9318  3.0461
 6787TIP3   OH241919   5.066   3.446   1.858  0.0635 -0.3361 -0.9727
 6787TIP3    H141920   5.038   3.476   1.772 -0.9740 -1.8492 -1.1963
 6787TIP3    H241921   4.986   3.414   1.900  0.9742 -2.2708 -0.5800
 6788TIP3   OH241922   3.530   4.876   1.323 -0.1067  1.0504  0.1249
 6788TIP3    H141923   3.608   4.868   1.378  2.3851  1.5775 -3.0193
 6788TIP3    H241924   3.486   4.955   1.356  0.0485  0.2072  2.5826
 6789TIP3   OH241925   4.269   4.934   2.409 -0.1963 -0.0288  0.3068
 6789TIP3    H141926   4.258   4.855   2.463 -1.4102 -0.3621 -0.3894
 6789TIP3    H241927   4.180   4.965   2.393  0.1923  0.6698 -0.6224
 6790TIP3   OH241928   5.451   1.982   0.530  0.1161 -0.2973  0.4445
 6790TIP3    H141929   5.472   2.009   0.441 -0.1256 -0.4689  0.3364
 6790TIP3    H241930   5.536   1.979   0.575  0.0535  2.0195  0.8584
 6791TIP3   OH241931   4.843   5.643   1.901  0.0115  0.4486 -0.4627
 6791TIP3    H141932   4.925   5.629   1.853  0.1352 -0.4233 -0.0289
 6791TIP3    H241933   4.826   5.737   1.893  1.1979  0.6973 -0.3551
 6792TIP3   OH241934   4.711   5.099   0.608  0.1956  0.1860 -0.0181
 6792TIP3    H141935   4.688   5.020   0.656 -1.6170  0.6636 -0.0281
 6792TIP3    H241936   4.659   5.095   0.528 -0.2688  1.5816  0.1750
 6793TIP3   OH241937   2.218   2.266   8.242 -0.3381  0.3345  0.0138
 6793TIP3    H141938   2.226   2.352   8.201  0.0778  0.4919  0.4097
 6793TIP3    H241939   2.282   2.211   8.196  0.8848  0.7789  1.1011
 6794TIP3   OH241940   4.902   3.672   2.124  0.2073 -0.3520 -0.5810
 6794TIP3    H141941   4.858   3.654   2.040  0.3736 -0.0784 -0.7271
 6794TIP3    H241942   4.871   3.603   2.182  0.3473 -0.7392 -0.9606
 6795TIP3   OH241943   0.358   3.097   1.713 -0.3145 -0.5379 -0.6439
 6795TIP3    H141944   0.276   3.107   1.665 -0.4139 -1.4428 -0.6947
 6795TIP3    H241945   0.380   3.004   1.703  1.4766 -0.0186 -1.8260
 6796TIP3   OH241946   3.151   6.753   1.695 -0.0423  0.4743  0.1274
 6796TIP3    H141947   3.083   6.733   1.631 -0.6560  1.6032  0.4106
 6796TIP3    H241948   3.158   6.673   1.748 -1.7634  0.6296  0.6459
 6797TIP3   OH241949   1.479   4.286   0.170 -0.2687  0.4478 -0.5468
 6797TIP3    H141950   1.492   4.214   0.230 -0.8196  0.1648 -0.7607
 6797TIP3    H241951   1.536   4.356   0.203  0.0422  0.0201 -0.1731
 6798TIP3   OH241952   6.148   6.605   8.110 -0.4233 -0.1055  0.5283
 6798TIP3    H141953   6.056   6.629   8.125 -0.9783 -1.7973  0.0212
 6798TIP3    H241954   6.146   6.511   8.092  1.0666  0.3073 -2.3519
 6799TIP3   OH241955   0.136   4.672   8.253 -0.5160 -0.0039 -0.2596
 6799TIP3    H141956   0.155   4.589   8.297  0.0019  1.0516  1.6137
 6799TIP3    H241957   0.146   4.652   8.160 -0.6204 -2.0816  0.1060
 6800TIP3   OH241958   3.673   3.194   0.483  0.3840 -0.3110  0.3808
 6800TIP3    H141959   3.582   3.164   0.492  0.2061 -0.3059 -1.1336
 6800TIP3    H241960   3.670   3.286   0.507 -0.2859  0.0249 -0.8865
 6801TIP3   OH241961   2.971   1.242   0.801  0.4503 -0.3427  0.1192
 6801TIP3    H141962   3.025   1.206   0.872 -1.2346  0.1559  1.7183
 6801TIP3    H241963   2.955   1.167   0.743  2.4422 -0.6018 -0.1992
 6802TIP3   OH241964   3.495   3.514   0.008 -0.0798  0.2665 -0.6463
 6802TIP3    H141965   3.539   3.508  -0.076 -0.3917  1.2891 -0.9039
 6802TIP3    H241966   3.521   3.599   0.043 -0.3721  0.0812  0.0470
 6803TIP3   OH241967   1.541   1.984   1.318  0.3240  0.5533 -0.4618
 6803TIP3    H141968   1.591   1.903   1.316 -1.0830 -0.5349  2.3900
 6803TIP3    H241969   1.599   2.049   1.357  0.2652 -0.1372  0.8204
 6804TIP3   OH241970   4.732   0.957   0.888  0.4830 -0.8567 -0.0724
 6804TIP3    H141971   4.728   0.862   0.898  0.0094 -0.8185  0.1074
 6804TIP3    H241972   4.722   0.972   0.794  1.0558 -1.0089 -0.1607
 6805TIP3   OH241973   3.132   6.544   0.606 -0.2215  0.6373 -0.5584
 6805TIP3    H141974   3.145   6.476   0.672 -2.0637  0.6492 -0.1341
 6805TIP3    H241975   3.051   6.587   0.632 -1.0096  0.6513 -2.8089
 6806TIP3   OH241976   2.174   0.373   1.531  0.2296  0.3030  0.6280
 6806TIP3    H141977   2.196   0.414   1.615 -1.9680  0.0400  1.3908
 6806TIP3    H241978   2.079   0.382   1.524  0.1341 -1.3711 -0.9429
 6807TIP3   OH241979   5.929   1.919   7.703 -0.3661 -0.0012 -0.2185
 6807TIP3    H141980   6.016   1.880   7.689 -0.1994  0.6240 -0.9934
 6807TIP3    H241981   5.869   1.845   7.696  0.1692 -0.6506  1.5119
 6808TIP3   OH241982   2.021   4.656   2.146 -0.4803  0.0014 -0.4186
 6808TIP3    H141983   1.945   4.602   2.125 -1.7576  0.8714  1.5892
 6808TIP3    H241984   2.088   4.593   2.174 -0.8288 -0.7211 -1.1726
 6809TIP3   OH241985   4.814   5.219   6.422 -0.4168 -0.8032  0.1984
 6809TIP3    H141986   4.827   5.258   6.508 -0.9714  0.3050 -0.2012
 6809TIP3    H241987   4.724   5.242   6.398 -0.6189 -1.9882 -0.2388
 6810TIP3   OH241988   0.641   1.522   0.507  0.0860  0.2705 -0.0427
 6810TIP3    H141989   0.614   1.464   0.579  2.7670 -1.6068 -0.3990
 6810TIP3    H241990   0.710   1.576   0.545  0.6461  0.1368 -0.8388
 6811TIP3   OH241991   6.194   6.290   7.596  0.4591  0.1114  0.2449
 6811TIP3    H141992   6.135   6.359   7.627  0.6166  0.6056 -0.5303
 6811TIP3    H241993   6.203   6.306   7.502  0.0885 -1.2762 -0.0566
 6812TIP3   OH241994   1.326   3.245   2.752 -0.3146 -0.3262 -0.3645
 6812TIP3    H141995   1.324   3.341   2.758  1.3552 -0.3778  2.6076
 6812TIP3    H241996   1.236   3.218   2.772 -0.4112  0.5780  0.4991
 6813TIP3   OH241997   4.654   5.784   0.381  0.2820 -0.1670 -0.5547
 6813TIP3    H141998   4.736   5.770   0.428  0.9941 -0.0730 -1.7569
 6813TIP3    H241999   4.671   5.758   0.291 -0.8669  0.2942 -0.9386
 6814TIP3   OH242000   2.173   3.860   1.213  0.1898  0.2740 -0.2906
 6814TIP3    H142001   2.166   3.941   1.163  0.7528 -0.2242 -1.2017
 6814TIP3    H242002   2.266   3.854   1.236 -0.1883  0.9462  1.6284
 6815TIP3   OH242003   0.607   4.317   1.858  0.6202 -0.6671 -0.0377
 6815TIP3    H142004   0.605   4.337   1.952 -0.2939 -2.2977  0.3331
 6815TIP3    H242005   0.587   4.400   1.815 -1.3365 -0.3538  1.3191
 6816TIP3   OH242006   0.878   3.220   1.226 -0.5251  0.2348 -0.2398
 6816TIP3    H142007   0.853   3.128   1.234 -1.3696  0.0465 -3.7608
 6816TIP3    H242008   0.797   3.265   1.204  0.2257  1.5332 -0.4278
 6817TIP3   OH242009   5.426   1.670   0.558 -0.2573  0.3210  0.7205
 6817TIP3    H142010   5.333   1.645   0.550 -0.1480  0.4104 -1.2626
 6817TIP3    H242011   5.425   1.745   0.617 -1.8944  2.4262 -1.7820
 6818TIP3   OH242012   6.581   6.041   1.565 -0.0670 -0.2197  0.0887
 6818TIP3    H142013   6.633   6.052   1.644  0.1036 -0.2431 -0.0214
 6818TIP3    H242014   6.632   6.083   1.496 -1.1186  1.6186  0.3443
 6819TIP3   OH242015   6.294   0.441   6.822 -0.5178  0.5995  0.3644
 6819TIP3    H142016   6.284   0.346   6.825 -0.9277  0.6731  2.1867
 6819TIP3    H242017   6.206   0.475   6.834 -0.3756  1.2398 -0.2957
 6820TIP3   OH242018   5.201   5.613   7.702 -0.0024 -0.2396  0.0196
 6820TIP3    H142019   5.208   5.662   7.621 -1.0169 -0.7377 -0.3855
 6820TIP3    H242020   5.290   5.580   7.719  0.0348 -0.9463 -1.4087
 6821TIP3   OH242021   2.560   4.338   2.055  0.5339  0.3009  0.2402
 6821TIP3    H142022   2.476   4.383   2.044  0.4114 -0.1085 -0.5601
 6821TIP3    H242023   2.569   4.328   2.150 -0.6024 -0.1588  0.3234
 6822TIP3   OH242024   3.922   4.127   1.621 -0.0949 -0.8263  0.6094
 6822TIP3    H142025   3.993   4.132   1.685 -1.2321 -0.5601  1.8689
 6822TIP3    H242026   3.934   4.040   1.581  1.0649 -0.7001  0.6339
 6823TIP3   OH242027   1.239   3.720   1.039  0.1920 -0.1985 -0.1799
 6823TIP3    H142028   1.194   3.803   1.022  2.6333  1.2366 -0.0333
 6823TIP3    H242029   1.277   3.730   1.126 -0.6278 -2.0816  0.4539
 6824TIP3   OH242030   1.470   6.398   2.039  0.3334 -0.2174 -0.3625
 6824TIP3    H142031   1.547   6.400   2.095 -0.7114  0.1959  1.1228
 6824TIP3    H242032   1.484   6.324   1.980  2.5650  0.7933 -1.2086
 6825TIP3   OH242033   1.703   0.181   2.108 -0.4536  0.4047  0.1605
 6825TIP3    H142034   1.685   0.128   2.031 -0.7038  1.2249 -0.3605
 6825TIP3    H242035   1.678   0.125   2.182  1.7516 -1.1930 -0.2080
 6826TIP3   OH242036   4.867   2.422   8.152  1.0879  0.1322  0.1631
 6826TIP3    H142037   4.798   2.372   8.109  2.4481  0.2970 -2.3564
 6826TIP3    H242038   4.895   2.366   8.225  0.4061 -1.3320 -0.6554
 6827TIP3   OH242039   0.882   0.804   7.939  0.6072  0.5653  0.1536
 6827TIP3    H142040   0.792   0.797   7.906  0.9749 -1.8198 -0.5593
 6827TIP3    H242041   0.875   0.783   8.032  0.3458  1.1600  0.2729
 6828TIP3   OH242042   3.680   3.590   8.083 -0.3807  0.1000  0.1911
 6828TIP3    H142043   3.694   3.504   8.122 -1.1919 -1.0405 -1.8521
 6828TIP3    H242044   3.586   3.606   8.094 -0.6559 -0.3153 -1.3340
 6829TIP3   OH242045   2.137   1.198   1.237  0.1123  0.3318  0.4682
 6829TIP3    H142046   2.081   1.161   1.305  1.0185  0.5338  1.3513
 6829TIP3    H242047   2.157   1.123   1.180  2.5145 -0.8648  2.6360
 6830TIP3   OH242048   5.635   3.354   0.233 -0.1871  0.2180  0.0161
 6830TIP3    H142049   5.576   3.429   0.245  1.7079  2.2118 -2.1558
 6830TIP3    H242050   5.653   3.323   0.322  0.8112  3.9133  1.2568
 6831TIP3   OH242051   4.968   1.778   2.530 -0.1022 -0.3924  0.2725
 6831TIP3    H142052   4.943   1.809   2.618  0.5207  0.9307  0.0154
 6831TIP3    H242053   4.949   1.685   2.531 -0.6886 -0.2824  1.6152
 6832TIP3   OH242054   1.161   4.733   1.225 -0.1956 -0.0779 -0.2806
 6832TIP3    H142055   1.093   4.791   1.189 -1.1531 -1.1073 -0.2036
 6832TIP3    H242056   1.239   4.754   1.174 -0.6591  0.8844 -0.6265
 6833TIP3   OH242057   2.649   3.235   8.343 -0.1733 -0.1799 -0.1899
 6833TIP3    H142058   2.559   3.247   8.311 -0.6991  2.1316  1.8456
 6833TIP3    H242059   2.639   3.192   8.428  0.8671 -2.0687 -0.9721
 6834TIP3   OH242060   5.753   5.561   7.809 -0.0898  0.0521 -0.5128
 6834TIP3    H142061   5.799   5.613   7.876 -0.9137  2.6769 -1.8357
 6834TIP3    H242062   5.688   5.511   7.859  2.2965 -1.6395  1.0826
 6835TIP3   OH242063   4.033   1.171   1.027  0.5248 -0.2123 -0.7545
 6835TIP3    H142064   4.000   1.259   1.008  1.0476 -0.0335 -0.8367
 6835TIP3    H242065   4.058   1.136   0.943  3.2503  0.7478 -0.4323
 6836TIP3   OH242066   0.247   5.708   8.388  0.3142 -0.3056  0.0762
 6836TIP3    H142067   0.271   5.741   8.301 -0.5935  5.4657  1.5718
 6836TIP3    H242068   0.151   5.712   8.389  0.1217 -3.0576  0.6255
 6837TIP3   OH242069   1.656   2.821   2.377 -0.4880  0.0112  0.5451
 6837TIP3    H142070   1.750   2.807   2.388 -0.1076  1.1115 -1.0584
 6837TIP3    H242071   1.644   2.916   2.379 -1.7204 -0.1258  1.6540
 6838TIP3   OH242072   2.541   0.522   8.392 -0.6917 -0.4398 -0.2338
 6838TIP3    H142073   2.467   0.583   8.387 -2.2036 -2.2241 -1.4308
 6838TIP3    H242074   2.576   0.520   8.302 -1.5416 -2.2574 -0.5769
 6839TIP3   OH242075   4.316   2.705   0.290  0.1439 -0.1747 -0.5627
 6839TIP3    H142076   4.249   2.728   0.354  1.5397 -0.5212  1.0967
 6839TIP3    H242077   4.335   2.787   0.244  1.4489  0.9154  1.7796
 6840TIP3   OH242078   0.831   6.695   7.935 -0.5000 -0.2781 -0.2456
 6840TIP3    H142079   0.914   6.654   7.909 -0.7627  0.0082 -1.5943
 6840TIP3    H242080   0.765   6.629   7.916 -1.0144  0.9369 -3.1581
 6841TIP3   OH242081   5.112   5.208   7.276 -0.0427 -0.1437  0.5937
 6841TIP3    H142082   5.128   5.275   7.342  1.3243  1.7750 -1.5316
 6841TIP3    H242083   5.019   5.219   7.253 -0.4137 -0.5514  1.8455
 6842TIP3   OH242084   0.646   6.179   0.455  0.0852 -0.2548 -0.2390
 6842TIP3    H142085   0.643   6.228   0.537  0.0608  0.5640 -0.7218
 6842TIP3    H242086   0.588   6.227   0.396  3.2179  1.6498 -2.0562
 6843TIP3   OH242087   6.211   5.226   6.848  0.6474 -0.0280 -0.0171
 6843TIP3    H142088   6.222   5.137   6.882  0.4468  0.3768  1.1556
 6843TIP3    H242089   6.119   5.247   6.865  1.3873  1.4996  2.5409
 6844TIP3   OH242090   5.192   5.784   8.242  0.0940  0.1012  0.0766
 6844TIP3    H142091   5.215   5.706   8.292 -1.0976 -0.2619  0.0752
 6844TIP3    H242092   5.135   5.752   8.173  0.4793  0.8290 -0.5920
 6845TIP3   OH242093   3.521   2.736   6.539  0.3829 -1.1390  0.4006
 6845TIP3    H142094   3.462   2.670   6.503 -0.4836 -0.2056  0.0923
 6845TIP3    H242095   3.604   2.722   6.492 -0.3405 -0.8008 -1.0278
 6846TIP3   OH242096   6.495   2.821   7.842  0.1146  0.2523  0.1363
 6846TIP3    H142097   6.475   2.803   7.934 -0.6011 -0.0503 -0.0677
 6846TIP3    H242098   6.590   2.826   7.839  0.1421  0.4288  0.9235
 6847TIP3   OH242099   5.821   3.298   0.504 -0.1943  1.0139 -0.2210
 6847TIP3    H142100   5.739   3.326   0.546 -0.1597 -0.1841  0.6796
 6847TIP3    H242101   5.828   3.205   0.525  1.1928  1.0057 -0.6545
 6848TIP3   OH242102   1.815   4.369   1.813  0.6966  0.0870 -0.1064
 6848TIP3    H142103   1.847   4.339   1.898  1.9898  2.2391  0.2357
 6848TIP3    H242104   1.844   4.302   1.751  0.8357 -0.8750  0.9696
 6849TIP3   OH242105   4.120   4.080   1.819  0.2196 -0.2310 -0.9127
 6849TIP3    H142106   4.165   4.097   1.902 -0.2126 -0.2646 -0.6695
 6849TIP3    H242107   4.089   3.989   1.826  0.5237 -0.3679 -1.2739
 6850TIP3   OH242108   0.825   4.860   8.064  0.0101 -0.7946  0.3358
 6850TIP3    H142109   0.791   4.936   8.112  0.5160 -0.6737  0.5186
 6850TIP3    H242110   0.751   4.801   8.055  0.0205 -1.0402  1.6996
 6851TIP3   OH242111   3.685   6.389   2.255 -0.1066 -0.9762  0.1622
 6851TIP3    H142112   3.760   6.438   2.287  0.5304 -1.3086 -0.8072
 6851TIP3    H242113   3.621   6.395   2.326  0.0962  0.9145  0.2139
 6852TIP3   OH242114   0.310   3.212   2.673 -0.2647 -0.1160 -0.4306
 6852TIP3    H142115   0.365   3.284   2.702  0.2711 -0.8191  0.3380
 6852TIP3    H242116   0.353   3.133   2.707 -0.5851 -0.8404 -1.6443
 6853TIP3   OH242117   3.101   5.104   2.420 -0.2638 -0.1430 -0.1141
 6853TIP3    H142118   3.105   5.027   2.364  3.1704  0.0040 -0.3121
 6853TIP3    H242119   3.067   5.174   2.364 -1.3579 -1.0072 -0.5584
 6854TIP3   OH242120   3.005   2.991   0.935 -1.0277 -0.0525 -0.2023
 6854TIP3    H142121   2.971   3.024   1.019  1.1697 -0.6007  0.9736
 6854TIP3    H242122   2.996   2.896   0.941 -1.5778 -0.0570 -0.9526
 6855TIP3   OH242123   3.486   6.425   2.636  0.2211  0.5666 -0.3632
 6855TIP3    H142124   3.504   6.493   2.571 -0.0386  0.0698 -0.9712
 6855TIP3    H242125   3.528   6.456   2.716  2.4622  0.1706 -1.3049
 6856TIP3   OH242126   2.126   1.245   7.887 -0.2256 -0.1267 -0.2135
 6856TIP3    H142127   2.213   1.273   7.918 -0.0937 -0.4214 -0.3153
 6856TIP3    H242128   2.142   1.162   7.843 -0.8028 -1.0507  1.2141
 6857TIP3   OH242129   5.735   0.357   0.739 -0.2726  0.2816 -0.3402
 6857TIP3    H142130   5.820   0.396   0.718  0.1793  0.1032  1.0575
 6857TIP3    H242131   5.742   0.266   0.710 -0.4977  0.6135 -1.4843
 6858TIP3   OH242132   4.884   6.054   1.253  0.1020 -0.1437  0.5004
 6858TIP3    H142133   4.951   6.120   1.269  0.0444  0.1956 -0.5884
 6858TIP3    H242134   4.874   6.009   1.337  3.9082 -2.3266  0.0368
 6859TIP3   OH242135   1.101   5.744   8.306  0.0239  0.1590  0.1720
 6859TIP3    H142136   1.180   5.796   8.289  0.2419  0.7011  2.5226
 6859TIP3    H242137   1.111   5.714   8.397 -1.1489 -2.1882 -0.3820
 6860TIP3   OH242138   5.714   3.271   8.239 -0.5270 -0.8315  0.1139
 6860TIP3    H142139   5.777   3.206   8.270  3.7881  1.3721 -2.9436
 6860TIP3    H242140   5.695   3.325   8.315  0.0936 -2.4868  1.4872
 6861TIP3   OH242141   3.385   6.746   1.124  0.1408 -0.0208  0.9539
 6861TIP3    H142142   3.479   6.740   1.141  0.7641  0.5402 -1.8445
 6861TIP3    H242143   3.354   6.815   1.183  2.2145  2.2713 -0.4909
 6862TIP3   OH242144   4.857   5.971   7.002 -0.3772 -0.2611  0.1805
 6862TIP3    H142145   4.897   5.894   7.043 -0.8182 -0.9326 -0.6282
 6862TIP3    H242146   4.870   5.958   6.908 -2.0108 -0.2266 -0.0665
 6863TIP3   OH242147   5.456   5.228   0.640  0.0449 -0.4058 -0.6357
 6863TIP3    H142148   5.513   5.224   0.563  0.4296 -2.4053 -0.2937
 6863TIP3    H242149   5.502   5.287   0.700  1.3406 -1.2981 -0.7151
 6864TIP3   OH242150   2.247   5.861   2.245  0.4395  0.5847  0.1732
 6864TIP3    H142151   2.233   5.769   2.270  2.9496  0.4902  1.5591
 6864TIP3    H242152   2.327   5.886   2.290 -0.1571  3.4997 -0.1910
 6865TIP3   OH242153   6.714   3.608   2.785  0.0601 -0.5306 -0.4283
 6865TIP3    H142154   6.715   3.521   2.825 -0.6727 -0.4498 -0.2214
 6865TIP3    H242155   6.787   3.607   2.723 -0.4118 -1.5475 -0.9803
 6866TIP3   OH242156   1.796   5.416   2.783  0.5731 -0.1140 -0.6111
 6866TIP3    H142157   1.736   5.489   2.765 -1.1399 -1.4596 -0.5591
 6866TIP3    H242158   1.771   5.385   2.870  3.1704  0.9402  0.6515
 6867TIP3   OH242159   5.470   4.700   1.222 -0.4736 -0.4984  0.4735
 6867TIP3    H142160   5.471   4.790   1.189 -0.4597 -0.8223 -0.4285
 6867TIP3    H242161   5.517   4.704   1.305 -0.7958  0.3962  0.6236
 6868TIP3   OH242162   1.944   1.698   7.412  0.0989  0.2424 -0.6864
 6868TIP3    H142163   1.866   1.668   7.365 -0.0055 -0.3768 -0.1230
 6868TIP3    H242164   1.988   1.618   7.440  1.3733  0.5641 -1.6759
 6869TIP3   OH242165   0.099   6.641   0.678  0.2436 -0.1045 -0.6799
 6869TIP3    H142166   0.131   6.565   0.727  3.6669  0.6291 -1.5221
 6869TIP3    H242167   0.017   6.664   0.722  1.5130 -1.3514  2.7169
 6870TIP3   OH242168   4.154   2.406   1.580  0.6951 -0.0228  0.6481
 6870TIP3    H142169   4.208   2.486   1.585  1.3640 -0.2797 -1.4152
 6870TIP3    H242170   4.156   2.382   1.487 -2.3581 -0.5067  0.6138
 6871TIP3   OH242171   1.326   6.801   0.226 -0.2081 -0.4438 -0.8496
 6871TIP3    H142172   1.412   6.842   0.222 -0.3666 -0.1776 -1.8442
 6871TIP3    H242173   1.342   6.715   0.264  0.2955  0.0894  0.1716
 6872TIP3   OH242174   1.001   3.465   1.297  0.3274 -0.2181 -0.3705
 6872TIP3    H142175   0.925   3.512   1.331 -0.1327  0.7087 -2.5374
 6872TIP3    H242176   0.965   3.383   1.262  0.3004  0.1938 -1.3424
 6873TIP3   OH242177   5.984   0.591   0.831  0.5528  0.3030 -0.4452
 6873TIP3    H142178   5.963   0.536   0.906  0.4046  1.8025  0.6519
 6873TIP3    H242179   5.956   0.678   0.857  0.9431  0.9368 -2.0706
 6874TIP3   OH242180   2.728   1.006   1.432 -0.2456 -0.4013 -0.1795
 6874TIP3    H142181   2.676   1.080   1.463 -2.2464 -1.0729 -1.7464
 6874TIP3    H242182   2.687   0.929   1.472  0.4262 -0.8407 -0.3176
 6875TIP3   OH242183   4.383   3.126   8.417  0.1751  0.8299 -0.1341
 6875TIP3    H142184   4.401   3.037   8.389 -1.4847  0.4471 -0.0588
 6875TIP3    H242185   4.423   3.181   8.350  0.5094  0.0286 -0.6076
 6876TIP3   OH242186   2.218   0.350   0.462 -0.0742  0.2739 -0.0919
 6876TIP3    H142187   2.179   0.278   0.413 -0.0392 -0.3965  0.8593
 6876TIP3    H242188   2.309   0.354   0.432  0.3231 -1.0114  0.8715
 6877TIP3   OH242189   1.853   1.442   2.497  0.3490 -0.1313 -0.4478
 6877TIP3    H142190   1.901   1.382   2.440 -0.3026 -1.3121  0.2181
 6877TIP3    H242191   1.900   1.438   2.580 -1.5167 -2.2599  0.6075
 6878TIP3   OH242192   4.559   4.382   2.054  0.7644 -0.0413  0.3544
 6878TIP3    H142193   4.619   4.315   2.021  0.4757  0.5968 -1.5935
 6878TIP3    H242194   4.484   4.378   1.995  0.3602  1.4233  0.7262
 6879TIP3   OH242195   4.235   2.690   7.585  0.1751  0.2212  0.1899
 6879TIP3    H142196   4.272   2.645   7.509 -0.2482 -1.2896  0.8249
 6879TIP3    H242197   4.301   2.677   7.654 -1.1100 -1.8387  1.1215
 6880TIP3   OH242198   1.396   4.977   7.523  0.3970 -0.6215  0.1989
 6880TIP3    H142199   1.409   4.910   7.591  0.6759 -0.0494  0.7194
 6880TIP3    H242200   1.332   5.037   7.560 -1.6160 -1.8123 -1.1886
 6881TIP3   OH242201   2.746   1.493   2.321 -0.2278 -0.4039 -0.3318
 6881TIP3    H142202   2.731   1.528   2.408  3.2233 -1.0349  0.6875
 6881TIP3    H242203   2.727   1.399   2.329  1.7158 -0.7836  0.3093
 6882TIP3   OH242204   0.237   6.447   0.888  0.0636 -0.3467  0.5741
 6882TIP3    H142205   0.305   6.398   0.843  0.6479  1.3588 -0.4411
 6882TIP3    H242206   0.283   6.494   0.958 -0.4135 -0.7691  1.1909
 6883TIP3   OH242207   4.825   1.943   2.765 -0.6937  0.1637 -0.2248
 6883TIP3    H142208   4.855   2.034   2.769 -0.6949  0.1218  1.3347
 6883TIP3    H242209   4.732   1.947   2.789 -0.8571 -0.1788 -0.7923
 6884TIP3   OH242210   4.279   4.723   7.682  0.0335  0.3342 -0.1898
 6884TIP3    H142211   4.335   4.792   7.647 -1.2733  1.7403  0.3938
 6884TIP3    H242212   4.202   4.769   7.715 -0.0072 -1.1900  2.0404
 6885TIP3   OH242213   6.545   2.569   1.700  0.2290  0.1336 -0.0103
 6885TIP3    H142214   6.474   2.555   1.639 -0.1445  0.1197  0.4212
 6885TIP3    H242215   6.624   2.543   1.652  0.0873  1.2762 -0.8890
 6886TIP3   OH242216   1.632   5.206   8.285  0.1968  0.1325 -0.2369
 6886TIP3    H142217   1.562   5.166   8.336  0.1030 -0.5648 -0.8825
 6886TIP3    H242218   1.687   5.132   8.259  0.4004  0.5092 -0.8984
 6887TIP3   OH242219   5.310   6.367   0.418 -0.1191  0.3187  0.6472
 6887TIP3    H142220   5.248   6.295   0.403 -0.2963  0.9317 -1.8669
 6887TIP3    H242221   5.389   6.323   0.448  0.4033 -1.2463 -2.6177
 6888TIP3   OH242222   5.178   1.191   1.617 -0.3344 -0.2019 -0.3087
 6888TIP3    H142223   5.166   1.286   1.627  1.9936  0.2044 -0.7138
 6888TIP3    H242224   5.203   1.161   1.704 -2.6084 -0.7779  0.2008
 6889TIP3   OH242225   5.402   0.586   1.992 -0.3201 -0.1368  0.7301
 6889TIP3    H142226   5.340   0.533   2.043 -2.1307 -0.8175 -1.9859
 6889TIP3    H242227   5.352   0.665   1.969  0.4117  0.1065 -0.0825
 6890TIP3   OH242228   3.372   4.862   2.057 -1.4111  0.1433 -0.0039
 6890TIP3    H142229   3.299   4.875   2.118  0.0762 -0.6716  2.0823
 6890TIP3    H242230   3.388   4.768   2.059 -0.6224  0.2515 -0.8110
 6891TIP3   OH242231   6.056   2.880   7.355 -0.0205 -0.2681  0.0202
 6891TIP3    H142232   6.114   2.811   7.323  1.3303  0.8616 -0.0954
 6891TIP3    H242233   5.971   2.838   7.364  0.5583 -1.7176 -0.8806
 6892TIP3   OH242234   0.387   4.773   8.531 -0.3474 -0.4940  0.0996
 6892TIP3    H142235   0.438   4.722   8.468  0.7439 -0.2537  0.7618
 6892TIP3    H242236   0.356   4.849   8.481 -0.9739 -1.1774 -0.5793
 6893TIP3   OH242237   6.328   6.046   1.641  0.0911 -0.4600 -0.2903
 6893TIP3    H142238   6.321   5.977   1.706  0.7063 -1.0454 -0.8296
 6893TIP3    H242239   6.416   6.036   1.604  0.7948  1.5871  0.6888
 6894TIP3   OH242240   2.157   6.160   0.594  0.4846  0.2097 -0.2477
 6894TIP3    H142241   2.119   6.246   0.578 -0.0555  0.1838  0.8074
 6894TIP3    H242242   2.119   6.104   0.526  0.0704  0.5891 -0.3316
 6895TIP3   OH242243   5.554   4.881   2.196  0.3233 -0.4699  0.4608
 6895TIP3    H142244   5.474   4.922   2.228  0.9886  1.6869 -0.4771
 6895TIP3    H242245   5.533   4.787   2.193 -1.9688 -0.0259  0.7588
 6896TIP3   OH242246   3.497   1.119   7.895 -0.4678 -0.6425 -0.3986
 6896TIP3    H142247   3.542   1.034   7.896 -0.2187 -0.5082  0.2080
 6896TIP3    H242248   3.423   1.106   7.836  0.6234 -0.7314 -1.8277
 6897TIP3   OH242249   2.618   0.070   3.198 -0.2158 -0.0371 -0.6685
 6897TIP3    H142250   2.582  -0.017   3.179  1.5925 -0.8813 -0.4185
 6897TIP3    H242251   2.545   0.118   3.238 -1.1873 -1.4953 -0.6306
 6898TIP3   OH242252   1.162   3.313   7.429 -0.0431  0.0662  0.0983
 6898TIP3    H142253   1.223   3.328   7.501  0.0592  0.9644 -0.1661
 6898TIP3    H242254   1.208   3.343   7.351  0.0947 -1.4939 -0.4485
 6899TIP3   OH242255   6.100   2.301   7.778 -0.2701 -0.8758  0.0849
 6899TIP3    H142256   6.164   2.329   7.713 -0.6971 -1.1610 -0.4602
 6899TIP3    H242257   6.040   2.375   7.786 -0.2345 -0.8519  0.1326
 6900TIP3   OH242258   5.444   1.148   0.869  0.3881 -0.1681 -0.3300
 6900TIP3    H142259   5.439   1.135   0.964  0.7294  1.4937 -0.0584
 6900TIP3    H242260   5.465   1.061   0.834  2.2131 -0.4344  1.2906
 6901TIP3   OH242261   2.196   2.486   2.232  0.5360 -0.7111  1.0890
 6901TIP3    H142262   2.255   2.466   2.159 -0.4035 -0.6762  0.2892
 6901TIP3    H242263   2.245   2.462   2.310  1.0452 -2.1058  0.3706
 6902TIP3   OH242264   0.140   6.039   1.225 -0.0720  0.1278  0.7263
 6902TIP3    H142265   0.149   6.059   1.132  0.9861 -0.5993  0.6533
 6902TIP3    H242266   0.169   5.948   1.233  1.3958  0.6549  1.9784
 6903TIP3   OH242267   1.460   0.391   8.652  1.2269 -0.1967 -0.2596
 6903TIP3    H142268   1.428   0.373   8.740  1.2167 -1.2639 -0.4715
 6903TIP3    H242269   1.513   0.470   8.662  0.2511  0.3900  0.4753
 6904TIP3   OH242270   3.799   6.237   1.595  0.1732  0.0681  0.0023
 6904TIP3    H142271   3.870   6.256   1.656  2.8095 -1.6161 -2.2791
 6904TIP3    H242272   3.753   6.321   1.584  2.6142  1.5729  0.6337
 6905TIP3   OH242273   0.813   4.695   1.778  0.1277  0.4772  0.2097
 6905TIP3    H142274   0.905   4.685   1.753  0.0857 -1.1172  0.5705
 6905TIP3    H242275   0.772   4.614   1.749 -1.0744  0.9711  0.4834
 6906TIP3   OH242276   2.575   6.686   2.389  0.5672  0.3670  0.3243
 6906TIP3    H142277   2.632   6.674   2.313 -0.6788  0.7065 -0.6965
 6906TIP3    H242278   2.616   6.634   2.458  0.6907 -1.5257 -1.1145
 6907TIP3   OH242279   3.965   5.701   2.483  0.3168  0.3597 -0.0187
 6907TIP3    H142280   3.905   5.753   2.428 -0.2933 -0.6581 -0.3537
 6907TIP3    H242281   4.022   5.656   2.420  1.1523  0.9789  0.2863
 6908TIP3   OH242282   0.216   1.497   0.009 -0.2992 -0.2617  0.2006
 6908TIP3    H142283   0.195   1.558  -0.062 -0.5864 -0.0218  0.4861
 6908TIP3    H242284   0.148   1.430   0.003 -1.3704  0.6735  1.3113
 6909TIP3   OH242285   1.340   3.694   0.550  0.1018 -0.6720  0.0419
 6909TIP3    H142286   1.350   3.609   0.593  0.2031 -1.1481 -0.8957
 6909TIP3    H242287   1.280   3.742   0.607  1.4017 -0.7164  1.5003
 6910TIP3   OH242288   2.530   0.368   7.764  0.3577 -0.0188  0.0088
 6910TIP3    H142289   2.540   0.293   7.706  0.3178 -0.4147  0.5122
 6910TIP3    H242290   2.614   0.374   7.809 -0.3694 -1.1402  1.6046
 6911TIP3   OH242291   1.503   3.973   1.537  0.4477  0.3697  0.0311
 6911TIP3    H142292   1.572   3.992   1.600 -0.7210  0.4465  1.3313
 6911TIP3    H242293   1.476   4.059   1.503  0.9564  0.3411 -0.4605
 6912TIP3   OH242294   6.112   0.280   8.250 -0.0086  0.5301  0.2746
 6912TIP3    H142295   6.094   0.278   8.344  0.0653  0.2527  0.2815
 6912TIP3    H242296   6.118   0.188   8.224  3.1537  0.5454  0.6076
 6913TIP3   OH242297   0.607   4.782   7.396  0.1207 -0.0417  0.4634
 6913TIP3    H142298   0.530   4.780   7.340  1.7577 -0.0723 -1.9600
 6913TIP3    H242299   0.636   4.690   7.399  1.0718  0.2183 -0.2385
 6914TIP3   OH242300   3.378   6.272   2.136  0.4956 -0.2711 -0.1265
 6914TIP3    H142301   3.395   6.365   2.121  0.4635  0.0027  1.3922
 6914TIP3    H242302   3.286   6.268   2.162  1.3056 -0.2479  3.1121
 6915TIP3   OH242303   5.031   3.224   2.379 -0.2286  0.4527  0.4884
 6915TIP3    H142304   4.945   3.185   2.391 -0.8422  1.4105 -0.5825
 6915TIP3    H242305   5.051   3.266   2.462  0.1759 -1.5503  1.4603
 6916TIP3   OH242306   1.026   2.635   2.670 -0.1932 -0.1555 -0.9461
 6916TIP3    H142307   0.948   2.664   2.622  0.0613  3.0240  0.2761
 6916TIP3    H242308   0.992   2.606   2.755 -0.1526  0.5107 -0.6923
 6917TIP3   OH242309   0.098   3.527   6.843  0.1458  0.2340 -0.1373
 6917TIP3    H142310   0.117   3.574   6.924  1.9360  0.1817 -0.4912
 6917TIP3    H242311   0.096   3.595   6.776  3.9873 -0.1304 -0.8618
 6918TIP3   OH242312   4.507   3.476   8.324 -0.0346 -0.4867 -0.5636
 6918TIP3    H142313   4.534   3.451   8.412 -0.0502  1.9927  0.2346
 6918TIP3    H242314   4.585   3.464   8.270  0.5311 -0.2790  0.1975
 6919TIP3   OH242315   2.564   3.680   7.037  0.5364 -0.4639  0.1574
 6919TIP3    H142316   2.636   3.618   7.025 -0.3605 -1.3409 -0.8568
 6919TIP3    H242317   2.608   3.766   7.043  1.6298 -0.8814 -1.2444
 6920TIP3   OH242318   6.564   6.849   7.946  0.0842  0.7914 -0.2394
 6920TIP3    H142319   6.573   6.760   7.912  1.1213  0.7734  0.0307
 6920TIP3    H242320   6.484   6.848   7.998  0.6971 -0.3085  0.7181
 6921TIP3   OH242321   5.099   1.722   8.570  0.5454  0.3371 -0.1711
 6921TIP3    H142322   5.124   1.671   8.647  1.3715 -0.1796 -0.7683
 6921TIP3    H242323   5.120   1.665   8.496 -0.2730  0.8149 -0.7782
 6922TIP3   OH242324   2.958   1.991   0.124  0.1292 -0.1376  0.3556
 6922TIP3    H142325   2.949   2.061   0.059 -0.3582  1.7572  2.3301
 6922TIP3    H242326   2.869   1.957   0.135  0.1240 -0.1069  0.4070
 6923TIP3   OH242327   0.630   6.242   7.530 -0.7447  0.3607  0.1413
 6923TIP3    H142328   0.713   6.215   7.489 -0.1021  1.3005  0.7755
 6923TIP3    H242329   0.613   6.328   7.492 -1.1789  0.3785  0.3783
 6924TIP3   OH242330   2.172   3.254   8.087  0.6673  0.2899 -0.0451
 6924TIP3    H142331   2.153   3.226   8.177 -2.9334  2.7806  0.1981
 6924TIP3    H242332   2.241   3.320   8.097 -0.4736  1.3743  1.1503
 6925TIP3   OH242333   1.560   1.319   1.915 -0.3084 -0.4418 -0.1792
 6925TIP3    H142334   1.640   1.321   1.862 -0.9608  0.7381 -1.1541
 6925TIP3    H242335   1.535   1.410   1.926 -1.1665 -0.7585  0.6906
 6926TIP3   OH242336   1.635   1.313   8.302 -0.5285  1.1074  0.0548
 6926TIP3    H142337   1.630   1.348   8.213  0.9245 -2.0247 -1.3957
 6926TIP3    H242338   1.548   1.279   8.320 -0.3126 -0.0863 -1.0505
 6927TIP3   OH242339   6.430   1.369   1.093 -0.5800  0.0163 -0.5689
 6927TIP3    H142340   6.344   1.330   1.076 -0.9041  0.5044 -0.0934
 6927TIP3    H242341   6.413   1.463   1.092 -0.6095  0.1120  2.1910
 6928TIP3   OH242342   0.731   4.206   0.071 -0.5800  0.1851 -0.1056
 6928TIP3    H142343   0.764   4.130   0.119  0.3162  0.2921 -0.5283
 6928TIP3    H242344   0.679   4.254   0.135  1.7867  1.1103  1.2554
 6929TIP3   OH242345   5.108   1.585   1.788  0.6500 -0.2314 -0.0910
 6929TIP3    H142346   5.030   1.534   1.808  0.8146 -1.2782 -1.8846
 6929TIP3    H242347   5.101   1.664   1.842 -1.6326 -0.2974 -0.2229
 6930TIP3   OH242348   3.142   5.357   0.405 -0.3102 -0.1424 -0.7806
 6930TIP3    H142349   3.143   5.281   0.346 -0.5396 -2.1194  1.5561
 6930TIP3    H242350   3.228   5.355   0.448 -1.6670 -1.6949  2.2108
 6931TIP3   OH242351   5.190   5.909   0.832  0.7857 -0.4999  0.5437
 6931TIP3    H142352   5.222   5.820   0.820 -0.1772 -0.8085  0.2417
 6931TIP3    H242353   5.215   5.955   0.752  0.4476 -0.7472  0.2957
 6932TIP3   OH242354   5.890   5.080   1.593  0.2533 -0.4450  0.0429
 6932TIP3    H142355   5.919   5.045   1.678 -0.3810  1.8556  1.3104
 6932TIP3    H242356   5.867   5.171   1.612  0.3155  0.2235 -2.6858
 6933TIP3   OH242357   3.153   2.783   7.990 -0.3393  0.2820 -0.4761
 6933TIP3    H142358   3.144   2.774   8.084  1.9016  3.1495  0.1682
 6933TIP3    H242359   3.111   2.705   7.954 -1.5538 -0.7567  2.8256
 6934TIP3   OH242360   2.585   6.114   2.139 -0.5002 -0.0053  0.4150
 6934TIP3    H142361   2.563   6.035   2.090  1.8688 -0.2732 -0.3449
 6934TIP3    H242362   2.619   6.082   2.223 -0.4139  0.2406  0.4769
 6935TIP3   OH242363   5.312   0.201   2.926 -0.5651  0.1152 -0.3733
 6935TIP3    H142364   5.339   0.243   3.008 -0.9467  3.5476 -1.8210
 6935TIP3    H242365   5.275   0.273   2.874 -2.0723 -2.2654 -2.8459
 6936TIP3   OH242366   2.752   2.731   1.845  0.2640 -0.6882 -1.1510
 6936TIP3    H142367   2.789   2.649   1.813  0.9513 -1.0422  0.4596
 6936TIP3    H242368   2.822   2.795   1.833 -0.5004 -0.1448 -3.0282
 6937TIP3   OH242369   3.876   5.496   7.673  0.1395  0.0231  0.3305
 6937TIP3    H142370   3.870   5.407   7.640  0.1996 -0.3119  1.2164
 6937TIP3    H242371   3.926   5.543   7.605  0.5417 -0.7273  0.1022
 6938TIP3   OH242372   0.525   5.057   6.573  0.4510 -0.0024  0.5767
 6938TIP3    H142373   0.501   4.971   6.605  0.2689 -0.0322  0.3664
 6938TIP3    H242374   0.611   5.045   6.532 -0.2899 -0.4447 -0.9123
 6939TIP3   OH242375   2.197   1.346   2.984 -0.2998 -0.0783 -0.3493
 6939TIP3    H142376   2.250   1.423   2.967 -1.8735  0.7133 -1.9472
 6939TIP3    H242377   2.117   1.359   2.933 -2.8390 -0.3889  3.1672
 6940TIP3   OH242378   1.056   2.828   2.041  0.1383  0.2031 -0.5490
 6940TIP3    H142379   0.973   2.861   2.006  0.1019  0.5907 -0.1072
 6940TIP3    H242380   1.088   2.899   2.097  1.1191  0.3479 -1.2614
 6941TIP3   OH242381   5.582   2.204   1.630 -0.3734 -0.0093  0.0473
 6941TIP3    H142382   5.628   2.139   1.683 -1.0476 -1.0675 -0.6283
 6941TIP3    H242383   5.645   2.230   1.563 -0.0232  0.2288  0.4615
 6942TIP3   OH242384   0.874   5.773   7.506  0.5394  0.3308  0.2811
 6942TIP3    H142385   0.948   5.711   7.503 -0.1888 -0.7205  2.0880
 6942TIP3    H242386   0.903   5.840   7.567  1.5794  2.2455 -2.1505
 6943TIP3   OH242387   2.623   3.063   1.839 -0.1215  0.2946  0.0925
 6943TIP3    H142388   2.559   3.133   1.823 -0.6916 -0.0184  0.9558
 6943TIP3    H242389   2.675   3.094   1.913 -1.8446 -1.1091  2.0289
 6944TIP3   OH242390   1.758   4.856   1.099  0.3796 -0.0863  0.3412
 6944TIP3    H142391   1.848   4.887   1.089  0.0457  0.5301 -1.0210
 6944TIP3    H242392   1.735   4.820   1.014 -0.2117 -1.5517  1.0893
 6945TIP3   OH242393   5.669   6.014   0.784  0.3570 -0.0919 -0.7454
 6945TIP3    H142394   5.595   6.072   0.804 -0.2513 -0.9450 -0.4334
 6945TIP3    H242395   5.738   6.042   0.843  0.4457  1.0117 -1.3518
 6946TIP3   OH242396   2.799   0.887   0.525  0.1070  0.0507  0.2415
 6946TIP3    H142397   2.772   0.978   0.536 -1.0560 -0.5067  2.9804
 6946TIP3    H242398   2.723   0.844   0.486  0.1864  0.0328  0.1073
 6947TIP3   OH242399   0.406   0.984   7.954  0.0166 -0.0422 -0.7373
 6947TIP3    H142400   0.317   0.958   7.977 -0.1505  1.8974  1.1841
 6947TIP3    H242401   0.424   0.938   7.873 -1.9037 -2.2196 -0.0392
 6948TIP3   OH242402   5.837   1.064   7.870  0.2166 -0.3906 -0.4030
 6948TIP3    H142403   5.845   1.135   7.933  0.5702  0.6488 -1.5678
 6948TIP3    H242404   5.926   1.049   7.839  0.3916 -2.4336  0.9271
 6949TIP3   OH242405   1.524   6.420   0.170  0.0093  0.4708 -0.1612
 6949TIP3    H142406   1.595   6.446   0.111  1.2028 -0.1182  0.9540
 6949TIP3    H242407   1.456   6.386   0.113  2.1985 -2.7038 -1.1125
 6950TIP3   OH242408   2.733   0.776   8.220 -0.1018  0.3378 -0.1178
 6950TIP3    H142409   2.732   0.690   8.178 -0.2833  0.6199 -0.7165
 6950TIP3    H242410   2.824   0.792   8.241  0.1992  0.7115 -1.5553
 6951TIP3   OH242411   3.542   0.943   1.271 -0.6639  0.2049 -0.7500
 6951TIP3    H142412   3.619   0.892   1.297 -0.9892  0.1554  0.1614
 6951TIP3    H242413   3.544   1.020   1.329 -1.2985  0.1976 -0.7102
 6952TIP3   OH242414   2.680   5.740   0.825 -0.1603  0.0683 -0.0195
 6952TIP3    H142415   2.649   5.752   0.735 -0.4523 -1.2574 -0.1151
 6952TIP3    H242416   2.643   5.656   0.852 -0.0799  0.4508  1.3476
 6953TIP3   OH242417   2.662   5.788   7.179 -0.7248  0.2570  0.5531
 6953TIP3    H142418   2.593   5.825   7.234 -1.1404 -0.6555  0.6713
 6953TIP3    H242419   2.714   5.863   7.151 -1.4134  0.8937  0.9541
 6954TIP3   OH242420   3.794   6.396   7.464 -0.5451 -0.3794 -0.0506
 6954TIP3    H142421   3.840   6.412   7.547 -0.8958  0.1344  0.0466
 6954TIP3    H242422   3.850   6.334   7.418 -1.0241 -1.7575  1.1534
 6955TIP3   OH242423   3.729   6.008   1.898  0.2720 -0.2329  0.9376
 6955TIP3    H142424   3.779   5.933   1.867  1.0387  0.4588  0.4651
 6955TIP3    H242425   3.781   6.084   1.873 -1.1796  0.5372  0.0786
 6956TIP3   OH242426   1.791   3.315   1.596  0.5336  0.3130 -0.5903
 6956TIP3    H142427   1.835   3.371   1.532  2.9780 -2.1237 -1.2494
 6956TIP3    H242428   1.817   3.226   1.571 -2.3010 -1.0770  1.0008
 6957TIP3   OH242429   5.371   4.576   7.165  0.1483 -0.3095 -0.0667
 6957TIP3    H142430   5.427   4.511   7.122  0.4150  0.7362 -1.3675
 6957TIP3    H242431   5.432   4.646   7.191 -0.2862 -0.0762  0.3453
 6958TIP3   OH242432   1.292   6.822   2.938 -0.0611  0.0713  0.4771
 6958TIP3    H142433   1.204   6.804   2.903 -0.1264 -0.4445  0.8832
 6958TIP3    H242434   1.287   6.793   3.029  0.6149 -0.2221  0.4249
 6959TIP3   OH242435   6.742   4.779   1.476  0.0015  0.7434  0.7938
 6959TIP3    H142436   6.769   4.770   1.568  0.2972  1.1011  0.7440
 6959TIP3    H242437   6.743   4.689   1.442 -0.0091  0.6217  1.1134
 6960TIP3   OH242438   1.461   2.597   8.202  0.3573 -0.2074 -0.8176
 6960TIP3    H142439   1.455   2.603   8.107 -0.9589  1.9607 -0.6748
 6960TIP3    H242440   1.521   2.524   8.218  0.7231 -0.5356 -3.2893
 6961TIP3   OH242441   2.456   5.557   0.186 -0.4456  0.2983 -0.5112
 6961TIP3    H142442   2.453   5.499   0.262 -1.2185  0.4476 -0.4204
 6961TIP3    H242443   2.503   5.507   0.120 -2.4561 -1.1295 -0.9828
 6962TIP3   OH242444   5.085   4.363   2.296  0.1708  0.3454 -0.3026
 6962TIP3    H142445   5.075   4.301   2.369 -0.0024 -0.7728 -1.2368
 6962TIP3    H242446   5.173   4.398   2.306 -0.3451  1.3010  1.2505
 6963TIP3   OH242447   3.508   5.762   1.919  0.6761 -0.2127  0.6325
 6963TIP3    H142448   3.496   5.806   1.835 -1.8286 -1.2840  0.3502
 6963TIP3    H242449   3.517   5.834   1.982 -1.2937  0.7272 -0.0774
 6964TIP3   OH242450   2.748   3.372   7.470 -0.3957 -0.1056 -0.0156
 6964TIP3    H142451   2.795   3.397   7.549 -2.3494 -0.5444  1.3428
 6964TIP3    H242452   2.815   3.373   7.401  1.1570  1.2284  1.4226
 6965TIP3   OH242453   6.828   0.774   0.576  0.4181  0.5802  0.1085
 6965TIP3    H142454   6.880   0.702   0.612  0.5722  0.0872 -1.0418
 6965TIP3    H242455   6.766   0.732   0.516 -1.4086  1.1471  1.4943
 6966TIP3   OH242456   1.652   2.824   1.819 -0.2057 -0.5109 -0.1354
 6966TIP3    H142457   1.558   2.833   1.803 -0.8161  0.6682  3.2772
 6966TIP3    H242458   1.690   2.906   1.788 -0.3493 -0.7917 -1.0805
 6967TIP3   OH242459   3.456   1.783   2.834 -0.2247 -0.3549 -0.1745
 6967TIP3    H142460   3.419   1.800   2.921  2.4810  0.4160  0.9497
 6967TIP3    H242461   3.395   1.722   2.793 -1.0756 -1.5869  2.6760
 6968TIP3   OH242462   1.989   0.161   0.638 -0.1938 -0.5425 -0.5029
 6968TIP3    H142463   2.038   0.112   0.705  1.9185  1.8671 -0.1036
 6968TIP3    H242464   2.022   0.126   0.555 -2.0017 -2.7682 -0.3783
 6969TIP3   OH242465   4.662   3.013   8.568 -0.1823 -0.2012 -0.3280
 6969TIP3    H142466   4.573   3.014   8.605 -0.1362  1.2045 -0.1961
 6969TIP3    H242467   4.711   3.075   8.623  1.1191 -1.5862  0.1255
 6970TIP3   OH242468   0.556   3.526   8.557 -0.7837  0.9887  0.3875
 6970TIP3    H142469   0.476   3.508   8.606  0.2538 -1.7300  1.2660
 6970TIP3    H242470   0.609   3.579   8.617 -0.2626 -0.7893  1.5689
 6971TIP3   OH242471   4.708   3.557   1.506  0.4394  0.0001 -0.1079
 6971TIP3    H142472   4.778   3.499   1.475  0.7647  0.5207 -0.3645
 6971TIP3    H242473   4.655   3.501   1.563  2.0196  0.0070  1.4671
 6972TIP3   OH242474   1.146   3.422   0.497 -0.7534  0.0215  0.3149
 6972TIP3    H142475   1.235   3.447   0.520 -1.3854  1.8450  0.8967
 6972TIP3    H242476   1.147   3.415   0.401  0.0693 -0.2429  0.3402
 6973TIP3   OH242477   0.045   5.814   7.497  0.0074  0.5993 -0.0369
 6973TIP3    H142478   0.025   5.820   7.591  2.5053  1.9403  0.5001
 6973TIP3    H242479   0.128   5.765   7.493  0.7306  1.8546 -1.3895
 6974TIP3   OH242480   5.710   2.932   2.896  0.2780 -0.5636  0.0046
 6974TIP3    H142481   5.646   2.888   2.840  0.2707 -0.6325  0.0682
 6974TIP3    H242482   5.733   2.867   2.962 -0.6464 -0.0707  0.8272
 6975TIP3   OH242483   1.288   4.155   7.338 -0.4467  0.0999  0.7467
 6975TIP3    H142484   1.193   4.149   7.349 -0.5873  0.6159 -0.1526
 6975TIP3    H242485   1.313   4.234   7.385 -0.2619 -0.6993  2.0748
 6976TIP3   OH242486   5.829   5.157   2.124  0.3317  0.2801  0.6650
 6976TIP3    H142487   5.819   5.067   2.154 -0.3225  0.2598  0.4216
 6976TIP3    H242488   5.756   5.204   2.165 -0.2374  0.3714 -0.3956
 6977TIP3   OH242489   2.671   5.994   8.465  0.0783 -0.0369 -0.4170
 6977TIP3    H142490   2.697   6.060   8.530 -1.9333 -0.1096  0.5470
 6977TIP3    H242491   2.658   6.044   8.384 -1.4113  0.8099  0.3004
 6978TIP3   OH242492   2.739   5.557   7.057 -0.4482  0.0975  0.4379
 6978TIP3    H142493   2.669   5.503   7.094 -0.4471  0.3503  0.8144
 6978TIP3    H242494   2.714   5.647   7.078  0.5039  0.1430  1.5108
 6979TIP3   OH242495   5.144   3.244   8.545  0.7152 -0.1006  0.8407
 6979TIP3    H142496   5.205   3.279   8.479 -1.3536  0.7775 -0.7242
 6979TIP3    H242497   5.110   3.322   8.589 -0.0563 -0.5021  0.9615
 6980TIP3   OH242498   2.561   0.620   1.156 -0.3511  0.2096 -0.2868
 6980TIP3    H142499   2.627   0.660   1.100 -0.2548 -0.2692 -0.5187
 6980TIP3    H242500   2.609   0.559   1.212 -0.4514  0.6583  0.2963
 6981TIP3   OH242501   4.676   0.078   8.044 -0.2773 -0.1780 -0.8334
 6981TIP3    H142502   4.691   0.006   8.105  0.1688  0.7090  0.1252
 6981TIP3    H242503   4.706   0.044   7.960  1.2485 -0.6422 -0.1373
 6982TIP3   OH242504   3.343   4.356   1.177  0.2434 -0.1349 -0.2837
 6982TIP3    H142505   3.303   4.280   1.219  0.0911 -1.0625 -1.9840
 6982TIP3    H242506   3.408   4.388   1.240  0.7344 -2.0525  0.2384
 6983TIP3   OH242507   5.752   4.473   7.991  0.6226 -0.5634 -0.4262
 6983TIP3    H142508   5.663   4.438   7.994  0.2090  0.5056  1.5283
 6983TIP3    H242509   5.808   4.396   7.994 -0.2632 -1.1930  2.1100
 6984TIP3   OH242510   0.493   0.402   1.607  0.5983 -0.2520 -0.0186
 6984TIP3    H142511   0.503   0.408   1.702 -1.7418  0.9093  0.2211
 6984TIP3    H242512   0.466   0.489   1.580  0.1646 -0.8462 -1.6138
 6985TIP3   OH242513   2.535   6.621   0.556 -0.2551 -0.5889  0.1315
 6985TIP3    H142514   2.561   6.643   0.645 -1.7525 -0.0412  0.4559
 6985TIP3    H242515   2.454   6.571   0.566 -0.9566  0.2734 -0.9448
 6986TIP3   OH242516   5.272   0.179   1.631 -0.4501 -0.5050 -0.2293
 6986TIP3    H142517   5.349   0.124   1.640 -0.5678 -0.4648  1.3959
 6986TIP3    H242518   5.264   0.224   1.716 -2.8466 -1.3169  0.0608
 6987TIP3   OH242519   2.693   0.576   8.616 -0.0815  0.1085 -0.4735
 6987TIP3    H142520   2.639   0.568   8.538  0.7535  0.0244 -1.0617
 6987TIP3    H242521   2.782   0.587   8.583  0.6717 -2.4258  0.4367
 6988TIP3   OH242522   1.487   3.267   7.889  0.1554 -0.0556  0.1506
 6988TIP3    H142523   1.444   3.198   7.940  1.9579 -1.1451  0.2908
 6988TIP3    H242524   1.463   3.249   7.798 -1.2677  0.5649  0.3808
 6989TIP3   OH242525   1.878   4.984   7.324 -0.3644 -0.3097 -0.0810
 6989TIP3    H142526   1.798   4.999   7.375 -1.7744  0.4097 -2.3915
 6989TIP3    H242527   1.924   5.068   7.327 -1.3869  0.3313 -1.5056
 6990TIP3   OH242528   5.496   1.897   1.081  0.3317  0.7569  0.6024
 6990TIP3    H142529   5.439   1.952   1.134  0.2408  0.2729  1.0199
 6990TIP3    H242530   5.468   1.807   1.101 -0.0938  0.5782 -0.6948
 6991TIP3   OH242531   5.093   6.507   1.267  0.2645  0.0600  0.6320
 6991TIP3    H142532   5.143   6.575   1.222  1.7836 -2.0201 -1.0594
 6991TIP3    H242533   5.154   6.472   1.333 -0.6558  0.5848  1.8021
 6992TIP3   OH242534   3.773   0.750   8.291 -0.3696 -0.5352 -0.0391
 6992TIP3    H142535   3.866   0.773   8.295 -0.5197 -0.0545  1.4526
 6992TIP3    H242536   3.773   0.655   8.276  0.4061 -0.7381  1.0822
 6993TIP3   OH242537   4.754   6.457   0.549  0.4118 -0.1198 -0.2714
 6993TIP3    H142538   4.840   6.453   0.507  0.1564  2.7480 -1.3114
 6993TIP3    H242539   4.742   6.550   0.569 -1.3490 -0.8137  2.2975
 6994TIP3   OH242540   4.909   5.294   1.780 -0.3999 -0.4160 -0.1583
 6994TIP3    H142541   4.888   5.220   1.724 -0.2923 -0.1096 -0.6071
 6994TIP3    H242542   4.861   5.277   1.861 -1.5459 -0.2629 -0.7759
 6995TIP3   OH242543   4.483   0.966   0.496 -0.1500  0.0800 -0.0814
 6995TIP3    H142544   4.542   0.923   0.558 -1.3175 -1.2695  0.1390
 6995TIP3    H242545   4.461   1.049   0.537  0.3309 -0.0986  0.5655
 6996TIP3   OH242546   6.249   6.538   1.857 -0.3253 -0.1602 -0.2131
 6996TIP3    H142547   6.269   6.448   1.832  1.2324 -1.1016  3.6460
 6996TIP3    H242548   6.318   6.590   1.816  0.6856 -1.2124  0.0750
 6997TIP3   OH242549   6.391   0.102   7.293 -0.2749 -0.3796  0.6944
 6997TIP3    H142550   6.479   0.068   7.313 -0.0371  0.4329  1.0547
 6997TIP3    H242551   6.376   0.077   7.202  0.0871 -1.0333  0.8030
 6998TIP3   OH242552   5.641   0.744   1.506 -0.2899 -0.0331 -0.1755
 6998TIP3    H142553   5.722   0.707   1.541 -0.0355  0.2922 -0.4099
 6998TIP3    H242554   5.616   0.686   1.435 -1.4120 -1.3384  1.2220
 6999TIP3   OH242555   5.839   1.591   8.349  0.1342  0.1828  0.1133
 6999TIP3    H142556   5.801   1.527   8.409  1.4041  0.0754  0.8446
 6999TIP3    H242557   5.840   1.548   8.264 -0.6434 -0.0905  0.2349
 7000TIP3   OH242558   5.189   3.713   0.902  0.0871  0.7933  0.2176
 7000TIP3    H142559   5.260   3.777   0.898  1.4614 -0.7005 -0.6119
 7000TIP3    H242560   5.233   3.630   0.919 -1.5808 -0.0344  0.7020
 7001TIP3   OH242561   1.933   5.671   7.568  0.2600  0.4761  0.8036
 7001TIP3    H142562   1.998   5.635   7.508 -0.3312  1.0383 -0.1854
 7001TIP3    H242563   1.985   5.701   7.643  1.1494  0.9933  0.0042
 7002TIP3   OH242564   4.033   6.824   6.910 -0.2109  0.4603 -0.0377
 7002TIP3    H142565   3.974   6.842   6.983 -0.8667 -1.0866 -0.1328
 7002TIP3    H242566   3.997   6.876   6.837 -0.5479  0.7134  0.3037
 7003TIP3   OH242567   4.318   5.251   7.432  0.0340  0.3943 -0.4099
 7003TIP3    H142568   4.243   5.195   7.407  1.0317 -0.2608 -2.1238
 7003TIP3    H242569   4.278   5.335   7.455 -1.1849  0.5818 -2.8191
 7004TIP3   OH242570   0.351   0.114   2.605 -0.0571 -0.2481  0.7816
 7004TIP3    H142571   0.395   0.109   2.690 -1.1006  0.8759  1.4244
 7004TIP3    H242572   0.288   0.186   2.615 -0.8491 -0.7046 -0.6512
 7005TIP3   OH242573   0.776   4.671   2.084 -0.7188  0.0576 -1.4171
 7005TIP3    H142574   0.848   4.700   2.029  0.4722  0.4078  0.2333
 7005TIP3    H242575   0.748   4.750   2.131 -0.3493 -0.5771 -0.0739
 7006TIP3   OH242576   0.449   5.529   8.310 -0.2553  0.1816 -0.0875
 7006TIP3    H142577   0.491   5.496   8.390  0.0983 -0.0053 -0.3469
 7006TIP3    H242578   0.384   5.591   8.341 -0.3621 -0.1497  0.3691
 7007TIP3   OH242579   6.819   3.743   1.773 -0.0005  0.0477  0.1446
 7007TIP3    H142580   6.894   3.713   1.722 -0.3991 -1.7994  0.5614
 7007TIP3    H242581   6.743   3.706   1.728 -0.4587 -0.3312  1.2028
 7008TIP3   OH242582   5.230   4.830   1.210 -0.3091 -0.5669 -0.6773
 7008TIP3    H142583   5.290   4.755   1.211  1.2179  0.5688  1.8836
 7008TIP3    H242584   5.153   4.800   1.258  0.6527 -0.3030  1.1024
 7009TIP3   OH242585   1.979   5.739   8.337 -0.1108  0.3765  0.4222
 7009TIP3    H142586   1.975   5.644   8.330 -1.3909  0.3938  0.6513
 7009TIP3    H242587   2.069   5.757   8.364  0.0660 -0.7898  0.6804
 7010TIP3   OH242588   1.653   3.075   0.056 -0.1985  0.1613  0.8412
 7010TIP3    H142589   1.661   2.982   0.035 -0.5422  0.3337 -0.1280
 7010TIP3    H242590   1.695   3.084   0.142  0.9189 -0.6763  0.4182
 7011TIP3   OH242591   4.000   6.207   2.492  0.4379  0.3470 -0.0690
 7011TIP3    H142592   3.909   6.218   2.518  0.5880  0.1364  0.5821
 7011TIP3    H242593   4.026   6.123   2.530  1.1194  0.7583  0.4083
 7012TIP3   OH242594   3.970   4.859   7.199  0.1382  0.3109 -0.0785
 7012TIP3    H142595   3.988   4.820   7.285  0.3790  1.5839  0.4584
 7012TIP3    H242596   3.875   4.849   7.188  0.2555 -0.9016 -0.2098
 7013TIP3   OH242597   5.347   6.520   8.620  0.4327 -0.7950 -1.0066
 7013TIP3    H142598   5.263   6.475   8.623 -1.3066  2.0431 -2.4613
 7013TIP3    H242599   5.381   6.513   8.709 -2.4609 -0.1677  0.2715
 7014TIP3   OH242600   0.117   5.595   6.575  0.2309 -0.0726 -0.0999
 7014TIP3    H142601   0.068   5.671   6.541  0.6256  0.4573  0.5126
 7014TIP3    H242602   0.070   5.520   6.539 -0.1040  0.4587 -0.8073
 7015TIP3   OH242603   5.894   6.201   8.524 -0.4483 -0.3771  0.1212
 7015TIP3    H142604   5.843   6.279   8.543 -1.3936 -1.7062  3.7381
 7015TIP3    H242605   5.831   6.139   8.486 -0.0208  0.0383 -1.3454
 7016TIP3   OH242606   2.924   1.918   0.992  0.7374 -0.1457  0.0748
 7016TIP3    H142607   2.925   2.012   0.974  1.9373  0.4653  2.8907
 7016TIP3    H242608   3.015   1.891   0.986  0.4550 -1.0567 -0.2954
 7017TIP3   OH242609   3.108   1.053   1.665 -0.5412  0.2677 -0.2154
 7017TIP3    H142610   3.113   0.995   1.589 -1.6411 -0.5542  0.2989
 7017TIP3    H242611   3.014   1.059   1.684 -0.4221  1.9233 -0.0068
 7018TIP3   OH242612   5.840   2.185   2.066 -0.6164  0.2401  0.0493
 7018TIP3    H142613   5.811   2.101   2.031 -0.7954 -0.0980  0.9857
 7018TIP3    H242614   5.780   2.249   2.029 -1.9331 -0.3305  1.1310
 7019TIP3   OH242615   0.626   6.438   0.747 -0.5774 -0.4345  0.1258
 7019TIP3    H142616   0.628   6.498   0.673  0.5761 -1.6444 -0.8668
 7019TIP3    H242617   0.656   6.491   0.821 -1.0793  0.6091 -0.3846
 7020TIP3   OH242618   3.348   2.882   7.787 -0.2190  0.0446  0.6902
 7020TIP3    H142619   3.292   2.846   7.856 -1.1876  0.6529  0.2473
 7020TIP3    H242620   3.308   2.851   7.705 -0.1428  0.8106  0.3564
 7021TIP3   OH242621   3.666   3.385   7.774  0.3099  0.5938 -0.0107
 7021TIP3    H142622   3.662   3.472   7.734  0.7864  0.1468 -1.0888
 7021TIP3    H242623   3.752   3.382   7.817  0.9176  0.1771 -1.1989
 7022TIP3   OH242624   1.792   4.012   0.983  0.2943 -0.5464  0.4837
 7022TIP3    H142625   1.848   4.079   0.944  0.3462 -0.4113  0.7814
 7022TIP3    H242626   1.704   4.034   0.953  0.2478 -0.0564  0.9679
 7023TIP3   OH242627   2.333   4.174   0.750  0.3041 -0.1404  0.1905
 7023TIP3    H142628   2.361   4.087   0.778  1.1058  0.6995  2.1703
 7023TIP3    H242629   2.313   4.165   0.657  0.9351 -2.2848  0.2331
 7024TIP3   OH242630   2.406   4.308   7.478  0.8069 -0.4072  0.0748
 7024TIP3    H142631   2.426   4.215   7.467  0.8883 -0.2947 -0.7672
 7024TIP3    H242632   2.437   4.349   7.398  1.5608  0.4808  0.8005
 7025TIP3   OH242633   3.683   1.038   6.842  0.1240  0.1838 -0.0801
 7025TIP3    H142634   3.705   1.131   6.854  0.1576 -0.0985  2.9331
 7025TIP3    H242635   3.591   1.038   6.819  0.1061  0.9825 -0.0519
 7026TIP3   OH242636   6.000   4.176   0.290  0.2087  0.0684 -0.1264
 7026TIP3    H142637   5.998   4.095   0.239 -0.2496  0.5471 -0.8925
 7026TIP3    H242638   5.927   4.227   0.256 -0.2254  0.3309  1.1646
 7027TIP3   OH242639   6.593   0.421   1.289  0.0626 -0.4340  0.2451
 7027TIP3    H142640   6.592   0.498   1.233 -1.4666 -0.9894 -0.5659
 7027TIP3    H242641   6.649   0.445   1.363  2.3459  0.2491 -1.5825
 7028TIP3   OH242642   2.841   3.292   1.626 -0.4458 -0.4761  0.0380
 7028TIP3    H142643   2.857   3.321   1.716  1.6292  1.5871 -0.8773
 7028TIP3    H242644   2.756   3.330   1.604 -0.6730 -0.4492  0.9081
 7029TIP3   OH242645   0.703   3.734   0.035  0.6815  0.4512 -0.4041
 7029TIP3    H142646   0.744   3.750   0.120 -0.1408  1.0672 -0.1044
 7029TIP3    H242647   0.609   3.748   0.051  0.3091 -1.1525 -1.0029
 7030TIP3   OH242648   2.125   5.079   8.147 -0.0897  0.3333  0.2638
 7030TIP3    H142649   2.193   5.147   8.147 -0.1183  0.3906 -1.1681
 7030TIP3    H242650   2.122   5.048   8.238  0.9545  1.2133  0.6212
 7031TIP3   OH242651   1.020   4.098   7.452  0.4106  0.0775 -0.3960
 7031TIP3    H142652   1.045   4.045   7.528  0.5182  1.6575  0.7308
 7031TIP3    H242653   0.927   4.117   7.465  0.0992 -0.6923 -1.3596
 7032TIP3   OH242654   1.334   0.502   8.042  0.2371 -0.3705  0.0017
 7032TIP3    H142655   1.383   0.420   8.039  0.2640 -0.3634  0.2403
 7032TIP3    H242656   1.343   0.538   7.954  1.9740  0.3980  0.4509
 7033TIP3   OH242657   0.804   5.930   7.808  0.1115  0.3657  0.3123
 7033TIP3    H142658   0.874   5.871   7.782  0.1713 -0.1145  1.5121
 7033TIP3    H242659   0.846   5.995   7.864 -0.0960  1.0980 -0.3690
 7034TIP3   OH242660   2.196   1.071   2.976 -0.3670  0.2533 -0.0813
 7034TIP3    H142661   2.194   1.164   2.998  0.8115 -0.2925  2.7898
 7034TIP3    H242662   2.175   1.026   3.059 -2.7988 -2.0653 -1.7613
 7035TIP3   OH242663   6.422   4.528   0.193 -0.4208  0.7844 -0.3380
 7035TIP3    H142664   6.418   4.508   0.287 -0.3099  1.0884 -0.2699
 7035TIP3    H242665   6.424   4.442   0.151  0.3487  0.6411 -0.0294
 7036TIP3   OH242666   2.851   1.115   6.848  0.0974  0.2085 -0.0774
 7036TIP3    H142667   2.913   1.105   6.776  1.2710 -0.5862  0.9910
 7036TIP3    H242668   2.844   1.210   6.862  2.4810  0.2922  0.9098
 7037TIP3   OH242669   5.793   2.751   7.374  0.0084  0.4874 -0.2996
 7037TIP3    H142670   5.793   2.712   7.461  0.3844 -1.2942 -1.0547
 7037TIP3    H242671   5.702   2.740   7.343 -0.0370  0.7828 -0.2688
 7038TIP3   OH242672   0.817   3.214   1.801 -0.1887 -0.2047 -0.0983
 7038TIP3    H142673   0.744   3.235   1.742 -0.3935 -1.2944 -0.2644
 7038TIP3    H242674   0.805   3.272   1.876 -1.4241 -0.5917  0.0241
 7039TIP3   OH242675   2.939   6.755   0.652 -0.4426 -0.2865 -0.0847
 7039TIP3    H142676   2.940   6.733   0.746  0.8562  0.5536  0.1260
 7039TIP3    H242677   3.015   6.812   0.640  1.4717 -3.0393 -2.2838
 7040TIP3   OH242678   5.609   5.425   7.254  0.0977 -0.4127  0.0736
 7040TIP3    H142679   5.565   5.479   7.319  0.0653 -1.7743  1.2248
 7040TIP3    H242680   5.637   5.487   7.187  1.7390  1.3113  2.2228
 7041TIP3   OH242681   5.914   2.042   2.306 -0.3745 -0.3727  0.0534
 7041TIP3    H142682   5.891   2.070   2.217 -1.5869 -2.0852 -0.2271
 7041TIP3    H242683   5.930   1.948   2.298 -1.4037 -0.7458  1.8066
 7042TIP3   OH242684   3.468   5.501   6.924  0.4875  0.4601  0.0446
 7042TIP3    H142685   3.409   5.568   6.957  0.4444 -0.2011  1.3781
 7042TIP3    H242686   3.548   5.512   6.976 -0.3279 -1.9607  2.0121
 7043TIP3   OH242687   4.654   5.262   6.747  0.2357  0.2138 -0.3458
 7043TIP3    H142688   4.619   5.347   6.772  0.0582 -0.2973  1.2857
 7043TIP3    H242689   4.746   5.277   6.729 -0.2828  1.1628 -2.4489
 7044TIP3   OH242690   2.345   5.976   7.569 -0.7621  1.0158 -0.4073
 7044TIP3    H142691   2.268   6.006   7.618  1.4744  4.4463  1.3903
 7044TIP3    H242692   2.351   6.036   7.495  0.7697  1.5220  0.1047
 7045TIP3   OH242693   0.501   6.686   1.725  0.3297 -0.1276  0.1494
 7045TIP3    H142694   0.550   6.688   1.807 -1.7158 -1.0890  1.4569
 7045TIP3    H242695   0.422   6.737   1.742 -0.6870 -1.2929 -0.8112
 7046TIP3   OH242696   0.592   3.509   7.518  0.1260  0.2491  0.3463
 7046TIP3    H142697   0.665   3.490   7.577  0.2489  0.5101  0.2782
 7046TIP3    H242698   0.590   3.605   7.512  0.9443  0.1989 -1.1095
 7047TIP3   OH242699   3.409   3.713   7.411 -0.4728  0.0011 -0.3644
 7047TIP3    H142700   3.332   3.685   7.460 -0.3812  0.7753  0.2441
 7047TIP3    H242701   3.481   3.661   7.448 -0.6962 -0.7347 -0.9456
 7048TIP3   OH242702   2.254   0.376   0.838  0.5892  0.1678  0.0218
 7048TIP3    H142703   2.217   0.422   0.763  0.3654 -0.4353 -0.2460
 7048TIP3    H242704   2.302   0.443   0.886 -1.4064  1.1415  0.7761
 7049TIP3   OH242705   0.910   0.099   2.148 -0.7779  0.2048  0.1205
 7049TIP3    H142706   0.851   0.023   2.145 -1.5457  0.7412  0.9997
 7049TIP3    H242707   0.911   0.125   2.240 -0.5571  1.2914 -0.1725
 7050TIP3   OH242708   3.710   3.080   0.050 -0.0477  0.5921 -0.4860
 7050TIP3    H142709   3.620   3.105   0.074  0.0742  1.7455 -1.1595
 7050TIP3    H242710   3.765   3.145   0.093  0.5045 -0.3419  0.2373
 7051TIP3   OH242711   1.042   2.503   1.431  0.4137  0.4942  0.5091
 7051TIP3    H142712   0.974   2.503   1.497  0.4208  0.7965  0.5154
 7051TIP3    H242713   1.085   2.417   1.440 -2.3084 -1.3266 -1.9247
 7052TIP3   OH242714   0.981   4.287   0.390 -0.5067  0.2699 -0.0174
 7052TIP3    H142715   1.012   4.239   0.313 -0.0159  0.8735 -0.1999
 7052TIP3    H242716   1.059   4.330   0.424 -0.0173 -2.3062  2.5442
 7053TIP3   OH242717   3.343   5.365   1.981 -0.1013  0.1450  0.1720
 7053TIP3    H142718   3.319   5.436   1.921  0.5438 -0.8476 -1.3154
 7053TIP3    H242719   3.406   5.405   2.041 -1.7472  1.4998  1.0768
 7054LIG     O142720   1.685   0.965   3.989 -0.1904  0.1788 -0.1892
 7054LIG     O242721   1.921   0.891   3.871  0.4809 -0.4875  0.6923
 7054LIG     O342722   1.633   1.230   3.838  0.0684 -0.3368 -0.1427
 7054LIG     O442723   1.905   0.669   3.791 -0.2612  0.0628  0.6995
 7054LIG     O542724   1.717   0.970   3.672 -0.0482  0.3189  0.4388
 7054LIG     O642725   1.824   0.854   3.415  0.1386 -0.1730 -0.6596
 7054LIG     O742726   1.870   0.557   3.448 -0.5739  0.4154  0.1552
 7054LIG     O842727   2.043   0.425   3.689  0.4135  0.5116 -0.0041
 7054LIG     O942728   1.840   0.334   3.667 -0.2820  0.1087  0.6648
 7054LIG      N42729   1.746   0.979   4.491 -0.1723  0.2123 -0.0205
 7054LIG     C142730   1.758   0.941   4.208  0.1226 -0.1792  0.9193
 7054LIG     C242731   1.895   0.948   4.288  0.3638  0.8610  0.1185
 7054LIG     C342732   1.764   0.873   4.069 -0.6898 -0.3386  0.3853
 7054LIG     C442733   1.859   1.039   4.410 -0.0747  0.1407  0.6348
 7054LIG     C542734   1.637   0.902   4.298  0.5690  0.2004  0.2196
 7054LIG     C642735   1.729   1.088   4.173  0.4508 -0.0063 -0.0811
 7054LIG     C742736   1.820   1.183   4.371 -0.3114 -0.5420 -0.8964
 7054LIG     C842737   1.615   0.976   4.419  0.2922 -0.2648 -0.3305
 7054LIG     C942738   1.903   0.869   4.010  0.0302  0.3591 -0.3161
 7054LIG    C1042739   1.764   1.201   4.240 -0.4651 -0.3211 -0.4596
 7054LIG    C1142740   2.017   0.982   4.204  0.0973  0.3123  0.0987
 7054LIG    C1242741   1.695   1.095   4.036  0.2594 -0.1648 -0.2833
 7054LIG    C1342742   2.016   0.948   4.074  0.1977 -0.4171 -0.3014
 7054LIG    C1442743   1.784   0.856   4.560 -0.4986  0.0320 -0.0828
 7054LIG    C1542744   1.751   1.332   4.183 -0.3838  0.1491 -0.2226
 7054LIG    C1642745   1.673   1.221   3.971 -0.0918 -0.0713  0.1043
 7054LIG    C1742746   1.697   1.338   4.050  0.2518  0.3545  0.0699
 7054LIG    C1842747   1.840   0.799   3.792 -0.2646  0.3870  0.7909
 7054LIG    C1942748   1.823   0.870   3.657  0.5248  0.3718 -0.5996
 7054LIG    C2042749   1.803   0.784   3.540 -0.6685  0.4902  0.0970
 7054LIG    C2142750   1.887   0.650   3.553 -0.3799  0.5193  0.2594
 7054LIG    C2242751   1.849   0.583   3.685 -0.0309 -1.2001  1.0941
 7054LIG    C2342752   1.900   0.443   3.683 -0.4397 -0.0918  0.8553
 7054LIG     H142753   1.909   0.844   4.324  0.9006  1.2448  1.0535
 7054LIG     H242754   1.708   0.777   4.063 -1.8110  0.3252 -0.1558
 7054LIG     H342755   1.947   1.050   4.478  1.3911 -1.0599 -0.9613
 7054LIG     H442756   1.658   0.795   4.321  0.5112 -0.2526 -1.6567
 7054LIG     H542757   1.549   0.910   4.232 -0.1098  0.2950  1.1222
 7054LIG     H642758   1.910   1.247   4.379  0.0882 -1.2300  0.3213
 7054LIG     H742759   1.747   1.226   4.444  0.3787  0.3572 -0.7167
 7054LIG     H842760   1.578   1.080   4.402 -1.2165 -0.4193  1.5831
 7054LIG     H942761   1.539   0.922   4.479 -0.4405  1.5466  0.4563
 7054LIG    H1042762   1.928   0.761   4.019  0.3035  0.4935  0.6772
 7054LIG    H1142763   2.082   1.066   4.235 -2.0246  2.0175  0.1699
 7054LIG    H1242764   2.103   0.974   4.011 -0.6430  1.0526 -0.9016
 7054LIG    H1342765   1.700   0.814   4.620 -2.2126  1.2313 -1.5690
 7054LIG    H1442766   1.851   0.886   4.644  0.1401 -3.7527  0.9995
 7054LIG    H1542767   1.839   0.778   4.502  1.5286  1.7820 -0.6329
 7054LIG    H1642768   1.789   1.420   4.232 -1.2368  0.1645  0.4311
 7054LIG    H1742769   1.686   1.435   4.004  0.6864  1.0676  1.4410
 7054LIG    H1842770   1.739   0.782   3.836 -0.7196  0.6838 -0.1095
 7054LIG    H1942771   1.921   0.919   3.639 -0.8409  3.7483  0.3023
 7054LIG    H2042772   1.696   0.755   3.536 -0.2940 -0.8903 -0.5702
 7054LIG    H2142773   1.634   1.142   3.799 -0.4469 -0.6265  0.4728
 7054LIG    H2242774   1.995   0.674   3.563 -0.2273  0.1451 -0.4581
 7054LIG    H2342775   1.739   0.568   3.697  0.2155 -3.2853  1.1053
 7054LIG    H2442776   1.737   1.041   3.611  0.6014  1.4118  1.8649
 7054LIG    H2542777   1.778   0.811   3.342  0.2153  0.8630 -1.3397
 7054LIG    H2642778   1.926   0.599   3.382  1.5373 -0.7284  1.1040
 7054LIG    H2742779   2.058   0.337   3.655 -3.7038 -0.4640  0.1818
   6.87196   6.87196   8.65775
