Title
82302
    1SAPS     N    1   5.072   3.453  11.057 -0.1718  0.4939  0.2317
    1SAPS   HN1    2   5.068   3.555  11.037 -0.6846  0.0563 -2.1889
    1SAPS   HN2    3   5.083   3.387  10.978  1.5203 -0.7439  1.4456
    1SAPS   HN3    4   4.971   3.439  11.080 -0.3273  0.3644 -0.5110
    1SAPS   C12    5   5.169   3.405  11.166  0.4931  0.4205  0.0584
    1SAPS  H12A    6   5.269   3.427  11.131  1.1931 -0.7907  1.2190
    1SAPS   C13    7   5.158   3.480  11.301  0.1856 -0.2200 -0.2077
    1SAPS  O13A    8   5.077   3.574  11.308 -0.0189 -0.1600 -0.4093
    1SAPS  O13B    9   5.233   3.458  11.395 -0.3207  0.6455 -0.2435
    1SAPS   C11   10   5.152   3.248  11.184  0.1773  0.8178  0.8678
    1SAPS  H11A   11   5.052   3.216  11.223  1.1304 -0.7836  2.1216
    1SAPS  H11B   12   5.232   3.221  11.256  2.2528  2.7821 -0.5683
    1SAPS     P   13   5.158   3.027  11.057  0.3946 -0.1522 -0.0273
    1SAPS   O13   14   5.271   2.961  11.126 -0.2136  0.0315 -0.4381
    1SAPS   O14   15   5.018   2.993  11.096  0.0982 -0.0467 -0.3350
    1SAPS   O12   16   5.179   3.184  11.062  0.0109 -0.4193 -0.6630
    1SAPS   O11   17   5.170   3.003  10.900 -0.3669  0.6853  0.0556
    1SAPS    C1   18   5.292   3.010  10.827 -0.3673  0.6886 -0.5780
    1SAPS    HA   19   5.343   3.104  10.859 -1.2791  0.8233  0.5370
    1SAPS    HB   20   5.366   2.930  10.849 -0.5687  0.2157 -1.5941
    1SAPS    C2   21   5.280   3.026  10.671  0.4016  0.6787  0.3306
    1SAPS    HS   22   5.221   3.119  10.656 -1.8189 -0.8170 -0.6406
    1SAPS   O21   23   5.199   2.912  10.622 -0.4977 -0.4909  0.1002
    1SAPS   C21   24   5.117   2.954  10.527  0.2267  0.2941 -0.4617
    1SAPS   O22   25   5.091   3.068  10.490 -0.4458 -0.5251  0.0440
    1SAPS   C22   26   5.056   2.839  10.444  0.6334  0.1444  0.6714
    1SAPS   H2R   27   4.990   2.776  10.508 -2.6632  0.5661 -2.0573
    1SAPS   H2S   28   4.991   2.890  10.370  0.1608 -0.5840  0.5659
    1SAPS    C3   29   5.411   3.023  10.594 -0.4495  0.1500  0.5703
    1SAPS    HX   30   5.448   2.919  10.603 -0.7195  0.0413  0.4388
    1SAPS    HY   31   5.482   3.093  10.644 -0.8524  0.1084  1.2151
    1SAPS   O31   32   5.381   3.044  10.458 -0.4280  0.3626  1.1878
    1SAPS   C31   33   5.457   3.142  10.393 -0.3016 -0.1083 -0.0984
    1SAPS   O32   34   5.546   3.204  10.447  0.5811  0.0965 -0.0858
    1SAPS   C32   35   5.418   3.155  10.256  0.6553  0.0049 -0.0689
    1SAPS   H2X   36   5.360   3.069  10.216 -1.2606  1.0230  0.3754
    1SAPS   H2Y   37   5.512   3.152  10.197 -0.1581 -2.8522 -1.3941
    1SAPS   C23   38   5.158   2.749  10.379  0.3076 -0.1785  0.0785
    1SAPS   H3R   39   5.141   2.648  10.421 -0.5578 -0.9474 -1.9817
    1SAPS   H3S   40   5.263   2.774  10.406  1.0707 -0.0796 -2.6719
    1SAPS   C24   41   5.132   2.749  10.229 -0.6852  0.2349 -0.8317
    1SAPS   H4R   42   5.023   2.737  10.212 -0.2945 -0.4335 -3.2527
    1SAPS   H4S   43   5.179   2.661  10.181  0.7521  0.1130  0.7012
    1SAPS   C25   44   5.172   2.870  10.137  0.1662  0.1096  0.5033
    1SAPS   H5R   45   5.184   2.971  10.178 -2.3070  1.5679 -2.0188
    1SAPS   C26   46   5.199   2.854  10.005 -1.0312  0.0411 -0.5266
    1SAPS   H6R   47   5.220   2.941   9.942 -0.0013 -0.0122 -0.2812
    1SAPS   C27   48   5.187   2.724   9.921  0.4008 -0.0467 -0.8129
    1SAPS   H7R   49   5.080   2.709   9.896  0.0345  2.9763 -1.4655
    1SAPS   H7S   50   5.210   2.632   9.978 -2.4113 -0.4773 -0.2094
    1SAPS   C28   51   5.249   2.713   9.783  0.8022  0.0183 -0.1680
    1SAPS   H8R   52   5.337   2.648   9.771  0.7698  0.2137 -1.5773
    1SAPS   C29   53   5.209   2.777   9.673 -0.1309 -0.4735 -0.2723
    1SAPS   H9R   54   5.271   2.763   9.583  2.6126  0.8737  1.2647
    1SAPS  C210   55   5.096   2.878   9.661 -0.8512 -0.3127 -0.1599
    1SAPS  H10R   56   5.142   2.979   9.659 -2.7879  0.6331  0.7009
    1SAPS  H10S   57   5.039   2.880   9.756  1.2947  2.1406  1.1932
    1SAPS  C211   58   5.013   2.853   9.541 -0.0360  0.6060  0.3541
    1SAPS  H11R   59   4.976   2.750   9.530  0.4625  0.3551  0.9707
    1SAPS  C212   60   4.966   2.941   9.451 -0.7859  0.1544 -0.9242
    1SAPS  H12R   61   4.892   2.908   9.376 -1.8721 -2.6314  1.1685
    1SAPS  C213   62   5.006   3.087   9.446  0.5188 -0.1041  0.6159
    1SAPS  H13R   63   5.059   3.112   9.352 -0.4949  0.1045  0.0944
    1SAPS  H13S   64   5.089   3.112   9.516 -0.7034  2.3298  1.3218
    1SAPS  C214   65   4.894   3.179   9.487 -0.4567  0.2163  0.4438
    1SAPS  H14R   66   4.905   3.213   9.591  0.9124 -1.2400  0.8112
    1SAPS  C215   67   4.803   3.224   9.401  0.7590 -0.0573 -0.0980
    1SAPS  H15R   68   4.727   3.293   9.440  0.7545 -0.9738  1.6312
    1SAPS  C216   69   4.793   3.201   9.245 -0.2088  0.5985 -1.1825
    1SAPS  H16R   70   4.736   3.106   9.231 -0.3455  0.5892 -0.5585
    1SAPS  H16S   71   4.892   3.181   9.199  0.8983  1.7426  0.6081
    1SAPS  C217   72   4.713   3.318   9.182  0.8155 -0.4740  0.0680
    1SAPS  H17R   73   4.700   3.289   9.075  0.2837  1.6181 -0.4958
    1SAPS  H17S   74   4.776   3.410   9.182  1.3240 -0.6031 -4.3283
    1SAPS  C218   75   4.579   3.348   9.250  0.4055  0.2045 -0.5491
    1SAPS  H18R   76   4.606   3.405   9.342  0.2015  0.7917 -0.8494
    1SAPS  H18S   77   4.525   3.255   9.279  0.3154  0.2533 -0.5606
    1SAPS  C219   78   4.487   3.429   9.163 -0.5415 -0.4754 -0.1536
    1SAPS  H19R   79   4.537   3.507   9.101  1.0065  1.9050  3.6934
    1SAPS  H19S   80   4.428   3.492   9.232 -2.3146  1.1356 -2.9403
    1SAPS  C220   81   4.401   3.342   9.067  0.2931 -0.0251 -0.3038
    1SAPS  H20R   82   4.464   3.265   9.018  1.8025  2.0477 -1.7278
    1SAPS  H20S   83   4.345   3.398   8.990 -0.3973  0.1112  0.2757
    1SAPS  H20T   84   4.326   3.292   9.133 -0.0292  2.9954  1.8022
    1SAPS   C33   85   5.341   3.282  10.235  1.3606 -0.3457  0.2486
    1SAPS   H3X   86   5.390   3.366  10.290 -1.0278  0.7136  0.8788
    1SAPS   H3Y   87   5.238   3.282  10.277  2.0405  1.4048  2.0931
    1SAPS   C34   88   5.310   3.338  10.102  1.1082  0.2169  0.6701
    1SAPS   H4X   89   5.398   3.312  10.038  0.0388  0.3123 -0.8852
    1SAPS   H4Y   90   5.313   3.449  10.109  1.1566  0.1661  1.5560
    1SAPS   C35   91   5.190   3.270  10.020 -0.2279  0.5862  0.3097
    1SAPS   H5X   92   5.088   3.300  10.051 -0.1520  1.8117 -0.5460
    1SAPS   H5Y   93   5.194   3.161  10.040 -0.9219 -0.0471 -2.5037
    1SAPS   C36   94   5.205   3.307   9.869  0.5402 -0.2648 -0.2177
    1SAPS   H6X   95   5.133   3.246   9.810 -1.1712  0.6885  0.7936
    1SAPS   H6Y   96   5.301   3.283   9.819 -0.0087 -0.3056 -1.2788
    1SAPS   C37   97   5.191   3.463   9.840 -0.5587  0.2518 -0.3500
    1SAPS   H7X   98   5.258   3.518   9.909 -0.7654 -0.7890  0.7205
    1SAPS   H7Y   99   5.091   3.483   9.885  0.0486  0.7127  0.8357
    1SAPS   C38  100   5.183   3.516   9.696 -0.5759  0.6926 -0.0920
    1SAPS   H8X  101   5.230   3.436   9.636 -0.6309 -0.9674  1.9682
    1SAPS   H8Y  102   5.241   3.610   9.682  0.3046  0.2195  0.3078
    1SAPS   C39  103   5.048   3.552   9.635 -0.2668 -0.0471 -0.2184
    1SAPS   H9X  104   5.017   3.650   9.677  0.8894 -0.7974  2.5696
    1SAPS   H9Y  105   4.977   3.478   9.678  1.2511 -0.4682  1.6914
    1SAPS  C310  106   5.048   3.539   9.481 -0.0356 -0.8110 -0.6967
    1SAPS  H10X  107   4.945   3.517   9.446  0.3780 -2.2010 -1.1259
    1SAPS  H10Y  108   5.115   3.451   9.463  0.5735 -0.5280  0.1420
    1SAPS  C311  109   5.099   3.663   9.424  0.0536 -0.5983 -1.1134
    1SAPS  H11X  110   5.183   3.709   9.480 -0.0815 -1.7856  0.1515
    1SAPS  H11Y  111   5.014   3.734   9.429  0.7931  0.2516 -0.0549
    1SAPS  C312  112   5.159   3.640   9.285 -1.0863  0.3488  0.1119
    1SAPS  H12X  113   5.261   3.604   9.310 -0.8570 -0.2308 -1.5443
    1SAPS  H12Y  114   5.169   3.733   9.225 -3.1576 -0.6190 -1.9017
    1SAPS  C313  115   5.085   3.535   9.194  0.2262  0.7438 -0.5530
    1SAPS  H13X  116   4.976   3.548   9.208 -0.3846 -2.2504 -1.8523
    1SAPS  H13Y  117   5.118   3.436   9.231  2.4292  0.7529 -2.2949
    1SAPS  C314  118   5.109   3.543   9.043 -0.3413 -0.2984 -0.0465
    1SAPS  H14X  119   5.202   3.482   9.046 -0.0595 -0.2395  6.0214
    1SAPS  H14Y  120   5.135   3.644   9.005  0.6333 -0.1727  0.8894
    1SAPS  C315  121   4.992   3.488   8.962  0.8637 -0.0960  0.0024
    1SAPS  H15X  122   4.897   3.543   8.976  0.2723 -1.7952  4.1772
    1SAPS  H15Y  123   4.958   3.385   8.987 -2.9074  0.6855 -1.2573
    1SAPS  C316  124   5.030   3.494   8.811  0.1229 -0.9724 -0.5968
    1SAPS  H16X  125   4.950   3.450   8.747  0.1153  1.0410 -2.0521
    1SAPS  H16Y  126   5.128   3.446   8.796 -0.1981 -1.2342 -1.9950
    1SAPS  C317  127   5.042   3.643   8.765  0.3686  0.4133  0.1084
    1SAPS  H17X  128   5.144   3.682   8.786  0.4338  0.5095 -0.3671
    1SAPS  H17Y  129   4.976   3.701   8.833  0.8718 -1.8468  2.7031
    1SAPS  C318  130   5.012   3.666   8.614  0.1380 -0.3379 -0.5923
    1SAPS  H18X  131   5.078   3.745   8.574 -0.1925  0.5943  0.6549
    1SAPS  H18Y  132   4.908   3.700   8.591  1.0589  0.7843 -3.5649
    1SAPS  H18Z  133   5.030   3.569   8.561 -1.1500 -1.7067  1.3185
    2SAPS     N  134   3.057   2.045  10.860  0.8968  0.6342  0.4156
    2SAPS   HN1  135   3.085   2.078  10.954  2.1713  1.9048 -0.3767
    2SAPS   HN2  136   3.116   2.095  10.791  1.5930  0.6599  1.0315
    2SAPS   HN3  137   2.961   2.083  10.842  0.8688 -0.3930 -2.1619
    2SAPS   C12  138   3.061   1.894  10.854 -0.1265 -0.5700  0.1302
    2SAPS  H12A  139   3.156   1.859  10.893  0.1388 -0.6627 -0.5926
    2SAPS   C13  140   2.950   1.834  10.942 -0.7542  0.0370  0.6365
    2SAPS  O13A  141   2.853   1.900  10.974  0.5652  0.0807  0.5035
    2SAPS  O13B  142   2.957   1.711  10.962  0.3795  0.1161  0.1629
    2SAPS   C11  143   3.038   1.853  10.712  0.3871 -0.4245  0.8914
    2SAPS  H11A  144   2.933   1.884  10.694  0.0270 -1.1058  1.7649
    2SAPS  H11B  145   3.032   1.742  10.713 -0.0218 -0.4011  1.1783
    2SAPS     P  146   3.272   1.845  10.591 -0.2091 -0.2261  0.5438
    2SAPS   O13  147   3.368   1.957  10.578 -0.5349 -0.0804  0.5403
    2SAPS   O14  148   3.308   1.736  10.683 -0.5628  0.0259 -0.3744
    2SAPS   O12  149   3.132   1.913  10.620 -0.1227  0.1016  0.3229
    2SAPS   O11  150   3.245   1.781  10.454 -0.0666 -0.4466  0.1096
    2SAPS    C1  151   3.304   1.653  10.423 -0.0206  0.7795 -0.1681
    2SAPS    HA  152   3.291   1.575  10.501 -2.1338 -1.1449 -2.2347
    2SAPS    HB  153   3.239   1.602  10.348 -1.1712 -0.9629  1.9250
    2SAPS    C2  154   3.450   1.658  10.372  0.0534 -0.2082 -0.1138
    2SAPS    HS  155   3.515   1.688  10.457  0.9409 -0.7711 -0.5749
    2SAPS   O21  156   3.465   1.769  10.273 -0.0585  0.1284 -0.2850
    2SAPS   C21  157   3.589   1.784  10.231  0.0315  0.3638  0.6338
    2SAPS   O22  158   3.690   1.765  10.301  0.0433 -0.3187 -0.5607
    2SAPS   C22  159   3.578   1.843  10.094  0.4960  0.2628  1.1715
    2SAPS   H2R  160   3.481   1.897  10.082  1.0188  0.7473 -1.3841
    2SAPS   H2S  161   3.650   1.926  10.081 -2.3432  2.8164  0.6195
    2SAPS    C3  162   3.502   1.525  10.311 -0.3219 -0.5104  0.2218
    2SAPS    HX  163   3.486   1.449  10.390  0.1734 -1.3971 -0.5084
    2SAPS    HY  164   3.610   1.532  10.289 -0.2824 -0.2561  0.4905
    2SAPS   O31  165   3.436   1.476  10.196 -0.2467 -0.1063  0.5913
    2SAPS   C31  166   3.436   1.338  10.178 -0.0709 -0.3486  0.3122
    2SAPS   O32  167   3.463   1.254  10.259 -0.2264  0.0026  0.0824
    2SAPS   C32  168   3.390   1.304  10.036 -0.0128  0.5358  0.6051
    2SAPS   H2X  169   3.311   1.374  10.003  0.5135  0.0518 -1.8818
    2SAPS   H2Y  170   3.350   1.201  10.032 -1.9799  1.2976 -1.5981
    2SAPS   C23  171   3.600   1.746   9.977  0.0402  0.2430  0.5558
    2SAPS   H3R  172   3.546   1.652  10.002 -1.9442  1.2806  0.3193
    2SAPS   H3S  173   3.710   1.729   9.969  0.0714  0.3688  0.7134
    2SAPS   C24  174   3.549   1.789   9.842  0.7497 -0.6254  0.4413
    2SAPS   H4R  175   3.567   1.717   9.759 -0.9211  0.9466 -1.3768
    2SAPS   H4S  176   3.598   1.885   9.816  1.0421 -0.6854  0.7735
    2SAPS   C25  177   3.402   1.810   9.850  0.9097  0.9031 -0.5592
    2SAPS   H5R  178   3.355   1.775   9.944  0.2743 -0.1403 -1.2430
    2SAPS   C26  179   3.314   1.858   9.764  0.1995 -0.2322  0.4031
    2SAPS   H6R  180   3.208   1.862   9.793  0.4183  0.6974  1.1409
    2SAPS   C27  181   3.339   1.912   9.625 -0.2520  0.8706  0.0599
    2SAPS   H7R  182   3.415   1.993   9.619  1.0605 -0.4138 -1.2205
    2SAPS   H7S  183   3.245   1.960   9.588 -1.7621 -1.3551  0.7760
    2SAPS   C28  184   3.375   1.798   9.526  0.7155  1.0371 -0.5280
    2SAPS   H8R  185   3.429   1.710   9.563 -0.1397  0.8377  0.2889
    2SAPS   C29  186   3.360   1.803   9.391  0.4924  0.1222 -0.3703
    2SAPS   H9R  187   3.407   1.728   9.326 -0.3420 -0.9828  0.2826
    2SAPS  C210  188   3.312   1.928   9.322 -0.1166  0.2685 -0.4106
    2SAPS  H10R  189   3.303   2.026   9.373 -1.0396  0.8403 -1.6322
    2SAPS  H10S  190   3.205   1.913   9.295  0.0810  0.5984 -1.3982
    2SAPS  C211  191   3.387   1.947   9.192 -0.0275  0.3113 -0.2574
    2SAPS  H11R  192   3.477   2.008   9.211  1.0515 -1.7284  1.5462
    2SAPS  C212  193   3.361   1.909   9.066  0.2506 -0.0200 -0.4877
    2SAPS  H12R  194   3.430   1.946   8.988 -0.9596  1.8985 -0.6974
    2SAPS  C213  195   3.240   1.826   9.028 -0.0196  0.5994 -0.2244
    2SAPS  H13R  196   3.188   1.782   9.115 -1.3775 -0.9077 -1.7143
    2SAPS  H13S  197   3.278   1.744   8.963  0.5234  1.6434 -1.2580
    2SAPS  C214  198   3.139   1.900   8.943 -0.2082 -0.2998  0.0760
    2SAPS  H14R  199   3.099   1.988   8.994  1.0251  0.7679 -0.7322
    2SAPS  C215  200   3.100   1.865   8.818 -0.1427 -0.9848  1.0672
    2SAPS  H15R  201   3.037   1.932   8.758  0.1221  0.4684  2.3532
    2SAPS  C216  202   3.149   1.751   8.728 -0.0618 -0.3287  0.2567
    2SAPS  H16R  203   3.057   1.691   8.711 -0.2170 -0.2229  0.7060
    2SAPS  H16S  204   3.224   1.681   8.772 -0.7642 -0.7123  0.8718
    2SAPS  C217  205   3.205   1.801   8.597 -0.3446  0.2934 -0.0620
    2SAPS  H17R  206   3.147   1.890   8.565 -1.5221 -0.8689 -1.2369
    2SAPS  H17S  207   3.181   1.720   8.524 -0.9406  0.9290 -0.5795
    2SAPS  C218  208   3.361   1.822   8.601 -0.2548 -0.4268 -0.2753
    2SAPS  H18R  209   3.416   1.741   8.654 -0.8735 -0.7725 -0.1586
    2SAPS  H18S  210   3.370   1.921   8.651  1.2558 -0.3363 -0.6742
    2SAPS  C219  211   3.418   1.828   8.465  0.3661 -0.2715  0.4308
    2SAPS  H19R  212   3.362   1.911   8.416 -0.8027  0.4152  2.7566
    2SAPS  H19S  213   3.403   1.736   8.405 -0.7047  0.0402  0.1938
    2SAPS  C220  214   3.565   1.868   8.472  0.4727  0.0083  0.1869
    2SAPS  H20R  215   3.609   1.863   8.370 -1.5723 -1.2976 -0.6974
    2SAPS  H20S  216   3.621   1.809   8.548  0.7056 -1.1348 -0.8428
    2SAPS  H20T  217   3.557   1.971   8.514  0.6540  0.7562 -1.5379
    2SAPS   C33  218   3.502   1.303   9.924 -0.3072  0.2980  0.2751
    2SAPS   H3X  219   3.494   1.205   9.873 -1.9832 -0.7370  2.3957
    2SAPS   H3Y  220   3.602   1.303   9.972 -0.1177 -2.1089 -0.0050
    2SAPS   C34  221   3.485   1.410   9.813 -0.2057 -0.1074  0.3653
    2SAPS   H4X  222   3.588   1.451   9.800 -0.2663 -0.4207 -1.3095
    2SAPS   H4Y  223   3.412   1.490   9.839  0.7910 -0.0236  3.2992
    2SAPS   C35  224   3.449   1.336   9.685  0.3342 -0.7163  0.0458
    2SAPS   H5X  225   3.344   1.301   9.700 -0.4258  1.5241  0.3461
    2SAPS   H5Y  226   3.509   1.244   9.671  0.1489 -1.0155  1.1118
    2SAPS   C36  227   3.450   1.427   9.560  0.0309 -0.8853 -0.4824
    2SAPS   H6X  228   3.553   1.462   9.536  1.1659 -0.7238  3.8506
    2SAPS   H6Y  229   3.379   1.507   9.590  0.9806 -0.0015 -0.5304
    2SAPS   C37  230   3.393   1.355   9.438 -0.3345 -0.7715  0.5160
    2SAPS   H7X  231   3.307   1.293   9.472  0.0053 -0.1466  2.6282
    2SAPS   H7Y  232   3.469   1.287   9.393 -1.6580 -0.2331 -2.8606
    2SAPS   C38  233   3.351   1.434   9.320 -0.9159  0.1671 -0.8224
    2SAPS   H8X  234   3.434   1.492   9.274 -0.6826 -0.1346 -0.7864
    2SAPS   H8Y  235   3.278   1.509   9.356 -0.3279  0.3246  0.0647
    2SAPS   C39  236   3.285   1.357   9.204  0.2692 -0.4052  0.1700
    2SAPS   H9X  237   3.246   1.258   9.236 -2.4511  0.1129 -1.2416
    2SAPS   H9Y  238   3.352   1.330   9.119  0.5220 -4.9029  1.5595
    2SAPS  C310  239   3.178   1.434   9.140 -0.0613  0.0124  0.2286
    2SAPS  H10X  240   3.204   1.530   9.090 -2.0609  0.4355 -0.1220
    2SAPS  H10Y  241   3.092   1.458   9.206  0.4204 -0.5182  1.0693
    2SAPS  C311  242   3.111   1.362   9.024  0.4326 -0.3312  0.5419
    2SAPS  H11X  243   3.012   1.407   9.003  0.4519 -0.9098 -0.9816
    2SAPS  H11Y  244   3.106   1.254   9.049 -1.4356 -0.5781 -0.6734
    2SAPS  C312  245   3.193   1.374   8.890  0.0629 -0.1035 -0.1847
    2SAPS  H12X  246   3.278   1.302   8.895 -0.5278 -0.8182 -0.2995
    2SAPS  H12Y  247   3.237   1.476   8.883 -0.3742  0.3444  2.4794
    2SAPS  C313  248   3.111   1.345   8.765  0.7305 -0.1312 -0.4959
    2SAPS  H13X  249   3.015   1.398   8.786 -0.0998 -1.3724 -1.0196
    2SAPS  H13Y  250   3.090   1.236   8.759  0.1056 -0.3022  2.6917
    2SAPS  C314  251   3.170   1.400   8.639 -0.3969 -0.0074  0.1015
    2SAPS  H14X  252   3.178   1.511   8.639 -1.2221  0.1453  2.9086
    2SAPS  H14Y  253   3.106   1.359   8.558  0.5874 -3.7287  1.0091
    2SAPS  C315  254   3.307   1.338   8.595  0.6897 -0.7472  0.3227
    2SAPS  H15X  255   3.316   1.229   8.612  0.0011 -0.4258  3.1326
    2SAPS  H15Y  256   3.387   1.387   8.654  1.0705  0.9474 -1.4606
    2SAPS  C316  257   3.314   1.370   8.448 -0.4506  0.1073 -0.2629
    2SAPS  H16X  258   3.414   1.412   8.423 -0.5597  1.4188  1.3514
    2SAPS  H16Y  259   3.248   1.459   8.440 -0.8669 -0.0223  1.4423
    2SAPS  C317  260   3.257   1.262   8.348  0.0565  0.3296 -0.2726
    2SAPS  H17X  261   3.166   1.213   8.388  0.3054 -0.2193 -0.3684
    2SAPS  H17Y  262   3.330   1.179   8.344  1.1284  1.2994 -2.0095
    2SAPS  C318  263   3.227   1.315   8.211  0.3256 -0.1071 -0.0991
    2SAPS  H18X  264   3.321   1.310   8.152  0.7731 -1.3676  0.6897
    2SAPS  H18Y  265   3.172   1.411   8.199 -0.3824 -0.7391 -2.4491
    2SAPS  H18Z  266   3.164   1.235   8.167  0.0533  0.6895 -1.2094
    3SAPS     N  267   4.480   3.526  10.965  0.2819 -0.2579 -1.0242
    3SAPS   HN1  268   4.455   3.481  11.056  5.2360 -0.8678  0.3162
    3SAPS   HN2  269   4.440   3.621  10.952  0.4784  0.0305  0.3071
    3SAPS   HN3  270   4.456   3.465  10.884 -0.6325 -1.5348  0.1375
    3SAPS   C12  271   4.630   3.529  10.980 -0.0661  0.1767 -0.2053
    3SAPS  H12A  272   4.649   3.615  11.042  0.9110 -0.5229  0.5139
    3SAPS   C13  273   4.681   3.415  11.068  0.5968  1.2307  0.1507
    3SAPS  O13A  274   4.602   3.333  11.122  0.5464 -0.3343  0.3384
    3SAPS  O13B  275   4.802   3.393  11.085  0.1354 -0.3902  1.0254
    3SAPS   C11  276   4.699   3.523  10.841  0.1885  0.7609  0.0972
    3SAPS  H11A  277   4.807   3.521  10.868  0.2816  1.5005 -0.2156
    3SAPS  H11B  278   4.665   3.612  10.784  2.8483  0.9557 -1.3274
    3SAPS     P  279   4.773   3.317  10.684  0.5415  0.2713  0.1200
    3SAPS   O13  280   4.872   3.248  10.767  0.3948 -0.1211 -0.3757
    3SAPS   O14  281   4.693   3.236  10.589  0.4324  0.3130 -0.2079
    3SAPS   O12  282   4.669   3.392  10.779  0.6685  0.1282  0.1456
    3SAPS   O11  283   4.842   3.435  10.610  0.0448 -0.0819  0.5112
    3SAPS    C1  284   4.761   3.531  10.541  0.2812  0.4956 -0.0194
    3SAPS    HA  285   4.652   3.508  10.543  0.7937 -2.2674  1.6888
    3SAPS    HB  286   4.764   3.633  10.585 -3.4511  0.0493  1.6393
    3SAPS    C2  287   4.795   3.524  10.385  0.2248 -0.8794 -0.0934
    3SAPS    HS  288   4.758   3.433  10.333  0.5771 -0.9088 -0.2928
    3SAPS   O21  289   4.938   3.519  10.369 -0.0142 -0.5413 -0.1659
    3SAPS   C21  290   5.013   3.632  10.347 -0.0913  0.6878  0.0726
    3SAPS   O22  291   4.992   3.738  10.408  0.0392 -0.1152 -0.7226
    3SAPS   C22  292   5.114   3.602  10.240  0.4627 -0.4581 -0.2301
    3SAPS   H2R  293   5.186   3.526  10.276 -1.0805 -1.9106 -0.0754
    3SAPS   H2S  294   5.056   3.551  10.160  0.7398 -0.2925 -0.5406
    3SAPS    C3  295   4.729   3.646  10.311  0.1357  0.0327  0.5947
    3SAPS    HX  296   4.747   3.742  10.363  1.1851 -0.4497  1.1664
    3SAPS    HY  297   4.618   3.640  10.316  0.1954 -1.4098  0.6762
    3SAPS   O31  298   4.770   3.668  10.176 -0.2057  0.1011  0.2310
    3SAPS   C31  299   4.700   3.604  10.084  0.3010  0.4704 -0.0226
    3SAPS   O32  300   4.601   3.534  10.104 -0.2977  0.2569  0.2159
    3SAPS   C32  301   4.763   3.629   9.943  0.2788 -0.2285 -0.7878
    3SAPS   H2X  302   4.844   3.554   9.933  0.5088  0.0529 -1.0666
    3SAPS   H2Y  303   4.817   3.726   9.936 -0.6006  0.1956 -2.0649
    3SAPS   C23  304   5.181   3.725  10.177 -0.4455 -0.9892 -0.1527
    3SAPS   H3R  305   5.265   3.689  10.113  2.2852  1.6842  1.6747
    3SAPS   H3S  306   5.243   3.774  10.255  1.2385 -1.5677 -1.0711
    3SAPS   C24  307   5.084   3.807  10.098  0.2966 -0.0870 -0.1802
    3SAPS   H4R  308   5.000   3.831  10.166 -0.0196 -1.4009 -0.0667
    3SAPS   H4S  309   5.052   3.741  10.015  1.8622 -0.1450 -0.7875
    3SAPS   C25  310   5.167   3.925  10.059  0.8166 -0.1595  0.6875
    3SAPS   H5R  311   5.239   3.970  10.130  3.2607 -0.4738 -1.4370
    3SAPS   C26  312   5.172   3.976   9.932 -0.4065  0.8065 -0.0791
    3SAPS   H6R  313   5.235   4.064   9.913 -0.2540  0.6982 -0.0701
    3SAPS   C27  314   5.104   3.922   9.811 -0.0729 -0.1943  0.4042
    3SAPS   H7R  315   5.102   3.811   9.808  0.8005 -0.2212  0.4709
    3SAPS   H7S  316   5.162   3.946   9.719  1.6413 -6.5819 -0.6770
    3SAPS   C28  317   4.956   3.969   9.810  0.3520 -0.1383  0.5795
    3SAPS   H8R  318   4.915   3.957   9.912  1.7074  2.2518  1.4777
    3SAPS   C29  319   4.878   4.045   9.719  0.9699 -0.0967 -0.5183
    3SAPS   H9R  320   4.781   4.079   9.758 -0.1278 -1.7016 -1.7327
    3SAPS  C210  321   4.926   4.099   9.584 -0.2166  0.3185 -0.2783
    3SAPS  H10R  322   4.979   4.018   9.529  1.2326  1.2654 -0.3319
    3SAPS  H10S  323   4.995   4.181   9.613 -1.6712  2.3767 -2.2985
    3SAPS  C211  324   4.813   4.148   9.502  1.0068  0.3849 -0.1428
    3SAPS  H11R  325   4.724   4.084   9.496  0.9406  0.5388 -1.0242
    3SAPS  C212  326   4.788   4.275   9.464  0.5240  0.0469  0.3836
    3SAPS  H12R  327   4.687   4.292   9.422  0.9632 -1.1159 -1.2756
    3SAPS  C213  328   4.878   4.396   9.473 -0.0276  0.0385 -0.2069
    3SAPS  H13R  329   4.984   4.382   9.444  0.1623  0.0301  0.4733
    3SAPS  H13S  330   4.896   4.435   9.576 -1.1680 -0.7552  0.3200
    3SAPS  C214  331   4.829   4.514   9.398  0.3514 -0.1814  0.8623
    3SAPS  H14R  332   4.722   4.536   9.414  0.0862 -1.2270  0.6545
    3SAPS  C215  333   4.902   4.584   9.319  0.6272  0.3199  0.2586
    3SAPS  H15R  334   4.843   4.662   9.269 -0.0973 -0.1699  0.3307
    3SAPS  C216  335   5.042   4.578   9.275  0.2419  0.0583 -0.2502
    3SAPS  H16R  336   5.104   4.546   9.362 -0.2353  0.6662  0.3284
    3SAPS  H16S  337   5.075   4.680   9.248  1.6440 -0.4299 -0.4679
    3SAPS  C217  338   5.059   4.473   9.166 -0.2450 -0.4011  0.8722
    3SAPS  H17R  339   5.018   4.375   9.198 -0.1722 -0.4042  0.9573
    3SAPS  H17S  340   5.169   4.461   9.151 -0.6218 -1.8623 -1.0232
    3SAPS  C218  341   4.998   4.511   9.034  0.1967 -0.2308 -0.6003
    3SAPS  H18R  342   5.029   4.615   9.011 -1.5055  0.5641  0.4394
    3SAPS  H18S  343   4.889   4.514   9.055  0.1996  0.6951 -0.6620
    3SAPS  C219  344   5.029   4.413   8.925 -0.2280  0.2464 -0.3779
    3SAPS  H19R  345   4.979   4.320   8.960  0.4755  0.5368  1.4887
    3SAPS  H19S  346   5.139   4.396   8.920 -0.2530  0.3530 -1.5892
    3SAPS  C220  347   4.980   4.471   8.793  0.1515  0.1545 -0.6310
    3SAPS  H20R  348   5.023   4.406   8.714  0.8944 -0.4615  0.2595
    3SAPS  H20S  349   5.021   4.572   8.772  0.7865  0.2506  0.9218
    3SAPS  H20T  350   4.872   4.466   8.767  0.6446 -0.8239 -2.6549
    3SAPS   C33  351   4.655   3.613   9.838 -0.7377 -0.1048 -0.3575
    3SAPS   H3X  352   4.563   3.663   9.873  0.4303  2.1288 -0.2814
    3SAPS   H3Y  353   4.627   3.506   9.835  3.2149 -1.3821  1.2454
    3SAPS   C34  354   4.704   3.667   9.708 -0.5054 -0.1547  0.0496
    3SAPS   H4X  355   4.795   3.608   9.683 -0.4383 -0.7601  1.5940
    3SAPS   H4Y  356   4.739   3.771   9.726  2.6027 -1.1113  0.1278
    3SAPS   C35  357   4.617   3.664   9.588  0.1730  0.2844 -0.0815
    3SAPS   H5X  358   4.539   3.740   9.610 -1.5217 -1.7662  1.3841
    3SAPS   H5Y  359   4.570   3.567   9.564 -0.9395  0.3046  1.8290
    3SAPS   C36  360   4.714   3.709   9.479 -0.1080 -0.3857 -0.7172
    3SAPS   H6X  361   4.772   3.616   9.464  1.2507  0.1717  0.7691
    3SAPS   H6Y  362   4.792   3.780   9.515 -0.6124 -0.2183  0.0822
    3SAPS   C37  363   4.658   3.767   9.358 -0.6502 -0.6051  0.1768
    3SAPS   H7X  364   4.601   3.861   9.372 -0.8103  0.0179 -3.5800
    3SAPS   H7Y  365   4.602   3.689   9.302  0.7151 -0.3531 -1.6389
    3SAPS   C38  366   4.770   3.800   9.256 -0.3047 -0.1299 -0.0225
    3SAPS   H8X  367   4.825   3.712   9.216  0.5362 -0.2895  1.4227
    3SAPS   H8Y  368   4.841   3.865   9.311  0.9574 -1.2724 -0.2401
    3SAPS   C39  369   4.702   3.876   9.142 -0.4980  0.2334  0.2721
    3SAPS   H9X  370   4.651   3.966   9.183  0.4677  1.0896 -0.3541
    3SAPS   H9Y  371   4.623   3.817   9.091 -1.5724  2.2848 -0.5425
    3SAPS  C310  372   4.808   3.926   9.037  0.2097  0.4290 -0.6571
    3SAPS  H10X  373   4.891   3.856   9.016  1.0190 -0.0627  3.3820
    3SAPS  H10Y  374   4.851   4.010   9.096 -1.0917  0.3124  0.5249
    3SAPS  C311  375   4.758   3.964   8.900 -0.8076 -0.3370 -0.3279
    3SAPS  H11X  376   4.681   3.888   8.874 -1.9321  1.1804 -1.6342
    3SAPS  H11Y  377   4.830   3.957   8.815  0.9517  0.5547  1.0077
    3SAPS  C312  378   4.682   4.098   8.902  0.6109 -0.5668  0.4680
    3SAPS  H12X  379   4.755   4.180   8.910 -0.1462  0.1155  0.4658
    3SAPS  H12Y  380   4.601   4.111   8.976  0.3476 -0.1601  0.1113
    3SAPS  C313  381   4.601   4.116   8.768 -0.7399 -0.0715  0.0633
    3SAPS  H13X  382   4.528   4.198   8.785 -0.2953  0.2991  0.2072
    3SAPS  H13Y  383   4.541   4.026   8.742  0.0431 -0.6800  0.3292
    3SAPS  C314  384   4.692   4.160   8.653 -0.5514  0.7594  0.5633
    3SAPS  H14X  385   4.776   4.089   8.637 -1.9973 -0.3121 -3.7919
    3SAPS  H14Y  386   4.738   4.251   8.696  0.1343 -0.9294  3.6917
    3SAPS  C315  387   4.624   4.193   8.527 -0.4545 -0.0625  0.1228
    3SAPS  H15X  388   4.540   4.259   8.553 -0.6068 -1.1900  2.7350
    3SAPS  H15Y  389   4.576   4.100   8.489 -1.3793  0.1536  0.7592
    3SAPS  C316  390   4.719   4.249   8.419 -0.3075 -0.0319 -0.1360
    3SAPS  H16X  391   4.664   4.303   8.338  1.0388 -0.9705 -1.7445
    3SAPS  H16Y  392   4.781   4.162   8.387  0.0224  0.5791 -1.2093
    3SAPS  C317  393   4.827   4.350   8.458  0.3291 -0.6374  1.0924
    3SAPS  H17X  394   4.887   4.367   8.366  1.1673  1.0938  1.9239
    3SAPS  H17Y  395   4.899   4.297   8.525 -0.2237  0.5693  2.7123
    3SAPS  C318  396   4.777   4.486   8.495  0.0535  0.0410 -0.1975
    3SAPS  H18X  397   4.745   4.488   8.602 -0.1166  1.3984 -0.2597
    3SAPS  H18Y  398   4.693   4.513   8.429  0.7264 -3.0275 -2.5669
    3SAPS  H18Z  399   4.854   4.564   8.478 -1.5048  1.5629 -0.4246
    4SAPS     N  400   6.718   4.891  10.790 -0.4944  0.1205  0.1067
    4SAPS   HN1  401   6.773   4.807  10.764  1.0934  1.1410 -0.0053
    4SAPS   HN2  402   6.688   4.945  10.706  2.0825  1.1131 -0.2714
    4SAPS   HN3  403   6.790   4.935  10.851  0.2409 -1.0985  0.1566
    4SAPS   C12  404   6.597   4.848  10.862 -0.4297  0.6492  0.4159
    4SAPS  H12A  405   6.623   4.774  10.935 -1.7848 -0.0156  0.2482
    4SAPS   C13  406   6.509   4.964  10.914  0.2340 -0.3154 -0.8952
    4SAPS  O13A  407   6.540   5.084  10.888 -0.3806  0.4184  0.1359
    4SAPS  O13B  408   6.408   4.942  10.988 -0.2704  0.1139 -0.4165
    4SAPS   C11  409   6.518   4.758  10.760 -0.1460 -0.1985  0.1660
    4SAPS  H11A  410   6.437   4.712  10.820 -0.6076  0.6426  0.1981
    4SAPS  H11B  411   6.592   4.677  10.743 -0.9356 -1.0514  0.7064
    4SAPS     P  412   6.390   4.746  10.532 -0.3009 -0.1890 -0.1329
    4SAPS   O13  413   6.382   4.600  10.567  0.0175 -0.5980  0.7889
    4SAPS   O14  414   6.264   4.819  10.509 -0.2608 -0.3391  0.1752
    4SAPS   O12  415   6.474   4.821  10.639  0.1561 -0.8886 -0.1915
    4SAPS   O11  416   6.493   4.747  10.409 -0.0349  0.1947 -0.4814
    4SAPS    C1  417   6.508   4.877  10.342  0.1718 -0.6781  0.5464
    4SAPS    HA  418   6.484   4.967  10.403  0.0572 -0.5663  0.3390
    4SAPS    HB  419   6.610   4.891  10.302 -0.1348  0.2696  0.0661
    4SAPS    C2  420   6.425   4.889  10.213  0.0773  0.9582 -0.6346
    4SAPS    HS  421   6.321   4.864  10.242  0.4852  1.1428  1.1206
    4SAPS   O21  422   6.489   4.812  10.107  0.4967  0.1951  0.4961
    4SAPS   C21  423   6.455   4.685  10.089  0.1269 -0.2959 -0.3065
    4SAPS   O22  424   6.356   4.632  10.134  0.1541  0.2106 -0.7639
    4SAPS   C22  425   6.561   4.627   9.999  0.6712 -0.5893  0.5057
    4SAPS   H2R  426   6.608   4.712   9.946  1.3337 -0.7483  0.8287
    4SAPS   H2S  427   6.633   4.570  10.060  0.4517 -1.5626 -0.1128
    4SAPS    C3  428   6.413   5.036  10.167 -0.7319 -0.2603  0.0942
    4SAPS    HX  429   6.513   5.086  10.166 -1.3605  1.0288  0.3691
    4SAPS    HY  430   6.353   5.097  10.237 -0.8402 -1.1871  0.8212
    4SAPS   O31  431   6.341   5.038  10.040  0.6321  0.6354  0.3270
    4SAPS   C31  432   6.399   5.084   9.935  0.4070 -0.5036 -0.5500
    4SAPS   O32  433   6.505   5.145   9.930  0.0037 -0.1026  0.0445
    4SAPS   C32  434   6.316   5.050   9.813  0.7099 -0.1862  0.0599
    4SAPS   H2X  435   6.222   5.103   9.840  0.8045  0.0610 -0.0875
    4SAPS   H2Y  436   6.290   4.942   9.817 -0.8748  0.0931 -1.3784
    4SAPS   C23  437   6.498   4.543   9.877 -0.1546  0.8429  0.7776
    4SAPS   H3R  438   6.453   4.455   9.927  1.2736 -0.6019 -0.3812
    4SAPS   H3S  439   6.564   4.506   9.795  0.6070  1.4644  1.0934
    4SAPS   C24  440   6.382   4.612   9.798  0.0418 -0.2362  0.6175
    4SAPS   H4R  441   6.324   4.678   9.866  0.6311 -0.0918  0.9833
    4SAPS   H4S  442   6.328   4.523   9.757  0.7538 -0.5440  0.3344
    4SAPS   C25  443   6.435   4.695   9.675 -0.3530  0.5309 -0.5914
    4SAPS   H5R  444   6.518   4.763   9.702 -0.2029  0.2448 -0.3113
    4SAPS   C26  445   6.400   4.695   9.547 -0.5605 -0.6086  0.2440
    4SAPS   H6R  446   6.458   4.757   9.476 -0.1404  0.9608  1.8934
    4SAPS   C27  447   6.300   4.606   9.488  0.5979  0.5692  0.3397
    4SAPS   H7R  448   6.282   4.520   9.556  2.7605  1.1655  1.7676
    4SAPS   H7S  449   6.340   4.565   9.393  1.1503  1.9811 -0.0602
    4SAPS   C28  450   6.164   4.678   9.481  0.4280  0.1708  0.0709
    4SAPS   H8R  451   6.140   4.735   9.572  3.8710  1.7806  0.1510
    4SAPS   C29  452   6.075   4.671   9.380  0.9010 -0.1417  0.2227
    4SAPS   H9R  453   5.986   4.734   9.390  0.2477 -1.1343  0.8199
    4SAPS  C210  454   6.094   4.593   9.258  0.6506  0.1859  0.1136
    4SAPS  H10R  455   6.119   4.489   9.289 -2.8021 -0.6802  0.4018
    4SAPS  H10S  456   6.181   4.630   9.200 -1.4216  0.7521 -2.9029
    4SAPS  C211  457   5.977   4.561   9.167 -1.0649 -0.0669 -0.3366
    4SAPS  H11R  458   5.938   4.460   9.185 -2.4009  0.3237 -0.8815
    4SAPS  C212  459   5.939   4.638   9.063  0.6976  0.0368  0.2079
    4SAPS  H12R  460   5.852   4.610   9.002 -1.0615  2.3508  1.5138
    4SAPS  C213  461   6.000   4.762   9.008  0.6506  0.8724  0.4401
    4SAPS  H13R  462   6.088   4.806   9.061  1.8195 -1.9646  1.0312
    4SAPS  H13S  463   5.918   4.835   9.025  0.9198  1.1739  0.4705
    4SAPS  C214  464   6.026   4.756   8.861 -0.1411  0.4143  0.3683
    4SAPS  H14R  465   6.127   4.720   8.836  0.0144 -0.4226  2.0511
    4SAPS  C215  466   5.939   4.772   8.758 -1.1936 -0.8123 -0.1076
    4SAPS  H15R  467   5.982   4.760   8.657  0.1684 -0.2555  0.3873
    4SAPS  C216  468   5.796   4.806   8.764 -0.6858  0.5734  0.3036
    4SAPS  H16R  469   5.793   4.916   8.779 -0.6491  0.4781  1.0460
    4SAPS  H16S  470   5.749   4.760   8.853 -0.3997 -4.2139 -1.7062
    4SAPS  C217  471   5.716   4.750   8.641 -0.9315 -0.1858 -0.2045
    4SAPS  H17R  472   5.605   4.753   8.648 -1.0466  0.6707 -1.9940
    4SAPS  H17S  473   5.729   4.639   8.641 -0.1719 -0.1179  0.8120
    4SAPS  C218  474   5.752   4.817   8.508  0.1168 -0.2495 -0.3805
    4SAPS  H18R  475   5.848   4.778   8.468 -0.5407 -0.8914 -1.3556
    4SAPS  H18S  476   5.753   4.925   8.535 -0.4779 -0.7737  1.9288
    4SAPS  C219  477   5.645   4.806   8.392 -0.3371  0.0146 -0.3481
    4SAPS  H19R  478   5.687   4.867   8.309  1.8341 -0.4043  0.3965
    4SAPS  H19S  479   5.553   4.850   8.437 -0.1224 -1.1105  1.2694
    4SAPS  C220  480   5.615   4.664   8.339  0.0482  0.0943  0.1067
    4SAPS  H20R  481   5.709   4.618   8.302  0.3805  1.9297 -1.4894
    4SAPS  H20S  482   5.556   4.660   8.245  1.6206 -0.6367 -0.8857
    4SAPS  H20T  483   5.568   4.599   8.416 -0.3310 -0.2588 -0.4233
    4SAPS   C33  484   6.376   5.094   9.679  0.6126 -0.3428 -0.5525
    4SAPS   H3X  485   6.470   5.040   9.655 -0.8104 -2.4631 -1.6490
    4SAPS   H3Y  486   6.390   5.205   9.680 -0.7102 -0.1423  0.9265
    4SAPS   C34  487   6.283   5.056   9.568  0.0192 -1.1793 -0.2023
    4SAPS   H4X  488   6.179   5.083   9.594  1.0093  2.9235  0.1646
    4SAPS   H4Y  489   6.269   4.946   9.574  0.0580 -1.3396 -2.2997
    4SAPS   C35  490   6.306   5.118   9.430  0.0683  0.2896 -0.9665
    4SAPS   H5X  491   6.377   5.204   9.430  0.0494  0.4256  2.1606
    4SAPS   H5Y  492   6.207   5.156   9.400 -0.4074 -2.3242 -3.0537
    4SAPS   C36  493   6.361   5.012   9.330 -0.2959 -0.1375  0.5433
    4SAPS   H6X  494   6.307   4.917   9.346  1.4402 -0.9116  2.1307
    4SAPS   H6Y  495   6.467   4.993   9.357  0.2498 -0.8236 -1.8397
    4SAPS   C37  496   6.363   5.063   9.184 -0.2442  0.1807 -0.5250
    4SAPS   H7X  497   6.427   4.987   9.135 -0.2130 -0.0961 -0.0594
    4SAPS   H7Y  498   6.419   5.158   9.172  1.7642 -0.9860 -0.7263
    4SAPS   C38  499   6.227   5.084   9.121  0.1434  0.0483 -0.6441
    4SAPS   H8X  500   6.168   5.160   9.178 -0.4416 -0.5093 -0.5029
    4SAPS   H8Y  501   6.181   4.983   9.120  0.3833 -0.0636 -0.4694
    4SAPS   C39  502   6.243   5.155   8.987  0.5085  0.3699 -0.4997
    4SAPS   H9X  503   6.281   5.082   8.912  0.4900 -0.2408  0.0753
    4SAPS   H9Y  504   6.318   5.233   9.010  0.0451  0.7356 -0.2205
    4SAPS  C310  505   6.115   5.222   8.946  0.1202  0.2570  0.2609
    4SAPS  H10X  506   6.102   5.298   9.026  0.3802 -1.4045  1.9638
    4SAPS  H10Y  507   6.030   5.150   8.947  0.1790  0.1515  2.8073
    4SAPS  C311  508   6.126   5.290   8.814 -0.0984 -0.1807  0.4160
    4SAPS  H11X  509   6.187   5.225   8.748 -2.1785  1.4751 -3.4780
    4SAPS  H11Y  510   6.169   5.393   8.820  1.1210 -0.6155 -0.4027
    4SAPS  C312  511   5.988   5.305   8.760  0.5861 -0.2250 -0.0622
    4SAPS  H12X  512   5.930   5.334   8.850 -0.7780 -1.7495 -0.3861
    4SAPS  H12Y  513   5.942   5.214   8.714 -0.2206  0.7321 -1.1982
    4SAPS  C313  514   5.966   5.412   8.649 -0.1329 -0.0494 -0.0725
    4SAPS  H13X  515   5.999   5.373   8.550 -1.9006  0.2937 -0.8360
    4SAPS  H13Y  516   6.026   5.505   8.660 -0.8743  0.3054  1.1928
    4SAPS  C314  517   5.817   5.452   8.642  0.0116 -0.0686 -0.6350
    4SAPS  H14X  518   5.799   5.515   8.552 -0.6430  1.9651  0.8391
    4SAPS  H14Y  519   5.793   5.512   8.733 -3.0023  0.5641 -1.7454
    4SAPS  C315  520   5.719   5.331   8.652  0.7009 -0.2847  0.6350
    4SAPS  H15X  521   5.719   5.277   8.749  1.3807 -1.5160 -0.0149
    4SAPS  H15Y  522   5.750   5.253   8.578 -1.5909  1.2805 -2.1651
    4SAPS  C316  523   5.573   5.360   8.634  0.2751 -0.4763  1.2552
    4SAPS  H16X  524   5.568   5.427   8.545  1.8045 -1.4538  0.3943
    4SAPS  H16Y  525   5.521   5.429   8.704  0.5194  0.4763  0.5294
    4SAPS  C317  526   5.498   5.231   8.604 -0.1655  0.2173 -0.3050
    4SAPS  H17X  527   5.548   5.178   8.521 -0.0529  0.7490 -0.5825
    4SAPS  H17Y  528   5.398   5.270   8.572 -0.6554 -0.4168  0.4134
    4SAPS  C318  529   5.474   5.138   8.714  0.1861 -0.7490  0.1135
    4SAPS  H18X  530   5.573   5.116   8.761  0.1559 -0.8832  0.1164
    4SAPS  H18Y  531   5.432   5.039   8.686  0.1938 -0.6743 -0.1669
    4SAPS  H18Z  532   5.417   5.177   8.801  2.0849  0.2638  0.9756
    5SAPS     N  533   4.301   3.812  10.694  0.1397  0.1826 -0.2275
    5SAPS   HN1  534   4.236   3.793  10.615 -0.1486  0.8102 -0.1498
    5SAPS   HN2  535   4.397   3.841  10.665  0.6959 -0.8027  0.5431
    5SAPS   HN3  536   4.313   3.717  10.736 -0.9601 -0.0296 -0.3614
    5SAPS   C12  537   4.275   3.911  10.793  0.0853 -0.4234 -0.3196
    5SAPS  H12A  538   4.169   3.899  10.811  0.2837 -2.6692 -0.2718
    5SAPS   C13  539   4.351   3.880  10.923 -0.6603  0.3791 -0.1380
    5SAPS  O13A  540   4.429   3.779  10.930 -0.0289  0.1437  0.5127
    5SAPS  O13B  541   4.317   3.939  11.026  0.1845  0.4235  0.7493
    5SAPS   C11  542   4.305   4.056  10.754 -0.1021 -0.7150  0.1131
    5SAPS  H11A  543   4.323   4.058  10.645 -1.3047  0.5884 -0.0953
    5SAPS  H11B  544   4.398   4.088  10.805 -1.7034  0.8135  2.2815
    5SAPS     P  545   4.211   4.299  10.773 -0.5935 -0.2441  0.3594
    5SAPS   O13  546   4.091   4.354  10.848 -0.4731 -0.4894  0.8352
    5SAPS   O14  547   4.343   4.345  10.804 -0.7263 -0.0996  0.5522
    5SAPS   O12  548   4.203   4.144  10.788 -0.1573 -0.0929  0.1342
    5SAPS   O11  549   4.198   4.317  10.613  0.1155  0.5875  0.2151
    5SAPS    C1  550   4.094   4.253  10.547 -0.0176 -0.4904  0.1420
    5SAPS    HA  551   4.007   4.235  10.613 -2.1312  1.1234 -1.9957
    5SAPS    HB  552   4.046   4.320  10.472 -2.5924 -1.4136  0.8350
    5SAPS    C2  553   4.127   4.125  10.465  0.5254 -0.5299 -0.0745
    5SAPS    HS  554   4.134   4.047  10.544 -0.8991 -1.6433 -0.9894
    5SAPS   O21  555   4.248   4.147  10.392 -0.7427  1.1544 -0.1016
    5SAPS   C21  556   4.294   4.038  10.339 -0.5513 -0.4710  0.2866
    5SAPS   O22  557   4.253   3.923  10.351 -0.5734 -0.2188  0.4307
    5SAPS   C22  558   4.425   4.070  10.256  0.5632 -0.2537  0.1772
    5SAPS   H2R  559   4.420   4.180  10.241 -1.0849  0.1277  2.9044
    5SAPS   H2S  560   4.512   4.043  10.320 -1.0709 -2.0336  1.7698
    5SAPS    C3  561   4.006   4.092  10.366  0.4470  0.0004  0.1607
    5SAPS    HX  562   3.916   4.099  10.430 -0.3308  1.0485 -0.9873
    5SAPS    HY  563   4.015   3.988  10.327 -0.0638 -0.0430  0.1557
    5SAPS   O31  564   3.973   4.187  10.265  0.7276  0.7311  0.0069
    5SAPS   C31  565   4.001   4.157  10.139 -0.8303  0.7066 -0.0035
    5SAPS   O32  566   4.042   4.048  10.100  0.1739 -1.1389 -0.1857
    5SAPS   C32  567   3.959   4.274  10.054 -0.0442  0.5572  0.6562
    5SAPS   H2X  568   3.942   4.361  10.121 -1.2459 -0.2394  1.4209
    5SAPS   H2Y  569   3.869   4.243   9.997 -0.3011 -1.9298  2.2719
    5SAPS   C23  570   4.417   4.017  10.116 -0.0053 -0.2509  0.2870
    5SAPS   H3R  571   4.325   4.060  10.070  0.1588  1.7156  1.6757
    5SAPS   H3S  572   4.421   3.906  10.119 -1.3283 -0.3101  2.6230
    5SAPS   C24  573   4.526   4.070  10.019  0.5683  0.9922  0.5071
    5SAPS   H4R  574   4.516   4.007   9.928  0.2956 -2.5796  2.8170
    5SAPS   H4S  575   4.629   4.045  10.051  0.0714  0.9872  2.1853
    5SAPS   C25  576   4.512   4.212   9.974 -0.8069  0.4937  0.1099
    5SAPS   H5R  577   4.539   4.277  10.059  0.9988 -1.1730  0.8945
    5SAPS   C26  578   4.472   4.257   9.858 -0.1923  0.4085  0.4962
    5SAPS   H6R  579   4.481   4.365   9.840 -0.1756 -0.0928 -3.3339
    5SAPS   C27  580   4.421   4.176   9.737  0.2276 -0.1546 -0.4205
    5SAPS   H7R  581   4.343   4.106   9.775  0.9164 -0.1807  1.0028
    5SAPS   H7S  582   4.503   4.109   9.703 -0.5953 -0.4999 -1.7870
    5SAPS   C28  583   4.368   4.264   9.626 -0.3830 -0.4562 -0.6057
    5SAPS   H8R  584   4.308   4.349   9.664  0.4161 -0.9607  1.9732
    5SAPS   C29  585   4.374   4.234   9.493 -0.4797 -0.1552 -0.1079
    5SAPS   H9R  586   4.323   4.303   9.424  1.1237  2.1074  0.8547
    5SAPS  C210  587   4.429   4.113   9.435  0.5939 -0.1061 -0.2776
    5SAPS  H10R  588   4.512   4.073   9.498 -1.5419 -0.7062  2.3131
    5SAPS  H10S  589   4.476   4.141   9.338  1.0709 -0.2111 -0.0808
    5SAPS  C211  590   4.320   4.007   9.435 -0.4339  0.0135 -0.5841
    5SAPS  H11R  591   4.294   3.979   9.538  2.2229 -2.3207 -0.4340
    5SAPS  C212  592   4.275   3.932   9.340  0.1654 -0.0232 -0.0378
    5SAPS  H12R  593   4.220   3.840   9.367  1.0453 -0.0545  1.7767
    5SAPS  C213  594   4.317   3.938   9.190 -0.2330  0.3018 -0.5129
    5SAPS  H13R  595   4.414   3.885   9.185  0.0839  0.9491 -1.4113
    5SAPS  H13S  596   4.335   4.040   9.150 -0.1476 -0.1746 -1.7569
    5SAPS  C214  597   4.220   3.863   9.110  0.2264  0.6267 -0.0593
    5SAPS  H14R  598   4.119   3.877   9.151 -0.6340 -0.3786 -1.7421
    5SAPS  C215  599   4.237   3.783   9.004 -0.1737 -0.6444 -0.2157
    5SAPS  H15R  600   4.152   3.718   8.978 -0.6596  0.5700 -1.8217
    5SAPS  C216  601   4.377   3.753   8.942 -0.0150  0.1943  0.0851
    5SAPS  H16R  602   4.419   3.657   8.980  1.9101 -0.3414 -2.9848
    5SAPS  H16S  603   4.452   3.832   8.967 -0.4875  0.0183  2.2697
    5SAPS  C217  604   4.374   3.733   8.787  0.1787  0.5998  0.1468
    5SAPS  H17R  605   4.481   3.725   8.755 -0.1120 -0.8552 -0.5385
    5SAPS  H17S  606   4.338   3.827   8.740 -1.6197 -0.3749 -0.5144
    5SAPS  C218  607   4.291   3.623   8.725  0.2785  0.5463 -0.8298
    5SAPS  H18R  608   4.202   3.602   8.788 -1.3352  0.1348 -3.0945
    5SAPS  H18S  609   4.250   3.665   8.630  0.0639 -0.5093 -1.2143
    5SAPS  C219  610   4.376   3.500   8.692 -0.1393  0.4822  0.5362
    5SAPS  H19R  611   4.400   3.443   8.784 -1.7040 -1.9537 -0.4788
    5SAPS  H19S  612   4.476   3.529   8.652  1.4877 -1.5373  2.8586
    5SAPS  C220  613   4.315   3.394   8.608  0.3629 -0.2857  0.3583
    5SAPS  H20R  614   4.402   3.329   8.582  4.1587  4.1958  0.6888
    5SAPS  H20S  615   4.269   3.426   8.512 -0.8242  0.2924  1.1001
    5SAPS  H20T  616   4.227   3.341   8.652  1.3997 -0.9071  1.7258
    5SAPS   C33  617   4.045   4.312   9.933  0.4673 -0.0257  0.5477
    5SAPS   H3X  618   4.065   4.217   9.879 -1.3732 -0.3895  0.4498
    5SAPS   H3Y  619   4.135   4.353   9.983  0.1110 -0.7976  1.8739
    5SAPS   C34  620   3.991   4.427   9.836 -0.6550 -0.1233  0.0553
    5SAPS   H4X  621   4.074   4.466   9.772 -2.9669  1.4663 -2.2304
    5SAPS   H4Y  622   3.956   4.510   9.901  0.6567  0.3825  0.1575
    5SAPS   C35  623   3.887   4.360   9.739 -0.1112 -0.5724  0.1697
    5SAPS   H5X  624   3.798   4.336   9.800  0.1366 -0.1867  0.6866
    5SAPS   H5Y  625   3.938   4.271   9.698  0.5023 -0.5949  0.9729
    5SAPS   C36  626   3.847   4.456   9.625 -0.3063  0.4980  0.1662
    5SAPS   H6X  627   3.921   4.538   9.635 -0.0263  0.1880  0.6321
    5SAPS   H6Y  628   3.744   4.491   9.648  0.0951  1.4599  0.5573
    5SAPS   C37  629   3.834   4.384   9.494 -0.0836 -0.5324  0.3947
    5SAPS   H7X  630   3.755   4.307   9.482 -2.1197  1.2159  1.6972
    5SAPS   H7Y  631   3.932   4.346   9.460  1.3863  0.5827  3.0774
    5SAPS   C38  632   3.812   4.485   9.389  0.4627 -0.3039 -0.4655
    5SAPS   H8X  633   3.892   4.560   9.408  2.4419 -2.8770  2.5480
    5SAPS   H8Y  634   3.718   4.541   9.406  0.4500 -0.2844 -0.5966
    5SAPS   C39  635   3.814   4.435   9.246  0.0363 -0.4229 -0.2856
    5SAPS   H9X  636   3.732   4.362   9.226  1.0307 -1.1357 -2.0255
    5SAPS   H9Y  637   3.912   4.386   9.233 -1.6461 -4.0038 -0.8574
    5SAPS  C310  638   3.785   4.548   9.140  0.3434 -0.3200 -0.0277
    5SAPS  H10X  639   3.848   4.633   9.174  3.1594 -2.4115  0.3126
    5SAPS  H10Y  640   3.677   4.575   9.145  0.3977 -0.3383  2.1287
    5SAPS  C311  641   3.806   4.496   8.995 -0.1157 -0.2781 -0.4735
    5SAPS  H11X  642   3.756   4.398   9.001  0.8462 -0.7392  0.4146
    5SAPS  H11Y  643   3.915   4.475   8.984 -0.1327 -1.3937  1.1535
    5SAPS  C312  644   3.743   4.586   8.885  0.4996  0.3375  0.9823
    5SAPS  H12X  645   3.791   4.686   8.893 -0.9775  1.1085  0.6628
    5SAPS  H12Y  646   3.635   4.596   8.909 -0.8054 -2.4297 -2.7737
    5SAPS  C313  647   3.748   4.523   8.747 -0.6712 -0.6740  0.6325
    5SAPS  H13X  648   3.647   4.524   8.700  0.4169  2.3726 -1.9952
    5SAPS  H13Y  649   3.773   4.416   8.767  1.2863 -0.6824 -1.4715
    5SAPS  C314  650   3.855   4.599   8.662 -0.3996  0.0418 -1.0124
    5SAPS  H14X  651   3.891   4.518   8.595  0.0868  1.4431 -2.5350
    5SAPS  H14Y  652   3.939   4.623   8.731 -0.9052  1.2702 -0.7956
    5SAPS  C315  653   3.792   4.714   8.586  0.3331  0.5474  0.4094
    5SAPS  H15X  654   3.714   4.773   8.639  1.2438  0.9274  1.3541
    5SAPS  H15Y  655   3.731   4.672   8.503  1.1568  1.0658 -0.4732
    5SAPS  C316  656   3.888   4.815   8.525  0.6308  1.1808 -0.1911
    5SAPS  H16X  657   3.972   4.759   8.478  1.8600 -2.6734  5.5172
    5SAPS  H16Y  658   3.939   4.870   8.607  2.5090 -0.1134 -0.4153
    5SAPS  C317  659   3.815   4.916   8.434  0.1187  0.2268  1.2252
    5SAPS  H17X  660   3.741   4.981   8.485  1.6594  1.8216  1.5544
    5SAPS  H17Y  661   3.760   4.860   8.357  0.7669  2.0580 -0.6775
    5SAPS  C318  662   3.910   5.016   8.363 -0.1924 -0.2771 -1.2040
    5SAPS  H18X  663   3.850   5.081   8.295  1.0709 -0.8893 -2.9824
    5SAPS  H18Y  664   3.988   4.963   8.304  2.2778  0.2430  1.3877
    5SAPS  H18Z  665   3.969   5.080   8.431 -0.5284 -1.2358  0.0407
    6SAPS     N  666   0.941   3.075  10.742 -0.1508  0.3377 -0.1242
    6SAPS   HN1  667   0.842   3.089  10.771 -0.6199  1.5872 -2.1178
    6SAPS   HN2  668   0.936   3.077  10.638  0.5824  0.8012 -0.1582
    6SAPS   HN3  669   0.974   2.982  10.775 -2.0286 -0.8848 -1.5060
    6SAPS   C12  670   1.018   3.193  10.804 -0.1768  0.0160  0.2281
    6SAPS  H12A  671   0.983   3.286  10.760 -0.9763 -0.5207 -0.2863
    6SAPS   C13  672   1.010   3.212  10.956 -0.0190 -0.1142  0.3629
    6SAPS  O13A  673   0.944   3.134  11.034 -0.2482  0.1947 -0.3605
    6SAPS  O13B  674   1.065   3.321  11.003  0.0531 -0.6639  0.1311
    6SAPS   C11  675   1.170   3.183  10.753 -0.3302 -0.7638 -0.2172
    6SAPS  H11A  676   1.231   3.096  10.782  2.1538  1.1744  0.7298
    6SAPS  H11B  677   1.216   3.260  10.818 -0.7729 -0.3563 -0.3777
    6SAPS     P  678   1.326   3.217  10.544  0.0111 -0.1555 -0.0463
    6SAPS   O13  679   1.364   3.358  10.519  0.3562  0.0535  0.1797
    6SAPS   O14  680   1.421   3.142  10.627  0.0025 -0.4116  0.7637
    6SAPS   O12  681   1.180   3.214  10.613  0.2301  0.1672 -0.5217
    6SAPS   O11  682   1.311   3.137  10.400 -0.2280  0.2210 -0.6873
    6SAPS    C1  683   1.225   3.207  10.313  0.1592 -0.8667 -0.0607
    6SAPS    HA  684   1.138   3.252  10.366  0.3535  2.4091 -2.2165
    6SAPS    HB  685   1.280   3.294  10.273  0.3401 -1.2037 -0.5429
    6SAPS    C2  686   1.181   3.117  10.196  0.5775 -0.4571  0.2450
    6SAPS    HS  687   1.177   3.014  10.238  0.0804 -0.3626  0.4313
    6SAPS   O21  688   1.277   3.118  10.097  0.3622 -0.4689 -0.1980
    6SAPS   C21  689   1.303   3.007  10.039 -0.6303  0.8855 -0.3080
    6SAPS   O22  690   1.245   2.901  10.056  0.0313  0.4431 -0.0631
    6SAPS   C22  691   1.405   3.037   9.928 -0.6332  0.2661  1.0525
    6SAPS   H2R  692   1.368   3.134   9.888 -0.3478  0.0018  0.1213
    6SAPS   H2S  693   1.495   3.049   9.992 -0.3385  1.5645  0.4427
    6SAPS    C3  694   1.045   3.158  10.135  0.1709 -0.5097 -0.2531
    6SAPS    HX  695   1.052   3.269  10.131 -0.5037 -0.3121  2.3525
    6SAPS    HY  696   0.967   3.128  10.208  0.1181 -0.0419 -0.1165
    6SAPS   O31  697   1.031   3.098  10.005 -0.0627 -0.6905 -0.3530
    6SAPS   C31  698   0.969   3.167   9.907  0.3969 -1.1965  0.3064
    6SAPS   O32  699   0.940   3.287   9.918  0.6964  0.3789 -0.0269
    6SAPS   C32  700   0.938   3.077   9.789 -0.0149  0.2282  0.0612
    6SAPS   H2X  701   0.852   3.017   9.824  1.2785 -1.1662  0.9507
    6SAPS   H2Y  702   1.016   2.998   9.786 -0.7195 -0.7018  3.0873
    6SAPS   C23  703   1.428   2.930   9.814 -0.5458 -0.1993 -0.2154
    6SAPS   H3R  704   1.474   2.838   9.857 -0.3466  0.1544  0.3509
    6SAPS   H3S  705   1.512   2.969   9.752  0.1173  0.7458  1.2288
    6SAPS   C24  706   1.315   2.896   9.714  0.3032  0.4474  0.4821
    6SAPS   H4R  707   1.233   2.867   9.783 -0.9061 -0.1353 -1.1403
    6SAPS   H4S  708   1.337   2.812   9.644 -0.4608  0.2847  0.4314
    6SAPS   C25  709   1.287   3.019   9.642 -0.1221  0.1727  0.3330
    6SAPS   H5R  710   1.299   3.116   9.694  2.4971  0.0152  0.1562
    6SAPS   C26  711   1.261   3.030   9.512  0.1537 -0.0357 -0.1473
    6SAPS   H6R  712   1.254   3.132   9.471  2.6505 -0.4492 -1.8290
    6SAPS   C27  713   1.260   2.921   9.412  0.4334 -0.1172 -0.4035
    6SAPS   H7R  714   1.170   2.936   9.348 -0.6552 -1.4383  0.7564
    6SAPS   H7S  715   1.246   2.819   9.452  0.3789 -0.4948 -1.3598
    6SAPS   C28  716   1.382   2.930   9.314  0.1158 -0.0893 -0.1761
    6SAPS   H8R  717   1.476   2.897   9.361 -0.9766  0.6964  2.7674
    6SAPS   C29  718   1.379   2.961   9.184  0.3959  0.4679 -0.3515
    6SAPS   H9R  719   1.465   2.963   9.116 -0.1886  1.0695 -1.0943
    6SAPS  C210  720   1.256   3.005   9.117 -0.8358  0.3013 -0.0855
    6SAPS  H10R  721   1.231   3.101   9.167 -0.8780  0.0509  0.3752
    6SAPS  H10S  722   1.168   2.940   9.130  0.0142 -1.2564 -1.6060
    6SAPS  C211  723   1.284   3.031   8.971 -0.3681  0.3415  0.0230
    6SAPS  H11R  724   1.309   3.137   8.951  1.4021 -0.1899 -0.7747
    6SAPS  C212  725   1.280   2.937   8.871  0.1450 -0.2051 -0.1604
    6SAPS  H12R  726   1.297   2.965   8.766 -0.4950  0.5225 -0.0821
    6SAPS  C213  727   1.242   2.789   8.892 -0.2275 -0.8680 -0.6021
    6SAPS  H13R  728   1.136   2.760   8.875  0.0439 -3.0007  0.9903
    6SAPS  H13S  729   1.235   2.758   8.998 -1.5231  0.7989 -0.1419
    6SAPS  C214  730   1.319   2.701   8.801 -0.5616  0.0868  0.0425
    6SAPS  H14R  731   1.276   2.691   8.700  0.1087  1.2897 -0.3810
    6SAPS  C215  732   1.434   2.630   8.832 -0.4299  0.6937 -0.3530
    6SAPS  H15R  733   1.485   2.571   8.754  0.8769 -0.7808  1.5248
    6SAPS  C216  734   1.505   2.629   8.972 -0.1686 -0.1033  0.3875
    6SAPS  H16R  735   1.479   2.546   9.040  0.2668 -0.4619  0.1213
    6SAPS  H16S  736   1.485   2.723   9.027 -1.8341  0.1416 -0.5450
    6SAPS  C217  737   1.662   2.625   8.947 -0.1799 -0.9980  0.1822
    6SAPS  H17R  738   1.700   2.640   9.050 -0.8632 -1.0590  0.4481
    6SAPS  H17S  739   1.693   2.703   8.874  0.4033 -0.0026  1.4554
    6SAPS  C218  740   1.717   2.500   8.869 -0.1022 -1.3021 -0.6140
    6SAPS  H18R  741   1.825   2.513   8.892 -0.7204 -0.5724  2.2979
    6SAPS  H18S  742   1.701   2.523   8.762 -0.5486  2.8020  0.1460
    6SAPS  C219  743   1.670   2.363   8.934 -0.0391 -0.1409  0.2911
    6SAPS  H19R  744   1.560   2.353   8.928  0.1460 -1.5953 -2.8124
    6SAPS  H19S  745   1.709   2.358   9.038  0.0709 -0.1828  0.2480
    6SAPS  C220  746   1.724   2.240   8.858  0.8095  0.3589  0.4921
    6SAPS  H20R  747   1.832   2.220   8.874  0.9078 -0.0178 -0.5798
    6SAPS  H20S  748   1.704   2.249   8.749  1.6200 -0.3197  0.2803
    6SAPS  H20T  749   1.679   2.146   8.896  0.5472 -0.0120 -0.7037
    6SAPS   C33  750   0.906   3.151   9.654 -0.1263  0.4858  0.7334
    6SAPS   H3X  751   0.997   3.200   9.611  1.8589 -2.4313  1.2812
    6SAPS   H3Y  752   0.839   3.237   9.672  1.1212  2.0976 -1.6558
    6SAPS   C34  753   0.843   3.044   9.559 -0.3831  0.0583 -0.3693
    6SAPS   H4X  754   0.746   3.014   9.606 -0.4189 -1.2850 -1.2325
    6SAPS   H4Y  755   0.912   2.957   9.568 -1.8205 -0.9437  2.3827
    6SAPS   C35  756   0.817   3.105   9.424  0.1915 -0.2662  0.3738
    6SAPS   H5X  757   0.741   3.183   9.447 -0.1441 -0.1587 -1.0023
    6SAPS   H5Y  758   0.768   3.028   9.359 -0.5489  0.5661 -0.0743
    6SAPS   C36  759   0.934   3.166   9.350  0.2921  0.9523 -0.0761
    6SAPS   H6X  760   1.021   3.099   9.367 -0.5094  0.2771  1.5659
    6SAPS   H6Y  761   0.959   3.265   9.394 -0.0113  1.4407 -0.9724
    6SAPS   C37  762   0.901   3.188   9.201 -0.1153  0.9147 -0.4020
    6SAPS   H7X  763   0.894   3.085   9.161 -1.0738  0.1639  1.5648
    6SAPS   H7Y  764   0.993   3.235   9.160  1.6022 -1.8249  0.0919
    6SAPS   C38  765   0.791   3.280   9.176 -0.3470  0.4365 -0.3208
    6SAPS   H8X  766   0.800   3.369   9.241  2.7614  0.1018 -0.1587
    6SAPS   H8Y  767   0.700   3.224   9.206 -0.7231  1.2969  0.1736
    6SAPS   C39  768   0.769   3.304   9.025 -0.3087  0.4876 -0.3284
    6SAPS   H9X  769   0.671   3.350   8.998 -0.3154 -0.8225 -2.8377
    6SAPS   H9Y  770   0.786   3.211   8.967  1.1817  1.7316 -2.0035
    6SAPS  C310  771   0.863   3.410   8.973 -0.6111 -0.4988  0.7005
    6SAPS  H10X  772   0.970   3.381   8.969 -0.5295 -0.1319  0.1529
    6SAPS  H10Y  773   0.861   3.498   9.041 -0.3207 -0.1342  0.2463
    6SAPS  C311  774   0.817   3.470   8.841  0.5016  0.4116  0.3176
    6SAPS  H11X  775   0.878   3.548   8.790 -1.2894  1.5486 -0.2003
    6SAPS  H11Y  776   0.716   3.516   8.852  0.0338 -0.5431  0.1473
    6SAPS  C312  777   0.806   3.374   8.723  0.2322 -0.3677  0.3114
    6SAPS  H12X  778   0.782   3.434   8.633  0.8215  1.3128  1.2389
    6SAPS  H12Y  779   0.713   3.316   8.740  0.8354 -1.2923  0.5686
    6SAPS  C313  780   0.916   3.261   8.711  0.4047 -1.4837 -0.0565
    6SAPS  H13X  781   0.922   3.206   8.808 -0.3880  0.2502  1.0243
    6SAPS  H13Y  782   1.008   3.319   8.693 -1.0750  2.0021  2.5569
    6SAPS  C314  783   0.901   3.163   8.595  0.3926 -0.4795 -0.0352
    6SAPS  H14X  784   0.897   3.222   8.501  2.9602  1.7913  1.1440
    6SAPS  H14Y  785   0.800   3.122   8.615 -0.8938  2.2117 -0.5887
    6SAPS  C315  786   1.018   3.058   8.596  0.0725 -0.3471  0.2540
    6SAPS  H15X  787   1.048   3.023   8.697 -0.3469  1.2264  0.9602
    6SAPS  H15Y  788   1.110   3.110   8.562 -1.3101  0.0382 -3.3559
    6SAPS  C316  789   0.989   2.940   8.499 -0.2281 -0.3410  0.5627
    6SAPS  H16X  790   1.003   2.968   8.392 -1.7666 -1.7197 -0.0355
    6SAPS  H16Y  791   0.886   2.902   8.515 -0.3830  0.4277  1.4511
    6SAPS  C317  792   1.081   2.812   8.521  0.1087  0.1458 -0.4733
    6SAPS  H17X  793   1.188   2.826   8.547  0.2486  1.0008 -1.4255
    6SAPS  H17Y  794   1.089   2.766   8.420 -0.9186  1.6348 -1.2851
    6SAPS  C318  795   1.010   2.715   8.618  0.8186 -0.4615 -0.0320
    6SAPS  H18X  796   1.069   2.621   8.626 -0.3436 -1.4684 -2.2821
    6SAPS  H18Y  797   0.916   2.675   8.572  0.6801 -1.6215  1.1942
    6SAPS  H18Z  798   0.989   2.769   8.713 -0.0841  1.1058 -1.0849
    7SAPS     N  799   5.087   3.820  10.640 -0.0790  0.6909 -0.0511
    7SAPS   HN1  800   5.115   3.918  10.661 -1.5435  1.0374  0.3831
    7SAPS   HN2  801   5.158   3.744  10.637 -0.5092  0.1305  2.1847
    7SAPS   HN3  802   5.025   3.817  10.557 -0.5796  0.4176  0.3335
    7SAPS   C12  803   4.995   3.773  10.745  0.0108  0.7660  0.7187
    7SAPS  H12A  804   4.948   3.678  10.725 -1.3135  1.9582 -2.4621
    7SAPS   C13  805   5.066   3.754  10.879  0.6457  0.2740 -0.4670
    7SAPS  O13A  806   5.191   3.771  10.895  0.2178 -0.0709 -0.2861
    7SAPS  O13B  807   4.994   3.700  10.975 -0.5868 -0.4722 -0.3641
    7SAPS   C11  808   4.876   3.870  10.756  0.4710  0.0453  0.5116
    7SAPS  H11A  809   4.911   3.975  10.762 -1.1903  0.7132 -0.7018
    7SAPS  H11B  810   4.819   3.836  10.845 -1.7676 -2.4466 -1.7137
    7SAPS     P  811   4.666   3.947  10.634  0.0424 -0.5971 -0.0322
    7SAPS   O13  812   4.551   3.865  10.596 -0.0083  0.8193  0.4780
    7SAPS   O14  813   4.649   4.037  10.750 -0.2281  0.4816 -0.4107
    7SAPS   O12  814   4.797   3.861  10.634 -0.7914 -0.0539 -0.0679
    7SAPS   O11  815   4.689   4.043  10.508  0.1968  0.0581  0.0280
    7SAPS    C1  816   4.811   4.123  10.502  0.8924  0.0224  0.1653
    7SAPS    HA  817   4.826   4.185  10.593 -0.8915 -1.9320  1.9227
    7SAPS    HB  818   4.901   4.059  10.515  0.0535 -1.1999  0.1437
    7SAPS    C2  819   4.833   4.206  10.369  0.3708 -0.1102  0.6563
    7SAPS    HS  820   4.921   4.272  10.384  1.0174 -0.6545 -0.5355
    7SAPS   O21  821   4.713   4.279  10.323  0.5786  0.0858  0.2506
    7SAPS   C21  822   4.679   4.391  10.386 -0.0343 -0.0684 -0.5921
    7SAPS   O22  823   4.756   4.455  10.457 -0.7283 -0.8991 -0.2783
    7SAPS   C22  824   4.525   4.413  10.363 -0.5090  0.1255  0.1722
    7SAPS   H2R  825   4.501   4.369  10.263  0.7819 -1.3441  0.4656
    7SAPS   H2S  826   4.465   4.356  10.437 -0.6668  1.3614  1.0217
    7SAPS    C3  827   4.868   4.111  10.250 -0.1614 -0.3549  0.7896
    7SAPS    HX  828   4.786   4.037  10.247 -1.2804  0.8838 -0.6742
    7SAPS    HY  829   4.964   4.059  10.271 -0.3747 -1.1056 -0.0283
    7SAPS   O31  830   4.864   4.179  10.117 -0.2928  0.7725  0.2915
    7SAPS   C31  831   4.967   4.247  10.094 -1.0843  0.1484  0.1213
    7SAPS   O32  832   5.073   4.254  10.164  0.7538  0.2015 -0.3166
    7SAPS   C32  833   4.940   4.324   9.962 -0.2731  0.8352 -0.1632
    7SAPS   H2X  834   4.855   4.272   9.914 -1.0446  1.4256  0.5250
    7SAPS   H2Y  835   5.033   4.309   9.903 -0.9647 -0.4222 -0.9677
    7SAPS   C23  836   4.490   4.566  10.367 -0.7288  0.5110 -0.1770
    7SAPS   H3R  837   4.539   4.616  10.281  0.2795 -0.8716 -0.4375
    7SAPS   H3S  838   4.528   4.619  10.456  0.8790  1.6069 -1.4640
    7SAPS   C24  839   4.342   4.594  10.360  0.7468 -0.3831 -0.3355
    7SAPS   H4R  840   4.321   4.700  10.386 -0.3876 -1.3815  3.5158
    7SAPS   H4S  841   4.300   4.531  10.441  1.4083 -0.5891 -0.1417
    7SAPS   C25  842   4.279   4.559  10.229  0.2075  0.6976  0.0163
    7SAPS   H5R  843   4.261   4.451  10.217 -1.3500  0.5228  3.0145
    7SAPS   C26  844   4.231   4.646  10.144  0.9278  0.5304  0.3032
    7SAPS   H6R  845   4.184   4.602  10.055  0.8927  1.5695 -0.2062
    7SAPS   C27  846   4.228   4.802  10.151 -0.4075  0.2850  0.6211
    7SAPS   H7R  847   4.324   4.833  10.105  0.5123 -0.3457  2.0318
    7SAPS   H7S  848   4.238   4.844  10.253 -1.3672  0.5549  0.6190
    7SAPS   C28  849   4.099   4.847  10.088 -0.0431 -0.0005  0.2463
    7SAPS   H8R  850   4.002   4.827  10.135 -0.5301  0.6437 -0.4519
    7SAPS   C29  851   4.087   4.915   9.975 -0.3256  0.6073  0.3555
    7SAPS   H9R  852   3.984   4.949   9.957 -0.5821  1.0499  2.3644
    7SAPS  C210  853   4.189   4.959   9.871 -0.0488 -0.0490 -0.0534
    7SAPS  H10R  854   4.162   4.902   9.779 -1.9211  1.4842 -0.5463
    7SAPS  H10S  855   4.288   4.927   9.907  0.5108  2.1797  0.5422
    7SAPS  C211  856   4.184   5.115   9.851 -0.1232 -0.3266 -0.0892
    7SAPS  H11R  857   4.203   5.164   9.948  0.2166  3.0152 -1.6871
    7SAPS  C212  858   4.154   5.185   9.738 -0.3109 -0.4439 -0.1828
    7SAPS  H12R  859   4.149   5.295   9.747  1.0586 -0.4430  0.9261
    7SAPS  C213  860   4.119   5.144   9.592  0.2335  0.0617 -0.4986
    7SAPS  H13R  861   4.034   5.207   9.559  0.4396 -0.3325 -1.8071
    7SAPS  H13S  862   4.082   5.040   9.601 -0.1443  0.3266  1.6142
    7SAPS  C214  863   4.236   5.156   9.500  0.8442  0.3229 -0.0457
    7SAPS  H14R  864   4.336   5.137   9.543  1.2744 -0.4732 -1.3463
    7SAPS  C215  865   4.229   5.182   9.368 -0.4768 -0.1568  0.4126
    7SAPS  H15R  866   4.315   5.218   9.311 -1.2683  1.5676  0.2385
    7SAPS  C216  867   4.109   5.200   9.288  0.8869 -0.7059  0.2001
    7SAPS  H16R  868   4.062   5.299   9.307 -1.2457 -1.8735  1.4585
    7SAPS  H16S  869   4.035   5.124   9.321  1.0232 -0.5709  0.8221
    7SAPS  C217  870   4.125   5.187   9.138  0.2709 -0.2575 -0.5307
    7SAPS  H17R  871   4.192   5.274   9.119 -1.4642  1.4785  0.8535
    7SAPS  H17S  872   4.032   5.194   9.078  1.7848  1.4336 -2.8461
    7SAPS  C218  873   4.216   5.070   9.095 -0.4425 -0.1815  0.4160
    7SAPS  H18R  874   4.177   4.971   9.125  1.1457 -1.5505 -1.7216
    7SAPS  H18S  875   4.321   5.072   9.130 -0.4128  1.6440  0.3185
    7SAPS  C219  876   4.232   5.059   8.937  0.4125  0.4610 -0.1579
    7SAPS  H19R  877   4.274   5.157   8.905  2.1251 -0.2228 -0.1225
    7SAPS  H19S  878   4.131   5.052   8.892  0.4919 -0.4548 -0.2018
    7SAPS  C220  879   4.311   4.942   8.896 -0.3901 -0.4887 -0.2702
    7SAPS  H20R  880   4.260   4.846   8.919 -1.4414 -0.2338 -1.4305
    7SAPS  H20S  881   4.406   4.946   8.952 -0.3261  1.3573 -0.4617
    7SAPS  H20T  882   4.328   4.940   8.786  2.9273  2.2597  0.0425
    7SAPS   C33  883   4.911   4.470   9.997  0.2888  0.3882 -0.4580
    7SAPS   H3X  884   4.994   4.521  10.052  0.3683 -0.9626  0.7459
    7SAPS   H3Y  885   4.825   4.472  10.067  0.5486  2.4654 -0.1339
    7SAPS   C34  886   4.869   4.554   9.871  0.1527 -0.4640 -0.2785
    7SAPS   H4X  887   4.783   4.511   9.815  0.6059 -1.4244 -0.2625
    7SAPS   H4Y  888   4.958   4.550   9.805 -0.0399  1.7256 -0.7495
    7SAPS   C35  889   4.839   4.699   9.900 -0.4294 -0.0627  0.1556
    7SAPS   H5X  890   4.837   4.739   9.797  2.8680 -0.0900 -0.0180
    7SAPS   H5Y  891   4.930   4.741   9.949 -1.0678  0.5698  0.8371
    7SAPS   C36  892   4.705   4.729   9.962 -0.1002  0.1828  0.3301
    7SAPS   H6X  893   4.671   4.834   9.969 -1.8834 -0.0933 -2.5528
    7SAPS   H6Y  894   4.713   4.698  10.068  0.9085  2.9849  1.1551
    7SAPS   C37  895   4.585   4.656   9.898 -0.1998 -0.0755 -0.4621
    7SAPS   H7X  896   4.490   4.650   9.955 -0.7540  0.8098 -1.2546
    7SAPS   H7Y  897   4.606   4.548   9.885 -1.3875 -0.3247 -0.4008
    7SAPS   C38  898   4.541   4.715   9.764 -0.4039  0.4003 -0.8370
    7SAPS   H8X  899   4.632   4.735   9.704  1.3502 -1.6388  0.9737
    7SAPS   H8Y  900   4.481   4.807   9.783  1.5661  2.5472 -3.9987
    7SAPS   C39  901   4.457   4.616   9.687  0.0884 -0.0971 -0.1925
    7SAPS   H9X  902   4.373   4.586   9.753 -1.1849  1.0866 -1.1942
    7SAPS   H9Y  903   4.514   4.523   9.665 -1.4027 -0.6008 -2.2637
    7SAPS  C310  904   4.382   4.687   9.572 -0.4678  0.2813 -0.5334
    7SAPS  H10X  905   4.442   4.673   9.479 -1.8847 -2.0824 -1.1534
    7SAPS  H10Y  906   4.372   4.794   9.600 -0.5605 -0.1219  1.0292
    7SAPS  C311  907   4.238   4.651   9.572 -0.3021 -0.2040  0.1837
    7SAPS  H11X  908   4.197   4.682   9.671 -0.4289 -0.2512  0.1463
    7SAPS  H11Y  909   4.230   4.540   9.568  0.1074 -0.2750  1.0454
    7SAPS  C312  910   4.165   4.710   9.447 -0.3071 -0.5605 -0.2289
    7SAPS  H12X  911   4.148   4.820   9.456 -2.5643 -1.0615  4.6754
    7SAPS  H12Y  912   4.068   4.657   9.460 -0.0616 -0.9810 -0.1012
    7SAPS  C313  913   4.225   4.664   9.311  0.4150  0.0881  0.1762
    7SAPS  H13X  914   4.330   4.697   9.297  0.6288 -0.5542  0.2329
    7SAPS  H13Y  915   4.160   4.705   9.231  0.8534 -2.5310 -1.6279
    7SAPS  C314  916   4.204   4.512   9.278 -0.3250 -0.0808 -0.3016
    7SAPS  H14X  917   4.112   4.480   9.331  0.1782 -0.6690  0.2268
    7SAPS  H14Y  918   4.286   4.456   9.328  0.4313 -0.1404 -1.5499
    7SAPS  C315  919   4.203   4.488   9.118 -0.4028  0.3355 -0.4217
    7SAPS  H15X  920   4.296   4.523   9.070 -0.0346  0.5778  0.4432
    7SAPS  H15Y  921   4.115   4.540   9.075 -0.2358  1.6850  0.7896
    7SAPS  C316  922   4.183   4.342   9.080  0.2011  0.7731 -0.2552
    7SAPS  H16X  923   4.076   4.314   9.086  0.6159 -0.7920  0.6966
    7SAPS  H16Y  924   4.245   4.281   9.150  1.2612  0.4485 -1.4205
    7SAPS  C317  925   4.218   4.291   8.938  0.1100 -0.6506 -0.1616
    7SAPS  H17X  926   4.180   4.187   8.925 -0.4779 -0.4237 -0.3279
    7SAPS  H17Y  927   4.329   4.290   8.932  0.1131 -3.9960 -1.8965
    7SAPS  C318  928   4.161   4.366   8.814  0.4174 -0.1183  0.0507
    7SAPS  H18X  929   4.181   4.304   8.724 -3.4197 -0.6467 -0.6022
    7SAPS  H18Y  930   4.194   4.472   8.815 -0.3818  0.1372  0.5404
    7SAPS  H18Z  931   4.050   4.373   8.824  0.3168 -1.2427 -0.0678
    8SAPS     N  932   1.527   5.799  10.846 -0.0993  0.6013 -0.6351
    8SAPS   HN1  933   1.622   5.758  10.836  0.4744  2.1492 -2.1324
    8SAPS   HN2  934   1.537   5.883  10.785  2.2526  1.4758  0.8280
    8SAPS   HN3  935   1.516   5.835  10.943 -0.3241  0.8345 -0.7457
    8SAPS   C12  936   1.415   5.702  10.819  0.3297 -0.1812  0.0398
    8SAPS  H12A  937   1.423   5.665  10.717 -0.0467  1.5343 -0.6397
    8SAPS   C13  938   1.394   5.573  10.907 -0.6508  0.0063  0.0267
    8SAPS  O13A  939   1.478   5.553  10.993 -0.5029 -0.3316 -0.0346
    8SAPS  O13B  940   1.309   5.483  10.871  0.6535 -0.0814  0.4965
    8SAPS   C11  941   1.281   5.782  10.825  0.5936  0.3546 -0.0290
    8SAPS  H11A  942   1.199   5.714  10.793  0.4182  0.7793 -0.5154
    8SAPS  H11B  943   1.277   5.867  10.753 -0.6695 -0.5140 -1.0439
    8SAPS     P  944   1.123   5.907  11.001  0.0172 -0.4817 -0.0858
    8SAPS   O13  945   1.054   5.799  11.078 -0.0090  0.5223 -0.4674
    8SAPS   O14  946   1.156   6.029  11.075  0.4309 -0.4197  0.0791
    8SAPS   O12  947   1.256   5.846  10.954  0.0318 -0.0421 -0.3302
    8SAPS   O11  948   1.044   5.940  10.862  0.0807  0.5442  0.3386
    8SAPS    C1  949   0.956   5.854  10.799  0.0440 -0.2526 -0.1479
    8SAPS    HA  950   0.953   5.749  10.836  2.2671 -1.2208 -2.4439
    8SAPS    HB  951   0.855   5.898  10.811  0.8956  1.7045  0.2324
    8SAPS    C2  952   0.964   5.832  10.645 -0.0007 -0.1736 -0.2050
    8SAPS    HS  953   1.063   5.785  10.624  0.2422  0.2007  0.1049
    8SAPS   O21  954   0.943   5.963  10.582  0.4101  0.2034 -0.5946
    8SAPS   C21  955   1.024   5.987  10.473  0.2553 -0.5469 -0.7231
    8SAPS   O22  956   1.100   5.907  10.418  0.5753 -0.2729 -0.5067
    8SAPS   C22  957   1.030   6.137  10.435  0.0018 -0.4597 -0.2367
    8SAPS   H2R  958   1.032   6.202  10.525  0.3170  0.0972 -0.6392
    8SAPS   H2S  959   1.132   6.143  10.390 -0.1679 -1.0782 -0.7066
    8SAPS    C3  960   0.861   5.726  10.593 -0.1896 -0.2255 -0.2337
    8SAPS    HX  961   0.767   5.774  10.626 -0.4352 -1.4702  0.9665
    8SAPS    HY  962   0.864   5.623  10.635 -1.3834 -0.0864  0.2385
    8SAPS   O31  963   0.833   5.721  10.449  0.5120  0.1831 -0.1050
    8SAPS   C31  964   0.925   5.656  10.382  0.8152  0.1667  0.4945
    8SAPS   O32  965   1.023   5.604  10.437  0.5583 -0.2136 -0.0341
    8SAPS   C32  966   0.884   5.639  10.239 -0.1923  0.4583 -0.1278
    8SAPS   H2X  967   0.813   5.719  10.210  0.4487  2.0026  2.2551
    8SAPS   H2Y  968   0.823   5.548  10.223 -0.3776  0.8179 -1.6941
    8SAPS   C23  969   0.934   6.183  10.326 -0.4569 -0.7287 -0.7774
    8SAPS   H3R  970   0.941   6.293  10.323 -0.2777 -0.6286  1.6055
    8SAPS   H3S  971   0.838   6.153  10.372 -0.9316 -1.7390 -2.3519
    8SAPS   C24  972   0.962   6.125  10.190 -0.0450  0.5696  0.5836
    8SAPS   H4R  973   0.868   6.151  10.135  0.4583 -0.1351 -0.6411
    8SAPS   H4S  974   0.970   6.015  10.201  2.1018  0.3272 -2.2802
    8SAPS   C25  975   1.079   6.176  10.106  0.1693 -0.7498  0.7091
    8SAPS   H5R  976   1.177   6.188  10.154  1.3685 -0.9866 -1.5361
    8SAPS   C26  977   1.077   6.208   9.975 -0.4193 -0.5598 -0.2618
    8SAPS   H6R  978   1.172   6.236   9.928  0.8193 -1.0886  1.7805
    8SAPS   C27  979   0.958   6.210   9.879  0.9852 -0.7473 -0.3163
    8SAPS   H7R  980   0.867   6.237   9.936  0.5411  2.5621 -2.3591
    8SAPS   H7S  981   0.933   6.106   9.848 -2.7866  0.1368 -0.7328
    8SAPS   C28  982   0.969   6.296   9.756 -0.1422 -0.9069 -0.7678
    8SAPS   H8R  983   0.920   6.394   9.764 -0.3129 -1.0760  0.4559
    8SAPS   C29  984   1.029   6.269   9.641 -1.0676 -0.6194 -0.4183
    8SAPS   H9R  985   1.033   6.345   9.562 -0.6938  0.6123  0.7518
    8SAPS  C210  986   1.109   6.147   9.605 -0.0583 -0.2015  0.0880
    8SAPS  H10R  987   1.032   6.067   9.605 -1.0226  0.7000 -1.0876
    8SAPS  H10S  988   1.173   6.117   9.691  0.5238  0.2818 -0.1742
    8SAPS  C211  989   1.186   6.154   9.474  0.4547  0.7519  0.1056
    8SAPS  H11R  990   1.278   6.214   9.486  2.1364 -1.8520  1.0350
    8SAPS  C212  991   1.154   6.095   9.355 -0.3216 -0.6855  0.5080
    8SAPS  H12R  992   1.215   6.113   9.265  0.3942  1.9350  1.4239
    8SAPS  C213  993   1.035   6.006   9.332 -0.0895 -0.4137 -0.5799
    8SAPS  H13R  994   0.970   6.024   9.420  1.8298  0.3235  0.7375
    8SAPS  H13S  995   1.059   5.900   9.355  0.9297  0.1791  1.2840
    8SAPS  C214  996   0.962   6.014   9.200 -0.3103  0.4891 -0.2229
    8SAPS  H14R  997   1.013   6.087   9.136  1.3815  0.7225  1.2817
    8SAPS  C215  998   0.858   5.942   9.154 -0.2793 -0.3609 -0.4376
    8SAPS  H15R  999   0.807   5.974   9.062 -0.5289  1.8144  0.4028
    8SAPS  C216 1000   0.796   5.828   9.232 -0.1833 -0.8291 -0.8068
    8SAPS  H16R 1001   0.863   5.797   9.315  3.1043 -1.1179 -3.3657
    8SAPS  H16S 1002   0.777   5.742   9.164  1.1076 -0.8969 -1.0900
    8SAPS  C217 1003   0.655   5.876   9.260  0.1961  0.0926 -0.5856
    8SAPS  H17R 1004   0.600   5.784   9.291 -0.7072  0.9728  0.5253
    8SAPS  H17S 1005   0.598   5.918   9.174 -0.5706 -2.3260 -1.3365
    8SAPS  C218 1006   0.650   5.980   9.370  0.2673 -0.5187  0.4791
    8SAPS  H18R 1007   0.548   6.018   9.390  0.9988  0.1141  3.7734
    8SAPS  H18S 1008   0.709   6.069   9.338  0.0791 -0.4701  0.2634
    8SAPS  C219 1009   0.704   5.933   9.506 -0.0440 -0.4269 -0.0887
    8SAPS  H19R 1010   0.805   5.889   9.495  0.4742 -0.2968  3.0643
    8SAPS  H19S 1011   0.651   5.844   9.546 -1.4861  0.0218 -0.9248
    8SAPS  C220 1012   0.698   6.040   9.617 -0.3443 -0.1062  0.0395
    8SAPS  H20R 1013   0.592   6.051   9.648 -0.5751 -2.5158  0.3124
    8SAPS  H20S 1014   0.747   6.126   9.566 -0.8849  0.0236 -0.2667
    8SAPS  H20T 1015   0.764   6.012   9.702  0.3876 -2.9698 -1.3490
    8SAPS   C33 1016   1.005   5.654  10.132 -0.3557  0.2721  0.0597
    8SAPS   H3X 1017   1.063   5.745  10.160 -0.6942  0.8767 -1.1330
    8SAPS   H3Y 1018   0.955   5.671  10.034  1.2960  2.2078 -0.5255
    8SAPS   C34 1019   1.091   5.525  10.116  0.2012 -0.1272 -0.0372
    8SAPS   H4X 1020   1.177   5.524  10.185  1.0699  3.6229 -0.8510
    8SAPS   H4Y 1021   1.133   5.529  10.013  0.0963  0.5035 -0.0642
    8SAPS   C35 1022   1.010   5.391  10.123  0.0548  0.3698  0.4976
    8SAPS   H5X 1023   0.905   5.395  10.089 -0.1031 -0.7166  0.8130
    8SAPS   H5Y 1024   1.006   5.357  10.229  0.9116 -1.7324 -0.1029
    8SAPS   C36 1025   1.088   5.281  10.048  0.1981  0.3626 -0.6510
    8SAPS   H6X 1026   1.055   5.185  10.092 -1.9364  1.0502 -0.6731
    8SAPS   H6Y 1027   1.191   5.317  10.069  1.0747 -1.6962 -1.1989
    8SAPS   C37 1028   1.063   5.270   9.902  0.1620 -0.3260 -0.1730
    8SAPS   H7X 1029   1.153   5.221   9.861  0.7544  1.6628 -1.3893
    8SAPS   H7Y 1030   1.052   5.366   9.847  1.5955 -0.9964 -1.6997
    8SAPS   C38 1031   0.940   5.175   9.871  0.2279  0.3459 -0.2698
    8SAPS   H8X 1032   0.849   5.217   9.919  1.1442  2.4796 -0.2840
    8SAPS   H8Y 1033   0.957   5.069   9.901 -0.2543  0.4997  0.5761
    8SAPS   C39 1034   0.909   5.178   9.719  0.6935  0.1679 -0.4420
    8SAPS   H9X 1035   0.883   5.282   9.690  1.1084  1.4397  3.3070
    8SAPS   H9Y 1036   0.823   5.120   9.679  2.9498 -2.7418 -1.4475
    8SAPS  C310 1037   1.025   5.127   9.632 -0.3874 -1.5704  0.2516
    8SAPS  H10X 1038   1.022   5.017   9.644 -0.6752 -1.5925 -0.0176
    8SAPS  H10Y 1039   1.124   5.166   9.664 -0.6580 -1.5919  1.1394
    8SAPS  C311 1040   1.009   5.150   9.485 -0.2647 -0.6493 -0.0296
    8SAPS  H11X 1041   0.907   5.113   9.459 -1.3482  0.7252  1.9829
    8SAPS  H11Y 1042   1.085   5.093   9.429 -1.4426 -0.4065 -1.9652
    8SAPS  C312 1043   1.003   5.286   9.432 -0.2877 -0.1878  0.3847
    8SAPS  H12X 1044   1.090   5.348   9.461 -1.2509  0.5551  1.8254
    8SAPS  H12Y 1045   0.914   5.343   9.466  0.5549  0.1752  2.1001
    8SAPS  C313 1046   0.979   5.290   9.275 -0.7358  0.1571 -0.9564
    8SAPS  H13X 1047   0.883   5.244   9.247  0.1392 -1.3228 -1.6165
    8SAPS  H13Y 1048   1.066   5.234   9.235 -0.2058 -2.1090  2.8148
    8SAPS  C314 1049   0.981   5.438   9.227  0.2376 -0.0398 -0.0404
    8SAPS  H14X 1050   1.053   5.506   9.277 -2.4464  2.7497  0.3228
    8SAPS  H14Y 1051   0.883   5.475   9.261  0.2919  0.2191 -0.1643
    8SAPS  C315 1052   0.991   5.451   9.070 -0.0811  0.5395  0.0958
    8SAPS  H15X 1053   1.076   5.386   9.040 -0.2789 -0.1559  1.0110
    8SAPS  H15Y 1054   1.010   5.552   9.028 -1.3323 -0.0963 -2.1656
    8SAPS  C316 1055   0.863   5.397   9.005 -0.7183  0.3451 -0.0185
    8SAPS  H16X 1056   0.779   5.458   9.043 -1.2483 -1.0336  1.1238
    8SAPS  H16Y 1057   0.846   5.295   9.047  3.0353 -0.1863  0.5703
    8SAPS  C317 1058   0.871   5.387   8.847  0.0648 -0.5543 -0.1259
    8SAPS  H17X 1059   0.937   5.469   8.812 -0.0098 -0.6788 -0.5573
    8SAPS  H17Y 1060   0.767   5.401   8.811  0.2656  1.8472  0.0904
    8SAPS  C318 1061   0.915   5.244   8.813  0.1748  0.1888 -0.6095
    8SAPS  H18X 1062   0.822   5.185   8.826  0.5350 -0.4083 -0.7082
    8SAPS  H18Y 1063   0.988   5.194   8.880 -2.0640  0.1644  1.9596
    8SAPS  H18Z 1064   0.935   5.236   8.704 -1.2749  0.1044 -0.8898
    9SAPS     N 1065   4.532   1.370   6.324  0.0710 -0.5555 -0.7716
    9SAPS   HN1 1066   4.505   1.400   6.420  1.7033  0.6789 -0.6556
    9SAPS   HN2 1067   4.534   1.448   6.255  2.3881  1.6888  1.6411
    9SAPS   HN3 1068   4.475   1.294   6.282  1.5523 -2.0584 -0.1666
    9SAPS   C12 1069   4.665   1.299   6.325  0.7077 -0.0019  0.0939
    9SAPS  H12A 1070   4.666   1.227   6.406  2.9168 -1.8114 -1.4033
    9SAPS   C13 1071   4.690   1.213   6.201  0.7175  0.5124  0.0302
    9SAPS  O13A 1072   4.603   1.204   6.112  0.2760  0.1433 -0.2407
    9SAPS  O13B 1073   4.805   1.168   6.182 -0.4586  0.3083 -0.4355
    9SAPS   C11 1074   4.769   1.413   6.338 -0.2553 -0.6885  0.0573
    9SAPS  H11A 1075   4.780   1.458   6.238 -1.2646 -1.2228 -0.3052
    9SAPS  H11B 1076   4.866   1.365   6.365 -0.7420 -0.6346  2.1120
    9SAPS     P 1077   4.818   1.646   6.443 -0.4840 -0.2329 -0.1713
    9SAPS   O13 1078   4.959   1.618   6.475 -0.0259  0.2793  0.3710
    9SAPS   O14 1079   4.788   1.718   6.315  0.0534  0.6426 -0.1912
    9SAPS   O12 1080   4.740   1.509   6.441  0.2423  0.1977  1.1477
    9SAPS   O11 1081   4.752   1.735   6.561  0.5930 -0.3281  0.0710
    9SAPS    C1 1082   4.670   1.670   6.657  0.3555 -0.8113 -0.4362
    9SAPS    HA 1083   4.574   1.630   6.619 -0.3870 -2.1377  2.5043
    9SAPS    HB 1084   4.725   1.598   6.722  1.5793  1.2168  0.9202
    9SAPS    C2 1085   4.605   1.772   6.762 -0.4474  0.4136 -0.3851
    9SAPS    HS 1086   4.566   1.855   6.701 -2.4978 -0.4415 -0.3309
    9SAPS   O21 1087   4.714   1.819   6.845 -0.2592 -0.2019  0.2605
    9SAPS   C21 1088   4.696   1.945   6.879 -0.1506 -0.2954 -0.4058
    9SAPS   O22 1089   4.600   2.011   6.852  0.0548 -0.0943  0.0426
    9SAPS   C22 1090   4.814   1.998   6.956 -0.8492  0.2892 -0.1953
    9SAPS   H2R 1091   4.885   1.916   6.978 -0.4325  1.0601  1.4919
    9SAPS   H2S 1092   4.860   2.078   6.896 -0.3372 -1.1499 -1.8017
    9SAPS    C3 1093   4.487   1.708   6.846 -0.4318 -0.4257 -0.2874
    9SAPS    HX 1094   4.421   1.651   6.777 -0.7456 -0.1151 -0.2461
    9SAPS    HY 1095   4.421   1.779   6.900  1.1518  2.0630 -1.4324
    9SAPS   O31 1096   4.544   1.614   6.948 -0.6989  0.3250 -0.1155
    9SAPS   C31 1097   4.556   1.485   6.911 -0.7555  0.0848  0.5494
    9SAPS   O32 1098   4.538   1.444   6.798 -0.2010 -0.5676 -0.0272
    9SAPS   C32 1099   4.598   1.396   7.029 -0.2861 -0.2292  0.7752
    9SAPS   H2X 1100   4.657   1.312   6.989  1.4157 -0.0259  2.6907
    9SAPS   H2Y 1101   4.508   1.342   7.067  1.4171 -2.4502  1.8698
    9SAPS   C23 1102   4.765   2.055   7.097  0.0514  0.0548 -0.0285
    9SAPS   H3R 1103   4.702   2.144   7.079 -1.1320 -0.5105  1.1439
    9SAPS   H3S 1104   4.854   2.093   7.151 -1.1362  1.9852  0.6608
    9SAPS   C24 1105   4.677   1.963   7.180  0.0760  0.4535 -0.0463
    9SAPS   H4R 1106   4.590   1.933   7.118 -0.1483 -0.4623  0.7043
    9SAPS   H4S 1107   4.629   2.017   7.264 -2.1519 -2.7093  0.9108
    9SAPS   C25 1108   4.756   1.836   7.214 -0.4975  0.3426  0.3644
    9SAPS   H5R 1109   4.756   1.766   7.130 -2.7272  3.3401 -2.3686
    9SAPS   C26 1110   4.822   1.818   7.329  0.7101 -0.3587 -0.0038
    9SAPS   H6R 1111   4.865   1.717   7.344  1.6701  0.0764  0.2394
    9SAPS   C27 1112   4.829   1.915   7.444  0.0736 -0.2580  0.6714
    9SAPS   H7R 1113   4.755   1.883   7.521  0.3511 -1.4871  0.4488
    9SAPS   H7S 1114   4.801   2.019   7.416  0.3757 -0.1981  0.5921
    9SAPS   C28 1115   4.974   1.935   7.491 -0.0944  1.1036  0.6634
    9SAPS   H8R 1116   5.046   1.952   7.409  0.8418 -1.1382  0.9267
    9SAPS   C29 1117   5.022   1.925   7.611 -0.2247  0.2601  0.1867
    9SAPS   H9R 1118   5.130   1.943   7.619 -0.5944  1.6960  3.7879
    9SAPS  C210 1119   4.960   1.887   7.738  0.4014 -0.0275  0.1041
    9SAPS  H10R 1120   4.928   1.781   7.729 -0.4477  0.3150 -1.0617
    9SAPS  H10S 1121   4.872   1.951   7.757  0.2382 -0.4949  0.9860
    9SAPS  C211 1122   5.039   1.900   7.863  0.1855  0.1157 -0.0556
    9SAPS  H11R 1123   5.149   1.910   7.853  0.1293  1.2104  0.2543
    9SAPS  C212 1124   4.987   1.893   7.987 -0.2589  0.3808 -0.4296
    9SAPS  H12R 1125   5.051   1.889   8.076  0.8239  0.0498 -1.2034
    9SAPS  C213 1126   4.848   1.870   8.017 -0.2590  0.0886  0.2254
    9SAPS  H13R 1127   4.830   1.797   8.099 -1.8202 -0.6774 -0.7510
    9SAPS  H13S 1128   4.815   1.820   7.924  4.6495  0.8033 -2.2323
    9SAPS  C214 1129   4.771   1.992   8.032 -0.2406  0.1155  0.3459
    9SAPS  H14R 1130   4.746   2.039   7.936 -0.2698  1.0315  0.7979
    9SAPS  C215 1131   4.731   2.043   8.146  0.0287  0.5035 -0.8121
    9SAPS  H15R 1132   4.680   2.140   8.152  1.1803  1.0727  0.6070
    9SAPS  C216 1133   4.743   1.981   8.284 -0.5833  0.3110 -0.2121
    9SAPS  H16R 1134   4.772   2.057   8.359 -0.9012 -1.7243  2.1004
    9SAPS  H16S 1135   4.833   1.915   8.285  0.1936  1.2926 -1.7686
    9SAPS  C217 1136   4.619   1.905   8.331  0.5231 -0.2168 -0.4871
    9SAPS  H17R 1137   4.630   1.814   8.269  2.0410  0.4307 -1.2273
    9SAPS  H17S 1138   4.530   1.964   8.300 -1.2364 -2.3980  0.1423
    9SAPS  C218 1139   4.621   1.867   8.481  0.3752 -0.4669 -0.1482
    9SAPS  H18R 1140   4.679   1.933   8.549 -1.1248  1.0035 -0.2205
    9SAPS  H18S 1141   4.666   1.767   8.496  0.7895 -0.4574 -1.2131
    9SAPS  C219 1142   4.475   1.860   8.537 -0.6254  0.2554 -0.2079
    9SAPS  H19R 1143   4.418   1.803   8.460  1.1196 -1.0457 -0.6122
    9SAPS  H19S 1144   4.429   1.961   8.531  2.0273  1.5783  0.1069
    9SAPS  C220 1145   4.456   1.802   8.676  0.2758  0.9233 -0.2249
    9SAPS  H20R 1146   4.480   1.694   8.665 -1.0561  0.7023 -1.2365
    9SAPS  H20S 1147   4.354   1.828   8.714 -0.8231  0.5289 -2.6726
    9SAPS  H20T 1148   4.535   1.831   8.748  2.2400 -0.9867 -1.4830
    9SAPS   C33 1149   4.647   1.476   7.154 -1.0340  0.7834  0.2956
    9SAPS   H3X 1150   4.579   1.562   7.170 -2.2603 -0.6155  3.1733
    9SAPS   H3Y 1151   4.751   1.506   7.128 -0.4527 -0.9990  0.4266
    9SAPS   C34 1152   4.637   1.390   7.282  0.2695 -0.1573 -0.4270
    9SAPS   H4X 1153   4.697   1.298   7.261  2.3480  0.5481  1.9702
    9SAPS   H4Y 1154   4.535   1.351   7.304  0.0945  0.2713 -0.4696
    9SAPS   C35 1155   4.685   1.439   7.419  0.4907 -0.3315 -0.4153
    9SAPS   H5X 1156   4.653   1.541   7.449  1.4937  0.3183 -1.4847
    9SAPS   H5Y 1157   4.794   1.451   7.404  0.2895 -0.8649 -2.8247
    9SAPS   C36 1158   4.662   1.350   7.547  0.0542 -0.7167 -0.2306
    9SAPS   H6X 1159   4.683   1.242   7.529  0.9594 -0.8447  1.4085
    9SAPS   H6Y 1160   4.557   1.351   7.584  0.2180  0.8864  0.2361
    9SAPS   C37 1161   4.750   1.387   7.664 -0.2590  0.5042  0.0875
    9SAPS   H7X 1162   4.726   1.488   7.703  0.0561 -0.0589  1.8398
    9SAPS   H7Y 1163   4.853   1.396   7.625 -1.3111  3.2617 -2.3847
    9SAPS   C38 1164   4.750   1.271   7.770 -0.3653  0.2738 -0.3361
    9SAPS   H8X 1165   4.789   1.179   7.722 -0.9798  0.2694 -0.8326
    9SAPS   H8Y 1166   4.645   1.255   7.802  0.1149  0.7753  1.6622
    9SAPS   C39 1167   4.850   1.292   7.890  0.3252 -0.0310 -0.0397
    9SAPS   H9X 1168   4.944   1.346   7.862 -0.3354  2.3426  1.9793
    9SAPS   H9Y 1169   4.883   1.192   7.927  0.0426  0.0905  0.5420
    9SAPS  C310 1170   4.795   1.359   8.020  0.2039 -0.0004 -0.1580
    9SAPS  H10X 1171   4.698   1.315   8.051  0.0255  0.4219 -0.1117
    9SAPS  H10Y 1172   4.770   1.465   7.998  0.8136  0.1235 -0.2805
    9SAPS  C311 1173   4.898   1.356   8.137 -0.2022 -0.5174 -0.2615
    9SAPS  H11X 1174   5.000   1.364   8.094  0.4933  0.9151  1.5545
    9SAPS  H11Y 1175   4.881   1.254   8.178 -0.4562 -1.0212 -1.5691
    9SAPS  C312 1176   4.861   1.458   8.246 -0.1335 -0.5042 -0.3837
    9SAPS  H12X 1177   4.758   1.432   8.279 -0.0487  0.2689  0.5206
    9SAPS  H12Y 1178   4.865   1.552   8.188 -0.3976  0.2124  0.7254
    9SAPS  C313 1179   4.963   1.467   8.369 -0.1601  0.3918  0.3661
    9SAPS  H13X 1180   5.065   1.493   8.334 -0.4492  0.8174 -0.1950
    9SAPS  H13Y 1181   4.977   1.368   8.416 -0.6049  0.4427  0.6100
    9SAPS  C314 1182   4.931   1.572   8.471 -0.5282  0.0993  0.4007
    9SAPS  H14X 1183   4.846   1.627   8.424 -2.0951 -0.6162  2.2642
    9SAPS  H14Y 1184   5.004   1.651   8.498  0.8628 -1.1393  0.3915
    9SAPS  C315 1185   4.873   1.503   8.598 -0.2405 -0.1397  0.2692
    9SAPS  H15X 1186   4.865   1.580   8.678  3.0243 -1.5448  2.1532
    9SAPS  H15Y 1187   4.951   1.428   8.625  0.5214 -0.2866 -2.1039
    9SAPS  C316 1188   4.741   1.436   8.593  0.7034 -0.2497  0.3163
    9SAPS  H16X 1189   4.732   1.367   8.507 -2.8243  2.6071 -1.9074
    9SAPS  H16Y 1190   4.670   1.519   8.575  0.1348 -0.8133 -0.0576
    9SAPS  C317 1191   4.705   1.366   8.723 -0.7308 -0.3038  0.0930
    9SAPS  H17X 1192   4.791   1.300   8.747 -0.8153  0.3155  2.2942
    9SAPS  H17Y 1193   4.612   1.306   8.716 -0.4902 -0.8000  1.0362
    9SAPS  C318 1194   4.686   1.451   8.850  0.8188  0.9084  0.2821
    9SAPS  H18X 1195   4.608   1.530   8.838 -0.8102 -0.5103  1.1313
    9SAPS  H18Y 1196   4.782   1.501   8.876  2.1054 -1.3031  0.0254
    9SAPS  H18Z 1197   4.659   1.395   8.942 -2.6232  1.8680  0.0080
   10SAPS     N 1198   3.942   1.550   6.256  0.1036 -0.0843  0.1686
   10SAPS   HN1 1199   4.014   1.559   6.182  0.5166  0.8792  0.6742
   10SAPS   HN2 1200   3.882   1.634   6.243  0.4947  0.7422  2.9781
   10SAPS   HN3 1201   3.997   1.558   6.344  1.7426 -0.6644 -0.7505
   10SAPS   C12 1202   3.869   1.422   6.216  0.1380 -0.2714  0.4972
   10SAPS  H12A 1203   3.785   1.402   6.281 -0.8524 -0.0878 -0.6931
   10SAPS   C13 1204   3.801   1.439   6.079  0.5176  0.0014 -0.0547
   10SAPS  O13A 1205   3.827   1.541   6.010  0.2404  0.0385  0.3675
   10SAPS  O13B 1206   3.731   1.341   6.035  0.4774  0.1247  0.3402
   10SAPS   C11 1207   3.968   1.296   6.212 -0.6588  0.4178 -0.5706
   10SAPS  H11A 1208   4.053   1.328   6.147  0.9017 -2.3436 -0.0161
   10SAPS  H11B 1209   3.930   1.210   6.153 -0.3366 -0.0654 -0.0749
   10SAPS     P 1210   3.945   1.152   6.425  0.1073  0.3238  0.0594
   10SAPS   O13 1211   3.802   1.154   6.392 -0.3074 -0.0191 -0.3314
   10SAPS   O14 1212   4.004   1.020   6.410 -0.0686 -0.1747 -0.5099
   10SAPS   O12 1213   4.026   1.257   6.338 -0.4039  0.0711  0.3961
   10SAPS   O11 1214   3.966   1.214   6.575 -0.3740 -0.3300  0.5164
   10SAPS    C1 1215   4.108   1.237   6.617  0.9234 -0.4479  0.4531
   10SAPS    HA 1216   4.178   1.239   6.531 -1.0056 -1.9955 -1.2599
   10SAPS    HB 1217   4.119   1.330   6.676 -2.2095  0.1880  0.1719
   10SAPS    C2 1218   4.158   1.112   6.702 -0.3776  0.0992  0.6111
   10SAPS    HS 1219   4.140   1.031   6.628  0.3061  0.2561  0.2668
   10SAPS   O21 1220   4.076   1.107   6.823 -0.3498  0.2434 -0.1247
   10SAPS   C21 1221   4.045   0.991   6.871  0.1291 -0.0851 -0.0490
   10SAPS   O22 1222   4.067   0.884   6.811  0.0230  0.2959  0.5822
   10SAPS   C22 1223   3.973   1.000   7.010 -0.1283 -0.4236  0.0332
   10SAPS   H2R 1224   4.042   1.067   7.066 -0.0684  0.1106 -0.6676
   10SAPS   H2S 1225   3.879   1.054   6.987 -0.6000 -0.9096  0.7731
   10SAPS    C3 1226   4.312   1.125   6.734 -0.2642  0.6482  0.3380
   10SAPS    HX 1227   4.338   1.222   6.782  2.1618 -0.1228  0.7598
   10SAPS    HY 1228   4.359   1.138   6.634 -0.3875  2.9377  0.5186
   10SAPS   O31 1229   4.373   1.003   6.788 -0.2377 -0.1222  0.7273
   10SAPS   C31 1230   4.380   0.996   6.913  0.2888 -0.0111 -0.6433
   10SAPS   O32 1231   4.337   1.073   7.002  0.3462  0.1388 -0.8080
   10SAPS   C32 1232   4.449   0.868   6.946  0.7966 -0.8677  0.2092
   10SAPS   H2X 1233   4.540   0.852   6.884  1.4719  0.8632  0.6830
   10SAPS   H2Y 1234   4.385   0.780   6.924 -1.8240  1.2948 -1.4226
   10SAPS   C23 1235   3.963   0.862   7.087 -0.6737 -0.4491  0.1308
   10SAPS   H3R 1236   3.910   0.793   7.018 -2.4891  0.6946  0.3219
   10SAPS   H3S 1237   3.907   0.870   7.183  0.4563  0.4157  0.7513
   10SAPS   C24 1238   4.099   0.809   7.117  0.3677  0.0115 -0.2998
   10SAPS   H4R 1239   4.156   0.880   7.180 -0.0398  1.7833 -1.8487
   10SAPS   H4S 1240   4.164   0.797   7.027 -0.9847 -0.4889 -1.2380
   10SAPS   C25 1241   4.098   0.666   7.169 -0.5303 -0.7335  0.0504
   10SAPS   H5R 1242   4.088   0.594   7.086 -1.1042  2.5410 -2.9351
   10SAPS   C26 1243   4.103   0.621   7.299  0.1755 -0.0973 -0.0625
   10SAPS   H6R 1244   4.117   0.513   7.319 -0.2138 -0.0398  0.5352
   10SAPS   C27 1245   4.099   0.713   7.417  0.2317  0.9500  0.2308
   10SAPS   H7R 1246   3.992   0.727   7.444  0.3363 -0.4847  1.5842
   10SAPS   H7S 1247   4.145   0.814   7.406  1.8121  0.1418 -1.1365
   10SAPS   C28 1248   4.162   0.647   7.538 -0.7638 -0.1607  0.3915
   10SAPS   H8R 1249   4.266   0.612   7.526 -0.4301  0.6364  0.8830
   10SAPS   C29 1250   4.108   0.626   7.658  0.3465 -0.0714  0.3508
   10SAPS   H9R 1251   4.177   0.591   7.737  0.4790 -2.0358 -0.5924
   10SAPS  C210 1252   3.976   0.668   7.709  1.0714 -0.6234 -0.3697
   10SAPS  H10R 1253   3.907   0.581   7.705 -2.0549  1.5816  0.6676
   10SAPS  H10S 1254   3.919   0.735   7.641 -2.3210 -0.3649  2.3950
   10SAPS  C211 1255   3.969   0.729   7.848  0.6595 -0.6696 -1.0626
   10SAPS  H11R 1256   4.065   0.718   7.902  0.4142 -2.7934 -0.9466
   10SAPS  C212 1257   3.855   0.787   7.904  0.7398 -0.1467  0.4925
   10SAPS  H12R 1258   3.865   0.834   8.003  0.2388 -0.1280  0.5364
   10SAPS  C213 1259   3.717   0.809   7.836 -0.2051  0.0867  0.4985
   10SAPS  H13R 1260   3.718   0.859   7.737 -0.4669  0.3190  0.6132
   10SAPS  H13S 1261   3.661   0.885   7.894 -0.8549 -0.6815  0.8938
   10SAPS  C214 1262   3.631   0.691   7.818 -0.9303  0.2171 -0.1683
   10SAPS  H14R 1263   3.672   0.608   7.759 -1.9227  0.2519 -0.9346
   10SAPS  C215 1264   3.518   0.669   7.885  0.7080 -0.0717  1.0091
   10SAPS  H15R 1265   3.464   0.578   7.853  0.9393 -0.0672  0.6060
   10SAPS  C216 1266   3.446   0.768   7.974  0.3315  0.6021 -0.4348
   10SAPS  H16R 1267   3.339   0.763   7.944  0.4619  1.4465 -1.1017
   10SAPS  H16S 1268   3.464   0.875   7.948  1.7216  0.5671  0.3145
   10SAPS  C217 1269   3.453   0.721   8.126  0.4379  0.0970 -1.0118
   10SAPS  H17R 1270   3.554   0.739   8.169 -1.7680  0.8564  4.7049
   10SAPS  H17S 1271   3.438   0.611   8.132 -2.6064  0.4857  0.0587
   10SAPS  C218 1272   3.345   0.788   8.202 -0.3485 -0.4439  0.3857
   10SAPS  H18R 1273   3.250   0.746   8.161  0.3733 -3.2929  1.4036
   10SAPS  H18S 1274   3.355   0.894   8.170  2.6762 -1.1020 -1.1667
   10SAPS  C219 1275   3.347   0.789   8.351 -1.1645 -0.1518 -0.3171
   10SAPS  H19R 1276   3.242   0.809   8.383 -1.2311  1.9082 -1.6559
   10SAPS  H19S 1277   3.404   0.873   8.395 -0.3346  0.5510 -2.5998
   10SAPS  C220 1278   3.385   0.657   8.415 -0.0347 -0.2180  0.8045
   10SAPS  H20R 1279   3.377   0.667   8.525  2.1036  0.5755  0.9315
   10SAPS  H20S 1280   3.487   0.622   8.388  0.0728  0.4745  0.2917
   10SAPS  H20T 1281   3.318   0.577   8.377  1.3798 -0.9171 -0.3117
   10SAPS   C33 1282   4.502   0.860   7.091  0.0775  0.5884 -0.0864
   10SAPS   H3X 1283   4.534   0.754   7.094  1.5708  0.9822 -1.1576
   10SAPS   H3Y 1284   4.422   0.876   7.167 -0.2003 -1.1318  0.0224
   10SAPS   C34 1285   4.637   0.934   7.127  0.2318  0.4468  0.5348
   10SAPS   H4X 1286   4.622   1.044   7.122 -0.4180  0.3069 -2.2756
   10SAPS   H4Y 1287   4.715   0.906   7.053 -0.7805 -0.4610 -0.2116
   10SAPS   C35 1288   4.701   0.889   7.264 -0.3330 -0.3060  0.1788
   10SAPS   H5X 1289   4.788   0.955   7.283 -0.5651 -0.1654  0.7846
   10SAPS   H5Y 1290   4.741   0.785   7.273  3.0720  0.9826  1.3106
   10SAPS   C36 1291   4.602   0.905   7.380 -0.3141 -0.6430  0.2445
   10SAPS   H6X 1292   4.528   0.822   7.383 -0.8929 -0.1215  1.3627
   10SAPS   H6Y 1293   4.543   0.997   7.364 -0.2773 -0.1842  2.4207
   10SAPS   C37 1294   4.665   0.914   7.521  0.1754 -0.3825  0.3612
   10SAPS   H7X 1295   4.742   0.993   7.520  1.4137 -1.5430  1.0771
   10SAPS   H7Y 1296   4.707   0.812   7.534 -0.9605 -0.8636  0.4164
   10SAPS   C38 1297   4.563   0.940   7.645  0.3526 -0.8540  0.0096
   10SAPS   H8X 1298   4.479   0.868   7.635 -0.7384  0.3020  0.5089
   10SAPS   H8Y 1299   4.532   1.046   7.631  2.1710  0.3406  3.7285
   10SAPS   C39 1300   4.616   0.920   7.787  0.6270  0.3469 -0.3364
   10SAPS   H9X 1301   4.716   0.966   7.770 -0.3073  2.3660 -0.6800
   10SAPS   H9Y 1302   4.622   0.811   7.804 -1.8322 -0.1619 -2.1869
   10SAPS  C310 1303   4.541   0.996   7.898 -0.8819 -0.0052  0.0454
   10SAPS  H10X 1304   4.439   0.955   7.912 -1.1335  0.4984 -0.2790
   10SAPS  H10Y 1305   4.519   1.100   7.867 -3.0895 -0.4214  0.0766
   10SAPS  C311 1306   4.624   0.991   8.022  0.1441  0.1421  0.1585
   10SAPS  H11X 1307   4.717   1.044   7.992  0.6794 -0.2375  1.0670
   10SAPS  H11Y 1308   4.642   0.882   8.036  1.3988  0.1523 -1.2129
   10SAPS  C312 1309   4.557   1.054   8.148  0.6115  0.1881  0.1175
   10SAPS  H12X 1310   4.457   1.007   8.161  0.8798 -0.3918  0.1581
   10SAPS  H12Y 1311   4.537   1.161   8.126  2.9219  1.7400  4.4788
   10SAPS  C313 1312   4.644   1.055   8.271  0.0172 -0.2063 -0.7403
   10SAPS  H13X 1313   4.614   1.143   8.333  2.1850 -1.5679  2.5615
   10SAPS  H13Y 1314   4.752   1.057   8.243  0.6932  1.7174  1.6148
   10SAPS  C314 1315   4.623   0.938   8.361  0.3104  0.6060  0.3991
   10SAPS  H14X 1316   4.650   0.852   8.296 -0.7638  0.1808  0.4961
   10SAPS  H14Y 1317   4.518   0.926   8.396  0.2227  1.3244  0.4094
   10SAPS  C315 1318   4.701   0.933   8.487 -0.7005 -0.1278  0.3374
   10SAPS  H15X 1319   4.694   1.031   8.538  0.5747  1.0056 -1.5532
   10SAPS  H15Y 1320   4.810   0.931   8.464 -0.5423  2.5642  0.5431
   10SAPS  C316 1321   4.668   0.816   8.574  0.1816 -0.6651  0.2560
   10SAPS  H16X 1322   4.709   0.724   8.527  0.0117 -0.8845  0.5350
   10SAPS  H16Y 1323   4.558   0.812   8.590  0.1288  1.4532  0.6646
   10SAPS  C317 1324   4.742   0.837   8.708  0.4576 -0.3317  0.0566
   10SAPS  H17X 1325   4.847   0.855   8.676 -0.2253  1.1793 -1.4900
   10SAPS  H17Y 1326   4.743   0.739   8.759 -1.3933 -1.3619 -1.7495
   10SAPS  C318 1327   4.699   0.953   8.803  0.0590  0.8128 -0.0827
   10SAPS  H18X 1328   4.644   0.908   8.889  1.2756 -1.4412 -0.4020
   10SAPS  H18Y 1329   4.632   1.025   8.752  0.2390 -0.2627 -1.9399
   10SAPS  H18Z 1330   4.786   1.011   8.839 -0.7564  0.8506  1.9903
   11SAPS     N 1331   0.934   4.443   5.513  0.0033 -0.3612  0.3508
   11SAPS   HN1 1332   0.984   4.401   5.594  0.1770 -0.6720  0.0869
   11SAPS   HN2 1333   0.882   4.366   5.466 -0.0447  0.1592 -0.4768
   11SAPS   HN3 1334   0.999   4.480   5.441 -0.2227 -1.9348 -0.7237
   11SAPS   C12 1335   0.842   4.551   5.571  0.1328  1.0049 -0.6684
   11SAPS  H12A 1336   0.891   4.628   5.629  2.3273 -1.2129  0.6209
   11SAPS   C13 1337   0.756   4.634   5.468  0.5811 -0.2368  0.3745
   11SAPS  O13A 1338   0.791   4.634   5.347  0.0592  0.7163  0.3580
   11SAPS  O13B 1339   0.659   4.704   5.505 -0.8342  0.2941 -0.0711
   11SAPS   C11 1340   0.748   4.467   5.664  0.4358  0.1553 -0.0577
   11SAPS  H11A 1341   0.671   4.407   5.611  0.1363 -1.3792  1.9794
   11SAPS  H11B 1342   0.686   4.538   5.723 -0.9890  0.0002 -1.3012
   11SAPS     P 1343   0.754   4.295   5.857  0.1363 -0.2563 -0.3520
   11SAPS   O13 1344   0.698   4.182   5.782 -0.9289 -0.3494 -0.0313
   11SAPS   O14 1345   0.846   4.260   5.962  0.1463  0.4112 -0.5751
   11SAPS   O12 1346   0.830   4.390   5.753 -0.5797  0.1635 -0.2768
   11SAPS   O11 1347   0.641   4.391   5.916 -0.1067 -0.2090 -0.1169
   11SAPS    C1 1348   0.670   4.505   6.000 -0.5361 -0.1292  0.5045
   11SAPS    HA 1349   0.773   4.545   5.990 -0.5136 -0.2980  0.0839
   11SAPS    HB 1350   0.604   4.583   5.957  1.0874  0.5240 -0.8963
   11SAPS    C2 1351   0.627   4.479   6.148 -0.6894 -0.0741 -0.3913
   11SAPS    HS 1352   0.597   4.573   6.200 -1.3268 -0.7011  0.4135
   11SAPS   O21 1353   0.725   4.400   6.213  0.0351 -0.2329 -0.2866
   11SAPS   C21 1354   0.831   4.473   6.256 -0.0111 -0.3615 -0.0496
   11SAPS   O22 1355   0.849   4.588   6.227  0.2948 -0.2132  0.1474
   11SAPS   C22 1356   0.920   4.391   6.341 -0.7491 -0.0799 -0.0825
   11SAPS   H2R 1357   0.873   4.295   6.371 -0.8891  0.7369  2.5530
   11SAPS   H2S 1358   1.012   4.367   6.284 -0.4737 -1.8557  1.0406
   11SAPS    C3 1359   0.490   4.400   6.148 -0.2360 -0.1570 -0.0801
   11SAPS    HX 1360   0.506   4.308   6.088 -1.6025  0.3624 -1.3020
   11SAPS    HY 1361   0.425   4.460   6.081  0.6466 -0.7459 -1.4981
   11SAPS   O31 1362   0.425   4.378   6.274 -0.6528 -0.2475 -0.0544
   11SAPS   C31 1363   0.470   4.273   6.339 -0.8127 -0.3976 -0.5655
   11SAPS   O32 1364   0.542   4.188   6.291  0.0585  0.4205  0.1185
   11SAPS   C32 1365   0.415   4.276   6.483 -0.4492  0.2488 -0.1304
   11SAPS   H2X 1366   0.325   4.340   6.487  1.0748  2.6513 -1.8256
   11SAPS   H2Y 1367   0.498   4.317   6.546  0.8677  1.8870 -2.7855
   11SAPS   C23 1368   0.959   4.463   6.474 -0.1856 -0.3490 -0.0213
   11SAPS   H3R 1369   1.016   4.558   6.461  1.5933 -1.0298  2.2980
   11SAPS   H3S 1370   1.038   4.400   6.519  1.6490  1.0627 -1.1177
   11SAPS   C24 1371   0.838   4.486   6.557 -0.3814  0.1647 -0.3459
   11SAPS   H4R 1372   0.762   4.542   6.498 -0.7614 -0.8600 -0.8586
   11SAPS   H4S 1373   0.879   4.562   6.627 -0.1298  0.1001 -0.4229
   11SAPS   C25 1374   0.773   4.381   6.638  0.4700  0.9216  0.0463
   11SAPS   H5R 1375   0.737   4.296   6.578 -0.5462  1.5122 -0.2073
   11SAPS   C26 1376   0.781   4.360   6.771 -0.4370 -0.6699  0.0065
   11SAPS   H6R 1377   0.733   4.278   6.826 -1.8389  1.9108  2.9126
   11SAPS   C27 1378   0.852   4.453   6.866  0.3795 -0.4808 -0.4165
   11SAPS   H7R 1379   0.782   4.453   6.951  0.5762 -0.4810 -0.2530
   11SAPS   H7S 1380   0.851   4.559   6.833  0.3624 -0.5979 -0.8073
   11SAPS   C28 1381   0.994   4.417   6.916 -0.6302  0.2014 -0.0644
   11SAPS   H8R 1382   1.076   4.424   6.843  0.0665  3.2316  0.8913
   11SAPS   C29 1383   1.026   4.355   7.039 -0.2644 -0.2316  0.0932
   11SAPS   H9R 1384   1.129   4.326   7.064  1.0059  3.0820 -0.7612
   11SAPS  C210 1385   0.935   4.327   7.162  0.1895 -0.1273 -0.3369
   11SAPS  H10R 1386   0.841   4.386   7.159  1.2111  1.5302 -2.2512
   11SAPS  H10S 1387   0.990   4.368   7.250  0.4473  0.6590 -0.8518
   11SAPS  C211 1388   0.908   4.174   7.180  0.4937 -0.2796  0.2336
   11SAPS  H11R 1389   0.877   4.125   7.086 -2.4629 -1.1453  1.5236
   11SAPS  C212 1390   0.907   4.096   7.292  0.2720  0.5417  0.5781
   11SAPS  H12R 1391   0.889   3.988   7.279 -2.2627  0.9673 -0.0469
   11SAPS  C213 1392   0.927   4.139   7.430 -0.4224 -0.4565  0.0834
   11SAPS  H13R 1393   0.909   4.248   7.441 -1.2890 -0.6649  0.9884
   11SAPS  H13S 1394   1.035   4.118   7.446 -1.0470 -2.6011  2.2728
   11SAPS  C214 1395   0.844   4.065   7.536 -0.2251  0.2899  0.4299
   11SAPS  H14R 1396   0.757   4.007   7.501  1.0269 -1.3815 -0.0719
   11SAPS  C215 1397   0.880   4.047   7.666  0.4302 -0.5238 -0.5154
   11SAPS  H15R 1398   0.806   3.995   7.729 -0.2273 -0.2784 -1.0766
   11SAPS  C216 1399   1.008   4.105   7.724  0.6665 -0.1023 -0.2726
   11SAPS  H16R 1400   1.048   4.189   7.664 -1.1460  0.4798 -0.7454
   11SAPS  H16S 1401   1.088   4.031   7.742 -1.5043 -2.1939  1.5394
   11SAPS  C217 1402   0.973   4.175   7.858 -0.0867  0.4890 -0.4144
   11SAPS  H17R 1403   0.880   4.234   7.848 -0.7713 -0.6248 -0.8584
   11SAPS  H17S 1404   1.061   4.233   7.892  1.3331 -2.0523  0.5277
   11SAPS  C218 1405   0.945   4.082   7.969  0.1256 -0.7196  0.2134
   11SAPS  H18R 1406   1.036   4.032   8.008 -0.6994 -1.3153  1.4149
   11SAPS  H18S 1407   0.873   4.001   7.947 -0.7403 -0.2989  1.4113
   11SAPS  C219 1408   0.886   4.155   8.090 -0.1723 -0.2198  0.0544
   11SAPS  H19R 1409   0.777   4.176   8.088 -0.1414 -0.0733 -1.8762
   11SAPS  H19S 1410   0.951   4.244   8.100  0.6612 -0.7798 -0.3023
   11SAPS  C220 1411   0.905   4.061   8.212  0.0063  0.0789 -0.8104
   11SAPS  H20R 1412   0.876   4.107   8.308 -1.9346 -0.2288 -1.2021
   11SAPS  H20S 1413   1.008   4.021   8.227 -0.5113 -1.0638 -0.1309
   11SAPS  H20T 1414   0.835   3.975   8.198  0.0072 -0.0309 -0.1510
   11SAPS   C33 1415   0.379   4.137   6.546 -0.0272 -0.6518  0.5203
   11SAPS   H3X 1416   0.470   4.074   6.542  1.5331  1.4809  0.6967
   11SAPS   H3Y 1417   0.297   4.096   6.483  1.0287  0.1448 -1.4706
   11SAPS   C34 1418   0.321   4.152   6.690 -0.8406  0.4178 -0.6496
   11SAPS   H4X 1419   0.251   4.067   6.706  0.4887 -0.8686 -1.4579
   11SAPS   H4Y 1420   0.256   4.242   6.692 -0.2793  0.8338 -0.9662
   11SAPS   C35 1421   0.417   4.160   6.808  0.0912 -0.0205 -0.0779
   11SAPS   H5X 1422   0.471   4.256   6.795  1.3561 -0.6288  0.5133
   11SAPS   H5Y 1423   0.490   4.076   6.812 -1.7526 -1.6491  2.0888
   11SAPS   C36 1424   0.352   4.169   6.948 -0.7486 -0.1236  0.0319
   11SAPS   H6X 1425   0.315   4.076   6.995 -0.4529  1.8531  4.6547
   11SAPS   H6Y 1426   0.268   4.241   6.934  0.2923  0.8456 -1.6799
   11SAPS   C37 1427   0.452   4.222   7.056 -0.1926 -0.0776 -0.0283
   11SAPS   H7X 1428   0.487   4.323   7.029 -0.1291 -1.0761 -4.3199
   11SAPS   H7Y 1429   0.536   4.151   7.075 -2.3252 -2.7529  0.0575
   11SAPS   C38 1430   0.373   4.227   7.187 -0.0247 -0.5928 -0.2133
   11SAPS   H8X 1431   0.330   4.125   7.200 -2.5415  0.3223 -0.7873
   11SAPS   H8Y 1432   0.287   4.298   7.184  0.2392 -0.1237  1.7290
   11SAPS   C39 1433   0.463   4.281   7.302 -0.5378 -0.1523  0.4701
   11SAPS   H9X 1434   0.488   4.385   7.271  0.2062 -0.4248  0.1330
   11SAPS   H9Y 1435   0.558   4.224   7.292 -0.2502  0.5598 -1.3727
   11SAPS  C310 1436   0.397   4.275   7.433 -1.1139 -0.3292 -0.2034
   11SAPS  H10X 1437   0.294   4.315   7.442 -2.2883 -2.7536 -1.7022
   11SAPS  H10Y 1438   0.460   4.338   7.499 -1.0585  0.4416 -0.9860
   11SAPS  C311 1439   0.380   4.134   7.483  0.6130  0.3848 -0.2038
   11SAPS  H11X 1440   0.466   4.064   7.479  1.5068  1.4865 -0.5014
   11SAPS  H11Y 1441   0.296   4.093   7.422 -1.3081  2.6424  0.7287
   11SAPS  C312 1442   0.328   4.126   7.628  0.1893 -0.6202 -0.2897
   11SAPS  H12X 1443   0.310   4.020   7.655  3.8102 -1.6546 -1.3574
   11SAPS  H12Y 1444   0.228   4.175   7.630  1.0982  1.4912 -2.0186
   11SAPS  C313 1445   0.417   4.193   7.739 -0.1142  0.0113 -0.2578
   11SAPS  H13X 1446   0.418   4.302   7.718  1.1201  0.2982  1.1214
   11SAPS  H13Y 1447   0.523   4.160   7.726 -0.0577  0.2440 -0.3942
   11SAPS  C314 1448   0.379   4.165   7.889  0.2188  0.5763  0.1433
   11SAPS  H14X 1449   0.334   4.063   7.896 -0.1162  0.6249 -1.0847
   11SAPS  H14Y 1450   0.292   4.232   7.906 -0.3126  0.1057 -0.6472
   11SAPS  C315 1451   0.487   4.204   7.988 -0.4148 -0.3532  0.1432
   11SAPS  H15X 1452   0.520   4.308   7.962 -0.2527 -0.2697  0.6696
   11SAPS  H15Y 1453   0.579   4.146   7.968 -0.9664 -1.5221  0.9211
   11SAPS  C316 1454   0.450   4.195   8.133  0.9292 -0.4692 -0.6061
   11SAPS  H16X 1455   0.543   4.200   8.194  0.6913 -1.2887 -0.1610
   11SAPS  H16Y 1456   0.414   4.091   8.151  0.4980  0.1195  2.3902
   11SAPS  C317 1457   0.345   4.297   8.175 -0.0585 -0.0836  1.1496
   11SAPS  H17X 1458   0.335   4.308   8.285 -1.6848  0.0209  1.0166
   11SAPS  H17Y 1459   0.247   4.264   8.133  0.3126 -0.1668  0.3343
   11SAPS  C318 1460   0.360   4.440   8.122 -0.1682 -0.1841  0.2398
   11SAPS  H18X 1461   0.389   4.454   8.015 -3.9292 -1.5488 -1.1227
   11SAPS  H18Y 1462   0.434   4.492   8.186  0.7709 -0.6434 -0.4432
   11SAPS  H18Z 1463   0.262   4.491   8.131  1.1733  2.4015  1.0924
   12SAPS     N 1464   2.154   4.675   6.059  0.4810  0.0727 -0.4625
   12SAPS   HN1 1465   2.107   4.677   6.152  3.2578 -0.1403  1.0378
   12SAPS   HN2 1466   2.189   4.579   6.043  0.5953  0.0251  0.0767
   12SAPS   HN3 1467   2.235   4.736   6.082  2.1154 -2.7495  1.8054
   12SAPS   C12 1468   2.077   4.721   5.942 -0.0272 -0.9153  0.4459
   12SAPS  H12A 1469   2.147   4.740   5.862  0.3434  0.3349  1.0321
   12SAPS   C13 1470   1.954   4.638   5.898 -0.6186 -0.3815  0.0308
   12SAPS  O13A 1471   1.932   4.533   5.963 -0.7283  0.1308 -0.4627
   12SAPS  O13B 1472   1.873   4.679   5.805  0.0370 -0.0414 -0.1319
   12SAPS   C11 1473   2.015   4.867   5.954 -1.4581 -0.0978  0.1415
   12SAPS  H11A 1474   1.945   4.862   6.040  0.0266  0.5872  1.4333
   12SAPS  H11B 1475   1.964   4.884   5.857 -1.2250 -3.1764 -0.6423
   12SAPS     P 1476   2.079   5.104   5.996 -0.3626  0.5567 -0.1724
   12SAPS   O13 1477   2.200   5.174   6.039  0.3417 -0.1080 -0.4103
   12SAPS   O14 1478   2.007   5.139   5.871 -0.4404  0.0073 -0.6857
   12SAPS   O12 1479   2.124   4.960   5.980 -0.5478  0.2369 -0.2299
   12SAPS   O11 1480   1.976   5.098   6.122  0.5297  0.1878 -0.6261
   12SAPS    C1 1481   2.034   5.095   6.253  0.1123 -0.3445  0.2929
   12SAPS    HA 1482   2.123   5.029   6.258 -0.6514 -1.3519  1.1141
   12SAPS    HB 1483   2.054   5.200   6.283  1.7069  0.2772 -2.6446
   12SAPS    C2 1484   1.937   5.028   6.351  0.3975  0.3734 -0.6165
   12SAPS    HS 1485   1.911   4.931   6.304  2.6176 -0.6538  0.1260
   12SAPS   O21 1486   1.830   5.112   6.385 -0.0399  0.0420 -0.5503
   12SAPS   C21 1487   1.702   5.066   6.396 -0.1885 -0.1318  0.3093
   12SAPS   O22 1488   1.668   4.952   6.385  0.3842  0.1781 -0.2794
   12SAPS   C22 1489   1.620   5.189   6.423  0.5991 -0.9815 -0.6778
   12SAPS   H2R 1490   1.638   5.230   6.525  0.2315  0.6711 -1.2431
   12SAPS   H2S 1491   1.648   5.273   6.356  0.2388 -0.5226 -0.2717
   12SAPS    C3 1492   2.015   4.984   6.480 -0.1031 -0.3888  0.1376
   12SAPS    HX 1493   2.081   5.062   6.523  1.3643 -2.9610  2.8822
   12SAPS    HY 1494   2.076   4.894   6.459 -0.3045 -0.4047 -0.3700
   12SAPS   O31 1495   1.927   4.968   6.597  0.3115  0.1027  0.4330
   12SAPS   C31 1496   1.872   4.842   6.591  0.0749 -0.0138 -0.4376
   12SAPS   O32 1497   1.881   4.762   6.497 -0.0089  0.4498 -0.0912
   12SAPS   C32 1498   1.820   4.818   6.734 -0.3082  0.7178 -0.4170
   12SAPS   H2X 1499   1.735   4.887   6.757 -0.6249 -0.2838  1.7232
   12SAPS   H2Y 1500   1.907   4.835   6.801  0.8228 -1.4393 -1.2474
   12SAPS   C23 1501   1.463   5.170   6.414  0.1265 -0.8451 -0.4875
   12SAPS   H3R 1502   1.424   5.149   6.515 -1.6707  1.0782 -0.7102
   12SAPS   H3S 1503   1.437   5.079   6.355  1.5031 -0.4225 -1.8140
   12SAPS   C24 1504   1.386   5.285   6.344 -0.0322  0.1451 -0.0978
   12SAPS   H4R 1505   1.302   5.236   6.290 -1.3079  1.6349  0.4669
   12SAPS   H4S 1506   1.445   5.332   6.262 -1.1695 -0.0875 -1.0836
   12SAPS   C25 1507   1.362   5.405   6.436  0.6602  0.5931 -0.8060
   12SAPS   H5R 1508   1.457   5.437   6.482  2.4009 -1.4111 -2.7250
   12SAPS   C26 1509   1.242   5.456   6.462 -0.1441 -0.4420  0.3670
   12SAPS   H6R 1510   1.226   5.549   6.520 -1.2318 -0.3197 -0.0908
   12SAPS   C27 1511   1.106   5.406   6.413  0.2792  0.3833  0.1340
   12SAPS   H7R 1512   1.041   5.382   6.499 -1.1783 -0.2167 -1.0778
   12SAPS   H7S 1513   1.123   5.313   6.355  2.9954  3.0196 -3.8708
   12SAPS   C28 1514   1.046   5.500   6.315 -0.6298  0.1440 -0.7986
   12SAPS   H8R 1515   1.106   5.513   6.224  0.6262  0.6425  0.0674
   12SAPS   C29 1516   0.918   5.533   6.319  0.1301  0.2654  0.3027
   12SAPS   H9R 1517   0.873   5.594   6.240  0.1502 -0.0178  0.0737
   12SAPS  C210 1518   0.811   5.490   6.421 -0.4789 -0.0966  0.3092
   12SAPS  H10R 1519   0.833   5.550   6.512  0.1529 -0.1685  0.2148
   12SAPS  H10S 1520   0.835   5.385   6.449  0.4385 -0.4248 -1.4837
   12SAPS  C211 1521   0.674   5.521   6.361  0.7751  0.0225 -0.3394
   12SAPS  H11R 1522   0.649   5.474   6.264  2.3118 -1.9245  0.1536
   12SAPS  C212 1523   0.575   5.595   6.408  0.1770 -0.3088 -0.0461
   12SAPS  H12R 1524   0.479   5.606   6.357 -0.5416 -0.5855  1.2108
   12SAPS  C213 1525   0.566   5.659   6.548  0.2222 -0.1646  0.3239
   12SAPS  H13R 1526   0.588   5.580   6.623  4.1448  1.8825  1.6496
   12SAPS  H13S 1527   0.460   5.685   6.571  0.2392  0.4830 -0.3055
   12SAPS  C214 1528   0.650   5.780   6.591  0.0677  0.7820 -0.0559
   12SAPS  H14R 1529   0.609   5.865   6.535 -2.1392  0.8256  1.4953
   12SAPS  C215 1530   0.750   5.792   6.690  0.2685  0.1132 -0.1615
   12SAPS  H15R 1531   0.790   5.894   6.702  0.4937  0.0324 -0.2386
   12SAPS  C216 1532   0.806   5.671   6.771 -0.1083 -0.2114 -0.2423
   12SAPS  H16R 1533   0.769   5.568   6.747 -1.3572  0.1232  0.1400
   12SAPS  H16S 1534   0.789   5.681   6.880  2.3693 -0.1849  0.1801
   12SAPS  C217 1535   0.954   5.688   6.763 -0.6923  0.0976  0.3720
   12SAPS  H17R 1536   0.980   5.788   6.802 -0.1003  0.0733  0.0510
   12SAPS  H17S 1537   0.984   5.685   6.656 -4.5242  3.5556 -1.0721
   12SAPS  C218 1538   1.039   5.590   6.846  0.0417 -0.7298  0.4226
   12SAPS  H18R 1539   1.143   5.628   6.848 -0.8591  2.0690 -1.2175
   12SAPS  H18S 1540   1.028   5.496   6.787 -2.7512 -0.2681  0.0452
   12SAPS  C219 1541   0.994   5.577   6.997  0.0636  0.1048 -0.2294
   12SAPS  H19R 1542   0.890   5.537   6.994  0.8322 -1.9686 -0.7227
   12SAPS  H19S 1543   0.989   5.673   7.054 -0.9033 -0.3515  0.4865
   12SAPS  C220 1544   1.087   5.503   7.091  0.7945 -0.0943 -0.4213
   12SAPS  H20R 1545   1.039   5.462   7.182  3.1032 -1.7822  0.1424
   12SAPS  H20S 1546   1.165   5.572   7.130 -0.2493 -0.1304  1.9239
   12SAPS  H20T 1547   1.130   5.416   7.037  0.0767 -0.5906 -0.1962
   12SAPS   C33 1548   1.771   4.668   6.746 -1.0645 -0.1313 -0.0178
   12SAPS   H3X 1549   1.844   4.588   6.722 -1.8928 -1.0118  0.3554
   12SAPS   H3Y 1550   1.700   4.655   6.662 -1.3412 -1.4385  0.3945
   12SAPS   C34 1551   1.719   4.633   6.884 -0.1005 -0.2869  0.6326
   12SAPS   H4X 1552   1.786   4.651   6.971  0.9024 -0.6729 -0.0342
   12SAPS   H4Y 1553   1.712   4.522   6.882  0.8006 -0.3496 -0.7380
   12SAPS   C35 1554   1.580   4.693   6.921 -0.2761  0.2888  0.1373
   12SAPS   H5X 1555   1.515   4.654   6.840  0.8916  0.5991 -0.9759
   12SAPS   H5Y 1556   1.579   4.804   6.916 -1.8374  0.2888  0.0075
   12SAPS   C36 1557   1.530   4.652   7.060  0.2758  0.0442  0.4909
   12SAPS   H6X 1558   1.596   4.694   7.139 -2.8297  2.7021  1.9539
   12SAPS   H6Y 1559   1.524   4.542   7.075 -1.0178  0.0169 -0.1087
   12SAPS   C37 1560   1.389   4.714   7.076  0.1752 -0.2925  0.0868
   12SAPS   H7X 1561   1.322   4.673   6.997 -1.1067 -1.8475  1.8891
   12SAPS   H7Y 1562   1.395   4.824   7.059  2.0146 -0.4142 -0.2469
   12SAPS   C38 1563   1.326   4.664   7.204 -0.4072 -0.4310  0.0269
   12SAPS   H8X 1564   1.395   4.686   7.289  0.2963  0.1077 -0.6630
   12SAPS   H8Y 1565   1.325   4.554   7.192  1.4791 -0.3417 -1.5074
   12SAPS   C39 1566   1.189   4.717   7.244 -0.3153  0.4721 -0.2499
   12SAPS   H9X 1567   1.119   4.684   7.163  2.1274 -0.6903 -2.0119
   12SAPS   H9Y 1568   1.184   4.828   7.240  1.8390  0.6574  1.1258
   12SAPS  C310 1569   1.138   4.665   7.378  0.3462  0.6449 -0.9284
   12SAPS  H10X 1570   1.215   4.694   7.453 -0.5823  0.2272  0.2309
   12SAPS  H10Y 1571   1.131   4.554   7.376 -0.9920  0.6231  1.2497
   12SAPS  C311 1572   1.007   4.725   7.408 -0.2248  0.4003  0.2708
   12SAPS  H11X 1573   0.938   4.676   7.336 -0.8608 -1.6579  2.1598
   12SAPS  H11Y 1574   0.998   4.832   7.380 -1.1561  0.1872 -0.2617
   12SAPS  C312 1575   0.972   4.702   7.557 -0.5628 -0.0992 -0.3493
   12SAPS  H12X 1576   0.873   4.752   7.566 -1.2238 -0.8118 -2.7900
   12SAPS  H12Y 1577   1.045   4.753   7.623  1.1571  1.0834 -3.0164
   12SAPS  C313 1578   0.946   4.560   7.607 -0.0724  0.0569 -1.1301
   12SAPS  H13X 1579   1.000   4.479   7.555  2.8119  0.8934  0.3462
   12SAPS  H13Y 1580   0.840   4.530   7.595  0.3364 -1.1838 -1.8192
   12SAPS  C314 1581   0.960   4.546   7.758  0.1757  0.4789 -0.8751
   12SAPS  H14X 1582   1.065   4.551   7.794  0.0228  2.2425 -0.5592
   12SAPS  H14Y 1583   0.929   4.445   7.790  0.7012  0.5066 -0.2473
   12SAPS  C315 1584   0.878   4.658   7.827  0.7681 -0.2806 -0.2349
   12SAPS  H15X 1585   0.787   4.670   7.763  0.8852  1.7346 -0.0910
   12SAPS  H15Y 1586   0.938   4.751   7.823  1.8819 -0.9891 -0.5050
   12SAPS  C316 1587   0.853   4.631   7.976  0.0097 -0.1383  0.8473
   12SAPS  H16X 1588   0.797   4.715   8.021 -0.7679  1.2312 -2.3537
   12SAPS  H16Y 1589   0.952   4.634   8.024  1.4450  1.4177 -1.9442
   12SAPS  C317 1590   0.786   4.500   8.013 -0.6438  0.3265 -0.1377
   12SAPS  H17X 1591   0.873   4.432   8.000  1.8885  2.8626  2.2417
   12SAPS  H17Y 1592   0.700   4.488   7.943 -0.2721  2.5580 -1.0313
   12SAPS  C318 1593   0.733   4.500   8.158 -0.6381 -0.9068  0.1561
   12SAPS  H18X 1594   0.813   4.479   8.233 -0.7325  1.6546  1.0773
   12SAPS  H18Y 1595   0.656   4.420   8.167 -3.1944  1.3362 -0.7913
   12SAPS  H18Z 1596   0.677   4.593   8.181 -0.8622 -0.6263 -1.4145
   13SAPS     N 1597   0.399   1.960   5.942 -0.2614 -0.5788 -0.7434
   13SAPS   HN1 1598   0.369   2.003   6.032 -0.4911 -0.7813 -0.7237
   13SAPS   HN2 1599   0.502   1.972   5.929 -0.3534 -0.4097 -1.3160
   13SAPS   HN3 1600   0.352   2.005   5.861  0.6512  2.6978  0.3612
   13SAPS   C12 1601   0.392   1.817   5.941 -0.1013  0.5054 -0.5949
   13SAPS  H12A 1602   0.290   1.782   5.948 -0.4870  1.3838 -1.5005
   13SAPS   C13 1603   0.455   1.745   5.821  0.0899  0.7997  0.1573
   13SAPS  O13A 1604   0.505   1.816   5.729  0.2161  0.4186  1.0088
   13SAPS  O13B 1605   0.446   1.618   5.815  0.1367  0.2965 -0.4584
   13SAPS   C11 1606   0.466   1.761   6.069  0.6662 -0.0044  0.6313
   13SAPS  H11A 1607   0.469   1.650   6.065 -3.7275 -0.2916 -0.4063
   13SAPS  H11B 1608   0.404   1.783   6.159 -2.0299 -0.0307 -1.0997
   13SAPS     P 1609   0.720   1.753   6.130  0.1157 -0.1180  0.0286
   13SAPS   O13 1610   0.719   1.611   6.099  0.4918  0.2877  0.2385
   13SAPS   O14 1611   0.844   1.821   6.084  0.6986 -0.3464 -0.8369
   13SAPS   O12 1612   0.594   1.827   6.080  0.0160  0.1319 -0.3944
   13SAPS   O11 1613   0.704   1.776   6.284  0.2725 -0.3360 -0.2796
   13SAPS    C1 1614   0.687   1.914   6.329  0.2335  0.1585 -0.0419
   13SAPS    HA 1615   0.781   1.971   6.314 -0.3116  1.1996  0.3271
   13SAPS    HB 1616   0.602   1.958   6.272 -0.4997 -0.8688  0.2262
   13SAPS    C2 1617   0.657   1.921   6.481 -0.4191  0.0450 -1.2307
   13SAPS    HS 1618   0.597   2.008   6.516 -0.9669 -1.1049  0.8759
   13SAPS   O21 1619   0.776   1.898   6.560  0.0789  0.2106  1.3971
   13SAPS   C21 1620   0.858   2.005   6.571 -0.1025 -0.0929  0.3404
   13SAPS   O22 1621   0.825   2.115   6.537 -0.0627  0.0247  0.0702
   13SAPS   C22 1622   0.991   1.965   6.635  0.0909  0.0244  0.5353
   13SAPS   H2R 1623   1.078   1.968   6.566  0.0857  0.3233  0.5394
   13SAPS   H2S 1624   1.010   2.043   6.712 -0.3276 -1.5216  2.2732
   13SAPS    C3 1625   0.542   1.820   6.521  0.1912  0.1030  0.3528
   13SAPS    HX 1626   0.547   1.740   6.444  2.0816  0.0468  0.4828
   13SAPS    HY 1627   0.450   1.879   6.501  0.3576  0.1375 -0.3561
   13SAPS   O31 1628   0.544   1.781   6.663 -0.2932 -0.0243 -0.0320
   13SAPS   C31 1629   0.603   1.666   6.688 -0.3449  0.0055 -0.2158
   13SAPS   O32 1630   0.662   1.595   6.609  0.4990 -0.1597  0.0100
   13SAPS   C32 1631   0.558   1.617   6.830 -0.4235 -0.0980  0.0346
   13SAPS   H2X 1632   0.450   1.595   6.821 -0.3785  0.0639 -1.0569
   13SAPS   H2Y 1633   0.575   1.696   6.907  0.5343 -1.5641  1.3760
   13SAPS   C23 1634   0.984   1.832   6.722  0.1063  0.2451  0.7744
   13SAPS   H3R 1635   1.080   1.776   6.726  0.7012  1.2210  0.5948
   13SAPS   H3S 1636   0.903   1.765   6.686 -0.6410  0.4598  1.9953
   13SAPS   C24 1637   0.958   1.847   6.865  0.4305  0.5602 -0.2900
   13SAPS   H4R 1638   0.852   1.880   6.860  0.7221  1.6418  0.3092
   13SAPS   H4S 1639   1.020   1.927   6.912  1.1485 -0.8199  1.2176
   13SAPS   C25 1640   0.972   1.718   6.944 -0.2314 -0.2083 -0.0837
   13SAPS   H5R 1641   1.044   1.644   6.906  0.6309  1.5366 -2.0780
   13SAPS   C26 1642   0.927   1.703   7.071  0.3741 -0.4281  0.8777
   13SAPS   H6R 1643   0.938   1.606   7.121 -2.4586 -0.2211  2.0659
   13SAPS   C27 1644   0.838   1.804   7.141  0.1029  0.6404  0.2246
   13SAPS   H7R 1645   0.738   1.755   7.151  0.7118 -0.5510  0.7537
   13SAPS   H7S 1646   0.827   1.898   7.084 -2.5253  0.1913 -0.1501
   13SAPS   C28 1647   0.889   1.824   7.279 -0.1700 -0.6134 -0.1708
   13SAPS   H8R 1648   0.976   1.892   7.277 -0.1839 -0.5649 -3.0849
   13SAPS   C29 1649   0.850   1.771   7.401 -0.4996 -0.7606  0.1737
   13SAPS   H9R 1650   0.916   1.806   7.481  1.3701 -1.2526 -1.0633
   13SAPS  C210 1651   0.737   1.682   7.441 -0.6600 -0.6354 -0.8375
   13SAPS  H10R 1652   0.677   1.650   7.353 -1.9816 -2.4723  0.6596
   13SAPS  H10S 1653   0.658   1.730   7.503 -1.8189 -1.5014 -1.6099
   13SAPS  C211 1654   0.791   1.553   7.506 -0.1732  0.2416  0.4581
   13SAPS  H11R 1655   0.835   1.485   7.432 -0.0415  0.7922  0.0266
   13SAPS  C212 1656   0.772   1.513   7.633 -0.1635 -0.0604  1.0237
   13SAPS  H12R 1657   0.804   1.415   7.671  1.9833 -0.1020 -0.7108
   13SAPS  C213 1658   0.727   1.597   7.749  0.3205  0.4249 -0.4696
   13SAPS  H13R 1659   0.659   1.540   7.815 -0.1333  2.0816  0.5408
   13SAPS  H13S 1660   0.652   1.673   7.721  0.3469  1.1274  1.2524
   13SAPS  C214 1661   0.832   1.667   7.820  0.3186 -0.0035  0.1542
   13SAPS  H14R 1662   0.866   1.764   7.780  0.3692 -0.5463 -1.1628
   13SAPS  C215 1663   0.888   1.631   7.938  0.1725  0.3305 -0.1878
   13SAPS  H15R 1664   0.975   1.686   7.976  0.6206 -0.3037 -0.2891
   13SAPS  C216 1665   0.854   1.515   8.020  0.6434  0.0233  0.3135
   13SAPS  H16R 1666   0.924   1.437   7.983 -1.6938 -2.4270  0.7956
   13SAPS  H16S 1667   0.756   1.470   7.994  2.5823 -3.5363 -1.7374
   13SAPS  C217 1668   0.872   1.535   8.171  0.1802 -0.3788 -0.9947
   13SAPS  H17R 1669   0.974   1.574   8.190 -0.3942  0.8664 -0.3990
   13SAPS  H17S 1670   0.865   1.434   8.217  1.7723  0.5968  1.5930
   13SAPS  C218 1671   0.763   1.615   8.238 -0.4964 -0.4832 -0.7034
   13SAPS  H18R 1672   0.676   1.575   8.181  0.1922 -3.2359  0.0674
   13SAPS  H18S 1673   0.771   1.725   8.218 -2.0491  0.0513  1.2874
   13SAPS  C219 1674   0.763   1.615   8.393 -0.2454 -0.1449  0.7053
   13SAPS  H19R 1675   0.796   1.516   8.432 -0.8942 -1.0928 -1.0200
   13SAPS  H19S 1676   0.658   1.619   8.427 -0.3258 -2.0687  0.7871
   13SAPS  C220 1677   0.854   1.724   8.457  0.4558  0.5218  0.4781
   13SAPS  H20R 1678   0.954   1.725   8.408  0.7862  3.5582  0.9810
   13SAPS  H20S 1679   0.861   1.706   8.566 -2.7179  1.1890  0.9018
   13SAPS  H20T 1680   0.817   1.827   8.433  0.5953  0.5787  0.5090
   13SAPS   C33 1681   0.645   1.498   6.878 -0.0489 -0.3703  0.2398
   13SAPS   H3X 1682   0.752   1.525   6.891  0.0187 -0.3435 -0.3316
   13SAPS   H3Y 1683   0.637   1.413   6.807  1.8854  0.1715 -0.6845
   13SAPS   C34 1684   0.588   1.439   7.007  0.2937  0.6569 -0.5001
   13SAPS   H4X 1685   0.480   1.413   6.999  0.3944 -1.1927  2.5459
   13SAPS   H4Y 1686   0.599   1.516   7.085  1.8452 -0.2953  0.2813
   13SAPS   C35 1687   0.659   1.310   7.056  0.2617 -0.1855  0.2399
   13SAPS   H5X 1688   0.767   1.330   7.038 -0.0610  0.6730 -0.9416
   13SAPS   H5Y 1689   0.636   1.227   6.986  1.6910  1.0577 -1.8251
   13SAPS   C36 1690   0.616   1.260   7.196 -0.0604 -0.1771 -0.9522
   13SAPS   H6X 1691   0.511   1.225   7.183  0.3055 -1.7960  0.0996
   13SAPS   H6Y 1692   0.620   1.340   7.273  1.2381  0.0180 -1.1912
   13SAPS   C37 1693   0.713   1.160   7.246  0.9313 -0.0187 -0.0631
   13SAPS   H7X 1694   0.799   1.227   7.266 -0.9303  1.9117  2.0246
   13SAPS   H7Y 1695   0.731   1.091   7.161 -2.5674 -0.8932 -0.2518
   13SAPS   C38 1696   0.674   1.092   7.380  0.2534 -0.2846  0.3103
   13SAPS   H8X 1697   0.728   0.996   7.392  1.0690  0.1428  0.1728
   13SAPS   H8Y 1698   0.567   1.067   7.373  0.3042 -0.2147 -0.8361
   13SAPS   C39 1699   0.698   1.170   7.510  0.1519 -0.5093 -0.1722
   13SAPS   H9X 1700   0.621   1.250   7.516 -0.1562 -0.7230 -1.1835
   13SAPS   H9Y 1701   0.798   1.219   7.502 -0.3296  0.3862 -0.8812
   13SAPS  C310 1702   0.698   1.086   7.644 -0.0247 -0.1220  0.5472
   13SAPS  H10X 1703   0.774   1.005   7.636 -0.6873 -0.7194  0.1946
   13SAPS  H10Y 1704   0.596   1.043   7.648  0.5221 -1.6121 -0.6747
   13SAPS  C311 1705   0.710   1.161   7.781  0.4018 -0.5608  0.4964
   13SAPS  H11X 1706   0.641   1.248   7.789 -0.5651 -1.4292  2.1997
   13SAPS  H11Y 1707   0.813   1.204   7.784  0.1147  0.2579 -0.5547
   13SAPS  C312 1708   0.700   1.082   7.907 -0.7558  0.6688  0.3107
   13SAPS  H12X 1709   0.770   0.996   7.910 -1.6355 -0.0781 -0.0207
   13SAPS  H12Y 1710   0.598   1.038   7.914 -0.2704 -0.2137  3.0605
   13SAPS  C313 1711   0.722   1.167   8.030 -0.0246 -0.5563 -0.0601
   13SAPS  H13X 1712   0.674   1.267   8.021  1.0031  0.0880  1.3153
   13SAPS  H13Y 1713   0.832   1.182   8.036 -0.0047 -0.6706 -0.1356
   13SAPS  C314 1714   0.669   1.104   8.156 -0.0882  0.1495 -0.2040
   13SAPS  H14X 1715   0.562   1.077   8.143 -0.2316 -1.8152  3.7102
   13SAPS  H14Y 1716   0.672   1.179   8.238 -2.2894 -0.5166  0.5479
   13SAPS  C315 1717   0.748   0.978   8.208  0.4222 -0.3035  0.4303
   13SAPS  H15X 1718   0.851   1.017   8.222 -0.6931  2.3277  2.3034
   13SAPS  H15Y 1719   0.736   0.905   8.125 -0.6457  0.0996  0.2097
   13SAPS  C316 1720   0.696   0.905   8.331  0.9670  0.9221  0.3003
   13SAPS  H16X 1721   0.594   0.861   8.326  1.1959  0.4164  0.0336
   13SAPS  H16Y 1722   0.701   0.972   8.419 -2.3641  1.4529  0.2062
   13SAPS  C317 1723   0.786   0.779   8.349  0.5927 -0.5839  0.1990
   13SAPS  H17X 1724   0.881   0.835   8.362 -0.8700  2.1623 -0.3288
   13SAPS  H17Y 1725   0.795   0.712   8.261 -2.4993  0.5144 -1.0493
   13SAPS  C318 1726   0.746   0.699   8.470 -0.5382  0.1876 -0.3205
   13SAPS  H18X 1727   0.804   0.604   8.459 -1.1255 -0.0607 -1.3289
   13SAPS  H18Y 1728   0.639   0.671   8.460  0.1573 -2.3477 -1.3542
   13SAPS  H18Z 1729   0.771   0.750   8.566  1.2703 -2.7664  0.9404
   14SAPS     N 1730   0.155   5.042   5.460  0.5101 -0.1043 -0.3181
   14SAPS   HN1 1731   0.126   4.946   5.490 -0.5218  0.7347  1.5830
   14SAPS   HN2 1732   0.105   5.107   5.524  2.8416  1.5603 -0.0893
   14SAPS   HN3 1733   0.138   5.071   5.362  1.0015  2.9807  0.4180
   14SAPS   C12 1734   0.301   5.041   5.502  0.3828 -0.9175  1.0488
   14SAPS  H12A 1735   0.355   4.967   5.444  1.5607 -1.0534  2.2620
   14SAPS   C13 1736   0.379   5.175   5.479 -0.0779 -0.7528 -0.0846
   14SAPS  O13A 1737   0.316   5.284   5.453  0.2517  0.5979 -0.3040
   14SAPS  O13B 1738   0.503   5.177   5.498 -0.6781  0.3091 -0.5737
   14SAPS   C11 1739   0.320   5.016   5.652 -0.2683  0.1880  0.2601
   14SAPS  H11A 1740   0.298   5.107   5.712 -1.0056  0.8515 -0.9639
   14SAPS  H11B 1741   0.428   4.994   5.663  0.2323  1.0519 -2.2177
   14SAPS     P 1742   0.285   4.817   5.822 -0.0604 -0.1662 -0.5842
   14SAPS   O13 1743   0.171   4.734   5.858  0.2728 -0.5270  0.2571
   14SAPS   O14 1744   0.402   4.753   5.771  0.3872 -1.1882  0.2500
   14SAPS   O12 1745   0.234   4.906   5.703 -0.5980 -0.4717 -0.2955
   14SAPS   O11 1746   0.313   4.920   5.934 -0.1526 -0.2762 -0.1291
   14SAPS    C1 1747   0.429   5.001   5.941  0.4508 -0.1477 -0.0570
   14SAPS    HA 1748   0.485   5.010   5.846 -0.0842 -0.2387 -0.3818
   14SAPS    HB 1749   0.400   5.103   5.975  2.4734  0.0584  1.2756
   14SAPS    C2 1750   0.537   4.953   6.044  0.2175  0.4190 -0.0119
   14SAPS    HS 1751   0.590   4.863   6.008 -1.5760 -0.0924 -1.5609
   14SAPS   O21 1752   0.486   4.934   6.175 -1.0290  0.6504  0.4275
   14SAPS   C21 1753   0.418   4.817   6.186 -0.1685 -0.6017 -0.1232
   14SAPS   O22 1754   0.415   4.732   6.101 -0.6423 -0.1176  0.2820
   14SAPS   C22 1755   0.353   4.819   6.332  0.2946  0.3811 -0.6728
   14SAPS   H2R 1756   0.416   4.880   6.401  1.0512 -0.1494 -0.8812
   14SAPS   H2S 1757   0.253   4.865   6.317  0.3252  0.7436  0.1407
   14SAPS    C3 1758   0.653   5.058   6.054 -0.9045 -0.4685  0.3149
   14SAPS    HX 1759   0.611   5.154   6.088  2.7247  0.9537  1.2878
   14SAPS    HY 1760   0.685   5.085   5.951 -0.4491  1.9320  1.0400
   14SAPS   O31 1761   0.770   5.017   6.122  0.2984  0.1109 -0.2377
   14SAPS   C31 1762   0.845   5.110   6.178  0.5865 -0.4374  0.2223
   14SAPS   O32 1763   0.827   5.231   6.165  0.2277 -0.6538  0.3655
   14SAPS   C32 1764   0.954   5.037   6.261  0.1667  0.0863  0.9896
   14SAPS   H2X 1765   1.041   5.105   6.261  1.5663 -1.5713 -1.4187
   14SAPS   H2Y 1766   0.974   4.941   6.209  2.5680  0.6267  0.8301
   14SAPS   C23 1767   0.314   4.673   6.378 -0.7741 -0.3093  0.4301
   14SAPS   H3R 1768   0.401   4.620   6.422  1.4191  2.2587 -0.4957
   14SAPS   H3S 1769   0.288   4.615   6.287 -0.3664  0.1036  0.0366
   14SAPS   C24 1770   0.198   4.670   6.478  0.5599  0.0220  0.1542
   14SAPS   H4R 1771   0.128   4.750   6.445  2.1793  0.8510 -1.5328
   14SAPS   H4S 1772   0.243   4.720   6.567  0.2064  1.7824 -0.6125
   14SAPS   C25 1773   0.124   4.539   6.498  0.0944 -0.2809  0.0194
   14SAPS   H5R 1774   0.127   4.480   6.405  0.9837  0.5688 -0.5034
   14SAPS   C26 1775   0.084   4.483   6.612  0.2568 -0.2200 -0.1922
   14SAPS   H6R 1776   0.029   4.387   6.612  0.3863 -0.3004 -1.1762
   14SAPS   C27 1777   0.093   4.553   6.747 -0.0574  0.7676 -0.4680
   14SAPS   H7R 1778  -0.008   4.595   6.762 -0.1785  1.2720 -2.3849
   14SAPS   H7S 1779   0.181   4.621   6.752 -0.1383  0.9449 -1.2570
   14SAPS   C28 1780   0.123   4.472   6.872  0.5875  0.1369  0.5171
   14SAPS   H8R 1781   0.131   4.362   6.862 -0.0157 -0.0912  2.3378
   14SAPS   C29 1782   0.126   4.527   6.993  0.1944 -0.0137 -0.2228
   14SAPS   H9R 1783   0.152   4.460   7.077 -0.0207 -1.5628 -1.3526
   14SAPS  C210 1784   0.096   4.670   7.026 -0.7523  0.6305  0.4576
   14SAPS  H10R 1785   0.101   4.740   6.940  1.4004  1.5383  1.2437
   14SAPS  H10S 1786   0.184   4.707   7.084  0.0291 -0.1533 -0.2022
   14SAPS  C211 1787  -0.019   4.696   7.127 -0.4625 -0.6053  0.4220
   14SAPS  H11R 1788  -0.104   4.748   7.082  0.4676  0.1813 -0.4666
   14SAPS  C212 1789  -0.031   4.672   7.264  0.4176  0.2953  0.2445
   14SAPS  H12R 1790  -0.122   4.715   7.308  1.5948  3.2780  0.0235
   14SAPS  C213 1791   0.069   4.614   7.366  0.0848  0.3860 -0.0280
   14SAPS  H13R 1792   0.118   4.701   7.414 -0.2734  0.5116  0.1132
   14SAPS  H13S 1793   0.152   4.566   7.310 -0.4800  0.9182 -1.3666
   14SAPS  C214 1794   0.014   4.530   7.475 -0.7622 -0.2976 -0.1030
   14SAPS  H14R 1795  -0.034   4.436   7.443 -1.2316 -0.3260  0.6383
   14SAPS  C215 1796   0.009   4.542   7.611  0.6300  0.3874  0.4708
   14SAPS  H15R 1797  -0.031   4.460   7.672 -0.1881  2.0490  2.3190
   14SAPS  C216 1798   0.054   4.657   7.693  0.6266 -0.2012  0.0799
   14SAPS  H16R 1799   0.156   4.682   7.657  0.8779 -0.9384  0.2546
   14SAPS  H16S 1800   0.069   4.616   7.795 -2.7606 -1.6978  0.1195
   14SAPS  C217 1801  -0.022   4.788   7.693  0.0702  1.0298  0.3666
   14SAPS  H17R 1802  -0.059   4.811   7.591  1.5305  0.8849 -0.2261
   14SAPS  H17S 1803   0.042   4.875   7.721 -1.0890  1.3441  2.1803
   14SAPS  C218 1804  -0.141   4.790   7.794 -0.0360  0.0846  0.1724
   14SAPS  H18R 1805  -0.206   4.702   7.773  1.4212 -1.1427  0.6178
   14SAPS  H18S 1806  -0.193   4.888   7.792 -1.0845 -0.3898  2.0513
   14SAPS  C219 1807  -0.097   4.764   7.941 -0.3017  0.1024  0.2060
   14SAPS  H19R 1808  -0.014   4.694   7.963  0.2652  1.0141  1.0916
   14SAPS  H19S 1809  -0.180   4.729   8.006 -2.2220  1.3074 -1.4526
   14SAPS  C220 1810  -0.043   4.897   8.001  0.4206  0.6836  0.2678
   14SAPS  H20R 1811  -0.116   4.980   7.989 -0.1121  0.1517 -0.2684
   14SAPS  H20S 1812   0.046   4.922   7.940 -0.0133 -0.4160 -0.8533
   14SAPS  H20T 1813  -0.023   4.882   8.109  2.1121 -1.7816 -0.2987
   14SAPS   C33 1814   0.908   5.009   6.407  0.3709 -0.0398  0.4318
   14SAPS   H3X 1815   0.879   5.110   6.445 -0.4017 -0.7816  1.9320
   14SAPS   H3Y 1816   0.996   4.965   6.457  1.6910  1.5434 -0.4049
   14SAPS   C34 1817   0.786   4.914   6.406 -0.2193  0.1249 -0.4695
   14SAPS   H4X 1818   0.803   4.835   6.329  0.9293  0.2486 -0.3566
   14SAPS   H4Y 1819   0.686   4.959   6.388 -1.5424 -1.7192  1.6675
   14SAPS   C35 1820   0.780   4.853   6.547  0.0788  0.4885 -0.5794
   14SAPS   H5X 1821   0.784   4.936   6.620 -2.0213  0.2303 -0.1269
   14SAPS   H5Y 1822   0.868   4.792   6.578 -0.2690 -0.1419 -0.8296
   14SAPS   C36 1823   0.645   4.785   6.576  0.9203 -0.2088  0.2059
   14SAPS   H6X 1824   0.629   4.703   6.503 -2.7581  0.6868 -0.2126
   14SAPS   H6Y 1825   0.564   4.858   6.557  0.3616 -1.2732 -1.7612
   14SAPS   C37 1826   0.629   4.734   6.725 -0.3588 -0.3368  0.1185
   14SAPS   H7X 1827   0.647   4.820   6.792 -1.0211  0.3268 -0.5316
   14SAPS   H7Y 1828   0.713   4.663   6.738  0.5243  0.8859  1.3537
   14SAPS   C38 1829   0.487   4.666   6.760 -0.4754 -0.2135 -0.0305
   14SAPS   H8X 1830   0.469   4.583   6.689  0.2790 -0.5676  0.1816
   14SAPS   H8Y 1831   0.410   4.746   6.759  0.0623  0.3167 -0.4192
   14SAPS   C39 1832   0.484   4.597   6.889 -0.7088  0.8268  0.0248
   14SAPS   H9X 1833   0.575   4.536   6.906  0.2804  2.3670  0.5430
   14SAPS   H9Y 1834   0.392   4.537   6.901 -0.4158  0.6444  1.5706
   14SAPS  C310 1835   0.476   4.691   7.009  0.6985 -0.0535 -0.4325
   14SAPS  H10X 1836   0.391   4.762   7.000  1.7992  1.1156 -2.0880
   14SAPS  H10Y 1837   0.563   4.759   7.016  1.5543 -1.1275 -0.4148
   14SAPS  C311 1838   0.474   4.619   7.143  0.1462 -0.7287 -0.5270
   14SAPS  H11X 1839   0.567   4.558   7.138  0.9820  0.4666  0.0110
   14SAPS  H11Y 1840   0.388   4.549   7.143  0.0679 -0.6361  0.0429
   14SAPS  C312 1841   0.482   4.720   7.248  0.7453  0.0414 -0.0232
   14SAPS  H12X 1842   0.392   4.784   7.249 -0.7860 -1.9415 -1.8588
   14SAPS  H12Y 1843   0.568   4.789   7.234  1.6404 -0.6990  1.6009
   14SAPS  C313 1844   0.515   4.662   7.388 -0.5342 -0.2113  0.7825
   14SAPS  H13X 1845   0.610   4.604   7.394 -0.0418  0.0321 -2.8298
   14SAPS  H13Y 1846   0.436   4.590   7.420  0.1078 -1.7523 -0.9253
   14SAPS  C314 1847   0.521   4.769   7.499  0.2113 -0.1614  0.0238
   14SAPS  H14X 1848   0.448   4.848   7.471 -1.9434 -1.6059  1.2620
   14SAPS  H14Y 1849   0.622   4.815   7.507  1.0805 -1.4315 -2.5149
   14SAPS  C315 1850   0.475   4.711   7.633  0.3438 -0.5550  0.2974
   14SAPS  H15X 1851   0.544   4.636   7.678 -0.8643 -0.1928  2.9529
   14SAPS  H15Y 1852   0.372   4.671   7.627 -0.0623  0.3817  0.7676
   14SAPS  C316 1853   0.454   4.811   7.749 -0.0704 -0.1512  0.1323
   14SAPS  H16X 1854   0.368   4.877   7.725  0.6630  0.7075 -0.1950
   14SAPS  H16Y 1855   0.549   4.867   7.765 -0.5003  0.1647  1.6844
   14SAPS  C317 1856   0.415   4.741   7.880 -0.7608  0.3107  0.3060
   14SAPS  H17X 1857   0.490   4.661   7.899 -1.5393 -0.4591  0.2350
   14SAPS  H17Y 1858   0.313   4.698   7.866 -1.1556  1.8719 -2.2427
   14SAPS  C318 1859   0.419   4.841   8.000  0.1541 -0.3102 -0.2931
   14SAPS  H18X 1860   0.526   4.866   8.014  0.4284 -2.2402  1.5669
   14SAPS  H18Y 1861   0.370   4.807   8.094  0.3749  0.3764  0.0700
   14SAPS  H18Z 1862   0.372   4.937   7.972  1.9176  0.2396 -1.5137
   15SAPS     N 1863   6.495   5.544   5.781 -0.1835  0.9779  0.0967
   15SAPS   HN1 1864   6.411   5.536   5.720  0.5254 -1.5176 -0.6320
   15SAPS   HN2 1865   6.538   5.636   5.761  1.1784 -0.2194 -3.0007
   15SAPS   HN3 1866   6.558   5.473   5.740 -0.7908  1.4418 -1.7209
   15SAPS   C12 1867   6.463   5.527   5.923 -0.0567  0.3820  0.0419
   15SAPS  H12A 1868   6.403   5.609   5.959 -0.1246  0.4908 -0.3184
   15SAPS   C13 1869   6.377   5.396   5.964  0.5784 -0.3985 -0.0322
   15SAPS  O13A 1870   6.372   5.302   5.879  0.2316 -0.7073 -0.2090
   15SAPS  O13B 1871   6.334   5.399   6.081 -0.2912 -0.5992  0.2463
   15SAPS   C11 1872   6.599   5.537   6.002  0.6529 -0.1857 -0.8562
   15SAPS  H11A 1873   6.660   5.451   5.968  1.7300  1.0396 -2.1762
   15SAPS  H11B 1874   6.582   5.517   6.110  1.2623  2.9158 -0.0813
   15SAPS     P 1875   6.785   5.709   6.080 -0.2601 -0.2726  0.1292
   15SAPS   O13 1876   6.906   5.633   6.060 -0.1043 -0.7328 -0.1068
   15SAPS   O14 1877   6.796   5.853   6.061 -0.8050 -0.4020 -0.3720
   15SAPS   O12 1878   6.663   5.661   5.984  0.4787  0.3947  1.0277
   15SAPS   O11 1879   6.728   5.674   6.221  0.1991 -0.2952 -0.3585
   15SAPS    C1 1880   6.611   5.744   6.264  0.3697  0.1527 -0.3564
   15SAPS    HA 1881   6.547   5.801   6.193  0.4469  3.5714  2.0755
   15SAPS    HB 1882   6.544   5.664   6.302  2.8939 -2.3466 -0.8236
   15SAPS    C2 1883   6.628   5.852   6.371 -0.5774  0.5247 -0.1182
   15SAPS    HS 1884   6.673   5.939   6.318  0.1710 -1.5571 -3.1951
   15SAPS   O21 1885   6.707   5.791   6.478  0.4590 -0.1009  0.7474
   15SAPS   C21 1886   6.837   5.834   6.477 -0.1343  0.5134 -0.3613
   15SAPS   O22 1887   6.880   5.920   6.406 -0.3218 -0.4163  0.1327
   15SAPS   C22 1888   6.922   5.753   6.573  0.4971  0.3177 -0.1824
   15SAPS   H2R 1889   7.026   5.791   6.560  1.3374 -0.9038  2.2832
   15SAPS   H2S 1890   6.898   5.759   6.682  0.7702 -1.9811  0.0521
   15SAPS    C3 1891   6.486   5.884   6.424  0.2212 -0.2384 -0.0749
   15SAPS    HX 1892   6.417   5.905   6.340  2.1685  1.1493 -1.4044
   15SAPS    HY 1893   6.479   5.982   6.476 -1.0253  0.9094 -2.2865
   15SAPS   O31 1894   6.422   5.778   6.504  0.0685  0.5373  0.7325
   15SAPS   C31 1895   6.306   5.815   6.555 -0.4216  0.0941 -0.1791
   15SAPS   O32 1896   6.249   5.921   6.527  0.2228  0.5492  0.0459
   15SAPS   C32 1897   6.246   5.702   6.642  0.8533  0.5770 -0.3037
   15SAPS   H2X 1898   6.334   5.643   6.674  0.6704 -0.5532 -1.7874
   15SAPS   H2Y 1899   6.175   5.646   6.578  0.9536 -1.0061  0.9094
   15SAPS   C23 1900   6.915   5.601   6.539 -0.1938  0.3865 -0.8800
   15SAPS   H3R 1901   6.931   5.585   6.431 -0.1571 -0.4942 -0.7471
   15SAPS   H3S 1902   6.818   5.559   6.574 -0.0864 -0.2387 -1.3256
   15SAPS   C24 1903   7.025   5.521   6.619  0.1758  0.3388 -0.5130
   15SAPS   H4R 1904   7.122   5.540   6.569 -0.7031  0.7478 -2.1638
   15SAPS   H4S 1905   6.999   5.414   6.601 -0.2510  0.4442 -0.5361
   15SAPS   C25 1906   7.037   5.551   6.763  0.4250  1.1323  0.3353
   15SAPS   H5R 1907   7.130   5.594   6.800  1.0416  0.8381 -0.8061
   15SAPS   C26 1908   6.933   5.533   6.851  0.1350 -0.1873  0.6814
   15SAPS   H6R 1909   6.949   5.560   6.957  0.7938 -0.6574  0.7028
   15SAPS   C27 1910   6.798   5.479   6.830  0.9991 -0.3318 -0.4761
   15SAPS   H7R 1911   6.794   5.394   6.902  0.3853  0.7859  0.8687
   15SAPS   H7S 1912   6.796   5.432   6.730 -2.1230 -2.6595  0.5260
   15SAPS   C28 1913   6.678   5.572   6.834  0.8977 -0.1545  0.0289
   15SAPS   H8R 1914   6.696   5.680   6.820 -1.3278  0.2914  0.2217
   15SAPS   C29 1915   6.553   5.527   6.861 -0.6902 -0.0672  0.2974
   15SAPS   H9R 1916   6.479   5.602   6.894 -2.1587 -1.1415 -0.4744
   15SAPS  C210 1917   6.512   5.385   6.879 -1.4341 -0.1288 -0.4207
   15SAPS  H10R 1918   6.536   5.348   6.981 -0.6316 -0.5254 -0.7337
   15SAPS  H10S 1919   6.574   5.313   6.821  1.4094 -0.2081  2.4216
   15SAPS  C211 1920   6.370   5.352   6.842  0.4860  1.1910  0.2229
   15SAPS  H11R 1921   6.352   5.302   6.746 -0.6878 -0.5652  1.3051
   15SAPS  C212 1922   6.260   5.353   6.924  0.2236 -0.0981  0.9747
   15SAPS  H12R 1923   6.161   5.338   6.880 -1.3454  3.3285  2.9193
   15SAPS  C213 1924   6.257   5.397   7.067  0.0890 -0.0921  0.7244
   15SAPS  H13R 1925   6.162   5.453   7.079 -1.1113 -2.2430  1.8409
   15SAPS  H13S 1926   6.341   5.468   7.083  0.1597 -0.3276  1.4540
   15SAPS  C214 1927   6.269   5.282   7.157 -0.2625  0.3107 -0.1516
   15SAPS  H14R 1928   6.361   5.224   7.142 -1.4338 -1.6409 -0.3043
   15SAPS  C215 1929   6.181   5.250   7.258 -0.3625  0.7984  0.5760
   15SAPS  H15R 1930   6.209   5.159   7.314  1.2509 -0.3257 -1.8587
   15SAPS  C216 1931   6.046   5.301   7.292 -0.3715  0.3915  0.3843
   15SAPS  H16R 1932   5.960   5.231   7.289  1.7017 -2.4569  2.0982
   15SAPS  H16S 1933   6.017   5.395   7.241 -1.4659  1.7161  3.2328
   15SAPS  C217 1934   6.042   5.340   7.443 -0.1904 -0.0399 -0.4750
   15SAPS  H17R 1935   6.054   5.245   7.501 -0.3824  0.6260  0.6837
   15SAPS  H17S 1936   5.944   5.379   7.477  0.1838  1.6341 -1.2492
   15SAPS  C218 1937   6.152   5.441   7.483 -0.4585  0.0655 -0.1322
   15SAPS  H18R 1938   6.149   5.537   7.427 -1.0785  0.3583  0.3957
   15SAPS  H18S 1939   6.254   5.407   7.456  0.7006  0.7458  3.0491
   15SAPS  C219 1940   6.149   5.459   7.634  0.0437  0.3797  0.0904
   15SAPS  H19R 1941   6.168   5.358   7.676 -0.1739  0.1999 -0.2351
   15SAPS  H19S 1942   6.051   5.491   7.674  0.4756  0.2042  1.3296
   15SAPS  C220 1943   6.264   5.550   7.685  0.1650  0.3625  0.2255
   15SAPS  H20R 1944   6.275   5.530   7.794  0.4289  1.2100  0.3582
   15SAPS  H20S 1945   6.240   5.657   7.671 -4.2639 -0.5063 -0.2209
   15SAPS  H20T 1946   6.359   5.517   7.637  1.3684  2.4189  1.0615
   15SAPS   C33 1947   6.180   5.751   6.776 -0.4293 -0.0967 -0.3211
   15SAPS   H3X 1948   6.181   5.656   6.835  2.3036 -1.1333 -1.8649
   15SAPS   H3Y 1949   6.075   5.788   6.768 -0.4357  0.5729  1.9981
   15SAPS   C34 1950   6.257   5.854   6.852  0.0812 -0.2130  0.1323
   15SAPS   H4X 1951   6.235   5.953   6.807 -0.7507 -1.1407 -1.6199
   15SAPS   H4Y 1952   6.368   5.845   6.849  0.2103  1.2193 -1.6778
   15SAPS   C35 1953   6.206   5.857   6.996 -0.6265 -0.3470  0.1811
   15SAPS   H5X 1954   6.098   5.833   7.002 -0.6215 -0.8008 -1.3323
   15SAPS   H5Y 1955   6.235   5.961   7.023 -2.0462  0.3519 -0.8679
   15SAPS   C36 1956   6.281   5.751   7.079  0.4266  1.0158 -0.1961
   15SAPS   H6X 1957   6.387   5.758   7.049 -0.2068  0.3868 -2.8936
   15SAPS   H6Y 1958   6.249   5.649   7.049 -1.1106  1.3645  0.1378
   15SAPS   C37 1959   6.252   5.736   7.232 -0.0295 -0.2547  0.8656
   15SAPS   H7X 1960   6.305   5.641   7.253 -1.4959 -1.9168 -2.2817
   15SAPS   H7Y 1961   6.142   5.729   7.244  0.1133 -0.7628  1.9849
   15SAPS   C38 1962   6.306   5.857   7.308 -0.1858  0.6130  0.8258
   15SAPS   H8X 1963   6.219   5.921   7.332  0.0982  1.0405  0.7323
   15SAPS   H8Y 1964   6.379   5.915   7.246  1.1284 -1.3697  0.4089
   15SAPS   C39 1965   6.381   5.821   7.431 -0.0809 -0.4071 -0.5897
   15SAPS   H9X 1966   6.472   5.759   7.416 -0.5636 -1.3492  0.2605
   15SAPS   H9Y 1967   6.309   5.754   7.484  0.0444 -0.4575 -0.4825
   15SAPS  C310 1968   6.434   5.935   7.514 -0.1068 -0.0940 -0.7686
   15SAPS  H10X 1969   6.365   6.020   7.494  0.7535 -0.2347 -5.4543
   15SAPS  H10Y 1970   6.533   5.963   7.471 -1.1653  0.3207 -3.0833
   15SAPS  C311 1971   6.429   5.909   7.661 -0.7730  0.6859  0.7031
   15SAPS  H11X 1972   6.321   5.888   7.679 -1.1697  1.0146 -1.0570
   15SAPS  H11Y 1973   6.451   6.000   7.721  0.7799  0.2058  0.8995
   15SAPS  C312 1974   6.521   5.801   7.713 -0.3361 -0.5559 -0.3135
   15SAPS  H12X 1975   6.619   5.837   7.677 -1.2398  2.0295 -0.3958
   15SAPS  H12Y 1976   6.500   5.701   7.669 -0.4083 -1.5397  1.7831
   15SAPS  C313 1977   6.521   5.781   7.865  0.4617  0.4343  0.2627
   15SAPS  H13X 1978   6.424   5.740   7.900  1.1748  0.5531  2.5980
   15SAPS  H13Y 1979   6.542   5.881   7.909 -0.0943  1.2155 -1.2000
   15SAPS  C314 1980   6.630   5.672   7.902 -0.3725 -0.0664 -0.0391
   15SAPS  H14X 1981   6.735   5.708   7.903 -0.5381  0.4121  0.7455
   15SAPS  H14Y 1982   6.633   5.603   7.815  0.3466  1.5361 -1.3127
   15SAPS  C315 1983   6.602   5.595   8.035  0.2386 -0.2994  0.1171
   15SAPS  H15X 1984   6.553   5.667   8.104  0.6369 -1.0134  1.1763
   15SAPS  H15Y 1985   6.698   5.568   8.084 -0.3184  0.7041  1.8347
   15SAPS  C316 1986   6.515   5.469   8.028 -0.5965 -0.1721  0.0450
   15SAPS  H16X 1987   6.572   5.406   7.956 -2.3943  0.0109 -1.6204
   15SAPS  H16Y 1988   6.412   5.480   7.989 -0.0964 -2.1570 -2.0035
   15SAPS  C317 1989   6.504   5.398   8.164 -0.8822  0.4811  0.3774
   15SAPS  H17X 1990   6.452   5.459   8.240 -1.4771 -0.2833  0.5943
   15SAPS  H17Y 1991   6.607   5.385   8.204 -0.3071  1.6462 -0.6494
   15SAPS  C318 1992   6.434   5.261   8.162  0.1889  0.6926 -0.3965
   15SAPS  H18X 1993   6.467   5.228   8.263 -0.7997 -2.2077 -0.9259
   15SAPS  H18Y 1994   6.467   5.195   8.080  3.1057  2.6744 -0.9593
   15SAPS  H18Z 1995   6.323   5.266   8.164  0.1535 -0.0484 -0.0936
   16SAPS     N 1996   1.749   6.549   6.342  0.2108  0.4923  0.0724
   16SAPS   HN1 1997   1.755   6.652   6.350 -3.2764  0.7579  1.0753
   16SAPS   HN2 1998   1.735   6.525   6.241 -1.0863  1.0997  0.0829
   16SAPS   HN3 1999   1.674   6.508   6.401 -1.7873  0.4736 -2.3020
   16SAPS   C12 2000   1.862   6.456   6.360  0.1137  0.1243  0.4249
   16SAPS  H12A 2001   1.837   6.386   6.438 -0.1017  1.0117  1.1608
   16SAPS   C13 2002   1.902   6.379   6.231  0.0595  0.2125 -0.0347
   16SAPS  O13A 2003   1.835   6.382   6.127  0.2659 -0.4804 -0.0666
   16SAPS  O13B 2004   1.989   6.286   6.250  0.0664 -0.7012  0.0214
   16SAPS   C11 2005   1.987   6.541   6.392 -0.3071 -0.1421  0.1397
   16SAPS  H11A 2006   2.019   6.601   6.303  1.6549  0.5232  1.2281
   16SAPS  H11B 2007   2.074   6.474   6.411  0.1667  0.6939  1.0440
   16SAPS     P 2008   2.078   6.666   6.607 -0.4687 -0.0897 -0.3859
   16SAPS   O13 2009   2.212   6.681   6.546 -0.2402 -0.1870  0.1904
   16SAPS   O14 2010   2.040   6.783   6.691 -0.0746  0.5506  0.3811
   16SAPS   O12 2011   1.969   6.629   6.500 -0.1668  0.4867  0.4702
   16SAPS   O11 2012   2.076   6.536   6.698  0.2559  0.1962 -0.0292
   16SAPS    C1 2013   1.959   6.454   6.699 -0.3950  0.5203  0.5880
   16SAPS    HA 2014   1.865   6.512   6.685 -1.2425 -0.9626 -0.0973
   16SAPS    HB 2015   1.971   6.383   6.614 -1.6714  0.9170  0.0433
   16SAPS    C2 2016   1.946   6.378   6.832 -0.5816 -0.3153  0.2890
   16SAPS    HS 2017   1.918   6.455   6.907  0.6049 -0.1143  0.5578
   16SAPS   O21 2018   2.075   6.316   6.863 -0.3397 -0.0070 -0.1160
   16SAPS   C21 2019   2.147   6.369   6.957 -0.2371  0.1177 -0.2942
   16SAPS   O22 2020   2.111   6.464   7.028 -0.7035 -0.0454  0.3209
   16SAPS   C22 2021   2.281   6.303   6.972 -0.1087 -0.2292  0.5059
   16SAPS   H2R 2022   2.339   6.321   6.880  1.9719  0.2652  1.8485
   16SAPS   H2S 2023   2.337   6.349   7.056  1.2107  0.2854 -0.6386
   16SAPS    C3 2024   1.837   6.267   6.830 -1.2325  0.8235 -0.0219
   16SAPS    HX 2025   1.885   6.177   6.787 -1.1131 -0.6220  2.8984
   16SAPS    HY 2026   1.752   6.301   6.768 -0.3810  0.8893 -1.1999
   16SAPS   O31 2027   1.799   6.236   6.964 -0.2053 -0.2545 -0.9055
   16SAPS   C31 2028   1.721   6.332   7.022 -0.3639 -0.1251  0.6205
   16SAPS   O32 2029   1.673   6.426   6.962 -0.3633 -0.1195 -0.4559
   16SAPS   C32 2030   1.698   6.300   7.168  0.0346 -0.2175  0.9278
   16SAPS   H2X 2031   1.766   6.216   7.195 -1.5824 -0.9935  2.7825
   16SAPS   H2Y 2032   1.595   6.262   7.182  0.3580 -1.2530  0.5877
   16SAPS   C23 2033   2.266   6.148   6.978 -0.2002 -0.4756 -0.3589
   16SAPS   H3R 2034   2.277   6.105   6.876 -1.8038 -0.6778 -0.4712
   16SAPS   H3S 2035   2.173   6.102   7.017 -0.6065  0.1380 -0.5838
   16SAPS   C24 2036   2.382   6.091   7.056 -0.8868 -0.4619 -0.6194
   16SAPS   H4R 2037   2.371   6.122   7.162 -0.6845 -1.2237 -0.3700
   16SAPS   H4S 2038   2.480   6.131   7.022 -1.0493  0.9747  0.5327
   16SAPS   C25 2039   2.400   5.937   7.032 -0.0913  0.2716  0.5267
   16SAPS   H5R 2040   2.417   5.907   6.928 -0.0828  0.4333  0.4807
   16SAPS   C26 2041   2.382   5.842   7.123 -0.1405  0.5357 -0.1023
   16SAPS   H6R 2042   2.411   5.739   7.098  2.2326  1.0435  0.2529
   16SAPS   C27 2043   2.332   5.867   7.262  0.1164 -0.7793 -0.1459
   16SAPS   H7R 2044   2.275   5.776   7.290 -0.0696 -1.1658 -1.7256
   16SAPS   H7S 2045   2.254   5.945   7.252  0.5420 -0.0967  1.4718
   16SAPS   C28 2046   2.431   5.910   7.366  0.4914  0.6093 -0.6994
   16SAPS   H8R 2047   2.509   5.977   7.327  1.4186  0.9735  1.5832
   16SAPS   C29 2048   2.430   5.885   7.503 -0.9361  0.4213  0.5354
   16SAPS   H9R 2049   2.503   5.936   7.567  0.1522 -1.3089  0.7391
   16SAPS  C210 2050   2.337   5.806   7.583 -0.2774 -0.6195 -0.0745
   16SAPS  H10R 2051   2.238   5.821   7.536 -0.3938  1.6299  0.7998
   16SAPS  H10S 2052   2.326   5.858   7.680 -0.0232  0.4599 -0.6039
   16SAPS  C211 2053   2.371   5.661   7.603  0.4371 -0.4828 -0.3787
   16SAPS  H11R 2054   2.445   5.613   7.538  0.5026 -0.1852 -0.5225
   16SAPS  C212 2055   2.306   5.578   7.681 -0.3184 -0.5155  0.1315
   16SAPS  H12R 2056   2.337   5.472   7.685 -3.2636 -1.4378  1.2699
   16SAPS  C213 2057   2.196   5.609   7.780  0.2095  0.3691 -0.3631
   16SAPS  H13R 2058   2.192   5.719   7.785  1.0042  0.4260 -0.7661
   16SAPS  H13S 2059   2.218   5.573   7.883 -2.2360 -1.6084 -0.4196
   16SAPS  C214 2060   2.074   5.535   7.735  0.6275 -0.0442 -0.0066
   16SAPS  H14R 2061   2.040   5.570   7.636  2.4450  0.6769 -0.4237
   16SAPS  C215 2062   1.999   5.448   7.806  0.7518 -0.2785  0.3755
   16SAPS  H15R 2063   1.908   5.405   7.763  0.8897 -1.3697  1.1436
   16SAPS  C216 2064   2.018   5.398   7.943  0.4110  0.4227 -0.6974
   16SAPS  H16R 2065   2.125   5.406   7.971  0.3256  2.8184 -0.8458
   16SAPS  H16S 2066   1.992   5.290   7.952  0.2688  0.6432  2.9776
   16SAPS  C217 2067   1.934   5.483   8.037  0.2583  1.4552 -0.0531
   16SAPS  H17R 2068   1.828   5.486   8.005  0.8350  1.6112 -2.0621
   16SAPS  H17S 2069   1.965   5.590   8.043  1.1350  1.1935  0.2831
   16SAPS  C218 2070   1.929   5.425   8.185  0.7051  0.6591 -0.4597
   16SAPS  H18R 2071   1.878   5.327   8.184  0.1118  0.8920  1.5791
   16SAPS  H18S 2072   1.867   5.477   8.261  0.0350 -1.6131  0.6279
   16SAPS  C219 2073   2.068   5.405   8.257  0.1580 -0.0044  0.4339
   16SAPS  H19R 2074   2.102   5.506   8.286 -0.3477 -0.1715  1.6604
   16SAPS  H19S 2075   2.138   5.352   8.189  0.5799 -0.4488  1.2048
   16SAPS  C220 2076   2.052   5.332   8.396 -0.5199 -0.1548 -0.0025
   16SAPS  H20R 2077   1.973   5.378   8.459 -0.5748 -1.6045  1.0537
   16SAPS  H20S 2078   2.144   5.330   8.458 -2.5268  1.1749  3.3177
   16SAPS  H20T 2079   2.020   5.227   8.374  0.5956 -0.9011  1.7215
   16SAPS   C33 2080   1.727   6.422   7.272  0.2830  0.5564  0.4915
   16SAPS   H3X 2081   1.650   6.502   7.260 -0.4972 -0.3918 -1.1934
   16SAPS   H3Y 2082   1.828   6.463   7.247  0.2922 -1.3624 -3.5027
   16SAPS   C34 2083   1.727   6.371   7.419 -0.1430  0.2118  0.0504
   16SAPS   H4X 2084   1.797   6.285   7.430 -2.3349 -1.5337  1.3158
   16SAPS   H4Y 2085   1.629   6.332   7.454 -0.0626  0.3325  0.4106
   16SAPS   C35 2086   1.793   6.475   7.510 -0.1704 -0.2771  0.6432
   16SAPS   H5X 2087   1.738   6.570   7.494 -2.2732 -1.6932 -0.9924
   16SAPS   H5Y 2088   1.894   6.505   7.475  0.0565 -2.8146 -1.1460
   16SAPS   C36 2089   1.808   6.440   7.657  0.1540 -0.0381 -0.0979
   16SAPS   H6X 2090   1.859   6.342   7.671  0.1608  0.2481  2.4732
   16SAPS   H6Y 2091   1.710   6.424   7.708  0.1998  2.7864  1.0236
   16SAPS   C37 2092   1.889   6.538   7.743  0.8643 -0.0203 -0.3589
   16SAPS   H7X 2093   1.831   6.633   7.745  2.7898  1.1854  0.4031
   16SAPS   H7Y 2094   1.989   6.554   7.700  1.9766 -0.6056  1.8610
   16SAPS   C38 2095   1.907   6.475   7.881  0.5131 -0.2497  0.5893
   16SAPS   H8X 2096   1.987   6.398   7.878  1.0309  0.1561  2.5793
   16SAPS   H8Y 2097   1.810   6.438   7.920 -0.7680  2.3838  0.1114
   16SAPS   C39 2098   1.946   6.582   7.978 -0.1978 -0.2754 -0.3123
   16SAPS   H9X 2099   1.875   6.666   7.990  1.3301  0.7819  1.8710
   16SAPS   H9Y 2100   2.041   6.629   7.944  0.0651 -0.1623  0.5542
   16SAPS  C310 2101   1.956   6.525   8.113  0.1395 -0.2411 -0.1037
   16SAPS  H10X 2102   2.004   6.427   8.092 -0.1002 -0.2427 -0.6775
   16SAPS  H10Y 2103   1.854   6.523   8.158 -0.5211  4.1115 -0.8877
   16SAPS  C311 2104   2.044   6.594   8.210 -0.1562 -0.4302  0.1146
   16SAPS  H11X 2105   2.010   6.700   8.215  2.5317  0.5861 -1.5398
   16SAPS  H11Y 2106   2.142   6.597   8.159  0.6456 -2.5988  1.3712
   16SAPS  C312 2107   2.054   6.534   8.345 -0.3078  0.0442 -0.2650
   16SAPS  H12X 2108   2.122   6.447   8.332  0.5868  0.2353  2.6161
   16SAPS  H12Y 2109   1.952   6.520   8.385 -1.0369  2.6685 -0.9880
   16SAPS  C313 2110   2.137   6.620   8.448 -0.5077 -0.0573 -0.2603
   16SAPS  H13X 2111   2.084   6.713   8.477  1.3869  1.7111 -2.0993
   16SAPS  H13Y 2112   2.233   6.653   8.403 -0.5985 -1.1359 -1.2981
   16SAPS  C314 2113   2.173   6.534   8.569  0.2092  0.2362  0.3628
   16SAPS  H14X 2114   2.231   6.444   8.541  1.0260  0.9349 -0.2519
   16SAPS  H14Y 2115   2.079   6.492   8.611 -0.8555  2.3341  0.2490
   16SAPS  C315 2116   2.255   6.601   8.684 -0.2243 -0.3423  0.4451
   16SAPS  H15X 2117   2.200   6.688   8.725  0.8946  0.4960  0.2230
   16SAPS  H15Y 2118   2.341   6.644   8.629 -0.9023  0.9754  0.3773
   16SAPS  C316 2119   2.314   6.510   8.785 -0.9345 -0.3115  0.9194
   16SAPS  H16X 2120   2.374   6.430   8.737  2.6675  2.4121  0.4547
   16SAPS  H16Y 2121   2.232   6.450   8.831 -1.5018 -1.6723 -1.6786
   16SAPS  C317 2122   2.405   6.564   8.893 -0.3866 -0.2655 -0.2846
   16SAPS  H17X 2123   2.364   6.584   8.995 -1.4160  1.3536 -0.9677
   16SAPS  H17Y 2124   2.450   6.656   8.851  1.5734 -1.8051 -1.7167
   16SAPS  C318 2125   2.527   6.486   8.925  0.1690 -0.1619  0.4498
   16SAPS  H18X 2126   2.496   6.390   8.971 -0.1886  0.3661  1.3456
   16SAPS  H18Y 2127   2.599   6.538   8.992  0.3344  0.5533 -0.2627
   16SAPS  H18Z 2128   2.572   6.473   8.824 -2.4734  2.6295 -1.2739
   17SAPC     N 2129   1.082   1.864  10.666 -1.1456 -0.5416  0.2052
   17SAPC   C12 2130   1.163   1.940  10.549  0.0914 -0.1349 -0.3605
   17SAPC  H12A 2131   1.102   2.020  10.511 -1.0251 -1.5939 -1.7345
   17SAPC  H12B 2132   1.164   1.874  10.464  0.7159 -1.0017  0.2977
   17SAPC   C13 2133   1.169   1.747  10.700 -0.6490  0.0785  0.4627
   17SAPC  H13A 2134   1.267   1.785  10.727  0.1317 -0.8603 -0.9429
   17SAPC  H13B 2135   1.126   1.690  10.780 -1.6720 -1.4437 -1.1106
   17SAPC  H13C 2136   1.191   1.677  10.621  1.1376 -1.1862  1.9780
   17SAPC   C14 2137   1.062   1.953  10.782  0.6012 -0.8489  0.9567
   17SAPC  H14A 2138   0.987   2.029  10.763 -0.2435 -1.9895 -0.4797
   17SAPC  H14B 2139   1.048   1.891  10.869 -3.0949 -1.1399  0.3134
   17SAPC  H14C 2140   1.156   2.006  10.789  1.4936 -2.2639 -0.1030
   17SAPC   C15 2141   0.943   1.826  10.614 -1.1803  0.3506 -0.8408
   17SAPC  H15A 2142   0.883   1.795  10.698  1.0138  0.1804  0.7528
   17SAPC  H15B 2143   0.888   1.907  10.568 -1.9321  0.3733  0.0885
   17SAPC  H15C 2144   0.956   1.740  10.550  0.5993 -0.3863  0.4299
   17SAPC   C11 2145   1.305   1.988  10.563 -0.1950 -0.0988  0.0856
   17SAPC  H11A 2146   1.345   2.045  10.476  0.9659  0.9958  1.2968
   17SAPC  H11B 2147   1.370   1.899  10.577  1.2607  0.8511 -0.3020
   17SAPC     P 2148   1.266   2.216  10.685 -0.0793 -0.1719  0.2500
   17SAPC   O13 2149   1.193   2.222  10.813  0.1210 -0.4216  0.0844
   17SAPC   O14 2150   1.379   2.311  10.670 -0.7698 -0.0535  0.4538
   17SAPC   O12 2151   1.318   2.072  10.678 -0.1458  0.6331  0.3516
   17SAPC   O11 2152   1.159   2.238  10.564  0.5662 -0.0124 -0.6574
   17SAPC    C1 2153   1.053   2.337  10.575 -0.1446  0.3080 -0.4371
   17SAPC    HA 2154   0.986   2.320  10.661 -0.9853 -1.1589 -1.3405
   17SAPC    HB 2155   1.097   2.439  10.568 -0.8648  0.6287 -0.4154
   17SAPC    C2 2156   0.965   2.336  10.447  0.7445 -1.4681 -0.3185
   17SAPC    HS 2157   0.932   2.230  10.438 -0.4638 -1.3154  1.7719
   17SAPC   O21 2158   1.041   2.383  10.337  0.0263 -0.1489 -0.0133
   17SAPC   C21 2159   1.025   2.317  10.221  0.0542 -0.6934 -0.9291
   17SAPC   O22 2160   0.950   2.223  10.207 -0.0325 -0.0426  0.7699
   17SAPC   C22 2161   1.109   2.380  10.111  0.2658 -0.4365 -0.2586
   17SAPC   H2R 2162   1.099   2.490  10.114  1.9409 -0.1785 -2.0696
   17SAPC   H2S 2163   1.213   2.342  10.101 -0.3730 -1.5679 -4.6452
   17SAPC    C3 2164   0.846   2.437  10.475 -0.2874 -0.0202 -0.6955
   17SAPC    HX 2165   0.875   2.539  10.510 -0.7475 -0.2707  0.4614
   17SAPC    HY 2166   0.803   2.393  10.567  1.6074  0.1463  0.3204
   17SAPC   O31 2167   0.751   2.463  10.368 -0.3542 -0.2524 -0.2680
   17SAPC   C31 2168   0.678   2.361  10.342 -0.0477  0.5819 -0.2997
   17SAPC   O32 2169   0.691   2.252  10.395  0.1540 -0.3475 -0.4695
   17SAPC   C32 2170   0.571   2.396  10.247  0.3216 -0.9512 -0.0731
   17SAPC   H2X 2171   0.586   2.499  10.206 -0.5253 -1.3934 -1.5408
   17SAPC   H2Y 2172   0.474   2.401  10.299 -0.5362 -0.4577 -1.6617
   17SAPC   C23 2173   1.044   2.341   9.970 -0.1404  0.2168  0.8142
   17SAPC   H3R 2174   0.940   2.377   9.958 -0.1699  0.2495  1.1613
   17SAPC   H3S 2175   1.034   2.230   9.974  2.4648 -0.0834  0.7868
   17SAPC   C24 2176   1.122   2.376   9.843  0.1683 -0.2638 -0.8813
   17SAPC   H4R 2177   1.223   2.332   9.856  0.3282  0.2826 -0.2188
   17SAPC   H4S 2178   1.137   2.485   9.856 -1.7430  0.0330 -0.7636
   17SAPC   C25 2179   1.066   2.335   9.712 -0.1664 -0.4542 -0.2057
   17SAPC   H5R 2180   0.984   2.261   9.721 -0.3274 -0.5307 -2.0131
   17SAPC   C26 2181   1.105   2.368   9.589  0.1565  0.0422  0.3077
   17SAPC   H6R 2182   1.040   2.342   9.505  1.5701  0.9967 -1.1383
   17SAPC   C27 2183   1.212   2.467   9.556 -0.0911  0.1411 -1.3932
   17SAPC   H7R 2184   1.308   2.418   9.533  0.4228  0.1442  0.5573
   17SAPC   H7S 2185   1.222   2.530   9.647  1.3520  1.4105 -2.3902
   17SAPC   C28 2186   1.182   2.567   9.443 -0.4281 -0.2372 -0.3774
   17SAPC   H8R 2187   1.130   2.658   9.475  0.5131  1.3296 -2.9426
   17SAPC   C29 2188   1.204   2.559   9.315 -0.2781 -0.1399 -0.5731
   17SAPC   H9R 2189   1.202   2.654   9.260  2.9124  1.5390  1.8259
   17SAPC  C210 2190   1.277   2.442   9.257  0.6207  0.0283  0.2578
   17SAPC  H10R 2191   1.360   2.411   9.325  2.0653  1.0135 -0.9915
   17SAPC  H10S 2192   1.326   2.470   9.161 -2.8571  0.5809 -1.5225
   17SAPC  C211 2193   1.188   2.321   9.221  0.1567 -0.0602 -0.2151
   17SAPC  H11R 2194   1.133   2.273   9.303  0.5253  0.6819  0.4741
   17SAPC  C212 2195   1.141   2.286   9.104 -0.1432 -0.1501 -0.1615
   17SAPC  H12R 2196   1.058   2.214   9.108  0.9544 -1.3913  1.7685
   17SAPC  C213 2197   1.161   2.354   8.969  0.2889 -0.1045 -0.7384
   17SAPC  H13R 2198   1.189   2.276   8.895  0.2872  0.2304 -1.0932
   17SAPC  H13S 2199   1.248   2.422   8.974  0.4620 -0.3777  0.0509
   17SAPC  C214 2200   1.041   2.431   8.923  0.4393 -0.1698 -0.3548
   17SAPC  H14R 2201   1.001   2.506   8.993  1.5365  0.2679 -0.1823
   17SAPC  C215 2202   0.977   2.425   8.807 -0.2827  0.2402 -0.0879
   17SAPC  H15R 2203   0.892   2.492   8.787 -1.2726 -0.6181  1.1016
   17SAPC  C216 2204   1.005   2.333   8.689  0.7160  0.7711 -0.5625
   17SAPC  H16R 2205   1.111   2.299   8.696  0.7027  0.9377  0.6340
   17SAPC  H16S 2206   0.991   2.396   8.599  1.2572  0.8343 -0.6070
   17SAPC  C217 2207   0.918   2.207   8.674  0.5579  0.4473  0.6621
   17SAPC  H17R 2208   0.960   2.150   8.588 -0.3359 -0.6342  0.9065
   17SAPC  H17S 2209   0.811   2.229   8.651  1.0456 -0.0601 -2.6839
   17SAPC  C218 2210   0.931   2.109   8.790 -0.0444  0.1381 -1.4288
   17SAPC  H18R 2211   0.907   2.159   8.886 -1.3085  1.1512 -2.2312
   17SAPC  H18S 2212   1.037   2.076   8.795 -0.2943 -0.5900 -0.5028
   17SAPC  C219 2213   0.849   1.980   8.786 -0.3020 -0.1028 -0.3367
   17SAPC  H19R 2214   0.893   1.929   8.698  1.8971  2.1727 -0.6708
   17SAPC  H19S 2215   0.743   2.004   8.762 -0.5188 -0.5203  0.1779
   17SAPC  C220 2216   0.861   1.897   8.914  0.0277  0.4465 -0.2305
   17SAPC  H20R 2217   0.831   1.792   8.892  2.3479 -0.2782 -0.1815
   17SAPC  H20S 2218   0.811   1.941   9.002  2.3939  1.6362  0.6032
   17SAPC  H20T 2219   0.967   1.895   8.945 -0.2775  2.0872  1.0629
   17SAPC   C33 2220   0.545   2.303  10.126  0.3942  0.3203 -0.6448
   17SAPC   H3X 2221   0.459   2.349  10.071  0.6656  0.6972 -0.7560
   17SAPC   H3Y 2222   0.514   2.203  10.165 -0.9911  0.5867 -0.9988
   17SAPC   C34 2223   0.652   2.316  10.029  0.5668  0.3540 -0.3652
   17SAPC   H4X 2224   0.746   2.277  10.073 -0.1226  0.5094  1.3272
   17SAPC   H4Y 2225   0.677   2.421  10.004  2.9652  0.0046  0.2525
   17SAPC   C35 2226   0.615   2.239   9.900  0.1530 -0.0235 -0.3756
   17SAPC   H5X 2227   0.510   2.267   9.875  0.2917  1.0230  0.1236
   17SAPC   H5Y 2228   0.611   2.129   9.914  0.0952 -0.0522 -0.6166
   17SAPC   C36 2229   0.718   2.268   9.789  0.1583 -0.5905 -0.4383
   17SAPC   H6X 2230   0.818   2.244   9.831 -0.8576 -2.0370  1.3102
   17SAPC   H6Y 2231   0.714   2.376   9.762  0.7016 -0.6839 -0.9168
   17SAPC   C37 2232   0.711   2.180   9.667 -0.1061  0.6372  0.0380
   17SAPC   H7X 2233   0.717   2.071   9.684  2.3717  0.4087 -1.8222
   17SAPC   H7Y 2234   0.802   2.215   9.615  0.1286  1.7631  1.1499
   17SAPC   C38 2235   0.589   2.201   9.583  0.2605 -0.3331 -0.1850
   17SAPC   H8X 2236   0.570   2.310   9.587  0.3651 -0.0570 -3.8875
   17SAPC   H8Y 2237   0.510   2.144   9.636  0.6365 -0.0797  0.6751
   17SAPC   C39 2238   0.588   2.153   9.437 -0.3147  0.1069  0.5747
   17SAPC   H9X 2239   0.502   2.188   9.375  1.1291  0.0376 -1.5757
   17SAPC   H9Y 2240   0.589   2.042   9.441  2.4151  0.0892  2.6314
   17SAPC  C310 2241   0.705   2.206   9.344  0.5110  0.3804  0.1844
   17SAPC  H10X 2242   0.804   2.175   9.383 -0.2404 -1.1995  0.9113
   17SAPC  H10Y 2243   0.700   2.317   9.335  2.1933  0.6414  1.8651
   17SAPC  C311 2244   0.701   2.143   9.201 -0.3350  0.4170  0.6456
   17SAPC  H11X 2245   0.722   2.035   9.215  2.9117  0.7525 -0.7120
   17SAPC  H11Y 2246   0.776   2.197   9.139 -2.3694  1.4737 -1.0638
   17SAPC  C312 2247   0.567   2.169   9.126  0.2033 -0.1230  0.8414
   17SAPC  H12X 2248   0.532   2.272   9.148 -0.2945 -0.6852  2.9037
   17SAPC  H12Y 2249   0.498   2.098   9.177 -0.7373 -0.2104 -0.4918
   17SAPC  C313 2250   0.574   2.148   8.972 -0.0914 -0.0245  0.2470
   17SAPC  H13X 2251   0.587   2.043   8.940  0.6551  0.7976 -2.4089
   17SAPC  H13Y 2252   0.667   2.199   8.939  0.6904 -1.3615  0.3320
   17SAPC  C314 2253   0.453   2.205   8.896 -0.1441 -0.1330 -0.5060
   17SAPC  H14X 2254   0.441   2.315   8.905  1.4265 -0.0908  2.4791
   17SAPC  H14Y 2255   0.360   2.163   8.941 -0.6455  1.0474 -0.3895
   17SAPC  C315 2256   0.453   2.168   8.743  0.3219 -0.8763 -0.3984
   17SAPC  H15X 2257   0.459   2.058   8.728  0.0464 -1.1784  1.4275
   17SAPC  H15Y 2258   0.542   2.215   8.696 -0.7749  1.9625  0.1429
   17SAPC  C316 2259   0.332   2.237   8.677  0.6612  0.3765 -0.3595
   17SAPC  H16X 2260   0.342   2.346   8.701  1.1821 -0.2380  2.6754
   17SAPC  H16Y 2261   0.245   2.184   8.721  1.3720  0.1259  0.7979
   17SAPC  C317 2262   0.332   2.228   8.524 -0.7304  0.7824  0.1804
   17SAPC  H17X 2263   0.346   2.120   8.501 -2.7494 -0.3525  3.5051
   17SAPC  H17Y 2264   0.423   2.285   8.496 -0.1002  0.1444  0.8907
   17SAPC  C318 2265   0.216   2.280   8.451  0.0988 -0.6700 -0.2220
   17SAPC  H18X 2266   0.179   2.380   8.483 -1.6517 -1.2457 -0.3061
   17SAPC  H18Y 2267   0.218   2.280   8.339  0.9378  2.2670 -0.2734
   17SAPC  H18Z 2268   0.130   2.213   8.472 -0.1194 -0.5941 -0.8420
   18SAPC     N 2269   1.103   1.051  10.538  0.1021  1.1225 -0.7678
   18SAPC   C12 2270   1.134   1.160  10.433  0.1048  0.2105 -0.3756
   18SAPC  H12A 2271   1.202   1.115  10.362 -0.5187 -2.4754  0.5687
   18SAPC  H12B 2272   1.191   1.238  10.481 -1.2837  0.3477  1.1642
   18SAPC   C13 2273   1.017   0.951  10.480  0.1156  0.5985 -0.3609
   18SAPC  H13A 2274   0.982   0.885  10.558 -1.3567  2.4160  0.6053
   18SAPC  H13B 2275   0.931   0.996  10.433  1.1232  1.9039 -1.0431
   18SAPC  H13C 2276   1.062   0.891  10.402  1.0867  1.5603 -0.5764
   18SAPC   C14 2277   1.228   0.985  10.599  0.5515  0.0253 -0.1678
   18SAPC  H14A 2278   1.265   0.939  10.508 -1.4140  1.2570 -1.6848
   18SAPC  H14B 2279   1.302   1.053  10.637 -0.1974  1.1753 -0.7086
   18SAPC  H14C 2280   1.204   0.917  10.679  0.1741  1.0683  0.6301
   18SAPC   C15 2281   1.040   1.109  10.663 -0.1255  0.1773  0.4710
   18SAPC  H15A 2282   1.011   1.030  10.731  3.8807 -0.1042  2.1083
   18SAPC  H15B 2283   1.107   1.173  10.720 -0.8262 -0.3776  1.9866
   18SAPC  H15C 2284   0.951   1.167  10.644  1.3272  1.8121 -1.8424
   18SAPC   C11 2285   1.010   1.229  10.369 -1.0899  0.3675 -0.2509
   18SAPC  H11A 2286   0.932   1.162  10.329 -0.1122 -0.9532 -0.0107
   18SAPC  H11B 2287   1.060   1.286  10.287  2.5999  1.3307  2.3710
   18SAPC     P 2288   0.995   1.450  10.515 -0.2273  0.0432  0.4324
   18SAPC   O13 2289   0.900   1.491  10.619 -0.2711  0.4342 -0.1356
   18SAPC   O14 2290   1.139   1.443  10.543 -0.1243 -0.1076 -0.4275
   18SAPC   O12 2291   0.946   1.313  10.465 -0.1066 -0.1723 -0.0034
   18SAPC   O11 2292   0.986   1.548  10.392 -0.2150  0.2348 -0.3968
   18SAPC    C1 2293   0.870   1.604  10.328  0.5782  0.3640 -0.4797
   18SAPC    HA 2294   0.786   1.593  10.399  2.1071  3.2465  1.9844
   18SAPC    HB 2295   0.875   1.714  10.314 -0.7151  0.7007  1.3766
   18SAPC    C2 2296   0.853   1.535  10.196 -0.4921 -0.4765 -0.0284
   18SAPC    HS 2297   0.850   1.425  10.207 -0.2733 -0.7327 -2.0535
   18SAPC   O21 2298   0.968   1.576  10.118 -0.5144 -0.3672 -0.0694
   18SAPC   C21 2299   1.030   1.488  10.047 -1.0319 -0.5101 -0.5003
   18SAPC   O22 2300   0.996   1.371  10.035  0.6374 -0.0865 -0.1956
   18SAPC   C22 2301   1.160   1.552   9.988  0.1395 -0.5306  0.3192
   18SAPC   H2R 2302   1.134   1.648   9.940  0.3421 -0.9008 -0.5430
   18SAPC   H2S 2303   1.224   1.570  10.078 -0.7289  0.7879  0.7045
   18SAPC    C3 2304   0.725   1.578  10.115  0.6843 -0.9002  0.5759
   18SAPC    HX 2305   0.741   1.678  10.070  0.2836 -1.7273 -1.5185
   18SAPC    HY 2306   0.639   1.588  10.185 -0.4458 -1.0058 -0.7460
   18SAPC   O31 2307   0.692   1.490  10.008 -0.1562  0.0421  0.0030
   18SAPC   C31 2308   0.590   1.412  10.024  0.5502  0.1453 -0.2040
   18SAPC   O32 2309   0.521   1.393  10.121  0.4790  0.0866  0.2474
   18SAPC   C32 2310   0.554   1.348   9.889 -0.1498  0.2905  0.7532
   18SAPC   H2X 2311   0.625   1.266   9.868  0.1964  0.3583  1.6163
   18SAPC   H2Y 2312   0.562   1.425   9.808 -2.7615 -1.9811 -1.8735
   18SAPC   C23 2313   1.233   1.450   9.887  0.6251  0.5272 -0.7214
   18SAPC   H3R 2314   1.164   1.423   9.805 -0.4183  0.4874  0.1425
   18SAPC   H3S 2315   1.250   1.354   9.940 -1.5862  0.1353 -0.6532
   18SAPC   C24 2316   1.366   1.493   9.820  0.5128 -0.3915 -0.0302
   18SAPC   H4R 2317   1.408   1.411   9.759 -1.4236 -2.1191  0.8596
   18SAPC   H4S 2318   1.432   1.507   9.909  0.1336 -1.7855  0.4920
   18SAPC   C25 2319   1.340   1.627   9.744 -0.0104  0.5619 -0.2844
   18SAPC   H5R 2320   1.327   1.711   9.814 -1.1360 -0.5217  0.8537
   18SAPC   C26 2321   1.344   1.648   9.608  0.0177 -0.2492  0.0624
   18SAPC   H6R 2322   1.324   1.748   9.566 -0.2980 -0.8375 -1.2686
   18SAPC   C27 2323   1.378   1.535   9.506 -0.2245 -0.3396  0.5858
   18SAPC   H7R 2324   1.319   1.444   9.530 -0.2428 -0.5503 -0.2190
   18SAPC   H7S 2325   1.484   1.502   9.520  0.8953  2.8054  0.2821
   18SAPC   C28 2326   1.349   1.557   9.357  0.6553 -0.3781 -0.4279
   18SAPC   H8R 2327   1.436   1.599   9.304  0.6606  0.7820  0.4408
   18SAPC   C29 2328   1.227   1.547   9.297 -0.8551 -0.0303 -0.2309
   18SAPC   H9R 2329   1.226   1.562   9.188  1.8615 -0.7073 -0.4330
   18SAPC  C210 2330   1.102   1.508   9.372 -0.8851  0.3435 -0.4407
   18SAPC  H10R 2331   1.100   1.515   9.482  1.0059 -2.6937 -0.0953
   18SAPC  H10S 2332   1.089   1.398   9.367  2.4630 -0.2028  0.3770
   18SAPC  C211 2333   0.990   1.576   9.301  0.5193  0.0356  0.5185
   18SAPC  H11R 2334   0.970   1.679   9.334  0.9600  0.0335  0.8077
   18SAPC  C212 2335   0.901   1.519   9.208 -0.5174  0.5702  0.1678
   18SAPC  H12R 2336   0.831   1.588   9.158  0.4855  0.1541 -1.9485
   18SAPC  C213 2337   0.907   1.381   9.165 -0.0921  0.5937  0.0907
   18SAPC  H13R 2338   0.807   1.350   9.129  1.0032 -1.7851 -1.1457
   18SAPC  H13S 2339   0.932   1.309   9.246  0.5052 -0.4415 -0.9793
   18SAPC  C214 2340   1.022   1.358   9.065 -0.0609  0.9134  0.1211
   18SAPC  H14R 2341   1.122   1.338   9.105 -0.1512  1.2622  0.5294
   18SAPC  C215 2342   1.005   1.363   8.932 -0.5527  0.8363  0.6242
   18SAPC  H15R 2343   1.087   1.327   8.868 -1.5673 -1.4389  0.5320
   18SAPC  C216 2344   0.880   1.392   8.855  0.0165  0.1487 -0.9854
   18SAPC  H16R 2345   0.891   1.446   8.758 -0.7564  2.8318  0.3118
   18SAPC  H16S 2346   0.814   1.460   8.913 -0.6429 -2.6103  1.7524
   18SAPC  C217 2347   0.808   1.260   8.831  0.3978  0.8206 -0.0452
   18SAPC  H17R 2348   0.786   1.215   8.931 -0.4884 -0.1000 -0.6364
   18SAPC  H17S 2349   0.863   1.197   8.758 -2.1864  1.3210 -2.6140
   18SAPC  C218 2350   0.674   1.264   8.762  0.1766  0.2763  0.7234
   18SAPC  H18R 2351   0.605   1.342   8.801 -0.5095  2.5462 -4.1325
   18SAPC  H18S 2352   0.627   1.164   8.760 -1.8839  1.1878  0.7595
   18SAPC  C219 2353   0.681   1.281   8.605 -0.6830 -0.4632  0.4038
   18SAPC  H19R 2354   0.764   1.222   8.562 -0.3694  1.3204 -1.6384
   18SAPC  H19S 2355   0.718   1.385   8.587  3.2762 -1.6468  0.7530
   18SAPC  C220 2356   0.548   1.252   8.526 -0.7827  0.0638 -0.1647
   18SAPC  H20R 2357   0.531   1.144   8.509 -4.9803  0.2971  1.3548
   18SAPC  H20S 2358   0.555   1.305   8.429  0.3990  1.2817  0.5406
   18SAPC  H20T 2359   0.469   1.295   8.592 -1.0854 -0.6319 -0.0683
   18SAPC   C33 2360   0.408   1.298   9.885  0.5559 -0.3576 -0.2608
   18SAPC   H3X 2361   0.339   1.382   9.908 -0.6078 -1.0172 -1.2466
   18SAPC   H3Y 2362   0.406   1.211   9.955  1.7793 -1.7625 -1.8893
   18SAPC   C34 2363   0.358   1.261   9.744 -0.1669 -0.5349  0.2393
   18SAPC   H4X 2364   0.441   1.213   9.686 -0.3975 -1.2361  0.4717
   18SAPC   H4Y 2365   0.326   1.347   9.681  2.4022 -0.2447 -0.8152
   18SAPC   C35 2366   0.234   1.170   9.758 -0.3932 -0.1055 -0.0806
   18SAPC   H5X 2367   0.143   1.233   9.771 -0.2668  0.3495 -1.3092
   18SAPC   H5Y 2368   0.253   1.104   9.845  2.9321 -0.5963 -1.0463
   18SAPC   C36 2369   0.218   1.103   9.623 -0.0774  0.3016  0.0738
   18SAPC   H6X 2370   0.317   1.057   9.599 -0.6132 -0.7399 -0.2006
   18SAPC   H6Y 2371   0.187   1.178   9.547 -2.8921 -0.3866  0.4248
   18SAPC   C37 2372   0.105   1.001   9.630 -0.6673  0.3554  0.4463
   18SAPC   H7X 2373   0.027   1.047   9.693  0.1419  1.7428  0.4616
   18SAPC   H7Y 2374   0.138   0.915   9.693 -1.0432  0.5403  0.8982
   18SAPC   C38 2375   0.056   0.951   9.489 -0.7731 -0.5201 -0.0236
   18SAPC   H8X 2376   0.127   0.871   9.459 -1.7847 -1.6801  0.5685
   18SAPC   H8Y 2377   0.064   1.032   9.413  0.5320  0.0904  0.7274
   18SAPC   C39 2378  -0.075   0.880   9.490  0.4590 -0.0733  0.2387
   18SAPC   H9X 2379  -0.149   0.960   9.508 -0.1237 -0.4879 -0.2727
   18SAPC   H9Y 2380  -0.079   0.800   9.567 -2.1417 -2.0800 -1.8128
   18SAPC  C310 2381  -0.124   0.824   9.354 -0.0961 -0.1446 -0.5294
   18SAPC  H10X 2382  -0.227   0.784   9.367 -0.7101  1.5589  0.0696
   18SAPC  H10Y 2383  -0.072   0.731   9.321 -2.3918 -1.4108 -0.7444
   18SAPC  C311 2384  -0.114   0.931   9.244  0.4165 -0.0255  0.1812
   18SAPC  H11X 2385  -0.006   0.951   9.227  0.3265  0.7535  0.5001
   18SAPC  H11Y 2386  -0.173   1.021   9.273 -0.5916  0.3799 -2.7832
   18SAPC  C312 2387  -0.168   0.880   9.111  0.4651 -0.4995  0.3374
   18SAPC  H12X 2388  -0.278   0.872   9.102  0.4408  0.3262 -0.1519
   18SAPC  H12Y 2389  -0.133   0.775   9.094  1.0326 -0.3980  0.8365
   18SAPC  C313 2390  -0.119   0.942   8.975 -0.0808 -0.2418 -0.4468
   18SAPC  H13X 2391  -0.015   0.901   8.978  0.6549  1.5255  3.1145
   18SAPC  H13Y 2392  -0.099   1.050   8.988  1.0959 -0.4644 -0.1996
   18SAPC  C314 2393  -0.199   0.921   8.849  0.3667  0.7062  0.9843
   18SAPC  H14X 2394  -0.298   0.971   8.857  0.4254  1.0272 -0.1460
   18SAPC  H14Y 2395  -0.206   0.810   8.838  1.1536  0.6342  1.1337
   18SAPC  C315 2396  -0.131   0.960   8.715 -0.8848 -0.1010 -0.3595
   18SAPC  H15X 2397  -0.176   0.913   8.625 -2.2368 -0.7802  0.6431
   18SAPC  H15Y 2398  -0.026   0.927   8.731 -0.6824  1.4953  2.1157
   18SAPC  C316 2399  -0.120   1.108   8.677  0.2020  0.4369 -0.3161
   18SAPC  H16X 2400  -0.045   1.116   8.595  0.8220  1.4471  0.3342
   18SAPC  H16Y 2401  -0.080   1.161   8.766  2.3600 -0.7034 -0.5517
   18SAPC  C317 2402  -0.251   1.165   8.618 -0.6915 -0.2630  0.2740
   18SAPC  H17X 2403  -0.325   1.174   8.700 -1.9645  0.0783 -0.8842
   18SAPC  H17Y 2404  -0.277   1.089   8.541  0.8735 -0.3068 -0.2568
   18SAPC  C318 2405  -0.239   1.305   8.557  0.2717  0.3619  0.5906
   18SAPC  H18X 2406  -0.201   1.381   8.628  1.9148  1.6363 -1.5305
   18SAPC  H18Y 2407  -0.342   1.326   8.520 -0.2728 -3.2155 -0.3759
   18SAPC  H18Z 2408  -0.175   1.308   8.466 -0.8062  0.1706 -0.1963
   19SAPC     N 2409   0.562   4.074  10.608 -0.1715 -0.4577 -0.2852
   19SAPC   C12 2410   0.506   4.125  10.469  0.0745 -0.6185  0.2353
   19SAPC  H12A 2411   0.575   4.093  10.392  0.5724  0.5933  0.1675
   19SAPC  H12B 2412   0.514   4.232  10.465  1.2014 -0.5384  2.8617
   19SAPC   C13 2413   0.715   4.114  10.606 -0.0686  0.3186 -0.3408
   19SAPC  H13A 2414   0.760   4.113  10.705 -1.1371  1.2980  0.1722
   19SAPC  H13B 2415   0.773   4.057  10.535 -1.0944 -0.9611 -0.1994
   19SAPC  H13C 2416   0.723   4.215  10.570 -2.9630  0.6479 -0.2826
   19SAPC   C14 2417   0.497   4.154  10.711  0.3870 -0.1213 -0.3055
   19SAPC  H14A 2418   0.541   4.249  10.736  0.0342  0.1033 -0.5343
   19SAPC  H14B 2419   0.391   4.166  10.694 -0.1726  1.0338  3.1744
   19SAPC  H14C 2420   0.506   4.100  10.804  0.1475  2.0990  1.0764
   19SAPC   C15 2421   0.542   3.932  10.629  0.2569  0.0354  0.0879
   19SAPC  H15A 2422   0.443   3.897  10.655  0.8041 -0.5897  1.4728
   19SAPC  H15B 2423   0.563   3.875  10.540 -0.1653  2.5702 -1.7149
   19SAPC  H15C 2424   0.604   3.886  10.705 -1.9043 -0.6990  1.5256
   19SAPC   C11 2425   0.365   4.076  10.427  0.0127  0.0179  0.5151
   19SAPC  H11A 2426   0.380   3.966  10.429  0.1612 -0.0265 -1.1859
   19SAPC  H11B 2427   0.344   4.097  10.320  0.6795 -0.5141  0.2687
   19SAPC     P 2428   0.122   4.116  10.478  0.0349  0.0174 -0.1058
   19SAPC   O13 2429   0.083   3.980  10.438 -0.3314 -0.6513  0.6624
   19SAPC   O14 2430   0.043   4.182  10.582  0.4323 -0.0402  0.7828
   19SAPC   O12 2431   0.273   4.128  10.516 -0.1869 -0.0349  0.6598
   19SAPC   O11 2432   0.121   4.210  10.351  0.2291 -0.4331  0.2688
   19SAPC    C1 2433  -0.001   4.290  10.335  0.3970 -0.1367 -0.2009
   19SAPC    HA 2434  -0.089   4.223  10.337  0.4577 -0.2147  1.6580
   19SAPC    HB 2435  -0.024   4.355  10.421 -6.0933 -1.1627 -0.6707
   19SAPC    C2 2436  -0.009   4.371  10.204  0.0855  0.1311 -0.6782
   19SAPC    HS 2437  -0.097   4.439  10.208 -0.2788 -0.3670  0.4427
   19SAPC   O21 2438  -0.009   4.293  10.079 -0.6608 -0.3053  0.0140
   19SAPC   C21 2439  -0.133   4.265  10.043 -0.4007 -0.4952  0.4535
   19SAPC   O22 2440  -0.236   4.297  10.101 -0.3875 -0.1239  0.3151
   19SAPC   C22 2441  -0.141   4.189   9.912 -0.1824 -0.1331 -0.3581
   19SAPC   H2R 2442  -0.111   4.256   9.829  0.4941 -0.2263 -0.1921
   19SAPC   H2S 2443  -0.087   4.096   9.941 -2.1015 -1.7552 -1.6227
   19SAPC    C3 2444   0.112   4.459  10.196  0.5024 -0.5907  0.5060
   19SAPC    HX 2445   0.198   4.392  10.175  0.1377 -0.9612  0.1867
   19SAPC    HY 2446   0.125   4.507  10.295 -3.3827 -2.3895  2.0879
   19SAPC   O31 2447   0.089   4.568  10.103  0.3125 -0.4202 -0.1305
   19SAPC   C31 2448   0.173   4.572   9.998  0.0021 -0.1990  0.2022
   19SAPC   O32 2449   0.258   4.493   9.963  0.1037  0.4658  0.2123
   19SAPC   C32 2450   0.135   4.700   9.915 -0.1441 -0.2098  0.3080
   19SAPC   H2X 2451   0.206   4.780   9.946 -1.1117  1.0386 -0.6275
   19SAPC   H2Y 2452   0.033   4.738   9.933 -0.6008 -1.1564 -0.2380
   19SAPC   C23 2453  -0.279   4.126   9.871 -0.1529  0.3153  0.0404
   19SAPC   H3R 2454  -0.356   4.165   9.941  1.1209  0.4278  1.4361
   19SAPC   H3S 2455  -0.276   4.015   9.867  2.3016  0.0813  3.4854
   19SAPC   C24 2456  -0.325   4.183   9.738  0.0186 -0.4668  0.2723
   19SAPC   H4R 2457  -0.258   4.154   9.654 -0.7899 -0.4496 -0.3922
   19SAPC   H4S 2458  -0.325   4.294   9.734  3.4760 -0.3417  0.1678
   19SAPC   C25 2459  -0.465   4.154   9.706  1.3187 -0.0130  0.1030
   19SAPC   H5R 2460  -0.524   4.130   9.796 -0.4857 -1.4489 -1.3915
   19SAPC   C26 2461  -0.522   4.136   9.585 -0.0872 -0.7160 -0.1669
   19SAPC   H6R 2462  -0.632   4.122   9.585 -0.3966  1.2445  1.3383
   19SAPC   C27 2463  -0.455   4.156   9.451  0.3488  0.1615  0.2797
   19SAPC   H7R 2464  -0.432   4.061   9.398  2.2891  0.7790 -0.0693
   19SAPC   H7S 2465  -0.358   4.210   9.465 -0.7543  2.2048  0.3701
   19SAPC   C28 2466  -0.530   4.251   9.358 -0.6482 -0.3598 -0.0920
   19SAPC   H8R 2467  -0.610   4.307   9.409  1.1656  1.3857  0.9701
   19SAPC   C29 2468  -0.513   4.257   9.225  0.4866  0.3992  0.0972
   19SAPC   H9R 2469  -0.569   4.326   9.159  3.1311  2.6428 -0.0028
   19SAPC  C210 2470  -0.417   4.184   9.136 -0.1439  0.0125 -0.4579
   19SAPC  H10R 2471  -0.325   4.151   9.189 -0.0585  0.8958 -0.0398
   19SAPC  H10S 2472  -0.388   4.252   9.053  0.4136  0.8834  0.4241
   19SAPC  C211 2473  -0.469   4.051   9.083  0.2626  0.4521  0.1531
   19SAPC  H11R 2474  -0.510   3.980   9.156  0.4938  0.1055 -0.0501
   19SAPC  C212 2475  -0.481   4.010   8.953 -0.1879 -0.6130  0.0590
   19SAPC  H12R 2476  -0.532   3.916   8.928 -2.0743  0.5469 -0.6638
   19SAPC  C213 2477  -0.434   4.082   8.831  0.4134 -0.2178  0.4262
   19SAPC  H13R 2478  -0.344   4.026   8.798 -0.4145 -0.9499 -0.6940
   19SAPC  H13S 2479  -0.401   4.184   8.860 -1.8598  0.9744 -0.8188
   19SAPC  C214 2480  -0.540   4.087   8.724 -0.5720  0.6879  0.4425
   19SAPC  H14R 2481  -0.637   4.131   8.748 -1.4454 -1.6758  1.5944
   19SAPC  C215 2482  -0.530   4.028   8.604 -0.2957 -0.6701 -0.1943
   19SAPC  H15R 2483  -0.622   4.016   8.544 -0.3162  0.5536 -0.4469
   19SAPC  C216 2484  -0.418   3.952   8.542 -0.3312 -0.0725 -0.5045
   19SAPC  H16R 2485  -0.452   3.879   8.466  2.7564 -1.3340 -0.8108
   19SAPC  H16S 2486  -0.370   3.891   8.621  0.2859  3.5111  2.1301
   19SAPC  C217 2487  -0.303   4.038   8.488  0.8226 -0.3363  0.3106
   19SAPC  H17R 2488  -0.256   4.102   8.565  1.1748  1.2772 -1.1878
   19SAPC  H17S 2489  -0.345   4.111   8.416 -1.1899 -0.5377  1.2142
   19SAPC  C218 2490  -0.191   3.961   8.421 -0.5273  0.3252  0.3450
   19SAPC  H18R 2491  -0.122   4.036   8.376  0.7038 -0.0191  1.5949
   19SAPC  H18S 2492  -0.242   3.894   8.348 -1.8842 -0.3608  1.8430
   19SAPC  C219 2493  -0.123   3.867   8.515 -0.1997  0.4696  0.0670
   19SAPC  H19R 2494  -0.203   3.798   8.549 -0.2025 -0.4701 -1.7526
   19SAPC  H19S 2495  -0.078   3.932   8.593  1.8357  0.6146 -1.1648
   19SAPC  C220 2496  -0.016   3.782   8.453 -0.2286 -0.4201 -0.3750
   19SAPC  H20R 2497   0.043   3.731   8.532  0.0395 -1.1213 -1.0220
   19SAPC  H20S 2498   0.053   3.841   8.389 -1.6023  0.9427 -0.6509
   19SAPC  H20T 2499  -0.062   3.701   8.392 -1.1260 -0.6789  0.6198
   19SAPC   C33 2500   0.160   4.688   9.761 -0.1321  1.3543  0.0867
   19SAPC   H3X 2501   0.262   4.649   9.743 -0.8202 -0.4729 -0.0253
   19SAPC   H3Y 2502   0.160   4.793   9.724  1.6667  1.5455  0.5347
   19SAPC   C34 2503   0.062   4.609   9.682  0.0732  0.1143  0.2967
   19SAPC   H4X 2504  -0.034   4.611   9.737 -0.0611 -0.5294  0.0944
   19SAPC   H4Y 2505   0.082   4.500   9.690 -0.3499  0.0572  0.5840
   19SAPC   C35 2506   0.050   4.652   9.532  0.1607 -0.3467  0.0086
   19SAPC   H5X 2507   0.149   4.630   9.486  0.3189 -0.3742  0.3570
   19SAPC   H5Y 2508   0.049   4.763   9.529 -0.1300 -0.3050  1.2880
   19SAPC   C36 2509  -0.071   4.593   9.455  0.4506 -0.7549  0.0935
   19SAPC   H6X 2510  -0.158   4.590   9.523  1.8152 -4.9415  2.0359
   19SAPC   H6Y 2511  -0.051   4.486   9.432  1.0669 -0.4852 -0.6979
   19SAPC   C37 2512  -0.091   4.678   9.331 -0.6475  0.5558 -0.2136
   19SAPC   H7X 2513   0.009   4.681   9.282  0.2199  0.2631  1.4466
   19SAPC   H7Y 2514  -0.126   4.782   9.347  0.3963  0.9210 -0.1895
   19SAPC   C38 2515  -0.195   4.600   9.235 -0.1109  0.5384 -0.8080
   19SAPC   H8X 2516  -0.290   4.577   9.288 -0.1350  2.8248  0.2980
   19SAPC   H8Y 2517  -0.160   4.495   9.222 -0.0343  0.0457  2.4776
   19SAPC   C39 2518  -0.213   4.677   9.108 -0.9561 -0.2040 -0.1753
   19SAPC   H9X 2519  -0.120   4.715   9.061 -0.9353  0.1056  0.1190
   19SAPC   H9Y 2520  -0.261   4.773   9.136  1.1935  0.6882  0.6664
   19SAPC  C310 2521  -0.296   4.612   8.997  0.2709 -0.0883 -0.9095
   19SAPC  H10X 2522  -0.378   4.555   9.045  1.1791 -0.5913  0.1114
   19SAPC  H10Y 2523  -0.237   4.540   8.937 -0.4811 -0.2148 -1.5045
   19SAPC  C311 2524  -0.356   4.708   8.896  0.0634  0.4244 -0.0634
   19SAPC  H11X 2525  -0.294   4.786   8.848  1.5844 -0.1594  0.8827
   19SAPC  H11Y 2526  -0.430   4.770   8.950  1.4765  1.8015  0.3461
   19SAPC  C312 2527  -0.436   4.636   8.781  0.6972 -0.2482 -0.5939
   19SAPC  H12X 2528  -0.518   4.704   8.750  0.6659  0.3046  0.6756
   19SAPC  H12Y 2529  -0.478   4.537   8.809  1.2700 -0.8140 -1.6642
   19SAPC  C313 2530  -0.343   4.614   8.656 -0.5814  0.5233 -0.6825
   19SAPC  H13X 2531  -0.248   4.567   8.689 -1.4525 -0.7956  0.0089
   19SAPC  H13Y 2532  -0.304   4.712   8.620  0.0027  1.1193  1.4093
   19SAPC  C314 2533  -0.389   4.517   8.553  0.5000 -0.0737 -0.4703
   19SAPC  H14X 2534  -0.470   4.552   8.485 -0.2090 -0.6703  0.0416
   19SAPC  H14Y 2535  -0.430   4.428   8.606 -0.5205 -0.6382 -2.1237
   19SAPC  C315 2536  -0.267   4.473   8.467 -0.4624  0.3310 -0.3105
   19SAPC  H15X 2537  -0.282   4.373   8.421 -1.6937  0.2533  0.2381
   19SAPC  H15Y 2538  -0.176   4.483   8.529 -1.3040  1.7432  0.7521
   19SAPC  C316 2539  -0.240   4.573   8.354  0.7386 -0.5023  0.3316
   19SAPC  H16X 2540  -0.244   4.679   8.388 -0.3553 -0.0889 -1.0202
   19SAPC  H16Y 2541  -0.322   4.565   8.281 -0.5680  0.9696  1.5643
   19SAPC  C317 2542  -0.109   4.558   8.275  0.8066 -0.1440 -0.3273
   19SAPC  H17X 2543  -0.021   4.586   8.337  1.0893  0.5327 -1.0110
   19SAPC  H17Y 2544  -0.111   4.641   8.202 -0.6548  0.7515  0.6967
   19SAPC  C318 2545  -0.087   4.435   8.198 -0.3182 -0.5128  0.2601
   19SAPC  H18X 2546  -0.030   4.456   8.105  1.0321 -0.3422  1.0939
   19SAPC  H18Y 2547  -0.183   4.382   8.181  0.0218 -1.2079  0.4855
   19SAPC  H18Z 2548  -0.025   4.370   8.264  0.3480  1.1675  1.3688
   20SAPC     N 2549   5.782   1.245  11.086  0.2942  0.3928 -0.1516
   20SAPC   C12 2550   5.710   1.217  10.949  0.0016  0.1885 -0.2513
   20SAPC  H12A 2551   5.618   1.274  10.946  0.2502  0.5353 -1.8017
   20SAPC  H12B 2552   5.691   1.112  10.931 -1.5926  0.4034  0.0361
   20SAPC   C13 2553   5.692   1.195  11.191 -0.2547  0.3417  0.2751
   20SAPC  H13A 2554   5.707   1.245  11.285 -0.5633  0.7639  0.1052
   20SAPC  H13B 2555   5.589   1.209  11.162 -0.4744 -3.2541 -1.1535
   20SAPC  H13C 2556   5.710   1.089  11.200 -0.6883 -0.2177 -3.6994
   20SAPC   C14 2557   5.916   1.182  11.095 -0.4081 -0.2187 -0.4711
   20SAPC  H14A 2558   5.904   1.078  11.071 -0.9289 -0.7512  1.8194
   20SAPC  H14B 2559   5.986   1.233  11.030 -0.9393  1.2692  0.0726
   20SAPC  H14C 2560   5.956   1.186  11.195  3.5328  1.7183 -1.8887
   20SAPC   C15 2561   5.799   1.392  11.113  0.3731 -0.1722  0.5261
   20SAPC  H15A 2562   5.731   1.457  11.060  0.8949 -0.4162 -0.4682
   20SAPC  H15B 2563   5.767   1.409  11.214 -0.3831  0.3312  0.2127
   20SAPC  H15C 2564   5.900   1.423  11.091  0.6561 -0.9386  0.7132
   20SAPC   C11 2565   5.778   1.269  10.817  0.5801 -0.4679 -0.5662
   20SAPC  H11A 2566   5.774   1.380  10.816  0.0292 -0.4822 -1.2795
   20SAPC  H11B 2567   5.709   1.240  10.734 -0.3302 -0.1146  0.0432
   20SAPC     P 2568   5.948   1.083  10.769  0.1889  0.0499 -0.2009
   20SAPC   O13 2569   6.090   1.067  10.804 -0.2174 -0.5838 -0.2705
   20SAPC   O14 2570   5.854   0.986  10.831 -0.0469  0.0171 -0.3946
   20SAPC   O12 2571   5.911   1.234  10.805  0.3084  0.3016 -0.2085
   20SAPC   O11 2572   5.941   1.062  10.617  0.1154  0.0266  0.0786
   20SAPC    C1 2573   5.939   1.166  10.524  0.6801 -0.5633  0.0556
   20SAPC    HA 2574   5.860   1.243  10.533  0.7809 -0.3618 -0.6752
   20SAPC    HB 2575   6.034   1.221  10.544 -0.0593  0.8052 -0.0784
   20SAPC    C2 2576   5.951   1.125  10.372  0.3773  0.0982 -0.3778
   20SAPC    HS 2577   5.851   1.083  10.350 -1.5019  2.3276  3.0195
   20SAPC   O21 2578   6.059   1.035  10.353  0.0103 -0.0664  0.4099
   20SAPC   C21 2579   6.042   0.940  10.259  0.1339 -0.7371 -0.3059
   20SAPC   O22 2580   5.945   0.929  10.188 -0.4969 -0.0885 -0.2601
   20SAPC   C22 2581   6.171   0.859  10.256 -0.0479  0.2902  0.0856
   20SAPC   H2R 2582   6.257   0.925  10.280  0.1309  1.2806 -2.7971
   20SAPC   H2S 2583   6.159   0.794  10.345  1.9217  1.3902  1.2062
   20SAPC    C3 2584   5.976   1.252  10.289 -0.5936  0.2320  0.9251
   20SAPC    HX 2585   6.061   1.311  10.330  1.1147  0.2260 -2.2783
   20SAPC    HY 2586   5.888   1.318  10.301 -2.1581 -1.4388 -0.7458
   20SAPC   O31 2587   6.006   1.245  10.142  1.0795 -0.1671 -0.4723
   20SAPC   C31 2588   5.915   1.195  10.059  0.2645 -0.2234 -0.1018
   20SAPC   O32 2589   5.795   1.184  10.084 -0.3772 -0.5843 -0.0750
   20SAPC   C32 2590   5.973   1.164   9.929 -0.1571  0.3352  0.1079
   20SAPC   H2X 2591   6.070   1.113   9.947 -0.7415 -0.7495  0.2978
   20SAPC   H2Y 2592   5.984   1.265   9.884 -0.8794  1.0678  1.4827
   20SAPC   C23 2593   6.175   0.778  10.129 -0.9503  0.3336  0.2357
   20SAPC   H3R 2594   6.229   0.838  10.052 -0.9360  0.0756  0.0426
   20SAPC   H3S 2595   6.077   0.754  10.083 -0.3714  3.1549 -2.8690
   20SAPC   C24 2596   6.233   0.631  10.132  0.1326 -1.1505 -0.1743
   20SAPC   H4R 2597   6.218   0.591  10.029  1.6758  0.7482 -1.2200
   20SAPC   H4S 2598   6.175   0.561  10.196  2.8251 -2.6432  0.8047
   20SAPC   C25 2599   6.375   0.621  10.168  0.2971 -0.0022 -0.5441
   20SAPC   H5R 2600   6.399   0.562  10.258  2.1717  0.7907 -0.4633
   20SAPC   C26 2601   6.475   0.672  10.098  0.2837  0.2400  0.1320
   20SAPC   H6R 2602   6.575   0.652  10.139  2.3001  3.4746 -2.6991
   20SAPC   C27 2603   6.476   0.754   9.973 -0.5139 -0.8664 -0.0572
   20SAPC   H7R 2604   6.502   0.857  10.004 -1.8998 -0.1695 -1.1222
   20SAPC   H7S 2605   6.372   0.766   9.937 -0.6045  1.7772  0.8530
   20SAPC   C28 2606   6.564   0.706   9.859  0.2971 -0.0661 -0.2950
   20SAPC   H8R 2607   6.665   0.747   9.849  1.0161 -1.6459  0.2227
   20SAPC   C29 2608   6.531   0.616   9.764  0.3214  0.1440  0.2073
   20SAPC   H9R 2609   6.605   0.582   9.690  1.4042  1.9249  0.4140
   20SAPC  C210 2610   6.397   0.539   9.756  0.0204 -0.2319  0.6468
   20SAPC  H10R 2611   6.316   0.604   9.718  0.0284 -1.9191 -2.6051
   20SAPC  H10S 2612   6.348   0.488   9.841 -0.9881 -2.0162 -0.9359
   20SAPC  C211 2613   6.422   0.425   9.659  0.0336  0.0335 -0.2130
   20SAPC  H11R 2614   6.460   0.339   9.717  1.2290  1.2140  0.8117
   20SAPC  C212 2615   6.413   0.413   9.529 -0.2098  0.1189  0.2081
   20SAPC  H12R 2616   6.445   0.317   9.485 -0.9177 -0.9317  1.8725
   20SAPC  C213 2617   6.364   0.513   9.424 -1.0890  0.3592  0.2915
   20SAPC  H13R 2618   6.354   0.609   9.479  1.6240  0.3398  0.9341
   20SAPC  H13S 2619   6.260   0.493   9.388 -0.4947 -0.5178 -1.0066
   20SAPC  C214 2620   6.456   0.556   9.309 -0.1299 -0.0591  0.1761
   20SAPC  H14R 2621   6.566   0.549   9.318 -0.1572 -1.1107 -0.2673
   20SAPC  C215 2622   6.409   0.591   9.185 -0.4568  0.5208 -0.1085
   20SAPC  H15R 2623   6.482   0.611   9.105 -0.6604  0.8309 -0.2167
   20SAPC  C216 2624   6.272   0.593   9.133  0.9318  0.3140 -0.1566
   20SAPC  H16R 2625   6.227   0.693   9.146 -3.4914 -1.4218 -0.5154
   20SAPC  H16S 2626   6.199   0.534   9.192 -2.0209  1.8385 -2.0836
   20SAPC  C217 2627   6.240   0.542   8.986 -0.0417 -0.0685 -0.0637
   20SAPC  H17R 2628   6.129   0.547   8.978  0.0005  0.9056 -0.1754
   20SAPC  H17S 2629   6.277   0.438   8.978 -0.9226 -0.4527  0.7093
   20SAPC  C218 2630   6.296   0.632   8.882 -0.2717 -0.1570 -0.4727
   20SAPC  H18R 2631   6.407   0.633   8.890 -0.1327  2.5908 -1.8018
   20SAPC  H18S 2632   6.275   0.736   8.916 -2.6279 -0.3111 -1.2985
   20SAPC  C219 2633   6.247   0.613   8.737  0.0839  0.6953 -0.1853
   20SAPC  H19R 2634   6.280   0.698   8.674 -0.6159  0.2937 -1.1179
   20SAPC  H19S 2635   6.136   0.620   8.732  0.1151  0.7330 -1.0897
   20SAPC  C220 2636   6.282   0.480   8.682 -0.5715  0.5255  0.9656
   20SAPC  H20R 2637   6.387   0.484   8.644 -0.1366  1.6486  2.2022
   20SAPC  H20S 2638   6.225   0.431   8.601  2.5911 -0.1082 -1.0887
   20SAPC  H20T 2639   6.290   0.405   8.763  0.5831  1.0438  1.3608
   20SAPC   C33 2640   5.876   1.078   9.848  0.6347  0.1767  0.2631
   20SAPC   H3X 2641   5.790   1.144   9.822  3.0971  3.5725  0.0808
   20SAPC   H3Y 2642   5.840   0.986   9.899 -0.8156 -1.2776 -3.0589
   20SAPC   C34 2643   5.955   1.038   9.728  0.7160  0.5972 -0.3165
   20SAPC   H4X 2644   6.043   0.977   9.759  0.3183  0.4128  0.4816
   20SAPC   H4Y 2645   6.008   1.123   9.680  0.6518  0.3993 -0.7423
   20SAPC   C35 2646   5.890   0.937   9.634 -0.2808  0.2009 -0.3208
   20SAPC   H5X 2647   5.796   0.975   9.590  0.0701  1.5981  0.1082
   20SAPC   H5Y 2648   5.866   0.845   9.692  0.8955  0.3811  0.4840
   20SAPC   C36 2649   5.973   0.901   9.504  0.4343 -0.3373 -0.8907
   20SAPC   H6X 2650   6.073   0.860   9.530  1.0009 -0.3583 -2.9769
   20SAPC   H6Y 2651   5.989   0.997   9.451 -0.1558  0.0707 -0.3494
   20SAPC   C37 2652   5.898   0.805   9.406 -0.4800 -0.4379 -0.0780
   20SAPC   H7X 2653   5.803   0.854   9.376 -1.0339 -1.4253  0.0020
   20SAPC   H7Y 2654   5.860   0.724   9.472  1.4602 -1.8220 -0.5551
   20SAPC   C38 2655   5.974   0.752   9.285  0.2813  0.3753 -0.1056
   20SAPC   H8X 2656   5.924   0.665   9.236  1.8299 -0.8843  0.4551
   20SAPC   H8Y 2657   6.067   0.714   9.332  1.6268  1.6422 -1.6269
   20SAPC   C39 2658   5.990   0.853   9.170  0.1806  0.4249 -0.2035
   20SAPC   H9X 2659   6.063   0.827   9.090  3.0383 -0.6593  2.5527
   20SAPC   H9Y 2660   6.033   0.943   9.219  1.3458  0.6692 -1.6033
   20SAPC  C310 2661   5.861   0.894   9.105 -0.8074 -0.3565 -0.8267
   20SAPC  H10X 2662   5.807   0.959   9.177 -1.5796 -1.7281 -0.1328
   20SAPC  H10Y 2663   5.803   0.804   9.075 -0.6335 -0.2670 -1.4524
   20SAPC  C311 2664   5.888   0.990   8.981  0.0542 -0.4037  0.0097
   20SAPC  H11X 2665   5.941   1.080   9.018 -1.8027  0.6900  0.1491
   20SAPC  H11Y 2666   5.786   1.026   8.958 -0.7691 -1.4008  1.8294
   20SAPC  C312 2667   5.951   0.921   8.855  0.2861 -0.0521 -0.0825
   20SAPC  H12X 2668   5.877   0.842   8.831 -2.9000  2.0271  2.0428
   20SAPC  H12Y 2669   6.047   0.871   8.881  0.2196 -0.4716 -0.6442
   20SAPC  C313 2670   5.967   1.013   8.730 -1.0811 -0.4511 -0.1726
   20SAPC  H13X 2671   5.870   1.062   8.706 -1.4232 -0.9640  0.1290
   20SAPC  H13Y 2672   6.009   0.944   8.653 -0.0712  0.8390 -0.8212
   20SAPC  C314 2673   6.086   1.105   8.752  0.2037  0.5292 -0.5107
   20SAPC  H14X 2674   6.187   1.059   8.756 -0.2572 -0.4358  0.8704
   20SAPC  H14Y 2675   6.082   1.145   8.856  0.3485  0.2722 -0.4013
   20SAPC  C315 2676   6.094   1.210   8.649 -0.5090 -0.1580 -0.6495
   20SAPC  H15X 2677   6.174   1.284   8.671 -1.0364  0.1872  0.1791
   20SAPC  H15Y 2678   5.996   1.261   8.653 -0.7997 -0.7453 -0.2031
   20SAPC  C316 2679   6.127   1.165   8.508  0.0900  0.7444  0.3750
   20SAPC  H16X 2680   6.077   1.069   8.483  1.8532 -0.3650  0.9489
   20SAPC  H16Y 2681   6.234   1.137   8.513 -0.1706 -0.5449 -0.5589
   20SAPC  C317 2682   6.088   1.264   8.395 -0.7653 -0.4486  0.8034
   20SAPC  H17X 2683   6.149   1.357   8.405  1.6925 -1.6602 -1.5310
   20SAPC  H17Y 2684   5.981   1.291   8.406 -0.9298 -1.3906  1.5762
   20SAPC  C318 2685   6.117   1.211   8.257  0.6683 -0.3951  0.5956
   20SAPC  H18X 2686   6.067   1.279   8.184  1.8759  0.7850  0.8282
   20SAPC  H18Y 2687   6.059   1.119   8.236  0.5656 -0.1788 -0.1103
   20SAPC  H18Z 2688   6.226   1.214   8.239  0.3320  1.7061 -1.7550
   21SAPC     N 2689   5.626   5.464  11.031 -0.3636 -0.8534  0.8679
   21SAPC   C12 2690   5.588   5.505  10.886  0.4029 -0.3771  0.8215
   21SAPC  H12A 2691   5.607   5.417  10.827  0.0032  1.1832 -1.7980
   21SAPC  H12B 2692   5.658   5.577  10.847  1.3907 -1.5494  0.3671
   21SAPC   C13 2693   5.531   5.366  11.084  0.1367  0.2167 -0.8379
   21SAPC  H13A 2694   5.558   5.343  11.186  1.2413  1.6870 -0.7593
   21SAPC  H13B 2695   5.439   5.420  11.094  1.0321  1.7218 -0.5084
   21SAPC  H13C 2696   5.530   5.275  11.026  0.0070 -0.7838  0.6645
   21SAPC   C14 2697   5.767   5.417  11.032  0.2940  0.2320  0.3278
   21SAPC  H14A 2698   5.771   5.338  10.958  0.2887  0.2428  0.3168
   21SAPC  H14B 2699   5.842   5.486  10.995  1.0726 -0.0301  1.3780
   21SAPC  H14C 2700   5.804   5.380  11.126  0.3671  2.3536  1.1886
   21SAPC   C15 2701   5.616   5.585  11.116  0.0579 -0.3415  0.4052
   21SAPC  H15A 2702   5.646   5.563  11.217 -1.3468 -0.3440  0.8477
   21SAPC  H15B 2703   5.682   5.664  11.082 -0.9288  1.8521  3.1812
   21SAPC  H15C 2704   5.515   5.621  11.126 -0.8690 -2.3016 -1.2289
   21SAPC   C11 2705   5.439   5.553  10.851  0.2308  1.1626  1.4421
   21SAPC  H11A 2706   5.373   5.472  10.889  1.5706 -0.0630  1.2463
   21SAPC  H11B 2707   5.431   5.547  10.740 -0.9383 -2.2545  1.6019
   21SAPC     P 2708   5.402   5.821  10.847  0.0522  0.1388  0.1244
   21SAPC   O13 2709   5.265   5.862  10.802 -0.0270 -0.1047 -0.1264
   21SAPC   O14 2710   5.467   5.905  10.948 -0.3056  0.7107 -0.8401
   21SAPC   O12 2711   5.394   5.673  10.910 -0.9281  0.0731 -0.0918
   21SAPC   O11 2712   5.484   5.802  10.717  0.1316 -0.6665 -0.4204
   21SAPC    C1 2713   5.599   5.873  10.689  0.2204 -0.8260 -0.0765
   21SAPC    HA 2714   5.678   5.871  10.768  1.5378  0.1886 -1.3288
   21SAPC    HB 2715   5.641   5.826  10.598 -0.9834 -1.9242 -0.0902
   21SAPC    C2 2716   5.583   6.027  10.654 -0.4033  0.3729 -0.1536
   21SAPC    HS 2717   5.533   6.070  10.744 -4.4569  1.5986 -2.6849
   21SAPC   O21 2718   5.492   6.039  10.538  0.0950  0.2045 -0.6802
   21SAPC   C21 2719   5.465   6.162  10.500  0.1124  0.3612 -0.2305
   21SAPC   O22 2720   5.481   6.267  10.568 -0.4119 -0.5082 -0.1142
   21SAPC   C22 2721   5.405   6.159  10.367  0.6243  0.7378 -0.3003
   21SAPC   H2R 2722   5.466   6.104  10.292 -0.6612  1.5659 -2.0357
   21SAPC   H2S 2723   5.306   6.109  10.375 -0.1193  1.6469 -2.8616
   21SAPC    C3 2724   5.722   6.094  10.637 -0.8291 -0.3128  0.1125
   21SAPC    HX 2725   5.773   6.088  10.736 -0.2239 -1.5597 -0.2546
   21SAPC    HY 2726   5.707   6.200  10.606 -0.8372 -0.9487 -2.2012
   21SAPC   O31 2727   5.817   6.027  10.552 -0.7927 -0.2084 -0.1611
   21SAPC   C31 2728   5.844   6.074  10.443 -0.0514 -0.1539  0.0624
   21SAPC   O32 2729   5.778   6.167  10.388 -0.1317  0.5995 -0.0113
   21SAPC   C32 2730   5.951   6.004  10.372  0.1581  0.2492  0.9975
   21SAPC   H2X 2731   5.914   5.906  10.335  3.5202 -0.4996 -0.8182
   21SAPC   H2Y 2732   6.034   5.976  10.441  0.3287 -1.1217  0.2636
   21SAPC   C23 2733   5.375   6.303  10.311 -0.0837  0.2249  0.0304
   21SAPC   H3R 2734   5.465   6.359  10.277  0.0463 -1.3062 -2.3669
   21SAPC   H3S 2735   5.313   6.354  10.388 -0.5696 -0.0088 -0.2044
   21SAPC   C24 2736   5.289   6.295  10.183 -0.4331  0.2179  0.3785
   21SAPC   H4R 2737   5.241   6.393  10.160 -0.5994 -0.0169 -0.2764
   21SAPC   H4S 2738   5.210   6.223  10.211  0.2280 -1.9041 -2.7133
   21SAPC   C25 2739   5.376   6.237  10.069 -0.4825 -0.7699  0.2731
   21SAPC   H5R 2740   5.414   6.136  10.093 -4.0529 -1.8764  1.9761
   21SAPC   C26 2741   5.405   6.293   9.948 -0.0261  0.3036  0.4110
   21SAPC   H6R 2742   5.475   6.237   9.885  1.0852  1.7751  0.2684
   21SAPC   C27 2743   5.346   6.421   9.901  0.1292  0.1072  0.3475
   21SAPC   H7R 2744   5.303   6.487   9.979 -2.0396 -0.3756 -0.3771
   21SAPC   H7S 2745   5.260   6.402   9.833 -0.8932  3.4678  0.5184
   21SAPC   C28 2746   5.437   6.504   9.810 -0.9538 -0.2900 -0.3340
   21SAPC   H8R 2747   5.455   6.603   9.855 -0.2762 -0.8054  0.5687
   21SAPC   C29 2748   5.489   6.478   9.689 -0.0952 -0.7846 -0.0120
   21SAPC   H9R 2749   5.547   6.553   9.634  0.7236 -1.3842  0.0149
   21SAPC  C210 2750   5.461   6.353   9.621  0.0260 -0.3088  0.2650
   21SAPC  H10R 2751   5.465   6.272   9.696  0.0489  0.0504  0.6576
   21SAPC  H10S 2752   5.550   6.337   9.556  0.0065  1.7540 -0.3363
   21SAPC  C211 2753   5.332   6.349   9.536  0.0401  0.0297  0.2118
   21SAPC  H11R 2754   5.236   6.328   9.586  1.0526 -0.2473  2.1437
   21SAPC  C212 2755   5.320   6.389   9.408 -0.2147 -0.6234 -0.4858
   21SAPC  H12R 2756   5.234   6.357   9.348 -1.4412 -0.6001  1.2026
   21SAPC  C213 2757   5.427   6.459   9.323  0.0517 -0.4284  0.2258
   21SAPC  H13R 2758   5.526   6.422   9.359  0.4651 -0.9032 -1.3414
   21SAPC  H13S 2759   5.422   6.569   9.339  2.0758  0.1506 -2.4689
   21SAPC  C214 2760   5.409   6.406   9.178  0.2381 -0.2873 -0.0630
   21SAPC  H14R 2761   5.440   6.301   9.168  1.3504  0.0519 -0.2766
   21SAPC  C215 2762   5.354   6.463   9.072 -0.4647 -0.7189 -0.2910
   21SAPC  H15R 2763   5.358   6.405   8.979  3.0300 -2.0351  0.5427
   21SAPC  C216 2764   5.307   6.606   9.059 -0.2810  0.7718  0.4429
   21SAPC  H16R 2765   5.378   6.669   9.001 -0.7903  0.7817 -0.1765
   21SAPC  H16S 2766   5.303   6.658   9.158  0.1144 -0.8752  1.3608
   21SAPC  C217 2767   5.164   6.614   8.998 -0.0931  0.1290 -0.1207
   21SAPC  H17R 2768   5.088   6.585   9.074 -2.3309 -0.7437 -2.5280
   21SAPC  H17S 2769   5.154   6.540   8.915 -0.1089 -0.4530  0.3895
   21SAPC  C218 2770   5.134   6.758   8.955  0.8062  0.1920  0.3843
   21SAPC  H18R 2771   5.203   6.793   8.875 -1.6572  0.3291 -1.8122
   21SAPC  H18S 2772   5.142   6.828   9.041  0.7578  1.7923 -0.8731
   21SAPC  C219 2773   4.998   6.772   8.891  0.1107  0.0153  0.1971
   21SAPC  H19R 2774   4.962   6.875   8.913  1.0803  0.5191 -0.4679
   21SAPC  H19S 2775   4.927   6.701   8.938  1.1003 -1.7806 -0.9223
   21SAPC  C220 2776   5.014   6.730   8.743 -0.3019 -0.3539 -0.1006
   21SAPC  H20R 2777   5.048   6.813   8.676 -1.6862  0.3528  0.0258
   21SAPC  H20S 2778   4.920   6.709   8.688 -0.1332  0.9888 -0.9554
   21SAPC  H20T 2779   5.084   6.644   8.735  0.0717 -0.0948  0.3644
   21SAPC   C33 2780   6.000   6.089  10.247 -0.0113 -0.1993 -0.2771
   21SAPC   H3X 2781   6.064   6.172  10.285  2.5344 -2.3466  0.4625
   21SAPC   H3Y 2782   5.910   6.118  10.189 -0.1771 -1.3557 -0.6227
   21SAPC   C34 2783   6.095   5.998  10.163  0.1210 -0.2279  0.2194
   21SAPC   H4X 2784   6.063   5.892  10.152  2.8063 -1.1972  0.9389
   21SAPC   H4Y 2785   6.192   6.002  10.218 -1.3469  1.5756  2.8783
   21SAPC   C35 2786   6.113   6.049  10.018  1.0096 -0.4862 -0.0971
   21SAPC   H5X 2787   6.150   6.154  10.028  0.4011  0.1872 -3.6360
   21SAPC   H5Y 2788   6.019   6.043   9.958  0.4078  0.1732  0.7620
   21SAPC   C36 2789   6.223   5.967   9.948 -1.1312 -0.0623  0.6177
   21SAPC   H6X 2790   6.205   5.859   9.966  1.8277 -0.5778  0.8811
   21SAPC   H6Y 2791   6.323   5.999   9.984 -1.3929 -0.3297  1.6085
   21SAPC   C37 2792   6.222   5.991   9.795 -0.6896 -0.0661  0.5742
   21SAPC   H7X 2793   6.259   6.095   9.778  0.7027 -0.5375  0.6181
   21SAPC   H7Y 2794   6.119   5.980   9.755  0.3059 -3.0735 -1.5551
   21SAPC   C38 2795   6.316   5.892   9.722 -0.0768 -0.4169 -0.6209
   21SAPC   H8X 2796   6.268   5.792   9.712  1.0342 -1.0154 -0.0988
   21SAPC   H8Y 2797   6.396   5.880   9.799 -1.0260  1.3887  0.7404
   21SAPC   C39 2798   6.377   5.940   9.597 -0.4960 -0.7629  0.2030
   21SAPC   H9X 2799   6.455   5.870   9.561  1.7984 -1.0426  4.9528
   21SAPC   H9Y 2800   6.410   6.046   9.611 -1.9584 -0.3069  0.3809
   21SAPC  C310 2801   6.269   5.956   9.488 -0.1747  0.6038  0.1200
   21SAPC  H10X 2802   6.177   5.998   9.534 -1.0284  2.1252 -2.7366
   21SAPC  H10Y 2803   6.234   5.854   9.460  1.6712  0.0332 -0.2809
   21SAPC  C311 2804   6.303   6.038   9.358  0.0136 -0.3004 -0.8071
   21SAPC  H11X 2805   6.320   6.141   9.394  0.8006 -1.0125  0.9315
   21SAPC  H11Y 2806   6.216   6.036   9.288 -1.1559 -0.8449  0.6166
   21SAPC  C312 2807   6.430   5.993   9.283  0.5085  0.5161  1.0517
   21SAPC  H12X 2808   6.429   5.882   9.284 -0.4109  0.4952  0.0357
   21SAPC  H12Y 2809   6.521   6.031   9.335  1.0497 -2.1090  2.1944
   21SAPC  C313 2810   6.427   6.040   9.127  1.0850  0.3220 -0.6662
   21SAPC  H13X 2811   6.419   6.151   9.127  0.9630  0.3391  0.8511
   21SAPC  H13Y 2812   6.337   6.001   9.075  1.1222  1.1562 -1.3693
   21SAPC  C314 2813   6.553   5.999   9.051  0.7839  0.0023  0.4354
   21SAPC  H14X 2814   6.568   5.890   9.064  0.6967 -0.0722 -0.0990
   21SAPC  H14Y 2815   6.646   6.044   9.091  1.4927 -0.0195 -1.1395
   21SAPC  C315 2816   6.549   6.016   8.896 -0.0047 -0.4386  0.1307
   21SAPC  H15X 2817   6.526   6.119   8.863 -0.0601 -0.2437  0.7691
   21SAPC  H15Y 2818   6.466   5.948   8.868 -0.0808 -0.8368  1.3032
   21SAPC  C316 2819   6.674   5.979   8.826  0.2709  0.0369  0.1193
   21SAPC  H16X 2820   6.686   5.869   8.839 -0.8479 -0.4443 -2.3994
   21SAPC  H16Y 2821   6.762   6.033   8.867  1.2198 -0.4895 -1.1576
   21SAPC  C317 2822   6.677   6.011   8.678 -0.2841  0.0803  0.3739
   21SAPC  H17X 2823   6.777   5.982   8.639 -0.9908  0.7469 -2.0570
   21SAPC  H17Y 2824   6.656   6.120   8.673 -0.5584  0.0470  0.7660
   21SAPC  C318 2825   6.569   5.925   8.602  0.1181  0.0033  0.4128
   21SAPC  H18X 2826   6.562   5.817   8.629  0.2302 -0.7940 -2.3729
   21SAPC  H18Y 2827   6.579   5.920   8.491 -1.9679 -0.4440  0.2091
   21SAPC  H18Z 2828   6.466   5.966   8.605  0.2331  0.2124  1.8658
   22SAPC     N 2829   6.046   3.809  10.854 -0.7848 -0.1442  0.3377
   22SAPC   C12 2830   6.192   3.839  10.831  0.1913 -0.4068 -0.0034
   22SAPC  H12A 2831   6.235   3.881  10.921  0.5208 -0.0220 -0.3342
   22SAPC  H12B 2832   6.189   3.920  10.759  0.2631 -1.0844 -0.7854
   22SAPC   C13 2833   6.025   3.698  10.955 -1.1776 -0.8050  0.0511
   22SAPC  H13A 2834   5.921   3.673  10.968 -1.4022 -0.0457 -0.2773
   22SAPC  H13B 2835   6.070   3.608  10.915 -0.4608  0.1299 -1.3168
   22SAPC  H13C 2836   6.064   3.724  11.052  2.2480  2.0687 -1.8776
   22SAPC   C14 2837   5.966   3.926  10.907  0.1576  0.6810  0.8203
   22SAPC  H14A 2838   5.955   4.009  10.839 -0.0032 -2.3356 -3.2404
   22SAPC  H14B 2839   5.869   3.890  10.941  1.3413 -1.3127  2.2979
   22SAPC  H14C 2840   6.017   3.962  10.994 -2.2430  0.3185  2.4867
   22SAPC   C15 2841   5.982   3.772  10.724 -0.4454 -0.0770 -0.5190
   22SAPC  H15A 2842   5.978   3.863  10.665 -2.0111  0.3250  0.1812
   22SAPC  H15B 2843   6.033   3.687  10.682 -0.3177 -1.2791  1.8974
   22SAPC  H15C 2844   5.885   3.733  10.748 -1.5633  3.2922  1.0202
   22SAPC   C11 2845   6.298   3.739  10.777  0.2468  0.0637 -0.1884
   22SAPC  H11A 2846   6.287   3.639  10.824  0.0006 -0.9867 -2.3265
   22SAPC  H11B 2847   6.395   3.790  10.794 -0.7279  1.8626  0.2310
   22SAPC     P 2848   6.355   3.612  10.554  0.0221 -0.3529  0.0646
   22SAPC   O13 2849   6.499   3.602  10.589  0.4867 -0.3389 -0.3365
   22SAPC   O14 2850   6.260   3.501  10.565 -0.6081 -0.1599  0.1877
   22SAPC   O12 2851   6.289   3.731  10.632  0.5322  0.0454 -0.6131
   22SAPC   O11 2852   6.350   3.666  10.407  0.3040 -0.1557 -0.4427
   22SAPC    C1 2853   6.233   3.642  10.320 -0.4578  0.3604  0.5435
   22SAPC    HA 2854   6.179   3.548  10.345  0.8543 -0.8244 -0.8785
   22SAPC    HB 2855   6.160   3.721  10.348 -1.8692  0.1306 -2.1456
   22SAPC    C2 2856   6.269   3.663  10.173  0.7891 -0.4313  0.2585
   22SAPC    HS 2857   6.345   3.742  10.186  2.5466 -1.7897 -1.2298
   22SAPC   O21 2858   6.141   3.701  10.114  0.5649  0.0790 -0.6674
   22SAPC   C21 2859   6.155   3.802  10.024  0.6399  0.1575 -0.0145
   22SAPC   O22 2860   6.255   3.865  10.001 -0.0745  0.1332 -0.1475
   22SAPC   C22 2861   6.027   3.813   9.936 -0.3692  0.4351  0.3010
   22SAPC   H2R 2862   5.969   3.720   9.946 -0.4471  0.3173 -1.0435
   22SAPC   H2S 2863   5.979   3.903   9.980  1.2045  0.8379  1.2950
   22SAPC    C3 2864   6.322   3.533  10.112 -0.2253 -0.0478  0.6524
   22SAPC    HX 2865   6.249   3.452  10.132  0.9800 -1.5348 -0.7589
   22SAPC    HY 2866   6.416   3.505  10.164  0.4706  0.7475 -0.1443
   22SAPC   O31 2867   6.334   3.543   9.965  0.4260  0.0646  0.9915
   22SAPC   C31 2868   6.454   3.573   9.920 -0.3611  0.0647 -0.9144
   22SAPC   O32 2869   6.537   3.641   9.983 -0.2251  0.4147 -0.0986
   22SAPC   C32 2870   6.452   3.538   9.773 -0.3205  0.2744 -0.1001
   22SAPC   H2X 2871   6.369   3.468   9.752  1.8513 -2.2717 -0.8178
   22SAPC   H2Y 2872   6.550   3.487   9.758 -0.5090  0.3810 -1.8932
   22SAPC   C23 2873   6.058   3.838   9.790 -0.2435 -0.3119 -0.8105
   22SAPC   H3R 2874   6.120   3.751   9.758 -0.6075  0.1409 -2.9151
   22SAPC   H3S 2875   6.122   3.928   9.783  0.0866 -0.2865  1.6262
   22SAPC   C24 2876   5.936   3.850   9.690 -0.1666  0.2397 -0.1622
   22SAPC   H4R 2877   5.856   3.775   9.705  1.4517 -1.5214 -0.0448
   22SAPC   H4S 2878   5.977   3.839   9.588  0.0132 -2.2069  0.1189
   22SAPC   C25 2879   5.875   3.977   9.707 -0.7067 -0.4006 -0.5677
   22SAPC   H5R 2880   5.814   3.995   9.797 -1.3990 -0.7571 -0.9548
   22SAPC   C26 2881   5.874   4.075   9.613 -0.1870  0.9896  0.5438
   22SAPC   H6R 2882   5.839   4.174   9.647  2.0181  1.4990  1.4916
   22SAPC   C27 2883   5.931   4.070   9.473  0.9633  0.3090 -0.3874
   22SAPC   H7R 2884   6.039   4.048   9.484  1.4862  2.5055 -0.6689
   22SAPC   H7S 2885   5.926   4.176   9.439  0.7607  0.2428 -0.5621
   22SAPC   C28 2886   5.866   3.975   9.373  0.6997 -0.1428  0.2225
   22SAPC   H8R 2887   5.868   3.871   9.409  1.1987  0.5305  2.2929
   22SAPC   C29 2888   5.820   4.000   9.248 -0.6345  0.4986  0.1432
   22SAPC   H9R 2889   5.775   3.921   9.187 -1.4602 -1.4255  3.0545
   22SAPC  C210 2890   5.824   4.134   9.179  0.8041 -0.2936  0.4524
   22SAPC  H10R 2891   5.827   4.216   9.254 -2.3610  2.3527 -1.9426
   22SAPC  H10S 2892   5.724   4.156   9.135  1.3703  3.0166  0.5381
   22SAPC  C211 2893   5.941   4.146   9.085 -0.5167  0.1591  0.5350
   22SAPC  H11R 2894   6.037   4.149   9.139  1.5675  0.1996 -2.8720
   22SAPC  C212 2895   5.947   4.165   8.953  0.4911  0.0359  0.4366
   22SAPC  H12R 2896   6.045   4.149   8.904  0.0086 -1.1639 -0.1764
   22SAPC  C213 2897   5.827   4.180   8.865 -0.5159 -0.4173 -0.9134
   22SAPC  H13R 2898   5.853   4.260   8.792  0.0065  1.0158  0.7669
   22SAPC  H13S 2899   5.756   4.238   8.928  2.3182  0.4988  1.7007
   22SAPC  C214 2900   5.777   4.054   8.791  0.1760 -0.2073  0.4227
   22SAPC  H14R 2901   5.818   3.952   8.796 -1.6185 -1.0622 -0.8760
   22SAPC  C215 2902   5.686   4.064   8.691  0.0072  0.3293 -0.5226
   22SAPC  H15R 2903   5.654   3.968   8.649 -1.3336 -0.0437  1.2353
   22SAPC  C216 2904   5.619   4.197   8.652 -0.3306 -0.7881  1.0706
   22SAPC  H16R 2905   5.688   4.267   8.598 -1.5584  0.3229  0.8840
   22SAPC  H16S 2906   5.571   4.247   8.739 -2.3928  0.1051 -0.5046
   22SAPC  C217 2907   5.490   4.176   8.567 -0.5200  0.0354  0.1096
   22SAPC  H17R 2908   5.440   4.275   8.566  3.0331  1.9835  0.0732
   22SAPC  H17S 2909   5.433   4.093   8.614  0.8619 -0.9138  0.1656
   22SAPC  C218 2910   5.515   4.147   8.418  0.2261  0.4160  0.4310
   22SAPC  H18R 2911   5.412   4.129   8.380 -0.1693  0.1909  1.5620
   22SAPC  H18S 2912   5.566   4.050   8.401 -1.6472 -0.8691  1.6639
   22SAPC  C219 2913   5.588   4.266   8.341 -0.3431  0.4978 -0.1139
   22SAPC  H19R 2914   5.697   4.248   8.346 -0.0422  1.3879 -2.4395
   22SAPC  H19S 2915   5.576   4.366   8.389 -0.0594  2.0812 -3.1151
   22SAPC  C220 2916   5.543   4.288   8.196  0.2989  0.4211  0.8709
   22SAPC  H20R 2917   5.433   4.291   8.210  0.1394  1.3064 -0.4027
   22SAPC  H20S 2918   5.575   4.203   8.133 -0.9991  0.5219  0.0546
   22SAPC  H20T 2919   5.573   4.387   8.154 -0.3402  0.2829  0.0807
   22SAPC   C33 2920   6.438   3.669   9.686  0.1030  0.4482  0.2972
   22SAPC   H3X 2921   6.526   3.737   9.696  0.7730 -0.4426  0.5201
   22SAPC   H3Y 2922   6.350   3.729   9.716  0.7337  0.9655  1.1934
   22SAPC   C34 2923   6.423   3.642   9.537  0.5977  0.0296  0.3705
   22SAPC   H4X 2924   6.378   3.542   9.522 -0.0974  0.3544  0.2556
   22SAPC   H4Y 2925   6.513   3.645   9.472 -0.6960 -0.4484 -1.5307
   22SAPC   C35 2926   6.327   3.743   9.469 -0.5391  0.8171  0.9373
   22SAPC   H5X 2927   6.370   3.844   9.487  1.1318  0.2022  0.5810
   22SAPC   H5Y 2928   6.226   3.735   9.515 -0.2017  1.5447  1.8282
   22SAPC   C36 2929   6.317   3.712   9.319  1.1362  0.2249  0.1365
   22SAPC   H6X 2930   6.326   3.602   9.302  2.4895  0.5893 -1.7947
   22SAPC   H6Y 2931   6.397   3.763   9.262  0.2145  0.8799 -0.6170
   22SAPC   C37 2932   6.183   3.758   9.276  0.2407 -0.4182  0.7840
   22SAPC   H7X 2933   6.154   3.863   9.296 -1.0081 -0.8166  1.1658
   22SAPC   H7Y 2934   6.105   3.698   9.327  1.5170 -3.3894 -0.4973
   22SAPC   C38 2935   6.162   3.736   9.119  0.7209  0.0313  0.5179
   22SAPC   H8X 2936   6.183   3.628   9.107  1.2606  0.2239 -0.2725
   22SAPC   H8Y 2937   6.241   3.780   9.055  0.9663 -1.7574 -0.4699
   22SAPC   C39 2938   6.023   3.769   9.066 -0.2829  0.2250 -0.2518
   22SAPC   H9X 2939   6.008   3.877   9.046 -0.0794 -0.0761 -2.1733
   22SAPC   H9Y 2940   5.935   3.740   9.128  0.2832  2.5510  1.8118
   22SAPC  C310 2941   5.990   3.701   8.927  0.1293 -0.4894 -0.7018
   22SAPC  H10X 2942   5.908   3.762   8.883  0.2391  0.7271  0.7124
   22SAPC  H10Y 2943   5.948   3.598   8.940 -1.6047  0.0496 -1.6831
   22SAPC  C311 2944   6.103   3.683   8.828  0.2126  0.2682  0.3339
   22SAPC  H11X 2945   6.190   3.647   8.887 -0.1725  0.1149  0.8155
   22SAPC  H11Y 2946   6.134   3.788   8.809 -0.8403  0.8021  1.4469
   22SAPC  C312 2947   6.079   3.605   8.705 -0.1147 -0.4767  0.2677
   22SAPC  H12X 2948   6.024   3.511   8.722 -0.7175 -0.2444 -0.3609
   22SAPC  H12Y 2949   6.178   3.578   8.662  0.7930  0.3735  1.7158
   22SAPC  C313 2950   6.012   3.690   8.594 -0.5062 -0.5873  0.2487
   22SAPC  H13X 2951   6.050   3.794   8.580 -3.1396  0.1616 -2.3490
   22SAPC  H13Y 2952   5.903   3.706   8.608 -0.6823 -0.3966 -1.1474
   22SAPC  C314 2953   6.019   3.614   8.460 -0.3125  0.8494  0.2666
   22SAPC  H14X 2954   5.969   3.515   8.455  1.4667 -0.0812 -0.0305
   22SAPC  H14Y 2955   6.127   3.593   8.443  0.1123  2.1426  1.1988
   22SAPC  C315 2956   5.988   3.705   8.336 -0.3110 -0.8197  0.2655
   22SAPC  H15X 2957   5.990   3.629   8.255 -0.4424 -1.5584  0.9421
   22SAPC  H15Y 2958   6.062   3.782   8.307 -0.4538 -1.1485 -1.0432
   22SAPC  C316 2959   5.848   3.775   8.331 -0.2665 -0.5576  0.0197
   22SAPC  H16X 2960   5.844   3.878   8.371 -2.6591 -0.6761  0.2547
   22SAPC  H16Y 2961   5.780   3.708   8.387 -0.8807 -0.0130 -0.0553
   22SAPC  C317 2962   5.789   3.783   8.183 -0.0388  0.0558 -0.2788
   22SAPC  H17X 2963   5.778   3.681   8.140 -2.2015  0.8412 -1.7201
   22SAPC  H17Y 2964   5.858   3.839   8.115 -1.2416  1.1109 -0.6642
   22SAPC  C318 2965   5.643   3.838   8.172 -0.4270  0.2446 -0.3314
   22SAPC  H18X 2966   5.633   3.927   8.237 -0.4439  1.6743 -2.2199
   22SAPC  H18Y 2967   5.569   3.757   8.193 -1.3156  0.6467 -1.8249
   22SAPC  H18Z 2968   5.620   3.866   8.068 -1.3792 -0.8852 -0.4491
   23SAPC     N 2969   2.766   5.428  11.065 -0.3319  0.2943  0.6549
   23SAPC   C12 2970   2.668   5.392  10.949  0.4810 -0.4533 -0.1396
   23SAPC  H12A 2971   2.567   5.392  10.988  0.2681  1.4424 -0.6307
   23SAPC  H12B 2972   2.703   5.293  10.921  2.7664  0.2261  0.1389
   23SAPC   C13 2973   2.909   5.448  11.012 -0.3868  0.1528 -0.0221
   23SAPC  H13A 2974   2.972   5.489  11.089 -0.3073  0.3878 -0.2106
   23SAPC  H13B 2975   2.950   5.350  10.991 -0.2146  0.4037 -0.9049
   23SAPC  H13C 2976   2.898   5.520  10.932 -2.6249  0.6837  0.7074
   23SAPC   C14 2977   2.729   5.554  11.139 -0.2171  0.3646 -0.3336
   23SAPC  H14A 2978   2.791   5.563  11.226  0.4010  1.4739 -0.8601
   23SAPC  H14B 2979   2.734   5.639  11.073 -0.4778  0.0239 -0.7994
   23SAPC  H14C 2980   2.631   5.551  11.184  0.0826 -1.5053  0.2567
   23SAPC   C15 2981   2.774   5.313  11.163  0.0583 -0.0960 -0.3621
   23SAPC  H15A 2982   2.687   5.306  11.226 -0.7699 -3.3934 -1.6781
   23SAPC  H15B 2983   2.791   5.219  11.112 -0.9167 -0.2043 -0.5077
   23SAPC  H15C 2984   2.855   5.334  11.232 -0.6810 -0.6571  0.7085
   23SAPC   C11 2985   2.662   5.482  10.830 -0.0952  0.1281  0.7801
   23SAPC  H11A 2986   2.614   5.434  10.741  0.5216  0.9148  0.0075
   23SAPC  H11B 2987   2.764   5.496  10.789  0.4070  2.1755  2.5528
   23SAPC     P 2988   2.449   5.622  10.867 -0.1861 -0.0469 -0.1667
   23SAPC   O13 2989   2.381   5.498  10.919 -0.4877 -0.1922 -0.1975
   23SAPC   O14 2990   2.403   5.750  10.925 -0.4465  0.0429  0.7139
   23SAPC   O12 2991   2.607   5.612  10.862 -0.1671  0.4436 -0.3500
   23SAPC   O11 2992   2.413   5.629  10.710 -0.1859 -0.4233 -0.0904
   23SAPC    C1 2993   2.391   5.746  10.639 -0.3080  0.1245 -0.7742
   23SAPC    HA 2994   2.282   5.767  10.632 -0.2549  2.0299  2.3609
   23SAPC    HB 2995   2.440   5.835  10.684  0.6651 -0.9925  0.4252
   23SAPC    C2 2996   2.442   5.737  10.492 -0.1492 -0.3891  0.4961
   23SAPC    HS 2997   2.415   5.830  10.438 -1.7234 -1.2256 -0.2119
   23SAPC   O21 2998   2.386   5.612  10.440  0.4347 -0.1009  0.0152
   23SAPC   C21 2999   2.285   5.636  10.355 -0.2022  0.4441  0.0237
   23SAPC   O22 3000   2.247   5.745  10.308 -0.3540  0.6370 -0.3648
   23SAPC   C22 3001   2.220   5.507  10.334 -0.2960 -0.1879  0.2716
   23SAPC   H2R 3002   2.282   5.430  10.284 -0.3429 -0.8667  1.2424
   23SAPC   H2S 3003   2.210   5.472  10.438 -1.0449  1.4903  0.8093
   23SAPC    C3 3004   2.595   5.741  10.484  0.7935 -0.4057 -0.4379
   23SAPC    HX 3005   2.633   5.648  10.531 -0.2652 -0.9634 -0.6379
   23SAPC    HY 3006   2.618   5.828  10.548 -1.2523  0.6650 -1.0532
   23SAPC   O31 3007   2.646   5.760  10.355  0.3115 -0.5801  0.1993
   23SAPC   C31 3008   2.687   5.650  10.298  0.2787 -0.1073 -0.0031
   23SAPC   O32 3009   2.679   5.540  10.351 -0.0988  0.1537 -0.6077
   23SAPC   C32 3010   2.736   5.679  10.160  0.0254  0.9229 -0.1825
   23SAPC   H2X 3011   2.841   5.643  10.166  0.2424  1.6591  0.7812
   23SAPC   H2Y 3012   2.729   5.788  10.142 -0.6216  0.9098 -0.0200
   23SAPC   C23 3013   2.078   5.506  10.279 -0.1800  0.0731  0.1647
   23SAPC   H3R 3014   2.016   5.577  10.338 -0.1965 -1.4970  2.1143
   23SAPC   H3S 3015   2.043   5.403  10.298  0.2740 -0.2981 -0.9103
   23SAPC   C24 3016   2.073   5.536  10.125  0.9561 -0.2683 -0.5593
   23SAPC   H4R 3017   2.157   5.483  10.076  1.7686  1.8509 -1.5493
   23SAPC   H4S 3018   2.088   5.643  10.103  2.7167 -0.4515 -0.3926
   23SAPC   C25 3019   1.937   5.493  10.071 -0.3916 -0.6412  0.1568
   23SAPC   H5R 3020   1.863   5.455  10.143 -0.7520  0.7016  0.5206
   23SAPC   C26 3021   1.907   5.514   9.942 -0.3377  0.1360  0.2844
   23SAPC   H6R 3022   1.806   5.486   9.907 -0.7400  0.9988  0.7404
   23SAPC   C27 3023   1.990   5.581   9.834  0.7695 -0.5665  0.2617
   23SAPC   H7R 3024   2.076   5.643   9.866  0.6712  0.1748 -0.8398
   23SAPC   H7S 3025   1.925   5.657   9.784 -0.6447 -1.9588 -0.1016
   23SAPC   C28 3026   2.053   5.494   9.736 -0.2115  0.7032  0.2280
   23SAPC   H8R 3027   2.125   5.425   9.783  0.1340 -0.1581 -1.5012
   23SAPC   C29 3028   2.026   5.486   9.603  0.0426 -0.7914 -0.5448
   23SAPC   H9R 3029   2.082   5.421   9.534  1.9328  0.9503 -0.7586
   23SAPC  C210 3030   1.919   5.562   9.530  0.3560  0.6413 -0.2601
   23SAPC  H10R 3031   1.966   5.658   9.497  0.4586  1.4621  2.0479
   23SAPC  H10S 3032   1.841   5.602   9.599 -0.6059  0.5859 -1.3016
   23SAPC  C211 3033   1.863   5.484   9.410  0.2464 -0.1546 -0.2359
   23SAPC  H11R 3034   1.844   5.378   9.430 -0.4372  0.0944  0.4766
   23SAPC  C212 3035   1.847   5.529   9.283  0.4106  0.1135  0.1475
   23SAPC  H12R 3036   1.784   5.467   9.216  0.7648  1.0562 -1.1087
   23SAPC  C213 3037   1.890   5.664   9.230  0.4889  0.0861  0.2836
   23SAPC  H13R 3038   1.995   5.669   9.195 -0.1942 -0.5608 -2.0380
   23SAPC  H13S 3039   1.870   5.739   9.309 -0.8188 -2.2312  2.2974
   23SAPC  C214 3040   1.809   5.706   9.115 -0.5170  0.2886  0.0765
   23SAPC  H14R 3041   1.732   5.781   9.135 -0.7442  0.7263 -2.1314
   23SAPC  C215 3042   1.800   5.653   8.992 -0.6234 -0.1781 -0.1061
   23SAPC  H15R 3043   1.728   5.689   8.917  0.3834 -0.7878 -1.4143
   23SAPC  C216 3044   1.891   5.540   8.947 -0.1271 -0.3353 -0.3922
   23SAPC  H16R 3045   1.837   5.443   8.951  0.7607 -0.9249 -1.8211
   23SAPC  H16S 3046   1.992   5.531   8.992  0.4488  2.2071 -1.0392
   23SAPC  C217 3047   1.934   5.560   8.802 -0.0283  0.1354  0.2468
   23SAPC  H17R 3048   1.847   5.548   8.735  0.1786 -4.2097  0.4474
   23SAPC  H17S 3049   2.001   5.476   8.773 -0.2402 -0.2837  0.9297
   23SAPC  C218 3050   2.019   5.691   8.779 -0.9024  0.3836 -0.0000
   23SAPC  H18R 3051   2.095   5.701   8.861 -0.8473  0.9483 -0.1128
   23SAPC  H18S 3052   1.957   5.783   8.785  0.3223  1.3338 -1.3344
   23SAPC  C219 3053   2.097   5.690   8.650  0.2802 -0.2408 -0.0476
   23SAPC  H19R 3054   2.016   5.710   8.577 -0.9706 -0.9129  1.1049
   23SAPC  H19S 3055   2.126   5.583   8.642 -3.3482 -1.2793 -0.9344
   23SAPC  C220 3056   2.204   5.793   8.650 -0.7050 -0.6854  0.4275
   23SAPC  H20R 3057   2.281   5.771   8.726 -0.6620 -1.6263  0.1200
   23SAPC  H20S 3058   2.174   5.900   8.650  1.3055  0.0758 -3.8615
   23SAPC  H20T 3059   2.267   5.784   8.559 -1.7447 -0.3931 -0.3445
   23SAPC   C33 3060   2.665   5.582  10.062 -0.4396 -0.1858 -0.6593
   23SAPC   H3X 3061   2.672   5.480  10.107  2.7447  0.3891  0.4383
   23SAPC   H3Y 3062   2.735   5.577   9.976 -1.0547  1.2239 -1.2609
   23SAPC   C34 3063   2.527   5.627  10.026  0.4389 -0.2343 -0.2553
   23SAPC   H4X 3064   2.460   5.643  10.113  1.0243 -0.0126  0.1603
   23SAPC   H4Y 3065   2.485   5.546   9.963  0.5136 -1.1963  0.8858
   23SAPC   C35 3066   2.534   5.758   9.938 -0.3174 -0.0196 -0.5001
   23SAPC   H5X 3067   2.640   5.786   9.918 -0.7890  0.6694 -2.2329
   23SAPC   H5Y 3068   2.483   5.843   9.990 -0.6864 -0.8638  0.5537
   23SAPC   C36 3069   2.470   5.740   9.804  0.7719 -0.3559 -0.1991
   23SAPC   H6X 3070   2.455   5.833   9.745 -1.4443 -0.6226 -0.1684
   23SAPC   H6Y 3071   2.370   5.694   9.816  0.4735 -0.0431 -1.3419
   23SAPC   C37 3072   2.538   5.638   9.709 -1.7434  0.1495  0.0347
   23SAPC   H7X 3073   2.472   5.589   9.634  1.6284 -1.0585 -2.3914
   23SAPC   H7Y 3074   2.577   5.548   9.763  1.2501  1.7160  0.7078
   23SAPC   C38 3075   2.649   5.718   9.638  0.5096 -0.1909 -0.2974
   23SAPC   H8X 3076   2.742   5.659   9.627  2.3327  2.4272  0.2002
   23SAPC   H8Y 3077   2.671   5.806   9.702 -0.9293  1.1826 -1.5859
   23SAPC   C39 3078   2.616   5.766   9.496 -0.2454 -0.0210 -0.0193
   23SAPC   H9X 3079   2.529   5.833   9.516 -0.6333 -0.0421 -1.4948
   23SAPC   H9Y 3080   2.585   5.692   9.420  0.8680 -1.1924  0.6269
   23SAPC  C310 3081   2.727   5.850   9.443  0.1716  0.6942 -0.0580
   23SAPC  H10X 3082   2.819   5.789   9.444  0.1280  0.4659 -3.1613
   23SAPC  H10Y 3083   2.748   5.940   9.505 -2.1357  1.2515  0.0306
   23SAPC  C311 3084   2.703   5.880   9.291 -0.3052  0.0295  0.1835
   23SAPC  H11X 3085   2.669   5.984   9.273  0.1010  0.2215  0.4975
   23SAPC  H11Y 3086   2.624   5.809   9.258 -0.7561 -0.7099  2.6174
   23SAPC  C312 3087   2.836   5.843   9.212 -0.4482  0.6071  0.1846
   23SAPC  H12X 3088   2.877   5.740   9.225  1.2771  1.1955 -0.2463
   23SAPC  H12Y 3089   2.916   5.900   9.265  0.5846 -0.4838 -0.1511
   23SAPC  C313 3090   2.824   5.883   9.066  0.0173  0.1614  0.4779
   23SAPC  H13X 3091   2.747   5.821   9.015 -0.9285  1.7647 -0.1123
   23SAPC  H13Y 3092   2.919   5.863   9.012 -1.3580 -1.1895 -1.6323
   23SAPC  C314 3093   2.790   6.034   9.043  0.6514  0.1316  0.0059
   23SAPC  H14X 3094   2.842   6.096   9.120  0.8973 -0.4519  0.3128
   23SAPC  H14Y 3095   2.681   6.044   9.063  0.9435  2.4266  0.7340
   23SAPC  C315 3096   2.812   6.090   8.897 -0.3544 -0.2248 -0.5160
   23SAPC  H15X 3097   2.746   6.039   8.823 -1.8273  0.9146 -0.0222
   23SAPC  H15Y 3098   2.918   6.070   8.868  0.4956  2.4048  0.4492
   23SAPC  C316 3099   2.770   6.240   8.881  0.5988 -0.3674 -0.2522
   23SAPC  H16X 3100   2.665   6.249   8.916  0.4382  0.3349 -0.9056
   23SAPC  H16Y 3101   2.789   6.263   8.774 -1.6707 -0.9795 -0.8563
   23SAPC  C317 3102   2.847   6.339   8.967 -0.4263  0.1125  0.6819
   23SAPC  H17X 3103   2.831   6.324   9.076 -2.7406 -0.4644  0.3273
   23SAPC  H17Y 3104   2.798   6.437   8.948  2.9345  1.4636 -2.0156
   23SAPC  C318 3105   2.998   6.335   8.944  0.5003 -0.4490 -0.5856
   23SAPC  H18X 3106   3.047   6.417   8.999 -2.2109 -1.4876  3.8617
   23SAPC  H18Y 3107   3.026   6.328   8.837 -1.3627 -5.4579 -1.0442
   23SAPC  H18Z 3108   3.039   6.238   8.982  2.9242  0.2935 -1.0829
   24SAPC     N 3109   2.270   4.679  11.239 -0.2822 -0.9980 -0.2200
   24SAPC   C12 3110   2.255   4.755  11.105 -0.3212 -0.1833 -0.5394
   24SAPC  H12A 3111   2.195   4.693  11.041 -1.7833  1.9661 -1.3952
   24SAPC  H12B 3112   2.355   4.768  11.067 -0.2505 -1.5363 -0.8464
   24SAPC   C13 3113   2.138   4.665  11.297 -0.6858  0.2605 -0.1451
   24SAPC  H13A 3114   2.143   4.609  11.389 -0.0577 -0.5231 -0.6493
   24SAPC  H13B 3115   2.078   4.754  11.310 -0.5828  0.3906 -0.5479
   24SAPC  H13C 3116   2.076   4.595  11.244  0.0615 -0.8284  0.3913
   24SAPC   C14 3117   2.339   4.554  11.218 -0.7816  0.5225 -0.5039
   24SAPC  H14A 3118   2.291   4.501  11.137 -2.2182  0.0086  0.6405
   24SAPC  H14B 3119   2.444   4.563  11.195 -0.0180 -2.8539  1.0017
   24SAPC  H14C 3120   2.342   4.484  11.300  1.5810 -0.9925 -1.7320
   24SAPC   C15 3121   2.332   4.766  11.334 -0.1945  0.4003 -0.3607
   24SAPC  H15A 3122   2.411   4.820  11.283 -0.9741  0.2818 -1.7395
   24SAPC  H15B 3123   2.269   4.848  11.366 -0.5847 -0.2729  0.6488
   24SAPC  H15C 3124   2.367   4.719  11.425  0.4715  0.6252 -0.4927
   24SAPC   C11 3125   2.186   4.899  11.107 -0.2317  0.0459  0.5193
   24SAPC  H11A 3126   2.103   4.899  11.181  0.4958  1.4766  1.3601
   24SAPC  H11B 3127   2.143   4.908  11.005  0.0862  0.9550  0.4592
   24SAPC     P 3128   2.347   5.081  11.041 -0.3452 -0.0390 -0.3113
   24SAPC   O13 3129   2.254   5.149  10.948  0.1767 -0.2462 -0.5369
   24SAPC   O14 3130   2.446   5.170  11.112  0.2771  0.5103  0.9164
   24SAPC   O12 3131   2.278   4.994  11.150  0.1762 -0.1371 -0.1569
   24SAPC   O11 3132   2.426   4.977  10.955  0.2627  0.1027  0.1319
   24SAPC    C1 3133   2.384   4.942  10.826  0.0541  0.4448  0.1220
   24SAPC    HA 3134   2.417   4.839  10.803 -1.2855  0.2757 -1.2130
   24SAPC    HB 3135   2.273   4.949  10.824  0.0518  0.8149  0.9597
   24SAPC    C2 3136   2.434   5.035  10.708  0.2535 -0.2390 -0.5149
   24SAPC    HS 3137   2.386   5.135  10.715 -1.9031 -1.2889  0.8256
   24SAPC   O21 3138   2.397   4.964  10.588 -0.4863  0.2509 -0.3165
   24SAPC   C21 3139   2.280   4.997  10.544  1.6529 -0.9323 -0.2697
   24SAPC   O22 3140   2.190   5.052  10.613 -0.0345  0.5210 -0.0405
   24SAPC   C22 3141   2.248   4.944  10.401 -0.0687  0.8821 -0.4481
   24SAPC   H2R 3142   2.311   4.853  10.386 -0.3139  0.2109  2.1351
   24SAPC   H2S 3143   2.141   4.913  10.407  0.2513 -0.3944 -0.8990
   24SAPC    C3 3144   2.581   5.061  10.726 -0.0997  0.4981  0.4968
   24SAPC    HX 3145   2.619   4.958  10.745 -1.5334 -0.3303 -0.8733
   24SAPC    HY 3146   2.599   5.126  10.813  1.7594  0.7392 -0.0118
   24SAPC   O31 3147   2.636   5.123  10.605  0.1357  0.1001 -0.6294
   24SAPC   C31 3148   2.771   5.091  10.577 -0.1749  0.1983  0.8323
   24SAPC   O32 3149   2.841   5.030  10.648 -0.6754 -0.1449  0.2876
   24SAPC   C32 3150   2.814   5.158  10.452  1.0372  0.2231 -0.2012
   24SAPC   H2X 3151   2.873   5.245  10.487  0.4303 -0.2360  2.1459
   24SAPC   H2Y 3152   2.721   5.189  10.400 -0.6732 -0.7346  2.1133
   24SAPC   C23 3153   2.273   5.048  10.292 -0.1870  0.0729  0.2304
   24SAPC   H3R 3154   2.221   5.142  10.318  0.0168  0.1726  0.2766
   24SAPC   H3S 3155   2.209   5.010  10.209  0.4728  0.5362 -0.5029
   24SAPC   C24 3156   2.419   5.072  10.262  0.7264 -0.1257 -0.4680
   24SAPC   H4R 3157   2.455   4.984  10.205  0.5160  0.3709 -1.3916
   24SAPC   H4S 3158   2.469   5.066  10.361 -0.5498 -1.3886  0.1478
   24SAPC   C25 3159   2.436   5.209  10.200  0.5228 -0.5578  0.3641
   24SAPC   H5R 3160   2.450   5.289  10.273 -0.4928 -0.4866  0.4964
   24SAPC   C26 3161   2.428   5.234  10.069  0.2268  0.0334  0.0204
   24SAPC   H6R 3162   2.437   5.333  10.023 -1.9441  0.4463  0.4106
   24SAPC   C27 3163   2.388   5.134   9.961 -0.3433 -0.5718 -0.1528
   24SAPC   H7R 3164   2.281   5.146   9.934 -0.2594  2.0566  0.4088
   24SAPC   H7S 3165   2.398   5.032  10.005  2.6332 -0.4454 -0.2876
   24SAPC   C28 3166   2.486   5.145   9.842  0.0168 -0.2742  0.3448
   24SAPC   H8R 3167   2.587   5.112   9.870  0.3115 -0.4139 -0.8383
   24SAPC   C29 3168   2.477   5.188   9.712  0.1622 -0.2956 -1.3409
   24SAPC   H9R 3169   2.572   5.184   9.656  0.7770 -0.3557 -0.3103
   24SAPC  C210 3170   2.350   5.234   9.647 -0.2301  0.0373  1.0617
   24SAPC  H10R 3171   2.364   5.333   9.600  2.6804 -0.9049 -0.2847
   24SAPC  H10S 3172   2.262   5.244   9.714 -1.3059 -0.6032 -0.2080
   24SAPC  C211 3173   2.312   5.135   9.539 -0.9767 -0.7198  1.1007
   24SAPC  H11R 3174   2.304   5.028   9.561  1.0202 -2.0636 -3.5395
   24SAPC  C212 3175   2.283   5.164   9.410  0.4827 -0.1467 -0.0949
   24SAPC  H12R 3176   2.277   5.076   9.344 -0.4623  1.5828 -2.4618
   24SAPC  C213 3177   2.275   5.296   9.334  0.6999 -0.4550  0.2164
   24SAPC  H13R 3178   2.375   5.306   9.285  0.5055 -0.0080 -0.1025
   24SAPC  H13S 3179   2.270   5.394   9.388  0.2468  0.7854 -1.9473
   24SAPC  C214 3180   2.169   5.304   9.227 -0.4409 -0.3629 -0.3383
   24SAPC  H14R 3181   2.067   5.299   9.267 -0.8957  1.1147 -1.2328
   24SAPC  C215 3182   2.194   5.295   9.090  0.3238  0.5022  0.3444
   24SAPC  H15R 3183   2.110   5.291   9.019  1.5398 -0.1524 -1.0889
   24SAPC  C216 3184   2.336   5.286   9.028 -0.3201  0.0807  0.1719
   24SAPC  H16R 3185   2.395   5.217   9.093 -1.8210 -0.1916  1.3002
   24SAPC  H16S 3186   2.397   5.379   9.028  0.4006 -0.3381 -1.7558
   24SAPC  C217 3187   2.346   5.238   8.884  0.2047  0.1946 -0.7940
   24SAPC  H17R 3188   2.280   5.151   8.864 -0.6327  1.2689 -2.9339
   24SAPC  H17S 3189   2.449   5.204   8.859 -0.9373 -2.7519 -1.8884
   24SAPC  C218 3190   2.293   5.338   8.776 -0.2529 -0.0546 -0.4719
   24SAPC  H18R 3191   2.302   5.437   8.826  0.0819 -1.8089  3.2722
   24SAPC  H18S 3192   2.186   5.321   8.756 -0.4184 -1.9727  1.5950
   24SAPC  C219 3193   2.389   5.357   8.655 -0.3579  0.8018 -0.4262
   24SAPC  H19R 3194   2.492   5.374   8.691  0.0023 -0.6389 -0.7428
   24SAPC  H19S 3195   2.351   5.445   8.597  1.0957  0.9248 -1.2273
   24SAPC  C220 3196   2.401   5.242   8.559 -0.1762  0.2623  0.2003
   24SAPC  H20R 3197   2.423   5.141   8.600 -1.0496 -0.5305 -1.2005
   24SAPC  H20S 3198   2.465   5.266   8.472 -1.1624 -2.0152 -1.2380
   24SAPC  H20T 3199   2.302   5.225   8.512 -1.1103  4.7808  0.1329
   24SAPC   C33 3200   2.897   5.067  10.356  1.0512  0.5879 -0.0728
   24SAPC   H3X 3201   2.830   4.990  10.312  0.4740  0.7137  0.5724
   24SAPC   H3Y 3202   2.981   5.025  10.416  0.5248 -1.5349 -0.7314
   24SAPC   C34 3203   2.967   5.139  10.237  0.1939  0.2750  0.3903
   24SAPC   H4X 3204   3.018   5.061  10.177  2.1637  1.2713  0.6969
   24SAPC   H4Y 3205   3.047   5.206  10.274  0.2821  1.8415 -2.3249
   24SAPC   C35 3206   2.879   5.208  10.137  0.2281  0.0788 -0.1595
   24SAPC   H5X 3207   2.834   5.294  10.191  1.8494  1.6071 -1.0956
   24SAPC   H5Y 3208   2.806   5.133  10.101 -1.7787  1.2115  1.3679
   24SAPC   C36 3209   2.950   5.261  10.011  0.0120  0.4062 -0.2716
   24SAPC   H6X 3210   3.040   5.199   9.992  0.0618  0.7510 -1.2460
   24SAPC   H6Y 3211   2.979   5.367  10.028 -0.4578  0.5961 -0.6122
   24SAPC   C37 3212   2.851   5.250   9.887 -0.2985 -0.1849  0.0136
   24SAPC   H7X 3213   2.754   5.302   9.903  0.9264  3.0236 -1.9541
   24SAPC   H7Y 3214   2.830   5.144   9.860  0.8493 -0.2576 -0.6906
   24SAPC   C38 3215   2.910   5.324   9.765  0.6154 -0.1082  0.0479
   24SAPC   H8X 3216   3.005   5.272   9.742  1.1304  0.6673  0.3980
   24SAPC   H8Y 3217   2.925   5.429   9.797  0.6882 -0.1999  0.3141
   24SAPC   C39 3218   2.822   5.313   9.643  0.7195  0.7838  0.9562
   24SAPC   H9X 3219   2.729   5.363   9.679 -1.3190  1.4556 -4.4285
   24SAPC   H9Y 3220   2.812   5.204   9.627  0.6293  0.7520  1.2202
   24SAPC  C310 3221   2.873   5.376   9.513  0.7097 -0.1029 -0.0410
   24SAPC  H10X 3222   2.958   5.307   9.493 -0.8053 -1.9919 -0.3360
   24SAPC  H10Y 3223   2.905   5.481   9.523 -1.7354  0.6547  0.7007
   24SAPC  C311 3224   2.773   5.369   9.391 -0.2497  1.4702  0.5257
   24SAPC  H11X 3225   2.671   5.405   9.416  0.1404  2.0150  1.3777
   24SAPC  H11Y 3226   2.769   5.262   9.363 -1.4587  1.8927 -1.0708
   24SAPC  C312 3227   2.821   5.448   9.268  0.5367 -0.2648  0.6416
   24SAPC  H12X 3228   2.914   5.395   9.237  0.5812 -0.5067  1.1625
   24SAPC  H12Y 3229   2.851   5.545   9.312 -1.3990 -0.1498  1.8468
   24SAPC  C313 3230   2.705   5.459   9.167 -0.9185 -0.2523  0.3410
   24SAPC  H13X 3231   2.627   5.533   9.195 -2.8962 -2.1992  0.3362
   24SAPC  H13Y 3232   2.660   5.358   9.180 -0.6016 -0.2567  1.4987
   24SAPC  C314 3233   2.761   5.483   9.032  0.6623 -0.2835  0.0944
   24SAPC  H14X 3234   2.820   5.397   8.994  3.6090  0.8879  1.6638
   24SAPC  H14Y 3235   2.828   5.572   9.034 -1.3239  1.2720  0.7537
   24SAPC  C315 3236   2.645   5.531   8.936  0.1333 -0.3714  0.1850
   24SAPC  H15X 3237   2.585   5.610   8.986  2.3080  1.5561 -0.0789
   24SAPC  H15Y 3238   2.580   5.445   8.909  1.1277 -0.3579 -2.5853
   24SAPC  C316 3239   2.703   5.596   8.801 -0.2084  0.0017 -0.0231
   24SAPC  H16X 3240   2.768   5.534   8.736  0.3793  2.4234 -1.8708
   24SAPC  H16Y 3241   2.779   5.671   8.832 -1.3395  2.4421 -2.6718
   24SAPC  C317 3242   2.585   5.660   8.723 -0.4973 -0.4466  0.5386
   24SAPC  H17X 3243   2.527   5.730   8.787 -0.6348  1.3786 -1.4522
   24SAPC  H17Y 3244   2.510   5.586   8.688  0.5531 -1.5097  0.4729
   24SAPC  C318 3245   2.626   5.753   8.602  0.0342  0.3652 -0.5996
   24SAPC  H18X 3246   2.532   5.796   8.563 -0.6171 -2.3664 -2.3094
   24SAPC  H18Y 3247   2.688   5.713   8.519  2.1788  0.8826  0.6734
   24SAPC  H18Z 3248   2.676   5.848   8.628  1.1635 -0.0773 -1.0977
   25SAPC     N 3249   5.765   4.613   5.931 -0.2871  0.1496  0.5642
   25SAPC   C12 3250   5.797   4.652   6.076  0.8802  0.8366  0.2808
   25SAPC  H12A 3251   5.703   4.646   6.129  1.5483 -0.2805  1.3717
   25SAPC  H12B 3252   5.829   4.755   6.070 -1.2311  1.5410 -0.0297
   25SAPC   C13 3253   5.639   4.683   5.897 -0.0413 -0.3594  0.1900
   25SAPC  H13A 3254   5.567   4.667   5.976  1.1158 -0.8010  1.1937
   25SAPC  H13B 3255   5.668   4.787   5.900 -1.1843 -0.0588  1.3793
   25SAPC  H13C 3256   5.612   4.662   5.794 -0.7124 -1.8232  0.6337
   25SAPC   C14 3257   5.867   4.656   5.830 -0.1076  0.4475  0.5010
   25SAPC  H14A 3258   5.845   4.623   5.730 -1.0173 -1.4087  1.2679
   25SAPC  H14B 3259   5.865   4.764   5.832 -0.5489  0.4345  2.2260
   25SAPC  H14C 3260   5.963   4.617   5.861 -0.6404  0.0935  1.7877
   25SAPC   C15 3261   5.750   4.467   5.922 -0.2691 -0.9482 -0.1513
   25SAPC  H15A 3262   5.678   4.432   5.995  2.2282 -3.5514  1.2128
   25SAPC  H15B 3263   5.717   4.437   5.824  1.6437 -0.8772 -0.8561
   25SAPC  H15C 3264   5.844   4.416   5.935  1.3777  1.5048 -1.6980
   25SAPC   C11 3265   5.904   4.584   6.156 -0.9331 -0.5654 -0.3520
   25SAPC  H11A 3266   5.882   4.476   6.172 -0.8731 -0.6974 -1.1173
   25SAPC  H11B 3267   5.905   4.629   6.258  0.6911 -1.7629  0.2020
   25SAPC     P 3268   6.125   4.733   6.098 -0.1072  0.2368  0.4535
   25SAPC   O13 3269   6.242   4.718   6.006 -0.0940  0.0526 -0.4899
   25SAPC   O14 3270   6.049   4.855   6.078  0.4741 -0.0543  0.4413
   25SAPC   O12 3271   6.036   4.599   6.091 -0.4096  0.5995  0.3095
   25SAPC   O11 3272   6.184   4.743   6.252  0.0968  0.5753 -0.0098
   25SAPC    C1 3273   6.249   4.634   6.314 -0.3743  0.2312  0.4182
   25SAPC    HA 3274   6.251   4.536   6.262 -0.3694  0.9235 -0.9108
   25SAPC    HB 3275   6.353   4.664   6.337  0.1434 -0.0673 -1.4237
   25SAPC    C2 3276   6.176   4.602   6.450  0.0016 -0.6558 -0.5578
   25SAPC    HS 3277   6.071   4.572   6.431 -0.6851  1.9093 -1.1986
   25SAPC   O21 3278   6.173   4.712   6.546  0.2708 -0.4987 -0.6310
   25SAPC   C21 3279   6.068   4.709   6.630  0.2931  0.0022  0.1588
   25SAPC   O22 3280   5.992   4.618   6.641  0.2625  0.8141  0.3563
   25SAPC   C22 3281   6.065   4.838   6.708  0.3353  0.1676 -0.4128
   25SAPC   H2R 3282   5.958   4.847   6.738 -0.1611 -3.5196 -0.5868
   25SAPC   H2S 3283   6.130   4.826   6.797 -0.1038  1.0694  0.0375
   25SAPC    C3 3284   6.250   4.482   6.519  0.3706 -0.2863 -0.3314
   25SAPC    HX 3285   6.272   4.405   6.443 -0.0764 -1.3199  0.5610
   25SAPC    HY 3286   6.176   4.430   6.584  0.2548 -1.0927 -1.0919
   25SAPC   O31 3287   6.365   4.528   6.580 -0.5161 -1.0693  0.5879
   25SAPC   C31 3288   6.355   4.561   6.714 -0.1311  0.5015  0.7388
   25SAPC   O32 3289   6.264   4.529   6.787  0.2831  0.3366 -0.2992
   25SAPC   C32 3290   6.473   4.644   6.749 -0.8625 -0.6274 -0.0599
   25SAPC   H2X 3291   6.464   4.742   6.698 -0.7389 -0.4071  0.3372
   25SAPC   H2Y 3292   6.565   4.606   6.699 -0.7346 -0.1622 -0.1817
   25SAPC   C23 3293   6.097   4.968   6.643  0.3586 -0.2612  0.0319
   25SAPC   H3R 3294   6.018   4.994   6.569 -0.3310 -1.6487  0.2666
   25SAPC   H3S 3295   6.189   4.951   6.584  1.2123 -0.0762  1.2693
   25SAPC   C24 3296   6.100   5.078   6.753 -0.5245 -0.5486  0.3794
   25SAPC   H4R 3297   6.144   5.158   6.690 -0.4767 -1.8136 -1.2765
   25SAPC   H4S 3298   6.191   5.044   6.806  1.1229  0.1375 -1.8610
   25SAPC   C25 3299   5.974   5.109   6.827  0.0898 -0.0115  0.3388
   25SAPC   H5R 3300   5.907   5.178   6.775  1.5419  0.7014 -0.6500
   25SAPC   C26 3301   5.948   5.079   6.952 -0.0096  0.0242  0.5513
   25SAPC   H6R 3302   5.853   5.108   6.998 -0.2381 -0.8005  0.6285
   25SAPC   C27 3303   6.037   5.004   7.055  0.2817  0.5153 -0.0380
   25SAPC   H7R 3304   6.039   5.062   7.150  0.5710  0.0322  0.2632
   25SAPC   H7S 3305   6.140   4.995   7.013  0.2925 -1.4933  0.3145
   25SAPC   C28 3306   5.972   4.867   7.083 -0.2113  0.3160  0.0005
   25SAPC   H8R 3307   5.940   4.802   7.000  1.4604 -0.9677  0.3132
   25SAPC   C29 3308   5.952   4.814   7.209 -0.0915 -0.0711  0.2850
   25SAPC   H9R 3309   5.908   4.713   7.211  1.0128 -0.5885 -0.6764
   25SAPC  C210 3310   5.984   4.864   7.353 -0.0607  0.3269  0.4446
   25SAPC  H10R 3311   5.921   4.952   7.379  0.1944  0.5329  0.3748
   25SAPC  H10S 3312   6.091   4.894   7.342  0.2016 -0.2344  1.3935
   25SAPC  C211 3313   5.987   4.759   7.460  0.0280 -0.4684  0.1705
   25SAPC  H11R 3314   6.008   4.658   7.420  3.8059 -0.5110  1.7542
   25SAPC  C212 3315   5.982   4.776   7.596 -0.4552 -0.1366  0.0094
   25SAPC  H12R 3316   5.994   4.688   7.660  2.5027  0.5995  0.6075
   25SAPC  C213 3317   5.970   4.913   7.661  0.0551  0.1333  0.1131
   25SAPC  H13R 3318   5.919   4.894   7.758 -0.9910  2.0629 -0.0230
   25SAPC  H13S 3319   5.907   4.991   7.615  0.3536  0.3526  0.0730
   25SAPC  C214 3320   6.107   4.973   7.697  0.6671 -0.0891  0.1819
   25SAPC  H14R 3321   6.195   4.941   7.640  1.2317  1.3140  0.2296
   25SAPC  C215 3322   6.120   5.066   7.790 -0.5289  0.1002 -0.3206
   25SAPC  H15R 3323   6.222   5.102   7.807  0.1523  0.5143 -4.2454
   25SAPC  C216 3324   6.026   5.131   7.884  0.2152  0.0284 -0.1058
   25SAPC  H16R 3325   5.933   5.070   7.885  1.3385 -1.8061 -1.6872
   25SAPC  H16S 3326   6.007   5.231   7.838 -0.7090  0.0316  0.2547
   25SAPC  C217 3327   6.091   5.143   8.026 -0.0370  0.1628  0.0809
   25SAPC  H17R 3328   6.187   5.198   8.024  0.7370 -1.1091  0.8941
   25SAPC  H17S 3329   6.119   5.042   8.064  1.7867  0.4858 -0.2953
   25SAPC  C218 3330   5.993   5.204   8.128  0.0477 -0.0459  0.1758
   25SAPC  H18R 3331   5.952   5.300   8.089 -0.0508 -0.1456  0.0286
   25SAPC  H18S 3332   6.053   5.223   8.219 -0.0411  0.1562  0.1940
   25SAPC  C219 3333   5.883   5.102   8.159  0.6201 -0.8626  0.5503
   25SAPC  H19R 3334   5.929   5.002   8.175  1.4664 -0.4454  0.7304
   25SAPC  H19S 3335   5.816   5.093   8.071 -1.5671  0.2616  1.9923
   25SAPC  C220 3336   5.800   5.151   8.276  0.2762 -1.0119 -0.8133
   25SAPC  H20R 3337   5.740   5.238   8.243  1.1181 -0.4612 -0.9241
   25SAPC  H20S 3338   5.864   5.185   8.360 -0.3974  3.6297 -1.9268
   25SAPC  H20T 3339   5.721   5.077   8.301  0.2877 -0.6195  0.4606
   25SAPC   C33 3340   6.489   4.666   6.908  0.0760 -0.3743 -0.4331
   25SAPC   H3X 3341   6.596   4.694   6.925 -0.4787  1.1169  0.8527
   25SAPC   H3Y 3342   6.461   4.572   6.961 -1.2624  0.2362 -0.0511
   25SAPC   C34 3343   6.393   4.773   6.960 -0.7462  0.2228 -0.2939
   25SAPC   H4X 3344   6.285   4.759   6.938 -0.8274  2.5380 -1.7079
   25SAPC   H4Y 3345   6.414   4.870   6.911  1.5411  0.3828  0.8939
   25SAPC   C35 3346   6.405   4.815   7.105 -0.7303 -0.1083  0.6273
   25SAPC   H5X 3347   6.329   4.886   7.143 -1.7603 -2.0042  2.3247
   25SAPC   H5Y 3348   6.497   4.876   7.116  0.0850 -1.4286  1.4067
   25SAPC   C36 3349   6.419   4.695   7.199 -0.8400 -0.3873  0.3613
   25SAPC   H6X 3350   6.518   4.651   7.174 -1.0064 -1.0576  0.8588
   25SAPC   H6Y 3351   6.342   4.620   7.173 -1.6815  0.8125 -0.7379
   25SAPC   C37 3352   6.398   4.730   7.347 -0.0845 -0.6222  0.3514
   25SAPC   H7X 3353   6.294   4.768   7.359  0.8551  2.3849 -0.3645
   25SAPC   H7Y 3354   6.457   4.822   7.367 -0.8482 -0.1190  0.3192
   25SAPC   C38 3355   6.436   4.620   7.448 -0.0491 -0.1676 -0.0097
   25SAPC   H8X 3356   6.546   4.609   7.457 -0.3474 -1.9009  2.1757
   25SAPC   H8Y 3357   6.391   4.523   7.420  2.4859 -1.3058 -0.4265
   25SAPC   C39 3358   6.383   4.657   7.588 -0.3323  0.0922  0.1948
   25SAPC   H9X 3359   6.274   4.677   7.581 -0.5988 -0.9765  1.0138
   25SAPC   H9Y 3360   6.434   4.742   7.637  0.9838  0.2558 -1.3746
   25SAPC  C310 3361   6.407   4.532   7.683  0.3028 -0.4641  0.0339
   25SAPC  H10X 3362   6.515   4.527   7.709  0.6053  1.6990 -0.5561
   25SAPC  H10Y 3363   6.372   4.442   7.629  0.0962 -1.4548  1.7505
   25SAPC  C311 3364   6.329   4.532   7.816 -0.8060 -0.6024 -0.5454
   25SAPC  H11X 3365   6.329   4.425   7.847  1.0719 -1.1535 -2.2580
   25SAPC  H11Y 3366   6.224   4.548   7.784 -0.4612  2.6252 -0.4179
   25SAPC  C312 3367   6.376   4.639   7.917  0.0956 -0.3115 -0.3649
   25SAPC  H12X 3368   6.408   4.728   7.857  0.2409 -0.2833 -0.2476
   25SAPC  H12Y 3369   6.469   4.617   7.974 -0.2326 -0.2397  0.2060
   25SAPC  C313 3370   6.277   4.688   8.017  0.2987  0.2594  0.0416
   25SAPC  H13X 3371   6.252   4.611   8.092 -0.9266  0.6469  0.0519
   25SAPC  H13Y 3372   6.176   4.720   7.984 -1.4095  0.1109  4.4616
   25SAPC  C314 3373   6.321   4.801   8.121  0.0315  0.2452  1.2617
   25SAPC  H14X 3374   6.324   4.901   8.072  1.2636 -0.1618  0.4578
   25SAPC  H14Y 3375   6.425   4.775   8.151  1.2936  1.3677 -1.6990
   25SAPC  C315 3376   6.223   4.799   8.242 -0.0028 -0.2574 -0.5710
   25SAPC  H15X 3377   6.236   4.701   8.292 -2.5258 -1.5036 -2.1681
   25SAPC  H15Y 3378   6.117   4.800   8.209  0.3185 -0.8251 -1.6485
   25SAPC  C316 3379   6.261   4.911   8.341  0.2256  0.2833 -0.5014
   25SAPC  H16X 3380   6.246   5.007   8.287 -1.3719 -0.3074 -1.1541
   25SAPC  H16Y 3381   6.369   4.898   8.366 -0.0487 -2.5565 -0.4957
   25SAPC  C317 3382   6.175   4.904   8.462  0.7764  0.1106  0.0156
   25SAPC  H17X 3383   6.195   4.816   8.527 -0.2814 -1.5410 -1.7777
   25SAPC  H17Y 3384   6.070   4.889   8.429  1.1492 -0.6656 -0.8783
   25SAPC  C318 3385   6.174   5.023   8.553 -0.1254 -1.2088  0.7509
   25SAPC  H18X 3386   6.084   5.028   8.619  0.3593  1.9276  1.3150
   25SAPC  H18Y 3387   6.166   5.109   8.483  0.5522 -1.6750  0.0909
   25SAPC  H18Z 3388   6.268   5.021   8.613  0.4852  0.6668 -0.0839
   26SAPC     N 3389   5.187   5.660   5.742 -0.2197  0.0787  0.2180
   26SAPC   C12 3390   5.246   5.708   5.872 -0.5037  0.0381  0.2625
   26SAPC  H12A 3391   5.171   5.713   5.949  0.2868  2.2123  0.9535
   26SAPC  H12B 3392   5.274   5.810   5.851 -1.5096  0.0090 -1.3485
   26SAPC   C13 3393   5.292   5.639   5.639 -0.6422 -0.1047 -0.9230
   26SAPC  H13A 3394   5.254   5.617   5.540  0.6285 -0.5320 -1.3386
   26SAPC  H13B 3395   5.354   5.724   5.615 -0.5549 -0.0364 -0.4612
   26SAPC  H13C 3396   5.351   5.554   5.670  0.4096  1.2630  0.9813
   26SAPC   C14 3397   5.092   5.539   5.757 -0.6568 -0.5155  0.0283
   26SAPC  H14A 3398   5.137   5.450   5.799  1.0060  0.9907  1.5790
   26SAPC  H14B 3399   5.024   5.561   5.838 -0.0402 -0.2334  0.4785
   26SAPC  H14C 3400   5.040   5.505   5.669 -3.9214 -1.8054  2.2655
   26SAPC   C15 3401   5.094   5.765   5.690 -0.0783 -1.1535 -0.5989
   26SAPC  H15A 3402   5.139   5.851   5.643 -0.2211 -1.6665 -1.6979
   26SAPC  H15B 3403   5.027   5.737   5.610 -0.6531  2.1734 -1.4167
   26SAPC  H15C 3404   5.023   5.795   5.766  2.7352  0.5742  1.5346
   26SAPC   C11 3405   5.353   5.613   5.933  0.2792 -1.1846  0.2976
   26SAPC  H11A 3406   5.407   5.657   6.019  0.8754 -0.1937 -0.5575
   26SAPC  H11B 3407   5.434   5.602   5.858 -0.0542  0.8427 -0.4111
   26SAPC     P 3408   5.184   5.464   6.085 -0.5444  0.2730 -0.3137
   26SAPC   O13 3409   5.056   5.526   6.061 -0.4180 -0.2438  0.2259
   26SAPC   O14 3410   5.183   5.325   6.134 -0.2963 -0.4039  0.1787
   26SAPC   O12 3411   5.297   5.485   5.970  0.3888  0.3081 -0.6947
   26SAPC   O11 3412   5.253   5.543   6.209  0.0329  0.0619 -0.2027
   26SAPC    C1 3413   5.379   5.493   6.258  0.7013  0.4066  0.8216
   26SAPC    HA 3414   5.433   5.424   6.191  0.8628  3.0903 -2.0329
   26SAPC    HB 3415   5.449   5.578   6.270 -0.7599  1.7547  0.2881
   26SAPC    C2 3416   5.359   5.428   6.399  0.2275  0.1182 -0.8085
   26SAPC    HS 3417   5.305   5.333   6.378  1.2917 -0.7329  0.1911
   26SAPC   O21 3418   5.293   5.526   6.490 -0.3187 -0.8493  0.3520
   26SAPC   C21 3419   5.200   5.464   6.568 -0.1934  0.1889  0.2161
   26SAPC   O22 3420   5.187   5.345   6.577 -0.4393  0.0115  0.0895
   26SAPC   C22 3421   5.131   5.573   6.658  0.2205  0.2366 -0.7984
   26SAPC   H2R 3422   5.211   5.627   6.713  1.7722 -3.2983  0.7617
   26SAPC   H2S 3423   5.074   5.638   6.588 -0.7590 -0.9497 -1.1433
   26SAPC    C3 3424   5.499   5.394   6.458  0.0271 -0.2193  0.1731
   26SAPC    HX 3425   5.553   5.490   6.473  1.6698 -1.1678  0.6244
   26SAPC    HY 3426   5.539   5.344   6.367 -0.6407  0.3563 -0.4420
   26SAPC   O31 3427   5.492   5.305   6.576  0.5543 -0.3056  0.5397
   26SAPC   C31 3428   5.572   5.205   6.579  0.6616 -0.7961  0.0241
   26SAPC   O32 3429   5.661   5.172   6.503 -0.2994 -0.4426  0.3613
   26SAPC   C32 3430   5.522   5.129   6.703  0.2113 -0.1473  0.4771
   26SAPC   H2X 3431   5.570   5.029   6.700  1.3120  0.3699  0.4045
   26SAPC   H2Y 3432   5.412   5.119   6.698  0.2763 -0.4455 -0.6960
   26SAPC   C23 3433   5.049   5.513   6.767  0.0148  0.9068  0.0973
   26SAPC   H3R 3434   4.961   5.468   6.716  2.0434 -0.7360 -2.1629
   26SAPC   H3S 3435   5.005   5.598   6.823 -3.0605 -0.5889  0.1768
   26SAPC   C24 3436   5.114   5.406   6.867  0.5346 -0.0053  0.0250
   26SAPC   H4R 3437   5.125   5.313   6.807 -1.6028 -0.5699  0.4282
   26SAPC   H4S 3438   5.037   5.388   6.945 -0.2945  0.4834 -0.6591
   26SAPC   C25 3439   5.238   5.451   6.928 -0.2108 -0.8159  0.1750
   26SAPC   H5R 3440   5.322   5.456   6.856 -0.9181  0.8599 -0.5847
   26SAPC   C26 3441   5.257   5.476   7.055 -0.3131  0.0399 -1.0285
   26SAPC   H6R 3442   5.357   5.516   7.077 -1.3809  2.4232 -0.1805
   26SAPC   C27 3443   5.168   5.461   7.165  0.1973 -0.7015  0.2289
   26SAPC   H7R 3444   5.098   5.375   7.150 -1.6028  0.9547 -1.4857
   26SAPC   H7S 3445   5.096   5.545   7.171 -0.6770 -1.2992 -1.3719
   26SAPC   C28 3446   5.243   5.443   7.297  0.4996  0.6875 -0.3840
   26SAPC   H8R 3447   5.308   5.354   7.298  1.2361  1.1825  2.2407
   26SAPC   C29 3448   5.244   5.526   7.401 -0.2880 -0.1910 -0.4929
   26SAPC   H9R 3449   5.300   5.510   7.495 -0.4869 -0.1374 -0.3639
   26SAPC  C210 3450   5.164   5.654   7.412  0.1673  0.7719 -0.7227
   26SAPC  H10R 3451   5.163   5.723   7.326  2.3611  1.3779 -0.3387
   26SAPC  H10S 3452   5.219   5.707   7.493  1.2286 -0.8407 -0.3331
   26SAPC  C211 3453   5.022   5.618   7.449 -0.2646  0.5800 -0.6386
   26SAPC  H11R 3454   4.989   5.520   7.413  0.7926  0.2666 -0.7862
   26SAPC  C212 3455   4.944   5.675   7.538  0.4823 -0.1256  0.1596
   26SAPC  H12R 3456   4.848   5.630   7.566  1.4217 -0.6745  2.8226
   26SAPC  C213 3457   4.981   5.790   7.635  0.2323  0.0012  0.0430
   26SAPC  H13R 3458   5.055   5.848   7.575  0.1790 -1.5410 -1.6371
   26SAPC  H13S 3459   5.031   5.761   7.730  0.0223  0.9910  0.4585
   26SAPC  C214 3460   4.861   5.882   7.640 -0.1767 -0.3239  0.1517
   26SAPC  H14R 3461   4.821   5.918   7.544  0.2051 -2.1876 -0.7548
   26SAPC  C215 3462   4.808   5.925   7.757  0.1923 -0.5805 -0.0057
   26SAPC  H15R 3463   4.724   5.996   7.757  0.4355 -0.2538  1.3959
   26SAPC  C216 3464   4.854   5.889   7.891 -0.1565  0.3385 -0.3997
   26SAPC  H16R 3465   4.962   5.912   7.900 -0.2581  0.0989  2.0742
   26SAPC  H16S 3466   4.848   5.780   7.909  0.3831  0.2047 -0.9905
   26SAPC  C217 3467   4.773   5.960   8.005 -0.0256  0.0203  0.6669
   26SAPC  H17R 3468   4.804   5.903   8.095  0.1184 -1.5535 -0.3505
   26SAPC  H17S 3469   4.668   5.931   7.987 -0.0333  1.1763 -1.5160
   26SAPC  C218 3470   4.783   6.112   8.016  0.4763  0.1562  0.0057
   26SAPC  H18R 3471   4.711   6.163   8.083  1.3343  1.2637  0.1157
   26SAPC  H18S 3472   4.740   6.137   7.917  0.1408  0.6832  0.2784
   26SAPC  C219 3473   4.920   6.178   8.034 -0.3544 -0.2502 -0.3023
   26SAPC  H19R 3474   4.897   6.282   8.062  1.6395  0.5758 -1.4922
   26SAPC  H19S 3475   4.976   6.175   7.938  0.8361  0.3007  0.3478
   26SAPC  C220 3476   4.992   6.109   8.145  0.3947 -0.5727 -0.3276
   26SAPC  H20R 3477   4.920   6.104   8.229  0.4954 -0.0021 -0.2002
   26SAPC  H20S 3478   5.078   6.173   8.177  0.1777 -0.6761  0.4762
   26SAPC  H20T 3479   5.042   6.012   8.125  2.3394 -0.0634  1.5617
   26SAPC   C33 3480   5.563   5.199   6.834  0.0971 -0.1536  0.7066
   26SAPC   H3X 3481   5.522   5.302   6.839 -1.3135 -0.6968  0.6522
   26SAPC   H3Y 3482   5.670   5.227   6.839  0.3906 -0.8855 -0.8316
   26SAPC   C34 3483   5.519   5.131   6.965 -0.0587  0.2866 -0.4526
   26SAPC   H4X 3484   5.550   5.024   6.961  0.7311  0.3966  1.6071
   26SAPC   H4Y 3485   5.409   5.131   6.978  0.1290  1.4723  1.4646
   26SAPC   C35 3486   5.580   5.200   7.083 -0.5819  0.1600 -0.3417
   26SAPC   H5X 3487   5.507   5.274   7.120  0.6851  1.1982  0.1427
   26SAPC   H5Y 3488   5.673   5.253   7.052 -1.5620  1.5652 -0.9884
   26SAPC   C36 3489   5.610   5.105   7.197  0.1977 -0.1800  0.5821
   26SAPC   H6X 3490   5.689   5.031   7.175 -0.9377 -0.4358 -3.2634
   26SAPC   H6Y 3491   5.521   5.045   7.224 -1.0145  1.8352  1.3167
   26SAPC   C37 3492   5.655   5.183   7.323  0.4151  0.1378  0.2967
   26SAPC   H7X 3493   5.579   5.260   7.349  0.9509  0.8413 -0.1508
   26SAPC   H7Y 3494   5.747   5.238   7.295 -0.2410  0.8174 -0.5871
   26SAPC   C38 3495   5.666   5.097   7.453 -0.7991 -0.0394  0.1847
   26SAPC   H8X 3496   5.764   5.112   7.504 -1.6469  2.1118  1.2976
   26SAPC   H8Y 3497   5.678   4.992   7.420  4.0655 -0.1302  1.4106
   26SAPC   C39 3498   5.556   5.130   7.557  0.7033 -0.1734 -0.3320
   26SAPC   H9X 3499   5.461   5.085   7.522  1.5896 -0.8256 -2.0468
   26SAPC   H9Y 3500   5.552   5.241   7.563 -0.9487 -0.1537 -1.1744
   26SAPC  C310 3501   5.582   5.068   7.699  0.2673 -0.0927 -0.3002
   26SAPC  H10X 3502   5.682   5.094   7.738  0.5660 -1.7826  0.1634
   26SAPC  H10Y 3503   5.580   4.957   7.686 -0.0948 -0.0739 -0.4283
   26SAPC  C311 3504   5.467   5.113   7.801  0.2645 -0.1407  0.3462
   26SAPC  H11X 3505   5.368   5.089   7.757  0.4719  0.9711 -0.7691
   26SAPC  H11Y 3506   5.469   5.223   7.820  0.0297 -0.2615  1.1158
   26SAPC  C312 3507   5.488   5.055   7.950 -0.2694  0.0680  0.6993
   26SAPC  H12X 3508   5.587   5.091   7.985 -0.2993  1.3793 -0.4299
   26SAPC  H12Y 3509   5.500   4.947   7.927 -0.1810  0.3219 -0.5084
   26SAPC  C313 3510   5.363   5.076   8.038  0.7284  0.6509  0.2096
   26SAPC  H13X 3511   5.286   4.999   8.019  1.7775 -0.4112  0.1343
   26SAPC  H13Y 3512   5.312   5.168   8.004 -0.0034  0.9667  2.0717
   26SAPC  C314 3513   5.402   5.086   8.186 -0.5565 -1.0875  0.0170
   26SAPC  H14X 3514   5.494   5.147   8.185 -0.8794 -0.5275  1.6203
   26SAPC  H14Y 3515   5.405   4.984   8.229  0.8826 -0.3635  1.7370
   26SAPC  C315 3516   5.306   5.178   8.269 -0.1909 -0.1316  0.4198
   26SAPC  H15X 3517   5.306   5.284   8.235  0.5626  0.1484  1.2408
   26SAPC  H15Y 3518   5.323   5.169   8.378 -1.3785 -0.3105  0.5999
   26SAPC  C316 3519   5.163   5.127   8.278 -0.3169 -0.8678 -0.1967
   26SAPC  H16X 3520   5.161   5.032   8.335  2.4859 -0.3137  0.9758
   26SAPC  H16Y 3521   5.122   5.118   8.175  2.2086 -1.7075 -1.2034
   26SAPC  C317 3522   5.067   5.219   8.349  0.5155 -0.2230 -0.5843
   26SAPC  H17X 3523   4.966   5.175   8.359 -0.3278  0.9489 -2.9669
   26SAPC  H17Y 3524   5.045   5.305   8.281 -2.0378 -0.0024  0.4054
   26SAPC  C318 3525   5.102   5.268   8.490 -0.1214  0.1308  0.2823
   26SAPC  H18X 3526   5.031   5.337   8.538 -0.3653 -0.3967  0.6927
   26SAPC  H18Y 3527   5.204   5.312   8.492 -0.1994  0.2983  1.6771
   26SAPC  H18Z 3528   5.112   5.178   8.556  3.3757  1.5904  2.0169
   27SAPC     N 3529   2.240   5.776   6.220  0.0172 -0.3274 -0.1543
   27SAPC   C12 3530   2.215   5.637   6.276 -0.2707  0.1476  0.2608
   27SAPC  H12A 3531   2.294   5.571   6.246  1.7041  1.8792  1.3758
   27SAPC  H12B 3532   2.126   5.596   6.231  0.6159 -1.0513 -0.4520
   27SAPC   C13 3533   2.372   5.841   6.246  0.6026  0.0990 -0.2665
   27SAPC  H13A 3534   2.366   5.939   6.202  1.4803 -0.1577 -1.0014
   27SAPC  H13B 3535   2.388   5.860   6.351  0.9246  1.5728 -0.5628
   27SAPC  H13C 3536   2.464   5.794   6.211 -1.1321 -3.9019 -0.0460
   27SAPC   C14 3537   2.234   5.756   6.070 -0.3603  0.5741  0.3240
   27SAPC  H14A 3538   2.239   5.851   6.018  0.8374  1.2478  1.5757
   27SAPC  H14B 3539   2.315   5.694   6.036 -2.3073 -2.1080  0.2741
   27SAPC  H14C 3540   2.141   5.712   6.039  0.0325 -0.4279  0.5398
   27SAPC   C15 3541   2.133   5.872   6.251  0.2285 -0.0317  0.1877
   27SAPC  H15A 3542   2.039   5.821   6.233  0.3068  0.2827 -1.2407
   27SAPC  H15B 3543   2.136   5.900   6.355  0.7386  0.5525  0.0226
   27SAPC  H15C 3544   2.134   5.958   6.185  0.1131 -1.0168 -1.1274
   27SAPC   C11 3545   2.194   5.640   6.433  0.4858 -0.7326  0.8750
   27SAPC  H11A 3546   2.097   5.685   6.460  0.6605  0.6131 -0.5939
   27SAPC  H11B 3547   2.280   5.685   6.488 -0.5858  0.3324  1.7373
   27SAPC     P 3548   2.277   5.409   6.553  0.1089 -0.2540 -0.1799
   27SAPC   O13 3549   2.307   5.284   6.486 -0.2681 -0.4921  0.2123
   27SAPC   O14 3550   2.400   5.485   6.588  0.1584 -0.0605 -0.0833
   27SAPC   O12 3551   2.186   5.501   6.467 -0.1685 -0.4036 -0.7108
   27SAPC   O11 3552   2.199   5.383   6.685  0.3474 -0.0382  0.4446
   27SAPC    C1 3553   2.056   5.394   6.674  0.6636 -0.4400  0.1224
   27SAPC    HA 3554   2.026   5.500   6.659  1.2210 -0.1138  1.1555
   27SAPC    HB 3555   2.002   5.352   6.587  1.2503 -0.4658 -0.2374
   27SAPC    C2 3556   1.978   5.343   6.803 -0.4277 -0.1128 -1.3415
   27SAPC    HS 3557   1.879   5.391   6.811  0.0025  0.8575 -1.7145
   27SAPC   O21 3558   2.055   5.364   6.926  0.0956 -0.1248 -0.0931
   27SAPC   C21 3559   2.058   5.485   6.965  0.6833 -0.5285 -0.2299
   27SAPC   O22 3560   2.017   5.581   6.902 -0.5167  0.4490  0.5352
   27SAPC   C22 3561   2.121   5.494   7.110  0.6160  0.1295  0.3194
   27SAPC   H2R 3562   2.189   5.407   7.121 -1.3680 -1.7181 -1.0670
   27SAPC   H2S 3563   2.182   5.586   7.118 -1.1495  1.4110 -0.2451
   27SAPC    C3 3564   1.969   5.195   6.791  0.7745  0.0444 -0.9442
   27SAPC    HX 3565   2.072   5.157   6.808 -0.3952 -2.0811  2.3502
   27SAPC    HY 3566   1.948   5.166   6.686  1.1944  2.4572 -1.7502
   27SAPC   O31 3567   1.868   5.133   6.878  0.0812  0.7860  0.6779
   27SAPC   C31 3568   1.919   5.053   6.966 -0.9692  0.6157 -0.8650
   27SAPC   O32 3569   2.035   5.008   6.974 -0.2256 -0.0066  0.3225
   27SAPC   C32 3570   1.799   5.000   7.055  0.1445 -0.0143 -0.1507
   27SAPC   H2X 3571   1.732   4.944   6.986 -1.3891  1.3910  0.1437
   27SAPC   H2Y 3572   1.747   5.092   7.088 -0.4651 -0.1616 -0.6881
   27SAPC   C23 3573   2.021   5.507   7.226 -0.4238 -0.0567 -0.1243
   27SAPC   H3R 3574   1.953   5.596   7.228 -0.2530  0.0828  2.1185
   27SAPC   H3S 3575   2.095   5.516   7.308 -0.8056  2.0530  0.0642
   27SAPC   C24 3576   1.944   5.379   7.248 -0.2430 -0.0367  0.5794
   27SAPC   H4R 3577   1.973   5.324   7.340 -0.1917  1.7602  1.6888
   27SAPC   H4S 3578   1.964   5.307   7.166  0.6423 -1.0573  1.6661
   27SAPC   C25 3579   1.796   5.395   7.252  0.5043 -0.2352  0.2487
   27SAPC   H5R 3580   1.745   5.435   7.163 -0.9828 -3.3802 -0.4708
   27SAPC   C26 3581   1.722   5.357   7.355  0.0825  0.3298  0.2942
   27SAPC   H6R 3582   1.613   5.353   7.344 -0.0006 -1.0680  1.2476
   27SAPC   C27 3583   1.767   5.298   7.484 -0.3920  0.0016 -0.6875
   27SAPC   H7R 3584   1.866   5.337   7.516  0.2143 -1.1772 -1.0702
   27SAPC   H7S 3585   1.776   5.189   7.466  0.7697  0.3957 -2.7207
   27SAPC   C28 3586   1.652   5.317   7.586 -0.5867 -0.4094 -0.0938
   27SAPC   H8R 3587   1.563   5.367   7.546 -0.8395 -1.9937 -1.6439
   27SAPC   C29 3588   1.645   5.265   7.710 -0.5995  0.8115 -0.3786
   27SAPC   H9R 3589   1.561   5.276   7.780  0.0905  1.6242  0.3430
   27SAPC  C210 3590   1.759   5.186   7.772 -0.6792 -0.0762 -0.2544
   27SAPC  H10R 3591   1.802   5.243   7.857 -0.1422 -0.9987  0.1045
   27SAPC  H10S 3592   1.836   5.175   7.693  0.1752 -1.3847  0.7110
   27SAPC  C211 3593   1.734   5.046   7.822 -0.4285  0.9615 -0.7814
   27SAPC  H11R 3594   1.715   4.966   7.749 -0.8511 -0.7345  1.1014
   27SAPC  C212 3595   1.736   5.010   7.953  0.0817 -0.1152  0.3912
   27SAPC  H12R 3596   1.700   4.909   7.979  1.4203 -0.1059  2.5571
   27SAPC  C213 3597   1.785   5.091   8.076 -0.5138  0.2897  0.2548
   27SAPC  H13R 3598   1.736   5.190   8.079  2.0174  1.6462 -0.2163
   27SAPC  H13S 3599   1.893   5.113   8.060 -0.4604 -0.5281 -0.5824
   27SAPC  C214 3600   1.762   5.018   8.207  0.5757  0.0923 -0.6546
   27SAPC  H14R 3601   1.837   4.940   8.228  0.8542  0.4567 -0.2879
   27SAPC  C215 3602   1.657   5.039   8.295  0.0882 -0.8322 -0.2539
   27SAPC  H15R 3603   1.647   4.976   8.384 -0.2237 -0.4079  0.0124
   27SAPC  C216 3604   1.545   5.140   8.285  0.4543 -0.1672 -0.0631
   27SAPC  H16R 3605   1.448   5.093   8.310 -1.3212  2.0303 -2.3260
   27SAPC  H16S 3606   1.530   5.174   8.180 -2.2182  0.9687  0.6034
   27SAPC  C217 3607   1.545   5.257   8.383 -0.8082  0.3419  0.4429
   27SAPC  H17R 3608   1.647   5.285   8.417 -0.3558  0.8081 -1.2385
   27SAPC  H17S 3609   1.485   5.220   8.470 -0.7896  0.9663  0.7291
   27SAPC  C218 3610   1.472   5.381   8.329 -0.0001  0.3401 -0.5164
   27SAPC  H18R 3611   1.470   5.449   8.417 -0.4369  1.0354 -1.0537
   27SAPC  H18S 3612   1.369   5.346   8.307  0.3125 -0.0097 -1.4802
   27SAPC  C219 3613   1.536   5.447   8.211  0.3214  0.5593 -0.0996
   27SAPC  H19R 3614   1.500   5.402   8.116  1.2404  0.5464 -0.4446
   27SAPC  H19S 3615   1.644   5.425   8.218 -0.1017 -1.3722  1.3287
   27SAPC  C220 3616   1.523   5.595   8.200 -0.9113 -0.1838 -0.1949
   27SAPC  H20R 3617   1.547   5.643   8.298 -2.6050 -0.8512  0.5789
   27SAPC  H20S 3618   1.419   5.628   8.178 -0.7464 -0.4209 -1.3772
   27SAPC  H20T 3619   1.588   5.637   8.120 -1.5072 -1.9364 -1.6676
   27SAPC   C33 3620   1.845   4.919   7.172 -0.2213 -0.3953  0.3675
   27SAPC   H3X 3621   1.922   4.984   7.220 -0.1736 -1.0772  1.2417
   27SAPC   H3Y 3622   1.880   4.824   7.128  2.7262  1.2832 -1.2725
   27SAPC   C34 3623   1.737   4.910   7.281  0.0037  0.4147 -0.5951
   27SAPC   H4X 3624   1.646   4.877   7.226 -0.2293  0.8686 -0.4872
   27SAPC   H4Y 3625   1.707   5.014   7.307 -1.4236  0.1014 -0.8832
   27SAPC   C35 3626   1.774   4.798   7.382  0.9024  0.1504 -0.0709
   27SAPC   H5X 3627   1.872   4.811   7.434 -0.6354 -0.9244  3.3803
   27SAPC   H5Y 3628   1.789   4.698   7.336  0.3674 -0.4746  1.0622
   27SAPC   C36 3629   1.679   4.776   7.503 -0.2866  0.8401  0.2640
   27SAPC   H6X 3630   1.581   4.741   7.463  0.4667  1.7725 -2.6423
   27SAPC   H6Y 3631   1.662   4.866   7.566 -1.1314 -1.8006  4.2143
   27SAPC   C37 3632   1.734   4.677   7.611 -0.2171 -0.1774  0.3945
   27SAPC   H7X 3633   1.837   4.711   7.634  0.1791 -0.8754 -0.2989
   27SAPC   H7Y 3634   1.727   4.581   7.555  0.9517 -0.1636  0.1893
   27SAPC   C38 3635   1.649   4.674   7.744  0.3311  0.3747 -0.1299
   27SAPC   H8X 3636   1.646   4.776   7.789 -2.6319  1.3934 -2.3157
   27SAPC   H8Y 3637   1.700   4.603   7.813 -1.7698 -2.2608 -1.0897
   27SAPC   C39 3638   1.506   4.624   7.715 -0.1051  0.3970  0.2498
   27SAPC   H9X 3639   1.527   4.535   7.651 -0.3504  0.4692  0.0658
   27SAPC   H9Y 3640   1.446   4.702   7.663 -0.5308 -0.5936 -0.7956
   27SAPC  C310 3641   1.427   4.584   7.841  0.3112  0.0226 -0.2608
   27SAPC  H10X 3642   1.487   4.571   7.934  1.4221  0.0437 -0.9571
   27SAPC  H10Y 3643   1.381   4.487   7.811 -1.0005  0.5176  0.0903
   27SAPC  C311 3644   1.304   4.674   7.875 -0.3064  0.3184 -0.0233
   27SAPC  H11X 3645   1.250   4.615   7.953  1.7786 -1.4464  0.1758
   27SAPC  H11Y 3646   1.243   4.698   7.785  0.8506 -1.3649 -1.3229
   27SAPC  C312 3647   1.342   4.807   7.936 -0.9059  0.3400  0.3891
   27SAPC  H12X 3648   1.381   4.876   7.858  1.1755 -0.9195  0.2328
   27SAPC  H12Y 3649   1.424   4.800   8.010 -0.1148 -0.8726 -0.5592
   27SAPC  C313 3650   1.231   4.866   8.025  0.4434  0.1688 -0.8003
   27SAPC  H13X 3651   1.202   4.795   8.105  0.3593  1.5416  0.4448
   27SAPC  H13Y 3652   1.147   4.887   7.955 -0.1212 -1.6176 -0.6866
   27SAPC  C314 3653   1.272   4.999   8.076  0.1210 -0.0708 -0.2217
   27SAPC  H14X 3654   1.381   4.997   8.098  0.3314  1.3662 -0.9821
   27SAPC  H14Y 3655   1.213   5.022   8.168 -0.4796  0.8983 -0.8213
   27SAPC  C315 3656   1.230   5.109   7.980 -0.2162  0.1210  0.1429
   27SAPC  H15X 3657   1.119   5.110   7.976 -0.2955  1.6768  1.4749
   27SAPC  H15Y 3658   1.263   5.090   7.876  0.8420 -1.4853  0.7260
   27SAPC  C316 3659   1.277   5.251   8.023  0.9390 -0.1927 -0.1855
   27SAPC  H16X 3660   1.376   5.278   7.980  0.9274  0.9070  0.4401
   27SAPC  H16Y 3661   1.290   5.260   8.133 -0.4161 -0.9615  0.0580
   27SAPC  C317 3662   1.175   5.351   7.966 -0.3249 -0.0598 -0.2646
   27SAPC  H17X 3663   1.076   5.336   8.015 -0.8850  0.3014 -1.2466
   27SAPC  H17Y 3664   1.162   5.328   7.858  0.3010  2.1091 -0.8536
   27SAPC  C318 3665   1.218   5.497   7.967 -0.0667 -0.8911  0.4479
   27SAPC  H18X 3666   1.313   5.501   7.911 -1.2143  2.0125 -1.5196
   27SAPC  H18Y 3667   1.232   5.516   8.076 -1.5620  0.9667  0.3846
   27SAPC  H18Z 3668   1.138   5.558   7.920 -2.1172 -4.0894 -0.5248
   28SAPC     N 3669   2.938   2.738   5.961  0.2615  0.5432  0.2481
   28SAPC   C12 3670   3.026   2.682   6.067 -0.7349 -0.3154 -0.1377
   28SAPC  H12A 3671   3.088   2.767   6.091 -0.9577  0.8030 -2.9965
   28SAPC  H12B 3672   3.086   2.602   6.027  4.0849  0.8857  3.7626
   28SAPC   C13 3673   2.882   2.869   6.014 -0.5021 -0.4326  0.6453
   28SAPC  H13A 3674   2.799   2.850   6.081 -1.8193 -0.4095 -0.9100
   28SAPC  H13B 3675   2.959   2.930   6.059 -1.6349  0.9608  0.7926
   28SAPC  H13C 3676   2.841   2.922   5.929 -1.3415 -1.6363  0.2667
   28SAPC   C14 3677   3.013   2.754   5.832  0.1097  0.3219  0.3409
   28SAPC  H14A 3678   2.949   2.787   5.752  1.6687  0.4797 -0.8751
   28SAPC  H14B 3679   3.088   2.830   5.845 -1.5082  1.6604  2.5729
   28SAPC  H14C 3680   3.056   2.659   5.804 -1.7120 -0.3869 -0.1522
   28SAPC   C15 3681   2.829   2.649   5.921  0.4363  1.1033  0.0648
   28SAPC  H15A 3682   2.751   2.700   5.867 -0.2554  2.6962  2.4085
   28SAPC  H15B 3683   2.852   2.568   5.854 -1.8304  0.5021 -0.0726
   28SAPC  H15C 3684   2.778   2.608   6.007  2.7845 -2.5026 -0.0377
   28SAPC   C11 3685   2.942   2.626   6.190  0.3393 -0.1412 -0.2928
   28SAPC  H11A 3686   2.858   2.696   6.210  0.7863 -0.0422  1.3381
   28SAPC  H11B 3687   3.007   2.626   6.280  1.2972 -0.4378 -0.9740
   28SAPC     P 3688   2.815   2.404   6.261 -0.0130  0.3232 -0.2272
   28SAPC   O13 3689   2.684   2.469   6.286 -0.2262  0.5578  0.1824
   28SAPC   O14 3690   2.824   2.274   6.191 -0.4213 -0.0127  0.1985
   28SAPC   O12 3691   2.892   2.497   6.168  0.2388 -0.5215  1.1292
   28SAPC   O11 3692   2.912   2.403   6.392 -0.0230  0.1487  0.1726
   28SAPC    C1 3693   2.869   2.327   6.504 -0.5802  0.3418  0.0034
   28SAPC    HA 3694   2.781   2.263   6.479 -0.2701  0.4939 -1.5670
   28SAPC    HB 3695   2.948   2.250   6.521 -1.7529 -1.1089 -0.8873
   28SAPC    C2 3696   2.844   2.414   6.628  0.5850  0.0905 -0.7570
   28SAPC    HS 3697   2.848   2.361   6.725  1.1669  1.6072  0.0911
   28SAPC   O21 3698   2.723   2.492   6.606 -0.7932  0.1229 -0.2454
   28SAPC   C21 3699   2.611   2.415   6.603 -0.0910 -0.1448 -0.2233
   28SAPC   O22 3700   2.612   2.293   6.622 -0.1347  0.4319  0.1675
   28SAPC   C22 3701   2.485   2.500   6.581  0.7259  0.5397 -0.3262
   28SAPC   H2R 3702   2.500   2.599   6.629  1.1329 -0.4593  1.7241
   28SAPC   H2S 3703   2.464   2.510   6.472 -1.9519 -2.6376 -0.2335
   28SAPC    C3 3704   2.969   2.504   6.646 -0.2431  0.2181  0.8086
   28SAPC    HX 3705   2.982   2.555   6.549 -2.8690  0.4451  0.4889
   28SAPC    HY 3706   3.056   2.438   6.667  0.1523  0.5146  0.0977
   28SAPC   O31 3707   2.951   2.593   6.757  0.5100  0.0675  0.5008
   28SAPC   C31 3708   2.891   2.708   6.725  0.7412 -0.0010 -0.9313
   28SAPC   O32 3709   2.862   2.755   6.619 -0.1783  0.6673  0.1819
   28SAPC   C32 3710   2.866   2.786   6.855 -0.4228  0.4528  0.7275
   28SAPC   H2X 3711   2.894   2.892   6.841 -0.0412  0.4947  1.7164
   28SAPC   H2Y 3712   2.929   2.757   6.942 -3.0718 -0.5292  2.4614
   28SAPC   C23 3713   2.368   2.417   6.646  0.1332 -1.2862  0.1437
   28SAPC   H3R 3714   2.396   2.387   6.749 -1.6130 -1.2102  0.6659
   28SAPC   H3S 3715   2.352   2.321   6.592  0.7269 -2.7643  2.4409
   28SAPC   C24 3716   2.232   2.491   6.653  0.1045 -0.0191 -0.3858
   28SAPC   H4R 3717   2.195   2.498   6.548  0.1351  2.8243 -0.2632
   28SAPC   H4S 3718   2.154   2.424   6.696 -1.2107  1.2492 -0.7104
   28SAPC   C25 3719   2.232   2.625   6.717  0.4110 -0.1685 -0.2624
   28SAPC   H5R 3720   2.255   2.705   6.645 -2.0191  0.3200 -0.5802
   28SAPC   C26 3721   2.189   2.670   6.837  0.0633  0.1899  0.0423
   28SAPC   H6R 3722   2.207   2.777   6.852  0.1961 -0.0988  2.3521
   28SAPC   C27 3723   2.122   2.596   6.948  0.3183  0.0333  0.2919
   28SAPC   H7R 3724   2.092   2.493   6.921  0.5891 -0.1384  0.6274
   28SAPC   H7S 3725   2.024   2.646   6.965  0.9349  1.7990 -0.9959
   28SAPC   C28 3726   2.209   2.588   7.074  0.3159 -0.0291  0.5253
   28SAPC   H8R 3727   2.299   2.651   7.079 -0.3950  1.0135  0.4798
   28SAPC   C29 3728   2.205   2.504   7.173 -0.0876  0.0926  0.5272
   28SAPC   H9R 3729   2.273   2.516   7.258 -1.1337 -0.8952  1.5275
   28SAPC  C210 3730   2.101   2.399   7.188  0.4745  0.7179 -0.2023
   28SAPC  H10R 3731   2.146   2.297   7.189 -0.7973  0.1292 -0.9273
   28SAPC  H10S 3732   2.033   2.399   7.100 -0.2130 -0.0960  0.3203
   28SAPC  C211 3733   2.009   2.433   7.303  0.0217 -0.1434 -0.5204
   28SAPC  H11R 3734   1.909   2.461   7.268  0.0730 -0.7308 -1.1489
   28SAPC  C212 3735   2.035   2.419   7.440 -0.0255 -1.0151 -0.4065
   28SAPC  H12R 3736   1.965   2.461   7.513  0.2592  1.4666 -1.4826
   28SAPC  C213 3737   2.160   2.366   7.505  0.2394  0.2704 -0.2507
   28SAPC  H13R 3738   2.240   2.363   7.428 -0.8108  1.9154 -1.4981
   28SAPC  H13S 3739   2.144   2.259   7.530  3.3124 -0.0534  0.6816
   28SAPC  C214 3740   2.198   2.454   7.623  0.3096  0.5677  0.4128
   28SAPC  H14R 3741   2.281   2.514   7.584  0.6049 -0.6950 -1.0271
   28SAPC  C215 3742   2.178   2.451   7.753 -0.1062  0.3335 -0.3466
   28SAPC  H15R 3743   2.229   2.526   7.816 -2.6218  0.1127  2.1852
   28SAPC  C216 3744   2.100   2.348   7.834 -0.2289  0.1168 -0.1030
   28SAPC  H16R 3745   2.084   2.256   7.775 -1.3462 -0.2472  0.7314
   28SAPC  H16S 3746   2.003   2.399   7.855  0.3882  0.3654  2.6095
   28SAPC  C217 3747   2.157   2.318   7.972 -0.1131 -1.1065 -0.4368
   28SAPC  H17R 3748   2.160   2.409   8.035  0.1642 -1.0715 -0.4974
   28SAPC  H17S 3749   2.260   2.274   7.967  0.1920 -0.2866 -2.2913
   28SAPC  C218 3750   2.062   2.227   8.054  0.4848  0.3791 -0.0148
   28SAPC  H18R 3751   2.015   2.173   7.970  2.4108  1.7000 -2.0583
   28SAPC  H18S 3752   1.986   2.295   8.097 -0.8895  0.1765 -2.0073
   28SAPC  C219 3753   2.137   2.149   8.154 -0.1530  0.2178  0.3655
   28SAPC  H19R 3754   2.074   2.151   8.245  0.4110  0.1862  0.7595
   28SAPC  H19S 3755   2.233   2.196   8.186 -1.2039  2.0216  0.9788
   28SAPC  C220 3756   2.165   2.003   8.124 -0.1060 -0.5227  0.6642
   28SAPC  H20R 3757   2.076   1.960   8.073 -1.9663  2.3754  1.2358
   28SAPC  H20S 3758   2.185   1.948   8.218  0.7629  1.6075  1.7837
   28SAPC  H20T 3759   2.250   1.999   8.052  0.1823  1.1102  0.8608
   28SAPC   C33 3760   2.717   2.795   6.899 -0.2527  0.7873 -0.0007
   28SAPC   H3X 3761   2.652   2.828   6.815 -0.2021  0.6414 -0.0986
   28SAPC   H3Y 3762   2.701   2.852   6.993  0.9043  2.1034 -0.5844
   28SAPC   C34 3763   2.666   2.646   6.930 -0.2661  0.1611  0.0868
   28SAPC   H4X 3764   2.676   2.577   6.844 -0.8721  0.2009 -0.0215
   28SAPC   H4Y 3765   2.559   2.663   6.955 -0.1373  4.0237 -1.2632
   28SAPC   C35 3766   2.729   2.570   7.048  0.0277 -0.1696 -0.5243
   28SAPC   H5X 3767   2.797   2.638   7.104  0.3588 -1.3089  0.4955
   28SAPC   H5Y 3768   2.794   2.489   7.008  0.1248 -0.6056  0.4946
   28SAPC   C36 3769   2.631   2.517   7.149  0.0965 -0.2567 -0.4479
   28SAPC   H6X 3770   2.583   2.423   7.113 -1.6228  0.3623  0.1272
   28SAPC   H6Y 3771   2.549   2.591   7.149 -0.2238 -0.5961 -1.3129
   28SAPC   C37 3772   2.685   2.505   7.289 -0.0399 -0.1323 -0.0291
   28SAPC   H7X 3773   2.733   2.599   7.326  1.3715 -1.6339  2.1490
   28SAPC   H7Y 3774   2.771   2.435   7.296 -0.8458 -1.2407 -0.8584
   28SAPC   C38 3775   2.587   2.465   7.405 -0.0052 -0.3392  0.0431
   28SAPC   H8X 3776   2.549   2.365   7.375 -0.7522  0.1306 -0.6258
   28SAPC   H8Y 3777   2.509   2.542   7.421 -1.0394 -1.6354  1.6194
   28SAPC   C39 3778   2.668   2.445   7.537  0.1261  0.2650  0.0829
   28SAPC   H9X 3779   2.731   2.531   7.568 -1.4200  0.7772  2.0201
   28SAPC   H9Y 3780   2.736   2.361   7.512  1.4761  1.2633  0.2833
   28SAPC  C310 3781   2.587   2.407   7.662  0.9305  0.5581 -0.0306
   28SAPC  H10X 3782   2.523   2.321   7.635 -1.9560  1.9783  1.7817
   28SAPC  H10Y 3783   2.512   2.486   7.685 -0.1234 -0.3933 -0.1502
   28SAPC  C311 3784   2.680   2.372   7.785  0.3637 -0.6432  0.2873
   28SAPC  H11X 3785   2.751   2.454   7.811 -2.2124  2.3884 -1.5427
   28SAPC  H11Y 3786   2.737   2.287   7.742  0.5929  0.7387 -2.3236
   28SAPC  C312 3787   2.592   2.340   7.915 -0.4418 -0.1718 -0.1680
   28SAPC  H12X 3788   2.660   2.322   8.001 -0.5716  0.3068  0.0412
   28SAPC  H12Y 3789   2.523   2.257   7.889  0.7823 -0.9492 -1.0612
   28SAPC  C313 3790   2.510   2.461   7.961 -0.6085  0.0371  0.8704
   28SAPC  H13X 3791   2.403   2.444   7.935 -0.9860 -1.1775  3.0339
   28SAPC  H13Y 3792   2.553   2.550   7.910  2.0917 -1.1616  0.9076
   28SAPC  C314 3793   2.526   2.490   8.110  0.3892 -0.0487  0.5244
   28SAPC  H14X 3794   2.506   2.596   8.135  2.0406  0.5187 -0.4246
   28SAPC  H14Y 3795   2.630   2.467   8.141  0.4060 -2.1584 -0.8812
   28SAPC  C315 3796   2.436   2.406   8.209  0.5361  0.1803  0.2464
   28SAPC  H15X 3797   2.437   2.297   8.189 -1.2874 -0.4475  3.0317
   28SAPC  H15Y 3798   2.333   2.446   8.204  0.5115  0.0352 -0.4610
   28SAPC  C316 3799   2.482   2.428   8.354  0.4922  0.3188 -0.0354
   28SAPC  H16X 3800   2.496   2.539   8.357  2.3906  0.1527 -1.1723
   28SAPC  H16Y 3801   2.578   2.380   8.383  0.4829  0.5088  0.3151
   28SAPC  C317 3802   2.379   2.379   8.455 -0.2262  0.3160  0.7441
   28SAPC  H17X 3803   2.278   2.386   8.409 -0.4146 -2.2338  0.6298
   28SAPC  H17Y 3804   2.372   2.443   8.545  1.0743  1.0375  0.3569
   28SAPC  C318 3805   2.387   2.228   8.484 -0.6323  0.3254  0.0980
   28SAPC  H18X 3806   2.492   2.192   8.500 -0.2786  1.6071  0.7464
   28SAPC  H18Y 3807   2.352   2.174   8.394  1.7809  0.3394 -0.9294
   28SAPC  H18Z 3808   2.317   2.203   8.567  0.6380 -1.0885  0.8054
   29SAPC     N 3809   4.835   6.813   6.154  0.3421 -0.4513  0.1189
   29SAPC   C12 3810   4.689   6.773   6.163 -0.1249 -0.7329  0.9414
   29SAPC  H12A 3811   4.661   6.756   6.060  1.2633 -0.9231  0.5744
   29SAPC  H12B 3812   4.628   6.854   6.201  1.9051  1.9873 -1.1953
   29SAPC   C13 3813   4.850   6.954   6.089 -0.0966  0.0037 -0.0732
   29SAPC  H13A 3814   4.793   7.025   6.147 -0.2553 -0.0396 -0.1769
   29SAPC  H13B 3815   4.953   6.987   6.095  0.4758 -1.8985  1.9873
   29SAPC  H13C 3816   4.801   6.943   5.994 -0.1854 -0.8365  0.0680
   29SAPC   C14 3817   4.888   6.817   6.294  0.1265  0.0770 -0.3517
   29SAPC  H14A 3818   4.822   6.878   6.354 -0.7390 -1.6712  0.5237
   29SAPC  H14B 3819   4.883   6.721   6.343  2.0721 -0.1612 -0.5468
   29SAPC  H14C 3820   4.990   6.855   6.297  0.1705  0.0945  3.4354
   29SAPC   C15 3821   4.911   6.714   6.068  0.0163 -0.3877 -0.2264
   29SAPC  H15A 3822   5.018   6.729   6.078  0.0279  3.2550 -3.4653
   29SAPC  H15B 3823   4.876   6.615   6.094 -2.9238  0.8442  0.8926
   29SAPC  H15C 3824   4.885   6.736   5.965  0.4744  0.3646 -0.1919
   29SAPC   C11 3825   4.663   6.644   6.241  0.2713 -0.9812 -0.3057
   29SAPC  H11A 3826   4.753   6.581   6.221  0.7284 -1.0463  1.6719
   29SAPC  H11B 3827   4.569   6.592   6.214 -0.0409 -0.0769 -0.9862
   29SAPC     P 3828   4.541   6.730   6.462  0.0233 -0.3110 -0.0827
   29SAPC   O13 3829   4.498   6.858   6.394 -0.0985  1.1007  0.3481
   29SAPC   O14 3830   4.437   6.630   6.469 -0.2467  0.6786 -0.2451
   29SAPC   O12 3831   4.658   6.663   6.385 -0.6123 -0.1561 -0.5299
   29SAPC   O11 3832   4.596   6.759   6.604  0.3531 -0.1027 -0.3090
   29SAPC    C1 3833   4.713   6.845   6.610 -0.1692 -0.1702 -0.4604
   29SAPC    HA 3834   4.783   6.818   6.528 -0.2399  3.1910 -1.7659
   29SAPC    HB 3835   4.690   6.953   6.604 -2.1760 -0.5816 -0.8559
   29SAPC    C2 3836   4.784   6.830   6.744  0.3464 -0.3164  0.5461
   29SAPC    HS 3837   4.795   6.720   6.754 -1.4749 -0.7468 -1.5206
   29SAPC   O21 3838   4.708   6.896   6.847 -0.2186  0.0311  0.2604
   29SAPC   C21 3839   4.700   6.830   6.957 -0.5083 -0.2416  0.0290
   29SAPC   O22 3840   4.732   6.710   6.965 -0.0619  0.1271 -0.3062
   29SAPC   C22 3841   4.649   6.918   7.065 -0.0346  0.0785  0.5651
   29SAPC   H2R 3842   4.727   6.971   7.124  0.0037  0.8653 -0.1668
   29SAPC   H2S 3843   4.588   6.991   7.008 -0.8757 -1.0326 -0.0097
   29SAPC    C3 3844   4.922   6.896   6.741  0.2947  0.4145  0.4959
   29SAPC    HX 3845   4.902   7.002   6.713  1.7405  0.8279  0.9385
   29SAPC    HY 3846   4.986   6.859   6.658  0.2602  1.3670  0.0241
   29SAPC   O31 3847   4.992   6.894   6.863 -0.2236 -0.0110 -0.3729
   29SAPC   C31 3848   5.077   6.784   6.869  0.7551  0.9306 -0.4013
   29SAPC   O32 3849   5.099   6.704   6.782 -0.0268 -0.3255  0.0785
   29SAPC   C32 3850   5.131   6.784   7.012  0.3873  0.0925  0.0849
   29SAPC   H2X 3851   5.165   6.883   7.049  0.3830  0.3704 -0.6409
   29SAPC   H2Y 3852   5.226   6.727   7.011  0.9336  0.9954 -0.2581
   29SAPC   C23 3853   4.546   6.850   7.162  0.0991 -0.9101 -0.3504
   29SAPC   H3R 3854   4.474   6.800   7.095  0.7796  0.9228 -2.5643
   29SAPC   H3S 3855   4.491   6.928   7.220 -1.2388 -1.2059 -1.2051
   29SAPC   C24 3856   4.603   6.760   7.267 -0.5238  0.4320 -0.2841
   29SAPC   H4R 3857   4.636   6.669   7.212 -0.0901 -1.4837  2.8824
   29SAPC   H4S 3858   4.518   6.724   7.329  2.1322 -2.9550  1.8105
   29SAPC   C25 3859   4.719   6.802   7.344 -0.0361 -0.5412 -0.4928
   29SAPC   H5R 3860   4.815   6.805   7.291  0.0781  0.5664 -0.2454
   29SAPC   C26 3861   4.716   6.833   7.476 -0.6819  0.4162  0.3379
   29SAPC   H6R 3862   4.817   6.851   7.517 -0.5076 -0.0356  0.1161
   29SAPC   C27 3863   4.593   6.843   7.557  1.0245 -0.4127  0.0034
   29SAPC   H7R 3864   4.545   6.743   7.567  0.3453  0.0406  1.7273
   29SAPC   H7S 3865   4.520   6.912   7.510 -0.4504 -1.2638  0.9357
   29SAPC   C28 3866   4.617   6.888   7.704  0.9193  0.4915 -0.1278
   29SAPC   H8R 3867   4.543   6.960   7.741  1.6163  1.0254  0.2356
   29SAPC   C29 3868   4.688   6.825   7.804 -0.3988 -0.7450 -0.0765
   29SAPC   H9R 3869   4.688   6.870   7.904  1.4498  1.1086 -0.8301
   29SAPC  C210 3870   4.770   6.709   7.790  0.0557  0.0947 -0.3377
   29SAPC  H10R 3871   4.780   6.684   7.682  2.0539  0.8988 -0.3922
   29SAPC  H10S 3872   4.708   6.630   7.838 -1.4152 -0.3046 -2.7489
   29SAPC  C211 3873   4.915   6.729   7.842  0.5622  0.2562  0.8272
   29SAPC  H11R 3874   4.985   6.769   7.766  1.5672 -2.3283  0.2803
   29SAPC  C212 3875   4.961   6.697   7.960  0.3178  0.5889 -0.3342
   29SAPC  H12R 3876   5.064   6.729   7.980 -0.0730  2.1804 -0.6588
   29SAPC  C213 3877   4.876   6.634   8.073  0.1484  0.5319 -0.3899
   29SAPC  H13R 3878   4.857   6.526   8.050  2.9203 -0.2962  0.7733
   29SAPC  H13S 3879   4.778   6.684   8.084  0.4892  0.8539  1.5466
   29SAPC  C214 3880   4.936   6.655   8.205  0.4666  0.1064 -0.1920
   29SAPC  H14R 3881   4.978   6.571   8.263 -0.2490  0.3731  0.7419
   29SAPC  C215 3882   4.928   6.770   8.276  0.7004 -0.2053  0.2236
   29SAPC  H15R 3883   4.981   6.778   8.373 -1.0312  0.9344  1.1270
   29SAPC  C216 3884   4.872   6.900   8.226  0.9289 -1.1832  0.4429
   29SAPC  H16R 3885   4.822   6.898   8.127  1.7639  2.5116 -0.1815
   29SAPC  H16S 3886   4.958   6.965   8.200  0.9420 -1.8424 -1.3134
   29SAPC  C217 3887   4.783   6.980   8.320  0.4302 -0.8111  0.2239
   29SAPC  H17R 3888   4.845   7.018   8.404  0.7811  1.3752 -0.9419
   29SAPC  H17S 3889   4.700   6.920   8.362  0.0164 -0.9881 -0.8151
   29SAPC  C218 3890   4.721   7.103   8.248  0.2629  0.4304 -0.8371
   29SAPC  H18R 3891   4.687   7.069   8.148  1.2057 -0.8804 -0.7383
   29SAPC  H18S 3892   4.799   7.181   8.239 -0.3924  1.2489  0.2949
   29SAPC  C219 3893   4.612   7.180   8.334  0.5667 -0.0880  0.0340
   29SAPC  H19R 3894   4.600   7.286   8.300 -2.7988 -0.1330  0.7115
   29SAPC  H19S 3895   4.667   7.196   8.429 -0.1494  1.8329  0.1810
   29SAPC  C220 3896   4.477   7.104   8.360  0.0901 -0.2937 -0.1304
   29SAPC  H20R 3897   4.419   7.103   8.265 -0.8150  2.2732  0.3134
   29SAPC  H20S 3898   4.430   7.167   8.438  2.7531  1.0965  0.4903
   29SAPC  H20T 3899   4.502   6.999   8.389 -0.7954 -1.0868 -2.0260
   29SAPC   C33 3900   5.024   6.714   7.100  0.5838 -0.3188 -0.1676
   29SAPC   H3X 3901   4.969   6.635   7.044  1.0783  0.5448 -1.9643
   29SAPC   H3Y 3902   4.950   6.789   7.135 -0.0756 -0.0579 -2.0100
   29SAPC   C34 3903   5.084   6.657   7.231  0.6418 -0.0024 -0.1854
   29SAPC   H4X 3904   5.161   6.589   7.187 -1.0476 -0.1869 -3.1264
   29SAPC   H4Y 3905   5.012   6.597   7.291 -0.2627  0.9508 -0.2864
   29SAPC   C35 3906   5.132   6.774   7.319  0.0864 -0.5509 -0.6334
   29SAPC   H5X 3907   5.047   6.840   7.345  0.6196  0.2375 -0.8702
   29SAPC   H5Y 3908   5.198   6.828   7.249  0.6133  0.1635  0.4005
   29SAPC   C36 3909   5.215   6.726   7.440  0.1609 -0.1751  0.7512
   29SAPC   H6X 3910   5.298   6.665   7.399  1.4023  1.1788  1.1504
   29SAPC   H6Y 3911   5.154   6.661   7.507 -0.0094  1.2240  2.0107
   29SAPC   C37 3912   5.289   6.831   7.532  0.2990  0.1812  0.6711
   29SAPC   H7X 3913   5.225   6.921   7.544  0.9036  0.8077 -0.5707
   29SAPC   H7Y 3914   5.386   6.868   7.491  0.7100 -1.3350  0.2230
   29SAPC   C38 3915   5.315   6.775   7.669  0.1959 -1.1473  0.0342
   29SAPC   H8X 3916   5.365   6.677   7.653  1.0143 -0.8809  0.8879
   29SAPC   H8Y 3917   5.217   6.751   7.716  0.3051 -0.6695  0.5069
   29SAPC   C39 3918   5.394   6.872   7.757 -0.2257 -0.2908 -0.5752
   29SAPC   H9X 3919   5.333   6.963   7.774 -0.7204 -0.8663  0.9360
   29SAPC   H9Y 3920   5.495   6.906   7.726 -0.8071  2.7237  0.4338
   29SAPC  C310 3921   5.423   6.798   7.892 -0.1105  0.4686 -0.2757
   29SAPC  H10X 3922   5.473   6.705   7.859 -2.4700 -0.6033 -1.0311
   29SAPC  H10Y 3923   5.322   6.773   7.932 -0.0708 -1.3369 -1.2127
   29SAPC  C311 3924   5.509   6.874   7.989 -0.3665 -0.1199 -0.5334
   29SAPC  H11X 3925   5.458   6.971   8.006 -0.4295 -0.1255 -0.6931
   29SAPC  H11Y 3926   5.616   6.888   7.960  0.8270 -4.5820  0.8965
   29SAPC  C312 3927   5.523   6.809   8.135  0.2336  0.0023 -0.3892
   29SAPC  H12X 3928   5.568   6.712   8.102 -0.7943  0.0386 -2.0220
   29SAPC  H12Y 3929   5.424   6.793   8.183 -0.0536 -0.5309 -1.1393
   29SAPC  C313 3930   5.601   6.886   8.230 -0.2773  0.2095  0.3522
   29SAPC  H13X 3931   5.539   6.967   8.274 -1.8247 -0.6201 -0.2410
   29SAPC  H13Y 3932   5.685   6.929   8.171 -0.6532 -1.0188 -1.1358
   29SAPC  C314 3933   5.670   6.800   8.335  0.0710 -1.0936  0.8149
   29SAPC  H14X 3934   5.725   6.721   8.280 -0.0924 -0.0001 -1.0031
   29SAPC  H14Y 3935   5.592   6.753   8.398 -1.6935  0.1262 -0.3830
   29SAPC  C315 3936   5.765   6.879   8.425 -0.6037 -0.3557  1.3605
   29SAPC  H15X 3937   5.802   6.811   8.505  0.9733 -0.5170  0.5238
   29SAPC  H15Y 3938   5.713   6.963   8.476  0.4770  0.1913  1.5799
   29SAPC  C316 3939   5.896   6.936   8.360 -0.6858  0.1743  0.2353
   29SAPC  H16X 3940   5.864   7.019   8.293 -0.5988 -0.1905 -0.2660
   29SAPC  H16Y 3941   5.929   6.866   8.280  1.6244  0.0570  1.2251
   29SAPC  C317 3942   6.014   6.969   8.460  0.0447 -0.3699 -0.3730
   29SAPC  H17X 3943   6.106   6.995   8.403 -0.1106 -0.2243 -0.5597
   29SAPC  H17Y 3944   6.028   6.879   8.524 -2.0094  0.1098  0.8339
   29SAPC  C318 3945   5.962   7.090   8.548  0.0529  0.4582  0.3358
   29SAPC  H18X 3946   6.039   7.104   8.626  1.2447 -0.5290 -0.6254
   29SAPC  H18Y 3947   5.870   7.066   8.605  0.1362 -0.8071 -0.0286
   29SAPC  H18Z 3948   5.946   7.185   8.493  0.5731  0.3933  0.0724
   30SAPC     N 3949   5.350   0.304   5.675 -0.7350 -0.1888 -0.3756
   30SAPC   C12 3950   5.239   0.209   5.690 -0.4735  0.4226  0.8610
   30SAPC  H12A 3951   5.276   0.118   5.645  0.0785  1.4179 -0.7539
   30SAPC  H12B 3952   5.154   0.244   5.633 -0.2063 -0.3556 -0.0378
   30SAPC   C13 3953   5.332   0.422   5.758  0.7626  0.1215 -0.0722
   30SAPC  H13A 3954   5.237   0.465   5.730  0.3150 -2.0563 -2.2800
   30SAPC  H13B 3955   5.321   0.389   5.860 -0.6661  0.0149 -0.2317
   30SAPC  H13C 3956   5.406   0.499   5.747  3.7557 -2.0861  2.5651
   30SAPC   C14 3957   5.480   0.233   5.717  0.4497 -0.2132  0.4853
   30SAPC  H14A 3958   5.514   0.170   5.636  0.6492  1.5567 -0.8426
   30SAPC  H14B 3959   5.556   0.306   5.740  2.0042 -1.4840 -0.4095
   30SAPC  H14C 3960   5.453   0.171   5.802 -2.2776 -2.7667 -2.0084
   30SAPC   C15 3961   5.371   0.345   5.533  0.9492 -0.2027 -0.1930
   30SAPC  H15A 3962   5.378   0.266   5.460  0.9860 -0.9482  0.5980
   30SAPC  H15B 3963   5.283   0.399   5.501  0.6356 -1.2546 -1.1494
   30SAPC  H15C 3964   5.451   0.417   5.526  0.9668 -0.1066  0.8007
   30SAPC   C11 3965   5.193   0.179   5.834 -0.6210 -0.1269 -0.6325
   30SAPC  H11A 3966   5.117   0.098   5.833 -2.8123  1.8267 -0.2228
   30SAPC  H11B 3967   5.142   0.274   5.863  0.3094 -0.4403  2.3951
   30SAPC     P 3968   5.280   0.097   6.066 -0.4183 -0.1119  0.0047
   30SAPC   O13 3969   5.222  -0.034   6.069 -0.8367 -0.1107  0.3749
   30SAPC   O14 3970   5.409   0.117   6.138  0.2948 -0.8675 -0.0871
   30SAPC   O12 3971   5.303   0.147   5.919  0.2595 -0.1140 -0.1044
   30SAPC   O11 3972   5.176   0.196   6.133  0.0729  0.0451 -0.2710
   30SAPC    C1 3973   5.219   0.335   6.141 -0.0291 -0.1423 -0.3059
   30SAPC    HA 3974   5.327   0.346   6.162  0.0167  0.6314 -0.8939
   30SAPC    HB 3975   5.180   0.393   6.055  0.7179 -0.3917 -0.8197
   30SAPC    C2 3976   5.160   0.409   6.267 -0.2738 -0.9467  0.0454
   30SAPC    HS 3977   5.210   0.508   6.279 -3.0062  0.8644 -2.1625
   30SAPC   O21 3978   5.164   0.321   6.377  0.3882  0.3086  0.3857
   30SAPC   C21 3979   5.276   0.300   6.436  0.2265  0.1821  0.1516
   30SAPC   O22 3980   5.382   0.360   6.421 -0.1939  0.4022  0.0198
   30SAPC   C22 3981   5.262   0.188   6.542  0.4473  0.0653 -0.6388
   30SAPC   H2R 3982   5.174   0.215   6.604 -1.5113 -2.7786 -1.9445
   30SAPC   H2S 3983   5.238   0.092   6.491 -0.8149  0.8079 -1.4915
   30SAPC    C3 3984   5.010   0.438   6.250 -0.0680 -0.0250  0.1955
   30SAPC    HX 3985   4.943   0.351   6.233 -2.1536  1.0001  2.4722
   30SAPC    HY 3986   4.997   0.506   6.163  1.6766  0.4047  0.2248
   30SAPC   O31 3987   4.957   0.517   6.361 -0.6758  0.0727  0.1952
   30SAPC   C31 3988   4.882   0.452   6.455 -0.0786 -0.2060  0.5279
   30SAPC   O32 3989   4.849   0.338   6.451 -0.6298 -0.3081  0.2231
   30SAPC   C32 3990   4.833   0.554   6.564 -0.0483 -0.5739  0.5414
   30SAPC   H2X 3991   4.838   0.659   6.527 -0.9862 -1.2316 -1.6215
   30SAPC   H2Y 3992   4.903   0.559   6.650  1.1749  1.0200 -0.4759
   30SAPC   C23 3993   5.395   0.173   6.621 -0.1897  0.2572 -0.3540
   30SAPC   H3R 3994   5.413   0.267   6.677  1.2880  0.6966 -1.5141
   30SAPC   H3S 3995   5.475   0.159   6.546 -0.8448 -1.6001 -0.7542
   30SAPC   C24 3996   5.401   0.057   6.722 -0.0910  0.3023  0.2838
   30SAPC   H4R 3997   5.389  -0.042   6.673  0.4036  0.0481  0.6603
   30SAPC   H4S 3998   5.320   0.066   6.798 -0.7351  1.6670 -0.5220
   30SAPC   C25 3999   5.535   0.061   6.785  0.4684 -0.1492 -0.0414
   30SAPC   H5R 4000   5.617   0.015   6.727 -0.3748 -0.6679 -0.8541
   30SAPC   C26 4001   5.572   0.127   6.895 -0.1811 -0.1278 -0.4658
   30SAPC   H6R 4002   5.678   0.125   6.925 -0.4118  0.4166  0.4025
   30SAPC   C27 4003   5.489   0.212   6.979  0.5277 -0.9748 -0.2346
   30SAPC   H7R 4004   5.480   0.158   7.076  1.9157 -1.5259 -0.3894
   30SAPC   H7S 4005   5.384   0.208   6.944  0.2274 -0.8293  0.6233
   30SAPC   C28 4006   5.542   0.349   7.010 -0.4269 -0.0839  0.2349
   30SAPC   H8R 4007   5.527   0.426   6.933  2.0472  0.4041  0.1541
   30SAPC   C29 4008   5.604   0.395   7.122  0.0088  0.2513  0.2340
   30SAPC   H9R 4009   5.625   0.502   7.129 -0.2275  0.3038  0.1373
   30SAPC  C210 4010   5.648   0.318   7.247  0.3038 -0.2425 -0.3895
   30SAPC  H10R 4011   5.722   0.377   7.304  0.3972  0.0828 -0.8429
   30SAPC  H10S 4012   5.696   0.223   7.215 -1.7892 -0.4704 -3.3737
   30SAPC  C211 4013   5.529   0.284   7.339  0.2505  0.0911 -0.3548
   30SAPC  H11R 4014   5.458   0.211   7.296  1.7379 -0.8763 -1.2470
   30SAPC  C212 4015   5.514   0.313   7.474 -0.6601 -0.4550  0.6281
   30SAPC  H12R 4016   5.427   0.277   7.531 -2.0638 -1.9925 -2.2581
   30SAPC  C213 4017   5.618   0.389   7.558 -0.4374 -0.4047 -0.1774
   30SAPC  H13R 4018   5.575   0.443   7.645  0.5479  0.6162 -0.3066
   30SAPC  H13S 4019   5.661   0.466   7.491 -1.1903  0.2009  0.0183
   30SAPC  C214 4020   5.729   0.305   7.601 -0.1199  0.5590  0.3130
   30SAPC  H14R 4021   5.770   0.238   7.524  1.4393  1.5591  0.2166
   30SAPC  C215 4022   5.808   0.332   7.708 -0.0710 -0.6660  0.5396
   30SAPC  H15R 4023   5.895   0.266   7.721 -0.7723 -1.3550  1.9706
   30SAPC  C216 4024   5.802   0.445   7.804  0.1105 -0.6350  0.4724
   30SAPC  H16R 4025   5.716   0.513   7.788  1.2532  0.4619 -1.3770
   30SAPC  H16S 4026   5.891   0.509   7.789  1.2996 -2.2030  0.5713
   30SAPC  C217 4027   5.815   0.391   7.948  0.8527 -1.0006 -1.1383
   30SAPC  H17R 4028   5.906   0.330   7.963  1.8383  0.8592  0.9904
   30SAPC  H17S 4029   5.725   0.326   7.955 -0.7128  0.9513 -2.1215
   30SAPC  C218 4030   5.804   0.504   8.057 -0.7681  0.3615  0.2139
   30SAPC  H18R 4031   5.704   0.552   8.049 -1.2400 -0.3894  1.3424
   30SAPC  H18S 4032   5.891   0.571   8.039 -1.5784  0.6106 -3.6561
   30SAPC  C219 4033   5.820   0.466   8.201 -0.5865 -0.5208 -0.5819
   30SAPC  H19R 4034   5.829   0.563   8.255  2.2079 -1.6310  1.1844
   30SAPC  H19S 4035   5.907   0.400   8.223 -0.9544 -0.3466  1.6537
   30SAPC  C220 4036   5.689   0.391   8.249 -0.5997  0.2052 -0.0780
   30SAPC  H20R 4037   5.594   0.442   8.223 -1.8783 -1.5482  0.9630
   30SAPC  H20S 4038   5.698   0.357   8.354  1.7698  1.6813  0.2855
   30SAPC  H20T 4039   5.672   0.299   8.190  1.2264  0.1090 -0.5283
   30SAPC   C33 4040   4.694   0.531   6.625 -0.3804 -0.1028 -0.5074
   30SAPC   H3X 4041   4.615   0.510   6.549 -0.0302 -0.9981 -0.6369
   30SAPC   H3Y 4042   4.662   0.630   6.663  0.5566 -0.7110  2.0199
   30SAPC   C34 4043   4.712   0.438   6.741  0.6641  0.6826 -0.4320
   30SAPC   H4X 4044   4.789   0.458   6.818 -0.2940 -1.3344  1.1558
   30SAPC   H4Y 4045   4.734   0.338   6.696 -1.4485 -0.3010  0.5497
   30SAPC   C35 4046   4.580   0.411   6.814 -0.2053  0.2007 -0.1760
   30SAPC   H5X 4047   4.574   0.312   6.863 -2.4643  0.9421  1.2143
   30SAPC   H5Y 4048   4.497   0.423   6.741  0.6551  0.4910 -1.1400
   30SAPC   C36 4049   4.566   0.511   6.933  0.3729 -0.0703  0.6024
   30SAPC   H6X 4050   4.460   0.499   6.965 -0.4083 -2.7870 -2.4082
   30SAPC   H6Y 4051   4.583   0.614   6.894 -1.7407  0.6920  1.5173
   30SAPC   C37 4052   4.660   0.505   7.055 -0.2114  0.4243  0.2518
   30SAPC   H7X 4053   4.710   0.604   7.055  1.8302 -0.3550 -3.9174
   30SAPC   H7Y 4054   4.731   0.421   7.040 -0.3182  0.4561 -0.4978
   30SAPC   C38 4055   4.587   0.478   7.184 -0.0577 -0.4233  0.0378
   30SAPC   H8X 4056   4.529   0.384   7.179 -1.5092  0.1410  3.4080
   30SAPC   H8Y 4057   4.505   0.553   7.183  1.0954  0.9201  1.0770
   30SAPC   C39 4058   4.662   0.474   7.311  0.6840 -0.3064 -0.2075
   30SAPC   H9X 4059   4.700   0.576   7.332 -1.3319 -0.1666  3.7772
   30SAPC   H9Y 4060   4.740   0.395   7.320 -1.0947 -2.1482 -0.1993
   30SAPC  C310 4061   4.556   0.437   7.415 -0.1480 -0.0126  0.5399
   30SAPC  H10X 4062   4.530   0.329   7.411  1.0052 -0.4050  2.2791
   30SAPC  H10Y 4063   4.466   0.500   7.403  0.4249  0.9563  1.1960
   30SAPC  C311 4064   4.614   0.466   7.561  0.2172 -0.0117 -0.3993
   30SAPC  H11X 4065   4.652   0.568   7.542 -0.0258 -0.0685 -1.2290
   30SAPC  H11Y 4066   4.693   0.393   7.590  0.6166  1.1912  1.8036
   30SAPC  C312 4067   4.512   0.450   7.668 -0.3220  0.3912  0.2160
   30SAPC  H12X 4068   4.482   0.345   7.686  0.2413  0.7180  3.9298
   30SAPC  H12Y 4069   4.416   0.501   7.644 -0.2786  0.1100 -0.5756
   30SAPC  C313 4070   4.553   0.508   7.808 -0.3382  0.0366 -0.2362
   30SAPC  H13X 4071   4.630   0.588   7.799 -0.2805 -0.0685 -0.7329
   30SAPC  H13Y 4072   4.599   0.422   7.859  2.1986  1.0843 -0.5953
   30SAPC  C314 4073   4.435   0.564   7.892  0.5986 -0.8278  0.3519
   30SAPC  H14X 4074   4.352   0.490   7.894  0.2890 -0.4715  1.3683
   30SAPC  H14Y 4075   4.385   0.650   7.842 -0.7730  0.3744  3.5136
   30SAPC  C315 4076   4.461   0.597   8.043  0.1613 -0.5426  0.3275
   30SAPC  H15X 4077   4.540   0.676   8.049  1.4806 -1.8363  0.4524
   30SAPC  H15Y 4078   4.514   0.517   8.099  1.4722 -0.5662 -0.8659
   30SAPC  C316 4079   4.338   0.629   8.124 -0.0541 -1.4031 -0.1181
   30SAPC  H16X 4080   4.284   0.537   8.156 -0.9699 -0.9696 -0.3830
   30SAPC  H16Y 4081   4.272   0.687   8.057  1.5560  1.3852  0.5595
   30SAPC  C317 4082   4.371   0.699   8.254 -0.4515 -0.0766  0.4509
   30SAPC  H17X 4083   4.442   0.782   8.233  1.1301 -1.5560 -0.3122
   30SAPC  H17Y 4084   4.418   0.626   8.323 -1.2360 -1.0434 -0.0186
   30SAPC  C318 4085   4.243   0.746   8.321  0.0274 -0.4427 -0.7178
   30SAPC  H18X 4086   4.262   0.791   8.421 -0.2528  0.3865 -1.0348
   30SAPC  H18Y 4087   4.163   0.668   8.326 -1.6983  1.0454 -3.2265
   30SAPC  H18Z 4088   4.187   0.821   8.262 -0.7875  0.1799  0.7979
   31SAPC     N 4089   0.048   1.072   6.153  0.0751 -0.6156  0.1433
   31SAPC   C12 4090  -0.087   1.152   6.146  0.8082  0.0663  0.0429
   31SAPC  H12A 4091  -0.166   1.080   6.154  0.0076  0.6047 -2.2174
   31SAPC  H12B 4092  -0.102   1.194   6.048 -0.6683  2.4024  1.1782
   31SAPC   C13 4093   0.059   0.992   6.274 -0.5203  0.5951 -0.7056
   31SAPC  H13A 4094  -0.002   0.902   6.271  0.2417  0.0938 -2.7985
   31SAPC  H13B 4095   0.152   0.943   6.298 -1.4220 -0.3149  1.1264
   31SAPC  H13C 4096   0.025   1.055   6.355 -2.1805  0.1753 -1.0339
   31SAPC   C14 4097   0.041   0.980   6.030  0.3397  0.1057 -0.5114
   31SAPC  H14A 4098  -0.054   0.931   6.017  0.5238 -0.1556 -0.9101
   31SAPC  H14B 4099   0.054   1.045   5.945  0.6084  1.5955  0.6248
   31SAPC  H14C 4100   0.124   0.912   6.044  1.1360  1.3018  0.9222
   31SAPC   C15 4101   0.156   1.170   6.140 -0.8793  0.1338  0.4332
   31SAPC  H15A 4102   0.172   1.227   6.230 -0.2481  0.5785  0.0535
   31SAPC  H15B 4103   0.251   1.121   6.126 -1.3711 -0.3813 -1.3256
   31SAPC  H15C 4104   0.139   1.239   6.058  1.1218  1.3150  0.9465
   31SAPC   C11 4105  -0.114   1.271   6.243 -0.4690  0.1387 -0.4633
   31SAPC  H11A 4106  -0.211   1.313   6.209 -0.7629 -1.1643 -1.3169
   31SAPC  H11B 4107  -0.037   1.351   6.242  1.1416 -1.2574  1.6613
   31SAPC     P 4108  -0.257   1.159   6.433  0.1650  0.1476 -0.4345
   31SAPC   O13 4109  -0.340   1.263   6.501 -0.7022 -0.1178  0.2142
   31SAPC   O14 4110  -0.325   1.078   6.329  0.4760 -0.0822 -0.5036
   31SAPC   O12 4111  -0.121   1.229   6.385  0.4186 -0.1886 -0.2253
   31SAPC   O11 4112  -0.208   1.064   6.549 -0.0890 -0.1290  0.2184
   31SAPC    C1 4113  -0.182   0.929   6.527 -0.5964  0.3603  0.6228
   31SAPC    HA 4114  -0.182   0.903   6.419 -0.9109  1.8905  0.2363
   31SAPC    HB 4115  -0.081   0.896   6.563 -0.1987 -0.2700 -1.0044
   31SAPC    C2 4116  -0.278   0.830   6.604 -0.6109  0.3685 -0.0436
   31SAPC    HS 4117  -0.381   0.863   6.580 -1.0359  0.2578  1.4849
   31SAPC   O21 4118  -0.256   0.852   6.743 -0.5177 -0.4715  0.6731
   31SAPC   C21 4119  -0.362   0.847   6.816 -0.4754  0.2065 -0.0386
   31SAPC   O22 4120  -0.472   0.816   6.781  0.5302  0.0518  0.0286
   31SAPC   C22 4121  -0.330   0.891   6.961 -0.2895  0.1734 -0.0474
   31SAPC   H2R 4122  -0.237   0.953   6.965 -0.4748  0.4222  0.4786
   31SAPC   H2S 4123  -0.407   0.957   7.005 -0.6261 -0.5397  0.4454
   31SAPC    C3 4124  -0.237   0.684   6.577 -0.7704  0.0380  0.2223
   31SAPC    HX 4125  -0.253   0.664   6.469  0.3031 -0.4571  0.1419
   31SAPC    HY 4126  -0.310   0.617   6.627 -1.9555  0.3119 -1.0937
   31SAPC   O31 4127  -0.093   0.675   6.611  0.2358  0.3850  0.1592
   31SAPC   C31 4128  -0.073   0.630   6.741 -0.0661 -0.6952 -0.2365
   31SAPC   O32 4129  -0.160   0.579   6.806  0.1105  0.3943  0.0796
   31SAPC   C32 4130   0.067   0.669   6.786 -0.6660  0.7407  0.5508
   31SAPC   H2X 4131   0.083   0.776   6.761 -2.1328  0.9662  0.4625
   31SAPC   H2Y 4132   0.143   0.617   6.724 -1.4597 -0.4932  0.5728
   31SAPC   C23 4133  -0.315   0.771   7.049  0.0517  0.5314 -0.5293
   31SAPC   H3R 4134  -0.226   0.714   7.015 -1.3630 -1.3480 -1.2567
   31SAPC   H3S 4135  -0.398   0.699   7.030 -0.2883  0.7052  0.2589
   31SAPC   C24 4136  -0.303   0.805   7.202  0.3370  0.0757  0.9500
   31SAPC   H4R 4137  -0.377   0.883   7.228 -0.7922 -0.7430  0.2939
   31SAPC   H4S 4138  -0.212   0.866   7.215  0.2477 -0.1183  2.7240
   31SAPC   C25 4139  -0.328   0.689   7.291  0.2171  0.2940  0.1539
   31SAPC   H5R 4140  -0.418   0.630   7.267  1.3232 -1.4454  0.1223
   31SAPC   C26 4141  -0.255   0.662   7.401  0.8655  0.0367 -0.5399
   31SAPC   H6R 4142  -0.281   0.568   7.451 -1.3189  1.5111  1.3057
   31SAPC   C27 4143  -0.137   0.734   7.465 -0.2825 -0.0156 -0.0730
   31SAPC   H7R 4144  -0.062   0.772   7.393  1.4791  0.5793  1.9606
   31SAPC   H7S 4145  -0.067   0.660   7.511  1.8610  1.2914 -1.0886
   31SAPC   C28 4146  -0.179   0.837   7.562 -0.0449  0.2056 -0.1652
   31SAPC   H8R 4147  -0.220   0.930   7.519  1.6195  0.9963 -0.1288
   31SAPC   C29 4148  -0.168   0.830   7.701  0.4335 -0.2895 -0.8782
   31SAPC   H9R 4149  -0.186   0.922   7.759  1.6833  0.6667 -1.9377
   31SAPC  C210 4150  -0.100   0.719   7.782  0.1861  0.3904  0.2221
   31SAPC  H10R 4151  -0.031   0.770   7.852  3.5977 -1.0749 -1.8324
   31SAPC  H10S 4152  -0.040   0.648   7.722  2.2622  0.8281  1.6633
   31SAPC  C211 4153  -0.203   0.649   7.872 -0.3308 -0.4165  0.8128
   31SAPC  H11R 4154  -0.281   0.602   7.810 -0.5348  2.0067 -0.9381
   31SAPC  C212 4155  -0.224   0.643   8.006  0.5790 -0.8533 -0.4867
   31SAPC  H12R 4156  -0.295   0.567   8.044  1.9282 -2.0916 -0.3290
   31SAPC  C213 4157  -0.140   0.714   8.115  0.1703  0.5849 -0.0357
   31SAPC  H13R 4158  -0.200   0.801   8.149  0.8419  0.5390  1.3266
   31SAPC  H13S 4159  -0.043   0.752   8.078 -0.1163  0.5617 -0.8366
   31SAPC  C214 4160  -0.122   0.624   8.231 -0.5074 -0.2449  0.6726
   31SAPC  H14R 4161  -0.208   0.558   8.250 -0.8047 -0.6338 -1.6762
   31SAPC  C215 4162  -0.018   0.645   8.323  0.9401  0.2531 -0.1854
   31SAPC  H15R 4163  -0.014   0.565   8.399  0.0637  0.8497  0.5080
   31SAPC  C216 4164   0.096   0.743   8.332  0.0841  0.0196  0.2215
   31SAPC  H16R 4165   0.098   0.797   8.235 -0.4039 -2.4019 -1.2319
   31SAPC  H16S 4166   0.193   0.690   8.344  0.4693  0.5677 -0.4126
   31SAPC  C217 4167   0.078   0.847   8.449  0.2158 -0.0873  0.5766
   31SAPC  H17R 4168   0.074   0.785   8.542 -0.8608  0.6934  1.0807
   31SAPC  H17S 4169  -0.007   0.919   8.443  2.0221  2.1292  0.2416
   31SAPC  C218 4170   0.195   0.941   8.452  0.5767  0.3226  0.3334
   31SAPC  H18R 4171   0.153   1.038   8.485 -0.1532  0.7558 -1.7391
   31SAPC  H18S 4172   0.205   0.958   8.343  2.0298 -0.8025  0.2590
   31SAPC  C219 4173   0.331   0.883   8.492 -0.1189 -0.2746 -0.0662
   31SAPC  H19R 4174   0.411   0.956   8.469  1.0381 -1.9407 -1.4829
   31SAPC  H19S 4175   0.358   0.807   8.416 -0.3646  0.0765 -0.5091
   31SAPC  C220 4176   0.349   0.825   8.631 -0.2452 -0.6212 -0.7446
   31SAPC  H20R 4177   0.307   0.723   8.629  0.0150 -0.7427 -0.0464
   31SAPC  H20S 4178   0.293   0.877   8.711 -1.5049 -1.3984 -1.0965
   31SAPC  H20T 4179   0.452   0.814   8.671 -0.6777  0.6282  0.8333
   31SAPC   C33 4180   0.075   0.628   6.936 -0.7457 -0.2167  0.5508
   31SAPC   H3X 4181  -0.016   0.673   6.981 -0.7962  0.8699 -0.5888
   31SAPC   H3Y 4182   0.155   0.676   6.996  1.7045 -0.7867 -2.0479
   31SAPC   C34 4183   0.093   0.476   6.965  0.0098  0.1322  0.4920
   31SAPC   H4X 4184   0.194   0.438   6.937  0.1192  0.9974 -0.3319
   31SAPC   H4Y 4185   0.016   0.425   6.904 -1.0291  1.9864  0.2024
   31SAPC   C35 4186   0.075   0.450   7.113  0.7170 -0.2796 -0.1846
   31SAPC   H5X 4187   0.014   0.538   7.144 -0.3671 -0.7104 -1.0441
   31SAPC   H5Y 4188   0.171   0.456   7.168  0.1974  0.7021  0.6554
   31SAPC   C36 4189  -0.007   0.325   7.144 -0.6635  0.2734  0.7403
   31SAPC   H6X 4190   0.058   0.235   7.136 -2.6893 -1.4017  2.2252
   31SAPC   H6Y 4191  -0.089   0.310   7.070  1.5561 -1.6727 -1.5166
   31SAPC   C37 4192  -0.059   0.318   7.288  1.0957  0.1247  0.3105
   31SAPC   H7X 4193  -0.120   0.227   7.303 -0.7403  0.4019 -3.9712
   31SAPC   H7Y 4194  -0.142   0.391   7.300 -0.1467 -1.4856  1.9807
   31SAPC   C38 4195   0.045   0.332   7.399 -0.7168  0.1883  0.2445
   31SAPC   H8X 4196   0.116   0.414   7.373 -0.5927 -0.2957 -1.0215
   31SAPC   H8Y 4197   0.115   0.246   7.408  1.6094  2.0283  0.7243
   31SAPC   C39 4198  -0.012   0.343   7.541 -0.2642 -0.3297  0.0720
   31SAPC   H9X 4199  -0.077   0.253   7.550 -0.3644 -0.4612 -1.6925
   31SAPC   H9Y 4200  -0.082   0.428   7.555  2.4872  2.2452 -0.8916
   31SAPC  C310 4201   0.102   0.321   7.639 -0.8960  0.1619 -0.1695
   31SAPC  H10X 4202   0.191   0.387   7.628  0.3661 -1.4246  0.0961
   31SAPC  H10Y 4203   0.152   0.223   7.625 -0.0591  0.1009  2.6405
   31SAPC  C311 4204   0.061   0.331   7.788  0.4426 -0.1978 -0.3845
   31SAPC  H11X 4205  -0.010   0.249   7.813  0.5772 -0.2650 -0.2277
   31SAPC  H11Y 4206   0.019   0.430   7.817  1.0591  0.7360 -2.4655
   31SAPC  C312 4207   0.196   0.322   7.868  0.2696  0.1988  0.0502
   31SAPC  H12X 4208   0.272   0.400   7.845  1.4593 -0.8626  0.2585
   31SAPC  H12Y 4209   0.252   0.228   7.848  0.1576  0.2696 -0.6337
   31SAPC  C313 4210   0.156   0.312   8.025 -0.9182 -0.3336  0.3156
   31SAPC  H13X 4211   0.063   0.253   8.038 -0.6451 -1.6893 -2.9842
   31SAPC  H13Y 4212   0.125   0.414   8.057 -0.7787  0.4717 -1.9053
   31SAPC  C314 4213   0.273   0.269   8.109  0.5588 -0.1048 -0.1733
   31SAPC  H14X 4214   0.360   0.320   8.062 -1.2854  1.0657 -2.5597
   31SAPC  H14Y 4215   0.283   0.159   8.112 -1.1479 -0.2689  1.8337
   31SAPC  C315 4216   0.256   0.316   8.259 -0.7506  0.2527 -0.2438
   31SAPC  H15X 4217   0.168   0.267   8.308 -1.2444  1.4260  0.0686
   31SAPC  H15Y 4218   0.237   0.424   8.247 -0.9258  0.0026 -2.7532
   31SAPC  C316 4219   0.373   0.281   8.351 -0.1945  0.3204 -0.1948
   31SAPC  H16X 4220   0.471   0.306   8.303 -0.6617  1.4963 -0.5903
   31SAPC  H16Y 4221   0.364   0.171   8.360 -0.6062  0.4895  1.9817
   31SAPC  C317 4222   0.368   0.352   8.488 -0.8569 -0.4764 -0.1186
   31SAPC  H17X 4223   0.375   0.462   8.471 -2.3383 -0.4438 -0.6630
   31SAPC  H17Y 4224   0.458   0.315   8.542 -0.7832  0.3678  0.3547
   31SAPC  C318 4225   0.252   0.323   8.587 -0.0194  1.1062 -0.4551
   31SAPC  H18X 4226   0.268   0.384   8.678  2.2533 -0.4525  0.2749
   31SAPC  H18Y 4227   0.259   0.216   8.617  0.9259  1.3558  0.2912
   31SAPC  H18Z 4228   0.153   0.359   8.552 -1.3814 -0.1637  1.8401
   32SAPC     N 4229   2.995   0.851   6.092 -0.1312  0.2767  0.5575
   32SAPC   C12 4230   2.931   0.872   6.223  0.0123  0.4298  0.0245
   32SAPC  H12A 4231   2.977   0.951   6.281 -1.0007 -0.9129  2.8694
   32SAPC  H12B 4232   2.946   0.787   6.288 -1.1241  0.7562  0.7564
   32SAPC   C13 4233   3.141   0.842   6.118 -0.3765  0.3499  0.4542
   32SAPC  H13A 4234   3.191   0.936   6.135 -0.2882  0.8052 -1.9625
   32SAPC  H13B 4235   3.165   0.766   6.191  1.8691  0.5846  0.0274
   32SAPC  H13C 4236   3.183   0.809   6.024  0.0380  0.6688  0.5242
   32SAPC   C14 4237   2.958   0.720   6.031  0.1750  0.3087  0.7276
   32SAPC  H14A 4238   3.006   0.705   5.935  0.5274 -3.4710  1.3294
   32SAPC  H14B 4239   2.984   0.634   6.092 -0.1301 -1.0074 -0.9218
   32SAPC  H14C 4240   2.851   0.723   6.016  0.0850 -1.6054  0.7357
   32SAPC   C15 4241   2.971   0.953   5.989  0.0960 -0.4286 -0.3020
   32SAPC  H15A 4242   3.021   0.929   5.897  3.0634 -1.3448  1.3968
   32SAPC  H15B 4243   2.866   0.967   5.969 -0.2343 -2.0619  0.1569
   32SAPC  H15C 4244   3.013   1.047   6.022  1.9810 -1.2677 -0.1827
   32SAPC   C11 4245   2.770   0.892   6.214 -0.4453 -0.5990  0.1390
   32SAPC  H11A 4246   2.735   0.885   6.320  0.8139 -0.6756  0.5726
   32SAPC  H11B 4247   2.718   0.808   6.164 -0.3578 -0.5772  0.0099
   32SAPC     P 4248   2.725   1.143   6.265  0.1267 -0.1805 -0.1943
   32SAPC   O13 4249   2.862   1.181   6.319  0.7109 -0.3191  0.2986
   32SAPC   O14 4250   2.648   1.245   6.192 -0.2963 -0.3853  0.1655
   32SAPC   O12 4251   2.737   1.020   6.161 -0.1533 -0.1790  0.2833
   32SAPC   O11 4252   2.640   1.091   6.390  0.2067 -0.0820  0.3249
   32SAPC    C1 4253   2.682   1.130   6.520 -0.1136 -0.3297  0.1710
   32SAPC    HA 4254   2.739   1.225   6.522 -2.3740  1.0927  0.7312
   32SAPC    HB 4255   2.591   1.163   6.573 -0.1384  0.9545 -0.6330
   32SAPC    C2 4256   2.754   1.027   6.612 -0.4951 -0.7856  0.2320
   32SAPC    HS 4257   2.855   1.001   6.572  0.8284  1.1419  2.0850
   32SAPC   O21 4258   2.684   0.905   6.612  0.2028  0.3288  0.2062
   32SAPC   C21 4259   2.750   0.805   6.651  0.1273  0.8499 -0.7868
   32SAPC   O22 4260   2.870   0.803   6.684 -0.8222  0.2881  0.5124
   32SAPC   C22 4261   2.653   0.681   6.667 -0.2732 -0.8249 -0.0680
   32SAPC   H2R 4262   2.567   0.698   6.598 -1.1201  3.7373  1.7403
   32SAPC   H2S 4263   2.715   0.593   6.641 -1.0817 -2.3363  2.8153
   32SAPC    C3 4264   2.784   1.080   6.756  0.0489 -0.3285  1.0126
   32SAPC    HX 4265   2.864   1.022   6.807  0.1134 -0.0304  1.2563
   32SAPC    HY 4266   2.693   1.073   6.819 -0.4889  0.5934  0.3601
   32SAPC   O31 4267   2.823   1.221   6.753  0.4927 -0.8239 -0.4038
   32SAPC   C31 4268   2.954   1.244   6.734  0.2598 -0.4427 -0.2730
   32SAPC   O32 4269   3.041   1.160   6.727  0.4285 -0.2646 -0.3621
   32SAPC   C32 4270   2.984   1.398   6.745 -0.3551  0.0020 -0.0198
   32SAPC   H2X 4271   2.947   1.430   6.646 -1.0462 -0.9031 -0.0584
   32SAPC   H2Y 4272   3.095   1.410   6.746 -0.1533 -1.6025  0.1623
   32SAPC   C23 4273   2.581   0.675   6.802 -0.1094  0.4717  0.3472
   32SAPC   H3R 4274   2.481   0.626   6.790  0.5532 -0.4494 -1.9649
   32SAPC   H3S 4275   2.564   0.779   6.836 -1.6066  0.2550  0.3448
   32SAPC   C24 4276   2.661   0.606   6.919  0.6434  0.1315 -0.5486
   32SAPC   H4R 4277   2.690   0.502   6.896 -0.3382 -0.5289  1.0022
   32SAPC   H4S 4278   2.591   0.589   7.003  0.1990  1.5044 -0.6126
   32SAPC   C25 4279   2.781   0.684   6.959  0.2513 -0.5514  0.4648
   32SAPC   H5R 4280   2.870   0.653   6.902  0.6945  1.5332 -0.0548
   32SAPC   C26 4281   2.794   0.789   7.043  0.0273 -0.2315 -0.1793
   32SAPC   H6R 4282   2.893   0.837   7.047 -0.1514  0.1075  0.1590
   32SAPC   C27 4283   2.679   0.862   7.116  0.9470  0.2043 -0.0388
   32SAPC   H7R 4284   2.586   0.804   7.135 -0.1962  2.2863  1.1027
   32SAPC   H7S 4285   2.635   0.935   7.045 -0.9588 -1.4028 -0.6121
   32SAPC   C28 4286   2.727   0.916   7.246  0.1167 -0.3774 -0.2289
   32SAPC   H8R 4287   2.729   0.851   7.334  0.0276 -0.1391 -0.0489
   32SAPC   C29 4288   2.768   1.047   7.272 -0.1722  0.2706  0.0330
   32SAPC   H9R 4289   2.766   1.074   7.378 -1.5790 -0.5991  0.2588
   32SAPC  C210 4290   2.771   1.152   7.158 -0.5530 -0.3345  0.4793
   32SAPC  H10R 4291   2.663   1.163   7.137  0.0313  0.9797 -2.3070
   32SAPC  H10S 4292   2.811   1.106   7.065  0.2998 -3.5849  2.2830
   32SAPC  C211 4293   2.843   1.283   7.186  0.9805 -0.0462  0.3459
   32SAPC  H11R 4294   2.777   1.368   7.208 -0.3586 -1.0541  0.3272
   32SAPC  C212 4295   2.976   1.300   7.191 -0.3136  0.5068  0.1244
   32SAPC  H12R 4296   3.011   1.403   7.207 -0.0487  0.6219 -1.0686
   32SAPC  C213 4297   3.089   1.196   7.160  0.4228 -0.1335 -0.5347
   32SAPC  H13R 4298   3.046   1.106   7.110 -1.9475  1.2924 -1.2561
   32SAPC  H13S 4299   3.131   1.154   7.254 -2.1819 -3.1090 -0.5067
   32SAPC  C214 4300   3.198   1.241   7.069  0.5867 -0.8759  0.0187
   32SAPC  H14R 4301   3.158   1.299   6.985 -3.0263  0.3212  2.3124
   32SAPC  C215 4302   3.331   1.227   7.068  0.2874 -0.7569 -0.0224
   32SAPC  H15R 4303   3.372   1.271   6.976 -3.9365 -0.6891 -2.1365
   32SAPC  C216 4304   3.412   1.160   7.176  0.9031 -0.5533  0.2271
   32SAPC  H16R 4305   3.338   1.106   7.239 -2.4809  2.9352 -0.3284
   32SAPC  H16S 4306   3.469   1.231   7.241 -0.1213  0.6620 -0.1535
   32SAPC  C217 4307   3.510   1.053   7.117  0.0921 -0.1058  0.0485
   32SAPC  H17R 4308   3.593   1.099   7.060 -0.4397 -0.3986 -0.9774
   32SAPC  H17S 4309   3.456   0.996   7.039 -0.7028  1.8026 -0.8649
   32SAPC  C218 4310   3.575   0.959   7.227  0.7307  0.2655  0.2740
   32SAPC  H18R 4311   3.650   0.889   7.184  0.5272  0.6672 -0.7806
   32SAPC  H18S 4312   3.498   0.895   7.274  1.6836 -1.8613 -0.9539
   32SAPC  C219 4313   3.650   1.033   7.334  0.4551  0.1433  0.2042
   32SAPC  H19R 4314   3.586   1.093   7.402  2.1163  0.1779  1.8444
   32SAPC  H19S 4315   3.712   1.110   7.283 -0.3330  0.9848  0.4830
   32SAPC  C220 4316   3.733   0.944   7.441  0.5451 -0.2328  0.8409
   32SAPC  H20R 4317   3.811   0.880   7.394 -0.2979 -0.5962 -0.1136
   32SAPC  H20S 4318   3.661   0.869   7.480  0.9165 -1.8166 -1.3299
   32SAPC  H20T 4319   3.778   0.994   7.529  2.7098 -1.5259  0.5603
   32SAPC   C33 4320   2.928   1.480   6.868 -0.2717 -0.2277 -0.1508
   32SAPC   H3X 4321   2.971   1.580   6.846  0.1127 -0.4433 -0.4018
   32SAPC   H3Y 4322   2.970   1.452   6.967 -1.1934  0.7459  0.5337
   32SAPC   C34 4323   2.775   1.501   6.878  0.1200 -0.0480 -0.0074
   32SAPC   H4X 4324   2.729   1.404   6.907  0.3465 -0.2309 -0.2505
   32SAPC   H4Y 4325   2.737   1.530   6.778 -1.1022  0.4286  0.5801
   32SAPC   C35 4326   2.739   1.610   6.980 -0.2460 -0.4234 -0.3613
   32SAPC   H5X 4327   2.758   1.708   6.930 -0.9448 -0.2604 -0.3133
   32SAPC   H5Y 4328   2.810   1.607   7.065  0.5744  0.9771 -0.9695
   32SAPC   C36 4329   2.598   1.627   7.016  0.1644  0.8303  0.4198
   32SAPC   H6X 4330   2.566   1.521   7.016  3.0395 -0.2135 -3.0015
   32SAPC   H6Y 4331   2.538   1.675   6.935 -1.6989 -2.2073 -0.1762
   32SAPC   C37 4332   2.569   1.684   7.152 -0.6872  0.3140 -0.1157
   32SAPC   H7X 4333   2.463   1.717   7.154 -0.9166 -0.3657 -0.6515
   32SAPC   H7Y 4334   2.628   1.777   7.170 -0.4304  0.0853  0.2248
   32SAPC   C38 4335   2.596   1.581   7.261  0.2086  0.0248 -0.1354
   32SAPC   H8X 4336   2.693   1.527   7.249  0.6082  0.8663 -0.7751
   32SAPC   H8Y 4337   2.514   1.508   7.246  0.5704  0.0963 -2.8008
   32SAPC   C39 4338   2.605   1.653   7.402 -0.0717 -0.2370  0.4991
   32SAPC   H9X 4339   2.510   1.708   7.421  0.1398  0.4182 -0.2986
   32SAPC   H9Y 4340   2.677   1.737   7.391  0.3004 -0.5244  0.7092
   32SAPC  C310 4341   2.657   1.570   7.520 -0.3803  0.5185 -0.1552
   32SAPC  H10X 4342   2.581   1.509   7.573  0.1314 -0.1323 -0.1560
   32SAPC  H10Y 4343   2.690   1.642   7.599 -0.2761 -1.5367  1.7642
   32SAPC  C311 4344   2.775   1.476   7.482 -0.5246 -0.4202 -0.5391
   32SAPC  H11X 4345   2.825   1.511   7.389  0.7472  0.0890  0.3068
   32SAPC  H11Y 4346   2.738   1.371   7.474 -0.4508 -0.5686  0.9577
   32SAPC  C312 4347   2.883   1.473   7.591 -0.2146  0.2347 -0.3830
   32SAPC  H12X 4348   2.844   1.424   7.683 -0.3213  3.0653  1.1732
   32SAPC  H12Y 4349   2.911   1.577   7.615  0.8171 -0.1844  0.3262
   32SAPC  C313 4350   3.009   1.393   7.549  0.2965  0.3692 -0.6378
   32SAPC  H13X 4351   3.037   1.438   7.452  0.1124  2.1705  0.1031
   32SAPC  H13Y 4352   2.970   1.292   7.525 -1.5238  0.5627  1.2196
   32SAPC  C314 4353   3.118   1.389   7.661 -0.2117 -0.0124  0.0755
   32SAPC  H14X 4354   3.089   1.326   7.747  0.2504  0.3754  0.5209
   32SAPC  H14Y 4355   3.152   1.490   7.691 -1.2917  0.9137 -1.6741
   32SAPC  C315 4356   3.255   1.321   7.621 -0.5401 -0.4142  0.4612
   32SAPC  H15X 4357   3.344   1.355   7.677 -0.5436 -0.0788  0.2627
   32SAPC  H15Y 4358   3.279   1.337   7.514  0.3558 -0.3308  0.6698
   32SAPC  C316 4359   3.257   1.164   7.634  0.7565  0.1661  0.4857
   32SAPC  H16X 4360   3.170   1.129   7.575  2.1424  0.0919 -1.6212
   32SAPC  H16Y 4361   3.230   1.149   7.741  0.1462  0.6202  0.4006
   32SAPC  C317 4362   3.383   1.091   7.608  0.2912  0.6976  0.7048
   32SAPC  H17X 4363   3.470   1.132   7.664  0.9272 -0.5806  0.6846
   32SAPC  H17Y 4364   3.409   1.103   7.500  0.8057 -0.7348  0.6440
   32SAPC  C318 4365   3.374   0.939   7.638 -0.7720 -0.6948  0.5040
   32SAPC  H18X 4366   3.295   0.887   7.579 -0.6116  0.7434 -1.0464
   32SAPC  H18Y 4367   3.372   0.903   7.743 -0.3770 -3.1887 -0.2615
   32SAPC  H18Z 4368   3.475   0.908   7.602  0.5828  2.1056  1.6484
   33POPC     N 4369   5.913   2.654  10.608  0.4252  0.5791  0.1429
   33POPC   C12 4370   5.989   2.684  10.475  0.5695  0.7910 -0.7980
   33POPC  H12A 4371   6.068   2.753  10.503  0.4941  0.4225  0.3630
   33POPC  H12B 4372   5.927   2.734  10.402 -0.4674  1.4519  0.5044
   33POPC   C13 4373   6.018   2.609  10.710  0.2015 -0.1991 -0.1654
   33POPC  H13A 4374   5.977   2.577  10.805 -0.3112  1.8290  0.3374
   33POPC  H13B 4375   6.090   2.550  10.655  2.0279  0.5467  1.3137
   33POPC  H13C 4376   6.075   2.698  10.729  1.5693 -1.0190 -0.2941
   33POPC   C14 4377   5.852   2.779  10.659  0.4853  0.5692 -0.4763
   33POPC  H14A 4378   5.779   2.814  10.587 -0.0602  2.9147  1.0839
   33POPC  H14B 4379   5.800   2.760  10.751  2.1628 -1.0630  0.1908
   33POPC  H14C 4380   5.921   2.860  10.679  0.9056  0.0316  0.2738
   33POPC   C15 4381   5.808   2.549  10.588 -0.5518 -0.0706  0.5151
   33POPC  H15A 4382   5.740   2.587  10.513 -0.0657 -0.1392  0.0340
   33POPC  H15B 4383   5.753   2.531  10.680  0.1675  2.2951  1.4968
   33POPC  H15C 4384   5.846   2.457  10.547  0.3517  0.3464  0.4152
   33POPC   C11 4385   6.055   2.561  10.404  0.1540  0.2742  0.0854
   33POPC  H11A 4386   6.130   2.599  10.331  1.6535 -2.0394  0.2917
   33POPC  H11B 4387   5.983   2.510  10.337  1.5932  0.5389 -1.7276
   33POPC     P 4388   6.113   2.315  10.463 -0.3359 -0.1845  0.2946
   33POPC   O13 4389   5.985   2.263  10.513 -0.0887  0.0801  0.7488
   33POPC   O14 4390   6.237   2.251  10.510 -0.8708 -0.2910 -0.0330
   33POPC   O12 4391   6.124   2.471  10.486 -0.2402  0.3064  0.2183
   33POPC   O11 4392   6.118   2.303  10.304 -0.5986 -0.0430 -0.1519
   33POPC    C1 4393   6.238   2.342  10.236  0.1205 -0.3284 -0.0239
   33POPC    HA 4394   6.224   2.452  10.229 -0.8613 -0.2638  2.1842
   33POPC    HB 4395   6.331   2.332  10.295  0.2303  2.3416  0.3712
   33POPC    C2 4396   6.255   2.270  10.098  0.1314 -0.2245 -0.2965
   33POPC    HS 4397   6.363   2.280  10.077  0.1535  1.0896  0.3549
   33POPC   O21 4398   6.174   2.331   9.996 -0.8836 -0.1248  0.0585
   33POPC   C21 4399   6.232   2.333   9.874  0.0050 -0.1720 -0.6286
   33POPC   O22 4400   6.342   2.286   9.843  0.0172 -0.3468  0.3392
   33POPC   C22 4401   6.145   2.408   9.782 -0.1688  0.0924  0.2599
   33POPC   H2R 4402   6.170   2.515   9.795 -2.0128  0.6130 -0.2542
   33POPC   H2S 4403   6.039   2.387   9.808 -0.5255 -0.5290 -1.5372
   33POPC    C3 4404   6.218   2.119  10.119  0.0095  0.1249 -0.0837
   33POPC    HX 4405   6.109   2.117  10.143 -0.0654 -1.1761 -0.4667
   33POPC    HY 4406   6.277   2.061  10.193 -0.9579 -1.1370 -0.2716
   33POPC   O31 4407   6.217   2.053   9.990 -0.1470  0.0506 -0.0159
   33POPC   C31 4408   6.345   2.020   9.950 -0.0726 -0.1214 -0.4321
   33POPC   O32 4409   6.447   2.033  10.013 -0.1316 -0.2238 -0.0298
   33POPC   C32 4410   6.340   1.975   9.805  0.5548 -0.3030  0.4433
   33POPC   H2X 4411   6.341   2.065   9.740 -0.9996 -1.0038 -0.6338
   33POPC   H2Y 4412   6.247   1.916   9.790  0.1177  0.7268 -1.2348
   33POPC   C23 4413   6.156   2.377   9.633  0.9801 -0.1817 -0.1571
   33POPC   H3R 4414   6.168   2.268   9.618 -2.8726 -0.7882  0.0343
   33POPC   H3S 4415   6.253   2.427   9.612  0.0726  1.4290 -0.6872
   33POPC   C24 4416   6.041   2.431   9.547  0.1661 -0.3053  0.6144
   33POPC   H4R 4417   6.019   2.537   9.572  1.9714 -0.0351  1.1930
   33POPC   H4S 4418   5.947   2.378   9.576 -1.2582  1.6374 -0.2463
   33POPC   C25 4419   6.069   2.398   9.395  0.1818  0.2887  0.1847
   33POPC   H5R 4420   6.092   2.290   9.381  0.4529  0.3026  0.5019
   33POPC   H5S 4421   6.151   2.456   9.347  0.8142  0.0754  0.9784
   33POPC   C26 4422   5.936   2.401   9.308 -0.2435 -0.9066 -0.2160
   33POPC   H6R 4423   5.884   2.499   9.304  2.3256  0.5770  0.5691
   33POPC   H6S 4424   5.862   2.332   9.352  1.6088 -4.2974 -1.9985
   33POPC   C27 4425   5.983   2.343   9.175 -0.2581 -0.2028  0.2040
   33POPC   H7R 4426   6.042   2.249   9.179 -0.5413 -0.4450 -0.8217
   33POPC   H7S 4427   6.055   2.419   9.139  0.6805 -0.2451  1.9228
   33POPC   C28 4428   5.869   2.322   9.073 -0.3463  0.4561  0.3223
   33POPC   H8R 4429   5.917   2.297   8.976  1.4400  4.2023  0.0813
   33POPC   H8S 4430   5.817   2.415   9.041 -1.6126 -0.6987 -1.1523
   33POPC   C29 4431   5.782   2.208   9.122 -0.1897  0.4170  0.5521
   33POPC   H91 4432   5.833   2.129   9.178 -2.7255 -0.0669  2.3050
   33POPC  C210 4433   5.646   2.210   9.117  0.2594 -0.4900  0.1687
   33POPC  H101 4434   5.585   2.129   9.159 -0.7236 -0.3271 -0.9145
   33POPC  C211 4435   5.559   2.313   9.057  0.1883  0.1562  0.7766
   33POPC  H11R 4436   5.614   2.391   8.999  0.3419 -0.9443 -0.6082
   33POPC  H11S 4437   5.499   2.380   9.121  1.4755  3.8181 -1.4978
   33POPC  C212 4438   5.465   2.252   8.954 -0.2743 -0.8031  0.4772
   33POPC  H12R 4439   5.527   2.214   8.869  1.7169  1.5244  0.7744
   33POPC  H12S 4440   5.412   2.332   8.898 -1.0956 -1.0763  0.8444
   33POPC  C213 4441   5.361   2.166   9.010 -0.1177  0.6051 -1.4115
   33POPC  H13R 4442   5.303   2.226   9.084  2.0311  1.1332 -0.0567
   33POPC  H13S 4443   5.403   2.088   9.077 -0.3685  1.0907 -0.6747
   33POPC  C214 4444   5.269   2.098   8.908 -0.1375  0.0706  1.2038
   33POPC  H14R 4445   5.327   2.025   8.848  0.0391 -0.2768  1.7908
   33POPC  H14S 4446   5.235   2.184   8.846  0.3699 -0.4715  0.1454
   33POPC  C215 4447   5.137   2.057   8.976 -0.2183  0.7593 -0.0223
   33POPC  H15R 4448   5.092   2.149   9.018  0.7603  0.8054  0.9587
   33POPC  H15S 4449   5.153   1.986   9.060  0.4476  2.0703  1.0034
   33POPC  C216 4450   5.042   1.990   8.877  0.6303  0.4670 -0.5828
   33POPC  H16R 4451   5.089   1.893   8.849 -0.8524 -2.3061  5.1578
   33POPC  H16S 4452   5.025   2.057   8.790  0.2670 -0.6761 -1.4107
   33POPC  C217 4453   4.911   1.971   8.939  0.3020 -0.0646  0.2086
   33POPC  H17R 4454   4.854   2.066   8.949 -2.0126 -1.1195 -2.0040
   33POPC  H17S 4455   4.922   1.932   9.042 -2.2578  1.9262  1.3483
   33POPC  C218 4456   4.821   1.868   8.865 -0.2290  0.0686  0.5551
   33POPC  H18R 4457   4.793   1.907   8.764  1.7619  1.9887  0.6709
   33POPC  H18S 4458   4.726   1.865   8.923 -0.2970  2.6358  0.6951
   33POPC  H18T 4459   4.872   1.770   8.858 -1.4739 -0.4997 -1.4868
   33POPC   C33 4460   6.470   1.885   9.779  0.1783 -0.0770 -0.3284
   33POPC   H3X 4461   6.472   1.814   9.863  0.3247  0.6887  0.3287
   33POPC   H3Y 4462   6.568   1.937   9.772  0.2590 -0.4220 -2.4247
   33POPC   C34 4463   6.443   1.816   9.646 -0.3866  0.3003 -0.2663
   33POPC   H4X 4464   6.348   1.758   9.648  0.9946 -2.1231  1.9087
   33POPC   H4Y 4465   6.518   1.734   9.639  0.3373  1.0175 -1.2157
   33POPC   C35 4466   6.465   1.903   9.523  0.3879  0.1753  0.2222
   33POPC   H5X 4467   6.557   1.965   9.531  0.0668  0.6840  0.0106
   33POPC   H5Y 4468   6.381   1.976   9.524  1.5186  1.5266 -0.1917
   33POPC   C36 4469   6.458   1.832   9.390 -0.4102  0.2927  0.2714
   33POPC   H6X 4470   6.448   1.903   9.306  1.0224  0.8901  0.5728
   33POPC   H6Y 4471   6.357   1.785   9.385 -0.6748  0.9543 -0.9933
   33POPC   C37 4472   6.580   1.736   9.355  0.6743 -0.1215 -0.0806
   33POPC   H7X 4473   6.581   1.640   9.411  1.5742  0.4435  0.8884
   33POPC   H7Y 4474   6.669   1.797   9.379  0.5280 -0.2924  0.9495
   33POPC   C38 4475   6.581   1.696   9.210  0.2908 -0.6917  0.7269
   33POPC   H8X 4476   6.589   1.787   9.147  2.3032 -0.0916  1.7587
   33POPC   H8Y 4477   6.492   1.634   9.187  0.9896 -0.7390 -2.3212
   33POPC   C39 4478   6.702   1.616   9.170  0.2272 -0.5178  0.1972
   33POPC   H9X 4479   6.731   1.531   9.236 -1.1280 -0.0536  1.4587
   33POPC   H9Y 4480   6.790   1.679   9.199  0.9742 -1.3923 -0.1073
   33POPC  C310 4481   6.691   1.565   9.022 -0.4867  0.4137 -0.4350
   33POPC  H10X 4482   6.648   1.647   8.960  0.0594  0.7675 -0.3498
   33POPC  H10Y 4483   6.625   1.476   9.023  1.3704 -1.0620 -1.6737
   33POPC  C311 4484   6.819   1.508   8.962  0.4970  0.1236  0.0568
   33POPC  H11X 4485   6.886   1.595   8.945 -1.2144  1.3454 -0.7353
   33POPC  H11Y 4486   6.795   1.466   8.861 -0.4928  0.6236  0.0712
   33POPC  C312 4487   6.882   1.387   9.037 -0.7659 -0.2166  0.0612
   33POPC  H12X 4488   6.801   1.316   9.064 -0.7778 -0.6821 -1.1202
   33POPC  H12Y 4489   6.931   1.441   9.121  0.8898 -0.0405 -0.9697
   33POPC  C313 4490   6.977   1.308   8.953  0.0481 -0.6811  0.1981
   33POPC  H13X 4491   7.062   1.360   8.905  0.6833 -1.8564  0.0182
   33POPC  H13Y 4492   6.918   1.260   8.873 -2.4270  0.9003  0.9544
   33POPC  C314 4493   7.029   1.181   9.034 -0.4447 -0.6958 -0.0659
   33POPC  H14X 4494   6.939   1.118   9.053 -0.2790 -0.9773 -0.2114
   33POPC  H14Y 4495   7.079   1.210   9.129  1.3651  1.8465 -1.6516
   33POPC  C315 4496   7.133   1.094   8.954 -0.3455 -0.0155  0.0625
   33POPC  H15X 4497   7.233   1.141   8.956 -0.9107  1.2698 -0.6309
   33POPC  H15Y 4498   7.104   1.094   8.847  1.4444 -2.2114 -0.4938
   33POPC  C316 4499   7.145   0.949   9.006 -0.0890 -0.4784  0.2752
   33POPC  H16X 4500   7.054   0.934   9.068  0.9793  0.4531  2.1786
   33POPC  H16Y 4501   7.236   0.949   9.070  1.3433  2.6477 -1.4977
   33POPC  H16Z 4502   7.170   0.866   8.937  0.8662  0.8543 -1.0509
   34POPC     N 4503   6.494   2.607  10.465 -0.0523  0.1045 -0.0674
   34POPC   C12 4504   6.373   2.668  10.530  0.0651 -0.1849  0.7304
   34POPC  H12A 4505   6.391   2.682  10.635  0.5602  0.4846  0.5681
   34POPC  H12B 4506   6.281   2.612  10.521 -0.4449  0.3388  2.3836
   34POPC   C13 4507   6.491   2.589  10.321  0.1005 -0.0499 -0.7017
   34POPC  H13A 4508   6.590   2.558  10.292  0.7107 -1.9556  2.7841
   34POPC  H13B 4509   6.430   2.506  10.291  0.0288  0.4798 -2.0777
   34POPC  H13C 4510   6.452   2.672  10.263 -0.9447  0.5037  0.6943
   34POPC   C14 4511   6.611   2.684  10.504  0.1961 -0.7544  0.3928
   34POPC  H14A 4512   6.699   2.630  10.472 -0.2535 -1.9284  1.0644
   34POPC  H14B 4513   6.628   2.778  10.453  0.4182  0.2919  2.3088
   34POPC  H14C 4514   6.618   2.687  10.612  1.5436 -0.1123  0.3083
   34POPC   C15 4515   6.519   2.467  10.517  0.4835  0.4209  0.0195
   34POPC  H15A 4516   6.616   2.424  10.497 -0.0266 -1.3311  1.0619
   34POPC  H15B 4517   6.442   2.394  10.495  0.5724  0.7132 -1.3309
   34POPC  H15C 4518   6.522   2.467  10.625  0.1804 -1.4807  0.0671
   34POPC   C11 4519   6.340   2.811  10.484 -0.2121 -0.3035  0.0441
   34POPC  H11A 4520   6.309   2.802  10.377  0.1648  0.1313 -0.1044
   34POPC  H11B 4521   6.421   2.887  10.488 -0.2695 -0.0594 -2.0877
   34POPC     P 4522   6.229   2.944  10.687  0.4680  0.2104 -0.4592
   34POPC   O13 4523   6.368   2.950  10.735 -0.2839  0.1573  0.1053
   34POPC   O14 4524   6.123   2.897  10.782 -0.3911 -0.0183  0.8287
   34POPC   O12 4525   6.226   2.848  10.558  0.2863  0.3697  0.5410
   34POPC   O11 4526   6.207   3.086  10.621  0.6180  0.0792 -0.6684
   34POPC    C1 4527   6.081   3.126  10.562  0.6318 -0.2027  0.8359
   34POPC    HA 4528   6.075   3.237  10.554 -0.3207  0.0194  3.6288
   34POPC    HB 4529   5.995   3.111  10.631 -0.3799 -0.1318 -0.3875
   34POPC    C2 4530   6.056   3.054  10.425 -0.8459 -0.5237  0.6860
   34POPC    HS 4531   6.049   2.944  10.433 -2.5848 -0.6210 -1.1714
   34POPC   O21 4532   6.177   3.084  10.344  1.2683 -0.3493  0.2086
   34POPC   C21 4533   6.181   3.021  10.232  0.1357 -0.5788 -0.1088
   34POPC   O22 4534   6.111   2.925  10.197  0.4490 -0.0179 -0.4756
   34POPC   C22 4535   6.284   3.092  10.139  0.2978 -0.4500  0.1379
   34POPC   H2R 4536   6.379   3.034  10.138  0.6341  0.0736 -1.3922
   34POPC   H2S 4537   6.303   3.186  10.195 -0.6149 -1.6444  2.6094
   34POPC    C3 4538   5.923   3.101  10.360 -0.1243  0.0936 -0.1590
   34POPC    HX 4539   5.835   3.100  10.427 -1.7402  0.3120 -2.1839
   34POPC    HY 4540   5.902   3.023  10.285 -2.3038  0.5615 -0.0884
   34POPC   O31 4541   5.948   3.233  10.295 -0.0217 -0.2979 -0.3069
   34POPC   C31 4542   5.872   3.267  10.192  0.0553 -0.3206 -0.3350
   34POPC   O32 4543   5.789   3.192  10.145 -0.2733 -0.2979  0.0255
   34POPC   C32 4544   5.903   3.414  10.149 -0.5762 -0.2493 -0.0139
   34POPC   H2X 4545   6.002   3.442  10.191 -0.3065 -2.8234  1.2997
   34POPC   H2Y 4546   5.833   3.479  10.207  0.3414  1.8795 -1.1841
   34POPC   C23 4547   6.232   3.099   9.993 -0.0508 -0.1454 -0.8698
   34POPC   H3R 4548   6.144   3.166   9.999  0.6673  0.8423 -1.0431
   34POPC   H3S 4549   6.200   3.001   9.952  0.8911 -0.9603  0.2700
   34POPC   C24 4550   6.329   3.168   9.895 -0.9146 -0.0953  1.0055
   34POPC   H4R 4551   6.426   3.114   9.891 -2.0263 -2.2724  1.6427
   34POPC   H4S 4552   6.346   3.272   9.928  1.7910  0.3151 -1.2857
   34POPC   C25 4553   6.268   3.173   9.755  0.1910  0.5879 -0.0684
   34POPC   H5R 4554   6.323   3.249   9.696  2.1996 -1.8715 -1.5539
   34POPC   H5S 4555   6.161   3.188   9.779  0.5469 -0.3319  2.3703
   34POPC   C26 4556   6.283   3.039   9.680 -0.2718  0.2966 -0.3153
   34POPC   H6R 4557   6.210   2.968   9.725  1.1851 -1.7071 -0.9434
   34POPC   H6S 4558   6.384   2.998   9.706 -1.4455 -2.7882 -0.1682
   34POPC   C27 4559   6.268   3.054   9.532  0.0847  0.4340  0.1281
   34POPC   H7R 4560   6.339   3.127   9.486 -0.2624  0.0836 -0.9716
   34POPC   H7S 4561   6.169   3.101   9.511 -0.3185 -0.7037 -0.6174
   34POPC   C28 4562   6.293   2.920   9.447 -0.7897 -0.3890  0.0131
   34POPC   H8R 4563   6.386   2.872   9.484  0.1925  0.9874 -0.5878
   34POPC   H8S 4564   6.289   2.944   9.339  1.3408  0.4425  0.0639
   34POPC   C29 4565   6.186   2.814   9.469 -0.4455  0.2655 -0.6960
   34POPC   H91 4566   6.147   2.824   9.571  2.8291 -1.4347  0.8553
   34POPC  C210 4567   6.125   2.736   9.381 -0.2869 -0.2783  0.0857
   34POPC  H101 4568   6.053   2.671   9.433 -0.3581  1.9201  2.9690
   34POPC  C211 4569   6.145   2.716   9.231  0.7023 -0.2699  0.2147
   34POPC  H11R 4570   6.160   2.607   9.216  2.5780 -0.1090  0.6484
   34POPC  H11S 4571   6.227   2.780   9.192  0.8132 -0.1807  0.5861
   34POPC  C212 4572   6.017   2.753   9.146 -0.3220 -0.0931  0.2870
   34POPC  H12R 4573   5.993   2.859   9.166  0.0778 -0.1233  0.9484
   34POPC  H12S 4574   5.925   2.699   9.176 -2.0426  2.1364 -0.7236
   34POPC  C213 4575   6.034   2.724   8.995  0.0560  0.0244 -0.3056
   34POPC  H13R 4576   6.070   2.620   8.979  1.9726  0.6296 -0.2106
   34POPC  H13S 4577   6.106   2.791   8.945  0.5542  0.4989  1.0287
   34POPC  C214 4578   5.894   2.719   8.922 -0.4332  0.3833 -0.4730
   34POPC  H14R 4579   5.851   2.821   8.934  0.6768  0.8896 -0.6211
   34POPC  H14S 4580   5.829   2.640   8.967 -0.2358  0.4123 -0.1316
   34POPC  C215 4581   5.904   2.691   8.773 -0.2232 -0.3546 -0.0270
   34POPC  H15R 4582   5.932   2.587   8.745  2.3222  0.9005 -2.6018
   34POPC  H15S 4583   5.981   2.752   8.722  0.1121  0.0456  0.9233
   34POPC  C216 4584   5.775   2.715   8.690 -0.3174  0.3100  0.1659
   34POPC  H16R 4585   5.801   2.685   8.586 -1.0315  1.5256 -0.3897
   34POPC  H16S 4586   5.742   2.821   8.696  0.6428  0.5904  0.8238
   34POPC  C217 4587   5.663   2.621   8.729 -0.2560 -0.4473 -0.6563
   34POPC  H17R 4588   5.649   2.652   8.835 -1.6969 -0.0366 -0.9396
   34POPC  H17S 4589   5.708   2.520   8.721 -0.2318 -0.3218 -2.5088
   34POPC  C218 4590   5.541   2.638   8.637  0.3448  0.4808  0.2199
   34POPC  H18R 4591   5.576   2.601   8.538 -2.8017  1.3405 -1.3648
   34POPC  H18S 4592   5.502   2.742   8.629  3.7745  2.0328  1.6518
   34POPC  H18T 4593   5.458   2.574   8.675  1.4493 -0.1684  1.5894
   34POPC   C33 4594   5.868   3.450  10.003  0.1601  0.3984  0.2852
   34POPC   H3X 4595   5.843   3.557   9.984 -2.4539 -0.5869 -2.8225
   34POPC   H3Y 4596   5.770   3.403   9.978  0.3662  0.2985 -0.3531
   34POPC   C34 4597   5.981   3.409   9.904  0.8057 -0.1192 -0.5504
   34POPC   H4X 4598   5.985   3.300   9.924 -0.5046 -0.1213 -0.2245
   34POPC   H4Y 4599   6.069   3.466   9.940  1.5419 -0.6317 -1.4707
   34POPC   C35 4600   5.935   3.443   9.765 -0.7583  0.3151  0.0425
   34POPC   H5X 4601   5.927   3.553   9.759 -1.5362  0.1852 -1.9745
   34POPC   H5Y 4602   5.830   3.408   9.755 -0.4130 -1.8284  2.7070
   34POPC   C36 4603   6.017   3.392   9.652 -0.0938  0.1004  0.1049
   34POPC   H6X 4604   6.000   3.283   9.639 -1.3112  0.3803 -0.9511
   34POPC   H6Y 4605   6.124   3.420   9.664 -0.1022 -0.4840  1.7196
   34POPC   C37 4606   5.968   3.458   9.523  0.8178 -0.0344  0.3301
   34POPC   H7X 4607   5.988   3.567   9.517  1.4499 -0.1661 -0.0682
   34POPC   H7Y 4608   5.859   3.442   9.509  0.4480  2.7414 -0.4412
   34POPC   C38 4609   6.027   3.385   9.394  0.5621  0.6384 -0.3728
   34POPC   H8X 4610   6.005   3.276   9.405 -1.7416  1.0678 -0.1032
   34POPC   H8Y 4611   6.133   3.411   9.377  0.1717  2.0192 -0.7996
   34POPC   C39 4612   5.963   3.439   9.269 -0.0830 -0.8861  0.3215
   34POPC   H9X 4613   6.020   3.527   9.231 -1.3268 -0.5591 -0.8719
   34POPC   H9Y 4614   5.858   3.474   9.283 -0.0353  0.2986 -1.8435
   34POPC  C310 4615   5.963   3.336   9.151 -0.0801 -0.1395 -0.0842
   34POPC  H10X 4616   5.899   3.368   9.066  1.2534  0.3762 -0.9301
   34POPC  H10Y 4617   5.922   3.239   9.186 -0.4314  0.3824  0.9981
   34POPC  C311 4618   6.103   3.306   9.093  0.4545 -0.7970  0.4813
   34POPC  H11X 4619   6.164   3.273   9.179 -0.4966  1.0345  1.9279
   34POPC  H11Y 4620   6.146   3.404   9.064 -0.9890  0.6199  2.7620
   34POPC  C312 4621   6.109   3.196   8.983 -0.1587  0.7212  0.2270
   34POPC  H12X 4622   6.129   3.101   9.038  2.2305  0.9676 -0.0994
   34POPC  H12Y 4623   6.198   3.210   8.918 -0.4003 -1.1291 -0.5716
   34POPC  C313 4624   5.989   3.189   8.883 -0.7840  0.1844  0.0877
   34POPC  H13X 4625   5.968   3.282   8.826  2.7304  0.6711 -0.6485
   34POPC  H13Y 4626   5.901   3.168   8.947 -0.4220 -3.0448 -0.3435
   34POPC  C314 4627   6.002   3.073   8.780  0.2397 -0.8426 -0.2703
   34POPC  H14X 4628   5.907   3.079   8.723 -0.2793  0.7675  0.7125
   34POPC  H14Y 4629   6.004   2.972   8.827  0.3523 -0.5442  0.3745
   34POPC  C315 4630   6.116   3.099   8.676 -0.6348  0.3093 -0.5637
   34POPC  H15X 4631   6.125   3.029   8.589 -2.6555  1.0631 -1.4433
   34POPC  H15Y 4632   6.202   3.084   8.744 -1.1921  0.9009  0.2796
   34POPC  C316 4633   6.115   3.243   8.625  0.5428  0.0550  0.2063
   34POPC  H16X 4634   6.198   3.254   8.551  0.1784 -1.6355 -0.4897
   34POPC  H16Y 4635   6.135   3.311   8.710  0.1674  2.4883 -1.5312
   34POPC  H16Z 4636   6.019   3.268   8.575  0.8674  0.9706  0.0102
   35POPC     N 4637   5.583   0.395  10.873 -0.7854  0.2311  0.3990
   35POPC   C12 4638   5.458   0.357  10.800  0.1473 -0.2848 -0.3490
   35POPC  H12A 4639   5.461   0.384  10.696  1.5488  2.3330  0.2872
   35POPC  H12B 4640   5.377   0.415  10.842  0.8054  0.9332 -0.7413
   35POPC   C13 4641   5.699   0.365  10.782  0.1286 -0.2271 -0.0552
   35POPC  H13A 4642   5.797   0.381  10.824  0.3341  1.0267 -0.9566
   35POPC  H13B 4643   5.687   0.260  10.757  2.6027 -0.4350 -0.5480
   35POPC  H13C 4644   5.692   0.423  10.692 -1.1447  1.3042  0.9687
   35POPC   C14 4645   5.596   0.538  10.907  0.2472 -0.5372 -0.2543
   35POPC  H14A 4646   5.584   0.595  10.816 -0.1474 -0.6998 -0.3044
   35POPC  H14B 4647   5.538   0.573  10.990  1.8214  0.7279  0.3805
   35POPC  H14C 4648   5.697   0.552  10.944 -0.3412  0.0933  1.1762
   35POPC   C15 4649   5.602   0.316  11.004 -0.2080 -0.1099  0.0534
   35POPC  H15A 4650   5.703   0.336  11.036 -0.1656  0.8149 -0.6354
   35POPC  H15B 4651   5.593   0.209  10.990  1.4645 -0.4074  1.0001
   35POPC  H15C 4652   5.532   0.354  11.076 -0.2806 -0.4498  0.1654
   35POPC   C11 4653   5.409   0.213  10.811  0.2072  0.5203  0.7997
   35POPC  H11A 4654   5.494   0.141  10.805 -0.1685  0.0367  1.1640
   35POPC  H11B 4655   5.355   0.207  10.714 -0.2204 -0.7402  1.0878
   35POPC     P 4656   5.214   0.284  10.985 -0.1428 -0.1037  0.4476
   35POPC   O13 4657   5.287   0.401  11.052 -0.0929  1.1740 -0.0378
   35POPC   O14 4658   5.112   0.219  11.068 -0.6472  0.1514  0.5727
   35POPC   O12 4659   5.329   0.190  10.933  0.5144  0.0068 -0.0253
   35POPC   O11 4660   5.143   0.325  10.856  0.0386  0.2027 -0.4264
   35POPC    C1 4661   5.051   0.237  10.792  0.3540 -0.1896 -0.0778
   35POPC    HA 4662   4.977   0.203  10.866 -1.2221  0.5175 -1.2659
   35POPC    HB 4663   5.103   0.151  10.745 -0.8002 -0.5751 -0.6868
   35POPC    C2 4664   4.972   0.301  10.676 -0.3256 -0.3996  0.2532
   35POPC    HS 4665   4.916   0.224  10.619  1.7351 -0.9404 -1.1686
   35POPC   O21 4666   5.066   0.377  10.588  0.8099  0.0185  0.0814
   35POPC   C21 4667   5.145   0.311  10.510  0.1009 -0.3214  0.4408
   35POPC   O22 4668   5.159   0.191  10.504 -0.6301  0.7851  0.4785
   35POPC   C22 4669   5.237   0.417  10.439  0.3647 -0.4084  0.2906
   35POPC   H2R 4670   5.334   0.368  10.418  0.8223  0.1426  1.1098
   35POPC   H2S 4671   5.243   0.495  10.518  0.0676 -3.2969  3.4151
   35POPC    C3 4672   4.870   0.403  10.731  0.3161 -1.2829 -0.1271
   35POPC    HX 4673   4.925   0.489  10.775  0.9772 -0.3254 -2.6810
   35POPC    HY 4674   4.806   0.362  10.812  0.0417 -0.8955 -0.1437
   35POPC   O31 4675   4.789   0.437  10.611  0.3764  0.0354 -0.7320
   35POPC   C31 4676   4.767   0.559  10.577 -0.0523  1.0683 -0.4412
   35POPC   O32 4677   4.820   0.658  10.624  0.3729  0.6428  0.2168
   35POPC   C32 4678   4.652   0.565  10.483  0.3786 -0.0527  0.3653
   35POPC   H2X 4679   4.598   0.645  10.538  1.4638  0.1321  1.1674
   35POPC   H2Y 4680   4.604   0.465  10.480  0.5893 -0.1373 -1.3863
   35POPC   C23 4681   5.169   0.471  10.311  1.1369 -0.1896 -0.1852
   35POPC   H3R 4682   5.073   0.510  10.348  0.7463  0.6216 -1.9687
   35POPC   H3S 4683   5.160   0.389  10.237 -1.5580  0.0393 -0.1873
   35POPC   C24 4684   5.245   0.594  10.259 -0.4731 -0.1385 -0.1345
   35POPC   H4R 4685   5.352   0.566  10.254 -1.1268 -2.7717 -1.8918
   35POPC   H4S 4686   5.236   0.678  10.331  1.1413  1.4231 -1.6662
   35POPC   C25 4687   5.205   0.659  10.126  0.0108  0.3393  0.5078
   35POPC   H5R 4688   5.276   0.744  10.119  1.0774 -0.5707  0.0938
   35POPC   H5S 4689   5.102   0.702  10.123  0.5869  1.7082 -1.5845
   35POPC   C26 4690   5.229   0.553  10.014 -0.1597 -0.3895 -0.7624
   35POPC   H6R 4691   5.156   0.471  10.026  1.7555 -2.1942 -0.7506
   35POPC   H6S 4692   5.331   0.511  10.033  0.6985  1.4995 -0.9266
   35POPC   C27 4693   5.212   0.613   9.877 -0.1874 -0.3662 -0.0580
   35POPC   H7R 4694   5.274   0.705   9.879 -0.3978 -0.2186 -0.3330
   35POPC   H7S 4695   5.107   0.637   9.852 -0.6087  1.3695  2.8827
   35POPC   C28 4696   5.275   0.519   9.772  0.1962 -0.5534  0.5694
   35POPC   H8R 4697   5.255   0.571   9.676  0.0867 -1.0219  0.3347
   35POPC   H8S 4698   5.225   0.420   9.776 -1.8369  0.4496  2.4737
   35POPC   C29 4699   5.430   0.510   9.794 -0.2698  0.6066  0.0685
   35POPC   H91 4700   5.455   0.450   9.883 -0.5256  1.9572  1.0729
   35POPC  C210 4701   5.521   0.553   9.703 -0.2290  0.6327 -0.2744
   35POPC  H101 4702   5.627   0.542   9.727 -0.0282 -0.4330 -1.5524
   35POPC  C211 4703   5.498   0.647   9.587  0.5786  0.4702  0.4883
   35POPC  H11R 4704   5.602   0.680   9.564  0.6727  0.4141  0.8397
   35POPC  H11S 4705   5.428   0.732   9.605 -2.7417 -2.0202  0.2121
   35POPC  C212 4706   5.447   0.583   9.458  0.4487  0.1449  0.3548
   35POPC  H12R 4707   5.346   0.549   9.488  0.0691  0.4195 -0.5748
   35POPC  H12S 4708   5.517   0.500   9.431 -1.2487 -0.7358 -1.5813
   35POPC  C213 4709   5.435   0.688   9.355 -0.2336 -0.0227  0.2056
   35POPC  H13R 4710   5.522   0.756   9.353  1.1741 -1.7229  0.5736
   35POPC  H13S 4711   5.355   0.760   9.384  0.2719  0.4618  0.4102
   35POPC  C214 4712   5.411   0.618   9.214 -0.2581 -0.0701  0.5959
   35POPC  H14R 4713   5.329   0.543   9.213 -1.2779  0.9987 -1.0480
   35POPC  H14S 4714   5.502   0.571   9.172  0.2811  1.0393  0.4949
   35POPC  C215 4715   5.361   0.737   9.118 -0.1685  0.3248 -0.1430
   35POPC  H15R 4716   5.447   0.808   9.111 -1.0732  1.3275 -1.6007
   35POPC  H15S 4717   5.282   0.800   9.163 -0.2598  1.3902 -1.7175
   35POPC  C216 4718   5.330   0.695   8.975 -0.5872  0.2270 -1.2112
   35POPC  H16R 4719   5.258   0.611   8.968  0.9292 -1.1042 -1.4014
   35POPC  H16S 4720   5.421   0.646   8.933  0.7711 -0.4347  2.1000
   35POPC  C217 4721   5.286   0.818   8.891 -0.1028 -0.1408  0.5622
   35POPC  H17R 4722   5.365   0.896   8.890 -1.4951  1.3270  0.7163
   35POPC  H17S 4723   5.197   0.856   8.945  0.4441 -1.4950  2.5145
   35POPC  C218 4724   5.248   0.773   8.748 -0.2343  0.0771 -0.1011
   35POPC  H18R 4725   5.335   0.740   8.686 -2.4061 -0.6654 -2.9906
   35POPC  H18S 4726   5.191   0.850   8.691 -1.0159  0.6562  1.3997
   35POPC  H18T 4727   5.188   0.680   8.745 -0.4879  0.2368  0.0148
   35POPC   C33 4728   4.684   0.618  10.333  0.0354  0.3478 -0.0724
   35POPC   H3X 4729   4.750   0.706  10.318  1.1969 -0.7052 -1.5176
   35POPC   H3Y 4730   4.584   0.640  10.289  0.1372  0.6090 -0.1764
   35POPC   C34 4731   4.740   0.505  10.244 -0.0410 -0.1074  0.4518
   35POPC   H4X 4732   4.678   0.412  10.241  0.8007 -0.7100 -3.2115
   35POPC   H4Y 4733   4.839   0.466  10.275 -0.4800 -0.3382  1.6001
   35POPC   C35 4734   4.745   0.551  10.099  0.2535 -0.0739 -0.1284
   35POPC   H5X 4735   4.793   0.652  10.104 -1.7220  0.8758  1.3968
   35POPC   H5Y 4736   4.641   0.556  10.059 -0.5407  0.1565  1.8090
   35POPC   C36 4737   4.829   0.463  10.006  0.2143  0.2114  0.1869
   35POPC   H6X 4738   4.778   0.366   9.988  0.9126  0.0980 -1.2833
   35POPC   H6Y 4739   4.931   0.447  10.047  0.0657  0.0351  0.4914
   35POPC   C37 4740   4.846   0.528   9.869  0.0423  0.0706 -0.3083
   35POPC   H7X 4741   4.896   0.627   9.872 -3.7670  2.1949  1.9915
   35POPC   H7Y 4742   4.741   0.544   9.834 -0.1666  0.4288  0.4637
   35POPC   C38 4743   4.915   0.448   9.758 -0.7063 -0.1272 -0.0591
   35POPC   H8X 4744   4.864   0.354   9.728  1.9269 -1.1547 -1.6349
   35POPC   H8Y 4745   5.014   0.403   9.780 -0.5558  0.0808 -0.3173
   35POPC   C39 4746   4.942   0.531   9.632  0.3110  0.1120  0.1960
   35POPC   H9X 4747   5.021   0.606   9.651  1.8949 -1.9965  2.6652
   35POPC   H9Y 4748   4.848   0.573   9.591 -1.8752 -1.8404  2.8470
   35POPC  C310 4749   5.004   0.440   9.521  0.4132  0.1118  0.0063
   35POPC  H10X 4750   4.934   0.355   9.506  1.7821 -1.0099 -0.2897
   35POPC  H10Y 4751   5.095   0.399   9.570 -0.2844 -1.4984  0.0038
   35POPC  C311 4752   5.059   0.510   9.398  0.2919 -0.1881 -0.1884
   35POPC  H11X 4753   5.153   0.461   9.365  0.0431 -0.7267 -0.1118
   35POPC  H11Y 4754   5.086   0.615   9.425  0.6175 -0.0963 -0.8495
   35POPC  C312 4755   4.968   0.506   9.275  0.0280 -0.6411  0.1513
   35POPC  H12X 4756   4.862   0.522   9.305 -0.1740  2.1831 -1.6520
   35POPC  H12Y 4757   4.975   0.399   9.245  0.8101 -1.6425  3.4721
   35POPC  C313 4758   5.005   0.606   9.172 -0.2116 -0.0783  0.0429
   35POPC  H13X 4759   5.110   0.594   9.139  0.0761  0.0010  0.9151
   35POPC  H13Y 4760   5.010   0.707   9.218  0.7419 -0.4989  0.8861
   35POPC  C314 4761   4.927   0.602   9.044  0.6261  0.5424  0.2127
   35POPC  H14X 4762   4.981   0.669   8.973 -0.0556  1.7404  0.8006
   35POPC  H14Y 4763   4.823   0.639   9.048  0.3297  0.1211 -2.0934
   35POPC  C315 4764   4.913   0.452   8.992  0.2857 -0.5629  0.5364
   35POPC  H15X 4765   4.842   0.398   9.058  0.5936 -0.3637  1.0396
   35POPC  H15Y 4766   5.014   0.407   9.005  0.0418 -0.7344  2.0443
   35POPC  C316 4767   4.863   0.430   8.846 -0.1943  0.8337 -0.5082
   35POPC  H16X 4768   4.764   0.480   8.833  0.6414  3.3911  2.1043
   35POPC  H16Y 4769   4.869   0.320   8.834  1.2923  0.6863  1.2434
   35POPC  H16Z 4770   4.925   0.477   8.766 -2.1433  1.5919 -1.6645
   36POPC     N 4771   2.879   4.084  11.175  0.5007 -0.5568  0.4482
   36POPC   C12 4772   2.861   4.104  11.020 -0.1886 -0.1919  0.1428
   36POPC  H12A 4773   2.772   4.166  11.019  0.3887  0.7343  1.7932
   36POPC  H12B 4774   2.834   4.012  10.971  0.1598 -0.0791 -0.2685
   36POPC   C13 4775   2.959   3.957  11.194  0.3831  0.3530 -0.1882
   36POPC  H13A 4776   2.975   3.936  11.299 -3.3366 -0.3028  0.3893
   36POPC  H13B 4777   2.901   3.871  11.165  2.0357 -1.8418  2.5049
   36POPC  H13C 4778   3.049   3.963  11.134  0.2944  0.3760 -0.3179
   36POPC   C14 4779   2.961   4.189  11.235  0.0537  0.1599  0.2014
   36POPC  H14A 4780   3.048   4.202  11.172  0.4889 -1.2365  0.4860
   36POPC  H14B 4781   2.914   4.285  11.223  1.2848  1.3257  3.4730
   36POPC  H14C 4782   2.988   4.160  11.335 -2.8567 -0.4235  0.9062
   36POPC   C15 4783   2.747   4.068  11.250 -0.5302  0.0884  0.0412
   36POPC  H15A 4784   2.698   3.973  11.232  0.2124  0.1010 -2.4267
   36POPC  H15B 4785   2.681   4.152  11.233  0.7646  1.5888  2.0640
   36POPC  H15C 4786   2.762   4.075  11.356 -0.6871 -2.0685  0.2578
   36POPC   C11 4787   2.987   4.153  10.945 -0.2442 -0.2970 -0.1487
   36POPC  H11A 4788   3.002   4.258  10.977 -1.5870  1.1541 -3.7636
   36POPC  H11B 4789   2.964   4.153  10.836  1.5404  0.3277 -0.5708
   36POPC     P 4790   3.110   3.940  10.874  0.2326  0.4674  0.1888
   36POPC   O13 4791   2.993   3.857  10.913 -0.0496 -0.9235  0.3312
   36POPC   O14 4792   3.242   3.871  10.874  0.1832  0.4545  0.4782
   36POPC   O12 4793   3.105   4.071  10.965  0.0907 -0.0516  0.5501
   36POPC   O11 4794   3.088   3.991  10.724 -0.4685 -0.0077  0.1401
   36POPC    C1 4795   3.181   4.074  10.658 -0.2218  0.6982  0.0727
   36POPC    HA 4796   3.226   4.030  10.567 -0.6196  2.3785 -0.9785
   36POPC    HB 4797   3.264   4.107  10.724 -1.3113  1.5925  1.0457
   36POPC    C2 4798   3.111   4.202  10.602  0.0083  0.7261 -0.3025
   36POPC    HS 4799   3.010   4.217  10.646 -0.4661  1.1292 -1.4829
   36POPC   O21 4800   3.113   4.192  10.460  0.0346 -0.3655 -0.4493
   36POPC   C21 4801   3.003   4.199  10.389 -0.6624  0.1073  0.2994
   36POPC   O22 4802   2.895   4.230  10.426  0.1472  0.1058 -0.5844
   36POPC   C22 4803   3.035   4.152  10.239  0.0410  0.8071 -0.0695
   36POPC   H2R 4804   3.057   4.044  10.256  2.8002  0.9893 -1.7703
   36POPC   H2S 4805   3.118   4.215  10.200  0.2471  0.4024 -0.2910
   36POPC    C3 4806   3.181   4.329  10.645  0.6471  0.0119 -0.4468
   36POPC    HX 4807   3.290   4.315  10.629  1.0872 -1.8479  3.0555
   36POPC    HY 4808   3.171   4.329  10.756  0.0750 -2.9197 -0.4077
   36POPC   O31 4809   3.108   4.445  10.596 -0.8065  0.0017  0.2892
   36POPC   C31 4810   3.180   4.534  10.528 -1.1365 -0.7128 -0.8960
   36POPC   O32 4811   3.300   4.544  10.512  0.4729  0.1086 -0.4152
   36POPC   C32 4812   3.078   4.630  10.470 -0.4182  0.0181  0.6002
   36POPC   H2X 4813   3.046   4.702  10.549 -1.3097  2.1513 -1.5721
   36POPC   H2Y 4814   2.992   4.569  10.432 -0.9696 -0.2595  2.2222
   36POPC   C23 4815   2.907   4.159  10.159  0.5361 -0.0591 -0.4278
   36POPC   H3R 4816   2.877   4.264  10.176 -0.2907 -0.3793  0.1703
   36POPC   H3S 4817   2.837   4.087  10.207  1.6808 -0.6365  0.3934
   36POPC   C24 4818   2.913   4.140  10.008 -0.1043  0.2178 -0.3816
   36POPC   H4R 4819   2.820   4.184   9.965  0.7883  1.0561 -1.5177
   36POPC   H4S 4820   2.924   4.034   9.976 -0.7563  0.2426 -0.7133
   36POPC   C25 4821   3.035   4.217   9.948 -0.2787 -0.2164  0.0630
   36POPC   H5R 4822   3.119   4.154   9.982 -0.3799 -0.8419 -0.8307
   36POPC   H5S 4823   3.041   4.316  10.000 -0.6295 -1.4270  2.5877
   36POPC   C26 4824   3.052   4.223   9.804 -0.0478 -0.4142  0.3278
   36POPC   H6R 4825   3.049   4.120   9.763 -2.6775 -1.3230  2.4927
   36POPC   H6S 4826   3.150   4.270   9.782 -0.2403  0.7214  1.7267
   36POPC   C27 4827   2.954   4.314   9.729 -0.1342 -0.1583 -0.6181
   36POPC   H7R 4828   2.966   4.417   9.769 -0.0514 -0.3869 -0.0530
   36POPC   H7S 4829   2.847   4.295   9.753 -0.0504  2.1382  1.9766
   36POPC   C28 4830   2.968   4.331   9.577 -0.1633 -0.5684  0.1984
   36POPC   H8R 4831   2.928   4.242   9.523 -2.9257 -0.9563  2.6567
   36POPC   H8S 4832   3.078   4.340   9.561 -0.4986  0.3767 -1.8378
   36POPC   C29 4833   2.906   4.456   9.529 -0.0314  0.5138 -0.3109
   36POPC   H91 4834   2.830   4.496   9.598  0.0635  0.6682 -0.2952
   36POPC  C210 4835   2.923   4.517   9.407  1.1964  0.3662 -0.5982
   36POPC  H101 4836   2.855   4.600   9.382 -2.0486 -2.1520 -0.8897
   36POPC  C211 4837   2.999   4.452   9.288 -0.2344 -0.2228  0.1168
   36POPC  H11R 4838   3.082   4.386   9.322  0.6543  1.0863  0.5836
   36POPC  H11S 4839   3.049   4.525   9.220 -1.5360 -0.1648 -0.8043
   36POPC  C212 4840   2.916   4.349   9.206 -1.2000  0.0719 -0.8814
   36POPC  H12R 4841   2.848   4.294   9.275  1.0348  0.3097  1.7004
   36POPC  H12S 4842   2.984   4.270   9.168  1.0292  0.6914  1.5534
   36POPC  C213 4843   2.839   4.421   9.094 -0.6254 -0.1240 -0.2595
   36POPC  H13R 4844   2.914   4.464   9.025  1.9106 -0.7183  1.9710
   36POPC  H13S 4845   2.771   4.499   9.135  0.1872  1.2324 -1.3732
   36POPC  C214 4846   2.748   4.332   9.018  0.6469 -0.2425  0.3150
   36POPC  H14R 4847   2.675   4.294   9.092  1.6097 -0.8456  0.9790
   36POPC  H14S 4848   2.792   4.241   8.971 -1.4456  0.1185 -2.6592
   36POPC  C215 4849   2.680   4.399   8.887 -0.5567  0.4407  0.1315
   36POPC  H15R 4850   2.749   4.402   8.800  0.4219 -1.4609  0.8022
   36POPC  H15S 4851   2.655   4.499   8.931 -0.6215 -0.5294  2.4414
   36POPC  C216 4852   2.551   4.321   8.844 -1.3266 -0.0786  0.9796
   36POPC  H16R 4853   2.478   4.298   8.924  0.1715 -0.1348  2.3894
   36POPC  H16S 4854   2.592   4.227   8.803  0.6686  1.9603 -2.1730
   36POPC  C217 4855   2.480   4.382   8.723  1.0068  0.2186  0.1354
   36POPC  H17R 4856   2.417   4.472   8.742  1.1422  0.5280 -0.8190
   36POPC  H17S 4857   2.411   4.304   8.684 -0.1034  1.1450  0.1933
   36POPC  C218 4858   2.572   4.421   8.600  0.4994  0.5981  0.4009
   36POPC  H18R 4859   2.641   4.504   8.622  0.1971  1.7712 -2.6332
   36POPC  H18S 4860   2.501   4.455   8.521 -0.1759  0.2897  0.8593
   36POPC  H18T 4861   2.629   4.326   8.589 -0.9115 -0.3023  0.5840
   36POPC   C33 4862   3.136   4.712  10.350  0.3310 -0.6457 -0.6332
   36POPC   H3X 4863   3.228   4.766  10.382 -0.4565  0.2122  0.2446
   36POPC   H3Y 4864   3.047   4.779  10.345 -0.2166 -1.1488  1.4368
   36POPC   C34 4865   3.150   4.640  10.216  0.7299 -0.0992 -0.3556
   36POPC   H4X 4866   3.048   4.604  10.189 -0.8993  3.8286 -0.1366
   36POPC   H4Y 4867   3.219   4.554  10.231  0.7876  0.2613  1.6912
   36POPC   C35 4868   3.190   4.736  10.101 -0.1304  0.1664 -0.0077
   36POPC   H5X 4869   3.297   4.757  10.123 -0.1514  1.1458 -0.7544
   36POPC   H5Y 4870   3.133   4.831  10.110  0.2358  0.7528 -2.9271
   36POPC   C36 4871   3.165   4.675   9.967  0.3375  0.0378  0.2710
   36POPC   H6X 4872   3.056   4.655   9.965  0.5625 -1.2026 -0.9031
   36POPC   H6Y 4873   3.222   4.582   9.948 -0.4620 -0.3627 -0.1894
   36POPC   C37 4874   3.205   4.768   9.842  0.2791 -0.1390  0.8366
   36POPC   H7X 4875   3.308   4.806   9.857  0.5618  0.3807 -1.8283
   36POPC   H7Y 4876   3.142   4.857   9.822  2.3788  1.5175  1.3447
   36POPC   C38 4877   3.221   4.687   9.701 -0.3078 -0.4354 -0.3523
   36POPC   H8X 4878   3.127   4.632   9.680 -2.0603  2.2822 -0.0960
   36POPC   H8Y 4879   3.299   4.609   9.719  1.4347  1.1931 -0.5352
   36POPC   C39 4880   3.252   4.785   9.583 -0.7390 -0.3454 -0.5026
   36POPC   H9X 4881   3.337   4.849   9.614 -1.5508  0.1960  0.6934
   36POPC   H9Y 4882   3.158   4.840   9.560 -1.0367  0.0895  1.5216
   36POPC  C310 4883   3.282   4.714   9.450  0.1437 -0.1717  0.2299
   36POPC  H10X 4884   3.210   4.630   9.439 -0.5993  0.2919  1.3344
   36POPC  H10Y 4885   3.378   4.666   9.478  0.6652  1.7312  2.0392
   36POPC  C311 4886   3.291   4.804   9.326 -0.3408  0.4181 -0.0024
   36POPC  H11X 4887   3.361   4.883   9.360 -0.7920  0.6318  0.4294
   36POPC  H11Y 4888   3.194   4.857   9.316 -0.4687  0.0902 -0.5339
   36POPC  C312 4889   3.334   4.723   9.203  0.5702  0.1279  0.4150
   36POPC  H12X 4890   3.268   4.634   9.214 -1.7667  1.5816 -0.7966
   36POPC  H12Y 4891   3.439   4.689   9.200  0.5335 -0.0273  0.7913
   36POPC  C313 4892   3.311   4.802   9.070 -0.1891 -0.4222  0.0063
   36POPC  H13X 4893   3.362   4.900   9.078  1.2790 -1.2001  0.6774
   36POPC  H13Y 4894   3.204   4.822   9.049 -1.1853 -2.3159  2.7283
   36POPC  C314 4895   3.370   4.735   8.950  0.4799  0.0612 -0.0226
   36POPC  H14X 4896   3.320   4.636   8.945 -2.1339  1.2830  0.2457
   36POPC  H14Y 4897   3.478   4.728   8.976  1.0041  0.5839 -1.8921
   36POPC  C315 4898   3.354   4.799   8.815 -0.1051  0.5701 -0.0105
   36POPC  H15X 4899   3.403   4.898   8.803  1.7718 -0.4664 -1.6335
   36POPC  H15Y 4900   3.247   4.819   8.793 -0.4021  0.8734  1.6366
   36POPC  C316 4901   3.413   4.703   8.704 -0.3385  0.0504 -0.2190
   36POPC  H16X 4902   3.357   4.607   8.699  1.5668 -1.0486 -3.1397
   36POPC  H16Y 4903   3.520   4.679   8.722 -0.1149  1.2594  0.1648
   36POPC  H16Z 4904   3.400   4.751   8.605 -0.6462  0.9484  0.2474
   37POPC     N 4905   4.198   2.462   6.380 -0.0635 -0.0872 -0.0490
   37POPC   C12 4906   4.131   2.412   6.510 -0.3755 -0.3905  0.3552
   37POPC  H12A 4907   4.213   2.371   6.567  1.8734 -1.7666 -3.4471
   37POPC  H12B 4908   4.074   2.324   6.483  0.3222 -0.5700 -0.6008
   37POPC   C13 4909   4.293   2.574   6.416  0.3008  0.1592 -0.3975
   37POPC  H13A 4910   4.376   2.544   6.478  1.0296  2.4096 -0.1792
   37POPC  H13B 4911   4.343   2.609   6.327  2.8118 -1.0240  0.4540
   37POPC  H13C 4912   4.238   2.660   6.452  0.7966  0.7192 -0.9569
   37POPC   C14 4913   4.266   2.348   6.306  0.0406  0.1503  0.1431
   37POPC  H14A 4914   4.331   2.380   6.226  0.4965  0.0908  0.4869
   37POPC  H14B 4915   4.316   2.296   6.387 -2.0928  0.0661  1.4889
   37POPC  H14C 4916   4.198   2.279   6.258  0.1767  0.9789 -1.3000
   37POPC   C15 4917   4.103   2.523   6.284  0.7251 -0.4097  0.0161
   37POPC  H15A 4918   4.155   2.543   6.192 -1.8154  0.1587 -1.3743
   37POPC  H15B 4919   4.046   2.606   6.323  0.2240 -0.6786 -0.1430
   37POPC  H15C 4920   4.026   2.454   6.253  0.2831  0.3195 -0.5513
   37POPC   C11 4921   4.056   2.515   6.599 -0.1347 -0.4258  0.2007
   37POPC  H11A 4922   4.131   2.593   6.624  0.2564 -0.5311 -0.6047
   37POPC  H11B 4923   4.022   2.462   6.691  2.6762 -0.6074  1.2354
   37POPC     P 4924   3.815   2.515   6.489  0.0668 -0.6460 -0.0620
   37POPC   O13 4925   3.810   2.494   6.349  0.1456  0.0914  0.7554
   37POPC   O14 4926   3.718   2.612   6.545 -0.0688  0.2984  1.0443
   37POPC   O12 4927   3.953   2.579   6.521  0.3151  0.1116 -0.1410
   37POPC   O11 4928   3.802   2.384   6.566  0.3438 -0.1077 -0.3211
   37POPC    C1 4929   3.667   2.323   6.572  0.5491 -0.4741  0.2243
   37POPC    HA 4930   3.688   2.214   6.574 -0.1603 -0.6433 -0.8807
   37POPC    HB 4931   3.609   2.334   6.479  0.8533 -1.1749 -0.0578
   37POPC    C2 4932   3.599   2.368   6.700  0.4377  0.0451 -0.2339
   37POPC    HS 4933   3.603   2.479   6.701 -0.8494  0.2290 -3.2270
   37POPC   O21 4934   3.668   2.316   6.808  0.1742  0.0082 -0.3451
   37POPC   C21 4935   3.681   2.401   6.912  0.3165 -0.1943 -0.3033
   37POPC   O22 4936   3.631   2.512   6.918  0.0746  0.1105  0.0881
   37POPC   C22 4937   3.793   2.335   7.002  0.2880  0.3340 -0.2586
   37POPC   H2R 4938   3.886   2.383   6.966  0.0958  0.7796 -0.1634
   37POPC   H2S 4939   3.782   2.225   6.986 -1.6918  0.3549  0.6623
   37POPC    C3 4940   3.448   2.332   6.721  0.0473 -0.3137 -0.3872
   37POPC    HX 4941   3.441   2.222   6.731 -2.1167 -0.1943  0.0087
   37POPC    HY 4942   3.381   2.348   6.634 -1.3457 -0.0636  0.6819
   37POPC   O31 4943   3.378   2.366   6.849 -0.1935 -0.6105  0.3260
   37POPC   C31 4944   3.299   2.473   6.842  0.1879 -0.4007 -0.6714
   37POPC   O32 4945   3.298   2.554   6.751  0.0862  0.5155  0.0530
   37POPC   C32 4946   3.197   2.479   6.958 -0.1273 -0.1523  0.0650
   37POPC   H2X 4947   3.126   2.394   6.959  1.5794 -1.6387  1.4731
   37POPC   H2Y 4948   3.137   2.572   6.944  3.3664  2.6056  1.8126
   37POPC   C23 4949   3.766   2.361   7.153  0.8621 -0.1936  0.4632
   37POPC   H3R 4950   3.669   2.326   7.192 -0.2676  2.7861  0.5609
   37POPC   H3S 4951   3.771   2.469   7.179  0.4306 -0.3562  1.2172
   37POPC   C24 4952   3.864   2.287   7.240 -0.5321 -0.3257  0.3635
   37POPC   H4R 4953   3.967   2.323   7.221 -0.2108 -1.1006  0.5806
   37POPC   H4S 4954   3.873   2.179   7.215  1.3879 -0.5128  1.6460
   37POPC   C25 4955   3.850   2.306   7.391  0.3140 -0.7191  0.0681
   37POPC   H5R 4956   3.750   2.267   7.420 -0.7545  0.1299 -2.1943
   37POPC   H5S 4957   3.851   2.416   7.408 -1.0746 -0.7709  0.6385
   37POPC   C26 4958   3.953   2.231   7.461 -0.1862  0.2568  0.1562
   37POPC   H6R 4959   4.053   2.272   7.435  0.4334  2.4008  4.8598
   37POPC   H6S 4960   3.943   2.124   7.433 -0.2211  0.2934  0.0286
   37POPC   C27 4961   3.955   2.246   7.616  0.5497 -0.4215  0.5349
   37POPC   H7R 4962   3.850   2.257   7.650  0.3022 -2.2588  0.4791
   37POPC   H7S 4963   3.992   2.350   7.630 -0.2550  0.0942 -0.9178
   37POPC   C28 4964   4.040   2.155   7.697 -0.6906  0.3856  0.1236
   37POPC   H8R 4965   4.066   2.192   7.799  1.4516  1.1720 -0.6460
   37POPC   H8S 4966   4.137   2.139   7.645 -0.1129  0.2732  1.1860
   37POPC   C29 4967   3.961   2.031   7.703 -0.3592  1.1167  0.7246
   37POPC   H91 4968   3.955   1.966   7.614 -0.7839  0.0872  1.4872
   37POPC  C210 4969   3.917   1.977   7.817 -0.7336 -0.6431  0.9690
   37POPC  H101 4970   3.858   1.884   7.821 -1.0927 -0.4178  0.9619
   37POPC  C211 4971   3.940   2.040   7.957  0.4659  0.0356  0.5948
   37POPC  H11R 4972   4.050   2.050   7.969  0.4717  2.2094 -0.7860
   37POPC  H11S 4973   3.913   1.959   8.028  0.7872  0.1756  0.8780
   37POPC  C212 4974   3.867   2.163   7.987  0.6790 -0.6117 -0.3055
   37POPC  H12R 4975   3.759   2.140   8.003  0.3278  0.1074 -1.5114
   37POPC  H12S 4976   3.856   2.220   7.892  0.5740 -0.8869 -0.4610
   37POPC  C213 4977   3.922   2.245   8.113  0.1266  0.8186  0.0654
   37POPC  H13R 4978   4.027   2.282   8.108  1.4982 -2.8010 -0.9754
   37POPC  H13S 4979   3.905   2.179   8.200 -1.3234  1.5657  0.3871
   37POPC  C214 4980   3.824   2.362   8.139 -0.4201 -0.4028  0.1217
   37POPC  H14R 4981   3.722   2.324   8.162 -0.8583  0.9861  0.5803
   37POPC  H14S 4982   3.818   2.419   8.044  0.4513  0.7595  0.7286
   37POPC  C215 4983   3.865   2.450   8.254  0.2921  0.8190 -0.1199
   37POPC  H15R 4984   3.813   2.547   8.243 -0.9936  0.4441  2.0474
   37POPC  H15S 4985   3.974   2.469   8.261  0.2037  0.8843  1.4507
   37POPC  C216 4986   3.830   2.385   8.395  0.0819  0.1441 -0.6055
   37POPC  H16R 4987   3.883   2.290   8.419 -1.2100 -0.3036  0.6682
   37POPC  H16S 4988   3.722   2.357   8.390  0.3470 -0.7578 -1.8390
   37POPC  C217 4989   3.844   2.487   8.508  0.5478 -0.3640  0.0391
   37POPC  H17R 4990   3.817   2.434   8.602 -0.3562 -1.4959 -0.8215
   37POPC  H17S 4991   3.766   2.565   8.491  0.1114 -0.7248  0.3433
   37POPC  C218 4992   3.985   2.548   8.523 -0.5227 -0.6853  0.2796
   37POPC  H18R 4993   3.983   2.624   8.604 -2.8870 -0.3844  0.0023
   37POPC  H18S 4994   4.026   2.597   8.432  0.3739  0.5783  1.3365
   37POPC  H18T 4995   4.059   2.466   8.534 -0.8110 -1.0577 -0.4805
   37POPC   C33 4996   3.259   2.485   7.098  0.0185  0.0130  0.2948
   37POPC   H3X 4997   3.325   2.573   7.113 -0.7275  0.8514 -1.1481
   37POPC   H3Y 4998   3.336   2.406   7.101 -0.0396 -0.0970 -0.6842
   37POPC   C34 4999   3.162   2.459   7.206  0.4503 -0.8386 -0.2087
   37POPC   H4X 5000   3.099   2.371   7.183  1.2254 -1.1179 -1.3327
   37POPC   H4Y 5001   3.099   2.551   7.213  2.5481  1.0045 -3.0364
   37POPC   C35 5002   3.221   2.444   7.349  0.7203  0.4608  1.2613
   37POPC   H5X 5003   3.290   2.527   7.376  0.4516  1.7404 -1.6225
   37POPC   H5Y 5004   3.285   2.353   7.351  2.3973  1.5974  3.3954
   37POPC   C36 5005   3.105   2.428   7.455  0.3463  0.4865 -0.6550
   37POPC   H6X 5006   3.039   2.343   7.427  0.7772 -0.1173  0.1264
   37POPC   H6Y 5007   3.033   2.513   7.459  0.6065  0.6958  2.8536
   37POPC   C37 5008   3.156   2.408   7.600  0.0272  0.3020 -0.4566
   37POPC   H7X 5009   3.237   2.481   7.621  2.1641 -1.8968 -0.5537
   37POPC   H7Y 5010   3.192   2.303   7.604  1.7001  0.8508 -0.4887
   37POPC   C38 5011   3.051   2.414   7.725 -0.2920  0.7103 -0.3981
   37POPC   H8X 5012   2.960   2.371   7.679  1.1476 -2.4525 -0.5135
   37POPC   H8Y 5013   3.037   2.522   7.748 -0.3050  0.8071 -0.8580
   37POPC   C39 5014   3.098   2.345   7.854  0.1404  0.5644 -0.4926
   37POPC   H9X 5015   3.196   2.381   7.893 -0.3364  0.4026  0.9121
   37POPC   H9Y 5016   3.111   2.235   7.846  0.1013  0.3084  2.0937
   37POPC  C310 5017   2.983   2.367   7.958  0.3959  0.9379  0.5463
   37POPC  H10X 5018   2.897   2.304   7.925  1.5985 -0.2095 -0.5138
   37POPC  H10Y 5019   2.945   2.471   7.950  1.2153  1.3852  2.0623
   37POPC  C311 5020   3.040   2.341   8.098 -0.1107  0.0752  0.1043
   37POPC  H11X 5021   3.133   2.401   8.105  0.0917  0.4533 -3.5612
   37POPC  H11Y 5022   3.074   2.236   8.097  1.2278  0.4873  0.8256
   37POPC  C312 5023   2.950   2.377   8.215 -0.3445  0.2012  0.4004
   37POPC  H12X 5024   2.852   2.326   8.208 -0.4807  0.3514  1.0877
   37POPC  H12Y 5025   2.929   2.486   8.209 -0.7647  0.1062  0.0874
   37POPC  C313 5026   3.009   2.333   8.351  0.1894  0.1362 -0.1828
   37POPC  H13X 5027   3.113   2.368   8.366  0.2811 -0.8370  1.9067
   37POPC  H13Y 5028   3.011   2.222   8.355 -1.2284  0.1187  1.9825
   37POPC  C314 5029   2.922   2.365   8.471 -0.0506  0.1307  0.3550
   37POPC  H14X 5030   2.820   2.324   8.457  0.1432 -1.1144  2.2605
   37POPC  H14Y 5031   2.910   2.475   8.482 -0.7930 -0.0685  1.6600
   37POPC  C315 5032   2.965   2.308   8.607 -0.4764  0.1870  0.5338
   37POPC  H15X 5033   3.072   2.332   8.622 -1.1523  2.4752  2.2928
   37POPC  H15Y 5034   2.963   2.197   8.605 -0.2531  0.1625  1.4426
   37POPC  C316 5035   2.902   2.373   8.728  0.1145 -0.2368  0.0724
   37POPC  H16X 5036   2.933   2.479   8.738  1.0303 -0.4402 -0.4831
   37POPC  H16Y 5037   2.938   2.330   8.824 -1.9110 -0.8994  0.5924
   37POPC  H16Z 5038   2.791   2.366   8.736  0.1698 -0.1515  1.0027
   38POPC     N 5039   5.142   4.083   6.182  0.1535 -0.0403  0.0256
   38POPC   C12 5040   5.125   4.045   6.329  0.2934  0.3573  0.4478
   38POPC  H12A 5041   5.223   4.061   6.372  0.6607  2.1178 -0.9086
   38POPC  H12B 5042   5.089   3.944   6.339 -3.4379  1.3884 -0.9318
   38POPC   C13 5043   5.196   4.224   6.166  0.0251  0.0308 -0.0625
   38POPC  H13A 5044   5.219   4.243   6.062 -0.2960  1.8346  0.1622
   38POPC  H13B 5045   5.123   4.296   6.201 -1.0458 -1.7666  1.6299
   38POPC  H13C 5046   5.290   4.233   6.219  0.2781 -0.2005 -0.4700
   38POPC   C14 5047   5.233   3.990   6.114  0.0963 -0.1962  0.5931
   38POPC  H14A 5048   5.215   3.983   6.008 -1.0595 -2.6580  0.8883
   38POPC  H14B 5049   5.339   4.010   6.124  0.6183 -1.2446 -1.9794
   38POPC  H14C 5050   5.214   3.890   6.150 -1.9064  0.0696  0.4095
   38POPC   C15 5051   5.017   4.076   6.099 -0.6269  0.8841 -0.4865
   38POPC  H15A 5052   4.932   4.114   6.154 -0.5316  2.1479 -1.1611
   38POPC  H15B 5053   5.002   3.974   6.070  0.1639  0.4356  0.6037
   38POPC  H15C 5054   5.028   4.122   6.002 -0.4594 -0.2495 -1.0179
   38POPC   C11 5055   5.021   4.133   6.399 -0.4249  0.3648 -0.4083
   38POPC  H11A 5056   5.050   4.239   6.385  1.3538  0.1153  1.1059
   38POPC  H11B 5057   5.040   4.117   6.507  1.1578  0.7476 -0.6037
   38POPC     P 5058   4.806   3.986   6.397  0.2220  0.3709  0.0940
   38POPC   O13 5059   4.885   3.864   6.370 -0.2341 -0.4410 -0.1711
   38POPC   O14 5060   4.673   3.988   6.335  0.2296 -0.1368 -0.1105
   38POPC   O12 5061   4.884   4.113   6.354  0.7216 -0.1925  0.3174
   38POPC   O11 5062   4.793   4.013   6.555  0.0463 -0.1474 -0.1217
   38POPC    C1 5063   4.698   4.102   6.609 -0.0994 -0.1594 -0.3228
   38POPC    HA 5064   4.692   4.094   6.719  2.7437  0.5367 -0.0421
   38POPC    HB 5065   4.596   4.079   6.572 -0.5520  1.4906 -0.1531
   38POPC    C2 5066   4.732   4.251   6.597 -0.2981  0.4093 -0.8343
   38POPC    HS 5067   4.716   4.283   6.491 -2.4665  2.9611  0.1372
   38POPC   O21 5068   4.863   4.266   6.647 -0.3422 -0.6625 -0.5591
   38POPC   C21 5069   4.905   4.392   6.631  0.5914 -0.2054  0.4161
   38POPC   O22 5070   4.845   4.481   6.574  0.3282 -0.1453  0.1622
   38POPC   C22 5071   5.047   4.405   6.693 -1.1278  0.0772  0.2763
   38POPC   H2R 5072   5.109   4.451   6.614 -0.6357  1.3579  1.3692
   38POPC   H2S 5073   5.082   4.305   6.725 -0.2285 -0.7093 -2.8421
   38POPC    C3 5074   4.628   4.328   6.680  0.2527  0.1982 -0.2912
   38POPC    HX 5075   4.524   4.298   6.656 -0.4825 -0.7006  3.3149
   38POPC    HY 5076   4.637   4.437   6.662  0.1070  0.0658 -1.1905
   38POPC   O31 5077   4.639   4.305   6.822  0.4266 -0.2798  0.2645
   38POPC   C31 5078   4.554   4.381   6.898 -0.0851 -0.5711  0.3027
   38POPC   O32 5079   4.455   4.443   6.860 -0.0242 -0.0047 -0.1481
   38POPC   C32 5080   4.595   4.371   7.047 -0.1981  0.4075 -0.4259
   38POPC   H2X 5081   4.682   4.439   7.055  1.9430 -2.0129 -1.4225
   38POPC   H2Y 5082   4.628   4.267   7.069  0.7713  0.7880 -0.0390
   38POPC   C23 5083   5.052   4.494   6.809 -0.1223 -0.0318 -0.1464
   38POPC   H3R 5084   4.998   4.591   6.800 -1.1882 -0.5280  0.6325
   38POPC   H3S 5085   5.157   4.519   6.832 -0.0665  1.6759 -1.9239
   38POPC   C24 5086   4.992   4.422   6.933 -0.3706  0.2273  0.0478
   38POPC   H4R 5087   5.049   4.327   6.947  0.5547  0.6180 -0.9610
   38POPC   H4S 5088   4.892   4.385   6.904  0.3484 -0.4026 -1.7866
   38POPC   C25 5089   4.986   4.514   7.055 -0.4726  0.0638  0.3359
   38POPC   H5R 5090   4.916   4.598   7.039 -0.6931 -0.1913 -0.0710
   38POPC   H5S 5091   5.083   4.567   7.061  0.4353 -1.2585 -1.6138
   38POPC   C26 5092   4.957   4.435   7.186  0.2699  0.1886  0.4448
   38POPC   H6R 5093   5.029   4.351   7.198  0.7646  0.7172  1.2703
   38POPC   H6S 5094   4.851   4.400   7.185 -0.0417  1.1185  0.1030
   38POPC   C27 5095   4.979   4.512   7.323  0.2494  0.7415 -0.5597
   38POPC   H7R 5096   4.953   4.619   7.307 -0.4766  0.6244 -0.1719
   38POPC   H7S 5097   5.089   4.516   7.338  0.0910 -0.0170  0.9935
   38POPC   C28 5098   4.923   4.441   7.451  0.3616 -0.0599  0.5011
   38POPC   H8R 5099   4.985   4.350   7.462  1.1363  0.6311  2.2467
   38POPC   H8S 5100   4.817   4.412   7.434  0.5187 -0.6526  0.5217
   38POPC   C29 5101   4.935   4.541   7.568  1.0751 -0.1916  0.0525
   38POPC   H91 5102   4.943   4.646   7.540  0.0260  0.1539  0.9817
   38POPC  C210 5103   4.948   4.503   7.695 -0.2922 -0.2160 -0.2659
   38POPC  H101 5104   4.951   4.579   7.774 -3.6771  0.9734 -1.0853
   38POPC  C211 5105   4.942   4.361   7.747 -0.0536 -0.0683  0.0117
   38POPC  H11R 5106   5.041   4.313   7.733 -1.6150 -3.2167 -1.0551
   38POPC  H11S 5107   4.865   4.309   7.686 -0.3495  0.0522  0.2766
   38POPC  C212 5108   4.918   4.331   7.899  0.0067  0.6736  0.1688
   38POPC  H12R 5109   4.818   4.373   7.921 -0.6465 -0.2887 -0.8494
   38POPC  H12S 5110   4.991   4.380   7.967  1.7624 -2.0609  0.4105
   38POPC  C213 5111   4.917   4.186   7.933  0.0382 -1.2131  0.0960
   38POPC  H13R 5112   5.002   4.129   7.891  1.3331  0.1915  0.7075
   38POPC  H13S 5113   4.823   4.144   7.891 -1.0116  1.0088  0.0427
   38POPC  C214 5114   4.921   4.165   8.084 -0.4994 -0.6321 -0.9774
   38POPC  H14R 5115   4.832   4.197   8.142  0.9807 -0.9617  1.6780
   38POPC  H14S 5116   5.014   4.216   8.120  0.2911 -1.0104 -2.4292
   38POPC  C215 5117   4.959   4.020   8.116 -0.0285  0.0194  0.7742
   38POPC  H15R 5118   5.059   4.010   8.069 -0.7574 -1.0171 -0.6106
   38POPC  H15S 5119   4.896   3.956   8.051 -2.2594  2.7990 -0.0441
   38POPC  C216 5120   4.965   3.983   8.266 -0.2784  0.0391  0.0128
   38POPC  H16R 5121   4.975   3.874   8.279 -0.2961  0.0560  0.1769
   38POPC  H16S 5122   4.873   4.008   8.324 -0.2111 -0.9743  0.5637
   38POPC  C217 5123   5.087   4.041   8.324  0.1833 -0.6010  0.2416
   38POPC  H17R 5124   5.090   4.150   8.302 -2.7089 -0.6513 -0.9325
   38POPC  H17S 5125   5.176   3.982   8.294 -0.6051 -0.5340 -2.4992
   38POPC  C218 5126   5.065   4.041   8.476 -0.0436  0.2918 -0.5394
   38POPC  H18R 5127   5.081   3.940   8.522  1.0816 -0.3070 -2.1776
   38POPC  H18S 5128   4.958   4.055   8.504  0.1426  0.3774  0.1601
   38POPC  H18T 5129   5.119   4.121   8.530  1.3497  1.0713 -2.9800
   38POPC   C33 5130   4.485   4.396   7.147 -0.2575  0.3269  0.6936
   38POPC   H3X 5131   4.404   4.323   7.127 -0.5098  1.0597 -1.2201
   38POPC   H3Y 5132   4.450   4.500   7.127 -0.1790  0.9538  3.4372
   38POPC   C34 5133   4.542   4.403   7.283 -0.1199  0.1569 -0.1651
   38POPC   H4X 5134   4.623   4.479   7.283  0.9226 -0.9115  0.1830
   38POPC   H4Y 5135   4.584   4.307   7.319  0.7965  1.5042  2.6801
   38POPC   C35 5136   4.443   4.446   7.393 -0.6993 -1.6478 -0.7078
   38POPC   H5X 5137   4.373   4.363   7.415  1.8479 -3.4255  1.3594
   38POPC   H5Y 5138   4.399   4.540   7.355  2.4113  0.3629  0.2583
   38POPC   C36 5139   4.521   4.466   7.525  0.0844 -0.0679  0.0586
   38POPC   H6X 5140   4.600   4.543   7.517  0.7892 -0.9358 -1.7047
   38POPC   H6Y 5141   4.564   4.366   7.549 -0.2188 -0.2314 -0.0784
   38POPC   C37 5142   4.430   4.504   7.640  0.2172 -0.0088 -0.2148
   38POPC   H7X 5143   4.346   4.432   7.629 -1.1296  1.2880  1.1091
   38POPC   H7Y 5144   4.385   4.599   7.606  1.3341 -0.2456 -2.5761
   38POPC   C38 5145   4.503   4.500   7.781 -0.3439 -0.0003 -0.6117
   38POPC   H8X 5146   4.568   4.589   7.799  0.2079 -0.4185 -0.5052
   38POPC   H8Y 5147   4.565   4.409   7.798  0.5786  0.3836 -1.7444
   38POPC   C39 5148   4.403   4.511   7.903  0.4258  0.3871  0.5237
   38POPC   H9X 5149   4.347   4.416   7.912 -0.3613  0.9981  2.8265
   38POPC   H9Y 5150   4.326   4.588   7.882 -0.7049 -0.8253  0.1016
   38POPC  C310 5151   4.461   4.530   8.052 -0.0082 -0.7537  0.0517
   38POPC  H10X 5152   4.524   4.621   8.060 -2.6229  1.0930  0.6822
   38POPC  H10Y 5153   4.512   4.435   8.080  0.4777 -0.6872 -0.5907
   38POPC  C311 5154   4.347   4.547   8.158 -0.2060  0.7340 -0.3490
   38POPC  H11X 5155   4.267   4.472   8.137  0.3552 -0.1997  0.7955
   38POPC  H11Y 5156   4.307   4.651   8.164 -1.2676  0.2421  1.8017
   38POPC  C312 5157   4.394   4.502   8.299  0.0725 -0.1541  0.0862
   38POPC  H12X 5158   4.493   4.546   8.325  0.8627 -1.4564 -0.6409
   38POPC  H12Y 5159   4.416   4.393   8.295  0.5814 -0.0308 -0.4998
   38POPC  C313 5160   4.293   4.514   8.416 -0.0940  0.0184 -0.1289
   38POPC  H13X 5161   4.307   4.436   8.494  3.2119  0.8364  0.2213
   38POPC  H13Y 5162   4.194   4.492   8.370  0.3222 -2.9091  0.2074
   38POPC  C314 5163   4.291   4.643   8.494 -0.1998 -0.4006 -0.2614
   38POPC  H14X 5164   4.216   4.638   8.576  2.1647  0.1715  2.1110
   38POPC  H14Y 5165   4.262   4.727   8.427 -1.9931  0.4385  1.4732
   38POPC  C315 5166   4.414   4.673   8.581 -0.7973 -0.9559 -0.6451
   38POPC  H15X 5167   4.417   4.784   8.584  0.5007 -0.9809 -0.4520
   38POPC  H15Y 5168   4.509   4.647   8.530  0.1882 -1.2165  1.2277
   38POPC  C316 5169   4.417   4.608   8.721 -0.4587 -0.1632  0.1418
   38POPC  H16X 5170   4.444   4.501   8.710  0.7355 -0.0657  1.7217
   38POPC  H16Y 5171   4.329   4.635   8.783  2.4436  4.2254  3.0172
   38POPC  H16Z 5172   4.506   4.661   8.763  0.9641 -1.3186 -1.3084
   39POPC     N 5173   2.198   1.543   6.118 -0.6350 -0.1115 -0.3833
   39POPC   C12 5174   2.348   1.546   6.139 -0.0248  1.3834 -0.2804
   39POPC  H12A 5175   2.374   1.443   6.159  1.1747  1.7991  0.3907
   39POPC  H12B 5176   2.375   1.602   6.227  0.4917 -0.3727  0.7336
   39POPC   C13 5177   2.165   1.685   6.098 -0.0518 -0.2659 -0.0648
   39POPC  H13A 5178   2.189   1.740   6.188  1.1078  1.5580 -1.4083
   39POPC  H13B 5179   2.223   1.719   6.013 -0.6458  1.2037  0.0966
   39POPC  H13C 5180   2.061   1.703   6.076 -0.3596 -0.6571  0.9952
   39POPC   C14 5181   2.151   1.462   5.999 -0.6070 -0.6771 -0.7233
   39POPC  H14A 5182   2.195   1.364   6.004  0.4099 -0.4202 -3.2836
   39POPC  H14B 5183   2.043   1.468   5.993 -0.5971  1.8279  0.1740
   39POPC  H14C 5184   2.191   1.503   5.908  1.6699  0.8662  0.8592
   39POPC   C15 5185   2.122   1.490   6.243  0.1602  0.0687  0.1025
   39POPC  H15A 5186   2.167   1.545   6.324  1.6243  0.7805 -1.1281
   39POPC  H15B 5187   2.136   1.384   6.260 -1.0946 -0.1121  0.0909
   39POPC  H15C 5188   2.016   1.509   6.238  0.4968  2.3818  0.9033
   39POPC   C11 5189   2.435   1.592   6.018 -0.0717  0.3884  0.1203
   39POPC  H11A 5190   2.416   1.698   5.989  0.7296  0.7245  0.7844
   39POPC  H11B 5191   2.416   1.534   5.926  1.3430 -1.0509  0.6998
   39POPC     P 5192   2.681   1.702   6.080 -0.0234 -0.1082  0.4660
   39POPC   O13 5193   2.616   1.824   6.126 -0.2453 -0.0783  0.2158
   39POPC   O14 5194   2.764   1.706   5.955  0.2858  0.1517  0.0734
   39POPC   O12 5195   2.574   1.583   6.060 -0.4520  0.1160  0.1560
   39POPC   O11 5196   2.772   1.656   6.194 -0.2367 -0.2237 -0.2038
   39POPC    C1 5197   2.731   1.556   6.286 -0.2965  0.1672  0.0809
   39POPC    HA 5198   2.821   1.509   6.331 -0.4407  0.0486  0.2466
   39POPC    HB 5199   2.688   1.468   6.235  0.0902 -1.3307  2.2008
   39POPC    C2 5200   2.643   1.604   6.404  0.5250 -0.2800  0.0044
   39POPC    HS 5201   2.568   1.674   6.360  2.1381  0.3264 -1.9201
   39POPC   O21 5202   2.732   1.677   6.500  0.4115  0.2625 -0.0048
   39POPC   C21 5203   2.690   1.791   6.534 -0.2969 -0.6123  0.2546
   39POPC   O22 5204   2.585   1.850   6.499  0.0740 -0.3610 -0.2089
   39POPC   C22 5205   2.803   1.855   6.618  0.0587 -0.2286  0.4191
   39POPC   H2R 5206   2.887   1.885   6.552 -1.3260 -1.9045 -2.2580
   39POPC   H2S 5207   2.861   1.776   6.670 -0.7087  0.8844  3.1609
   39POPC    C3 5208   2.583   1.485   6.479 -0.4022  0.5030 -0.1062
   39POPC    HX 5209   2.675   1.433   6.512  0.7514  3.7342  2.2611
   39POPC    HY 5210   2.520   1.428   6.407 -0.5399  0.9533 -0.3479
   39POPC   O31 5211   2.501   1.510   6.597 -0.7744 -0.2519  0.2418
   39POPC   C31 5212   2.381   1.566   6.586 -0.0122  0.4473 -0.0307
   39POPC   O32 5213   2.331   1.580   6.472 -0.2090 -0.0189 -0.1516
   39POPC   C32 5214   2.335   1.599   6.729 -0.7479 -0.1069  0.0257
   39POPC   H2X 5215   2.384   1.518   6.787  2.2999 -0.8735 -3.2391
   39POPC   H2Y 5216   2.371   1.699   6.761 -0.8731 -0.1921  0.4323
   39POPC   C23 5217   2.752   1.965   6.712 -0.0172  1.0780  0.0089
   39POPC   H3R 5218   2.651   1.945   6.754  0.0385  0.7972  0.0124
   39POPC   H3S 5219   2.738   2.055   6.648 -0.6414  0.0469 -1.3511
   39POPC   C24 5220   2.846   1.995   6.833 -0.1426  0.5356 -0.2651
   39POPC   H4R 5221   2.949   2.023   6.803  0.3037 -1.5634 -0.8270
   39POPC   H4S 5222   2.845   1.902   6.893 -0.2760  0.2772 -0.6628
   39POPC   C25 5223   2.789   2.118   6.906  0.0260 -0.2694  0.0679
   39POPC   H5R 5224   2.687   2.093   6.943 -0.5393 -0.8242 -1.7646
   39POPC   H5S 5225   2.785   2.201   6.833  3.4229  0.0380  0.0696
   39POPC   C26 5226   2.872   2.177   7.027  0.1934 -0.0895  0.1816
   39POPC   H6R 5227   2.817   2.258   7.080  1.0144 -0.6242  1.8950
   39POPC   H6S 5228   2.959   2.219   6.972 -1.0735  1.5346 -0.7066
   39POPC   C27 5229   2.901   2.063   7.122  0.9622  0.0815  0.9503
   39POPC   H7R 5230   2.978   1.994   7.080 -2.9741 -2.6586 -2.7057
   39POPC   H7S 5231   2.808   2.001   7.117  0.7353  0.4371  0.7000
   39POPC   C28 5232   2.940   2.106   7.260  0.4350 -0.6386 -0.4878
   39POPC   H8R 5233   2.960   2.215   7.259 -2.7635  0.0541 -1.5636
   39POPC   H8S 5234   3.027   2.044   7.290 -0.5223 -2.3934 -1.1950
   39POPC   C29 5235   2.829   2.097   7.364  0.0319  0.3295  0.5292
   39POPC   H91 5236   2.734   2.127   7.318  0.1691  0.1064  0.0919
   39POPC  C210 5237   2.825   2.048   7.491  0.4410  0.3294  0.2072
   39POPC  H101 5238   2.736   2.051   7.556 -0.4027 -1.0765 -0.8320
   39POPC  C211 5239   2.948   2.003   7.564 -0.1081  0.1012  0.4889
   39POPC  H11R 5240   2.935   2.018   7.674  0.9394  0.1362  0.6186
   39POPC  H11S 5241   3.035   2.059   7.524  0.0680 -0.0389  0.6757
   39POPC  C212 5242   2.968   1.848   7.549  0.2394 -0.1910  0.2444
   39POPC  H12R 5243   2.976   1.820   7.442 -0.0113  0.8989 -0.0786
   39POPC  H12S 5244   2.886   1.793   7.600 -0.9582  2.4185  1.3215
   39POPC  C213 5245   3.106   1.795   7.606  0.1158 -0.5002 -0.3996
   39POPC  H13R 5246   3.189   1.853   7.560 -1.5414  0.4240 -2.4179
   39POPC  H13S 5247   3.115   1.690   7.573 -0.4425 -0.3750 -0.9675
   39POPC  C214 5248   3.129   1.802   7.762 -0.1492  0.3569 -0.2481
   39POPC  H14R 5249   3.049   1.749   7.818  2.4894 -2.5411  1.0864
   39POPC  H14S 5250   3.125   1.910   7.789  2.0335  0.0255  1.7021
   39POPC  C215 5251   3.267   1.743   7.799 -0.4348 -1.1058 -0.5917
   39POPC  H15R 5252   3.343   1.806   7.746 -1.3484  0.7287  0.1879
   39POPC  H15S 5253   3.279   1.643   7.753  0.3828 -0.4976 -1.7781
   39POPC  C216 5254   3.301   1.746   7.948 -0.0386 -0.3619  0.1347
   39POPC  H16R 5255   3.217   1.701   8.005  0.6634 -2.0292 -0.0684
   39POPC  H16S 5256   3.313   1.851   7.981  1.8646 -0.1867 -0.9692
   39POPC  C217 5257   3.425   1.665   7.989  0.9836  0.1331 -0.7425
   39POPC  H17R 5258   3.513   1.713   7.941  0.8307  0.5866 -0.5690
   39POPC  H17S 5259   3.411   1.566   7.940 -2.3518  0.4754 -0.7179
   39POPC  C218 5260   3.433   1.648   8.139 -0.6454  0.7541 -0.2131
   39POPC  H18R 5261   3.504   1.567   8.165 -0.7614  0.8418  0.3902
   39POPC  H18S 5262   3.334   1.625   8.184  0.6488 -0.6714  2.1125
   39POPC  H18T 5263   3.472   1.744   8.179  3.2107 -0.1977 -1.1965
   39POPC   C33 5264   2.186   1.592   6.730  0.1288 -0.1538  0.3476
   39POPC   H3X 5265   2.155   1.485   6.723 -2.1345  0.3362  1.7148
   39POPC   H3Y 5266   2.131   1.636   6.644  1.3186 -0.2491 -0.4726
   39POPC   C34 5267   2.131   1.638   6.863  0.0713 -0.1687 -0.7026
   39POPC   H4X 5268   2.022   1.619   6.860  0.1424 -0.6208 -0.5511
   39POPC   H4Y 5269   2.138   1.748   6.871 -0.3029 -0.1357 -0.8658
   39POPC   C35 5270   2.168   1.558   6.996 -0.5512  0.6937  0.2875
   39POPC   H5X 5271   2.276   1.534   7.000 -0.6648 -0.1938 -1.1439
   39POPC   H5Y 5272   2.135   1.452   6.992 -0.0973  0.5737 -2.8534
   39POPC   C36 5273   2.116   1.617   7.129  0.8502  0.1729 -0.1692
   39POPC   H6X 5274   2.013   1.658   7.124  0.6195 -0.3701  0.0356
   39POPC   H6Y 5275   2.180   1.706   7.148  1.9336 -0.5848 -0.1763
   39POPC   C37 5276   2.151   1.528   7.252  0.6433  0.2213  0.7019
   39POPC   H7X 5277   2.261   1.516   7.254  0.4218 -2.3584  0.6142
   39POPC   H7Y 5278   2.108   1.429   7.226 -0.0952  0.6488  0.2612
   39POPC   C38 5279   2.089   1.580   7.376  0.2571 -0.1831 -0.6309
   39POPC   H8X 5280   1.983   1.547   7.389  1.0852 -2.1193  2.0954
   39POPC   H8Y 5281   2.075   1.688   7.355 -3.7018 -0.2679  0.7502
   39POPC   C39 5282   2.171   1.548   7.503 -0.4458 -0.4751  0.2920
   39POPC   H9X 5283   2.262   1.612   7.513 -1.3641  0.7422  1.0992
   39POPC   H9Y 5284   2.206   1.443   7.500  1.1630 -0.0051  1.0177
   39POPC  C310 5285   2.089   1.576   7.632 -0.3986  0.1858 -0.1360
   39POPC  H10X 5286   2.013   1.495   7.645  2.1473 -2.0836  1.6864
   39POPC  H10Y 5287   2.022   1.665   7.632  0.4480  0.8289  0.3306
   39POPC  C311 5288   2.180   1.553   7.749 -0.1501 -0.2746 -0.4145
   39POPC  H11X 5289   2.268   1.621   7.747 -0.2877  0.4912  4.7931
   39POPC  H11Y 5290   2.206   1.445   7.752  0.3184 -0.2519 -2.3303
   39POPC  C312 5291   2.100   1.586   7.876 -0.6774  0.5599  0.1774
   39POPC  H12X 5292   2.012   1.518   7.874 -0.5523  0.4179 -1.6038
   39POPC  H12Y 5293   2.061   1.689   7.855  1.0667  1.0227 -0.9692
   39POPC  C313 5294   2.178   1.574   8.006  0.4536  0.0926 -0.1485
   39POPC  H13X 5295   2.262   1.647   8.011  0.3546  0.1439  1.3807
   39POPC  H13Y 5296   2.220   1.472   8.020  0.6247  0.1176 -0.4647
   39POPC  C314 5297   2.081   1.584   8.126  0.5872  0.1061 -0.1386
   39POPC  H14X 5298   1.995   1.514   8.123  0.3548  0.3115  1.2081
   39POPC  H14Y 5299   2.028   1.681   8.143 -3.2012 -1.3169 -2.3858
   39POPC  C315 5300   2.155   1.544   8.250  0.7933  0.7864  0.4593
   39POPC  H15X 5301   2.222   1.457   8.228 -1.1531 -0.7383  0.2941
   39POPC  H15Y 5302   2.079   1.509   8.324  1.0083 -1.4723 -0.3207
   39POPC  C316 5303   2.230   1.650   8.330  0.3648  0.0454  0.4303
   39POPC  H16X 5304   2.168   1.731   8.375  0.1481  1.0795 -1.5740
   39POPC  H16Y 5305   2.296   1.706   8.260 -0.7137 -0.9386 -1.4545
   39POPC  H16Z 5306   2.286   1.600   8.412  1.8858  0.0434 -0.5673
   40POPC     N 5307   0.179   6.392   5.935  0.0682 -0.5285  0.2056
   40POPC   C12 5308   0.155   6.396   6.085  0.1034  0.1155  0.0142
   40POPC  H12A 5309   0.165   6.498   6.118 -1.1014  0.2133  0.1246
   40POPC  H12B 5310   0.233   6.341   6.137 -1.0926 -1.3236  0.3597
   40POPC   C13 5311   0.079   6.473   5.854 -0.5871  1.0816 -0.5226
   40POPC  H13A 5312  -0.017   6.434   5.882 -0.1091  0.4871  0.3546
   40POPC  H13B 5313   0.069   6.579   5.871 -0.0071  0.8239  1.8038
   40POPC  H13C 5314   0.090   6.474   5.746 -0.0325  1.4163 -0.4699
   40POPC   C14 5315   0.319   6.435   5.911 -0.0764 -0.6096 -0.5168
   40POPC  H14A 5316   0.336   6.533   5.954 -0.5488 -0.2973 -1.0266
   40POPC  H14B 5317   0.392   6.362   5.945  0.9048  0.6621  0.2352
   40POPC  H14C 5318   0.327   6.455   5.805 -1.2338 -0.8453 -0.6623
   40POPC   C15 5319   0.168   6.248   5.889 -0.1454 -0.3550 -0.2784
   40POPC  H15A 5320   0.072   6.208   5.920 -0.2667 -0.2707 -0.5511
   40POPC  H15B 5321   0.244   6.186   5.935 -2.1545 -2.1752  0.8083
   40POPC  H15C 5322   0.178   6.237   5.783 -1.0259 -2.3060 -0.2093
   40POPC   C11 5323   0.018   6.363   6.148 -0.1564  0.1542  0.2633
   40POPC  H11A 5324   0.021   6.363   6.259 -1.0056 -0.5077  0.3021
   40POPC  H11B 5325  -0.009   6.261   6.114  1.3511 -0.2717  0.2540
   40POPC     P 5326  -0.087   6.601   6.153  0.0856  0.2030  0.3009
   40POPC   O13 5327  -0.228   6.640   6.135  0.2988  0.0232  0.4241
   40POPC   O14 5328   0.013   6.685   6.085  0.6248  0.1437 -0.4458
   40POPC   O12 5329  -0.082   6.446   6.103  0.1404  0.2020  0.4029
   40POPC   O11 5330  -0.061   6.590   6.307  0.1893  0.2510 -0.2297
   40POPC    C1 5331  -0.161   6.546   6.397  0.0998  0.1579 -0.4931
   40POPC    HA 5332  -0.181   6.438   6.376  0.8873  0.1646 -1.3270
   40POPC    HB 5333  -0.255   6.603   6.387  0.5884  1.0760  0.0673
   40POPC    C2 5334  -0.096   6.556   6.543  0.0868  0.8960 -0.5659
   40POPC    HS 5335  -0.146   6.487   6.615 -1.1348 -0.5823 -2.7054
   40POPC   O21 5336  -0.105   6.692   6.598 -0.2054  0.0085  0.2787
   40POPC   C21 5337  -0.227   6.732   6.613 -0.5831  0.0952 -0.7474
   40POPC   O22 5338  -0.332   6.671   6.603 -0.5549  0.3998  0.3720
   40POPC   C22 5339  -0.224   6.871   6.680 -0.3398 -0.9569 -0.2386
   40POPC   H2R 5340  -0.284   6.938   6.615  2.9569 -0.1239 -2.6518
   40POPC   H2S 5341  -0.120   6.910   6.688 -0.9803  0.8266 -0.0567
   40POPC    C3 5342   0.058   6.522   6.540  0.2567 -0.0842  0.0978
   40POPC    HX 5343   0.088   6.599   6.466 -1.1709  0.7573  0.3602
   40POPC    HY 5344   0.067   6.415   6.509  0.5778 -0.6337  1.9614
   40POPC   O31 5345   0.122   6.551   6.670 -0.0410 -0.5865 -0.3659
   40POPC   C31 5346   0.135   6.447   6.746 -0.5661 -0.3580 -0.2085
   40POPC   O32 5347   0.119   6.326   6.717 -0.1683  0.0324  0.3455
   40POPC   C32 5348   0.194   6.487   6.884 -0.1910  0.9734 -0.3589
   40POPC   H2X 5349   0.150   6.585   6.913 -1.8427 -0.4807  2.5416
   40POPC   H2Y 5350   0.302   6.485   6.861  0.1469 -0.2435  1.1793
   40POPC   C23 5351  -0.304   6.866   6.818  0.6475 -0.5793  0.9355
   40POPC   H3R 5352  -0.407   6.829   6.796  0.5108 -0.2172  0.9573
   40POPC   H3S 5353  -0.315   6.971   6.853  0.6691  0.7467 -2.6285
   40POPC   C24 5354  -0.251   6.772   6.919  0.3039  0.1555  0.4235
   40POPC   H4R 5355  -0.244   6.673   6.870  2.3741  0.5277 -0.1703
   40POPC   H4S 5356  -0.305   6.764   7.015  1.1819  1.9262  1.1146
   40POPC   C25 5357  -0.106   6.804   6.969 -0.3308  0.2907 -0.5177
   40POPC   H5R 5358  -0.103   6.910   7.003 -0.3905  0.3878 -0.8108
   40POPC   H5S 5359  -0.031   6.802   6.887  2.0632 -1.5291  1.5671
   40POPC   C26 5360  -0.062   6.718   7.087  0.1100  0.1249  0.0308
   40POPC   H6R 5361   0.047   6.731   7.103  0.2924  1.5243 -2.0946
   40POPC   H6S 5362  -0.085   6.610   7.074 -0.8171  0.0895  1.6817
   40POPC   C27 5363  -0.141   6.752   7.211  0.0933 -0.3867 -0.3719
   40POPC   H7R 5364  -0.245   6.713   7.217 -0.6833  1.5766 -0.2130
   40POPC   H7S 5365  -0.141   6.861   7.235 -1.4358 -0.7882  1.6969
   40POPC   C28 5366  -0.093   6.689   7.344 -0.2431  0.0031  0.7492
   40POPC   H8R 5367  -0.075   6.584   7.311  2.6955  0.5256  0.4001
   40POPC   H8S 5368  -0.172   6.699   7.421 -0.3558  1.8744  0.4236
   40POPC   C29 5369   0.035   6.740   7.401 -0.4057  0.5064 -0.4953
   40POPC   H91 5370   0.127   6.750   7.341  0.3357 -1.7595  0.1508
   40POPC  C210 5371   0.049   6.778   7.529 -0.4485 -0.6659  0.0502
   40POPC  H101 5372   0.153   6.811   7.544 -0.0429 -1.7316 -0.3808
   40POPC  C211 5373  -0.055   6.793   7.645  0.1267  0.6507  0.0841
   40POPC  H11R 5374  -0.160   6.788   7.608  0.3407  1.4231 -0.6614
   40POPC  H11S 5375  -0.035   6.896   7.681 -3.3549  1.6218 -0.3841
   40POPC  C212 5376  -0.038   6.699   7.765  0.0523 -0.0452  0.0899
   40POPC  H12R 5377  -0.068   6.597   7.733  1.2070 -1.0469  2.0315
   40POPC  H12S 5378  -0.101   6.730   7.852 -0.1501  1.1144 -0.4487
   40POPC  C213 5379   0.116   6.696   7.814 -0.0413  0.1807  0.0534
   40POPC  H13R 5380   0.149   6.798   7.842 -2.9285  0.6315  2.1946
   40POPC  H13S 5381   0.187   6.664   7.734  1.2707  0.6272  1.0105
   40POPC  C214 5382   0.127   6.609   7.942 -0.0490 -0.2115  0.1449
   40POPC  H14R 5383   0.236   6.594   7.957 -0.1613 -3.2676 -1.2646
   40POPC  H14S 5384   0.070   6.515   7.923 -0.8070  0.2413  0.1146
   40POPC  C215 5385   0.067   6.679   8.073 -0.5289  0.3185  0.5578
   40POPC  H15R 5386  -0.042   6.688   8.054 -0.2235  1.5811 -0.7987
   40POPC  H15S 5387   0.118   6.777   8.089 -0.6468  0.4851 -0.0759
   40POPC  C216 5388   0.092   6.591   8.197  0.6206  0.0140  0.8558
   40POPC  H16R 5389   0.202   6.576   8.195  0.5456 -1.4201 -3.2353
   40POPC  H16S 5390   0.041   6.494   8.176  0.6210 -0.3157  2.3116
   40POPC  C217 5391   0.041   6.654   8.327  0.6695 -0.4083 -0.4024
   40POPC  H17R 5392  -0.056   6.708   8.321  1.0146  0.2313 -0.3866
   40POPC  H17S 5393   0.107   6.738   8.359 -2.0855  1.3883  1.0008
   40POPC  C218 5394   0.026   6.560   8.452 -0.3077 -0.2532 -0.0024
   40POPC  H18R 5395   0.011   6.608   8.551 -2.5349 -1.9177  0.5489
   40POPC  H18S 5396   0.116   6.497   8.471  0.1152  0.9805  2.5558
   40POPC  H18T 5397  -0.055   6.484   8.446  0.3891 -0.9607 -0.8287
   40POPC   C33 5398   0.158   6.386   7.000 -0.1704  0.3468 -0.1490
   40POPC   H3X 5399   0.142   6.283   6.959 -0.4220  0.6114 -0.7304
   40POPC   H3Y 5400   0.062   6.408   7.051 -0.5282  0.4838 -0.8608
   40POPC   C34 5401   0.258   6.391   7.118 -0.0765 -0.0571 -0.0643
   40POPC   H4X 5402   0.360   6.399   7.074 -0.1002 -3.6926 -1.0712
   40POPC   H4Y 5403   0.248   6.293   7.168 -0.2239  1.4434  3.0557
   40POPC   C35 5404   0.229   6.496   7.225 -0.3517  0.4186 -0.0508
   40POPC   H5X 5405   0.130   6.481   7.273 -0.0846 -0.3199  0.2751
   40POPC   H5Y 5406   0.215   6.593   7.173  1.7412  0.5883 -0.3635
   40POPC   C36 5407   0.328   6.510   7.336 -0.9989  0.8512 -0.8673
   40POPC   H6X 5408   0.344   6.615   7.371  0.7240  0.4042 -0.1886
   40POPC   H6Y 5409   0.428   6.474   7.305 -1.2591 -2.3955  1.5175
   40POPC   C37 5410   0.304   6.419   7.461 -0.4727  0.0113 -0.1166
   40POPC   H7X 5411   0.295   6.313   7.429 -2.3272  0.3703 -0.9436
   40POPC   H7Y 5412   0.203   6.453   7.493 -0.4151  1.0408 -0.9725
   40POPC   C38 5413   0.409   6.430   7.573  0.2917 -0.8182  0.4376
   40POPC   H8X 5414   0.398   6.519   7.638  1.6895 -1.2556  1.3398
   40POPC   H8Y 5415   0.508   6.400   7.532  0.3560  0.1582 -0.1285
   40POPC   C39 5416   0.385   6.326   7.688  0.4932 -0.5094 -0.7268
   40POPC   H9X 5417   0.368   6.229   7.637  1.3078 -0.1691 -1.6899
   40POPC   H9Y 5418   0.294   6.355   7.745  0.5940 -0.8648 -0.3811
   40POPC  C310 5419   0.497   6.314   7.793  0.3035 -0.2198  0.0015
   40POPC  H10X 5420   0.592   6.360   7.758  0.1552 -0.1322 -0.2922
   40POPC  H10Y 5421   0.529   6.208   7.790  0.9471 -0.0142 -0.5066
   40POPC  C311 5422   0.464   6.345   7.941  0.4370 -0.0684  0.4257
   40POPC  H11X 5423   0.412   6.443   7.946 -0.6642 -0.6697  1.2846
   40POPC  H11Y 5424   0.568   6.357   7.979  2.4004 -4.7533 -2.4947
   40POPC  C312 5425   0.386   6.239   8.017  0.1639  0.7176 -0.2199
   40POPC  H12X 5426   0.436   6.142   8.034  0.4363  0.5333 -1.9365
   40POPC  H12Y 5427   0.297   6.219   7.954 -2.0961  2.2804  2.2372
   40POPC  C313 5428   0.328   6.294   8.149 -0.1860 -0.9751 -0.1289
   40POPC  H13X 5429   0.238   6.237   8.180  0.6693 -2.7865 -0.8123
   40POPC  H13Y 5430   0.286   6.396   8.131 -0.6069 -0.6202  2.4813
   40POPC  C314 5431   0.437   6.300   8.259  0.2514 -0.0566  0.6259
   40POPC  H14X 5432   0.401   6.318   8.363  2.2636 -0.1348  1.4035
   40POPC  H14Y 5433   0.515   6.375   8.231  0.5221 -0.4117  0.4245
   40POPC  C315 5434   0.521   6.170   8.278 -0.2348 -0.1379 -0.1014
   40POPC  H15X 5435   0.591   6.187   8.362 -0.0114 -3.4167  0.4700
   40POPC  H15Y 5436   0.586   6.142   8.192 -0.9796 -2.1607 -0.0412
   40POPC  C316 5437   0.446   6.043   8.323  0.4786 -0.0274  0.1489
   40POPC  H16X 5438   0.380   6.067   8.409 -2.1592 -1.2024 -1.4193
   40POPC  H16Y 5439   0.515   5.958   8.344  2.4776  0.8694 -2.2940
   40POPC  H16Z 5440   0.372   5.993   8.257  0.1579 -0.6059  0.9387
   41CHL1    C3 5441   0.308   3.882  10.033  0.1924  1.0009 -0.0297
   41CHL1    H3 5442   0.406   3.913   9.990  1.0860 -0.3714  0.9247
   41CHL1    O3 5443   0.336   3.853  10.169  0.0311  0.8388 -0.1451
   41CHL1   H3' 5444   0.257   3.832  10.219 -0.0775  2.0501  0.2222
   41CHL1    C4 5445   0.205   3.995  10.015 -0.6358  0.5155  0.8355
   41CHL1   H4A 5446   0.114   3.959  10.068  0.2483 -1.4901  1.1045
   41CHL1   H4B 5447   0.247   4.091  10.052  1.0400 -0.0280  0.4306
   41CHL1    C5 5448   0.171   4.015   9.870  0.0463  0.4732  0.1341
   41CHL1    C6 5449   0.179   4.138   9.812 -0.4220 -0.6797 -0.0404
   41CHL1    H6 5450   0.210   4.224   9.874  2.1787 -2.5633  1.4749
   41CHL1    C7 5451   0.135   4.167   9.673 -0.7600 -0.0037 -0.2286
   41CHL1   H7A 5452   0.061   4.249   9.668 -0.4310  0.6228  3.3177
   41CHL1   H7B 5453   0.230   4.198   9.623  0.9325 -0.2085  2.6388
   41CHL1    C8 5454   0.070   4.041   9.608 -0.2123 -0.1723  0.0937
   41CHL1    H8 5455  -0.036   4.033   9.640  0.5483 -1.9232  2.5660
   41CHL1   C14 5456   0.070   4.062   9.453 -0.7856 -0.1007  0.0894
   41CHL1   H14 5457   0.177   4.064   9.424 -0.6928 -1.3088  0.2810
   41CHL1   C15 5458   0.014   4.204   9.401 -0.3272  0.3796  0.0301
   41CHL1  H15A 5459  -0.082   4.209   9.456  0.2338 -1.1859  1.2374
   41CHL1  H15B 5460   0.080   4.290   9.428 -0.1473  0.6117 -1.0897
   41CHL1   C16 5461  -0.014   4.179   9.254 -0.3403 -0.5433 -0.0148
   41CHL1  H16A 5462  -0.114   4.215   9.222 -0.6402  0.2581  1.6959
   41CHL1  H16B 5463   0.067   4.237   9.205 -1.9482  0.0842 -2.0756
   41CHL1   C17 5464   0.002   4.020   9.233 -0.0586 -0.0514  0.6435
   41CHL1   H17 5465   0.108   3.997   9.205 -0.4120 -1.2431  0.1896
   41CHL1   C13 5466  -0.006   3.960   9.374  0.1915  0.2965  0.0972
   41CHL1   C18 5467  -0.152   3.954   9.424 -0.4338  0.2085 -0.0133
   41CHL1  H18A 5468  -0.154   3.932   9.533  1.0154 -1.9549 -0.3445
   41CHL1  H18B 5469  -0.203   4.051   9.407 -2.6001 -1.1433 -1.7727
   41CHL1  H18C 5470  -0.208   3.873   9.373 -0.9570 -0.5027  1.5975
   41CHL1   C12 5471   0.079   3.829   9.403 -0.2240 -0.4876  0.0750
   41CHL1  H12A 5472   0.021   3.743   9.365  1.2225 -1.0231 -0.9936
   41CHL1  H12B 5473   0.176   3.836   9.349 -0.7777 -0.8855 -0.9868
   41CHL1   C11 5474   0.097   3.788   9.554  0.1992  0.5452 -0.1665
   41CHL1  H11A 5475   0.006   3.745   9.601  0.5998  0.4101  0.4986
   41CHL1  H11B 5476   0.173   3.707   9.560  0.8108  1.1353  0.2262
   41CHL1    C9 5477   0.142   3.910   9.644  0.4343 -0.5753  0.5491
   41CHL1    H9 5478   0.246   3.938   9.616  0.0780  2.1338  1.5727
   41CHL1   C10 5479   0.138   3.883   9.791  0.3009 -0.6674 -0.3180
   41CHL1   C19 5480  -0.003   3.843   9.837  0.0056  0.4203 -0.2293
   41CHL1  H19A 5481  -0.002   3.821   9.946  0.8976 -0.3733 -0.3775
   41CHL1  H19B 5482  -0.069   3.927   9.808 -0.3586  0.9598  1.9416
   41CHL1  H19C 5483  -0.037   3.746   9.794  1.3048 -0.5921  0.9017
   41CHL1    C1 5484   0.250   3.774   9.820  0.0584  0.0907  0.3514
   41CHL1   H1A 5485   0.216   3.679   9.774  0.0293  0.5292 -0.5462
   41CHL1   H1B 5486   0.346   3.802   9.773  0.0878 -0.0023  0.3561
   41CHL1    C2 5487   0.277   3.753   9.971 -0.0658  0.7148 -0.3893
   41CHL1   H2A 5488   0.358   3.678   9.982 -0.6442  0.2081  0.5983
   41CHL1   H2B 5489   0.184   3.709  10.012  1.5589 -2.3036  0.3671
   41CHL1   C20 5490  -0.093   3.969   9.129  0.4993 -0.7706  0.7278
   41CHL1   H20 5491  -0.197   3.989   9.164  0.8492 -0.7079  1.7889
   41CHL1   C21 5492  -0.062   3.818   9.116  0.5657 -0.0974  0.3706
   41CHL1  H21A 5493  -0.105   3.748   9.191  0.9139  0.6056  1.2403
   41CHL1  H21B 5494   0.044   3.788   9.099  0.9497  0.9615  0.7913
   41CHL1  H21C 5495  -0.113   3.793   9.021 -4.3697  1.6033  2.2598
   41CHL1   C22 5496  -0.071   4.042   8.998  0.1771  0.2312  1.1698
   41CHL1  H22A 5497  -0.132   3.989   8.922  0.9882  1.5777 -0.4757
   41CHL1  H22B 5498  -0.119   4.142   8.999 -0.4870  0.0465 -1.9686
   41CHL1   C23 5499   0.077   4.057   8.951 -0.6647 -0.9042  1.1076
   41CHL1  H23A 5500   0.130   4.127   9.019  0.7775 -0.5166 -0.3591
   41CHL1  H23B 5501   0.124   3.958   8.970 -0.1112 -0.7610  0.5275
   41CHL1   C24 5502   0.073   4.121   8.807  0.2271 -0.3456 -0.8780
   41CHL1  H24A 5503   0.175   4.119   8.764 -0.5908  0.1697 -2.9397
   41CHL1  H24B 5504   0.014   4.052   8.742 -1.3848  0.5140 -0.3920
   41CHL1   C25 5505   0.013   4.263   8.793 -0.5274  0.0934 -0.2416
   41CHL1   H25 5506  -0.092   4.253   8.827 -0.2816  1.3175  0.9387
   41CHL1   C26 5507   0.073   4.377   8.877  0.5221 -0.1587  0.0601
   41CHL1  H26A 5508   0.028   4.472   8.841 -1.7393 -0.8872  0.8216
   41CHL1  H26B 5509   0.044   4.363   8.983 -0.1468  1.4151  0.1114
   41CHL1  H26C 5510   0.184   4.387   8.872  0.7547 -2.4324 -0.3023
   41CHL1   C27 5511   0.021   4.300   8.642 -0.1732 -0.3578 -0.7380
   41CHL1  H27A 5512  -0.039   4.226   8.586  0.5267 -0.9275 -0.7409
   41CHL1  H27B 5513  -0.009   4.406   8.627  0.3090 -0.0269  0.4800
   41CHL1  H27C 5514   0.126   4.300   8.608  0.6361 -1.0100  1.5443
   42CHL1    C3 5515   6.557   2.532   9.754 -0.2606 -0.0324 -0.1472
   42CHL1    H3 5516   6.452   2.510   9.783  0.3385 -2.5362  0.3323
   42CHL1    O3 5517   6.629   2.558   9.873 -0.3203  0.3127  0.1705
   42CHL1   H3' 5518   6.597   2.644   9.901 -2.1790 -0.4646  0.5833
   42CHL1    C4 5519   6.607   2.405   9.688 -1.2248 -0.3750 -1.0416
   42CHL1   H4A 5520   6.717   2.425   9.689 -1.5838  1.8286  1.0923
   42CHL1   H4B 5521   6.583   2.316   9.751 -1.1514  1.5965  1.9474
   42CHL1    C5 5522   6.554   2.376   9.548 -0.5144  0.9477  0.2620
   42CHL1    C6 5523   6.497   2.255   9.516 -0.8479  0.3588  0.2791
   42CHL1    H6 5524   6.487   2.179   9.594 -1.7923 -1.6087 -1.6610
   42CHL1    C7 5525   6.437   2.227   9.381  0.2776  0.2500  0.4372
   42CHL1   H7A 5526   6.448   2.121   9.346 -0.4583  0.9312 -2.0740
   42CHL1   H7B 5527   6.326   2.236   9.386  0.1612 -1.0285  0.6471
   42CHL1    C8 5528   6.486   2.328   9.270 -0.3883 -0.3106  0.0099
   42CHL1    H8 5529   6.592   2.304   9.246  0.0190 -0.0630  1.4971
   42CHL1   C14 5530   6.406   2.313   9.144 -0.0627 -0.8002  0.0603
   42CHL1   H14 5531   6.306   2.355   9.170  0.2404  0.6592 -0.9677
   42CHL1   C15 5532   6.367   2.174   9.085 -1.1511 -0.5274 -1.1141
   42CHL1  H15A 5533   6.455   2.106   9.087  0.0581  1.0115 -0.7511
   42CHL1  H15B 5534   6.294   2.128   9.156  0.3149 -0.2429  0.6397
   42CHL1   C16 5535   6.320   2.210   8.944 -0.2545 -0.1626  0.6317
   42CHL1  H16A 5536   6.391   2.148   8.885  2.6617  1.7928  1.8577
   42CHL1  H16B 5537   6.217   2.178   8.916 -0.2490 -0.1033  0.5423
   42CHL1   C17 5538   6.342   2.365   8.930  0.1973  1.1878  0.4264
   42CHL1   H17 5539   6.254   2.418   8.972 -0.2717  1.8727 -1.3342
   42CHL1   C13 5540   6.453   2.395   9.030 -0.2320 -0.9331  0.3588
   42CHL1   C18 5541   6.600   2.366   8.971 -0.3929 -0.3937 -0.2448
   42CHL1  H18A 5542   6.600   2.264   8.928 -1.9548  0.6564 -3.1071
   42CHL1  H18B 5543   6.619   2.435   8.885 -0.1458 -1.3164 -0.9400
   42CHL1  H18C 5544   6.684   2.377   9.042 -0.7151  1.0602 -0.0421
   42CHL1   C12 5545   6.448   2.542   9.067  0.0787 -0.0338 -0.3297
   42CHL1  H12A 5546   6.482   2.604   8.982  0.0840 -1.9480 -1.8038
   42CHL1  H12B 5547   6.342   2.575   9.081 -0.7997 -2.9213  0.7748
   42CHL1   C11 5548   6.521   2.577   9.207 -0.6382 -0.7237  0.4134
   42CHL1  H11A 5549   6.629   2.568   9.183 -0.6453  0.0561  0.0467
   42CHL1  H11B 5550   6.507   2.681   9.245 -0.6995 -0.0252 -1.4524
   42CHL1    C9 5551   6.481   2.475   9.324  0.1397 -0.1507  0.0852
   42CHL1    H9 5552   6.376   2.497   9.352  0.2093 -0.3141  0.4829
   42CHL1   C10 5553   6.569   2.496   9.449 -0.0718  0.5314  0.0755
   42CHL1   C19 5554   6.720   2.510   9.410 -0.1364 -0.1670  1.4025
   42CHL1  H19A 5555   6.741   2.615   9.381  0.0978  0.2771  3.1108
   42CHL1  H19B 5556   6.787   2.489   9.495  1.2482 -0.9426  0.1584
   42CHL1  H19C 5557   6.737   2.435   9.330 -3.0825  0.7895 -0.2855
   42CHL1    C1 5558   6.519   2.624   9.515 -0.2184  0.0280  0.2211
   42CHL1   H1A 5559   6.545   2.715   9.456 -0.8553  1.4844  2.1102
   42CHL1   H1B 5560   6.409   2.615   9.518 -0.2729  0.7288  0.6317
   42CHL1    C2 5561   6.557   2.653   9.660  0.3608 -0.1600 -0.1482
   42CHL1   H2A 5562   6.506   2.744   9.696  0.8168  0.2962 -0.6367
   42CHL1   H2B 5563   6.663   2.685   9.657  0.1863  0.3829 -1.3313
   42CHL1   C20 5564   6.361   2.416   8.784  0.3069  0.0390  0.7119
   42CHL1   H20 5565   6.417   2.511   8.768 -1.6501  0.9283 -1.5211
   42CHL1   C21 5566   6.215   2.459   8.738 -1.4435  1.0228 -0.0963
   42CHL1  H21A 5567   6.158   2.363   8.742  1.2601 -0.7623 -1.3811
   42CHL1  H21B 5568   6.222   2.495   8.634 -0.7243 -0.6990 -0.6783
   42CHL1  H21C 5569   6.171   2.547   8.790  1.2576  3.4982 -1.7000
   42CHL1   C22 5570   6.423   2.320   8.679 -0.0217 -0.1083 -0.6025
   42CHL1  H22A 5571   6.515   2.274   8.720 -0.0641  1.7040  1.7799
   42CHL1  H22B 5572   6.344   2.243   8.669 -0.7581  0.5537 -0.0290
   42CHL1   C23 5573   6.465   2.372   8.540  0.0893  0.1330 -0.3401
   42CHL1  H23A 5574   6.372   2.380   8.480 -0.2044  0.3092  0.1349
   42CHL1  H23B 5575   6.502   2.477   8.544 -1.5880  0.7350  0.1857
   42CHL1   C24 5576   6.577   2.293   8.491 -0.4381  0.3060  0.7104
   42CHL1  H24A 5577   6.663   2.301   8.560  1.2821 -0.2077 -1.2782
   42CHL1  H24B 5578   6.556   2.184   8.489 -0.1036  0.2433  0.4655
   42CHL1   C25 5579   6.633   2.338   8.355  0.3059 -0.1760  0.0665
   42CHL1   H25 5580   6.715   2.269   8.328  0.2411 -0.2093 -0.0487
   42CHL1   C26 5581   6.531   2.326   8.240  0.1854  0.0485  0.0294
   42CHL1  H26A 5582   6.456   2.245   8.251 -0.6790  0.9210  0.7854
   42CHL1  H26B 5583   6.482   2.425   8.233 -0.2999 -0.1061  1.0324
   42CHL1  H26C 5584   6.598   2.316   8.152 -0.4381 -0.9777 -0.3415
   42CHL1   C27 5585   6.696   2.475   8.352 -0.1603 -0.1992  1.2805
   42CHL1  H27A 5586   6.737   2.497   8.251 -0.4880 -0.1341  1.1588
   42CHL1  H27B 5587   6.630   2.560   8.380  0.3724  1.8707 -2.9909
   42CHL1  H27C 5588   6.782   2.482   8.422  1.2844 -0.9448 -0.3279
   43CHL1    C3 5589   5.689   2.922   9.944  0.2187 -0.1489  0.0844
   43CHL1    H3 5590   5.680   2.814   9.924  0.5137 -0.0382 -0.6947
   43CHL1    O3 5591   5.738   2.932  10.074 -0.1470  0.2385 -0.1048
   43CHL1   H3' 5592   5.753   3.026  10.083 -1.1587  0.2852  1.5629
   43CHL1    C4 5593   5.786   3.000   9.854  0.1373  0.6192  0.3430
   43CHL1   H4A 5594   5.803   3.100   9.899  1.9192  0.6272 -0.2624
   43CHL1   H4B 5595   5.882   2.944   9.860  0.3272  0.9210  0.1326
   43CHL1    C5 5596   5.745   3.017   9.711  0.0931  0.5391  0.0816
   43CHL1    C6 5597   5.817   2.973   9.612 -0.4940 -0.0156  1.0190
   43CHL1    H6 5598   5.910   2.917   9.632 -1.2955 -1.1594  1.6790
   43CHL1    C7 5599   5.777   2.985   9.466 -0.3862  0.1710  0.8961
   43CHL1   H7A 5600   5.856   3.047   9.418 -1.7745  0.1648 -1.5126
   43CHL1   H7B 5601   5.760   2.886   9.419 -1.5294  0.6408  0.2844
   43CHL1    C8 5602   5.644   3.068   9.440  0.8002 -0.0041 -0.6990
   43CHL1    H8 5603   5.672   3.175   9.446  1.4888 -0.1652 -0.9732
   43CHL1   C14 5604   5.586   3.037   9.308  0.2207 -0.1848  0.2216
   43CHL1   H14 5605   5.556   2.930   9.307  3.1133 -1.0777 -0.0419
   43CHL1   C15 5606   5.682   3.047   9.187 -0.0978  1.1934  0.7866
   43CHL1  H15A 5607   5.764   3.120   9.205  2.9372 -0.8633 -3.1010
   43CHL1  H15B 5608   5.721   2.948   9.155  0.0344  0.3523  3.3422
   43CHL1   C16 5609   5.589   3.085   9.071 -0.3435 -0.6403  0.3467
   43CHL1  H16A 5610   5.630   3.182   9.036  1.5303 -0.4743  2.7549
   43CHL1  H16B 5611   5.596   3.016   8.984  1.0217  1.3567 -1.2112
   43CHL1   C17 5612   5.440   3.086   9.121 -0.0420  0.0191 -0.0674
   43CHL1   H17 5613   5.415   2.978   9.126  1.4272 -0.3100  0.8474
   43CHL1   C13 5614   5.460   3.122   9.268  0.0227  0.0563  0.3067
   43CHL1   C18 5615   5.491   3.272   9.264  0.5282  0.3764 -0.5372
   43CHL1  H18A 5616   5.560   3.299   9.181  1.2595 -2.7946 -1.1066
   43CHL1  H18B 5617   5.399   3.333   9.256  0.2579 -0.2168 -2.5782
   43CHL1  H18C 5618   5.539   3.302   9.360  3.4928 -0.4501 -1.6432
   43CHL1   C12 5619   5.351   3.106   9.368  0.1416  0.1686 -0.1354
   43CHL1  H12A 5620   5.278   3.188   9.351  0.8997  1.1081  0.9456
   43CHL1  H12B 5621   5.293   3.016   9.339  2.4555 -1.1652 -0.8864
   43CHL1   C11 5622   5.412   3.118   9.511 -0.0345 -0.7674  0.6038
   43CHL1  H11A 5623   5.408   3.226   9.538 -0.1583 -0.4798 -0.5193
   43CHL1  H11B 5624   5.337   3.070   9.578  1.7637 -2.4138  1.5196
   43CHL1    C9 5625   5.540   3.040   9.546 -0.5611 -0.8583  0.0874
   43CHL1    H9 5626   5.514   2.933   9.536 -2.2648 -0.4376 -0.2988
   43CHL1   C10 5627   5.605   3.066   9.687 -0.4323 -0.4504  0.2777
   43CHL1   C19 5628   5.601   3.225   9.705  0.4724 -0.1627 -0.6672
   43CHL1  H19A 5629   5.647   3.256   9.801 -1.7514  0.7837  0.1769
   43CHL1  H19B 5630   5.654   3.270   9.618  0.9577 -0.0685 -0.3265
   43CHL1  H19C 5631   5.497   3.257   9.727  1.1963 -0.1868  3.6581
   43CHL1    C1 5632   5.507   3.004   9.793  0.0734 -0.1599 -0.4500
   43CHL1   H1A 5633   5.406   3.050   9.802 -0.9914 -2.3263 -0.6217
   43CHL1   H1B 5634   5.478   2.907   9.747 -1.2868 -0.0488  0.1071
   43CHL1    C2 5635   5.550   2.985   9.939 -0.0632 -0.7966 -0.1486
   43CHL1   H2A 5636   5.490   2.923  10.008 -1.9909 -0.3100 -1.3199
   43CHL1   H2B 5637   5.564   3.086   9.984 -0.0689  0.0704 -1.9549
   43CHL1   C20 5638   5.353   3.163   9.029  0.5709 -0.2629 -0.5352
   43CHL1   H20 5639   5.392   3.265   9.009 -0.2500  1.3250  4.4257
   43CHL1   C21 5640   5.206   3.164   9.081 -0.4180 -0.7532 -0.1970
   43CHL1  H21A 5641   5.159   3.065   9.095 -0.5515 -0.7900 -0.8729
   43CHL1  H21B 5642   5.138   3.214   9.010 -0.8339 -0.5398  0.3498
   43CHL1  H21C 5643   5.198   3.221   9.176 -3.2143 -1.8686  0.3298
   43CHL1   C22 5644   5.367   3.102   8.888  0.5259 -0.5120  0.3060
   43CHL1  H22A 5645   5.468   3.100   8.843  1.1199 -0.2545  1.6083
   43CHL1  H22B 5646   5.324   2.999   8.894 -0.5353 -0.0468  0.9933
   43CHL1   C23 5647   5.272   3.169   8.786  0.3533  0.2820 -0.6795
   43CHL1  H23A 5648   5.164   3.147   8.802  0.0538  1.6899 -0.6124
   43CHL1  H23B 5649   5.281   3.279   8.798 -1.4528  0.5462 -1.4016
   43CHL1   C24 5650   5.291   3.121   8.641 -0.0020  0.3621  0.0190
   43CHL1  H24A 5651   5.399   3.124   8.617 -0.4810 -0.9935 -2.6944
   43CHL1  H24B 5652   5.265   3.014   8.629  0.2373  0.5251 -2.4055
   43CHL1   C25 5653   5.220   3.205   8.525  0.5288  0.4248 -0.0313
   43CHL1   H25 5654   5.250   3.311   8.538 -3.1000  1.6421 -0.5856
   43CHL1   C26 5655   5.267   3.155   8.384 -0.4348  0.3555 -0.1446
   43CHL1  H26A 5656   5.378   3.159   8.381 -0.4884  1.5172 -1.6335
   43CHL1  H26B 5657   5.242   3.049   8.362  0.4731 -0.0502  0.6979
   43CHL1  H26C 5658   5.219   3.223   8.312 -3.6408 -0.5356  1.0042
   43CHL1   C27 5659   5.062   3.200   8.530 -0.9413  0.2232  0.5576
   43CHL1  H27A 5660   5.029   3.255   8.621 -2.3440 -1.2338  0.9804
   43CHL1  H27B 5661   5.018   3.244   8.438 -3.0252 -0.3528  1.2268
   43CHL1  H27C 5662   5.016   3.099   8.541 -0.9653  0.4093  2.3817
   44CHL1    C3 5663   0.670   4.193  10.119  0.1110 -0.3759 -0.2704
   44CHL1    H3 5664   0.693   4.084  10.115  0.5994 -0.2499 -1.0864
   44CHL1    O3 5665   0.679   4.226  10.262  0.2298 -0.0662  0.4129
   44CHL1   H3' 5666   0.652   4.318  10.270  1.2078  0.2796 -0.0697
   44CHL1    C4 5667   0.770   4.279  10.045 -0.0759  0.1850  0.6271
   44CHL1   H4A 5668   0.776   4.381  10.087  2.4087 -0.6237  2.4593
   44CHL1   H4B 5669   0.870   4.244  10.078 -0.2941 -0.2143  0.8750
   44CHL1    C5 5670   0.748   4.269   9.897  0.8898 -0.0647 -0.3293
   44CHL1    C6 5671   0.845   4.219   9.817  0.5134 -0.4874  0.3252
   44CHL1    H6 5672   0.943   4.177   9.846  0.7852 -1.5331 -1.8732
   44CHL1    C7 5673   0.824   4.206   9.672  0.6117 -0.0589 -0.2224
   44CHL1   H7A 5674   0.916   4.233   9.616 -0.1762 -1.1432 -2.1247
   44CHL1   H7B 5675   0.806   4.101   9.643  0.0375  0.4206 -1.7009
   44CHL1    C8 5676   0.706   4.288   9.616  0.3882  0.0193  1.1961
   44CHL1    H8 5677   0.737   4.395   9.623  0.4244  0.1520 -0.4972
   44CHL1   C14 5678   0.674   4.245   9.470  0.0820  0.2499  0.3120
   44CHL1   H14 5679   0.645   4.139   9.479 -0.1518  0.4234  1.9946
   44CHL1   C15 5680   0.788   4.244   9.371 -0.4602 -0.1997 -0.2163
   44CHL1  H15A 5681   0.841   4.341   9.365 -0.6628 -0.0027  0.9304
   44CHL1  H15B 5682   0.859   4.165   9.403 -2.2001 -1.4763  0.6777
   44CHL1   C16 5683   0.726   4.221   9.234  0.3775  0.1431  0.4006
   44CHL1  H16A 5684   0.767   4.288   9.155 -1.2191 -0.9238 -1.4174
   44CHL1  H16B 5685   0.732   4.119   9.189  2.3220 -0.1006  1.1058
   44CHL1   C17 5686   0.571   4.257   9.256  0.3250  0.4204  0.0265
   44CHL1   H17 5687   0.514   4.161   9.259  0.8163 -0.0882 -3.2813
   44CHL1   C13 5688   0.562   4.318   9.397  0.8914 -0.2409  0.2562
   44CHL1   C18 5689   0.595   4.470   9.379 -0.4232 -0.0098 -0.4593
   44CHL1  H18A 5690   0.516   4.524   9.321  0.9963  0.4383 -2.0652
   44CHL1  H18B 5691   0.614   4.531   9.470  0.9936  0.4740 -1.0513
   44CHL1  H18C 5692   0.684   4.483   9.315 -0.3402  1.5025 -0.0670
   44CHL1   C12 5693   0.436   4.303   9.480  0.0993  0.1722 -0.5262
   44CHL1  H12A 5694   0.353   4.359   9.431  0.7772 -0.3853 -2.3828
   44CHL1  H12B 5695   0.405   4.197   9.476 -2.3581  0.7850  0.1929
   44CHL1   C11 5696   0.455   4.348   9.632  1.0674  0.5911  0.3884
   44CHL1  H11A 5697   0.473   4.457   9.619  1.4620  0.4884  0.0483
   44CHL1  H11B 5698   0.362   4.342   9.693  0.8856 -1.0309 -0.0008
   44CHL1    C9 5699   0.575   4.273   9.695 -0.1722 -0.4654  0.0658
   44CHL1    H9 5700   0.547   4.165   9.693  1.5369 -1.0607  2.9771
   44CHL1   C10 5701   0.605   4.309   9.842 -0.4059  0.3092 -0.2429
   44CHL1   C19 5702   0.571   4.460   9.866  0.3227  0.2433 -0.4841
   44CHL1  H19A 5703   0.581   4.479   9.975 -0.6181 -0.8374 -0.1865
   44CHL1  H19B 5704   0.642   4.525   9.809 -0.6819  0.9638 -0.9401
   44CHL1  H19C 5705   0.471   4.486   9.826  0.0464 -0.3523 -0.1895
   44CHL1    C1 5706   0.495   4.233   9.928 -0.2904 -0.1824  0.8638
   44CHL1   H1A 5707   0.396   4.277   9.903 -0.4381  0.1628  2.0111
   44CHL1   H1B 5708   0.490   4.129   9.889 -0.9148 -0.3415  1.3592
   44CHL1    C2 5709   0.524   4.230  10.081 -0.6170  0.5074 -0.1155
   44CHL1   H2A 5710   0.457   4.165  10.141 -1.1841  1.2333  0.0383
   44CHL1   H2B 5711   0.506   4.335  10.111 -0.6573  0.4845 -0.0590
   44CHL1   C20 5712   0.510   4.330   9.139  0.0728 -0.1225 -0.2059
   44CHL1   H20 5713   0.557   4.425   9.107 -0.2131  0.2793  0.5556
   44CHL1   C21 5714   0.363   4.342   9.159 -0.4233 -0.0963  0.6355
   44CHL1  H21A 5715   0.319   4.247   9.196  0.0778 -0.0450  1.3967
   44CHL1  H21B 5716   0.320   4.345   9.057 -1.3139 -1.3159  0.9515
   44CHL1  H21C 5717   0.333   4.419   9.233  1.0519 -0.8826  2.1335
   44CHL1   C22 5718   0.534   4.241   9.012  0.0498  0.4506 -0.5753
   44CHL1  H22A 5719   0.644   4.225   9.002 -0.2948 -3.1707  0.0226
   44CHL1  H22B 5720   0.485   4.142   9.020 -1.3694  1.1011 -0.9508
   44CHL1   C23 5721   0.487   4.297   8.874 -0.3984  0.1772 -0.4452
   44CHL1  H23A 5722   0.382   4.262   8.864 -0.8354  1.7965 -2.0873
   44CHL1  H23B 5723   0.487   4.409   8.878  0.9055  0.1905  3.1469
   44CHL1   C24 5724   0.557   4.237   8.752 -0.5861  0.1474 -0.6836
   44CHL1  H24A 5725   0.665   4.233   8.773 -0.7217 -1.2527 -0.1742
   44CHL1  H24B 5726   0.525   4.132   8.733  0.5788 -0.1248 -1.2232
   44CHL1   C25 5727   0.541   4.307   8.616  0.5260 -0.2801 -0.5241
   44CHL1   H25 5728   0.434   4.331   8.603 -0.1177 -2.5041  0.2965
   44CHL1   C26 5729   0.624   4.438   8.619  0.0643  0.9033 -0.5860
   44CHL1  H26A 5730   0.598   4.492   8.712  1.5843 -1.3025  1.2267
   44CHL1  H26B 5731   0.732   4.420   8.635  0.0748  0.2121 -1.3548
   44CHL1  H26C 5732   0.614   4.490   8.521  0.8711 -0.4641 -1.4292
   44CHL1   C27 5733   0.567   4.209   8.506  0.2434 -0.0944 -0.4366
   44CHL1  H27A 5734   0.552   4.265   8.411 -0.8548  3.4010  1.6108
   44CHL1  H27B 5735   0.670   4.167   8.512  0.5740  0.7878  0.4312
   44CHL1  H27C 5736   0.505   4.118   8.516  1.7210 -0.9384  1.8043
   45CHL1    C3 5737   4.072   1.787  10.195  0.5267  0.0635 -0.1652
   45CHL1    H3 5738   4.122   1.874  10.243 -0.9400 -0.2493  2.1280
   45CHL1    O3 5739   4.040   1.692  10.302 -0.4628  0.3032 -0.0806
   45CHL1   H3' 5740   3.992   1.749  10.362  0.5501  0.5331  0.5248
   45CHL1    C4 5741   3.941   1.830  10.130 -0.5572 -0.3493 -0.7334
   45CHL1   H4A 5742   3.872   1.743  10.126 -1.5620  0.4354 -1.0733
   45CHL1   H4B 5743   3.896   1.901  10.203  1.9686 -0.0077  0.5846
   45CHL1    C5 5744   3.964   1.905  10.000 -0.5255 -0.1908  0.0894
   45CHL1    C6 5745   3.910   2.027   9.970  0.5568 -0.3572 -0.0354
   45CHL1    H6 5746   3.849   2.084  10.041 -0.4984 -0.1753 -1.0600
   45CHL1    C7 5747   3.919   2.094   9.836 -0.1518 -0.1862 -0.0523
   45CHL1   H7A 5748   3.827   2.151   9.814 -0.7346  0.2109  2.9550
   45CHL1   H7B 5749   4.010   2.157   9.842  1.5025 -2.4478  0.0925
   45CHL1    C8 5750   3.968   1.990   9.725  0.2052  0.3341 -0.2426
   45CHL1    H8 5751   4.003   2.069   9.655 -0.9860  2.6516  1.6190
   45CHL1   C14 5752   3.858   1.919   9.649  0.1472  0.2745  0.3202
   45CHL1   H14 5753   3.810   1.857   9.728 -0.9604 -2.2554 -2.1978
   45CHL1   C15 5754   3.754   2.015   9.580 -0.1005  0.3035  0.2951
   45CHL1  H15A 5755   3.660   1.959   9.600  1.2607 -1.5497  1.9033
   45CHL1  H15B 5756   3.757   2.116   9.626  0.8378  0.7519 -0.7153
   45CHL1   C16 5757   3.783   2.020   9.430  0.3119 -0.3222  0.1910
   45CHL1  H16A 5758   3.692   2.000   9.369 -0.0997  1.7526  0.0707
   45CHL1  H16B 5759   3.814   2.122   9.399 -0.9030  0.2344  0.7294
   45CHL1   C17 5760   3.895   1.915   9.416  0.6339 -0.1351 -0.1536
   45CHL1   H17 5761   3.986   1.975   9.437  2.4625 -2.5689 -0.7089
   45CHL1   C13 5762   3.892   1.822   9.538 -1.0599 -0.3387 -0.3294
   45CHL1   C18 5763   3.765   1.736   9.535  0.1711  0.3563  0.2001
   45CHL1  H18A 5764   3.790   1.653   9.466  0.5176  0.0864  0.6366
   45CHL1  H18B 5765   3.740   1.695   9.636  0.5474  1.6701  0.8563
   45CHL1  H18C 5766   3.676   1.792   9.500  0.7050  1.4110  0.4676
   45CHL1   C12 5767   4.014   1.729   9.571  0.7286  0.6448 -0.0998
   45CHL1  H12A 5768   3.971   1.643   9.627  0.1651  1.5075  0.8213
   45CHL1  H12B 5769   4.053   1.678   9.480  1.0699 -1.9002  1.3608
   45CHL1   C11 5770   4.128   1.814   9.638  0.1100  0.0528  0.2932
   45CHL1  H11A 5771   4.213   1.753   9.676  0.6565  1.0351  0.6838
   45CHL1  H11B 5772   4.168   1.881   9.558  2.8869 -2.4929 -0.6290
   45CHL1    C9 5773   4.077   1.892   9.761 -0.3914  0.8777  0.3430
   45CHL1    H9 5774   4.159   1.958   9.796  0.4537  1.4944 -2.5765
   45CHL1   C10 5775   4.052   1.817   9.901  0.7627  0.5218  0.2694
   45CHL1   C19 5776   3.976   1.685   9.882 -0.1221  0.2224  0.9811
   45CHL1  H19A 5777   4.040   1.615   9.823 -0.2525 -0.2857  1.4334
   45CHL1  H19B 5778   3.947   1.637   9.978 -0.1559  0.8187  1.2759
   45CHL1  H19C 5779   3.886   1.702   9.819  0.3991 -0.5836 -0.0109
   45CHL1    C1 5780   4.178   1.788   9.977 -0.9402  0.3045  0.3532
   45CHL1   H1A 5781   4.249   1.734   9.910  0.9875  1.6391  1.2322
   45CHL1   H1B 5782   4.221   1.888   9.997  0.2684 -0.0287 -0.4841
   45CHL1    C2 5783   4.161   1.718  10.100 -0.8175 -0.1507  0.0334
   45CHL1   H2A 5784   4.254   1.694  10.156 -1.4453  1.1894  1.7571
   45CHL1   H2B 5785   4.125   1.615  10.080  2.3690 -1.4590  0.5609
   45CHL1   C20 5786   3.917   1.856   9.275  0.6441  0.1599 -0.4907
   45CHL1   H20 5787   3.969   1.758   9.284 -0.2632 -0.4250 -1.3134
   45CHL1   C21 5788   4.002   1.960   9.201 -0.4523  0.1131  0.1249
   45CHL1  H21A 5789   4.102   1.964   9.249 -0.4966  0.7027  0.1801
   45CHL1  H21B 5790   3.966   2.064   9.187  0.7327  0.4766 -0.3096
   45CHL1  H21C 5791   4.029   1.915   9.103 -1.2855  0.9204 -0.4946
   45CHL1   C22 5792   3.790   1.832   9.190 -0.1431  0.7427 -0.3664
   45CHL1  H22A 5793   3.706   1.808   9.259 -0.7103  1.0286 -0.9483
   45CHL1  H22B 5794   3.751   1.921   9.136 -1.5340 -0.4748 -1.4382
   45CHL1   C23 5795   3.805   1.723   9.085  0.0349 -0.8454 -0.3571
   45CHL1  H23A 5796   3.883   1.750   9.011  1.5269  0.8704  1.7347
   45CHL1  H23B 5797   3.829   1.628   9.138 -0.7576 -1.1264 -0.4883
   45CHL1   C24 5798   3.671   1.707   9.016  0.4339  0.0209 -0.0140
   45CHL1  H24A 5799   3.600   1.691   9.099  2.3802  0.5995  1.8547
   45CHL1  H24B 5800   3.630   1.796   8.964 -1.3893 -1.0106 -0.4120
   45CHL1   C25 5801   3.667   1.592   8.915 -0.7496  0.0493  0.3719
   45CHL1   H25 5802   3.735   1.508   8.939 -0.8006  0.1976  1.0386
   45CHL1   C26 5803   3.526   1.532   8.897  0.5319  0.5097 -0.0255
   45CHL1  H26A 5804   3.458   1.589   8.830  0.1659  0.3666  0.2167
   45CHL1  H26B 5805   3.541   1.430   8.856  1.0707  0.7421 -0.4165
   45CHL1  H26C 5806   3.479   1.526   8.998  2.6194  1.9884  1.1138
   45CHL1   C27 5807   3.710   1.655   8.779  0.2493  0.7743  0.0720
   45CHL1  H27A 5808   3.630   1.654   8.702  1.0464  0.5093 -0.7761
   45CHL1  H27B 5809   3.734   1.763   8.793  1.0487  0.9969 -2.4127
   45CHL1  H27C 5810   3.801   1.608   8.736  1.7607  2.2504  1.5063
   46CHL1    C3 5811   5.459   5.645  10.327  0.0090 -0.1474 -0.4913
   46CHL1    H3 5812   5.358   5.649  10.282 -0.7125 -0.9116  0.9843
   46CHL1    O3 5813   5.444   5.599  10.459 -0.1364 -0.3039 -0.5961
   46CHL1   H3' 5814   5.399   5.675  10.496 -1.2783 -0.1561 -2.2146
   46CHL1    C4 5815   5.540   5.546  10.249  0.2952 -0.3363 -0.3871
   46CHL1   H4A 5816   5.637   5.522  10.296  1.0929  2.5514 -0.3963
   46CHL1   H4B 5817   5.499   5.443  10.254  0.2116 -0.2415  1.7278
   46CHL1    C5 5818   5.563   5.597  10.106 -0.4631  0.1698  0.1948
   46CHL1    C6 5819   5.532   5.522  10.001 -0.3748  0.5159  0.0076
   46CHL1    H6 5820   5.485   5.424  10.019 -1.1257  1.1005  1.4625
   46CHL1    C7 5821   5.558   5.563   9.860  0.2649  0.2594 -0.3934
   46CHL1   H7A 5822   5.603   5.484   9.797 -1.6179 -1.6657  0.5390
   46CHL1   H7B 5823   5.458   5.590   9.820 -0.2702 -1.2260 -0.1051
   46CHL1    C8 5824   5.641   5.690   9.842 -0.0135 -0.5615  0.5143
   46CHL1    H8 5825   5.748   5.661   9.842 -0.4626 -2.3478  1.1537
   46CHL1   C14 5826   5.615   5.743   9.705  0.0073 -0.0338  0.4094
   46CHL1   H14 5827   5.513   5.783   9.720  0.9486  1.2930  5.2052
   46CHL1   C15 5828   5.621   5.656   9.580  0.1871  0.2028  0.3530
   46CHL1  H15A 5829   5.717   5.601   9.588  0.4589  0.2063 -2.1578
   46CHL1  H15B 5830   5.539   5.585   9.559 -0.1984 -0.4303  3.5045
   46CHL1   C16 5831   5.634   5.756   9.469 -0.4388 -1.0388  0.8089
   46CHL1  H16A 5832   5.719   5.727   9.403  1.7261  3.4114  1.2980
   46CHL1  H16B 5833   5.539   5.773   9.414 -0.7443  0.1053  1.6598
   46CHL1   C17 5834   5.656   5.900   9.530 -0.2532 -0.4473 -0.8452
   46CHL1   H17 5835   5.553   5.942   9.533  0.7277  2.0934 -0.9677
   46CHL1   C13 5836   5.707   5.869   9.673 -0.2198 -0.4643 -0.1856
   46CHL1   C18 5837   5.859   5.836   9.672 -0.0267  0.4977 -0.6559
   46CHL1  H18A 5838   5.892   5.769   9.755  0.2788 -2.0366 -2.6969
   46CHL1  H18B 5839   5.888   5.774   9.585 -2.0339 -3.2191  1.0562
   46CHL1  H18C 5840   5.921   5.926   9.692 -1.2184  0.9735  1.2314
   46CHL1   C12 5841   5.669   5.978   9.777  0.9885  0.0916 -0.3148
   46CHL1  H12A 5842   5.730   6.070   9.766 -0.2862  1.1027  0.6839
   46CHL1  H12B 5843   5.568   6.013   9.749  0.3251 -2.3760 -1.3037
   46CHL1   C11 5844   5.675   5.936   9.925 -0.5993  0.1064  0.2336
   46CHL1  H11A 5845   5.782   5.925   9.955 -0.3519 -2.0356 -1.1993
   46CHL1  H11B 5846   5.623   6.009   9.991 -0.8471  1.0078 -0.9304
   46CHL1    C9 5847   5.607   5.795   9.951  0.0311 -0.2835 -0.5925
   46CHL1    H9 5848   5.500   5.823   9.938  0.0671  0.4113  0.4527
   46CHL1   C10 5849   5.618   5.740  10.092  0.3494 -0.0748 -0.3425
   46CHL1   C19 5850   5.768   5.739  10.136  0.7752  0.2853  0.2402
   46CHL1  H19A 5851   5.837   5.692  10.062 -0.8541  0.2499 -1.3266
   46CHL1  H19B 5852   5.806   5.844  10.139  0.8250  0.2613  0.4535
   46CHL1  H19C 5853   5.784   5.683  10.230 -0.1324 -0.5258 -0.0713
   46CHL1    C1 5854   5.537   5.833  10.192  0.1525  0.6514  0.1749
   46CHL1   H1A 5855   5.601   5.923  10.182 -0.6521  1.0917 -1.5408
   46CHL1   H1B 5856   5.441   5.855  10.140  0.0366 -0.4009 -0.0643
   46CHL1    C2 5857   5.519   5.785  10.334 -0.4094 -0.5162 -0.1119
   46CHL1   H2A 5858   5.447   5.848  10.390 -0.6062  1.5273 -2.4673
   46CHL1   H2B 5859   5.615   5.773  10.390 -0.4535  0.1530  0.1158
   46CHL1   C20 5860   5.738   5.990   9.436 -0.4366 -0.1515 -0.2413
   46CHL1   H20 5861   5.841   5.950   9.427 -1.2215 -2.1462 -1.0875
   46CHL1   C21 5862   5.759   6.124   9.506  0.1181 -0.3500  0.5857
   46CHL1  H21A 5863   5.659   6.167   9.528  1.2401  1.5606  2.3567
   46CHL1  H21B 5864   5.813   6.190   9.435  0.0619  0.6258  1.4253
   46CHL1  H21C 5865   5.811   6.118   9.603  0.2704 -1.1583  0.4594
   46CHL1   C22 5866   5.676   6.003   9.291 -0.4405  0.2992  0.0217
   46CHL1  H22A 5867   5.683   5.904   9.241  2.6989  0.3625  0.1428
   46CHL1  H22B 5868   5.568   6.023   9.308 -0.1965  0.2841  1.7604
   46CHL1   C23 5869   5.728   6.115   9.193 -0.6569 -0.4203  0.4408
   46CHL1  H23A 5870   5.685   6.212   9.225  3.4028  1.6847  0.1717
   46CHL1  H23B 5871   5.836   6.128   9.214 -0.3304 -1.2260 -0.6483
   46CHL1   C24 5872   5.710   6.078   9.042  0.4203 -0.3319  0.2615
   46CHL1  H24A 5873   5.773   5.989   9.023  1.5141 -0.0268  2.1809
   46CHL1  H24B 5874   5.601   6.059   9.029  0.2976  0.2566  0.4016
   46CHL1   C25 5875   5.730   6.201   8.944 -0.7818 -0.0045 -0.3739
   46CHL1   H25 5876   5.706   6.289   9.007  2.2107  0.8666 -0.3139
   46CHL1   C26 5877   5.875   6.208   8.899 -0.5634 -0.4286 -0.1162
   46CHL1  H26A 5878   5.896   6.135   8.818 -1.1306 -1.1905  0.4112
   46CHL1  H26B 5879   5.901   6.308   8.858 -1.0072 -0.0699  0.4715
   46CHL1  H26C 5880   5.933   6.177   8.988  0.6659  2.5372  0.2168
   46CHL1   C27 5881   5.642   6.181   8.818  0.5418  0.2379  0.2674
   46CHL1  H27A 5882   5.531   6.187   8.832  0.7920  0.7469  2.4170
   46CHL1  H27B 5883   5.672   6.242   8.731  1.3650  0.9295  1.0131
   46CHL1  H27C 5884   5.654   6.074   8.791  1.7259  0.4009  0.1377
   47CHL1    C3 5885   0.667   3.702   9.999  0.4763 -0.2509  0.0657
   47CHL1    H3 5886   0.566   3.748  10.004 -0.4594 -2.2187  0.1781
   47CHL1    O3 5887   0.728   3.669  10.123 -0.3155 -0.1254  0.6113
   47CHL1   H3' 5888   0.805   3.617  10.100  2.3030  2.4468  2.8263
   47CHL1    C4 5889   0.657   3.575   9.913 -0.8113  0.4073 -0.0830
   47CHL1   H4A 5890   0.759   3.530   9.909 -0.4679  1.0550  1.0079
   47CHL1   H4B 5891   0.593   3.516   9.981 -2.6289  1.0524 -1.1440
   47CHL1    C5 5892   0.591   3.590   9.778  0.3537  0.1784 -0.0319
   47CHL1    C6 5893   0.482   3.519   9.741 -0.0279  0.1838  0.6275
   47CHL1    H6 5894   0.440   3.442   9.808 -2.1904  1.1989  0.5285
   47CHL1    C7 5895   0.424   3.526   9.606  0.1315 -0.5318 -0.3273
   47CHL1   H7A 5896   0.399   3.423   9.572  1.3513 -1.6747  1.9931
   47CHL1   H7B 5897   0.338   3.596   9.609 -0.5540 -1.3354  3.1626
   47CHL1    C8 5898   0.523   3.599   9.503 -0.3798 -0.5698  0.1455
   47CHL1    H8 5899   0.608   3.532   9.480 -1.4498 -1.8850 -0.0884
   47CHL1   C14 5900   0.450   3.623   9.374 -0.0429 -0.1733 -0.1154
   47CHL1   H14 5901   0.363   3.686   9.402 -0.9444 -0.7560 -1.5256
   47CHL1   C15 5902   0.381   3.498   9.301 -0.3944 -0.6025  0.3136
   47CHL1  H15A 5903   0.456   3.416   9.302 -1.1609 -1.3238 -0.0094
   47CHL1  H15B 5904   0.285   3.471   9.348 -1.4937  1.3700 -0.6480
   47CHL1   C16 5905   0.355   3.549   9.157  0.1786 -0.1051  0.3802
   47CHL1  H16A 5906   0.413   3.480   9.092 -0.7698  0.3050 -0.9580
   47CHL1  H16B 5907   0.249   3.552   9.125  0.5951  0.6571 -1.0323
   47CHL1   C17 5908   0.417   3.691   9.156  0.5202 -0.1885  0.6723
   47CHL1   H17 5909   0.333   3.757   9.186  0.0426  0.0871 -1.1957
   47CHL1   C13 5910   0.529   3.694   9.260  0.3226  0.1379  0.9986
   47CHL1   C18 5911   0.660   3.621   9.212 -0.3610 -0.3227 -0.3165
   47CHL1  H18A 5912   0.652   3.519   9.170  0.0168 -0.4536 -0.0790
   47CHL1  H18B 5913   0.715   3.676   9.133  1.0271 -1.1559  0.0363
   47CHL1  H18C 5914   0.734   3.615   9.294  0.2806 -0.5733 -0.9033
   47CHL1   C12 5915   0.573   3.830   9.321 -0.0662  0.2346 -0.0572
   47CHL1  H12A 5916   0.626   3.873   9.234  0.6529  0.6952  0.6006
   47CHL1  H12B 5917   0.484   3.896   9.331  2.0819  3.2434  0.4785
   47CHL1   C11 5918   0.661   3.817   9.451  0.0744  0.1138  0.3265
   47CHL1  H11A 5919   0.766   3.785   9.432  0.4387 -0.0778  2.3746
   47CHL1  H11B 5920   0.668   3.924   9.481 -1.1712  0.1961  0.3820
   47CHL1    C9 5921   0.586   3.735   9.560 -0.7617  0.3568  0.1810
   47CHL1    H9 5922   0.487   3.780   9.583 -1.3275 -1.5779  1.7675
   47CHL1   C10 5923   0.658   3.697   9.687  0.5310 -0.5735  0.0928
   47CHL1   C19 5924   0.799   3.641   9.646  0.4470  0.0700 -0.0975
   47CHL1  H19A 5925   0.861   3.604   9.731  0.4453 -1.0521 -0.5648
   47CHL1  H19B 5926   0.789   3.561   9.568 -1.5662  0.1780 -0.0030
   47CHL1  H19C 5927   0.865   3.721   9.607  1.7611 -1.1413 -0.4790
   47CHL1    C1 5928   0.673   3.828   9.776 -0.0837 -0.1672 -0.4718
   47CHL1   H1A 5929   0.726   3.908   9.720  0.3586  0.2829  0.5614
   47CHL1   H1B 5930   0.569   3.856   9.803 -1.3368 -2.6114 -2.3016
   47CHL1    C2 5931   0.749   3.801   9.912  0.0187 -0.2305 -0.2485
   47CHL1   H2A 5932   0.762   3.893   9.974 -1.1191 -1.1666  1.4686
   47CHL1   H2B 5933   0.847   3.750   9.901  0.1802 -0.5150  1.9471
   47CHL1   C20 5934   0.448   3.742   9.012 -0.2140 -0.8333 -0.0572
   47CHL1   H20 5935   0.542   3.685   8.993 -0.0867 -1.1810  1.5361
   47CHL1   C21 5936   0.465   3.892   9.002  0.1196 -0.9350 -0.6114
   47CHL1  H21A 5937   0.534   3.930   9.081 -1.6508  1.5399 -0.1316
   47CHL1  H21B 5938   0.369   3.945   9.019  1.1862  0.8964  0.0374
   47CHL1  H21C 5939   0.505   3.925   8.904  1.5450  2.1616  0.8615
   47CHL1   C22 5940   0.334   3.706   8.915  0.3810 -0.2116 -0.0541
   47CHL1  H22A 5941   0.308   3.598   8.911 -0.8111  0.0842 -0.7608
   47CHL1  H22B 5942   0.247   3.769   8.946  0.0227 -0.7314  0.0064
   47CHL1   C23 5943   0.358   3.739   8.769 -0.5192 -0.0291 -0.4278
   47CHL1  H23A 5944   0.265   3.715   8.714 -0.4017 -0.7522 -0.3210
   47CHL1  H23B 5945   0.370   3.849   8.759  1.1835 -0.2262 -0.9473
   47CHL1   C24 5946   0.476   3.670   8.701  0.8992  0.6026  0.0459
   47CHL1  H24A 5947   0.574   3.722   8.707  0.7385  0.8805  0.2634
   47CHL1  H24B 5948   0.491   3.582   8.767 -0.5208 -0.9525 -1.5849
   47CHL1   C25 5949   0.455   3.641   8.551 -0.3649  0.2298 -0.2606
   47CHL1   H25 5950   0.354   3.596   8.535 -0.4963  0.1392  0.7669
   47CHL1   C26 5951   0.452   3.769   8.459 -0.3774 -0.4859 -0.0141
   47CHL1  H26A 5952   0.555   3.802   8.435 -0.9133  0.4116 -1.1834
   47CHL1  H26B 5953   0.397   3.853   8.508 -5.1191 -2.8677 -0.7539
   47CHL1  H26C 5954   0.405   3.738   8.364 -0.5263  0.3295 -0.2188
   47CHL1   C27 5955   0.565   3.548   8.497 -0.1805  0.3269  0.2230
   47CHL1  H27A 5956   0.551   3.534   8.388  1.5984  0.7502 -0.0823
   47CHL1  H27B 5957   0.662   3.587   8.535 -0.5605 -0.6327  2.3418
   47CHL1  H27C 5958   0.555   3.449   8.548 -1.6254  0.4716  0.2582
   48CHL1    C3 5959   1.403   3.571  10.036  0.1059  0.8125 -0.0176
   48CHL1    H3 5960   1.332   3.646   9.995 -1.2223 -1.6922 -2.6974
   48CHL1    O3 5961   1.397   3.577  10.179  0.1735 -0.2220  0.1058
   48CHL1   H3' 5962   1.488   3.554  10.201 -0.0264  0.3601  1.7250
   48CHL1    C4 5963   1.360   3.431   9.983 -0.0282  0.0961  0.7057
   48CHL1   H4A 5964   1.444   3.362  10.006  1.2787  0.0532 -3.4661
   48CHL1   H4B 5965   1.262   3.407  10.029  0.0881  0.9453  1.4159
   48CHL1    C5 5966   1.349   3.438   9.835 -0.2993 -0.2337 -0.5930
   48CHL1    C6 5967   1.236   3.407   9.775  0.0071  0.1203 -0.1799
   48CHL1    H6 5968   1.153   3.376   9.839 -0.4921  1.3001 -0.2234
   48CHL1    C7 5969   1.204   3.403   9.627 -0.6912 -0.2401  0.2997
   48CHL1   H7A 5970   1.164   3.307   9.590 -1.4696  0.0711  0.2996
   48CHL1   H7B 5971   1.128   3.483   9.613  0.4795  0.8835  0.1743
   48CHL1    C8 5972   1.340   3.430   9.546 -0.7517 -0.0375  0.4397
   48CHL1    H8 5973   1.389   3.332   9.530  1.3485  0.7241  1.7266
   48CHL1   C14 5974   1.311   3.483   9.411 -0.3217  0.3329 -0.2180
   48CHL1   H14 5975   1.265   3.583   9.426  1.5320  1.6020 -2.3069
   48CHL1   C15 5976   1.206   3.402   9.332  0.3510  0.1943  0.4154
   48CHL1  H15A 5977   1.217   3.293   9.348 -1.9827 -0.3541 -1.1204
   48CHL1  H15B 5978   1.102   3.429   9.362 -0.5814 -2.0656 -0.5685
   48CHL1   C16 5979   1.237   3.443   9.184 -0.3718 -0.4732 -0.3046
   48CHL1  H16A 5980   1.252   3.352   9.122 -1.4602  0.0776 -1.4151
   48CHL1  H16B 5981   1.141   3.484   9.146 -1.0028 -1.0311  0.6345
   48CHL1   C17 5982   1.364   3.546   9.187 -0.4763 -0.0450  0.1457
   48CHL1   H17 5983   1.318   3.647   9.201 -4.0536 -1.7001  1.7747
   48CHL1   C13 5984   1.434   3.513   9.322 -0.0247  0.4709 -0.4294
   48CHL1   C18 5985   1.513   3.376   9.296  0.1142 -0.6984 -0.3803
   48CHL1  H18A 5986   1.603   3.393   9.232 -0.0617 -1.0481 -0.7259
   48CHL1  H18B 5987   1.550   3.318   9.383  2.3475 -3.3395 -2.8751
   48CHL1  H18C 5988   1.458   3.306   9.229  0.1884 -1.7068  0.5743
   48CHL1   C12 5989   1.521   3.617   9.384 -0.1331  0.5438 -0.1614
   48CHL1  H12A 5990   1.620   3.629   9.335  1.0508  0.9899  2.1935
   48CHL1  H12B 5991   1.473   3.716   9.393 -0.3236  0.4454 -0.0946
   48CHL1   C11 5992   1.559   3.578   9.532  0.3197 -0.0519 -1.0166
   48CHL1  H11A 5993   1.627   3.491   9.521  0.5241  0.0199 -0.3314
   48CHL1  H11B 5994   1.621   3.658   9.577  0.2191 -0.0291 -0.9197
   48CHL1    C9 5995   1.435   3.530   9.615  0.2081  0.3602 -0.6337
   48CHL1    H9 5996   1.376   3.623   9.632  0.3104  0.0074  2.1262
   48CHL1   C10 5997   1.474   3.488   9.760 -0.0171  0.5816 -0.0184
   48CHL1   C19 5998   1.581   3.367   9.750  0.5434 -0.0831  0.2927
   48CHL1  H19A 5999   1.610   3.336   9.853  1.3387 -0.6879 -0.1025
   48CHL1  H19B 6000   1.541   3.285   9.687 -0.7329 -0.7261  1.8452
   48CHL1  H19C 6001   1.673   3.399   9.697 -0.6106 -1.3115 -2.6861
   48CHL1    C1 6002   1.541   3.611   9.828  0.2346  0.4349  0.5265
   48CHL1   H1A 6003   1.644   3.620   9.786  0.1011  0.4579  0.1984
   48CHL1   H1B 6004   1.479   3.703   9.814 -0.6197  0.2085  2.5044
   48CHL1    C2 6005   1.543   3.602   9.981  0.3377  0.0419  0.4772
   48CHL1   H2A 6006   1.566   3.705  10.016 -0.2702  0.0037  1.0021
   48CHL1   H2B 6007   1.598   3.516  10.024 -0.0947 -0.9902 -0.9323
   48CHL1   C20 6008   1.447   3.536   9.058 -0.0422  0.0655 -0.0373
   48CHL1   H20 6009   1.504   3.442   9.041 -0.6912  0.0490 -2.6530
   48CHL1   C21 6010   1.553   3.648   9.050  0.4411  0.3807 -0.2254
   48CHL1  H21A 6011   1.503   3.745   9.028  0.4324  0.7424  1.2629
   48CHL1  H21B 6012   1.626   3.622   8.970 -0.0792 -2.9280  0.2174
   48CHL1  H21C 6013   1.616   3.664   9.140 -0.5862  3.4619  0.0594
   48CHL1   C22 6014   1.362   3.541   8.922 -0.2026  0.3049  0.0881
   48CHL1  H22A 6015   1.264   3.496   8.948  1.1513 -1.8081  1.9870
   48CHL1  H22B 6016   1.344   3.648   8.903 -0.8548  0.1424 -0.2236
   48CHL1   C23 6017   1.417   3.476   8.792  0.4807  0.2768 -0.1673
   48CHL1  H23A 6018   1.510   3.525   8.754  0.8206  0.7910  1.2791
   48CHL1  H23B 6019   1.432   3.368   8.813 -2.3972 -0.5985 -2.0258
   48CHL1   C24 6020   1.299   3.472   8.689  0.4078  0.3736  0.0510
   48CHL1  H24A 6021   1.222   3.402   8.729  0.5529  0.2184  0.0566
   48CHL1  H24B 6022   1.253   3.574   8.690  0.2601  0.3070  0.7218
   48CHL1   C25 6023   1.323   3.441   8.540 -0.0402 -0.2576 -0.2166
   48CHL1   H25 6024   1.390   3.513   8.489  1.6118 -2.6716 -1.6707
   48CHL1   C26 6025   1.395   3.308   8.526 -0.0479  0.7301  0.7197
   48CHL1  H26A 6026   1.434   3.293   8.423  0.0032  0.7412  0.7379
   48CHL1  H26B 6027   1.483   3.318   8.592 -0.0138 -0.9414  0.9723
   48CHL1  H26C 6028   1.330   3.229   8.572 -0.5786  0.2272 -0.8175
   48CHL1   C27 6029   1.186   3.456   8.467  0.5474  0.4357 -0.2064
   48CHL1  H27A 6030   1.133   3.548   8.501 -0.7255 -0.7845  1.2388
   48CHL1  H27B 6031   1.197   3.447   8.356 -1.2605  0.9998 -0.4766
   48CHL1  H27C 6032   1.119   3.376   8.504  0.5032  0.2775 -0.6196
   49CHL1    C3 6033   0.173   5.471   9.969 -0.5921  0.3539 -0.2523
   49CHL1    H3 6034   0.177   5.360   9.968 -0.6626  0.3309 -2.0799
   49CHL1    O3 6035   0.139   5.514  10.102  0.6822 -0.5796  0.3345
   49CHL1   H3' 6036   0.044   5.521  10.111  0.6755  0.0943 -0.1527
   49CHL1    C4 6037   0.316   5.518   9.943 -0.2287  0.2893  0.0091
   49CHL1   H4A 6038   0.315   5.629   9.947  1.4454  0.3646 -0.5899
   49CHL1   H4B 6039   0.397   5.488  10.013  2.3245  1.3242 -2.2840
   49CHL1    C5 6040   0.360   5.489   9.798 -0.3430  0.4809 -0.4654
   49CHL1    C6 6041   0.470   5.412   9.784 -1.2211 -0.2936 -0.7558
   49CHL1    H6 6042   0.533   5.376   9.866 -1.2079 -2.4550 -1.6409
   49CHL1    C7 6043   0.516   5.373   9.647  0.1389  0.6248 -0.1264
   49CHL1   H7A 6044   0.619   5.403   9.620 -1.1876  4.3041 -1.8383
   49CHL1   H7B 6045   0.506   5.263   9.637 -0.2104  0.7808 -1.6913
   49CHL1    C8 6046   0.440   5.445   9.528 -0.4012 -0.3497 -0.3338
   49CHL1    H8 6047   0.488   5.544   9.510 -1.1343  0.0320 -0.2225
   49CHL1   C14 6048   0.455   5.363   9.402  0.1331 -0.2095 -0.4332
   49CHL1   H14 6049   0.408   5.264   9.422  0.6383 -0.4678 -0.4950
   49CHL1   C15 6050   0.598   5.330   9.363 -0.5730 -0.1396  0.6281
   49CHL1  H15A 6051   0.666   5.417   9.365 -1.4971  0.5854  2.0844
   49CHL1  H15B 6052   0.650   5.256   9.428  1.1167 -0.5053 -1.0472
   49CHL1   C16 6053   0.577   5.266   9.224 -0.1499  0.7969  0.1696
   49CHL1  H16A 6054   0.650   5.308   9.151 -1.7189 -0.9139 -2.5650
   49CHL1  H16B 6055   0.588   5.155   9.229 -4.3357  0.2785  0.8458
   49CHL1   C17 6056   0.437   5.301   9.178 -0.2461  0.4380 -0.8472
   49CHL1   H17 6057   0.368   5.215   9.191 -1.5351  1.2646 -2.0393
   49CHL1   C13 6058   0.386   5.411   9.278  0.1929  0.6022 -0.1737
   49CHL1   C18 6059   0.440   5.541   9.228 -1.0000  0.0295  0.3691
   49CHL1  H18A 6060   0.551   5.546   9.225 -0.9894 -0.0314  0.5861
   49CHL1  H18B 6061   0.391   5.571   9.133 -1.3084 -2.5052 -0.3445
   49CHL1  H18C 6062   0.417   5.621   9.301  1.1259  1.2168 -0.2104
   49CHL1   C12 6063   0.233   5.417   9.314 -0.2422 -0.6560  0.2332
   49CHL1  H12A 6064   0.182   5.475   9.234  1.6255  1.2432  0.3354
   49CHL1  H12B 6065   0.195   5.313   9.324  1.5553 -1.2951  0.7847
   49CHL1   C11 6066   0.205   5.505   9.436  0.1750  0.2239  0.2555
   49CHL1  H11A 6067   0.246   5.607   9.419 -0.5992  0.4257 -0.4416
   49CHL1  H11B 6068   0.095   5.504   9.450  0.1955 -1.0056  0.3823
   49CHL1    C9 6069   0.293   5.454   9.558 -0.4941  0.2805  0.0165
   49CHL1    H9 6070   0.271   5.347   9.579  0.5298  0.1194  0.3730
   49CHL1   C10 6071   0.265   5.523   9.689  0.2966  0.4627 -0.6807
   49CHL1   C19 6072   0.292   5.678   9.678 -0.7251  0.2791  0.1259
   49CHL1  H19A 6073   0.264   5.732   9.771 -0.2548 -1.0403  1.0616
   49CHL1  H19B 6074   0.397   5.697   9.644 -0.6107 -1.5666 -0.6752
   49CHL1  H19C 6075   0.224   5.722   9.602  0.7287  0.1564 -1.3274
   49CHL1    C1 6076   0.118   5.480   9.726 -0.1687 -0.5273 -0.1100
   49CHL1   H1A 6077   0.046   5.533   9.660 -0.5611  1.2819  1.6772
   49CHL1   H1B 6078   0.102   5.371   9.709  0.0284 -0.8392  1.5076
   49CHL1    C2 6079   0.072   5.520   9.870 -0.1820  0.5049 -0.7896
   49CHL1   H2A 6080  -0.031   5.483   9.887  0.4838 -1.0293  0.1238
   49CHL1   H2B 6081   0.075   5.631   9.876 -0.2630  0.5531 -1.5337
   49CHL1   C20 6082   0.422   5.325   9.027 -1.0694 -0.1973  0.1121
   49CHL1   H20 6083   0.486   5.411   8.997  2.6363 -0.4934  5.5945
   49CHL1   C21 6084   0.270   5.351   8.996 -0.4847  0.4018  0.0384
   49CHL1  H21A 6085   0.243   5.452   9.032  1.8900  0.4224  1.9767
   49CHL1  H21B 6086   0.204   5.275   9.043  1.3283 -0.9399  0.5144
   49CHL1  H21C 6087   0.250   5.336   8.888 -0.1622  0.2419 -0.0008
   49CHL1   C22 6088   0.457   5.202   8.937 -0.8033 -0.5798  0.0706
   49CHL1  H22A 6089   0.550   5.158   8.978 -0.5865  0.0164  0.2420
   49CHL1  H22B 6090   0.373   5.130   8.946 -1.3286 -0.1538 -1.1573
   49CHL1   C23 6091   0.464   5.226   8.787  0.1470  0.2498  0.1085
   49CHL1  H23A 6092   0.362   5.241   8.745 -0.3468 -0.6594  0.9304
   49CHL1  H23B 6093   0.548   5.294   8.765 -0.1623  0.2526 -1.1456
   49CHL1   C24 6094   0.532   5.106   8.706 -0.1260 -0.7827  0.1637
   49CHL1  H24A 6095   0.638   5.102   8.738  0.9312  1.0023 -2.7539
   49CHL1  H24B 6096   0.475   5.014   8.733 -2.1230 -0.1538 -1.6742
   49CHL1   C25 6097   0.511   5.114   8.549  0.3520 -0.5965  0.0819
   49CHL1   H25 6098   0.555   5.020   8.510  1.2275  0.0624 -0.5768
   49CHL1   C26 6099   0.364   5.108   8.503 -0.7661 -0.2911  0.0434
   49CHL1  H26A 6100   0.352   5.081   8.396  0.5831  0.7745 -0.3931
   49CHL1  H26B 6101   0.303   5.042   8.569  0.2716 -3.0575 -1.6334
   49CHL1  H26C 6102   0.321   5.211   8.508 -0.7471 -0.1897 -1.4713
   49CHL1   C27 6103   0.593   5.238   8.495  0.0622  0.3929  0.0011
   49CHL1  H27A 6104   0.608   5.232   8.385 -0.3127  2.5786 -0.2131
   49CHL1  H27B 6105   0.534   5.325   8.531 -1.3423 -0.0896 -1.0754
   49CHL1  H27C 6106   0.691   5.237   8.549 -0.2529 -1.7392  0.6183
   50CHL1    C3 6107   4.105   1.215   9.994  0.9202  0.6735 -1.2159
   50CHL1    H3 6108   4.179   1.138   9.962 -0.8696 -0.7209 -2.1594
   50CHL1    O3 6109   4.107   1.242  10.137  0.5061  0.4722 -0.1693
   50CHL1   H3' 6110   4.039   1.309  10.144 -1.4801 -1.4434 -0.0880
   50CHL1    C4 6111   4.113   1.354   9.916 -0.2716  0.1693 -0.4861
   50CHL1   H4A 6112   4.037   1.421   9.962  0.4743  1.0754 -0.5408
   50CHL1   H4B 6113   4.217   1.387   9.938 -0.0788 -0.8968  0.2833
   50CHL1    C5 6114   4.082   1.346   9.770  0.0656 -0.2665  1.1323
   50CHL1    C6 6115   4.168   1.400   9.682  0.2099  0.1134  0.2354
   50CHL1    H6 6116   4.258   1.454   9.715  2.3168 -1.6972 -2.1279
   50CHL1    C7 6117   4.158   1.389   9.534 -0.3251 -0.3209 -1.5047
   50CHL1   H7A 6118   4.181   1.490   9.495  0.4838 -1.0157 -2.9231
   50CHL1   H7B 6119   4.227   1.308   9.501  3.6364  1.4190  1.7598
   50CHL1    C8 6120   4.016   1.350   9.493 -0.2719 -0.0384  0.0399
   50CHL1    H8 6121   3.948   1.437   9.504  0.7135  0.8106 -0.3276
   50CHL1   C14 6122   4.005   1.319   9.351 -0.0510 -0.0732 -0.1609
   50CHL1   H14 6123   4.074   1.234   9.334  1.9802  1.2651  0.9605
   50CHL1   C15 6124   4.052   1.424   9.250 -0.0383  0.6558 -0.5651
   50CHL1  H15A 6125   4.007   1.524   9.264 -1.1559  0.1529 -0.3770
   50CHL1  H15B 6126   4.162   1.430   9.245  0.1273 -1.3700 -0.4313
   50CHL1   C16 6127   4.004   1.357   9.117 -1.0374 -0.2775 -0.0303
   50CHL1  H16A 6128   3.965   1.434   9.047  0.3547  0.6768  0.2061
   50CHL1  H16B 6129   4.088   1.306   9.065  0.2419  1.3098  0.4362
   50CHL1   C17 6130   3.911   1.246   9.155  1.1615  0.2159 -0.1743
   50CHL1   H17 6131   3.974   1.154   9.154 -1.3632 -1.7365  2.1888
   50CHL1   C13 6132   3.866   1.266   9.298  1.0147 -0.5438 -0.9764
   50CHL1   C18 6133   3.763   1.378   9.314 -0.5461  0.3248 -0.5680
   50CHL1  H18A 6134   3.782   1.475   9.263 -0.9210  0.4713 -0.4310
   50CHL1  H18B 6135   3.661   1.349   9.282 -0.3166 -0.3517 -0.7230
   50CHL1  H18C 6136   3.759   1.400   9.423 -1.1574  0.7717 -0.6800
   50CHL1   C12 6137   3.839   1.141   9.378  0.1068 -0.2822 -0.3783
   50CHL1  H12A 6138   3.743   1.097   9.345 -0.0068  0.3367 -0.8993
   50CHL1  H12B 6139   3.916   1.069   9.343 -1.9449 -2.8261  0.0256
   50CHL1   C11 6140   3.839   1.168   9.531  0.3060 -0.1393 -0.6583
   50CHL1  H11A 6141   3.747   1.226   9.557 -0.3743 -3.0328  4.7949
   50CHL1  H11B 6142   3.831   1.072   9.585  1.3944  0.7821  1.2332
   50CHL1    C9 6143   3.970   1.232   9.582  0.2878  0.7163  0.1109
   50CHL1    H9 6144   4.053   1.159   9.567 -1.4309 -1.1433 -0.9682
   50CHL1   C10 6145   3.961   1.261   9.732  0.2420 -0.0366  0.4292
   50CHL1   C19 6146   3.843   1.354   9.747 -0.1792 -0.5854  0.0799
   50CHL1  H19A 6147   3.838   1.397   9.849 -1.8312 -1.7923  0.5457
   50CHL1  H19B 6148   3.846   1.439   9.676 -0.6108 -1.7360 -1.3615
   50CHL1  H19C 6149   3.747   1.300   9.733 -1.1780  1.4564 -1.6426
   50CHL1    C1 6150   3.947   1.134   9.809  0.3772 -0.2903  0.3232
   50CHL1   H1A 6151   3.848   1.083   9.801  0.1831  0.2651 -0.9864
   50CHL1   H1B 6152   4.021   1.053   9.795  2.5988  1.6633  0.2042
   50CHL1    C2 6153   3.963   1.153   9.963 -0.2006 -0.7419 -0.2300
   50CHL1   H2A 6154   3.954   1.053  10.012 -1.1562 -0.8555 -0.6284
   50CHL1   H2B 6155   3.888   1.226  10.001  0.0535 -0.0722 -1.0038
   50CHL1   C20 6156   3.806   1.232   9.044 -0.1542 -0.2635 -0.3465
   50CHL1   H20 6157   3.747   1.325   9.043  0.2220 -0.0198 -1.5406
   50CHL1   C21 6158   3.709   1.120   9.089  0.4868  0.5115  0.6881
   50CHL1  H21A 6159   3.648   1.158   9.174  0.5877 -2.2334  2.0904
   50CHL1  H21B 6160   3.771   1.032   9.117  0.1259 -0.1024 -0.3867
   50CHL1  H21C 6161   3.637   1.104   9.006 -0.9142  1.4952  1.6517
   50CHL1   C22 6162   3.865   1.217   8.902  0.6594 -0.1645 -0.3489
   50CHL1  H22A 6163   3.929   1.307   8.889  1.9844 -0.3992  3.3761
   50CHL1  H22B 6164   3.938   1.134   8.910  0.4139 -0.2732  0.9598
   50CHL1   C23 6165   3.767   1.204   8.786  0.0912 -0.3858  0.1707
   50CHL1  H23A 6166   3.700   1.116   8.787 -0.5312  0.0657 -0.6680
   50CHL1  H23B 6167   3.712   1.301   8.784  1.7581  0.6098  0.3354
   50CHL1   C24 6168   3.855   1.190   8.659 -1.3783  0.2044 -0.7072
   50CHL1  H24A 6169   3.943   1.257   8.673 -2.5511  1.8644 -1.0416
   50CHL1  H24B 6170   3.912   1.096   8.644  1.5597  1.7749 -0.2261
   50CHL1   C25 6171   3.793   1.250   8.537 -0.3575  0.2244  1.2081
   50CHL1   H25 6172   3.757   1.347   8.578  0.5636 -0.4735  3.8629
   50CHL1   C26 6173   3.896   1.271   8.425  0.3325 -0.0263 -0.4469
   50CHL1  H26A 6174   3.988   1.322   8.461 -0.1737  0.8721 -0.4124
   50CHL1  H26B 6175   3.944   1.174   8.397  2.5256  0.2122  2.0573
   50CHL1  H26C 6176   3.862   1.318   8.330  0.7922  0.0936 -0.5555
   50CHL1   C27 6177   3.687   1.158   8.484 -0.5857 -1.2988 -0.5961
   50CHL1  H27A 6178   3.624   1.126   8.570  2.0553 -1.4004  1.4715
   50CHL1  H27B 6179   3.628   1.219   8.413 -0.3099  0.6935  0.8122
   50CHL1  H27C 6180   3.731   1.067   8.438  1.6126 -0.6871  0.1439
   51CHL1    C3 6181   3.259   2.300  10.158  0.0390 -0.4769 -0.4416
   51CHL1    H3 6182   3.166   2.361  10.155 -1.8237 -3.1472 -1.2879
   51CHL1    O3 6183   3.251   2.243  10.292 -0.0434  0.2940 -0.3476
   51CHL1   H3' 6184   3.324   2.181  10.298 -0.9572 -0.7483  4.5041
   51CHL1    C4 6185   3.236   2.193  10.054 -0.0756  0.1245  0.1587
   51CHL1   H4A 6186   3.317   2.119  10.071  0.3577  0.2981 -1.0645
   51CHL1   H4B 6187   3.140   2.140  10.076 -0.8373  0.9490 -1.0725
   51CHL1    C5 6188   3.257   2.241   9.918  0.1816 -0.2554  0.2265
   51CHL1    C6 6189   3.162   2.232   9.825  0.8495 -0.1656  0.3230
   51CHL1    H6 6190   3.072   2.176   9.854  1.3954 -0.3572  1.7249
   51CHL1    C7 6191   3.177   2.273   9.678  0.1743  0.6488 -0.8615
   51CHL1   H7A 6192   3.155   2.181   9.620 -3.1696  1.7837 -1.6026
   51CHL1   H7B 6193   3.096   2.346   9.655 -1.3635 -1.1182 -1.2449
   51CHL1    C8 6194   3.330   2.307   9.645  0.7037  0.2296  0.0240
   51CHL1    H8 6195   3.381   2.209   9.630 -1.1464 -0.7366 -0.1662
   51CHL1   C14 6196   3.338   2.397   9.529  0.4475  0.0116  0.0668
   51CHL1   H14 6197   3.284   2.487   9.566  0.6747 -0.4799  1.6836
   51CHL1   C15 6198   3.267   2.344   9.403 -0.1814 -0.0909 -0.1712
   51CHL1  H15A 6199   3.288   2.237   9.383  2.5647  0.6534 -1.7228
   51CHL1  H15B 6200   3.157   2.361   9.405 -0.4288 -1.5462 -0.3442
   51CHL1   C16 6201   3.326   2.426   9.287  0.3265 -0.1531 -0.1034
   51CHL1  H16A 6202   3.355   2.355   9.207  0.0495  0.1553 -0.4782
   51CHL1  H16B 6203   3.251   2.489   9.236  0.6118 -0.3172 -0.7354
   51CHL1   C17 6204   3.452   2.507   9.350  0.2869  0.8466  0.2549
   51CHL1   H17 6205   3.400   2.602   9.377 -0.0659  0.4555  0.9849
   51CHL1   C13 6206   3.481   2.433   9.481 -0.8111 -0.0495 -0.6617
   51CHL1   C18 6207   3.575   2.310   9.442  0.5306  0.0829 -0.4982
   51CHL1  H18A 6208   3.678   2.341   9.413  1.0607  0.2990  1.4964
   51CHL1  H18B 6209   3.581   2.244   9.531  1.9749 -0.4429 -0.9490
   51CHL1  H18C 6210   3.532   2.251   9.359  0.5437 -0.1078 -0.3702
   51CHL1   C12 6211   3.555   2.515   9.593  0.5366  0.0474 -0.1868
   51CHL1  H12A 6212   3.660   2.528   9.558  0.8414 -2.6487 -0.5110
   51CHL1  H12B 6213   3.507   2.613   9.611  0.5494 -0.3254  2.2637
   51CHL1   C11 6214   3.549   2.435   9.719  0.5037 -0.1785 -0.4650
   51CHL1  H11A 6215   3.619   2.349   9.723 -1.0299 -1.4597  3.5481
   51CHL1  H11B 6216   3.601   2.491   9.800  0.5003  0.2307 -0.7386
   51CHL1    C9 6217   3.404   2.384   9.758 -0.0598  0.8715  0.0818
   51CHL1    H9 6218   3.343   2.475   9.778 -0.4406  0.5584  0.3743
   51CHL1   C10 6219   3.395   2.312   9.895 -0.0178 -0.0320  0.1485
   51CHL1   C19 6220   3.499   2.198   9.902  0.2098  0.1056  0.0613
   51CHL1  H19A 6221   3.514   2.159  10.005 -1.2553 -0.2248  0.1637
   51CHL1  H19B 6222   3.472   2.114   9.835 -0.6692  0.5555 -0.1723
   51CHL1  H19C 6223   3.602   2.240   9.896  0.6236 -0.4365  2.3488
   51CHL1    C1 6224   3.426   2.411  10.008  0.2472  0.5363 -0.3738
   51CHL1   H1A 6225   3.533   2.438   9.998  0.6694 -1.5242 -2.0525
   51CHL1   H1B 6226   3.363   2.501   9.989  0.6252  0.3788 -2.6775
   51CHL1    C2 6227   3.396   2.369  10.153  0.1065 -0.0847  0.0760
   51CHL1   H2A 6228   3.397   2.454  10.225  1.1940 -0.6921  0.8099
   51CHL1   H2B 6229   3.473   2.296  10.185  0.2876  0.0925  0.0440
   51CHL1   C20 6230   3.560   2.542   9.244 -0.1185 -0.3406  0.0770
   51CHL1   H20 6231   3.619   2.452   9.217  0.0131 -0.0096 -0.7744
   51CHL1   C21 6232   3.656   2.642   9.317  0.4380  0.0069  0.5109
   51CHL1  H21A 6233   3.696   2.703   9.233  3.4026 -1.7705  0.5236
   51CHL1  H21B 6234   3.729   2.585   9.377 -0.4804 -0.5135  1.1666
   51CHL1  H21C 6235   3.601   2.718   9.378  0.5357 -1.0898  2.0271
   51CHL1   C22 6236   3.504   2.614   9.118 -0.2681  0.2758 -0.2988
   51CHL1  H22A 6237   3.397   2.589   9.099 -0.5065  1.4899 -0.6396
   51CHL1  H22B 6238   3.490   2.719   9.150 -1.2580  0.0661 -0.0140
   51CHL1   C23 6239   3.588   2.596   8.991  0.1531  0.1134 -0.1194
   51CHL1  H23A 6240   3.697   2.608   9.013 -0.3172  2.4954  1.2053
   51CHL1  H23B 6241   3.568   2.492   8.957 -0.2664 -0.2396  1.1519
   51CHL1   C24 6242   3.540   2.694   8.886 -0.1534  0.2521 -0.2277
   51CHL1  H24A 6243   3.433   2.669   8.867 -0.3718 -0.1719  1.4562
   51CHL1  H24B 6244   3.534   2.797   8.928  1.6677  0.1120  0.4337
   51CHL1   C25 6245   3.619   2.702   8.756 -0.0458  0.5599 -0.3926
   51CHL1   H25 6246   3.647   2.597   8.736  2.1710  1.1334 -0.5134
   51CHL1   C26 6247   3.534   2.756   8.639 -0.0034  0.2401 -0.5617
   51CHL1  H26A 6248   3.585   2.732   8.543  0.4550  1.8094 -0.7455
   51CHL1  H26B 6249   3.434   2.709   8.645  0.3478 -0.7073 -1.8023
   51CHL1  H26C 6250   3.525   2.867   8.643  0.1677  0.2345  0.2941
   51CHL1   C27 6251   3.755   2.767   8.777  0.3552  0.9551  0.3344
   51CHL1  H27A 6252   3.753   2.872   8.813  2.0559  1.7771 -1.7179
   51CHL1  H27B 6253   3.815   2.711   8.852  0.4578  0.5818 -0.0232
   51CHL1  H27C 6254   3.817   2.772   8.685 -0.1081  0.7364  0.0041
   52CHL1    C3 6255   1.932   1.066   9.869 -0.0974 -0.0822  0.5067
   52CHL1    H3 6256   1.980   1.137   9.798 -0.6170 -0.4505 -0.2161
   52CHL1    O3 6257   2.001   1.066   9.997  0.0405 -0.0119  0.0928
   52CHL1   H3' 6258   1.963   1.000  10.056  0.4370 -1.1001 -0.8496
   52CHL1    C4 6259   1.784   1.105   9.893  0.2938  0.2268  0.6869
   52CHL1   H4A 6260   1.750   1.033   9.970 -0.8060  1.9942  1.9279
   52CHL1   H4B 6261   1.780   1.208   9.935  0.2778 -0.0799  1.4537
   52CHL1    C5 6262   1.704   1.093   9.769 -0.5810  0.4126 -0.0767
   52CHL1    C6 6263   1.621   1.186   9.719 -0.2705 -0.2962  0.5550
   52CHL1    H6 6264   1.584   1.271   9.778  0.2880  1.8986 -2.0576
   52CHL1    C7 6265   1.537   1.172   9.596 -0.7292 -0.6220  0.5765
   52CHL1   H7A 6266   1.429   1.193   9.610 -0.2025  1.9876  1.1440
   52CHL1   H7B 6267   1.571   1.257   9.532  0.2366 -1.3848  0.0446
   52CHL1    C8 6268   1.552   1.040   9.516  0.1601 -0.7275  0.0480
   52CHL1    H8 6269   1.482   0.965   9.558  0.4678  0.1098  2.1844
   52CHL1   C14 6270   1.514   1.057   9.374 -0.4414 -0.2471  0.1269
   52CHL1   H14 6271   1.580   1.139   9.338  0.1558 -0.3523  0.9570
   52CHL1   C15 6272   1.373   1.128   9.361 -0.1552 -0.1540  0.0711
   52CHL1  H15A 6273   1.292   1.093   9.429 -0.6874  1.5487  0.3440
   52CHL1  H15B 6274   1.375   1.239   9.354 -1.2640 -0.1501 -0.3239
   52CHL1   C16 6275   1.334   1.086   9.216 -0.1236 -0.4040 -0.7248
   52CHL1  H16A 6276   1.247   1.018   9.207  1.3950 -2.4369 -0.5826
   52CHL1  H16B 6277   1.318   1.176   9.153  2.3387 -1.2509 -2.7121
   52CHL1   C17 6278   1.452   1.007   9.152 -0.0485 -0.4508 -0.8931
   52CHL1   H17 6279   1.531   1.078   9.119 -1.3125  1.2794 -0.3708
   52CHL1   C13 6280   1.510   0.935   9.276 -0.0707  0.0777 -0.3614
   52CHL1   C18 6281   1.407   0.822   9.328 -0.1987 -0.4880 -0.4332
   52CHL1  H18A 6282   1.440   0.775   9.422 -2.1790 -1.9838 -0.4164
   52CHL1  H18B 6283   1.303   0.862   9.320 -0.5167 -1.5988 -3.4726
   52CHL1  H18C 6284   1.400   0.733   9.261 -0.2944 -1.8043  1.2753
   52CHL1   C12 6285   1.662   0.887   9.283 -0.2770 -0.3417 -0.5177
   52CHL1  H12A 6286   1.669   0.788   9.233 -0.0303 -0.5003 -0.1707
   52CHL1  H12B 6287   1.720   0.967   9.232  0.7537  1.0805  2.6841
   52CHL1   C11 6288   1.720   0.860   9.435 -0.5416 -0.8017  0.1217
   52CHL1  H11A 6289   1.675   0.770   9.482 -0.1549  1.0517  4.5556
   52CHL1  H11B 6290   1.827   0.840   9.413 -0.3325  0.5977 -0.2608
   52CHL1    C9 6291   1.698   0.985   9.525  0.1269  0.4778 -0.1634
   52CHL1    H9 6292   1.764   1.070   9.497  1.8127 -1.1805 -1.4620
   52CHL1   C10 6293   1.745   0.967   9.678 -0.3848 -0.3785  0.8377
   52CHL1   C19 6294   1.669   0.835   9.726  0.3113  0.6613 -0.0218
   52CHL1  H19A 6295   1.701   0.741   9.676 -0.2392 -0.2425  1.2608
   52CHL1  H19B 6296   1.687   0.820   9.835  2.1192  2.9675  0.0766
   52CHL1  H19C 6297   1.559   0.845   9.716  0.4837  1.9024 -0.9746
   52CHL1    C1 6298   1.897   0.928   9.670 -1.0828 -0.4886  0.2259
   52CHL1   H1A 6299   1.893   0.823   9.633  0.4862 -0.5332  0.0968
   52CHL1   H1B 6300   1.952   0.999   9.605  1.3817 -0.9844  1.6176
   52CHL1    C2 6301   1.958   0.926   9.809  0.4508 -0.4635  0.2033
   52CHL1   H2A 6302   2.069   0.920   9.812  0.6347  1.5607 -0.9410
   52CHL1   H2B 6303   1.904   0.850   9.869 -0.5786 -0.7042 -1.0050
   52CHL1   C20 6304   1.408   0.922   9.034 -0.2658 -0.3782  0.5069
   52CHL1   H20 6305   1.319   0.869   9.072  0.0966 -1.1139  0.3378
   52CHL1   C21 6306   1.516   0.818   8.996  0.0474 -0.9675  0.3257
   52CHL1  H21A 6307   1.481   0.757   8.910  0.1871  1.4070 -1.5446
   52CHL1  H21B 6308   1.528   0.748   9.081  2.2204 -3.3847 -1.7981
   52CHL1  H21C 6309   1.614   0.863   8.968 -1.2010  1.2625 -0.8010
   52CHL1   C22 6310   1.357   1.015   8.919 -0.0192 -0.5207  0.4466
   52CHL1  H22A 6311   1.284   1.094   8.946  1.0302  0.3520  0.8071
   52CHL1  H22B 6312   1.456   1.057   8.894 -0.3908  0.2506  0.2552
   52CHL1   C23 6313   1.300   0.941   8.796 -0.4357 -0.0206 -0.2304
   52CHL1  H23A 6314   1.383   0.897   8.736 -0.8159 -1.3218  0.1491
   52CHL1  H23B 6315   1.261   0.847   8.841 -0.9302 -0.9814 -2.5166
   52CHL1   C24 6316   1.193   1.021   8.723  0.1342  0.6028  0.0775
   52CHL1  H24A 6317   1.126   1.070   8.796 -0.3656  0.9133 -0.5818
   52CHL1  H24B 6318   1.240   1.097   8.656 -0.4900  0.2897 -0.7309
   52CHL1   C25 6319   1.108   0.917   8.641  0.0583 -0.1256 -0.4871
   52CHL1   H25 6320   1.085   0.837   8.715  0.7882 -0.3654 -0.5063
   52CHL1   C26 6321   0.973   0.993   8.601 -0.1111 -0.7266 -0.3482
   52CHL1  H26A 6322   1.000   1.090   8.554  1.0285 -0.1599  1.3921
   52CHL1  H26B 6323   0.910   0.927   8.537 -1.5005  0.4516 -0.2435
   52CHL1  H26C 6324   0.912   1.014   8.691  1.1377 -2.5046  0.9928
   52CHL1   C27 6325   1.182   0.850   8.519  0.8002  0.0036 -0.1110
   52CHL1  H27A 6326   1.286   0.815   8.532  0.7266  0.1804  1.0180
   52CHL1  H27B 6327   1.126   0.762   8.481 -0.7131  1.8338 -2.4619
   52CHL1  H27C 6328   1.187   0.924   8.437 -0.7868  0.5509  0.2442
   53CHL1    C3 6329   2.571   2.074   9.926  0.7642 -0.8191  0.4170
   53CHL1    H3 6330   2.585   1.964   9.920 -0.2186 -1.1192  2.4686
   53CHL1    O3 6331   2.556   2.108  10.058  0.1277  0.8041  0.2687
   53CHL1   H3' 6332   2.531   2.200  10.061 -0.5172  0.6281  0.3136
   53CHL1    C4 6333   2.692   2.152   9.866  0.2483  0.0879 -0.6142
   53CHL1   H4A 6334   2.664   2.259   9.874 -0.3962 -0.0755 -0.6561
   53CHL1   H4B 6335   2.787   2.133   9.921 -0.7266 -1.1956  0.7126
   53CHL1    C5 6336   2.709   2.128   9.720 -0.3870 -0.6384 -0.2514
   53CHL1    C6 6337   2.824   2.079   9.673 -0.0695 -0.3403  0.4286
   53CHL1    H6 6338   2.904   2.053   9.744 -0.3244 -1.2682  0.3932
   53CHL1    C7 6339   2.858   2.060   9.525  0.1690 -0.4195 -0.5530
   53CHL1   H7A 6340   2.959   2.075   9.483 -0.0942  1.2787 -0.6347
   53CHL1   H7B 6341   2.839   1.951   9.519 -0.3929 -0.4328  0.8664
   53CHL1    C8 6342   2.753   2.126   9.437  0.7420  0.4289 -0.2107
   53CHL1    H8 6343   2.782   2.233   9.434  0.9831  0.3906  0.6411
   53CHL1   C14 6344   2.769   2.077   9.297  0.3875  0.9700 -0.6105
   53CHL1   H14 6345   2.755   1.967   9.303  3.7187  0.5050  0.4660
   53CHL1   C15 6346   2.896   2.100   9.210 -0.0028  0.3158  0.7900
   53CHL1  H15A 6347   2.920   2.206   9.231 -2.5810  1.0526  0.3629
   53CHL1  H15B 6348   2.989   2.046   9.237 -0.1122 -0.6891 -0.7485
   53CHL1   C16 6349   2.854   2.057   9.069  0.1745  0.4264  0.2569
   53CHL1  H16A 6350   2.884   2.139   9.000 -0.3560  1.9563  1.7777
   53CHL1  H16B 6351   2.899   1.962   9.034 -0.7477 -0.6079  1.7886
   53CHL1   C17 6352   2.700   2.046   9.060 -0.3782 -0.3068 -0.6623
   53CHL1   H17 6353   2.668   1.942   9.081 -0.0793  0.0055  1.5898
   53CHL1   C13 6354   2.660   2.118   9.200  0.3791 -0.5536 -0.2177
   53CHL1   C18 6355   2.654   2.270   9.192 -0.2246 -1.0007  0.7489
   53CHL1  H18A 6356   2.566   2.314   9.141  0.3100  2.6256  2.5833
   53CHL1  H18B 6357   2.660   2.324   9.289  1.5411  0.8734 -0.3181
   53CHL1  H18C 6358   2.739   2.309   9.132 -2.5846  0.9515 -1.6020
   53CHL1   C12 6359   2.526   2.071   9.257  0.2265 -0.5408  0.1053
   53CHL1  H12A 6360   2.440   2.092   9.190 -1.2158  1.4991  2.4317
   53CHL1  H12B 6361   2.539   1.965   9.287  2.7184  0.1690  1.8568
   53CHL1   C11 6362   2.500   2.142   9.393  0.6375 -0.6190  0.0792
   53CHL1  H11A 6363   2.492   2.251   9.371 -3.4552 -1.3613 -3.4999
   53CHL1  H11B 6364   2.402   2.108   9.431  1.1993 -0.8371  1.3906
   53CHL1    C9 6365   2.607   2.104   9.489  0.2544 -0.1912 -0.0790
   53CHL1    H9 6366   2.603   1.993   9.495 -0.9301 -0.0761  3.4206
   53CHL1   C10 6367   2.587   2.152   9.633  0.9547  0.2116  0.4137
   53CHL1   C19 6368   2.558   2.314   9.622  0.3053  0.0722  0.2083
   53CHL1  H19A 6369   2.458   2.328   9.577  0.4025  0.2697  0.0518
   53CHL1  H19B 6370   2.560   2.371   9.718  1.9084  0.0482  0.2194
   53CHL1  H19C 6371   2.629   2.357   9.547  0.3409 -0.6784 -0.1934
   53CHL1    C1 6372   2.458   2.086   9.698  0.1058 -0.3018  0.1543
   53CHL1   H1A 6373   2.377   2.128   9.634 -0.8306 -1.0916  0.7814
   53CHL1   H1B 6374   2.457   1.978   9.673 -1.9612 -0.1609 -0.6055
   53CHL1    C2 6375   2.442   2.106   9.851  0.4306 -0.4236  0.5059
   53CHL1   H2A 6376   2.347   2.050   9.863  0.5201 -0.1479  2.8357
   53CHL1   H2B 6377   2.407   2.211   9.855 -1.7374 -0.7354 -3.8867
   53CHL1   C20 6378   2.644   2.098   8.929  0.8126  0.5185  0.3834
   53CHL1   H20 6379   2.679   2.203   8.922  1.7209  0.1621 -0.8053
   53CHL1   C21 6380   2.490   2.079   8.917 -0.5551  0.0476  0.8058
   53CHL1  H21A 6381   2.455   2.180   8.943 -0.6165 -0.0743  1.1953
   53CHL1  H21B 6382   2.458   2.006   8.994  2.4836  0.3463  2.5186
   53CHL1  H21C 6383   2.464   2.060   8.810  3.1804  0.6111 -0.3588
   53CHL1   C22 6384   2.707   2.023   8.807 -0.1495 -0.2081 -0.0969
   53CHL1  H22A 6385   2.659   2.064   8.716 -1.8231 -1.2553  0.2622
   53CHL1  H22B 6386   2.813   2.056   8.800 -0.2129  0.5320  1.8740
   53CHL1   C23 6387   2.695   1.870   8.810  0.4522  0.4175  0.3053
   53CHL1  H23A 6388   2.768   1.825   8.880  0.6557 -0.7642 -0.6237
   53CHL1  H23B 6389   2.594   1.835   8.840  0.0119  2.4224  1.2767
   53CHL1   C24 6390   2.734   1.818   8.670 -0.2565 -0.3143  0.7904
   53CHL1  H24A 6391   2.676   1.882   8.600 -0.5844  0.1316  1.4580
   53CHL1  H24B 6392   2.839   1.850   8.654 -0.8125  1.9028  1.1190
   53CHL1   C25 6393   2.716   1.664   8.640 -0.3783 -0.3036  0.3338
   53CHL1   H25 6394   2.757   1.609   8.727  3.4393  1.2844 -0.2637
   53CHL1   C26 6395   2.568   1.643   8.611 -0.4520 -0.4562  0.1139
   53CHL1  H26A 6396   2.525   1.686   8.518 -0.6059  0.9710  0.8211
   53CHL1  H26B 6397   2.545   1.534   8.606 -0.1953 -0.5553  0.9231
   53CHL1  H26C 6398   2.501   1.679   8.691 -1.2674  0.3978 -0.9155
   53CHL1   C27 6399   2.794   1.613   8.514  1.1841  0.1462  0.1669
   53CHL1  H27A 6400   2.903   1.631   8.526  1.1661  1.5336 -1.3105
   53CHL1  H27B 6401   2.775   1.505   8.494 -1.3712  0.5558  0.0027
   53CHL1  H27C 6402   2.758   1.657   8.418 -1.7533 -0.6825  0.7771
   54CHL1    C3 6403   2.231   2.968  10.245 -0.3892  0.2011 -0.0005
   54CHL1    H3 6404   2.302   2.894  10.202 -4.4623 -3.4218 -1.2759
   54CHL1    O3 6405   2.246   2.978  10.379  0.3102  0.6430 -0.4642
   54CHL1   H3' 6406   2.200   3.057  10.408 -2.5006 -0.3485 -1.7853
   54CHL1    C4 6407   2.246   3.104  10.182 -0.0480 -0.2345 -0.1766
   54CHL1   H4A 6408   2.176   3.170  10.237  1.2415 -0.7522  2.2452
   54CHL1   H4B 6409   2.346   3.144  10.208  0.2217 -1.6578  1.1213
   54CHL1    C5 6410   2.195   3.115  10.036 -0.2634  0.4115  0.0274
   54CHL1    C6 6411   2.268   3.166   9.938  0.7576  0.0540  0.1605
   54CHL1    H6 6412   2.361   3.213   9.973  0.0587  1.8106 -0.2502
   54CHL1    C7 6413   2.232   3.173   9.791 -0.1251 -0.2723  0.7183
   54CHL1   H7A 6414   2.253   3.275   9.753 -1.8845 -0.1911 -0.1487
   54CHL1   H7B 6415   2.293   3.106   9.726 -1.2306  0.8953 -1.6607
   54CHL1    C8 6416   2.092   3.131   9.762 -0.4376 -0.7926 -0.3944
   54CHL1    H8 6417   2.026   3.216   9.789 -0.5596 -1.3622  1.2120
   54CHL1   C14 6418   2.081   3.097   9.614 -0.0394 -0.0955  0.5869
   54CHL1   H14 6419   2.145   3.008   9.595  0.9629  1.0069 -1.5092
   54CHL1   C15 6420   2.123   3.202   9.515  0.4758  0.1912  0.3229
   54CHL1  H15A 6421   2.062   3.288   9.550 -0.3998  0.3765 -1.5579
   54CHL1  H15B 6422   2.232   3.223   9.516  0.4605  0.2627  0.9714
   54CHL1   C16 6423   2.057   3.162   9.388 -0.1290 -0.3484 -0.0048
   54CHL1  H16A 6424   2.004   3.248   9.341  1.7128  0.2351 -1.0884
   54CHL1  H16B 6425   2.134   3.147   9.310  2.3659  2.3820  1.7720
   54CHL1   C17 6426   1.969   3.037   9.414 -0.4300 -0.3062  0.3827
   54CHL1   H17 6427   2.039   2.952   9.402  1.1627  0.9813  0.2639
   54CHL1   C13 6428   1.946   3.050   9.564 -0.0455 -1.0390 -0.6045
   54CHL1   C18 6429   1.843   3.162   9.599  0.5980  0.1646  0.4440
   54CHL1  H18A 6430   1.743   3.121   9.575  0.9871 -1.0902  0.8677
   54CHL1  H18B 6431   1.839   3.192   9.706 -1.3307 -1.5104  0.9103
   54CHL1  H18C 6432   1.870   3.255   9.546  2.5286 -0.4581  0.2489
   54CHL1   C12 6433   1.907   2.928   9.653  0.5881  0.0432 -0.2956
   54CHL1  H12A 6434   1.805   2.888   9.633  0.0348  0.1770  1.9958
   54CHL1  H12B 6435   1.988   2.854   9.635  0.2157 -0.4299 -0.0420
   54CHL1   C11 6436   1.912   2.945   9.810 -0.8451 -0.2141 -0.2791
   54CHL1  H11A 6437   1.831   3.008   9.853  0.5406  0.0236  2.1303
   54CHL1  H11B 6438   1.909   2.839   9.843 -0.6042 -0.3301 -0.6210
   54CHL1    C9 6439   2.051   3.009   9.852  0.6847 -0.1348  0.4576
   54CHL1    H9 6440   2.124   2.929   9.829  1.4752  0.9641 -1.0233
   54CHL1   C10 6441   2.068   3.037  10.005  0.2846  0.3307 -0.0144
   54CHL1   C19 6442   1.958   3.129  10.058  0.3582 -0.5095 -0.2166
   54CHL1  H19A 6443   1.933   3.219   9.998 -0.6726 -3.1651 -4.1309
   54CHL1  H19B 6444   1.859   3.079  10.070 -0.5985  1.6487  1.7772
   54CHL1  H19C 6445   1.990   3.168  10.157  0.3986  1.3105 -0.9100
   54CHL1    C1 6446   2.055   2.903  10.075  0.1386  0.1436  0.2401
   54CHL1   H1A 6447   1.953   2.858  10.068  0.2938 -0.1800  0.0592
   54CHL1   H1B 6448   2.123   2.838  10.017  1.1459  1.5690 -0.2259
   54CHL1    C2 6449   2.092   2.906  10.218  0.0588 -0.6373 -0.4788
   54CHL1   H2A 6450   2.101   2.804  10.260 -1.0341 -0.0736  1.2359
   54CHL1   H2B 6451   2.007   2.958  10.266  1.6503  1.5675  0.1055
   54CHL1   C20 6452   1.855   3.022   9.318  0.6909  0.1094 -0.0017
   54CHL1   H20 6453   1.778   3.102   9.334  0.7132 -0.5443  5.0042
   54CHL1   C21 6454   1.764   2.900   9.347 -0.4573  0.1704 -0.1533
   54CHL1  H21A 6455   1.711   2.913   9.444  0.5264  0.0983  0.4035
   54CHL1  H21B 6456   1.826   2.808   9.339  0.7997  1.1106 -2.3111
   54CHL1  H21C 6457   1.683   2.896   9.271 -1.0855 -1.5928  0.5694
   54CHL1   C22 6458   1.891   3.015   9.166  0.7701  0.1123 -0.1016
   54CHL1  H22A 6459   1.957   3.101   9.143 -0.3145  1.0925  0.3604
   54CHL1  H22B 6460   1.947   2.920   9.153 -1.6738 -1.8468  2.5713
   54CHL1   C23 6461   1.768   3.022   9.067 -0.8496  0.2070 -0.5250
   54CHL1  H23A 6462   1.709   2.929   9.079  2.1775 -2.2219 -2.6236
   54CHL1  H23B 6463   1.704   3.107   9.097  0.5729  0.5744  1.6672
   54CHL1   C24 6464   1.817   3.018   8.923 -0.7051  0.1590 -1.6049
   54CHL1  H24A 6465   1.877   3.108   8.897 -0.9322  0.0267 -2.6279
   54CHL1  H24B 6466   1.887   2.933   8.915 -0.2618  0.5218 -1.6276
   54CHL1   C25 6467   1.701   3.005   8.823 -0.9092  0.2429  0.6983
   54CHL1   H25 6468   1.647   2.910   8.845  1.1167 -1.4849 -1.2585
   54CHL1   C26 6469   1.620   3.136   8.835  0.3403 -0.5326  0.0684
   54CHL1  H26A 6470   1.684   3.227   8.838 -2.1747  1.3377  0.8013
   54CHL1  H26B 6471   1.553   3.154   8.748  0.2402  3.4107  0.7728
   54CHL1  H26C 6472   1.552   3.124   8.923  1.9604 -5.3129  0.9378
   54CHL1   C27 6473   1.742   2.994   8.672  0.4933 -0.1431  0.4020
   54CHL1  H27A 6474   1.754   3.096   8.631  3.2499 -0.4505  0.2505
   54CHL1  H27B 6475   1.842   2.947   8.673  1.2716  1.4268 -0.3604
   54CHL1  H27C 6476   1.659   2.940   8.621  0.6525  1.5614 -1.7819
   55CHL1    C3 6477   3.082   1.084  10.053 -0.2143  0.8128  0.6781
   55CHL1    H3 6478   3.170   1.053   9.992 -1.3392  2.0517 -1.6957
   55CHL1    O3 6479   3.123   1.113  10.182  0.2446 -0.3594  0.1928
   55CHL1   H3' 6480   3.044   1.101  10.235  0.0646 -1.4570 -0.3029
   55CHL1    C4 6481   3.026   1.210   9.990 -0.0678  0.1093  0.3768
   55CHL1   H4A 6482   2.934   1.232  10.048  1.4909  0.4527  2.8766
   55CHL1   H4B 6483   3.089   1.302   9.996  0.9821 -0.4474 -1.4001
   55CHL1    C5 6484   2.999   1.176   9.843  0.1149  0.0335 -0.4725
   55CHL1    C6 6485   3.054   1.250   9.748  0.2577  0.8222 -0.0281
   55CHL1    H6 6486   3.115   1.339   9.771 -0.2578  1.4340 -0.9552
   55CHL1    C7 6487   3.017   1.227   9.600 -0.7426 -0.1822 -0.4295
   55CHL1   H7A 6488   3.009   1.329   9.556  0.2381  0.0860 -0.0166
   55CHL1   H7B 6489   3.106   1.180   9.553 -0.9656 -0.4204 -0.6133
   55CHL1    C8 6490   2.897   1.135   9.567  0.0875 -0.1768 -0.4842
   55CHL1    H8 6491   2.805   1.197   9.573 -0.1830 -0.6359  0.2346
   55CHL1   C14 6492   2.900   1.074   9.424 -0.5367  0.0579 -0.6322
   55CHL1   H14 6493   2.996   1.019   9.424  0.9961  2.5148  1.8031
   55CHL1   C15 6494   2.930   1.166   9.302 -0.1252 -0.1819  0.2815
   55CHL1  H15A 6495   2.871   1.259   9.319 -0.3632 -0.6774  2.4560
   55CHL1  H15B 6496   3.037   1.185   9.281 -0.3292 -0.8510 -1.6071
   55CHL1   C16 6497   2.878   1.083   9.185 -0.2967  0.3766  0.0432
   55CHL1  H16A 6498   2.808   1.141   9.121 -1.7623 -1.4467 -0.1298
   55CHL1  H16B 6499   2.954   1.049   9.111 -1.6814 -1.6281 -0.5641
   55CHL1   C17 6500   2.803   0.951   9.239 -0.3615  0.3867  0.1855
   55CHL1   H17 6501   2.883   0.873   9.237 -0.4132  0.3296 -1.7592
   55CHL1   C13 6502   2.785   0.988   9.392 -0.0036  1.3687 -0.3816
   55CHL1   C18 6503   2.653   1.073   9.403  0.1308 -0.3692  0.2994
   55CHL1  H18A 6504   2.558   1.017   9.392 -0.5122  0.6683  0.4402
   55CHL1  H18B 6505   2.650   1.120   9.503 -1.6481  1.2845 -0.4755
   55CHL1  H18C 6506   2.656   1.152   9.325  1.4965  0.1382  0.8449
   55CHL1   C12 6507   2.782   0.862   9.487  0.2241 -0.3260  0.5419
   55CHL1  H12A 6508   2.694   0.795   9.470 -0.0247  0.3600 -1.0704
   55CHL1  H12B 6509   2.867   0.797   9.455 -0.0414 -1.6451  2.3482
   55CHL1   C11 6510   2.778   0.912   9.636 -0.1872 -0.1909 -0.0907
   55CHL1  H11A 6511   2.680   0.958   9.657  0.4822  1.2074  0.0804
   55CHL1  H11B 6512   2.790   0.823   9.701  1.9106  0.3551  0.3479
   55CHL1    C9 6513   2.893   1.018   9.664 -0.2087  0.1032 -0.3461
   55CHL1    H9 6514   2.981   0.954   9.646  1.3670  1.8798  0.7246
   55CHL1   C10 6515   2.907   1.054   9.814 -0.1259 -0.6661  0.5379
   55CHL1   C19 6516   2.764   1.095   9.865  0.3094 -0.3514  0.8440
   55CHL1  H19A 6517   2.731   1.177   9.799  1.5649 -0.0242  0.5915
   55CHL1  H19B 6518   2.687   1.016   9.848 -1.9761  2.0888 -0.8919
   55CHL1  H19C 6519   2.760   1.113   9.975 -1.1643 -0.7103  0.8618
   55CHL1    C1 6520   2.956   0.936   9.897  0.1042 -0.6169  0.3642
   55CHL1   H1A 6521   2.877   0.859   9.888 -0.1660 -0.1799 -1.2629
   55CHL1   H1B 6522   3.052   0.898   9.855  0.5997 -0.0531  0.9482
   55CHL1    C2 6523   2.978   0.971  10.045 -0.7420  0.4875 -0.5403
   55CHL1   H2A 6524   3.024   0.885  10.099 -0.4564  0.5286 -0.7145
   55CHL1   H2B 6525   2.885   1.001  10.098  1.0210  3.3181  1.1936
   55CHL1   C20 6526   2.685   0.902   9.157 -0.0628  0.7241  0.8042
   55CHL1   H20 6527   2.600   0.972   9.143  0.5657  1.1101 -1.4540
   55CHL1   C21 6528   2.631   0.765   9.204 -0.1347 -0.4342 -0.5900
   55CHL1  H21A 6529   2.561   0.718   9.132  0.3020 -2.0658  0.0249
   55CHL1  H21B 6530   2.579   0.767   9.302 -1.7290 -2.0301 -1.3661
   55CHL1  H21C 6531   2.720   0.706   9.234  0.7813  0.9086 -0.5500
   55CHL1   C22 6532   2.740   0.897   9.005  0.2745  0.5199  0.7777
   55CHL1  H22A 6533   2.762   1.005   8.986 -1.3631  0.8141  0.4186
   55CHL1  H22B 6534   2.837   0.842   9.007 -0.9438 -1.7624 -0.1700
   55CHL1   C23 6535   2.644   0.840   8.906  0.6114  0.1634 -0.4157
   55CHL1  H23A 6536   2.643   0.730   8.913  1.1059  0.2722  2.0121
   55CHL1  H23B 6537   2.542   0.879   8.928  1.0886  0.5643  1.1786
   55CHL1   C24 6538   2.677   0.874   8.759  1.0278  0.2841  0.3681
   55CHL1  H24A 6539   2.641   0.979   8.757 -0.9789 -0.3475  0.0561
   55CHL1  H24B 6540   2.787   0.872   8.744  0.6508 -0.8924 -3.0332
   55CHL1   C25 6541   2.596   0.794   8.657 -0.4648  0.8785  0.1237
   55CHL1   H25 6542   2.613   0.844   8.560  1.5795 -0.0898 -0.0685
   55CHL1   C26 6543   2.666   0.659   8.637  0.0830 -0.1675 -0.0763
   55CHL1  H26A 6544   2.610   0.599   8.561  2.2131  0.3583 -2.1642
   55CHL1  H26B 6545   2.771   0.668   8.603  0.5011  0.2676  1.2828
   55CHL1  H26C 6546   2.648   0.609   8.735 -3.4848  1.8863  0.5349
   55CHL1   C27 6547   2.443   0.787   8.670  0.3511  0.6083 -0.7725
   55CHL1  H27A 6548   2.416   0.765   8.775 -1.2306  0.1784 -1.2473
   55CHL1  H27B 6549   2.402   0.886   8.641  0.3499  1.2587  1.2975
   55CHL1  H27C 6550   2.409   0.705   8.604 -2.2216  1.1727 -0.2761
   56CHL1    C3 6551   0.008   6.694  10.125 -0.0920  0.5482  0.9442
   56CHL1    H3 6552  -0.094   6.685  10.082 -0.1530  0.1187  1.1772
   56CHL1    O3 6553  -0.012   6.727  10.257  0.6660 -0.0330 -0.0373
   56CHL1   H3' 6554   0.073   6.697  10.290  2.2364  0.2801 -3.3902
   56CHL1    C4 6555   0.091   6.563  10.118 -0.1678  0.2608 -0.4071
   56CHL1   H4A 6556   0.181   6.587  10.178 -0.4092 -1.0327  0.5309
   56CHL1   H4B 6557   0.039   6.483  10.175 -0.4699  0.3163 -0.6012
   56CHL1    C5 6558   0.121   6.515   9.980 -0.0497  0.1241  0.2179
   56CHL1    C6 6559   0.090   6.390   9.944  0.0462 -1.0786  0.8035
   56CHL1    H6 6560   0.033   6.324  10.013  1.0640 -2.4419  0.3922
   56CHL1    C7 6561   0.119   6.332   9.805 -0.3108  0.0830 -0.3838
   56CHL1   H7A 6562   0.146   6.225   9.822 -0.2860  0.5998  3.9375
   56CHL1   H7B 6563   0.023   6.332   9.750 -0.8833  1.8631  0.5629
   56CHL1    C8 6564   0.226   6.412   9.734  0.1554  0.2326  0.4598
   56CHL1    H8 6565   0.322   6.380   9.778  0.7113 -1.0073 -1.5027
   56CHL1   C14 6566   0.234   6.365   9.585  0.2843  0.2628 -0.2683
   56CHL1   H14 6567   0.137   6.387   9.534 -0.4310 -2.0469 -0.0501
   56CHL1   C15 6568   0.249   6.217   9.549 -0.0725  0.3298 -0.3480
   56CHL1  H15A 6569   0.317   6.178   9.629 -0.0181  1.3839  0.1418
   56CHL1  H15B 6570   0.149   6.169   9.559  0.3086 -0.4430 -0.1378
   56CHL1   C16 6571   0.299   6.212   9.407 -0.6397  0.7163 -0.4629
   56CHL1  H16A 6572   0.388   6.147   9.394  0.3203  2.1291 -1.1856
   56CHL1  H16B 6573   0.224   6.167   9.339 -0.1842  2.3755 -2.1551
   56CHL1   C17 6574   0.345   6.360   9.370  0.5101  0.0044  0.1615
   56CHL1   H17 6575   0.257   6.399   9.314 -1.2154 -0.7118  2.2009
   56CHL1   C13 6576   0.340   6.441   9.505 -0.2704  0.3963 -0.3227
   56CHL1   C18 6577   0.487   6.421   9.565 -0.2622 -0.1298  0.1653
   56CHL1  H18A 6578   0.501   6.449   9.671 -2.2539 -0.2089  0.4994
   56CHL1  H18B 6579   0.515   6.314   9.563  0.0001 -0.0961  1.4681
   56CHL1  H18C 6580   0.561   6.484   9.512  1.7063 -1.5915  1.0817
   56CHL1   C12 6581   0.283   6.585   9.501 -0.3318 -0.4671  0.3421
   56CHL1  H12A 6582   0.354   6.648   9.442 -0.3953 -1.6642 -1.0674
   56CHL1  H12B 6583   0.187   6.572   9.446 -1.5252  0.2524  2.1776
   56CHL1   C11 6584   0.278   6.650   9.637 -0.2956 -0.2607  0.2308
   56CHL1  H11A 6585   0.382   6.664   9.673 -1.2286  3.5794  1.8590
   56CHL1  H11B 6586   0.247   6.756   9.632  2.4408  0.5519 -2.1731
   56CHL1    C9 6587   0.197   6.565   9.741 -0.4288  0.7314 -0.4038
   56CHL1    H9 6588   0.094   6.572   9.700 -0.0468 -0.1578 -1.5471
   56CHL1   C10 6589   0.196   6.619   9.885 -0.5352  0.5644 -0.7117
   56CHL1   C19 6590   0.341   6.633   9.938 -0.8252  0.1174  0.0867
   56CHL1  H19A 6591   0.405   6.545   9.914  2.3364  1.9458  1.2878
   56CHL1  H19B 6592   0.377   6.729   9.898  0.6256 -0.4382 -0.0137
   56CHL1  H19C 6593   0.349   6.643  10.049 -1.5006 -1.4527  0.3055
   56CHL1    C1 6594   0.120   6.754   9.895 -0.4116  0.3868  0.2647
   56CHL1   H1A 6595   0.191   6.824   9.847 -0.9719  2.3216  2.1096
   56CHL1   H1B 6596   0.040   6.751   9.818  1.1806 -1.8545 -1.4644
   56CHL1    C2 6597   0.084   6.799  10.043  0.5930 -0.2646  0.2564
   56CHL1   H2A 6598   0.026   6.894  10.035  0.5143 -0.4192 -1.3888
   56CHL1   H2B 6599   0.181   6.827  10.090 -0.0570 -0.2115  1.6192
   56CHL1   C20 6600   0.460   6.363   9.270  0.6548  0.0471  0.1602
   56CHL1   H20 6601   0.549   6.325   9.325 -0.8430 -0.8747  2.0290
   56CHL1   C21 6602   0.491   6.508   9.230  0.3179  0.0762  0.2896
   56CHL1  H21A 6603   0.523   6.569   9.318  1.0854  1.9427 -1.2210
   56CHL1  H21B 6604   0.402   6.556   9.184  0.6052 -0.3681 -0.7484
   56CHL1  H21C 6605   0.568   6.514   9.151  1.9016  1.6267  1.8345
   56CHL1   C22 6606   0.427   6.277   9.147 -0.1295  0.1767 -0.2099
   56CHL1  H22A 6607   0.404   6.171   9.167  0.9547 -0.3242 -1.4709
   56CHL1  H22B 6608   0.342   6.325   9.094  1.0497  1.3566 -1.1063
   56CHL1   C23 6609   0.535   6.275   9.034 -0.1358  0.0148 -0.3901
   56CHL1  H23A 6610   0.557   6.369   8.979  0.1814  1.3438  1.8468
   56CHL1  H23B 6611   0.634   6.236   9.069  1.4891  1.5425 -2.9436
   56CHL1   C24 6612   0.491   6.182   8.918 -0.3698  0.1981 -0.0256
   56CHL1  H24A 6613   0.457   6.081   8.950  1.3218 -0.5198 -0.3954
   56CHL1  H24B 6614   0.397   6.233   8.888 -2.3655 -2.0545  1.9556
   56CHL1   C25 6615   0.586   6.173   8.795  0.4110 -0.3216 -0.4326
   56CHL1   H25 6616   0.598   6.281   8.770 -2.6354  0.0993 -0.5527
   56CHL1   C26 6617   0.727   6.108   8.814 -0.2700 -0.1844 -0.8116
   56CHL1  H26A 6618   0.793   6.122   8.726  2.3620 -0.2119  1.0289
   56CHL1  H26B 6619   0.779   6.153   8.901  0.1156 -0.6502 -0.7948
   56CHL1  H26C 6620   0.721   6.000   8.839  1.6633  0.2763  2.1531
   56CHL1   C27 6621   0.523   6.107   8.675  0.9149  0.2478 -0.1439
   56CHL1  H27A 6622   0.594   6.093   8.590 -0.9170 -0.9904 -1.5688
   56CHL1  H27B 6623   0.469   6.016   8.710 -1.0567  1.5521  0.3554
   56CHL1  H27C 6624   0.442   6.172   8.637 -0.0431 -0.7171  0.2057
   57CHL1    C3 6625   2.328   1.777  10.135 -0.0668  0.6629 -0.4437
   57CHL1    H3 6626   2.328   1.886  10.110 -0.6225  0.7699  0.0176
   57CHL1    O3 6627   2.381   1.755  10.262 -0.1550 -0.4971  0.4411
   57CHL1   H3' 6628   2.320   1.810  10.311 -0.6392  0.3950 -1.1017
   57CHL1    C4 6629   2.183   1.731  10.146 -0.4882  0.3896  0.0698
   57CHL1   H4A 6630   2.158   1.647  10.214  0.3298  0.2724  0.2462
   57CHL1   H4B 6631   2.129   1.808  10.206  0.8383 -0.7514  2.8986
   57CHL1    C5 6632   2.113   1.708  10.012 -0.0727  0.2836 -0.2435
   57CHL1    C6 6633   1.996   1.768   9.985  0.0299 -0.8033  0.4909
   57CHL1    H6 6634   1.943   1.816  10.069 -1.7293 -0.8051 -0.5674
   57CHL1    C7 6635   1.920   1.760   9.857  0.0120 -0.2807  0.4119
   57CHL1   H7A 6636   1.811   1.745   9.872 -0.1590  0.4286 -0.0810
   57CHL1   H7B 6637   1.934   1.852   9.797  2.5348 -1.0494 -0.3051
   57CHL1    C8 6638   1.980   1.645   9.777  0.6410  0.2208  0.0812
   57CHL1    H8 6639   1.953   1.543   9.813  0.5733  0.5216  0.9074
   57CHL1   C14 6640   1.926   1.659   9.636  0.0416  0.1484  0.6058
   57CHL1   H14 6641   1.977   1.751   9.600  1.2442 -0.6950  0.1109
   57CHL1   C15 6642   1.772   1.674   9.619  0.0636 -0.2728  0.0593
   57CHL1  H15A 6643   1.720   1.598   9.681  0.2207 -1.2173 -0.9523
   57CHL1  H15B 6644   1.736   1.775   9.649  2.3957  0.6167  0.1294
   57CHL1   C16 6645   1.748   1.630   9.469 -0.1089 -0.3434 -0.0247
   57CHL1  H16A 6646   1.695   1.533   9.482  0.0264 -0.3612  0.4262
   57CHL1  H16B 6647   1.693   1.707   9.411 -1.3404 -0.0901  1.4034
   57CHL1   C17 6648   1.893   1.606   9.409 -0.2274 -0.0706  0.2098
   57CHL1   H17 6649   1.930   1.705   9.376 -0.7199 -0.2615 -0.9524
   57CHL1   C13 6650   1.972   1.559   9.529  0.1196 -0.7961 -0.2783
   57CHL1   C18 6651   1.921   1.414   9.573 -0.7115 -0.3382  0.3345
   57CHL1  H18A 6652   1.814   1.409   9.603 -0.5704  0.1121  0.9590
   57CHL1  H18B 6653   1.948   1.340   9.495  0.4435  1.0370 -0.6156
   57CHL1  H18C 6654   1.983   1.380   9.658 -1.4620  0.2928  1.1628
   57CHL1   C12 6655   2.127   1.562   9.524  0.3032 -0.1331  0.6628
   57CHL1  H12A 6656   2.164   1.492   9.446  0.1428  3.3282 -2.8116
   57CHL1  H12B 6657   2.157   1.661   9.484 -0.3066  1.0467  2.9450
   57CHL1   C11 6658   2.192   1.547   9.660 -0.3548  0.2867 -0.2744
   57CHL1  H11A 6659   2.177   1.440   9.684 -0.9490  0.5614  0.6418
   57CHL1  H11B 6660   2.298   1.568   9.638 -0.5411  1.4673 -0.1294
   57CHL1    C9 6661   2.134   1.644   9.772 -0.4564  0.6654  0.0880
   57CHL1    H9 6662   2.159   1.748   9.744 -1.3632  0.4283 -1.6972
   57CHL1   C10 6663   2.192   1.623   9.909 -0.0947  0.2062 -0.2967
   57CHL1   C19 6664   2.199   1.473   9.945  0.0289 -0.6466  0.2621
   57CHL1  H19A 6665   2.098   1.428   9.940  0.4823 -1.5534 -1.7561
   57CHL1  H19B 6666   2.264   1.423   9.871 -1.6869 -0.0619 -1.7320
   57CHL1  H19C 6667   2.230   1.442  10.048 -1.5465  0.8787  1.2410
   57CHL1    C1 6668   2.337   1.673   9.903  0.0888 -0.2458  0.0780
   57CHL1   H1A 6669   2.397   1.607   9.837  0.1559  1.6745 -1.8755
   57CHL1   H1B 6670   2.339   1.773   9.855 -0.9308 -0.2572 -0.0117
   57CHL1    C2 6671   2.415   1.693  10.033 -0.1577  0.2110  0.4369
   57CHL1   H2A 6672   2.516   1.740  10.024 -0.0290  0.2694  1.8874
   57CHL1   H2B 6673   2.428   1.593  10.079  1.9876  0.4023  0.3793
   57CHL1   C20 6674   1.897   1.513   9.281 -0.4288 -0.1070  0.0631
   57CHL1   H20 6675   1.920   1.406   9.301 -1.0482  0.0043  1.4828
   57CHL1   C21 6676   2.014   1.571   9.192 -0.2489  0.6837  0.0548
   57CHL1  H21A 6677   2.022   1.681   9.200 -0.3865  0.7627 -0.8341
   57CHL1  H21B 6678   2.005   1.542   9.086  2.1248 -0.8433  0.1988
   57CHL1  H21C 6679   2.109   1.531   9.235 -0.7873  0.2578  0.8725
   57CHL1   C22 6680   1.773   1.507   9.196  0.1087 -0.4796  0.5863
   57CHL1  H22A 6681   1.678   1.498   9.254  0.2844  1.4906  1.2661
   57CHL1  H22B 6682   1.761   1.603   9.141  2.6607 -0.6453 -0.3882
   57CHL1   C23 6683   1.761   1.378   9.104  0.6434 -0.6095  0.0723
   57CHL1  H23A 6684   1.837   1.385   9.023  0.1366 -0.7958 -0.4243
   57CHL1  H23B 6685   1.795   1.295   9.170  0.8356 -0.7580 -0.2086
   57CHL1   C24 6686   1.610   1.352   9.060 -0.4248  0.2613  0.1388
   57CHL1  H24A 6687   1.610   1.281   8.975  0.3701 -1.1436  1.2676
   57CHL1  H24B 6688   1.548   1.308   9.141 -0.0898  0.5016  0.5321
   57CHL1   C25 6689   1.532   1.482   9.017  1.1828  0.3850  0.4966
   57CHL1   H25 6690   1.522   1.546   9.106  1.9477 -1.6475  2.1259
   57CHL1   C26 6691   1.615   1.548   8.895 -0.0349  0.0692  0.1237
   57CHL1  H26A 6692   1.600   1.485   8.805  0.6414 -0.2696  0.2456
   57CHL1  H26B 6693   1.568   1.647   8.880 -0.8405 -0.3467 -0.1661
   57CHL1  H26C 6694   1.724   1.558   8.912 -0.2174 -0.2620  1.6744
   57CHL1   C27 6695   1.391   1.445   8.954 -0.0730 -0.6400 -0.2692
   57CHL1  H27A 6696   1.409   1.384   8.863  0.6305 -2.7163  1.1780
   57CHL1  H27B 6697   1.327   1.391   9.027 -1.7983  0.7004 -0.7289
   57CHL1  H27C 6698   1.329   1.529   8.917 -0.7031 -1.9998 -2.5153
   58CHL1    C3 6699   4.875   0.088  10.197 -0.1879  0.1572 -0.2189
   58CHL1    H3 6700   4.806   0.170  10.166 -0.4148  0.1800  0.3454
   58CHL1    O3 6701   4.847   0.066  10.337  0.2985 -0.3973  0.0743
   58CHL1   H3' 6702   4.914   0.007  10.371 -0.9257 -1.1540  1.2783
   58CHL1    C4 6703   4.843  -0.029  10.109  0.3011  0.2255 -0.1135
   58CHL1   H4A 6704   4.892  -0.118  10.155 -1.3701  0.6414  2.6912
   58CHL1   H4B 6705   4.732  -0.036  10.112  0.4058 -1.4394  1.0665
   58CHL1    C5 6706   4.889  -0.017   9.964  1.1639  0.7717 -0.8431
   58CHL1    C6 6707   4.800  -0.042   9.862 -0.3783  0.6714 -0.2728
   58CHL1    H6 6708   4.694  -0.059   9.886  0.0882  0.2489  1.6121
   58CHL1    C7 6709   4.838  -0.037   9.716 -0.3821 -0.1861 -0.7081
   58CHL1   H7A 6710   4.801  -0.120   9.653 -0.8116 -0.0333 -0.6586
   58CHL1   H7B 6711   4.794   0.059   9.681  0.4210  0.1178 -0.8960
   58CHL1    C8 6712   4.989  -0.024   9.690 -0.5238  0.7227 -0.1184
   58CHL1    H8 6713   5.024  -0.129   9.704 -1.4118  0.6011  1.3960
   58CHL1   C14 6714   5.027   0.031   9.560 -0.1631  0.8265  0.0383
   58CHL1   H14 6715   4.990   0.136   9.563  0.7113  1.1960 -1.2199
   58CHL1   C15 6716   4.952  -0.027   9.439  0.0232  0.2263  0.7882
   58CHL1  H15A 6717   4.966  -0.137   9.436  0.9941  0.1297  4.1657
   58CHL1  H15B 6718   4.841  -0.020   9.437 -0.0161 -0.5495 -0.3671
   58CHL1   C16 6719   5.032   0.034   9.323  0.0633 -0.1464 -0.0729
   58CHL1  H16A 6720   5.087  -0.045   9.267 -0.4054 -1.1503  0.8473
   58CHL1  H16B 6721   4.976   0.106   9.259  0.2357  0.5848  0.5787
   58CHL1   C17 6722   5.161   0.103   9.383  0.1274 -1.0707 -0.2985
   58CHL1   H17 6723   5.132   0.208   9.404  1.1733 -0.4647 -1.7032
   58CHL1   C13 6724   5.179   0.041   9.518  0.4500 -0.8780 -0.6761
   58CHL1   C18 6725   5.244  -0.100   9.510  0.1371 -0.4814 -0.2048
   58CHL1  H18A 6726   5.222  -0.159   9.601 -1.2796  0.8404  0.3546
   58CHL1  H18B 6727   5.204  -0.172   9.436  1.3813 -1.6777  0.2420
   58CHL1  H18C 6728   5.355  -0.089   9.510 -0.0166  1.4881  0.6156
   58CHL1   C12 6729   5.239   0.132   9.630  0.4930  0.7397  0.1338
   58CHL1  H12A 6730   5.350   0.134   9.616  0.5397 -1.6919 -0.3874
   58CHL1  H12B 6731   5.207   0.237   9.620 -0.2111  0.5458  0.3444
   58CHL1   C11 6732   5.211   0.067   9.765 -0.5006 -0.1224  0.2114
   58CHL1  H11A 6733   5.276  -0.023   9.766 -0.4577 -0.1013  1.4543
   58CHL1  H11B 6734   5.247   0.145   9.835 -0.5972  1.2734 -1.2446
   58CHL1    C9 6735   5.062   0.056   9.800 -0.0347 -0.3927 -0.5461
   58CHL1    H9 6736   5.013   0.155   9.789 -0.3298 -0.4709 -0.0183
   58CHL1   C10 6737   5.032   0.020   9.946  0.1955 -0.1821 -1.3019
   58CHL1   C19 6738   5.122  -0.101   9.988  0.4628 -0.0618 -0.7445
   58CHL1  H19A 6739   5.229  -0.073   9.986  0.6507 -0.7288 -0.4142
   58CHL1  H19B 6740   5.103  -0.154  10.084  3.6440 -1.2319 -0.6595
   58CHL1  H19C 6741   5.108  -0.177   9.908 -0.2873  0.2288 -0.9024
   58CHL1    C1 6742   5.070   0.134  10.041  0.7050  0.3302 -0.2853
   58CHL1   H1A 6743   5.180   0.144  10.056  0.7773 -1.8116  1.0001
   58CHL1   H1B 6744   5.042   0.236  10.007  0.1487  1.6361  3.6378
   58CHL1    C2 6745   5.022   0.126  10.191  0.8588 -0.7065 -0.2142
   58CHL1   H2A 6746   5.030   0.227  10.236  0.4468 -0.8774  0.2522
   58CHL1   H2B 6747   5.084   0.046  10.237  1.4376  0.5390  1.2634
   58CHL1   C20 6748   5.281   0.125   9.277 -0.0281  0.2885 -0.0333
   58CHL1   H20 6749   5.309   0.023   9.241  0.8395  0.5867 -0.2445
   58CHL1   C21 6750   5.401   0.186   9.348  0.3531  0.1275 -0.1148
   58CHL1  H21A 6751   5.488   0.190   9.279 -0.9208  1.8043 -1.7296
   58CHL1  H21B 6752   5.436   0.118   9.428  1.1655  0.4696 -0.1673
   58CHL1  H21C 6753   5.372   0.286   9.387  2.5090  0.5000  0.6563
   58CHL1   C22 6754   5.254   0.224   9.159  0.0961 -0.0684  0.4191
   58CHL1  H22A 6755   5.154   0.203   9.116 -0.3601  1.7003  0.5285
   58CHL1  H22B 6756   5.256   0.326   9.203  3.7762 -0.6005  1.8679
   58CHL1   C23 6757   5.353   0.211   9.039 -0.4011 -0.3214 -0.7091
   58CHL1  H23A 6758   5.456   0.249   9.053 -0.5035 -0.7130  1.3659
   58CHL1  H23B 6759   5.358   0.104   9.008 -1.2060 -1.4309  2.5914
   58CHL1   C24 6760   5.296   0.294   8.931  0.1217  0.2429  0.0818
   58CHL1  H24A 6761   5.200   0.248   8.899  0.3116 -0.1568  0.0780
   58CHL1  H24B 6762   5.277   0.395   8.973 -1.4126 -0.1590  0.4187
   58CHL1   C25 6763   5.383   0.286   8.800 -0.3368  0.1455  0.3510
   58CHL1   H25 6764   5.492   0.293   8.821  0.1163 -1.2191 -1.2929
   58CHL1   C26 6765   5.359   0.163   8.723  0.2147 -0.0664  0.5579
   58CHL1  H26A 6766   5.408   0.081   8.780  1.2024  0.4674  0.5061
   58CHL1  H26B 6767   5.250   0.146   8.708  0.1113  1.4065 -0.5412
   58CHL1  H26C 6768   5.414   0.154   8.627  0.2413 -0.2235  0.5882
   58CHL1   C27 6769   5.351   0.406   8.714  0.2339  0.3530 -0.3471
   58CHL1  H27A 6770   5.247   0.445   8.713  1.1465  3.0080 -0.7543
   58CHL1  H27B 6771   5.401   0.498   8.749 -1.1694  1.6303 -1.5589
   58CHL1  H27C 6772   5.391   0.402   8.611 -0.7059 -0.5107 -0.6972
   59CHL1    C3 6773   3.657   5.975  10.449 -0.2805  0.4400 -0.6409
   59CHL1    H3 6774   3.648   6.085  10.436  2.8676  0.9346  0.5432
   59CHL1    O3 6775   3.635   5.938  10.579 -0.7053 -0.1877 -0.3454
   59CHL1   H3' 6776   3.622   5.843  10.572 -1.6528 -0.0309 -0.9822
   59CHL1    C4 6777   3.561   5.889  10.362  0.1120  0.1036  0.2042
   59CHL1   H4A 6778   3.587   5.783  10.383 -0.8314 -0.4580 -1.3049
   59CHL1   H4B 6779   3.458   5.921  10.392  0.9810  1.4463  1.8993
   59CHL1    C5 6780   3.577   5.931  10.216  0.1373 -0.1134 -0.0815
   59CHL1    C6 6781   3.470   5.981  10.151 -0.2716  0.3309  0.0583
   59CHL1    H6 6782   3.380   6.004  10.209 -0.4809 -0.1257 -0.0815
   59CHL1    C7 6783   3.468   6.012  10.000 -1.0413  0.2246 -0.5892
   59CHL1   H7A 6784   3.379   5.976   9.945 -1.9762  0.9324  0.4101
   59CHL1   H7B 6785   3.467   6.123   9.998  1.0960  0.2940 -0.2044
   59CHL1    C8 6786   3.599   5.961   9.930 -0.0787  0.0127 -0.4710
   59CHL1    H8 6787   3.585   5.853   9.909  1.6345 -0.2408 -0.4177
   59CHL1   C14 6788   3.622   6.032   9.801 -0.1830 -0.1325  0.3140
   59CHL1   H14 6789   3.639   6.139   9.825 -2.8714  0.6871 -0.9665
   59CHL1   C15 6790   3.507   6.030   9.704  0.5960 -0.8579 -0.7081
   59CHL1  H15A 6791   3.471   5.926   9.716 -1.1165 -0.0686  1.7322
   59CHL1  H15B 6792   3.423   6.093   9.741  2.7345  0.9472  1.4089
   59CHL1   C16 6793   3.567   6.076   9.569 -0.9147 -0.2262 -0.2452
   59CHL1  H16A 6794   3.536   6.007   9.488  1.8217 -1.4681 -0.3447
   59CHL1  H16B 6795   3.547   6.180   9.537  0.4534 -0.7514 -3.0657
   59CHL1   C17 6796   3.721   6.063   9.576  0.3115 -0.5367 -0.1892
   59CHL1   H17 6797   3.773   6.158   9.602 -0.2612 -0.4411  0.6645
   59CHL1   C13 6798   3.743   5.985   9.712 -0.1510 -0.1539  0.0343
   59CHL1   C18 6799   3.746   5.836   9.696  0.3230  0.6194 -0.1893
   59CHL1  H18A 6800   3.848   5.799   9.676  0.7568  0.6777  1.6881
   59CHL1  H18B 6801   3.723   5.780   9.790 -0.1862  0.4635 -0.3983
   59CHL1  H18C 6802   3.669   5.795   9.626  0.5904 -2.0878  0.9532
   59CHL1   C12 6803   3.865   6.024   9.801 -0.5303  0.4811  0.5407
   59CHL1  H12A 6804   3.961   6.016   9.745 -1.9768 -1.1156 -1.9265
   59CHL1  H12B 6805   3.854   6.133   9.823  1.3746  0.6468  0.8127
   59CHL1   C11 6806   3.862   5.960   9.935 -0.6216 -0.5002 -1.1584
   59CHL1  H11A 6807   3.888   5.854   9.916 -0.8730 -0.2758 -2.8897
   59CHL1  H11B 6808   3.943   6.008   9.995 -1.4176 -1.3764  0.7013
   59CHL1    C9 6809   3.726   5.983  10.014  0.2784 -0.7796  0.3904
   59CHL1    H9 6810   3.731   6.093  10.029  1.7595 -0.4904 -1.7925
   59CHL1   C10 6811   3.720   5.915  10.158 -0.2347  1.2324 -0.2962
   59CHL1   C19 6812   3.740   5.767  10.131 -0.9119  0.0184 -0.3695
   59CHL1  H19A 6813   3.844   5.757  10.092 -0.4125  2.8137  0.0438
   59CHL1  H19B 6814   3.740   5.707  10.224  0.5675  1.0526  0.3438
   59CHL1  H19C 6815   3.666   5.725  10.060 -0.2455 -0.8818 -0.5534
   59CHL1    C1 6816   3.823   5.969  10.249  0.4006  0.3557 -0.1484
   59CHL1   H1A 6817   3.926   5.934  10.227  0.7331  1.4910 -0.5264
   59CHL1   H1B 6818   3.812   6.080  10.244  0.5130  0.3367 -1.3198
   59CHL1    C2 6819   3.804   5.938  10.401  0.0449 -0.5946 -0.1124
   59CHL1   H2A 6820   3.884   5.997  10.451 -0.1877  0.6168 -1.1235
   59CHL1   H2B 6821   3.820   5.829  10.414  0.6830 -0.4015  0.8099
   59CHL1   C20 6822   3.776   6.021   9.443 -0.0106 -0.3757 -1.2311
   59CHL1   H20 6823   3.715   5.933   9.413 -0.6232  0.5555 -2.8537
   59CHL1   C21 6824   3.923   6.003   9.467 -0.5694  0.3438  0.1256
   59CHL1  H21A 6825   3.934   5.921   9.542 -3.4762  0.8057  1.1823
   59CHL1  H21B 6826   3.974   6.087   9.518 -2.3067  2.2718 -1.1350
   59CHL1  H21C 6827   3.982   5.978   9.377 -0.4935  0.9682  0.0021
   59CHL1   C22 6828   3.758   6.127   9.335  0.2068  0.7054  0.2423
   59CHL1  H22A 6829   3.663   6.183   9.343  0.3570  1.1427 -0.7875
   59CHL1  H22B 6830   3.846   6.195   9.345  1.1831 -0.8069  2.8302
   59CHL1   C23 6831   3.752   6.057   9.201  0.5123 -0.2916  0.6135
   59CHL1  H23A 6832   3.847   6.004   9.178  1.5481  1.1670  1.3229
   59CHL1  H23B 6833   3.673   5.980   9.210 -0.7040  0.6904 -1.0034
   59CHL1   C24 6834   3.717   6.159   9.092  0.7666 -0.4579 -0.0356
   59CHL1  H24A 6835   3.617   6.204   9.111  0.9161  0.7542 -1.9115
   59CHL1  H24B 6836   3.795   6.237   9.100  1.4237 -1.2687  2.4544
   59CHL1   C25 6837   3.742   6.111   8.941 -0.3765 -0.3673  0.3039
   59CHL1   H25 6838   3.852   6.094   8.946 -0.2110  0.3868 -0.6703
   59CHL1   C26 6839   3.665   5.991   8.897 -0.1253 -0.1149  0.2832
   59CHL1  H26A 6840   3.558   6.020   8.884 -0.3869 -1.8682 -2.3455
   59CHL1  H26B 6841   3.693   5.958   8.795 -1.7638  0.3097 -0.3369
   59CHL1  H26C 6842   3.690   5.908   8.967  0.1813  1.0468  1.5963
   59CHL1   C27 6843   3.720   6.223   8.844 -0.0739  0.1890  0.1330
   59CHL1  H27A 6844   3.722   6.186   8.740 -0.1459  1.4468 -0.3427
   59CHL1  H27B 6845   3.614   6.255   8.855 -0.0459 -0.1275  1.5508
   59CHL1  H27C 6846   3.801   6.299   8.853 -1.3312  1.6222 -0.1905
   60CHL1    C3 6847   4.249   5.515  10.075 -0.0258  0.4550 -0.1334
   60CHL1    H3 6848   4.237   5.414  10.031  1.1771 -0.6310  1.8699
   60CHL1    O3 6849   4.259   5.499  10.214  0.2396 -0.7155  0.0087
   60CHL1   H3' 6850   4.250   5.588  10.249  0.2872 -0.2024 -1.2468
   60CHL1    C4 6851   4.382   5.578  10.021 -0.2256 -0.1129 -0.9435
   60CHL1   H4A 6852   4.387   5.679  10.066  0.7754 -0.4353 -0.3157
   60CHL1   H4B 6853   4.461   5.513  10.065  0.0870 -1.0175 -2.7593
   60CHL1    C5 6854   4.387   5.584   9.867  0.5500  0.0567  0.1426
   60CHL1    C6 6855   4.486   5.528   9.795 -0.5136  0.5108 -0.2685
   60CHL1    H6 6856   4.572   5.479   9.843 -2.0211 -0.9718  1.0544
   60CHL1    C7 6857   4.489   5.545   9.642  0.8193  0.2128  0.5043
   60CHL1   H7A 6858   4.588   5.582   9.607  0.1148  1.0354 -0.6901
   60CHL1   H7B 6859   4.477   5.447   9.592 -1.9038  1.4780 -1.5734
   60CHL1    C8 6860   4.368   5.627   9.579  0.3742 -0.2476 -0.9673
   60CHL1    H8 6861   4.392   5.735   9.584 -0.1774 -0.1595  0.2199
   60CHL1   C14 6862   4.339   5.585   9.437 -0.2651 -0.4420 -0.2771
   60CHL1   H14 6863   4.299   5.481   9.444 -0.2402 -0.3388  2.2727
   60CHL1   C15 6864   4.466   5.572   9.347 -0.4636  0.2499 -0.7019
   60CHL1  H15A 6865   4.528   5.662   9.368 -2.3265  1.1537  1.3949
   60CHL1  H15B 6866   4.529   5.485   9.376 -0.1459  0.8687  0.5459
   60CHL1   C16 6867   4.412   5.574   9.204  0.3793  0.1488  0.6110
   60CHL1  H16A 6868   4.477   5.651   9.157  1.1174 -0.4376  0.6686
   60CHL1  H16B 6869   4.419   5.477   9.151 -0.0638  0.0854  0.6592
   60CHL1   C17 6870   4.253   5.606   9.221 -0.7746 -0.1501  0.0488
   60CHL1   H17 6871   4.211   5.504   9.221 -0.2488 -0.3711  0.5027
   60CHL1   C13 6872   4.241   5.672   9.358 -0.0778 -0.0414  0.1112
   60CHL1   C18 6873   4.282   5.824   9.347 -0.2913 -0.4050 -0.3776
   60CHL1  H18A 6874   4.206   5.881   9.289 -0.2936  0.1633  0.1778
   60CHL1  H18B 6875   4.285   5.868   9.449  0.2651 -1.0549 -0.1077
   60CHL1  H18C 6876   4.382   5.830   9.299  0.2725 -0.3739  0.7621
   60CHL1   C12 6877   4.107   5.655   9.432  0.0110  0.5098  0.0164
   60CHL1  H12A 6878   4.030   5.719   9.384 -0.2097 -0.9275 -1.6244
   60CHL1  H12B 6879   4.067   5.551   9.437 -0.3887  0.5560 -1.8065
   60CHL1   C11 6880   4.117   5.699   9.579 -0.6608  0.2160  0.1274
   60CHL1  H11A 6881   4.136   5.808   9.580  0.6888  0.0306 -1.1896
   60CHL1  H11B 6882   4.021   5.679   9.632 -0.5729 -1.9778 -0.4537
   60CHL1    C9 6883   4.235   5.617   9.652 -0.2361  0.0424  0.0444
   60CHL1    H9 6884   4.208   5.509   9.658  0.2875 -0.0677  0.4679
   60CHL1   C10 6885   4.259   5.651   9.804 -0.6591 -0.0800 -0.4040
   60CHL1   C19 6886   4.268   5.807   9.824 -0.6434 -0.1896 -0.8603
   60CHL1  H19A 6887   4.355   5.837   9.762  0.2360  0.6298  0.7106
   60CHL1  H19B 6888   4.179   5.869   9.799 -0.3594  0.2670 -0.7336
   60CHL1  H19C 6889   4.283   5.821   9.933 -1.6244 -1.2082 -0.5660
   60CHL1    C1 6890   4.129   5.600   9.876 -0.5259  0.1141  0.3640
   60CHL1   H1A 6891   4.045   5.662   9.839 -0.5594 -1.1754 -1.9090
   60CHL1   H1B 6892   4.108   5.494   9.852 -0.0959  0.3817 -1.3059
   60CHL1    C2 6893   4.134   5.610  10.036  0.7451  0.3816  0.1485
   60CHL1   H2A 6894   4.035   5.577  10.075  1.9757 -1.1018  2.1766
   60CHL1   H2B 6895   4.147   5.718  10.060 -0.6066  0.8822 -1.1391
   60CHL1   C20 6896   4.198   5.676   9.097 -0.1656 -0.5072 -0.2119
   60CHL1   H20 6897   4.229   5.783   9.094 -1.1392 -0.2468 -1.4826
   60CHL1   C21 6898   4.045   5.687   9.111  0.2110 -0.3750 -0.6350
   60CHL1  H21A 6899   3.992   5.591   9.131 -1.1724  0.8250  1.9325
   60CHL1  H21B 6900   4.009   5.740   9.021 -1.1659 -0.2555 -0.0389
   60CHL1  H21C 6901   4.021   5.757   9.195  0.9821 -0.9110  0.0470
   60CHL1   C22 6902   4.244   5.617   8.960 -0.3229  0.3158  0.1319
   60CHL1  H22A 6903   4.202   5.686   8.884  1.2208  0.9224 -0.2151
   60CHL1  H22B 6904   4.352   5.622   8.932 -0.2151  1.4579  0.6963
   60CHL1   C23 6905   4.183   5.481   8.928  0.6326 -0.0557 -0.0998
   60CHL1  H23A 6906   4.242   5.393   8.962  0.1956 -0.2001  0.3002
   60CHL1  H23B 6907   4.078   5.479   8.963  0.9127  0.0604  0.7500
   60CHL1   C24 6908   4.149   5.469   8.772  0.6560  0.6064 -0.3086
   60CHL1  H24A 6909   4.078   5.553   8.760  0.7775  0.7405 -0.1132
   60CHL1  H24B 6910   4.240   5.499   8.716 -0.2605  1.2677 -1.4870
   60CHL1   C25 6911   4.090   5.340   8.720  0.2932 -0.2424  0.2771
   60CHL1   H25 6912   4.130   5.255   8.779  0.2349 -1.3266 -1.1814
   60CHL1   C26 6913   3.943   5.338   8.728 -0.4751  0.9322  0.2404
   60CHL1  H26A 6914   3.919   5.350   8.836 -0.0841  1.0916  0.3107
   60CHL1  H26B 6915   3.892   5.423   8.676 -0.2572  3.1146  3.3098
   60CHL1  H26C 6916   3.912   5.241   8.685  0.5024 -0.4024  2.3967
   60CHL1   C27 6917   4.137   5.317   8.573 -0.1157  0.0502  0.0670
   60CHL1  H27A 6918   4.109   5.216   8.535 -1.3546 -0.1378  1.4057
   60CHL1  H27B 6919   4.090   5.399   8.515 -0.0752  0.9734  1.3027
   60CHL1  H27C 6920   4.247   5.333   8.569 -0.0714 -0.5491 -1.9259
   61CHL1    C3 6921   1.319   4.910  10.405  0.5858  0.8160 -0.3773
   61CHL1    H3 6922   1.302   4.801  10.416 -1.0170  0.9639 -1.0709
   61CHL1    O3 6923   1.333   4.975  10.535  0.2453 -1.0160 -0.1502
   61CHL1   H3' 6924   1.382   4.916  10.593 -1.0247 -2.5447 -0.5578
   61CHL1    C4 6925   1.460   4.931  10.344 -0.3568  0.5971 -0.1471
   61CHL1   H4A 6926   1.499   5.035  10.353  0.7341  0.2530 -0.6821
   61CHL1   H4B 6927   1.534   4.874  10.406 -0.8618 -0.8195 -0.8015
   61CHL1    C5 6928   1.469   4.886  10.201  0.5103  0.3738  0.4663
   61CHL1    C6 6929   1.555   4.788  10.167  0.1492  0.4670 -0.1341
   61CHL1    H6 6930   1.624   4.761  10.248  3.2402  2.0862 -2.0364
   61CHL1    C7 6931   1.567   4.731  10.027  0.0993  0.2935  0.0944
   61CHL1   H7A 6932   1.670   4.709   9.993 -0.1423  0.3299 -0.6830
   61CHL1   H7B 6933   1.503   4.640  10.019  2.0370 -1.0489 -0.8737
   61CHL1    C8 6934   1.503   4.830   9.917 -0.1346  0.1258 -0.6573
   61CHL1    H8 6935   1.565   4.923   9.916  0.8678 -0.5215 -0.0440
   61CHL1   C14 6936   1.495   4.761   9.783  0.3766  0.4247 -0.7606
   61CHL1   H14 6937   1.428   4.675   9.805  1.7300 -0.1459  1.4314
   61CHL1   C15 6938   1.626   4.705   9.724  0.7201  0.1848  0.5892
   61CHL1  H15A 6939   1.711   4.776   9.722 -0.6913  1.9593 -1.4260
   61CHL1  H15B 6940   1.648   4.614   9.784  3.6890  1.1128  1.0653
   61CHL1   C16 6941   1.579   4.669   9.574 -0.2289  0.2522 -0.0146
   61CHL1  H16A 6942   1.664   4.689   9.505 -0.7580  2.3764 -0.1062
   61CHL1  H16B 6943   1.556   4.560   9.585 -0.6629  0.5188  2.3290
   61CHL1   C17 6944   1.446   4.745   9.551 -0.4467 -0.4393 -0.2001
   61CHL1   H17 6945   1.359   4.678   9.567 -0.1910 -0.6800  0.2177
   61CHL1   C13 6946   1.436   4.841   9.669  0.3455  0.2386  0.6923
   61CHL1   C18 6947   1.527   4.963   9.641  0.0205  0.3977 -0.4269
   61CHL1  H18A 6948   1.629   4.931   9.612  0.8390  0.0846  2.4890
   61CHL1  H18B 6949   1.479   5.025   9.563 -1.2429  0.5338  0.4250
   61CHL1  H18C 6950   1.532   5.024   9.734  0.0937  0.2189 -0.3109
   61CHL1   C12 6951   1.295   4.881   9.712 -0.3077  0.0938  0.2547
   61CHL1  H12A 6952   1.250   4.942   9.630 -0.2376 -2.4153 -1.7931
   61CHL1  H12B 6953   1.241   4.785   9.719  1.1518 -0.9348 -1.6588
   61CHL1   C11 6954   1.291   4.949   9.847  0.3041  0.0298 -0.4192
   61CHL1  H11A 6955   1.353   5.041   9.839  0.0510  0.1981 -0.4927
   61CHL1  H11B 6956   1.188   4.981   9.875  0.9249  0.8098  1.0948
   61CHL1    C9 6957   1.358   4.867   9.963 -0.1791 -0.5816 -0.3887
   61CHL1    H9 6958   1.298   4.775   9.982  0.6653 -1.0719 -0.0333
   61CHL1   C10 6959   1.361   4.943  10.101 -0.2692  0.2078 -0.6295
   61CHL1   C19 6960   1.390   5.097  10.088 -0.0780 -0.1287 -0.2546
   61CHL1  H19A 6961   1.389   5.154  10.183 -1.4276  0.7757 -0.7832
   61CHL1  H19B 6962   1.486   5.114  10.033 -0.6969  1.9122 -0.7878
   61CHL1  H19C 6963   1.310   5.142  10.024 -1.2705 -0.5622  0.8935
   61CHL1    C1 6964   1.213   4.937  10.172 -0.1151 -0.2045  0.5271
   61CHL1   H1A 6965   1.143   5.001  10.113  0.6399  0.0211 -0.1545
   61CHL1   H1B 6966   1.183   4.830  10.166  1.0351 -0.5525  0.7245
   61CHL1    C2 6967   1.207   4.976  10.319  0.2063 -0.2207  0.2951
   61CHL1   H2A 6968   1.109   4.953  10.365  0.7213 -0.5680  1.2402
   61CHL1   H2B 6969   1.211   5.086  10.335 -1.0927 -0.1216  0.0336
   61CHL1   C20 6970   1.422   4.778   9.405 -0.0145  0.1015  0.1078
   61CHL1   H20 6971   1.496   4.853   9.370 -0.0397 -0.4811 -1.2255
   61CHL1   C21 6972   1.281   4.839   9.393  0.1833  0.1264  0.0814
   61CHL1  H21A 6973   1.207   4.772   9.441  1.8684 -1.5093  0.5008
   61CHL1  H21B 6974   1.249   4.851   9.287 -1.2386  3.8915  0.7802
   61CHL1  H21C 6975   1.280   4.943   9.432 -2.6023  0.0075  0.5377
   61CHL1   C22 6976   1.436   4.660   9.304  0.9930 -0.2286  0.3375
   61CHL1  H22A 6977   1.530   4.608   9.329  0.1879 -2.1116 -0.3213
   61CHL1  H22B 6978   1.353   4.586   9.316 -1.8111  2.7873  1.1753
   61CHL1   C23 6979   1.445   4.705   9.161 -0.1649  0.1514  0.1118
   61CHL1  H23A 6980   1.366   4.775   9.130 -1.4604 -0.8770  0.9663
   61CHL1  H23B 6981   1.537   4.763   9.140 -0.4138  0.9803  1.2210
   61CHL1   C24 6982   1.430   4.585   9.068  0.6087  0.0494 -0.4367
   61CHL1  H24A 6983   1.515   4.514   9.082  0.5756  0.2725  1.1385
   61CHL1  H24B 6984   1.348   4.524   9.111 -0.3639  1.5223 -0.1503
   61CHL1   C25 6985   1.399   4.615   8.923  0.3091  0.6255  0.1397
   61CHL1   H25 6986   1.376   4.515   8.881 -0.6811  1.1168 -0.5110
   61CHL1   C26 6987   1.274   4.694   8.902  0.4693 -0.2624  0.2032
   61CHL1  H26A 6988   1.299   4.803   8.897  2.7496 -0.7499 -0.2761
   61CHL1  H26B 6989   1.226   4.661   8.807 -0.5864  0.1331  0.5826
   61CHL1  H26C 6990   1.209   4.672   8.989  2.6974  1.3652  2.4365
   61CHL1   C27 6991   1.511   4.680   8.842 -0.4978 -0.0820 -0.1610
   61CHL1  H27A 6992   1.608   4.627   8.844  0.6366  1.8046 -1.8040
   61CHL1  H27B 6993   1.470   4.670   8.739  1.7863 -0.9719 -1.0426
   61CHL1  H27C 6994   1.528   4.787   8.868  1.3878 -0.4875  0.3885
   62CHL1    C3 6995   2.918   1.570   9.866 -0.1106 -1.1017  0.3881
   62CHL1    H3 6996   2.994   1.501   9.822  0.0902  0.7076 -2.3772
   62CHL1    O3 6997   2.967   1.627   9.987 -0.3446  0.5288  0.2293
   62CHL1   H3' 6998   2.956   1.558  10.053 -2.5338 -1.1947 -1.7591
   62CHL1    C4 6999   2.920   1.689   9.764  0.1970  0.3332  0.0262
   62CHL1   H4A 7000   2.869   1.779   9.806 -0.0283  0.3445 -0.2695
   62CHL1   H4B 7001   3.025   1.722   9.749 -0.0319  0.3735 -1.6941
   62CHL1    C5 7002   2.870   1.664   9.629 -0.5301  0.0109  0.4618
   62CHL1    C6 7003   2.943   1.692   9.516  0.1535  0.2888  0.3489
   62CHL1    H6 7004   3.042   1.737   9.525 -0.0575  0.4486  2.4145
   62CHL1    C7 7005   2.895   1.673   9.379 -0.3383  0.0172 -0.4729
   62CHL1   H7A 7006   2.896   1.768   9.322  0.4032  1.0328  1.1445
   62CHL1   H7B 7007   2.945   1.591   9.323 -1.6656  0.2888 -2.1468
   62CHL1    C8 7008   2.748   1.632   9.379  0.2877  0.1798  0.1174
   62CHL1    H8 7009   2.693   1.727   9.368 -0.2968 -0.1599  0.0913
   62CHL1   C14 7010   2.718   1.564   9.245 -0.5796  0.6695  0.0868
   62CHL1   H14 7011   2.768   1.466   9.257 -0.7171  0.9446  4.1370
   62CHL1   C15 7012   2.778   1.620   9.110 -1.0000 -0.4488  0.0068
   62CHL1  H15A 7013   2.778   1.730   9.122  1.8326 -0.3344 -0.4420
   62CHL1  H15B 7014   2.880   1.579   9.098 -0.7047  0.1958  0.2775
   62CHL1   C16 7015   2.672   1.574   9.005 -0.2278 -0.1238 -0.0772
   62CHL1  H16A 7016   2.603   1.657   8.976 -0.9075 -0.3530  0.8229
   62CHL1  H16B 7017   2.720   1.512   8.927 -1.0392  0.6100 -1.2032
   62CHL1   C17 7018   2.578   1.479   9.083  0.0766 -0.2502 -0.8197
   62CHL1   H17 7019   2.631   1.382   9.090 -1.4273 -1.0816 -0.3871
   62CHL1   C13 7020   2.572   1.533   9.225  0.3386 -0.2093 -0.4170
   62CHL1   C18 7021   2.483   1.658   9.230  0.2138 -0.3820  0.5496
   62CHL1  H18A 7022   2.519   1.740   9.164 -0.0406  1.3099  2.4255
   62CHL1  H18B 7023   2.379   1.628   9.205 -0.0604  1.1090 -0.2196
   62CHL1  H18C 7024   2.465   1.701   9.331 -0.1913 -0.5204  0.5377
   62CHL1   C12 7025   2.531   1.431   9.330  0.2999 -0.1038 -0.0865
   62CHL1  H12A 7026   2.420   1.418   9.328  0.0685  1.6047  0.3947
   62CHL1  H12B 7027   2.591   1.340   9.307  0.6559  0.0594  0.1904
   62CHL1   C11 7028   2.560   1.482   9.470  0.2005 -0.0454 -0.0153
   62CHL1  H11A 7029   2.482   1.561   9.480 -0.2145 -0.1956 -1.6634
   62CHL1  H11B 7030   2.543   1.411   9.554 -0.5271  1.0822  0.8150
   62CHL1    C9 7031   2.705   1.542   9.489 -0.3042  0.3290 -0.5512
   62CHL1    H9 7032   2.758   1.445   9.476 -0.1011  0.3665 -0.0396
   62CHL1   C10 7033   2.735   1.596   9.628 -0.1865  0.4046  0.0774
   62CHL1   C19 7034   2.625   1.699   9.664  0.0285 -0.3263 -0.4130
   62CHL1  H19A 7035   2.614   1.791   9.604 -0.7514  2.5244  3.6571
   62CHL1  H19B 7036   2.527   1.648   9.674  0.5337 -1.0325  1.4976
   62CHL1  H19C 7037   2.632   1.737   9.768 -3.8275 -1.2523  0.3447
   62CHL1    C1 7038   2.728   1.482   9.732  0.4381  0.1627 -0.3937
   62CHL1   H1A 7039   2.625   1.442   9.744 -0.1195  1.9030  1.0288
   62CHL1   H1B 7040   2.789   1.404   9.681  0.7043  0.1305 -0.0308
   62CHL1    C2 7041   2.777   1.506   9.870 -0.0365  0.0060 -0.0186
   62CHL1   H2A 7042   2.794   1.413   9.927 -0.4599  0.0144  0.1287
   62CHL1   H2B 7043   2.704   1.570   9.924 -0.8798 -3.5670  3.5349
   62CHL1   C20 7044   2.443   1.443   9.028  0.9793 -0.0895  0.6060
   62CHL1   H20 7045   2.368   1.436   9.110  2.1412 -0.8073  1.6361
   62CHL1   C21 7046   2.457   1.294   8.971  0.1585 -0.6304 -0.9070
   62CHL1  H21A 7047   2.515   1.226   9.037  0.5053 -1.3176 -1.8971
   62CHL1  H21B 7048   2.509   1.308   8.874  1.3758 -1.8941 -0.4552
   62CHL1  H21C 7049   2.360   1.247   8.944 -0.4129  0.5218 -0.9217
   62CHL1   C22 7050   2.378   1.542   8.929  0.4882  0.1667 -0.2288
   62CHL1  H22A 7051   2.369   1.643   8.974 -1.1774 -0.2774  0.5100
   62CHL1  H22B 7052   2.461   1.547   8.854  0.7865  0.2397  0.1052
   62CHL1   C23 7053   2.249   1.495   8.863  0.4764 -1.0325  0.0151
   62CHL1  H23A 7054   2.246   1.386   8.843  1.3811 -1.3006  1.2359
   62CHL1  H23B 7055   2.157   1.515   8.923  1.4666 -0.9821  1.5752
   62CHL1   C24 7056   2.222   1.571   8.728  0.4732  0.6713  1.0998
   62CHL1  H24A 7057   2.250   1.676   8.748  0.9520 -0.0013  4.4206
   62CHL1  H24B 7058   2.283   1.529   8.645 -0.7371  0.6212  0.2085
   62CHL1   C25 7059   2.074   1.549   8.677 -0.5308 -0.9421 -0.0845
   62CHL1   H25 7060   2.070   1.608   8.584  0.0047 -0.0755  0.4343
   62CHL1   C26 7061   2.040   1.406   8.639 -0.7349  0.6953 -0.6253
   62CHL1  H26A 7062   1.955   1.422   8.569 -1.4418 -0.0581  0.0355
   62CHL1  H26B 7063   2.125   1.360   8.584 -0.4123  1.7379 -1.0291
   62CHL1  H26C 7064   2.001   1.350   8.726  1.3301 -0.0857 -0.1531
   62CHL1   C27 7065   1.960   1.617   8.763 -0.4886 -0.1131  0.5794
   62CHL1  H27A 7066   1.992   1.718   8.799 -2.1040  0.6679 -0.0829
   62CHL1  H27B 7067   1.862   1.622   8.711 -0.5987 -3.0865  0.3197
   62CHL1  H27C 7068   1.942   1.545   8.846 -1.4679 -1.1856 -0.5142
   63CHL1    C3 7069   3.423   3.244  10.332  0.5625  0.3686 -0.0246
   63CHL1    H3 7070   3.493   3.180  10.274  0.5116  0.7998 -0.5704
   63CHL1    O3 7071   3.448   3.237  10.472  0.1067 -0.2200  0.0339
   63CHL1   H3' 7072   3.543   3.226  10.478  0.1448 -1.5485 -2.1718
   63CHL1    C4 7073   3.446   3.392  10.277 -0.1758  0.4843 -0.6492
   63CHL1   H4A 7074   3.378   3.461  10.331  0.5006 -0.1016  1.0216
   63CHL1   H4B 7075   3.549   3.425  10.303 -1.0840  1.5435  1.9146
   63CHL1    C5 7076   3.404   3.401  10.129 -0.1382  0.3357 -0.5955
   63CHL1    C6 7077   3.484   3.469  10.043 -0.1181  0.1600 -0.5349
   63CHL1    H6 7078   3.578   3.510  10.082 -2.0332  2.5153  1.9901
   63CHL1    C7 7079   3.457   3.478   9.896 -0.2014  0.4657  0.0570
   63CHL1   H7A 7080   3.472   3.581   9.858 -0.4124 -0.2416 -2.0764
   63CHL1   H7B 7081   3.534   3.417   9.843  1.1572  2.1887 -0.0554
   63CHL1    C8 7082   3.314   3.446   9.852  0.3246  0.4088  0.1443
   63CHL1    H8 7083   3.248   3.532   9.872 -0.6438 -0.4673  0.8168
   63CHL1   C14 7084   3.304   3.393   9.706 -0.2925  0.3049 -0.4850
   63CHL1   H14 7085   3.354   3.293   9.703 -1.2647 -0.3923  2.8098
   63CHL1   C15 7086   3.374   3.473   9.596 -1.0732  0.2419  0.2217
   63CHL1  H15A 7087   3.405   3.579   9.609 -1.1085  0.4032 -0.8853
   63CHL1  H15B 7088   3.459   3.405   9.572 -1.2218 -0.4395  1.5123
   63CHL1   C16 7089   3.284   3.460   9.468  0.8346 -0.3109  0.6445
   63CHL1  H16A 7090   3.224   3.552   9.451  0.4168 -0.6303  0.3671
   63CHL1  H16B 7091   3.345   3.441   9.377 -3.1500  0.9401 -2.6016
   63CHL1   C17 7092   3.188   3.353   9.500 -0.0692 -0.1204 -0.4123
   63CHL1   H17 7093   3.247   3.259   9.494 -1.1277 -0.8415  0.2378
   63CHL1   C13 7094   3.161   3.369   9.656 -0.2022  0.3226 -0.7395
   63CHL1   C18 7095   3.062   3.489   9.660  0.2580 -0.4152 -0.6556
   63CHL1  H18A 7096   3.102   3.578   9.607  1.1622  0.3437  1.2101
   63CHL1  H18B 7097   2.964   3.448   9.626  0.0371  1.0111 -1.8230
   63CHL1  H18C 7098   3.053   3.517   9.767  1.0791 -0.6890 -0.5102
   63CHL1   C12 7099   3.096   3.253   9.731 -0.1621  0.3785 -0.0527
   63CHL1  H12A 7100   2.989   3.235   9.712 -0.5225 -0.5145  2.3866
   63CHL1  H12B 7101   3.147   3.164   9.691  0.9397  0.9857 -0.0512
   63CHL1   C11 7102   3.126   3.259   9.884  0.0028 -0.1579 -0.2858
   63CHL1  H11A 7103   3.059   3.339   9.921  0.1061  0.7270 -1.9380
   63CHL1  H11B 7104   3.092   3.165   9.933 -0.2596  0.5059  0.8588
   63CHL1    C9 7105   3.257   3.321   9.935 -0.9831  0.6029 -0.4903
   63CHL1    H9 7106   3.326   3.236   9.915 -2.2198 -1.3743  2.7630
   63CHL1   C10 7107   3.269   3.334  10.092 -0.2088  0.1189 -0.0318
   63CHL1   C19 7108   3.172   3.450  10.139  0.2653  0.3324 -0.1618
   63CHL1  H19A 7109   3.197   3.476  10.244  0.6698  1.2539 -0.4747
   63CHL1  H19B 7110   3.185   3.542  10.078 -0.2650  2.0555  2.1634
   63CHL1  H19C 7111   3.065   3.419  10.139  0.1879  0.5274 -1.5884
   63CHL1    C1 7112   3.231   3.203  10.164 -0.6885  0.0291  0.5242
   63CHL1   H1A 7113   3.123   3.183  10.152 -0.9924  1.6216  0.4230
   63CHL1   H1B 7114   3.298   3.128  10.116 -1.3865 -1.0611  1.2160
   63CHL1    C2 7115   3.276   3.204  10.311 -0.5243 -0.7406  0.5797
   63CHL1   H2A 7116   3.277   3.109  10.368  0.2752 -0.3594  1.2203
   63CHL1   H2B 7117   3.209   3.268  10.371  0.2132 -1.0352  1.7555
   63CHL1   C20 7118   3.077   3.347   9.400  0.3778  0.2865  0.5763
   63CHL1   H20 7119   3.015   3.439   9.407 -0.5980 -0.4194  1.6230
   63CHL1   C21 7120   2.981   3.225   9.415  0.8833 -1.1270 -0.2070
   63CHL1  H21A 7121   3.028   3.126   9.396  1.3735 -1.3055  1.7101
   63CHL1  H21B 7122   2.912   3.236   9.329  0.9405 -0.0330 -0.1295
   63CHL1  H21C 7123   2.914   3.238   9.503 -1.7607  2.6387 -2.4953
   63CHL1   C22 7124   3.134   3.335   9.253  1.4025 -0.2858 -0.3679
   63CHL1  H22A 7125   3.215   3.409   9.235  0.2889  0.4561 -2.7601
   63CHL1  H22B 7126   3.178   3.233   9.242 -0.1823 -0.9072 -1.3420
   63CHL1   C23 7127   3.034   3.335   9.131  0.6516 -0.3238  0.4445
   63CHL1  H23A 7128   3.010   3.229   9.105 -2.8456 -0.0705  2.0427
   63CHL1  H23B 7129   2.936   3.380   9.158 -0.2408 -2.4444  0.9663
   63CHL1   C24 7130   3.098   3.405   9.007 -0.7114 -0.0764 -0.2446
   63CHL1  H24A 7131   3.131   3.507   9.039  1.2022 -0.5314 -0.6407
   63CHL1  H24B 7132   3.191   3.351   8.978  0.0552  0.6840  0.7101
   63CHL1   C25 7133   3.009   3.402   8.883  0.2793 -0.9840 -0.6345
   63CHL1   H25 7134   2.988   3.294   8.865 -1.6346 -1.2213  2.2829
   63CHL1   C26 7135   2.880   3.490   8.896 -0.4199  0.4040 -0.4123
   63CHL1  H26A 7136   2.903   3.598   8.910 -0.1482  0.1783  1.0366
   63CHL1  H26B 7137   2.820   3.459   8.808 -3.6571  1.0364  1.4332
   63CHL1  H26C 7138   2.837   3.455   8.992  1.6406 -1.5220 -0.0985
   63CHL1   C27 7139   3.079   3.469   8.762  0.1368  0.8376  0.1884
   63CHL1  H27A 7140   3.083   3.576   8.789 -1.8870  1.1947 -0.7006
   63CHL1  H27B 7141   3.179   3.427   8.738 -1.1224 -1.7570 -1.0797
   63CHL1  H27C 7142   3.024   3.443   8.668  3.1436 -0.8259 -1.2677
   64CHL1    C3 7143   2.950   2.724  10.156 -0.4799  0.5984  0.1621
   64CHL1    H3 7144   2.849   2.759  10.127 -0.7318 -1.5160 -1.8493
   64CHL1    O3 7145   2.971   2.704  10.297  0.2042  0.0941  0.1952
   64CHL1   H3' 7146   3.028   2.630  10.320  0.7107  0.6156  0.6357
   64CHL1    C4 7147   2.970   2.591  10.087  0.3969  1.0009 -0.0753
   64CHL1   H4A 7148   3.071   2.546  10.097  0.6373  0.6465 -3.1453
   64CHL1   H4B 7149   2.898   2.516  10.126 -0.5874  2.4989  1.0918
   64CHL1    C5 7150   2.951   2.613   9.942  0.2755 -0.0763 -0.1434
   64CHL1    C6 7151   2.856   2.549   9.871  0.3605  0.1151 -0.4421
   64CHL1    H6 7152   2.791   2.474   9.920  0.9194 -0.9095 -1.2221
   64CHL1    C7 7153   2.830   2.562   9.724  0.6865  0.1510  0.6275
   64CHL1   H7A 7154   2.804   2.463   9.680 -0.5854  0.8260 -0.1929
   64CHL1   H7B 7155   2.740   2.622   9.697  0.0903 -0.6512  0.7761
   64CHL1    C8 7156   2.953   2.627   9.656  0.0054 -0.2669  0.3167
   64CHL1    H8 7157   3.028   2.545   9.650  0.9257  0.5221  0.6528
   64CHL1   C14 7158   2.906   2.673   9.513  0.1783 -0.1458 -0.4545
   64CHL1   H14 7159   2.824   2.747   9.525 -1.0456 -1.5224 -0.1203
   64CHL1   C15 7160   2.847   2.578   9.415 -0.4861 -0.2291  0.2934
   64CHL1  H15A 7161   2.913   2.489   9.408 -0.0158  0.2256 -1.4949
   64CHL1  H15B 7162   2.758   2.524   9.453 -0.1309 -2.8422 -2.2364
   64CHL1   C16 7163   2.835   2.654   9.284 -0.1330 -0.5933 -0.2951
   64CHL1  H16A 7164   2.840   2.600   9.187 -0.0449 -1.9271  0.4301
   64CHL1  H16B 7165   2.732   2.697   9.287 -0.2225 -0.6275 -1.8414
   64CHL1   C17 7166   2.935   2.774   9.295 -0.3322 -0.6578  0.3466
   64CHL1   H17 7167   2.871   2.862   9.314 -1.3997 -1.3268 -0.0969
   64CHL1   C13 7168   3.009   2.751   9.429 -0.0618 -0.2526  0.0643
   64CHL1   C18 7169   3.140   2.665   9.419  0.8564 -0.2176  0.6640
   64CHL1  H18A 7170   3.112   2.567   9.375  1.4962  0.0717 -0.4244
   64CHL1  H18B 7171   3.216   2.718   9.357 -0.0994 -0.0787 -0.4322
   64CHL1  H18C 7172   3.181   2.643   9.519  0.1453 -3.0869  0.4001
   64CHL1   C12 7173   3.035   2.879   9.508 -0.6101  0.2509 -0.3276
   64CHL1  H12A 7174   3.115   2.937   9.458  0.7198  0.8003  2.2650
   64CHL1  H12B 7175   2.946   2.946   9.513 -0.1977  0.7429  0.7029
   64CHL1   C11 7176   3.093   2.844   9.645  0.5058 -0.4305 -0.2142
   64CHL1  H11A 7177   3.194   2.798   9.640  0.6019 -0.1184 -1.2580
   64CHL1  H11B 7178   3.095   2.936   9.708  1.2812  0.8501 -2.0376
   64CHL1    C9 7179   2.991   2.752   9.728  0.4386 -0.0248 -0.2905
   64CHL1    H9 7180   2.900   2.815   9.730 -0.5315 -1.4072  1.2815
   64CHL1   C10 7181   3.040   2.722   9.877  0.4507 -0.0449  0.1096
   64CHL1   C19 7182   3.190   2.670   9.868 -0.2438  0.2768 -0.0775
   64CHL1  H19A 7183   3.263   2.750   9.843  2.1688 -1.6769  0.2443
   64CHL1  H19B 7184   3.222   2.648   9.973  2.0805 -1.3270 -1.0266
   64CHL1  H19C 7185   3.184   2.582   9.800 -0.9511 -0.6539  1.1511
   64CHL1    C1 7186   3.033   2.855   9.957 -0.5580 -0.0590  0.6979
   64CHL1   H1A 7187   3.123   2.911   9.925 -1.1574  0.8326  0.5195
   64CHL1   H1B 7188   2.938   2.912   9.941 -1.1101 -0.1601  3.1352
   64CHL1    C2 7189   3.055   2.824  10.107 -0.4768  0.3876  0.0327
   64CHL1   H2A 7190   3.033   2.920  10.159  1.4225  1.3040 -0.7385
   64CHL1   H2B 7191   3.155   2.781  10.131 -0.1532 -1.4881 -3.8721
   64CHL1   C20 7192   3.017   2.808   9.168 -0.8674  0.4663  0.0656
   64CHL1   H20 7193   3.077   2.720   9.136 -0.3823  1.0135 -0.5522
   64CHL1   C21 7194   3.121   2.930   9.189  0.2390  0.6697  0.5652
   64CHL1  H21A 7195   3.173   2.958   9.095  0.0538  0.1409  0.3061
   64CHL1  H21B 7196   3.188   2.894   9.269 -0.1316 -2.2401 -0.3189
   64CHL1  H21C 7197   3.059   3.020   9.211  0.3432  1.7263 -2.8893
   64CHL1   C22 7198   2.926   2.849   9.050 -0.1352  0.0122 -0.1207
   64CHL1  H22A 7199   2.848   2.769   9.045  0.4767 -0.5787 -0.3597
   64CHL1  H22B 7200   2.872   2.939   9.088 -0.2689 -0.6234  1.2814
   64CHL1   C23 7201   2.989   2.879   8.910  0.4302  0.5080 -0.1501
   64CHL1  H23A 7202   2.917   2.937   8.849 -2.1988 -0.8023  1.5072
   64CHL1  H23B 7203   3.083   2.938   8.903  0.7694 -0.1943 -4.0855
   64CHL1   C24 7204   3.002   2.748   8.821 -0.0219  0.0754  0.3122
   64CHL1  H24A 7205   3.037   2.663   8.883  0.0568  0.0938  0.2932
   64CHL1  H24B 7206   2.904   2.722   8.775 -1.5778  2.8527  1.7923
   64CHL1   C25 7207   3.106   2.774   8.708  0.4866  0.0005  1.0835
   64CHL1   H25 7208   3.188   2.827   8.762 -0.6958  1.6954  1.2631
   64CHL1   C26 7209   3.160   2.645   8.659  0.8368 -0.2633  0.0957
   64CHL1  H26A 7210   3.071   2.589   8.622  1.8190 -0.1397 -2.6903
   64CHL1  H26B 7211   3.213   2.665   8.563 -0.1072 -0.2740 -0.4543
   64CHL1  H26C 7212   3.221   2.587   8.730  0.6874 -1.8786 -1.0362
   64CHL1   C27 7213   3.056   2.864   8.594  0.4037 -0.8263  0.3273
   64CHL1  H27A 7214   3.120   2.853   8.504  1.3262  1.3143  0.6464
   64CHL1  H27B 7215   2.950   2.842   8.568 -0.4181 -2.0709  4.0763
   64CHL1  H27C 7216   3.052   2.969   8.630 -0.7566  0.3086 -2.8082
   65CHL1    C3 7217   5.074   5.420  10.326 -0.1527  0.3001  1.0303
   65CHL1    H3 7218   5.097   5.529  10.316 -0.7229  0.5894  2.7059
   65CHL1    O3 7219   5.059   5.366  10.453  0.0919  0.0671 -0.6145
   65CHL1   H3' 7220   5.148   5.343  10.481  0.2844  1.6425  0.2271
   65CHL1    C4 7221   4.944   5.397  10.247  0.1832 -0.0855  0.5571
   65CHL1   H4A 7222   4.919   5.289  10.258  1.6212 -0.6739 -1.4864
   65CHL1   H4B 7223   4.873   5.455  10.310 -1.9613 -1.4092 -0.5288
   65CHL1    C5 7224   4.949   5.437  10.104  0.5736  0.1487  0.4597
   65CHL1    C6 7225   4.863   5.530  10.054 -0.2292 -0.5448  0.3821
   65CHL1    H6 7226   4.787   5.572  10.122 -1.3698 -2.9449  0.6811
   65CHL1    C7 7227   4.861   5.576   9.912 -0.6237  0.8759  0.2645
   65CHL1   H7A 7228   4.761   5.587   9.865  0.4223  2.4084 -1.7922
   65CHL1   H7B 7229   4.913   5.674   9.907  0.5157  0.2798  0.0825
   65CHL1    C8 7230   4.947   5.478   9.819  0.2234 -0.7634  0.2150
   65CHL1    H8 7231   4.875   5.396   9.802  0.4059 -1.0569  0.8535
   65CHL1   C14 7232   4.977   5.533   9.681  0.1312 -0.5277 -0.3603
   65CHL1   H14 7233   5.040   5.624   9.694 -0.6967  0.1150 -0.7589
   65CHL1   C15 7234   4.850   5.591   9.604  0.0565 -0.3232  0.6274
   65CHL1  H15A 7235   4.770   5.521   9.636 -0.2386  0.0459  0.7045
   65CHL1  H15B 7236   4.840   5.698   9.634 -0.7834 -0.1797 -0.1355
   65CHL1   C16 7237   4.891   5.588   9.453 -0.1257  0.7855 -0.6445
   65CHL1  H16A 7238   4.828   5.517   9.394  1.8133 -0.6771 -1.0908
   65CHL1  H16B 7239   4.890   5.689   9.407 -0.5482  2.2021  2.2659
   65CHL1   C17 7240   5.035   5.523   9.454 -0.4310  0.1787  0.5370
   65CHL1   H17 7241   5.103   5.607   9.476 -1.0554  0.2075  2.5874
   65CHL1   C13 7242   5.041   5.441   9.589  0.1345  0.8466 -0.3372
   65CHL1   C18 7243   4.965   5.313   9.551  0.3253 -0.4171  0.0430
   65CHL1  H18A 7244   4.919   5.264   9.639 -2.9140  0.6683 -0.8942
   65CHL1  H18B 7245   4.887   5.323   9.473 -1.0643  0.8310  1.5264
   65CHL1  H18C 7246   5.041   5.239   9.518 -0.4950 -0.4546 -1.9455
   65CHL1   C12 7247   5.178   5.402   9.647  0.2117  0.4672  0.1683
   65CHL1  H12A 7248   5.240   5.335   9.583  0.6264 -1.8840  2.8438
   65CHL1  H12B 7249   5.241   5.491   9.666  1.6486 -0.9865  2.6632
   65CHL1   C11 7250   5.161   5.339   9.788 -0.5115  0.0184 -0.6548
   65CHL1  H11A 7251   5.115   5.238   9.777 -1.1929 -0.0594  2.2638
   65CHL1  H11B 7252   5.263   5.325   9.828 -0.8287  2.9167  1.4361
   65CHL1    C9 7253   5.079   5.425   9.884  0.0157 -0.4142  0.0079
   65CHL1    H9 7254   5.147   5.513   9.886  0.6881 -0.8618 -1.4944
   65CHL1   C10 7255   5.064   5.369  10.025  0.2982  0.2584 -0.7358
   65CHL1   C19 7256   5.022   5.223  10.003  0.3551 -0.4007  0.9577
   65CHL1  H19A 7257   5.113   5.159  10.001  0.8048  0.2240 -0.9375
   65CHL1  H19B 7258   4.966   5.189  10.092  1.6196 -0.9315  1.5817
   65CHL1  H19C 7259   4.956   5.213   9.914  0.1865  2.0062  0.7383
   65CHL1    C1 7260   5.198   5.389  10.103 -0.4623  0.4676 -0.6973
   65CHL1   H1A 7261   5.277   5.328  10.054  0.4333  0.0070  1.2264
   65CHL1   H1B 7262   5.234   5.493  10.094 -1.4737  0.9002  0.0857
   65CHL1    C2 7263   5.183   5.337  10.252 -0.6266 -0.7176  0.3898
   65CHL1   H2A 7264   5.284   5.345  10.297 -0.2746  0.0950 -0.5122
   65CHL1   H2B 7265   5.148   5.231  10.256  0.8529 -1.1992  0.8971
   65CHL1   C20 7266   5.076   5.457   9.316  0.1789 -0.5512 -0.0612
   65CHL1   H20 7267   5.012   5.368   9.298  0.6715 -1.0033  0.4163
   65CHL1   C21 7268   5.225   5.415   9.306 -0.0213  0.8427  0.1971
   65CHL1  H21A 7269   5.290   5.496   9.345  0.2403  0.2180  1.0846
   65CHL1  H21B 7270   5.244   5.375   9.204 -3.0077 -0.9467  0.2165
   65CHL1  H21C 7271   5.245   5.325   9.368 -2.1140 -1.0706 -1.7457
   65CHL1   C22 7272   5.035   5.552   9.200  0.4762  0.4722 -0.4514
   65CHL1  H22A 7273   4.924   5.560   9.205  0.1694 -0.7484 -3.2529
   65CHL1  H22B 7274   5.086   5.651   9.207  2.1737 -0.2561 -1.9078
   65CHL1   C23 7275   5.070   5.501   9.060  0.5857 -0.4482  0.2245
   65CHL1  H23A 7276   5.181   5.508   9.052  0.5645  0.5669  0.6577
   65CHL1  H23B 7277   5.031   5.398   9.050 -1.9175  0.3795  0.7456
   65CHL1   C24 7278   5.001   5.587   8.950  0.1899  0.0502  0.4873
   65CHL1  H24A 7279   4.892   5.590   8.973  0.6749  0.8335  3.1206
   65CHL1  H24B 7280   5.044   5.686   8.974  3.7176 -0.4247 -2.8939
   65CHL1   C25 7281   5.029   5.552   8.802  0.1105  0.2638  0.2026
   65CHL1   H25 7282   4.979   5.457   8.774  0.6232  0.1678 -0.3977
   65CHL1   C26 7283   4.951   5.659   8.709  0.4533 -0.4817 -0.7583
   65CHL1  H26A 7284   4.850   5.690   8.745  0.6951 -0.3523 -0.1755
   65CHL1  H26B 7285   5.016   5.749   8.697 -0.5080  0.5096  0.9962
   65CHL1  H26C 7286   4.935   5.607   8.613 -1.1538  1.1308 -1.4256
   65CHL1   C27 7287   5.180   5.533   8.762  0.0223  0.7703  0.4546
   65CHL1  H27A 7288   5.240   5.625   8.780  2.2873 -0.7149  0.8449
   65CHL1  H27B 7289   5.225   5.457   8.829  0.1660  0.3261 -0.1333
   65CHL1  H27C 7290   5.182   5.497   8.657 -2.6409 -0.1987  0.6562
   66CHL1    C3 7291   2.590   4.662  10.614  0.5443 -0.2407 -0.5386
   66CHL1    H3 7292   2.532   4.756  10.625  1.1590  0.2622 -1.4685
   66CHL1    O3 7293   2.592   4.602  10.744  0.1850 -0.7278  0.1916
   66CHL1   H3' 7294   2.680   4.564  10.750  0.8796  0.8147  0.0488
   66CHL1    C4 7295   2.519   4.560  10.530  0.4521 -0.0154  0.8775
   66CHL1   H4A 7296   2.575   4.464  10.534 -1.3217 -1.1693 -0.1566
   66CHL1   H4B 7297   2.424   4.526  10.576  0.6493 -1.3161  0.3720
   66CHL1    C5 7298   2.521   4.611  10.382 -0.3312 -0.6398 -0.2664
   66CHL1    C6 7299   2.414   4.616  10.304  0.0120 -0.1224 -0.8346
   66CHL1    H6 7300   2.316   4.587  10.345 -0.7096  2.8489 -0.2031
   66CHL1    C7 7301   2.412   4.661  10.158  0.2777 -0.0381  0.0011
   66CHL1   H7A 7302   2.345   4.589  10.107  0.9231  0.5509 -1.7499
   66CHL1   H7B 7303   2.345   4.750  10.149 -0.3583 -0.5530 -0.4753
   66CHL1    C8 7304   2.540   4.659  10.092 -0.1724 -0.7669 -0.5241
   66CHL1    H8 7305   2.562   4.553  10.070  0.0738 -0.9800  0.6607
   66CHL1   C14 7306   2.543   4.742   9.961  0.3602 -0.3408  0.6337
   66CHL1   H14 7307   2.525   4.844  10.000  1.3712  0.7031 -1.4885
   66CHL1   C15 7308   2.441   4.696   9.857 -0.0743  0.7003 -0.4079
   66CHL1  H15A 7309   2.446   4.588   9.835  0.2994  0.7703 -0.6677
   66CHL1  H15B 7310   2.341   4.733   9.891 -0.3048 -0.9567  0.8530
   66CHL1   C16 7311   2.489   4.764   9.730  0.2549 -0.2483 -0.4351
   66CHL1  H16A 7312   2.481   4.695   9.644 -1.4978 -1.1193  0.3681
   66CHL1  H16B 7313   2.427   4.856   9.726 -1.9785 -1.6144  0.4018
   66CHL1   C17 7314   2.638   4.808   9.763  0.0204 -0.1188 -0.0506
   66CHL1   H17 7315   2.623   4.915   9.787 -1.3974 -0.4895  0.9273
   66CHL1   C13 7316   2.682   4.738   9.893 -0.5881 -0.1386 -0.2812
   66CHL1   C18 7317   2.728   4.596   9.857 -0.0954 -0.1651 -0.2933
   66CHL1  H18A 7318   2.663   4.535   9.791 -0.6605 -0.9159  0.9210
   66CHL1  H18B 7319   2.830   4.590   9.812 -0.2392 -1.3653 -0.4758
   66CHL1  H18C 7320   2.738   4.534   9.948  0.6324  0.3555 -0.0015
   66CHL1   C12 7321   2.785   4.812   9.976 -0.1367  0.0535 -0.5012
   66CHL1  H12A 7322   2.882   4.815   9.921 -1.3536 -2.1803 -2.9913
   66CHL1  H12B 7323   2.754   4.913  10.009  1.2147  0.2173  0.3686
   66CHL1   C11 7324   2.796   4.745  10.117 -0.1123 -0.4379  0.0504
   66CHL1  H11A 7325   2.842   4.647  10.091  1.0568 -0.3145  1.5168
   66CHL1  H11B 7326   2.866   4.807  10.177  2.3645 -2.1055 -0.9473
   66CHL1    C9 7327   2.653   4.725  10.188  0.5840  0.0190  0.9529
   66CHL1    H9 7328   2.621   4.830  10.197  0.1543 -0.1700  1.6292
   66CHL1   C10 7329   2.662   4.649  10.328  0.6141 -0.1999  0.3214
   66CHL1   C19 7330   2.737   4.513  10.314 -0.6841  0.6394 -0.0357
   66CHL1  H19A 7331   2.679   4.443  10.250 -0.3351  0.7925 -0.5267
   66CHL1  H19B 7332   2.836   4.529  10.266 -0.8033  0.9829 -0.1653
   66CHL1  H19C 7333   2.755   4.459  10.410  0.0208 -1.2933 -1.1846
   66CHL1    C1 7334   2.733   4.745  10.422  0.1430  0.4021  0.0630
   66CHL1   H1A 7335   2.837   4.773  10.395 -0.4788  0.5320 -2.4657
   66CHL1   H1B 7336   2.675   4.839  10.435 -1.0645  0.1202 -2.6382
   66CHL1    C2 7337   2.731   4.694  10.566 -0.4773 -0.0933 -0.1595
   66CHL1   H2A 7338   2.772   4.767  10.638 -1.0338  1.5640 -1.4552
   66CHL1   H2B 7339   2.779   4.594  10.571 -2.7692 -1.4067 -2.0145
   66CHL1   C20 7340   2.715   4.799   9.629  0.5387 -0.5881  1.0880
   66CHL1   H20 7341   2.726   4.707   9.568 -0.6454  0.1987 -0.3832
   66CHL1   C21 7342   2.862   4.843   9.644 -0.4206 -0.1331  0.3415
   66CHL1  H21A 7343   2.891   4.936   9.697  1.4867 -1.1738  1.1986
   66CHL1  H21B 7344   2.903   4.854   9.541 -1.9158  0.8138 -0.1931
   66CHL1  H21C 7345   2.924   4.760   9.684 -0.3086  0.1384  0.7307
   66CHL1   C22 7346   2.654   4.895   9.531 -0.2531  0.3592  0.2761
   66CHL1  H22A 7347   2.545   4.918   9.540  0.0922  1.5263  1.8992
   66CHL1  H22B 7348   2.708   4.990   9.546 -1.0283  0.8382  0.1083
   66CHL1   C23 7349   2.680   4.849   9.385  0.0718 -0.2373  0.2299
   66CHL1  H23A 7350   2.783   4.807   9.377  0.9384  2.0434 -2.5435
   66CHL1  H23B 7351   2.611   4.763   9.371 -1.9883  1.5836 -1.7235
   66CHL1   C24 7352   2.657   4.962   9.276  0.5918  0.0024 -0.2359
   66CHL1  H24A 7353   2.548   4.985   9.279  1.2062  3.6338 -0.7887
   66CHL1  H24B 7354   2.710   5.056   9.302  1.1168  0.4316 -2.6810
   66CHL1   C25 7355   2.704   4.933   9.138 -0.5961  0.1078  0.0672
   66CHL1   H25 7356   2.813   4.919   9.127 -0.8267 -0.9916 -1.1506
   66CHL1   C26 7357   2.641   4.811   9.067  0.9230  0.4011  0.0645
   66CHL1  H26A 7358   2.688   4.811   8.966  0.3460  2.0795 -0.2498
   66CHL1  H26B 7359   2.667   4.714   9.114  1.3651  0.4133 -0.1539
   66CHL1  H26C 7360   2.531   4.819   9.056  0.8821 -1.9338 -2.0414
   66CHL1   C27 7361   2.679   5.067   9.059  0.1986 -0.0890 -0.1640
   66CHL1  H27A 7362   2.671   5.054   8.949  0.7654 -0.7176 -0.1373
   66CHL1  H27B 7363   2.582   5.114   9.086  1.0565  1.3157  0.5842
   66CHL1  H27C 7364   2.753   5.144   9.087  0.2263 -0.8565  2.0788
   67CHL1    C3 7365   1.931   4.186  10.187  1.1665  0.0448  0.3454
   67CHL1    H3 7366   1.953   4.294  10.168  4.2806 -0.4320  0.7414
   67CHL1    O3 7367   1.957   4.155  10.320 -0.1298  0.1350 -0.1808
   67CHL1   H3' 7368   1.950   4.060  10.326 -1.2224  0.1945 -0.3044
   67CHL1    C4 7369   1.778   4.147  10.160 -0.0379 -0.1374 -0.0592
   67CHL1   H4A 7370   1.772   4.040  10.189  1.8343 -0.1600  0.4211
   67CHL1   H4B 7371   1.716   4.202  10.234 -0.8546 -2.2970  0.9382
   67CHL1    C5 7372   1.743   4.180  10.015 -0.5431  0.5502  0.4366
   67CHL1    C6 7373   1.647   4.261   9.986 -0.4616 -0.4153  0.3009
   67CHL1    H6 7374   1.594   4.312  10.067  0.7748 -0.0965  0.9422
   67CHL1    C7 7375   1.595   4.279   9.842 -0.3986 -0.4210  0.0960
   67CHL1   H7A 7376   1.484   4.282   9.837 -0.5160 -3.4484 -0.9450
   67CHL1   H7B 7377   1.627   4.383   9.818  1.1595 -0.4534  1.7873
   67CHL1    C8 7378   1.643   4.169   9.741 -0.0659 -0.4583 -1.0611
   67CHL1    H8 7379   1.586   4.076   9.763 -1.8289 -0.0076 -3.4555
   67CHL1   C14 7380   1.617   4.192   9.597 -0.6037  0.9025  0.2139
   67CHL1   H14 7381   1.687   4.275   9.576 -2.1088  2.0997 -0.2269
   67CHL1   C15 7382   1.490   4.255   9.545  1.1130  0.4820 -0.6310
   67CHL1  H15A 7383   1.405   4.214   9.604  2.2488  0.9679  1.4343
   67CHL1  H15B 7384   1.498   4.365   9.559  0.9300  0.5219 -0.8470
   67CHL1   C16 7385   1.476   4.209   9.397 -0.0667  0.4856 -0.5039
   67CHL1  H16A 7386   1.394   4.135   9.393  0.0379  0.4018 -1.1469
   67CHL1  H16B 7387   1.446   4.294   9.331 -1.1390  0.7703  0.3205
   67CHL1   C17 7388   1.604   4.132   9.363 -0.9958  0.0134 -0.6443
   67CHL1   H17 7389   1.681   4.204   9.327 -0.1083  0.2281  1.5451
   67CHL1   C13 7390   1.656   4.075   9.496  0.3502  0.4342 -0.7866
   67CHL1   C18 7391   1.585   3.942   9.539  0.2793 -0.3619 -0.0321
   67CHL1  H18A 7392   1.605   3.861   9.466  0.4882 -0.4912  0.1674
   67CHL1  H18B 7393   1.624   3.899   9.634  1.0582  0.3711 -0.0073
   67CHL1  H18C 7394   1.477   3.945   9.562  0.0941  0.4257 -0.9171
   67CHL1   C12 7395   1.813   4.063   9.513  0.7696 -0.0521 -0.5968
   67CHL1  H12A 7396   1.860   3.988   9.446 -0.3554  0.1388 -1.6423
   67CHL1  H12B 7397   1.856   4.163   9.491 -0.4614  0.1547 -2.3188
   67CHL1   C11 7398   1.852   4.034   9.657 -0.2765  0.4024 -0.3707
   67CHL1  H11A 7399   1.824   3.930   9.682 -0.5383  0.3190 -0.9897
   67CHL1  H11B 7400   1.962   4.046   9.667 -0.4723  1.0101  1.5280
   67CHL1    C9 7401   1.791   4.133   9.764 -0.8412 -0.0628  0.5706
   67CHL1    H9 7402   1.849   4.225   9.744 -0.0309 -1.0611 -2.2828
   67CHL1   C10 7403   1.826   4.093   9.916  0.4118  0.5719  0.9842
   67CHL1   C19 7404   1.788   3.946   9.942 -0.0961 -0.1114  0.0645
   67CHL1  H19A 7405   1.825   3.914  10.041  2.0316  5.1924  1.3172
   67CHL1  H19B 7406   1.679   3.921   9.938  0.3506 -2.0745 -1.0031
   67CHL1  H19C 7407   1.836   3.869   9.878  0.8924 -1.1122  1.9262
   67CHL1    C1 7408   1.973   4.120   9.936 -0.0590 -1.5166 -0.1123
   67CHL1   H1A 7409   2.042   4.070   9.866  1.3251  1.1696 -0.8181
   67CHL1   H1B 7410   1.976   4.226   9.903  0.1882 -1.7416 -0.8323
   67CHL1    C2 7411   2.026   4.115  10.084  0.2079 -0.0163 -0.0144
   67CHL1   H2A 7412   2.118   4.177  10.088 -0.3993  0.8575  0.6209
   67CHL1   H2B 7413   2.028   4.009  10.115 -2.4076 -0.6856 -1.7749
   67CHL1   C20 7414   1.589   4.038   9.237  0.4957  0.0676 -0.7191
   67CHL1   H20 7415   1.516   3.957   9.259 -0.8409  1.1537 -0.9942
   67CHL1   C21 7416   1.723   3.978   9.207 -0.3404  0.3798 -0.6404
   67CHL1  H21A 7417   1.804   4.054   9.209  1.1638 -1.1547 -0.8687
   67CHL1  H21B 7418   1.733   3.917   9.115 -0.7191  0.8196 -0.9783
   67CHL1  H21C 7419   1.757   3.903   9.281  0.0644  0.0207 -1.1885
   67CHL1   C22 7420   1.527   4.117   9.123  0.5074  0.1876  0.2535
   67CHL1  H22A 7421   1.422   4.144   9.148  0.2509 -0.3214 -0.2678
   67CHL1  H22B 7422   1.581   4.214   9.119  0.7492  0.0743  0.6887
   67CHL1   C23 7423   1.531   4.045   8.981 -0.2801  0.5068 -0.2072
   67CHL1  H23A 7424   1.641   4.038   8.964  0.2503  2.1997  2.0796
   67CHL1  H23B 7425   1.477   3.948   8.990  1.0595 -0.2418 -0.0524
   67CHL1   C24 7426   1.461   4.126   8.869  0.1069 -0.0178  0.8689
   67CHL1  H24A 7427   1.360   4.156   8.904  0.3110  0.6137  0.9343
   67CHL1  H24B 7428   1.536   4.206   8.849  3.0045 -2.7307  0.1278
   67CHL1   C25 7429   1.456   4.042   8.734  0.1637 -0.0874  0.3178
   67CHL1   H25 7430   1.433   3.934   8.746 -1.2609 -0.2712 -2.8855
   67CHL1   C26 7431   1.356   4.103   8.629 -0.0315 -0.2044 -0.0579
   67CHL1  H26A 7432   1.350   4.019   8.556 -1.8111  0.5309 -0.8357
   67CHL1  H26B 7433   1.256   4.128   8.671  0.3581  2.7484 -0.6969
   67CHL1  H26C 7434   1.397   4.193   8.580 -0.6626  1.0485  1.6123
   67CHL1   C27 7435   1.601   4.036   8.674  0.3246 -0.0231 -0.5876
   67CHL1  H27A 7436   1.643   4.139   8.674  0.6491 -0.1546 -0.6509
   67CHL1  H27B 7437   1.661   3.972   8.743 -2.8043  2.3408  5.0008
   67CHL1  H27C 7438   1.603   3.996   8.571  0.8897 -2.6685  0.3621
   68CHL1    C3 7439   5.916   4.936  10.113 -0.0512  0.6280  0.2096
   68CHL1    H3 7440   5.922   5.045  10.129  0.5217  0.6460 -0.1003
   68CHL1    O3 7441   5.938   4.873  10.239  0.2795 -0.3777 -0.4329
   68CHL1   H3' 7442   5.990   4.796  10.218 -1.3941 -2.0222  1.1213
   68CHL1    C4 7443   5.770   4.897  10.073 -1.0176 -0.4129 -0.0834
   68CHL1   H4A 7444   5.781   4.786  10.071 -0.1813 -0.3641  1.1443
   68CHL1   H4B 7445   5.699   4.929  10.152  0.1104 -1.8779  1.5883
   68CHL1    C5 7446   5.745   4.966   9.933  0.0113  0.1282 -0.6903
   68CHL1    C6 7447   5.636   5.044   9.924  0.3723  0.5867 -0.0397
   68CHL1    H6 7448   5.580   5.066  10.016 -0.2403 -1.1373  0.0374
   68CHL1    C7 7449   5.599   5.118   9.801 -0.1743  0.6207 -0.7254
   68CHL1   H7A 7450   5.489   5.124   9.785 -0.0114 -0.5139 -2.5647
   68CHL1   H7B 7451   5.631   5.223   9.812 -0.7805  0.7450 -0.0484
   68CHL1    C8 7452   5.661   5.056   9.673  0.9213  0.1624 -0.2530
   68CHL1    H8 7453   5.603   4.962   9.662 -2.7088  1.8107  2.6370
   68CHL1   C14 7454   5.649   5.149   9.554  0.0542 -0.3177 -0.2109
   68CHL1   H14 7455   5.712   5.237   9.581 -0.5977 -0.2377  1.1482
   68CHL1   C15 7456   5.519   5.221   9.522 -0.0105  0.9768  0.2146
   68CHL1  H15A 7457   5.443   5.143   9.546  0.2496  1.1896  1.7851
   68CHL1  H15B 7458   5.497   5.308   9.587  1.8992  0.4097  1.7048
   68CHL1   C16 7459   5.536   5.266   9.377  0.2421  0.3749  0.4536
   68CHL1  H16A 7460   5.457   5.212   9.319 -0.4297  1.0880  0.6767
   68CHL1  H16B 7461   5.523   5.375   9.357 -1.7777 -0.0525 -0.8997
   68CHL1   C17 7462   5.671   5.200   9.322  0.2027 -0.5000 -0.3496
   68CHL1   H17 7463   5.744   5.282   9.340 -0.4369  0.0579 -0.2519
   68CHL1   C13 7464   5.704   5.089   9.427  0.1196  0.0696  0.6359
   68CHL1   C18 7465   5.620   4.964   9.386  1.0757  0.7423 -0.3155
   68CHL1  H18A 7466   5.645   4.908   9.293 -1.7014 -1.1578 -0.0353
   68CHL1  H18B 7467   5.619   4.890   9.469 -1.5684  2.0266  0.9096
   68CHL1  H18C 7468   5.514   4.992   9.370  1.6750  1.8043 -2.7612
   68CHL1   C12 7469   5.846   5.057   9.447  0.7121 -0.3537  0.1926
   68CHL1  H12A 7470   5.893   5.014   9.356  0.8048  1.1826 -0.5139
   68CHL1  H12B 7471   5.901   5.154   9.456 -0.0679  0.0310  0.9076
   68CHL1   C11 7472   5.873   4.964   9.569  0.3203 -0.2105  0.6497
   68CHL1  H11A 7473   5.818   4.871   9.541  0.3146 -0.1523  0.4605
   68CHL1  H11B 7474   5.980   4.938   9.589 -0.4464 -3.1158  1.5379
   68CHL1    C9 7475   5.810   5.020   9.692 -0.9146 -0.2173  0.4217
   68CHL1    H9 7476   5.869   5.114   9.705 -0.5732  0.0232 -2.1520
   68CHL1   C10 7477   5.838   4.941   9.823  0.8084  0.1274 -0.6590
   68CHL1   C19 7478   5.829   4.788   9.783  0.5030  0.2077 -0.0619
   68CHL1  H19A 7479   5.799   4.718   9.864 -0.3588 -1.3090 -1.6289
   68CHL1  H19B 7480   5.753   4.764   9.706  1.7948  1.6010 -1.8657
   68CHL1  H19C 7481   5.921   4.755   9.729  0.2884  2.2672 -1.8058
   68CHL1    C1 7482   5.978   4.978   9.880  0.1977 -0.0615 -0.0749
   68CHL1   H1A 7483   6.059   4.958   9.806 -0.1624 -1.2428 -0.1581
   68CHL1   H1B 7484   5.969   5.084   9.913  0.4207  0.1351 -0.6364
   68CHL1    C2 7485   6.017   4.897  10.014  0.4377  0.3762  0.0876
   68CHL1   H2A 7486   6.118   4.922  10.052  0.2982  0.8077  0.1822
   68CHL1   H2B 7487   6.027   4.788   9.995  1.4248  0.3903  0.4782
   68CHL1   C20 7488   5.672   5.170   9.171 -0.5579  0.2073 -0.5132
   68CHL1   H20 7489   5.601   5.086   9.151  0.6623 -1.3180  1.2723
   68CHL1   C21 7490   5.800   5.112   9.121 -0.1325  0.9397 -0.5281
   68CHL1  H21A 7491   5.816   5.011   9.164 -3.0262  0.6393  0.0894
   68CHL1  H21B 7492   5.886   5.180   9.138 -0.0351  1.2055 -1.9873
   68CHL1  H21C 7493   5.802   5.084   9.014  2.4857 -1.6976  0.0808
   68CHL1   C22 7494   5.629   5.291   9.079  0.0699 -0.0836  0.0096
   68CHL1  H22A 7495   5.650   5.259   8.975 -2.5542  0.3696 -0.7380
   68CHL1  H22B 7496   5.525   5.325   9.097  0.9869  3.7655 -1.1349
   68CHL1   C23 7497   5.712   5.425   9.096  0.2020  0.3119 -0.6323
   68CHL1  H23A 7498   5.690   5.462   9.198 -1.4354  1.2519 -1.3036
   68CHL1  H23B 7499   5.815   5.390   9.071  0.0685 -0.7089  0.1632
   68CHL1   C24 7500   5.673   5.547   9.000  0.2406 -0.0530 -0.1004
   68CHL1  H24A 7501   5.725   5.633   9.047 -1.7597  0.8487  0.5905
   68CHL1  H24B 7502   5.719   5.538   8.900  0.2860  0.4403 -0.1255
   68CHL1   C25 7503   5.519   5.583   8.991  0.1648  0.3600  0.3295
   68CHL1   H25 7504   5.471   5.494   8.945 -1.7471  1.5248 -0.0787
   68CHL1   C26 7505   5.451   5.597   9.122  0.3605 -0.4291 -0.2751
   68CHL1  H26A 7506   5.477   5.513   9.191  1.8017  0.9849  0.9679
   68CHL1  H26B 7507   5.473   5.695   9.169 -2.2688  0.2347 -0.2399
   68CHL1  H26C 7508   5.341   5.607   9.107  0.7005  0.5378 -2.4851
   68CHL1   C27 7509   5.489   5.704   8.901  0.0348  0.2571  0.2216
   68CHL1  H27A 7510   5.399   5.759   8.934  0.9873  1.7588  0.3944
   68CHL1  H27B 7511   5.576   5.773   8.911  0.4856 -0.1623 -0.7046
   68CHL1  H27C 7512   5.493   5.674   8.794  1.6421 -1.1957  0.6365
   69CHL1    C3 7513   4.312   3.979   6.776  0.3947 -0.2792 -0.2260
   69CHL1    H3 7514   4.222   3.917   6.757  0.6763 -0.4707 -0.9600
   69CHL1    O3 7515   4.366   4.033   6.658  0.1719 -0.4578 -0.3219
   69CHL1   H3' 7516   4.440   3.975   6.636 -0.9886 -3.1019  2.0045
   69CHL1    C4 7517   4.280   4.102   6.867  0.1332  0.0696 -0.3691
   69CHL1   H4A 7518   4.356   4.184   6.867  0.6710 -0.3138  2.5120
   69CHL1   H4B 7519   4.194   4.156   6.822 -0.0073 -0.5446 -0.8483
   69CHL1    C5 7520   4.260   4.060   7.012  0.4525 -0.2339 -0.2471
   69CHL1    C6 7521   4.147   4.100   7.076 -0.3202  0.7213  0.6378
   69CHL1    H6 7522   4.074   4.164   7.024 -2.1728 -2.0239 -0.3181
   69CHL1    C7 7523   4.123   4.075   7.218  0.4761 -0.1823  0.1790
   69CHL1   H7A 7524   4.104   4.170   7.273  2.9401 -0.2218  1.1845
   69CHL1   H7B 7525   4.029   4.015   7.221 -0.1128  0.4813 -2.1764
   69CHL1    C8 7526   4.234   4.009   7.298  0.3050 -1.3313 -0.0702
   69CHL1    H8 7527   4.308   4.089   7.320 -1.1834  0.2169 -0.4331
   69CHL1   C14 7528   4.179   3.946   7.426 -0.6960  0.4575  0.3497
   69CHL1   H14 7529   4.115   3.867   7.382 -1.3690  1.1663  0.0332
   69CHL1   C15 7530   4.089   4.023   7.517 -0.1262  0.6172 -0.5181
   69CHL1  H15A 7531   4.123   4.123   7.551 -1.0329  0.6037  0.5073
   69CHL1  H15B 7532   3.984   4.034   7.480  0.0657 -1.5946 -1.8775
   69CHL1   C16 7533   4.089   3.931   7.645  0.1809 -0.4273  0.6204
   69CHL1  H16A 7534   4.121   3.989   7.734  0.6557 -0.3877  0.4292
   69CHL1  H16B 7535   3.985   3.896   7.663 -0.2834 -0.0647 -1.1010
   69CHL1   C17 7536   4.185   3.811   7.620  0.2838 -0.6649 -0.1508
   69CHL1   H17 7537   4.120   3.727   7.587 -1.6955  0.9885 -0.6787
   69CHL1   C13 7538   4.283   3.862   7.501  0.9915  0.0908  0.7102
   69CHL1   C18 7539   4.389   3.950   7.564  0.1145 -0.1406  0.3298
   69CHL1  H18A 7540   4.359   4.007   7.655  0.7827 -0.6785  0.9017
   69CHL1  H18B 7541   4.474   3.883   7.588 -1.0548 -1.7247  0.2240
   69CHL1  H18C 7542   4.422   4.021   7.485 -1.4079  0.7526  0.4445
   69CHL1   C12 7543   4.340   3.765   7.400  0.1587  0.2636 -0.0607
   69CHL1  H12A 7544   4.422   3.705   7.445  0.3069  0.4792 -0.0387
   69CHL1  H12B 7545   4.250   3.710   7.365 -0.8767  1.7699  0.1324
   69CHL1   C11 7546   4.407   3.836   7.284  0.2173  0.0560  0.0192
   69CHL1  H11A 7547   4.496   3.898   7.310  0.2844 -0.1870  0.3933
   69CHL1  H11B 7548   4.452   3.751   7.228  2.7262  0.0427  1.8313
   69CHL1    C9 7549   4.302   3.909   7.207 -0.6186 -0.3437  0.4535
   69CHL1    H9 7550   4.225   3.831   7.188 -0.8669  0.1544 -0.6921
   69CHL1   C10 7551   4.352   3.965   7.067 -0.0159  0.0886 -0.4842
   69CHL1   C19 7552   4.476   4.053   7.097  1.1921 -0.5377 -0.5059
   69CHL1  H19A 7553   4.561   3.984   7.120  0.0771 -1.7200  0.1986
   69CHL1  H19B 7554   4.503   4.106   7.003  0.6818  1.2366  0.3199
   69CHL1  H19C 7555   4.455   4.123   7.180  1.3077  1.3278 -2.0033
   69CHL1    C1 7556   4.373   3.844   6.978 -0.3186 -0.3684 -0.5344
   69CHL1   H1A 7557   4.453   3.777   7.016  0.3175  0.8901  0.4550
   69CHL1   H1B 7558   4.279   3.791   6.952 -1.6858  1.3856  0.5767
   69CHL1    C2 7559   4.421   3.893   6.841 -0.0211  0.3475  1.0663
   69CHL1   H2A 7560   4.440   3.802   6.780  1.6789 -0.5141  2.7743
   69CHL1   H2B 7561   4.516   3.950   6.846  1.3564 -1.9443  3.0968
   69CHL1   C20 7562   4.255   3.764   7.747  0.2985  0.3025 -0.0411
   69CHL1   H20 7563   4.327   3.841   7.783  1.1177 -0.5771  0.2592
   69CHL1   C21 7564   4.340   3.636   7.715  0.1557 -0.2208 -0.2919
   69CHL1  H21A 7565   4.378   3.586   7.807 -2.6904 -1.0964  0.5272
   69CHL1  H21B 7566   4.429   3.659   7.653  1.0339  0.0188  1.0304
   69CHL1  H21C 7567   4.268   3.561   7.677 -1.6512  0.1655  2.1020
   69CHL1   C22 7568   4.155   3.734   7.862  0.1874  0.0610  0.5836
   69CHL1  H22A 7569   4.077   3.813   7.873  1.1704  1.2863 -0.7733
   69CHL1  H22B 7570   4.102   3.638   7.844 -0.6938  0.5011  0.7577
   69CHL1   C23 7571   4.224   3.721   7.991 -0.6481 -0.1198  0.0229
   69CHL1  H23A 7572   4.256   3.617   7.971 -1.5629  0.1423 -3.4967
   69CHL1  H23B 7573   4.315   3.782   8.007 -0.3216 -0.7127  0.4675
   69CHL1   C24 7574   4.130   3.722   8.118  0.3668  0.4745  0.1773
   69CHL1  H24A 7575   4.103   3.828   8.138  1.1527  0.6257  0.4836
   69CHL1  H24B 7576   4.032   3.682   8.084 -0.2516 -0.1254  2.4551
   69CHL1   C25 7577   4.173   3.646   8.244  0.0318 -0.2888  0.0784
   69CHL1   H25 7578   4.208   3.543   8.222 -1.0059 -0.8663  1.0135
   69CHL1   C26 7579   4.290   3.717   8.308  0.2369  0.0564 -0.2160
   69CHL1  H26A 7580   4.367   3.730   8.229  0.6351  1.0797  0.3177
   69CHL1  H26B 7581   4.251   3.811   8.353 -0.5089 -0.2834 -0.1302
   69CHL1  H26C 7582   4.333   3.663   8.395 -0.8017  0.8701  0.8283
   69CHL1   C27 7583   4.058   3.635   8.346 -0.2801 -0.7239 -0.3491
   69CHL1  H27A 7584   3.976   3.571   8.308 -0.7621 -0.5144  0.3298
   69CHL1  H27B 7585   4.091   3.593   8.444 -2.6357 -1.0308  0.3605
   69CHL1  H27C 7586   4.014   3.735   8.366 -1.3683 -0.4859 -3.4421
   70CHL1    C3 7587   3.008   0.175   6.958 -0.8488 -0.1206 -1.0832
   70CHL1    H3 7588   3.048   0.076   6.989 -0.5629  0.3017 -0.0559
   70CHL1    O3 7589   2.992   0.158   6.819  0.4422  0.2197 -0.0968
   70CHL1   H3' 7590   2.934   0.082   6.806  0.3319  0.3264 -0.2367
   70CHL1    C4 7591   2.872   0.212   7.021 -0.8090 -0.0097  0.2147
   70CHL1   H4A 7592   2.848   0.313   6.981 -2.4539  0.4604  2.2010
   70CHL1   H4B 7593   2.791   0.141   6.995  1.1344 -2.2242 -0.0782
   70CHL1    C5 7594   2.892   0.223   7.169  0.7020 -0.1799 -0.6588
   70CHL1    C6 7595   2.828   0.133   7.253 -0.4082  0.0904  0.3147
   70CHL1    H6 7596   2.750   0.067   7.213 -1.3482  1.1851  0.2840
   70CHL1    C7 7597   2.848   0.128   7.400 -0.3636  0.0291 -0.3413
   70CHL1   H7A 7598   2.746   0.123   7.444 -0.2036 -2.1308 -0.1097
   70CHL1   H7B 7599   2.910   0.040   7.428 -0.6917 -0.0216  0.2301
   70CHL1    C8 7600   2.914   0.259   7.450  0.1992  0.0998  0.1623
   70CHL1    H8 7601   2.836   0.338   7.451 -0.0383 -0.1384  0.9964
   70CHL1   C14 7602   2.953   0.240   7.598  0.7867 -0.3245  0.3151
   70CHL1   H14 7603   3.030   0.160   7.608  3.6532  2.3319  1.0889
   70CHL1   C15 7604   2.849   0.191   7.695  0.2898  0.3670 -0.0674
   70CHL1  H15A 7605   2.750   0.242   7.692 -0.6328 -1.3716 -0.7554
   70CHL1  H15B 7606   2.814   0.086   7.686  0.0027  0.1769  2.5030
   70CHL1   C16 7607   2.916   0.213   7.833  0.5466 -0.1384 -0.3140
   70CHL1  H16A 7608   2.850   0.269   7.902  1.0759 -0.5702  0.5525
   70CHL1  H16B 7609   2.936   0.115   7.881 -0.4673 -0.3517 -0.3129
   70CHL1   C17 7610   3.041   0.304   7.810 -0.8903  0.2769  0.7367
   70CHL1   H17 7611   3.122   0.228   7.805 -0.3518  0.6688  2.6567
   70CHL1   C13 7612   3.014   0.363   7.668 -0.5166  0.0144  0.4023
   70CHL1   C18 7613   2.915   0.481   7.674 -0.0622 -0.2948 -0.4831
   70CHL1  H18A 7614   2.839   0.460   7.752  0.9185 -2.1949  0.0286
   70CHL1  H18B 7615   2.953   0.583   7.693 -2.5686  0.7197 -0.6145
   70CHL1  H18C 7616   2.862   0.494   7.577 -0.3794  1.7276 -0.0745
   70CHL1   C12 7617   3.140   0.410   7.589  0.5733  0.2656 -0.1868
   70CHL1  H12A 7618   3.152   0.512   7.632 -0.6725  0.0699  0.6513
   70CHL1  H12B 7619   3.229   0.347   7.612  1.7779  2.0498  0.2738
   70CHL1   C11 7620   3.103   0.428   7.442 -0.8979  0.1757 -0.0530
   70CHL1  H11A 7621   3.040   0.519   7.442  1.5269  2.0806  3.4012
   70CHL1  H11B 7622   3.201   0.448   7.393 -1.9460  1.6402 -1.6430
   70CHL1    C9 7623   3.035   0.309   7.371  0.0586 -0.1233  0.5484
   70CHL1    H9 7624   3.103   0.222   7.377  1.2556  0.7446 -0.0837
   70CHL1   C10 7625   3.000   0.320   7.217  0.4720  0.2303  0.3009
   70CHL1   C19 7626   2.943   0.462   7.188 -0.2142  0.3329 -0.0234
   70CHL1  H19A 7627   3.013   0.536   7.233  0.2792 -0.8719  1.2640
   70CHL1  H19B 7628   2.938   0.481   7.079 -0.8970 -0.0107 -0.0545
   70CHL1  H19C 7629   2.844   0.474   7.236  0.1662  0.5686  0.7280
   70CHL1    C1 7630   3.137   0.300   7.140 -0.1099  0.0906 -0.1414
   70CHL1   H1A 7631   3.211   0.381   7.159 -1.4021  1.4038 -0.4957
   70CHL1   H1B 7632   3.184   0.208   7.181  0.5214  0.8689  0.9233
   70CHL1    C2 7633   3.114   0.290   6.989  0.3410  0.1195 -0.5260
   70CHL1   H2A 7634   3.209   0.251   6.946  0.1526 -0.9008 -0.0594
   70CHL1   H2B 7635   3.080   0.384   6.941 -0.5532 -0.0770 -0.3063
   70CHL1   C20 7636   3.064   0.399   7.931  0.1584 -0.1095 -0.2416
   70CHL1   H20 7637   2.972   0.461   7.938 -1.6008 -2.6500  0.4186
   70CHL1   C21 7638   3.187   0.492   7.915 -0.2437 -0.0069  0.4469
   70CHL1  H21A 7639   3.199   0.559   8.003  0.6915 -2.6835  2.5376
   70CHL1  H21B 7640   3.168   0.563   7.833  1.9241 -0.5104 -0.5589
   70CHL1  H21C 7641   3.287   0.444   7.912  0.4727  1.4413  0.3988
   70CHL1   C22 7642   3.086   0.307   8.057  0.3820 -0.1483 -0.1069
   70CHL1  H22A 7643   2.995   0.243   8.061  0.6728 -0.5221  0.9104
   70CHL1  H22B 7644   3.178   0.249   8.036  1.7323  0.9242  2.5261
   70CHL1   C23 7645   3.116   0.380   8.191 -0.2503  0.1766  0.1100
   70CHL1  H23A 7646   3.131   0.297   8.263 -0.8432 -0.1973 -0.1937
   70CHL1  H23B 7647   3.214   0.431   8.206 -0.7812  1.7002 -1.3362
   70CHL1   C24 7648   3.000   0.465   8.242  0.0780  0.1458 -0.1959
   70CHL1  H24A 7649   3.032   0.523   8.331  1.3057  1.3820 -1.4040
   70CHL1  H24B 7650   2.966   0.542   8.171 -1.5759 -0.2734  0.0964
   70CHL1   C25 7651   2.877   0.380   8.289 -0.0043  0.2631 -0.4005
   70CHL1   H25 7652   2.863   0.305   8.209 -0.5188  0.7677 -0.7943
   70CHL1   C26 7653   2.898   0.297   8.414 -0.1776  0.0648  0.0206
   70CHL1  H26A 7654   2.953   0.203   8.396 -1.0603 -0.3693 -0.5161
   70CHL1  H26B 7655   2.946   0.364   8.489  0.9259  1.2428 -1.6531
   70CHL1  H26C 7656   2.801   0.259   8.454 -0.2642  1.3092  1.0645
   70CHL1   C27 7657   2.762   0.477   8.311 -0.4148  0.0501  0.6957
   70CHL1  H27A 7658   2.793   0.545   8.394 -0.0148 -0.3063  0.8404
   70CHL1  H27B 7659   2.752   0.550   8.227  0.2434 -2.5349 -1.7713
   70CHL1  H27C 7660   2.664   0.433   8.336 -0.3044 -0.1669  0.7485
   71CHL1    C3 7661   3.665   4.773   6.895  0.0250 -0.5669  0.3984
   71CHL1    H3 7662   3.696   4.668   6.912 -0.2231 -0.6324  0.4416
   71CHL1    O3 7663   3.699   4.818   6.763  0.6410  0.6094  0.1886
   71CHL1   H3' 7664   3.706   4.914   6.762 -0.3753  0.7172 -1.4332
   71CHL1    C4 7665   3.513   4.783   6.922 -0.1788  0.6892 -0.1184
   71CHL1   H4A 7666   3.480   4.889   6.922  1.5127  1.2424  0.2839
   71CHL1   H4B 7667   3.473   4.724   6.836  1.2109 -0.5312  0.0228
   71CHL1    C5 7668   3.491   4.715   7.049  0.1252  0.0147  0.0821
   71CHL1    C6 7669   3.419   4.609   7.064  0.1691 -0.4570  0.0545
   71CHL1    H6 7670   3.371   4.569   6.973  1.5357  0.3395 -1.0577
   71CHL1    C7 7671   3.382   4.554   7.203  0.2426 -0.6160 -0.3592
   71CHL1   H7A 7672   3.273   4.539   7.219  0.2561  0.5747  1.1102
   71CHL1   H7B 7673   3.413   4.450   7.228  1.0651 -0.0317  1.2070
   71CHL1    C8 7674   3.431   4.649   7.321 -0.1496 -0.4146  0.8176
   71CHL1    H8 7675   3.347   4.721   7.326 -0.7022 -0.8081 -1.7302
   71CHL1   C14 7676   3.424   4.579   7.452  0.1050  0.4499  0.2501
   71CHL1   H14 7677   3.498   4.498   7.430  1.2784  1.6838 -0.5355
   71CHL1   C15 7678   3.296   4.509   7.490 -0.0239 -0.6421  0.3714
   71CHL1  H15A 7679   3.207   4.572   7.466  0.3139  0.1000  1.0322
   71CHL1  H15B 7680   3.287   4.411   7.439 -3.4990 -1.8223  2.8535
   71CHL1   C16 7681   3.303   4.489   7.649  0.3655 -0.2801  1.0257
   71CHL1  H16A 7682   3.222   4.556   7.686  0.3982  0.3535 -0.0221
   71CHL1  H16B 7683   3.283   4.385   7.682  1.4688 -0.8443 -0.0313
   71CHL1   C17 7684   3.442   4.548   7.686 -0.0291  0.3611 -0.0568
   71CHL1   H17 7685   3.517   4.469   7.664 -0.4967  0.4082 -2.0052
   71CHL1   C13 7686   3.474   4.651   7.579  0.4261 -0.0005 -0.0591
   71CHL1   C18 7687   3.397   4.780   7.612  0.1912  0.1483 -0.0368
   71CHL1  H18A 7688   3.428   4.831   7.705 -1.5722 -0.1685  0.7803
   71CHL1  H18B 7689   3.409   4.861   7.538 -1.9879 -0.7658 -1.5127
   71CHL1  H18C 7690   3.288   4.755   7.611  0.5715 -1.6698  0.1796
   71CHL1   C12 7691   3.623   4.688   7.558  0.3862 -0.5235  0.1390
   71CHL1  H12A 7692   3.657   4.742   7.649  0.0767 -1.3328  0.7437
   71CHL1  H12B 7693   3.689   4.600   7.548  0.8436 -0.2958  1.0485
   71CHL1   C11 7694   3.636   4.772   7.426 -0.2070  0.1809  0.1528
   71CHL1  H11A 7695   3.585   4.869   7.443  0.1026  0.1180  1.5495
   71CHL1  H11B 7696   3.746   4.780   7.411 -0.3681  1.2351 -0.5874
   71CHL1    C9 7697   3.571   4.701   7.302  0.0899 -0.4089 -0.0226
   71CHL1    H9 7698   3.636   4.613   7.281 -1.8734 -1.3660 -2.7157
   71CHL1   C10 7699   3.571   4.785   7.164 -0.3164  0.8583 -0.4075
   71CHL1   C19 7700   3.509   4.924   7.193 -0.5240  0.6222  0.2564
   71CHL1  H19A 7701   3.399   4.930   7.206 -0.7219 -2.2883  0.4214
   71CHL1  H19B 7702   3.547   4.979   7.282  1.5156 -0.1817 -0.0488
   71CHL1  H19C 7703   3.534   4.985   7.103 -0.6071  0.7592  0.3255
   71CHL1    C1 7704   3.726   4.794   7.127  0.9257 -0.0411 -0.3881
   71CHL1   H1A 7705   3.787   4.835   7.209  1.2539 -0.5908 -0.3497
   71CHL1   H1B 7706   3.772   4.693   7.129 -0.9531 -0.9481  1.4776
   71CHL1    C2 7707   3.742   4.860   6.994  0.4459  0.2107  1.3553
   71CHL1   H2A 7708   3.848   4.848   6.963  0.3116  0.3812  0.8141
   71CHL1   H2B 7709   3.707   4.966   6.989 -1.0728 -0.2614  1.6224
   71CHL1   C20 7710   3.465   4.583   7.835 -0.4337 -0.1868 -0.0166
   71CHL1   H20 7711   3.542   4.662   7.848 -1.1927  0.4978  0.5270
   71CHL1   C21 7712   3.524   4.455   7.902  0.6762 -0.3368 -0.2857
   71CHL1  H21A 7713   3.456   4.368   7.896 -0.9171  0.8605 -0.2681
   71CHL1  H21B 7714   3.548   4.466   8.010  0.3088 -2.8680  0.1045
   71CHL1  H21C 7715   3.615   4.420   7.849  0.1012  0.4679 -1.8643
   71CHL1   C22 7716   3.342   4.644   7.907  0.0670  0.2247  0.1561
   71CHL1  H22A 7717   3.317   4.738   7.853  1.1086  0.8224  0.6897
   71CHL1  H22B 7718   3.250   4.581   7.899 -1.1055  1.7216  1.1794
   71CHL1   C23 7719   3.347   4.693   8.052  0.3300  0.3604  0.1829
   71CHL1  H23A 7720   3.363   4.604   8.117 -1.4402  1.1038  1.7274
   71CHL1  H23B 7721   3.437   4.757   8.056 -0.5557  1.7306 -1.0034
   71CHL1   C24 7722   3.221   4.778   8.087 -0.3222  0.1161  0.1538
   71CHL1  H24A 7723   3.205   4.850   8.004 -1.4060  0.3141  0.5146
   71CHL1  H24B 7724   3.135   4.709   8.096  1.5284 -2.0820  2.4309
   71CHL1   C25 7725   3.229   4.870   8.213 -0.1809  0.2875 -0.1224
   71CHL1   H25 7726   3.328   4.920   8.206  0.4262 -0.8209  0.3173
   71CHL1   C26 7727   3.112   4.965   8.219 -0.0937 -0.3132  0.3903
   71CHL1  H26A 7728   3.122   5.055   8.283 -1.5740  1.0512 -1.1634
   71CHL1  H26B 7729   3.077   4.997   8.118 -0.1366 -2.9602 -0.5142
   71CHL1  H26C 7730   3.027   4.904   8.255 -1.3690  0.7198 -0.7324
   71CHL1   C27 7731   3.237   4.791   8.344  0.6144  0.6217  0.0358
   71CHL1  H27A 7732   3.233   4.866   8.426  1.9185  0.6370  0.1119
   71CHL1  H27B 7733   3.154   4.718   8.351 -0.4024  1.6452 -1.0735
   71CHL1  H27C 7734   3.323   4.722   8.359  1.3266  1.6116  0.6477
   72CHL1    C3 7735   5.210   2.595   7.113  0.4054  0.4801  0.3188
   72CHL1    H3 7736   5.257   2.669   7.182  1.7409  0.6217 -0.6985
   72CHL1    O3 7737   5.239   2.630   6.979  0.1157  0.1384  0.0846
   72CHL1   H3' 7738   5.195   2.562   6.928 -0.7063  0.2442  0.6362
   72CHL1    C4 7739   5.235   2.450   7.140 -0.2719 -0.6525 -0.1470
   72CHL1   H4A 7740   5.169   2.386   7.077  1.4167 -0.8695 -1.7552
   72CHL1   H4B 7741   5.339   2.419   7.118 -0.8158 -3.4129  0.7491
   72CHL1    C5 7742   5.206   2.418   7.286 -0.1398 -0.0390 -0.2656
   72CHL1    C6 7743   5.303   2.371   7.367 -0.4363  0.6199  0.8387
   72CHL1    H6 7744   5.407   2.345   7.342 -0.1683  0.6854  1.8395
   72CHL1    C7 7745   5.273   2.352   7.508  0.4066  0.1614 -0.2012
   72CHL1   H7A 7746   5.319   2.257   7.544 -2.2729 -0.6267  1.3921
   72CHL1   H7B 7747   5.305   2.438   7.570 -0.1979 -1.0759  1.9334
   72CHL1    C8 7748   5.127   2.336   7.548  0.0830 -0.3801 -0.3231
   72CHL1    H8 7749   5.086   2.234   7.532 -2.7298  0.5572  0.3473
   72CHL1   C14 7750   5.116   2.361   7.703  0.5717 -0.3273 -0.3673
   72CHL1   H14 7751   5.168   2.456   7.727 -1.1415 -0.0233  2.6624
   72CHL1   C15 7752   5.184   2.262   7.798  0.1390 -0.4655  0.1140
   72CHL1  H15A 7753   5.156   2.158   7.770 -1.3616 -0.0260 -0.1016
   72CHL1  H15B 7754   5.294   2.265   7.814  0.2223  0.2322 -0.5687
   72CHL1   C16 7755   5.118   2.294   7.936 -0.2699 -0.2024 -0.0213
   72CHL1  H16A 7756   5.076   2.199   7.973 -1.9218  0.2387 -0.6924
   72CHL1  H16B 7757   5.189   2.351   8.001  1.0518 -1.4870 -0.2823
   72CHL1   C17 7758   5.001   2.393   7.908 -0.0044 -0.4756 -0.3119
   72CHL1   H17 7759   5.044   2.495   7.918  1.3787 -1.1627  1.2373
   72CHL1   C13 7760   4.972   2.380   7.755  0.4275 -0.2209 -0.6940
   72CHL1   C18 7761   4.898   2.246   7.728  0.1829  0.3508  0.5118
   72CHL1  H18A 7762   4.794   2.265   7.763 -0.1147  3.4975 -1.6689
   72CHL1  H18B 7763   4.904   2.220   7.620  1.4255 -1.1048  0.8858
   72CHL1  H18C 7764   4.948   2.165   7.786  1.2350  1.5698  1.3363
   72CHL1   C12 7765   4.917   2.499   7.689 -0.3612 -0.9424  0.3055
   72CHL1  H12A 7766   4.811   2.515   7.716  0.2511  0.7363  1.8770
   72CHL1  H12B 7767   4.977   2.590   7.705 -0.3386 -0.6167 -1.4425
   72CHL1   C11 7768   4.916   2.481   7.533 -0.2650  0.4024 -0.2141
   72CHL1  H11A 7769   4.839   2.405   7.509 -0.4081  1.6847 -4.6572
   72CHL1  H11B 7770   4.871   2.578   7.501 -2.5825  0.5595  3.0319
   72CHL1    C9 7771   5.058   2.450   7.482  0.1451  0.1658 -0.2496
   72CHL1    H9 7772   5.119   2.536   7.515  0.1055 -0.4262  1.4863
   72CHL1   C10 7773   5.062   2.459   7.328 -1.1543  0.3260 -0.5120
   72CHL1   C19 7774   4.964   2.360   7.264  0.1085  0.0767  0.8471
   72CHL1  H19A 7775   4.994   2.259   7.298 -1.3974 -0.2688  1.2277
   72CHL1  H19B 7776   4.856   2.375   7.285 -0.6331 -1.8427 -1.2583
   72CHL1  H19C 7777   4.969   2.365   7.153 -1.0658 -1.1403  0.7249
   72CHL1    C1 7778   5.038   2.603   7.282 -0.8839 -0.0383  0.4128
   72CHL1   H1A 7779   4.940   2.651   7.302 -1.0975 -0.3503  0.1094
   72CHL1   H1B 7780   5.099   2.671   7.347  2.1180 -1.4553 -0.7251
   72CHL1    C2 7781   5.068   2.627   7.137 -0.6436  0.2903  0.0596
   72CHL1   H2A 7782   5.063   2.737   7.125  0.2494  0.5216  1.5764
   72CHL1   H2B 7783   5.000   2.574   7.066 -2.5851  0.7433  1.4928
   72CHL1   C20 7784   4.885   2.374   8.013 -0.2639  0.4505  0.4286
   72CHL1   H20 7785   4.845   2.271   8.002 -1.5693  0.9835 -0.0118
   72CHL1   C21 7786   4.765   2.463   7.993  0.0113  0.3232 -0.3266
   72CHL1  H21A 7787   4.706   2.434   7.904  0.9729 -0.7907 -0.6324
   72CHL1  H21B 7788   4.796   2.568   7.977  2.6908 -0.0569  1.6966
   72CHL1  H21C 7789   4.706   2.439   8.084  0.2971 -2.4233 -0.7856
   72CHL1   C22 7790   4.939   2.389   8.154  0.5295 -0.6186 -0.1590
   72CHL1  H22A 7791   4.858   2.346   8.217 -3.2744  0.8818 -3.5923
   72CHL1  H22B 7792   5.027   2.326   8.178  0.0035 -0.7859  1.4662
   72CHL1   C23 7793   4.949   2.537   8.203  0.4502 -0.1100  0.0800
   72CHL1  H23A 7794   4.974   2.601   8.116 -1.1519 -1.1296 -1.1874
   72CHL1  H23B 7795   4.850   2.571   8.240  0.8990 -1.2731  2.6044
   72CHL1   C24 7796   5.046   2.552   8.328  0.0504 -0.2372  0.7716
   72CHL1  H24A 7797   4.998   2.510   8.419 -1.4811  0.9609  0.5629
   72CHL1  H24B 7798   5.137   2.497   8.296  0.7487  1.7936 -1.0135
   72CHL1   C25 7799   5.083   2.704   8.352  0.1723  0.2166 -0.4464
   72CHL1   H25 7800   5.118   2.748   8.256  1.2333 -1.2470 -0.7650
   72CHL1   C26 7801   4.965   2.781   8.411  0.1243 -0.7730  0.0340
   72CHL1  H26A 7802   5.009   2.881   8.428  1.9068 -1.3997 -0.5507
   72CHL1  H26B 7803   4.883   2.785   8.336  1.4766 -1.0686 -1.5376
   72CHL1  H26C 7804   4.927   2.724   8.499 -2.5583 -0.5908 -0.9084
   72CHL1   C27 7805   5.207   2.714   8.445 -0.2694 -0.9130  0.2699
   72CHL1  H27A 7806   5.172   2.683   8.546 -1.5204 -2.7029 -0.6447
   72CHL1  H27B 7807   5.290   2.646   8.416  0.0660 -0.0514 -0.8333
   72CHL1  H27C 7808   5.244   2.818   8.442  1.8086 -1.6167 -2.9476
   73CHL1    C3 7809   4.905   3.950   6.872  0.6613  0.4829 -0.5846
   73CHL1    H3 7810   4.800   3.932   6.839  0.9062  0.7681 -1.5407
   73CHL1    O3 7811   4.977   3.987   6.758 -0.8988  0.2588  0.4667
   73CHL1   H3' 7812   4.912   3.994   6.687 -1.3588 -0.9613  0.7538
   73CHL1    C4 7813   4.924   4.059   6.978  0.0684  0.3576 -0.4583
   73CHL1   H4A 7814   5.034   4.074   6.977 -0.0501  1.2859 -0.3917
   73CHL1   H4B 7815   4.879   4.154   6.944 -0.1466  0.0573 -1.0234
   73CHL1    C5 7816   4.887   4.017   7.123 -0.3043 -0.6889 -0.0912
   73CHL1    C6 7817   4.815   4.101   7.202 -1.3095 -0.4142 -0.8455
   73CHL1    H6 7818   4.796   4.203   7.164  2.9563  1.2980  0.9592
   73CHL1    C7 7819   4.793   4.077   7.348 -0.3652 -0.1538  0.2042
   73CHL1   H7A 7820   4.842   4.163   7.399  0.6276 -0.8734  0.5004
   73CHL1   H7B 7821   4.683   4.081   7.364 -0.9968 -0.9197 -3.1658
   73CHL1    C8 7822   4.856   3.938   7.400  0.7294  0.0562 -0.3629
   73CHL1    H8 7823   4.964   3.955   7.418  0.6625  1.4433 -1.0932
   73CHL1   C14 7824   4.777   3.899   7.524 -0.9507  0.3422 -0.5155
   73CHL1   H14 7825   4.669   3.893   7.497 -0.3234 -1.2527 -3.0313
   73CHL1   C15 7826   4.788   3.996   7.647 -0.3960  0.3551 -0.0870
   73CHL1  H15A 7827   4.891   4.032   7.665  0.3802 -1.1900 -1.2620
   73CHL1  H15B 7828   4.722   4.084   7.625 -1.3282  0.1111  1.5133
   73CHL1   C16 7829   4.744   3.909   7.762  0.2677  0.3929  0.0248
   73CHL1  H16A 7830   4.819   3.921   7.843  0.2101  0.5752  0.0511
   73CHL1  H16B 7831   4.644   3.938   7.799  0.0368 -0.8209  0.4007
   73CHL1   C17 7832   4.739   3.757   7.709 -0.3026 -0.3515 -0.1441
   73CHL1   H17 7833   4.632   3.740   7.687 -0.8244 -0.0480  1.9893
   73CHL1   C13 7834   4.823   3.756   7.572  0.5232 -0.5318 -0.2880
   73CHL1   C18 7835   4.972   3.756   7.609  0.1758  0.0506  0.3736
   73CHL1  H18A 7836   5.041   3.797   7.532 -0.7458  0.7889 -0.0793
   73CHL1  H18B 7837   4.985   3.810   7.706  0.0021 -1.6747  1.4048
   73CHL1  H18C 7838   4.998   3.649   7.622 -0.2920  0.0337  1.2931
   73CHL1   C12 7839   4.784   3.652   7.471  0.1137  0.3877 -0.6169
   73CHL1  H12A 7840   4.807   3.546   7.497  0.9787  0.1516 -2.2117
   73CHL1  H12B 7841   4.674   3.658   7.463  0.0984 -0.9154 -1.7922
   73CHL1   C11 7842   4.857   3.684   7.333  0.3757  0.4886 -0.9016
   73CHL1  H11A 7843   4.962   3.650   7.347 -0.0707 -0.9888 -0.9493
   73CHL1  H11B 7844   4.820   3.622   7.249 -1.0834  0.5232 -0.3096
   73CHL1    C9 7845   4.838   3.839   7.286 -0.6459  0.4986  0.3376
   73CHL1    H9 7846   4.732   3.848   7.253 -0.8382 -1.2962  0.3697
   73CHL1   C10 7847   4.926   3.875   7.163  0.5951 -0.3762  0.6583
   73CHL1   C19 7848   5.080   3.860   7.199 -0.3232  0.1863  0.5924
   73CHL1  H19A 7849   5.109   3.926   7.283  0.5187  0.4942  0.0673
   73CHL1  H19B 7850   5.106   3.755   7.225  0.1413  0.0729 -0.2963
   73CHL1  H19C 7851   5.148   3.896   7.119 -0.4361  1.5502  1.0804
   73CHL1    C1 7852   4.894   3.771   7.048  0.3471 -0.2766  0.2525
   73CHL1   H1A 7853   4.940   3.673   7.072 -0.5364 -0.9555 -0.6855
   73CHL1   H1B 7854   4.784   3.758   7.040  0.6375 -1.8987 -4.8936
   73CHL1    C2 7855   4.966   3.810   6.916 -0.4513  0.5138 -0.0869
   73CHL1   H2A 7856   4.949   3.738   6.833 -1.3279  0.4014  0.1742
   73CHL1   H2B 7857   5.076   3.822   6.924 -0.5813  2.5471 -0.7747
   73CHL1   C20 7858   4.779   3.661   7.817  0.1623  0.1760 -0.1319
   73CHL1   H20 7859   4.881   3.687   7.852 -0.3055  2.1783 -0.1672
   73CHL1   C21 7860   4.776   3.512   7.768  0.0905 -0.6129  0.2636
   73CHL1  H21A 7861   4.675   3.487   7.730 -0.6799 -0.5264  2.1222
   73CHL1  H21B 7862   4.789   3.432   7.844 -0.4535 -1.7890 -0.8435
   73CHL1  H21C 7863   4.863   3.493   7.701 -0.1051 -1.0281  0.1235
   73CHL1   C22 7864   4.695   3.677   7.947  0.1982  0.2934  0.3616
   73CHL1  H22A 7865   4.665   3.783   7.957  0.9676  0.8592 -2.5549
   73CHL1  H22B 7866   4.608   3.608   7.948  0.2430  0.1855  2.3085
   73CHL1   C23 7867   4.772   3.638   8.078  0.0958 -0.1127 -0.0117
   73CHL1  H23A 7868   4.797   3.532   8.056 -0.0827 -0.0667 -0.4571
   73CHL1  H23B 7869   4.873   3.684   8.083  1.4717 -2.5265 -2.3219
   73CHL1   C24 7870   4.689   3.662   8.210 -0.8668 -0.2540  0.7094
   73CHL1  H24A 7871   4.683   3.773   8.216 -1.9241 -0.0932 -1.8785
   73CHL1  H24B 7872   4.583   3.634   8.190 -0.5760 -0.6429 -0.3593
   73CHL1   C25 7873   4.742   3.615   8.343  0.0861 -0.2068  0.1263
   73CHL1   H25 7874   4.846   3.650   8.357  0.4330 -0.2406 -1.9623
   73CHL1   C26 7875   4.648   3.649   8.457  0.0930  0.3315  0.5427
   73CHL1  H26A 7876   4.556   3.594   8.429  0.5756 -0.0692 -0.3066
   73CHL1  H26B 7877   4.682   3.592   8.547 -0.1082 -0.7216 -0.0354
   73CHL1  H26C 7878   4.627   3.756   8.478  2.5119  0.9746  0.1034
   73CHL1   C27 7879   4.768   3.459   8.335 -0.1745  0.1497  0.7707
   73CHL1  H27A 7880   4.673   3.406   8.316  1.7765 -3.1263 -0.6152
   73CHL1  H27B 7881   4.830   3.421   8.251 -2.4407  0.0828 -0.9576
   73CHL1  H27C 7882   4.819   3.431   8.430 -0.0490  0.9116  0.9406
   74CHL1    C3 7883   2.443   3.480   6.830  0.1247 -0.0116 -0.2487
   74CHL1    H3 7884   2.472   3.376   6.855  2.6693  1.0295  1.5213
   74CHL1    O3 7885   2.467   3.513   6.688 -0.1382 -0.0706 -0.1872
   74CHL1   H3' 7886   2.437   3.433   6.644  0.4679 -0.2789 -0.2363
   74CHL1    C4 7887   2.292   3.500   6.856 -0.5024  0.6564 -0.4434
   74CHL1   H4A 7888   2.273   3.606   6.830  0.9846  0.9588 -0.3477
   74CHL1   H4B 7889   2.234   3.431   6.791 -0.0857 -0.7395  0.6236
   74CHL1    C5 7890   2.259   3.474   6.995  0.4416  0.2814 -0.2996
   74CHL1    C6 7891   2.178   3.369   7.032 -0.7018 -0.2784 -0.1625
   74CHL1    H6 7892   2.127   3.306   6.958  3.4901 -3.1020 -0.9927
   74CHL1    C7 7893   2.134   3.344   7.178 -0.1432  0.4583  0.9856
   74CHL1   H7A 7894   2.023   3.345   7.175 -0.1437  0.9532 -1.9574
   74CHL1   H7B 7895   2.169   3.242   7.204  0.1306  0.5278  0.8995
   74CHL1    C8 7896   2.185   3.450   7.272 -0.9120 -1.0663  0.3219
   74CHL1    H8 7897   2.119   3.539   7.260 -0.3843 -0.6966  0.1194
   74CHL1   C14 7898   2.185   3.399   7.419  0.0924 -0.2386  0.8282
   74CHL1   H14 7899   2.260   3.318   7.405  1.6312  1.3624 -0.8513
   74CHL1   C15 7900   2.057   3.336   7.465  0.3892 -0.3705 -0.0800
   74CHL1  H15A 7901   1.969   3.402   7.469 -0.7038 -1.5677 -2.4267
   74CHL1  H15B 7902   2.012   3.252   7.408  1.5804 -0.8282 -0.3998
   74CHL1   C16 7903   2.091   3.304   7.614  0.4175 -0.0156  0.0526
   74CHL1  H16A 7904   1.996   3.310   7.671 -1.0091 -1.3072 -2.0417
   74CHL1  H16B 7905   2.130   3.201   7.629  0.7203  0.2400  1.1070
   74CHL1   C17 7906   2.213   3.406   7.652  0.3133 -0.8876  0.5713
   74CHL1   H17 7907   2.308   3.350   7.664  1.4045  0.9484  0.9004
   74CHL1   C13 7908   2.232   3.497   7.527 -0.5431 -0.0135  0.0821
   74CHL1   C18 7909   2.133   3.621   7.537  0.2100 -1.1483 -0.7960
   74CHL1  H18A 7910   2.185   3.707   7.585 -1.5879  1.3652 -3.0697
   74CHL1  H18B 7911   2.104   3.647   7.433 -2.3142  0.8711  0.2884
   74CHL1  H18C 7912   2.050   3.597   7.606 -0.1120  0.2918 -0.6381
   74CHL1   C12 7913   2.373   3.540   7.494 -0.4994  0.3960 -0.4738
   74CHL1  H12A 7914   2.407   3.616   7.568 -2.7149 -1.1071  2.3042
   74CHL1  H12B 7915   2.441   3.452   7.496  0.9137  1.4540  1.4099
   74CHL1   C11 7916   2.371   3.606   7.351  0.0065  0.3731 -0.6085
   74CHL1  H11A 7917   2.287   3.678   7.352  0.6727  1.1554  0.1544
   74CHL1  H11B 7918   2.473   3.644   7.326 -0.5440  1.3966 -1.3442
   74CHL1    C9 7919   2.323   3.507   7.246  0.2366  0.0493  0.4830
   74CHL1    H9 7920   2.384   3.414   7.255 -1.6157 -1.0815  2.1736
   74CHL1   C10 7921   2.345   3.556   7.095 -0.3539 -0.9523  0.0272
   74CHL1   C19 7922   2.308   3.710   7.107 -0.4157 -0.3906 -0.2464
   74CHL1  H19A 7923   2.301   3.754   7.006 -0.0997 -2.5197 -1.2497
   74CHL1  H19B 7924   2.206   3.727   7.147  0.2737  1.6470  0.7499
   74CHL1  H19C 7925   2.372   3.770   7.175  0.8841 -0.5928 -1.2636
   74CHL1    C1 7926   2.499   3.531   7.061 -0.0813 -0.2199  0.4623
   74CHL1   H1A 7927   2.568   3.581   7.132 -0.3051  0.3625  0.2796
   74CHL1   H1B 7928   2.521   3.422   7.061  0.0923 -0.2442 -1.9370
   74CHL1    C2 7929   2.523   3.581   6.921 -0.2026 -1.1136  0.1325
   74CHL1   H2A 7930   2.632   3.572   6.901 -0.1320 -0.4827  0.2253
   74CHL1   H2B 7931   2.494   3.687   6.907  3.0821 -0.2413 -1.1037
   74CHL1   C20 7932   2.207   3.463   7.790 -0.2234 -0.4216  0.5406
   74CHL1   H20 7933   2.109   3.514   7.799 -0.0739  0.1295 -0.7124
   74CHL1   C21 7934   2.326   3.560   7.821 -0.8950 -0.1878 -0.1173
   74CHL1  H21A 7935   2.307   3.588   7.927  1.2691 -1.7683  0.7638
   74CHL1  H21B 7936   2.328   3.645   7.749  1.0968 -0.9864 -1.1007
   74CHL1  H21C 7937   2.418   3.500   7.806 -1.2077 -0.4090 -1.2351
   74CHL1   C22 7938   2.215   3.342   7.892 -0.0603 -0.0857  0.1591
   74CHL1  H22A 7939   2.168   3.246   7.861  0.0185  0.4113 -1.6199
   74CHL1  H22B 7940   2.321   3.310   7.905 -0.6926 -1.5464  2.3346
   74CHL1   C23 7941   2.160   3.376   8.024 -0.3276  0.5912 -0.3686
   74CHL1  H23A 7942   2.207   3.468   8.062 -0.9459  1.7966 -2.3778
   74CHL1  H23B 7943   2.051   3.393   8.011 -0.9039 -1.6010  0.9376
   74CHL1   C24 7944   2.187   3.252   8.121  0.2137 -0.0686 -0.4177
   74CHL1  H24A 7945   2.153   3.161   8.066 -1.8644  0.7646 -0.6276
   74CHL1  H24B 7946   2.297   3.248   8.130  0.3417  0.2605 -1.6075
   74CHL1   C25 7947   2.120   3.252   8.257  0.9072  0.3354 -0.9333
   74CHL1   H25 7948   2.011   3.265   8.243  0.6552  0.7834  1.1248
   74CHL1   C26 7949   2.154   3.122   8.328 -0.4047  0.0784 -0.3274
   74CHL1  H26A 7950   2.100   3.108   8.424  0.8811  0.3886  0.4633
   74CHL1  H26B 7951   2.130   3.025   8.280  0.8376 -0.5237  0.2111
   74CHL1  H26C 7952   2.263   3.125   8.347 -0.4063  1.2704 -0.3794
   74CHL1   C27 7953   2.174   3.368   8.340 -0.1122 -0.3772  0.0589
   74CHL1  H27A 7954   2.129   3.382   8.440 -0.0934  2.0855 -0.2038
   74CHL1  H27B 7955   2.285   3.356   8.346  0.0014  0.0146 -0.9614
   74CHL1  H27C 7956   2.152   3.461   8.283  1.0953 -0.6164 -0.8358
   75CHL1    C3 7957   6.086   4.257   6.916 -0.0230  0.3264  0.8617
   75CHL1    H3 7958   6.011   4.178   6.896 -2.3349  2.2877  1.3212
   75CHL1    O3 7959   6.151   4.288   6.793 -0.2938 -0.1200  0.1108
   75CHL1   H3' 7960   6.169   4.383   6.800 -1.5877  0.0154  2.9557
   75CHL1    C4 7961   6.022   4.383   6.972  0.7789 -0.0589  0.0194
   75CHL1   H4A 7962   6.102   4.460   6.981  1.4914 -0.8194  0.3590
   75CHL1   H4B 7963   5.935   4.405   6.907  0.7078 -0.0868  0.1052
   75CHL1    C5 7964   5.968   4.357   7.115  0.3344 -0.5102 -0.2424
   75CHL1    C6 7965   5.838   4.380   7.142  0.1983 -0.2763 -0.3453
   75CHL1    H6 7966   5.771   4.425   7.067  0.2951 -0.6266 -0.6402
   75CHL1    C7 7967   5.787   4.358   7.283 -0.5059  1.0043  0.3053
   75CHL1   H7A 7968   5.715   4.435   7.317  0.2960  0.7349  2.8270
   75CHL1   H7B 7969   5.743   4.256   7.285  0.5639  0.4485 -1.5982
   75CHL1    C8 7970   5.903   4.351   7.391  0.1335 -0.3526  0.8668
   75CHL1    H8 7971   5.945   4.451   7.415 -0.0007 -0.1617  0.3211
   75CHL1   C14 7972   5.846   4.301   7.525  0.0832  0.2573  0.0730
   75CHL1   H14 7973   5.821   4.196   7.496  1.5291  0.2409 -1.2484
   75CHL1   C15 7974   5.722   4.360   7.585 -0.0099 -0.2265  0.0404
   75CHL1  H15A 7975   5.733   4.470   7.578  2.1390 -0.5212 -3.4787
   75CHL1  H15B 7976   5.634   4.334   7.522  0.5464 -2.1721 -0.0127
   75CHL1   C16 7977   5.716   4.306   7.732 -0.3629  0.5577  0.2988
   75CHL1  H16A 7978   5.720   4.396   7.798 -0.3894  0.4296  0.4752
   75CHL1  H16B 7979   5.624   4.246   7.746  0.8827 -1.6464 -0.5153
   75CHL1   C17 7980   5.842   4.217   7.756 -0.5249 -0.0273  0.2886
   75CHL1   H17 7981   5.795   4.120   7.733 -0.3835  0.4375 -2.2426
   75CHL1   C13 7982   5.939   4.271   7.640 -0.2993 -0.1153 -0.2474
   75CHL1   C18 7983   6.007   4.398   7.695  0.4870 -0.3416 -0.0225
   75CHL1  H18A 7984   5.929   4.477   7.704  0.5720 -0.5070  2.8603
   75CHL1  H18B 7985   6.071   4.385   7.784 -1.3160 -3.0445  1.0189
   75CHL1  H18C 7986   6.073   4.441   7.617  0.9283 -1.5874 -0.3610
   75CHL1   C12 7987   6.048   4.173   7.593 -0.1068 -0.5647  0.1006
   75CHL1  H12A 7988   6.129   4.165   7.669 -1.2211  0.2347  1.4132
   75CHL1  H12B 7989   5.996   4.079   7.565 -1.3692 -0.0273  0.5597
   75CHL1   C11 7990   6.120   4.214   7.455  0.4468 -0.1662  0.0694
   75CHL1  H11A 7991   6.185   4.301   7.478 -0.9485  0.5170  1.6407
   75CHL1  H11B 7992   6.189   4.135   7.418  1.5671  0.6485  0.3757
   75CHL1    C9 7993   6.016   4.252   7.343  0.2615 -0.4800  0.2979
   75CHL1    H9 7994   5.958   4.159   7.329  0.2122 -0.0919 -2.7333
   75CHL1   C10 7995   6.081   4.299   7.213  0.1410 -0.1192  0.2058
   75CHL1   C19 7996   6.183   4.415   7.250  0.3398  0.5155 -0.0351
   75CHL1  H19A 7997   6.229   4.445   7.153 -0.1911 -2.0001 -1.1311
   75CHL1  H19B 7998   6.136   4.496   7.310 -1.1093 -1.2866  1.3933
   75CHL1  H19C 7999   6.277   4.377   7.297 -0.5036 -1.0413  0.4348
   75CHL1    C1 8000   6.147   4.178   7.143  0.1656 -0.6233 -0.4994
   75CHL1   H1A 8001   6.228   4.137   7.207  0.4684  1.6788  0.6999
   75CHL1   H1B 8002   6.070   4.097   7.138 -0.3260 -0.0668 -3.3247
   75CHL1    C2 8003   6.202   4.207   7.004 -0.0727  0.0470 -0.2790
   75CHL1   H2A 8004   6.243   4.116   6.956 -0.8979  0.4885 -1.9048
   75CHL1   H2B 8005   6.287   4.276   7.021 -0.7581  0.4906  1.6676
   75CHL1   C20 8006   5.894   4.216   7.899  0.7099  0.0864 -0.4647
   75CHL1   H20 8007   6.000   4.181   7.897  0.3789 -1.0419  0.3814
   75CHL1   C21 8008   5.819   4.095   7.970 -0.1139  0.2090  0.0646
   75CHL1  H21A 8009   5.851   3.996   7.930  0.1375  0.0615  0.6124
   75CHL1  H21B 8010   5.710   4.098   7.951 -0.1683  0.2558  0.3791
   75CHL1  H21C 8011   5.834   4.101   8.080  0.3832  0.7406 -0.0298
   75CHL1   C22 8012   5.888   4.343   7.984 -0.7659 -0.2010  0.0113
   75CHL1  H22A 8013   5.907   4.428   7.915 -1.1498  0.7555  1.0491
   75CHL1  H22B 8014   5.782   4.355   8.016 -0.5697 -1.7435  1.3732
   75CHL1   C23 8015   5.979   4.328   8.101 -0.0243  0.4043  0.7092
   75CHL1  H23A 8016   5.950   4.235   8.155  0.1317 -1.4500 -2.1528
   75CHL1  H23B 8017   6.087   4.315   8.079  0.3002  0.3253  2.2495
   75CHL1   C24 8018   5.959   4.444   8.201 -0.4952 -0.3005 -0.5202
   75CHL1  H24A 8019   6.009   4.537   8.165  1.6899 -1.8595 -1.8030
   75CHL1  H24B 8020   5.852   4.465   8.222  0.0045  1.0528  0.7492
   75CHL1   C25 8021   6.008   4.400   8.338 -0.4692  0.4134 -0.0529
   75CHL1   H25 8022   5.941   4.319   8.373 -1.3458  1.3046  0.4163
   75CHL1   C26 8023   6.146   4.324   8.338  0.9179 -0.0463  0.2827
   75CHL1  H26A 8024   6.146   4.231   8.278 -1.3192  0.4038 -0.4846
   75CHL1  H26B 8025   6.230   4.389   8.303 -0.5221  2.3204  0.9937
   75CHL1  H26C 8026   6.165   4.293   8.444 -2.0815 -0.2907  0.8255
   75CHL1   C27 8027   6.011   4.508   8.447  0.2542  0.7071  0.5828
   75CHL1  H27A 8028   6.073   4.479   8.535  0.0397  2.2171  1.2529
   75CHL1  H27B 8029   6.065   4.597   8.409  0.6201  0.4517  0.4954
   75CHL1  H27C 8030   5.906   4.532   8.473  0.5263 -0.6803  3.3460
   76CHL1    C3 8031   2.831   5.367   7.386  0.2905 -0.1523  0.0001
   76CHL1    H3 8032   2.846   5.263   7.348  1.3446  0.4064 -1.2057
   76CHL1    O3 8033   2.829   5.456   7.276 -0.3481  0.3936  0.0925
   76CHL1   H3' 8034   2.755   5.417   7.228  0.5139  1.9527 -2.7066
   76CHL1    C4 8035   2.705   5.386   7.473  0.4743  0.2473  0.2479
   76CHL1   H4A 8036   2.684   5.493   7.494 -0.9547 -0.0932  0.6902
   76CHL1   H4B 8037   2.609   5.342   7.437  0.1615  0.5143  0.7428
   76CHL1    C5 8038   2.723   5.327   7.613  0.5521  0.1315  0.2426
   76CHL1    C6 8039   2.643   5.230   7.662 -0.6045  0.2135 -0.0887
   76CHL1    H6 8040   2.574   5.191   7.586 -0.3033  1.0639 -0.8244
   76CHL1    C7 8041   2.645   5.177   7.803  0.2260 -0.6247  0.3194
   76CHL1   H7A 8042   2.543   5.173   7.846 -0.6465 -0.6810 -1.6497
   76CHL1   H7B 8043   2.691   5.076   7.800 -2.8376 -2.1215 -0.0310
   76CHL1    C8 8044   2.711   5.270   7.902 -0.5523 -0.7070  0.0267
   76CHL1    H8 8045   2.650   5.360   7.919  1.1761  0.7203 -0.9557
   76CHL1   C14 8046   2.733   5.198   8.033  0.6777  0.1214 -0.5200
   76CHL1   H14 8047   2.803   5.118   7.998 -0.0312  0.1139 -1.9904
   76CHL1   C15 8048   2.624   5.122   8.097 -0.0672  0.2745 -0.2666
   76CHL1  H15A 8049   2.531   5.181   8.106  0.0846  0.5050 -0.1873
   76CHL1  H15B 8050   2.602   5.035   8.032 -2.0790  0.9491 -0.5286
   76CHL1   C16 8051   2.680   5.086   8.232  0.5000  0.1319  0.1108
   76CHL1  H16A 8052   2.604   5.097   8.312  1.1473  0.6457  0.6728
   76CHL1  H16B 8053   2.709   4.979   8.232 -0.8403 -0.2568  1.0641
   76CHL1   C17 8054   2.794   5.181   8.262  0.4321 -0.2957  0.3048
   76CHL1   H17 8055   2.886   5.119   8.269  0.9047  0.3646  0.0776
   76CHL1   C13 8056   2.802   5.279   8.147  0.4350  0.3983  1.1818
   76CHL1   C18 8057   2.718   5.411   8.177  0.8249 -0.1037 -0.5952
   76CHL1  H18A 8058   2.613   5.384   8.203  0.8942  1.9124  2.1855
   76CHL1  H18B 8059   2.761   5.476   8.256 -2.6803  2.2279 -0.3884
   76CHL1  H18C 8060   2.716   5.479   8.090  0.0085 -0.7557 -1.1082
   76CHL1   C12 8061   2.943   5.311   8.088  0.3076 -0.4694  0.0407
   76CHL1  H12A 8062   3.003   5.375   8.156 -1.7584  2.2661 -0.5654
   76CHL1  H12B 8063   2.994   5.214   8.065  1.1852  0.3945 -1.9662
   76CHL1   C11 8064   2.931   5.385   7.950 -0.2096  0.1483  0.0644
   76CHL1  H11A 8065   2.905   5.489   7.976 -0.0163 -0.1555  1.5731
   76CHL1  H11B 8066   3.033   5.395   7.906 -0.3435  1.8611  0.0807
   76CHL1    C9 8067   2.847   5.314   7.840 -0.2792  0.1407  0.3622
   76CHL1    H9 8068   2.907   5.223   7.821  0.7998  0.9263 -0.1438
   76CHL1   C10 8069   2.822   5.390   7.711  0.0309 -0.1215 -0.7938
   76CHL1   C19 8070   2.788   5.536   7.746 -0.2369 -0.7400 -0.2742
   76CHL1  H19A 8071   2.747   5.585   7.655  1.4025 -2.1168 -1.8525
   76CHL1  H19B 8072   2.722   5.535   7.835  0.6439 -1.1833  0.3972
   76CHL1  H19C 8073   2.880   5.592   7.772 -1.5550  0.2948  2.5525
   76CHL1    C1 8074   2.950   5.383   7.623  0.1051 -1.1265  0.6694
   76CHL1   H1A 8075   3.034   5.438   7.670  1.0974 -0.8551 -1.3144
   76CHL1   H1B 8076   2.987   5.278   7.620  0.4438 -1.0059  0.5782
   76CHL1    C2 8077   2.952   5.415   7.466  0.7202  0.9848  0.3592
   76CHL1   H2A 8078   3.042   5.374   7.416  0.9537 -1.2961  2.4519
   76CHL1   H2B 8079   2.960   5.526   7.463  0.3602  1.0323  0.9073
   76CHL1   C20 8080   2.789   5.241   8.409 -0.3339  0.7385  0.0406
   76CHL1   H20 8081   2.703   5.312   8.407  0.3977  1.6443  0.0031
   76CHL1   C21 8082   2.922   5.319   8.441 -0.0151 -0.0709  0.3000
   76CHL1  H21A 8083   2.937   5.401   8.367 -1.3758  0.3861  0.5014
   76CHL1  H21B 8084   3.009   5.253   8.419 -1.6180 -1.6192 -1.8566
   76CHL1  H21C 8085   2.934   5.356   8.545  3.0736  1.8328 -0.6082
   76CHL1   C22 8086   2.766   5.135   8.526  0.8479  0.6624 -0.4509
   76CHL1  H22A 8087   2.779   5.189   8.622 -1.0651 -0.3563  0.4386
   76CHL1  H22B 8088   2.662   5.097   8.514  0.4120  1.3080  0.9880
   76CHL1   C23 8089   2.857   5.007   8.532 -0.2884 -0.1473  0.7374
   76CHL1  H23A 8090   2.835   4.942   8.446 -0.7770 -0.2525  0.9382
   76CHL1  H23B 8091   2.960   5.048   8.522  0.4662 -2.1747 -0.2413
   76CHL1   C24 8092   2.843   4.943   8.669 -0.2143  0.1501 -0.5234
   76CHL1  H24A 8093   2.847   5.021   8.748 -0.0676 -0.1470 -0.2353
   76CHL1  H24B 8094   2.741   4.898   8.670 -0.5257  0.8242  0.6067
   76CHL1   C25 8095   2.940   4.823   8.672  0.2290  0.7995  0.6590
   76CHL1   H25 8096   3.042   4.844   8.634 -1.0767  1.8948 -2.4554
   76CHL1   C26 8097   2.946   4.765   8.812  0.3389 -0.4320  0.3288
   76CHL1  H26A 8098   2.960   4.859   8.870  0.1382  0.6802 -1.3593
   76CHL1  H26B 8099   2.866   4.696   8.846  2.0113 -2.4798  0.3315
   76CHL1  H26C 8100   3.035   4.698   8.819  0.7595 -0.2377 -2.0626
   76CHL1   C27 8101   2.890   4.707   8.580  0.0954 -0.1705 -0.3155
   76CHL1  H27A 8102   2.945   4.614   8.604 -2.7801 -2.2929 -1.4483
   76CHL1  H27B 8103   2.789   4.667   8.604  0.4550 -1.2449 -0.5465
   76CHL1  H27C 8104   2.902   4.732   8.472  0.3143  0.2108 -0.2051
   77CHL1    C3 8105   3.151   4.967   6.804  0.5264  0.2316 -0.0503
   77CHL1    H3 8106   3.190   4.863   6.804 -0.5236 -0.2571  2.5037
   77CHL1    O3 8107   3.187   5.024   6.677  0.7033  0.5767  0.0771
   77CHL1   H3' 8108   3.185   5.119   6.692  0.2835  0.8214 -1.3639
   77CHL1    C4 8109   2.997   4.961   6.831  0.3836  0.6648 -0.6018
   77CHL1   H4A 8110   2.962   5.067   6.832 -1.3143  0.1414  0.8908
   77CHL1   H4B 8111   2.940   4.910   6.750 -2.0985  0.9365  0.8560
   77CHL1    C5 8112   2.970   4.905   6.971  0.5515  0.2689  0.0195
   77CHL1    C6 8113   2.898   4.791   6.992  0.0450  0.2125 -0.1694
   77CHL1    H6 8114   2.853   4.743   6.904 -0.3068  0.1471  0.0465
   77CHL1    C7 8115   2.854   4.741   7.125  0.4792 -0.6755 -0.3322
   77CHL1   H7A 8116   2.750   4.704   7.111 -0.3811  1.0074  1.2555
   77CHL1   H7B 8117   2.904   4.646   7.152  0.4627 -0.1697  1.6354
   77CHL1    C8 8118   2.879   4.834   7.248  0.1852 -0.5937  0.1915
   77CHL1    H8 8119   2.802   4.913   7.236 -0.5369 -1.2603  0.3531
   77CHL1   C14 8120   2.878   4.753   7.372  0.3227  0.1591 -0.0749
   77CHL1   H14 8121   2.958   4.677   7.363 -1.1872 -1.5263  0.1147
   77CHL1   C15 8122   2.752   4.665   7.395 -0.6928 -0.0258  0.3121
   77CHL1  H15A 8123   2.668   4.729   7.360 -0.9019  0.0948  1.0176
   77CHL1  H15B 8124   2.756   4.566   7.344 -0.4919  0.6833 -1.0707
   77CHL1   C16 8125   2.764   4.629   7.552 -1.0153 -0.2496 -0.5034
   77CHL1  H16A 8126   2.670   4.654   7.604 -1.4057 -0.3523 -1.1478
   77CHL1  H16B 8127   2.784   4.521   7.569 -0.2718  0.2322  2.2691
   77CHL1   C17 8128   2.885   4.725   7.609 -0.0556  0.2876 -0.2433
   77CHL1   H17 8129   2.972   4.656   7.614  0.0747  0.5107  0.6465
   77CHL1   C13 8130   2.903   4.835   7.502 -0.0697  0.2779 -0.4449
   77CHL1   C18 8131   2.787   4.939   7.503 -0.2701  0.4692  0.6487
   77CHL1  H18A 8132   2.794   5.016   7.423 -2.3793 -0.6999 -0.7510
   77CHL1  H18B 8133   2.686   4.896   7.486 -0.0266  0.1143  0.0977
   77CHL1  H18C 8134   2.786   4.989   7.602  0.5755  0.7334  0.5343
   77CHL1   C12 8135   3.044   4.893   7.485  0.0851  0.4398  0.1480
   77CHL1  H12A 8136   3.084   4.952   7.570  0.7409  1.4365 -0.8128
   77CHL1  H12B 8137   3.113   4.806   7.480 -1.8481 -1.2176  1.1253
   77CHL1   C11 8138   3.061   4.974   7.353 -0.3558  0.3601 -0.3250
   77CHL1  H11A 8139   3.006   5.070   7.366 -0.2620  0.3728 -0.0036
   77CHL1  H11B 8140   3.172   4.985   7.352 -0.2164  0.5016  3.1909
   77CHL1    C9 8141   3.019   4.898   7.225 -0.5705  0.4473  0.4140
   77CHL1    H9 8142   3.095   4.818   7.214 -0.0360  1.0901 -0.5974
   77CHL1   C10 8143   3.039   4.976   7.093 -0.1041 -0.9732 -0.3302
   77CHL1   C19 8144   2.970   5.116   7.112 -0.2909 -0.5411  0.3093
   77CHL1  H19A 8145   3.038   5.166   7.185 -0.6193  0.2727  0.0667
   77CHL1  H19B 8146   2.990   5.185   7.027 -1.5485  0.7361  1.0076
   77CHL1  H19C 8147   2.862   5.112   7.137 -0.0511 -1.5605  1.3006
   77CHL1    C1 8148   3.192   4.992   7.048  0.6103 -0.3411 -0.2028
   77CHL1   H1A 8149   3.236   5.058   7.125  0.2302  1.1577 -1.2326
   77CHL1   H1B 8150   3.244   4.893   7.043 -0.1521 -0.8762  1.6246
   77CHL1    C2 8151   3.224   5.052   6.904 -0.0024 -0.1160 -0.1709
   77CHL1   H2A 8152   3.335   5.055   6.898  0.0612  0.6379  1.0198
   77CHL1   H2B 8153   3.188   5.157   6.908  0.1258 -0.0062 -1.5243
   77CHL1   C20 8154   2.853   4.773   7.753  0.1945 -0.1471 -0.0801
   77CHL1   H20 8155   2.746   4.805   7.759 -0.3952 -2.2680  3.3333
   77CHL1   C21 8156   2.947   4.883   7.804 -0.2818  0.7848  0.2685
   77CHL1  H21A 8157   3.047   4.834   7.802 -0.7360 -0.1570 -0.0925
   77CHL1  H21B 8158   2.923   4.909   7.909  2.5524 -1.4341  1.6131
   77CHL1  H21C 8159   2.950   4.978   7.747  0.9798 -0.1095 -1.2312
   77CHL1   C22 8160   2.856   4.653   7.850 -0.0593 -0.0613 -0.4523
   77CHL1  H22A 8161   2.802   4.565   7.808  1.3468 -0.6871 -0.9739
   77CHL1  H22B 8162   2.963   4.625   7.849 -0.0225  0.0011  0.4639
   77CHL1   C23 8163   2.802   4.679   7.995  0.1687  0.3755 -0.5385
   77CHL1  H23A 8164   2.848   4.767   8.045  0.8202 -0.7549  0.9530
   77CHL1  H23B 8165   2.694   4.699   7.984  0.4315  2.7398  0.5291
   77CHL1   C24 8166   2.817   4.553   8.082 -0.0384  0.0659 -0.4193
   77CHL1  H24A 8167   2.734   4.484   8.053 -0.6747  1.2019 -1.4349
   77CHL1  H24B 8168   2.916   4.505   8.069 -0.7068 -1.5062  0.0168
   77CHL1   C25 8169   2.809   4.586   8.236  0.7945  0.1675 -0.3193
   77CHL1   H25 8170   2.900   4.644   8.261  0.3228  0.7053  0.1947
   77CHL1   C26 8171   2.690   4.666   8.276  0.3908  0.3526  0.2962
   77CHL1  H26A 8172   2.675   4.765   8.228 -0.6241  1.3058  2.4283
   77CHL1  H26B 8173   2.600   4.601   8.270 -0.9671  2.2420 -1.2186
   77CHL1  H26C 8174   2.703   4.699   8.381  0.8737  1.1746 -0.0054
   77CHL1   C27 8175   2.807   4.462   8.330  0.5621  0.3855 -0.0605
   77CHL1  H27A 8176   2.789   4.488   8.437  0.6481 -1.6437  0.5014
   77CHL1  H27B 8177   2.724   4.398   8.294  0.0424  1.6962 -1.2771
   77CHL1  H27C 8178   2.897   4.396   8.330  0.2827 -0.0847  2.0551
   78CHL1    C3 8179   5.184   0.492   6.800 -0.6161 -0.0712 -1.0737
   78CHL1    H3 8180   5.261   0.413   6.803 -2.4423 -1.9316  0.3388
   78CHL1    O3 8181   5.165   0.520   6.664 -0.3974  0.1940  0.6000
   78CHL1   H3' 8182   5.114   0.602   6.664 -0.4178  0.2064  1.9226
   78CHL1    C4 8183   5.046   0.453   6.859 -0.2258 -0.1207  0.9289
   78CHL1   H4A 8184   4.975   0.538   6.847 -2.2862 -1.5097  2.4101
   78CHL1   H4B 8185   5.015   0.362   6.804 -1.5873  0.5588  0.5170
   78CHL1    C5 8186   5.054   0.439   7.007 -0.2858 -0.8375 -0.2891
   78CHL1    C6 8187   5.005   0.324   7.058  0.2712 -0.1993  0.2959
   78CHL1    H6 8188   4.958   0.246   6.996 -1.5710  1.1581 -0.1138
   78CHL1    C7 8189   5.005   0.294   7.206 -0.1696 -0.6351 -0.0030
   78CHL1   H7A 8190   4.908   0.252   7.240  0.3623 -0.0432  2.5014
   78CHL1   H7B 8191   5.086   0.220   7.224  0.6067 -0.2951 -1.8831
   78CHL1    C8 8192   5.032   0.418   7.298  0.7165  0.2220 -0.0362
   78CHL1    H8 8193   4.931   0.465   7.303  0.1297 -0.9553 -0.2860
   78CHL1   C14 8194   5.080   0.374   7.439  0.4757 -0.1586  0.3785
   78CHL1   H14 8195   5.171   0.312   7.422  1.2855  1.4354 -1.6144
   78CHL1   C15 8196   4.986   0.294   7.525  0.2927 -0.5261 -0.1453
   78CHL1  H15A 8197   4.884   0.338   7.530  0.6645  0.2623  0.9475
   78CHL1  H15B 8198   4.989   0.187   7.497 -1.7839 -0.4084 -1.0025
   78CHL1   C16 8199   5.049   0.303   7.662  0.1789 -0.8136 -0.4026
   78CHL1  H16A 8200   4.968   0.329   7.733  0.5472  0.2167 -0.3411
   78CHL1  H16B 8201   5.099   0.209   7.694  0.9052 -1.0445 -2.0898
   78CHL1   C17 8202   5.153   0.417   7.656 -0.2384  0.6169 -1.0501
   78CHL1   H17 8203   5.247   0.359   7.641 -0.6986 -0.7895  1.0921
   78CHL1   C13 8204   5.120   0.490   7.523 -0.9889 -0.5683 -0.2729
   78CHL1   C18 8205   5.007   0.589   7.551  0.0105  0.1394 -0.0945
   78CHL1  H18A 8206   4.925   0.533   7.601  1.5151 -0.6159  1.6745
   78CHL1  H18B 8207   5.036   0.661   7.631  1.1641 -0.8719  0.4325
   78CHL1  H18C 8208   4.970   0.641   7.460 -1.3705 -2.2030 -0.9540
   78CHL1   C12 8209   5.239   0.570   7.457  0.0657 -0.4306  0.4984
   78CHL1  H12A 8210   5.263   0.662   7.514  2.8243  0.3959 -1.7551
   78CHL1  H12B 8211   5.332   0.511   7.437 -0.1796 -0.4628 -0.6005
   78CHL1   C11 8212   5.188   0.621   7.318 -0.0800  0.4562 -0.0431
   78CHL1  H11A 8213   5.107   0.694   7.336 -1.3216 -0.4793 -1.5564
   78CHL1  H11B 8214   5.282   0.657   7.272  1.1662 -1.5574  0.7669
   78CHL1    C9 8215   5.139   0.504   7.228 -0.6805  0.1418 -0.5543
   78CHL1    H9 8216   5.225   0.435   7.220 -0.9908 -0.4570  0.9769
   78CHL1   C10 8217   5.110   0.547   7.086 -0.1316 -0.3676  0.0180
   78CHL1   C19 8218   5.007   0.661   7.091 -0.1306  0.0354  0.5620
   78CHL1  H19A 8219   4.931   0.632   7.167 -1.2597 -3.7063 -1.7487
   78CHL1  H19B 8220   5.065   0.748   7.128  0.5785 -0.0378 -0.3475
   78CHL1  H19C 8221   4.955   0.681   6.994  1.0190  0.8147  0.0832
   78CHL1    C1 8222   5.244   0.583   7.023 -0.2864  0.5009 -0.2553
   78CHL1   H1A 8223   5.284   0.669   7.082 -0.4114  0.4654 -0.1170
   78CHL1   H1B 8224   5.313   0.498   7.037  0.5857  1.4371  1.5027
   78CHL1    C2 8225   5.232   0.613   6.874 -0.1868 -0.2792 -1.0085
   78CHL1   H2A 8226   5.331   0.636   6.828  0.4665 -0.5404  0.2091
   78CHL1   H2B 8227   5.164   0.700   6.865  0.5915  0.4875  0.2414
   78CHL1   C20 8228   5.172   0.479   7.789  0.3005 -0.7438  0.6066
   78CHL1   H20 8229   5.079   0.536   7.808 -0.7990 -1.2376 -2.6586
   78CHL1   C21 8230   5.292   0.580   7.788 -0.2480 -0.0884  0.1931
   78CHL1  H21A 8231   5.316   0.618   7.890 -1.1541  2.4346 -0.4623
   78CHL1  H21B 8232   5.282   0.676   7.733  0.8092  0.9575  1.7229
   78CHL1  H21C 8233   5.384   0.527   7.754  1.6939  2.1383  1.6561
   78CHL1   C22 8234   5.200   0.374   7.897 -0.5779 -0.1863  0.8884
   78CHL1  H22A 8235   5.127   0.290   7.898 -0.1909 -0.5766 -0.4853
   78CHL1  H22B 8236   5.300   0.332   7.873 -1.4191 -0.6672 -2.4235
   78CHL1   C23 8237   5.196   0.412   8.037  0.0329  0.3042 -0.5171
   78CHL1  H23A 8238   5.278   0.486   8.049 -0.2459  0.4150  1.0040
   78CHL1  H23B 8239   5.098   0.464   8.046 -0.2219  0.1460 -2.1841
   78CHL1   C24 8240   5.211   0.294   8.137 -0.0898  0.5074  0.0777
   78CHL1  H24A 8241   5.146   0.205   8.122  1.6278 -0.6775 -0.5761
   78CHL1  H24B 8242   5.317   0.262   8.135  0.5291  2.4911 -0.1471
   78CHL1   C25 8243   5.184   0.365   8.272  0.2274 -0.2438  0.0037
   78CHL1   H25 8244   5.086   0.416   8.261  0.2277  0.2028  1.7683
   78CHL1   C26 8245   5.176   0.268   8.384  0.4832 -0.0588 -0.5857
   78CHL1  H26A 8246   5.147   0.310   8.483 -1.5403  0.3854 -1.3305
   78CHL1  H26B 8247   5.108   0.186   8.353  1.0373  0.0192 -2.1230
   78CHL1  H26C 8248   5.278   0.232   8.409 -0.2851 -0.1524  2.9325
   78CHL1   C27 8249   5.283   0.479   8.312  0.3602  0.7021 -0.1011
   78CHL1  H27A 8250   5.309   0.547   8.228 -1.3317 -1.2533 -2.3701
   78CHL1  H27B 8251   5.236   0.534   8.395 -4.4666  0.0071 -2.0052
   78CHL1  H27C 8252   5.377   0.430   8.346 -0.6261 -1.8532 -0.7994
   79CHL1    C3 8253   4.324   5.744   7.233  0.5262  0.2649 -0.6302
   79CHL1    H3 8254   4.229   5.686   7.238  0.4222  0.3398 -1.6089
   79CHL1    O3 8255   4.369   5.738   7.102  0.1477  0.5687  0.2277
   79CHL1   H3' 8256   4.447   5.793   7.106 -0.0321  0.7484  3.1404
   79CHL1    C4 8257   4.289   5.892   7.263  0.0063 -0.3696  0.3034
   79CHL1   H4A 8258   4.374   5.954   7.226 -1.5225 -0.3741 -3.6351
   79CHL1   H4B 8259   4.215   5.925   7.187 -0.3818  0.9644  1.2224
   79CHL1    C5 8260   4.265   5.937   7.405  0.0948  0.5646 -0.1032
   79CHL1    C6 8261   4.153   6.007   7.437  0.6209  0.5548 -0.2361
   79CHL1    H6 8262   4.080   6.030   7.358 -1.1457  1.1830  1.5307
   79CHL1    C7 8263   4.112   6.042   7.579 -0.4468  0.3719 -0.4349
   79CHL1   H7A 8264   4.075   6.146   7.591  0.6406  0.7374 -0.1407
   79CHL1   H7B 8265   4.028   5.978   7.612 -1.8531  1.8899 -0.9107
   79CHL1    C8 8266   4.240   6.030   7.677  0.3798  0.1664 -0.1453
   79CHL1    H8 8267   4.299   6.121   7.651  1.8619 -0.8239 -0.3509
   79CHL1   C14 8268   4.207   6.052   7.824  0.8694 -0.2095  0.1073
   79CHL1   H14 8269   4.136   5.971   7.850  1.7331 -0.9192  0.2826
   79CHL1   C15 8270   4.127   6.175   7.861  0.6457 -0.0891  0.5100
   79CHL1  H15A 8271   4.170   6.269   7.820  0.6600 -0.3135  0.0002
   79CHL1  H15B 8272   4.026   6.157   7.816  0.5162  0.6485  0.4952
   79CHL1   C16 8273   4.129   6.175   8.016 -0.2706 -0.2172  0.1402
   79CHL1  H16A 8274   4.140   6.278   8.055  0.1670 -0.4703  0.6935
   79CHL1  H16B 8275   4.034   6.130   8.052  0.9818 -1.1488  2.5075
   79CHL1   C17 8276   4.238   6.071   8.056 -0.8360  0.3398  0.2453
   79CHL1   H17 8277   4.190   5.978   8.093 -2.1509  0.4660 -1.0770
   79CHL1   C13 8278   4.313   6.032   7.935  0.2873  0.5549  0.9266
   79CHL1   C18 8279   4.420   6.141   7.918 -0.7562  0.3505  0.7923
   79CHL1  H18A 8280   4.469   6.116   7.821 -2.9880  0.1566 -0.3536
   79CHL1  H18B 8281   4.370   6.238   7.901 -1.5072 -0.4899 -2.6839
   79CHL1  H18C 8282   4.497   6.143   7.998  0.7282  0.6669 -0.5839
   79CHL1   C12 8283   4.371   5.890   7.918 -0.2260 -0.5204  0.8918
   79CHL1  H12A 8284   4.441   5.859   7.999  0.7005 -0.2909  0.1908
   79CHL1  H12B 8285   4.277   5.831   7.927 -1.4539  1.1763 -0.0641
   79CHL1   C11 8286   4.414   5.861   7.768  0.0714  0.7134 -1.2301
   79CHL1  H11A 8287   4.508   5.913   7.742  1.1756 -1.0580 -0.9252
   79CHL1  H11B 8288   4.425   5.750   7.766  2.0160  0.8423 -0.0019
   79CHL1    C9 8289   4.311   5.901   7.660  0.0269  0.0990  0.4508
   79CHL1    H9 8290   4.235   5.822   7.676 -0.3226  0.3463  0.0353
   79CHL1   C10 8291   4.359   5.877   7.514 -0.2828  0.4477 -0.1815
   79CHL1   C19 8292   4.487   5.959   7.490  0.0066  0.8123  0.4236
   79CHL1  H19A 8293   4.528   5.950   7.387  0.6845 -1.2854  0.8411
   79CHL1  H19B 8294   4.473   6.066   7.518  1.2887  0.8441  1.0267
   79CHL1  H19C 8295   4.561   5.897   7.545 -0.3178 -2.0869 -2.1312
   79CHL1    C1 8296   4.385   5.724   7.482 -0.2859  0.3500  0.1140
   79CHL1   H1A 8297   4.459   5.688   7.556 -0.4616 -0.2960 -0.0228
   79CHL1   H1B 8298   4.287   5.673   7.491  1.2172 -2.6556  0.5034
   79CHL1    C2 8299   4.427   5.686   7.335 -0.4229  0.0659  0.2473
   79CHL1   H2A 8300   4.424   5.577   7.315 -1.9703  0.3154 -1.1048
   79CHL1   H2B 8301   4.534   5.715   7.323 -0.2421  0.5858  2.5861
   79CHL1   C20 8302   4.307   6.124   8.188  0.3422 -0.4543  0.7857
   79CHL1   H20 8303   4.360   6.220   8.170 -1.8008  0.5885 -0.2846
   79CHL1   C21 8304   4.413   6.022   8.231 -0.4212  0.1781  0.0446
   79CHL1  H21A 8305   4.461   5.970   8.145  0.5383  0.7634  0.2114
   79CHL1  H21B 8306   4.370   5.948   8.301  2.2957 -0.8196  0.7727
   79CHL1  H21C 8307   4.495   6.079   8.282  0.8597  0.3948 -2.1207
   79CHL1   C22 8308   4.209   6.157   8.300 -0.1879 -0.2609  0.4535
   79CHL1  H22A 8309   4.154   6.251   8.280  0.2947  0.0635  0.6448
   79CHL1  H22B 8310   4.136   6.074   8.317  0.1862 -0.6974 -0.0553
   79CHL1   C23 8311   4.275   6.184   8.441  0.3204 -0.3375 -0.2910
   79CHL1  H23A 8312   4.338   6.095   8.463  3.0742  1.6876  0.5984
   79CHL1  H23B 8313   4.358   6.255   8.421  2.1635 -2.1905  0.4582
   79CHL1   C24 8314   4.173   6.214   8.553  0.1363 -0.3124  0.5402
   79CHL1  H24A 8315   4.105   6.294   8.516  0.5783 -0.0096  0.3742
   79CHL1  H24B 8316   4.107   6.125   8.563 -0.6910 -0.3250 -3.3920
   79CHL1   C25 8317   4.246   6.243   8.684  0.0079  0.7227 -0.1575
   79CHL1   H25 8318   4.321   6.162   8.701  0.5189  1.6840  2.4965
   79CHL1   C26 8319   4.308   6.378   8.693  0.2036 -0.2479 -0.1237
   79CHL1  H26A 8320   4.230   6.452   8.664 -0.9296 -1.1864  0.4685
   79CHL1  H26B 8321   4.352   6.405   8.791  1.6270 -0.3715 -0.7023
   79CHL1  H26C 8322   4.388   6.378   8.616 -1.3711  1.6662 -1.8999
   79CHL1   C27 8323   4.157   6.225   8.798  0.8372  0.6391  0.5589
   79CHL1  H27A 8324   4.071   6.295   8.809 -0.8164 -1.4618  1.5964
   79CHL1  H27B 8325   4.117   6.122   8.803  2.5832  0.0087  4.1262
   79CHL1  H27C 8326   4.199   6.211   8.899 -0.0244  1.4655  1.0537
   80CHL1    C3 8327   3.191   3.532   6.990  0.1684 -0.7200 -0.2841
   80CHL1    H3 8328   3.089   3.577   6.987  0.1789 -0.5738  0.8654
   80CHL1    O3 8329   3.239   3.515   6.857  0.0465  0.0646 -0.3405
   80CHL1   H3' 8330   3.326   3.477   6.871 -0.9836 -1.8547  1.4064
   80CHL1    C4 8331   3.295   3.618   7.065  0.0229  0.1008 -0.3911
   80CHL1   H4A 8332   3.399   3.578   7.063  0.9432  2.3287  0.0898
   80CHL1   H4B 8333   3.295   3.710   7.002  0.9480 -0.0149 -0.5744
   80CHL1    C5 8334   3.252   3.640   7.211  0.1423 -0.3947  0.2118
   80CHL1    C6 8335   3.242   3.764   7.257  0.6056  0.0280 -0.2722
   80CHL1    H6 8336   3.279   3.845   7.193  2.0863  0.9382  1.6392
   80CHL1    C7 8337   3.208   3.793   7.399  0.1241 -0.1987  0.5585
   80CHL1   H7A 8338   3.254   3.888   7.433 -0.6825  1.3666 -2.3912
   80CHL1   H7B 8339   3.101   3.822   7.390  0.4067  0.5116 -0.6854
   80CHL1    C8 8340   3.225   3.672   7.490 -0.9417  0.3379  0.3696
   80CHL1    H8 8341   3.331   3.657   7.520 -0.3136 -0.6919 -2.1121
   80CHL1   C14 8342   3.133   3.695   7.613  0.3250  0.4452 -0.1972
   80CHL1   H14 8343   3.028   3.688   7.577 -0.0578 -1.6191  1.1140
   80CHL1   C15 8344   3.146   3.824   7.689 -0.0397 -0.3277 -0.4999
   80CHL1  H15A 8345   3.253   3.844   7.710 -0.5762  2.1124  0.2241
   80CHL1  H15B 8346   3.110   3.920   7.647  0.9497 -1.1996 -3.6685
   80CHL1   C16 8347   3.072   3.788   7.823  0.2268  0.0447 -0.2297
   80CHL1  H16A 8348   3.127   3.815   7.916 -0.3364  1.3122 -0.2468
   80CHL1  H16B 8349   2.974   3.839   7.832  0.7772  1.4796 -1.9115
   80CHL1   C17 8350   3.048   3.636   7.830  0.2270  0.4213  0.4515
   80CHL1   H17 8351   2.941   3.619   7.805  0.4061 -0.8239  0.4483
   80CHL1   C13 8352   3.140   3.578   7.719  0.4825 -0.3820  0.5328
   80CHL1   C18 8353   3.290   3.569   7.768  0.3668  0.4162  0.1322
   80CHL1  H18A 8354   3.362   3.551   7.685  1.6791  4.3106  0.2013
   80CHL1  H18B 8355   3.334   3.659   7.817 -1.1030  0.1881  1.9926
   80CHL1  H18C 8356   3.301   3.486   7.841  2.0246  0.4243 -0.0573
   80CHL1   C12 8357   3.084   3.449   7.653  0.5863 -0.0087  0.1511
   80CHL1  H12A 8358   3.104   3.358   7.714  0.4408  0.7900  1.4150
   80CHL1  H12B 8359   2.978   3.466   7.624  0.5697 -0.6037 -0.1488
   80CHL1   C11 8360   3.175   3.425   7.530 -0.4232  0.4268 -0.0860
   80CHL1  H11A 8361   3.279   3.406   7.565 -0.8815 -1.7836  0.1999
   80CHL1  H11B 8362   3.154   3.326   7.484  2.0562 -0.9084  1.3985
   80CHL1    C9 8363   3.174   3.540   7.430 -0.2495  0.2247 -0.3242
   80CHL1    H9 8364   3.068   3.569   7.408 -0.4676 -1.9859 -2.8378
   80CHL1   C10 8365   3.231   3.513   7.292  0.0617  0.7828 -0.5895
   80CHL1   C19 8366   3.361   3.434   7.319  0.2400 -0.5025 -0.2512
   80CHL1  H19A 8367   3.423   3.416   7.229 -1.1354 -1.6371 -1.0243
   80CHL1  H19B 8368   3.425   3.494   7.387  0.4163 -0.2294 -0.6569
   80CHL1  H19C 8369   3.331   3.332   7.351 -2.3990  0.5096  0.7722
   80CHL1    C1 8370   3.137   3.419   7.208 -0.1113 -0.4125 -0.4218
   80CHL1   H1A 8371   3.139   3.322   7.260  2.5974 -0.0389  0.3166
   80CHL1   H1B 8372   3.032   3.458   7.209  0.2945  0.7273 -0.3026
   80CHL1    C2 8373   3.173   3.399   7.062 -0.1474  0.0688  0.1288
   80CHL1   H2A 8374   3.095   3.345   7.004 -1.6005  0.4027  1.6804
   80CHL1   H2B 8375   3.270   3.347   7.048  2.0590  3.9580 -0.3770
   80CHL1   C20 8376   3.061   3.587   7.970 -1.3227  0.1074 -0.2232
   80CHL1   H20 8377   3.155   3.626   8.014 -2.1237  0.9469  0.7814
   80CHL1   C21 8378   3.051   3.430   7.980 -0.0046  0.2021 -0.1724
   80CHL1  H21A 8379   2.953   3.385   7.953  0.1821  0.4335 -1.3131
   80CHL1  H21B 8380   3.076   3.388   8.080 -0.4338  1.7465  0.6125
   80CHL1  H21C 8381   3.132   3.392   7.913  1.2397  0.8025  0.9329
   80CHL1   C22 8382   2.957   3.645   8.064  0.0002  0.4119 -0.3192
   80CHL1  H22A 8383   2.956   3.755   8.049 -3.9100  0.2811 -2.5551
   80CHL1  H22B 8384   2.857   3.603   8.040 -1.1159  3.3093 -1.2437
   80CHL1   C23 8385   2.996   3.617   8.211  0.0284 -0.7491  1.0876
   80CHL1  H23A 8386   3.040   3.517   8.230  0.6264 -0.8223 -0.5348
   80CHL1  H23B 8387   3.079   3.689   8.229  0.3191 -0.4853 -1.0800
   80CHL1   C24 8388   2.887   3.656   8.304  0.7208 -0.5336  0.2408
   80CHL1  H24A 8389   2.864   3.765   8.307  0.4990 -0.5827  0.4011
   80CHL1  H24B 8390   2.796   3.594   8.285  0.0667 -0.8256  3.6722
   80CHL1   C25 8391   2.934   3.636   8.452  0.1078 -0.2789  0.6299
   80CHL1   H25 8392   2.960   3.528   8.462  2.3661  0.1770  0.3758
   80CHL1   C26 8393   3.051   3.717   8.493 -0.1685 -0.1828  0.1007
   80CHL1  H26A 8394   3.045   3.825   8.464 -1.9242 -0.5023 -0.9036
   80CHL1  H26B 8395   3.073   3.713   8.602 -0.0470 -1.3159  0.0445
   80CHL1  H26C 8396   3.142   3.678   8.444  1.1266  1.5548  1.0230
   80CHL1   C27 8397   2.821   3.666   8.554  0.3267  0.1131 -1.1772
   80CHL1  H27A 8398   2.855   3.687   8.658 -1.0914  0.6267 -0.7856
   80CHL1  H27B 8399   2.777   3.764   8.526  0.9980  0.9281  0.4582
   80CHL1  H27C 8400   2.739   3.590   8.552  1.0800 -0.8881  1.5100
   81CHL1    C3 8401   6.716   3.583   6.812  0.3585  0.3223  0.0950
   81CHL1    H3 8402   6.612   3.617   6.833  0.3717  0.1717  0.4263
   81CHL1    O3 8403   6.724   3.569   6.674 -0.0153 -0.2067  0.1400
   81CHL1   H3' 8404   6.813   3.536   6.656 -0.6789 -2.2841  0.3342
   81CHL1    C4 8405   6.820   3.682   6.856 -0.5431 -0.6515  0.5992
   81CHL1   H4A 8406   6.921   3.653   6.820 -0.5588 -0.5516  0.4728
   81CHL1   H4B 8407   6.806   3.780   6.805  2.3503 -1.0028 -1.0968
   81CHL1    C5 8408   6.831   3.699   7.004  0.2702  0.2211 -0.2228
   81CHL1    C6 8409   6.852   3.817   7.055  0.0145 -0.0436 -0.5547
   81CHL1    H6 8410   6.858   3.896   6.978 -0.9388 -2.3854 -3.1934
   81CHL1    C7 8411   6.850   3.854   7.204 -0.0221 -0.3243  0.6943
   81CHL1   H7A 8412   6.928   3.925   7.238  0.1207  0.3504 -0.9316
   81CHL1   H7B 8413   6.753   3.904   7.221 -0.1227  0.0892 -0.9515
   81CHL1    C8 8414   6.865   3.727   7.282 -0.6500  0.4024 -0.1026
   81CHL1    H8 8415   6.973   3.701   7.271 -0.6158  0.7213 -0.5426
   81CHL1   C14 8416   6.834   3.754   7.426 -0.7489  0.8576 -0.2741
   81CHL1   H14 8417   6.723   3.756   7.427 -0.7618  0.1573  0.7840
   81CHL1   C15 8418   6.894   3.877   7.497  0.2163  0.0760  0.0547
   81CHL1  H15A 8419   7.001   3.903   7.481  0.9008 -1.9348  1.0207
   81CHL1  H15B 8420   6.830   3.968   7.499  0.8051  0.4847  2.0478
   81CHL1   C16 8421   6.888   3.844   7.651 -0.0311 -0.6884  0.4493
   81CHL1  H16A 8422   6.991   3.838   7.690  0.4963  1.6109 -0.4028
   81CHL1  H16B 8423   6.828   3.912   7.716 -1.1146 -0.4151 -0.7854
   81CHL1   C17 8424   6.815   3.708   7.655 -0.6302 -0.3699 -0.0545
   81CHL1   H17 8425   6.709   3.740   7.646  0.2819  3.6239  1.0314
   81CHL1   C13 8426   6.855   3.637   7.530  0.9363 -0.5279 -0.5229
   81CHL1   C18 8427   7.000   3.597   7.524  0.6759  0.1744  0.5750
   81CHL1  H18A 8428   7.068   3.681   7.552 -0.2456  1.9755 -2.1363
   81CHL1  H18B 8429   7.026   3.512   7.590  0.3663  0.1891  0.7177
   81CHL1  H18C 8430   7.038   3.562   7.426 -3.6141 -0.9190 -0.9097
   81CHL1   C12 8431   6.754   3.527   7.489 -0.2635  0.5187  0.1614
   81CHL1  H12A 8432   6.768   3.447   7.565 -0.3178 -0.4997 -0.8737
   81CHL1  H12B 8433   6.648   3.556   7.503 -0.9113  0.2042 -3.3246
   81CHL1   C11 8434   6.783   3.484   7.340 -0.2157 -0.9046 -0.2573
   81CHL1  H11A 8435   6.881   3.432   7.338  0.0617 -0.4377  0.6887
   81CHL1  H11B 8436   6.707   3.411   7.305 -0.4767  0.3604 -2.5032
   81CHL1    C9 8437   6.780   3.607   7.239 -0.1408  0.5308 -0.1682
   81CHL1    H9 8438   6.676   3.647   7.242 -0.6369 -0.6218 -1.2312
   81CHL1   C10 8439   6.813   3.570   7.089  0.6265  0.1850  0.7645
   81CHL1   C19 8440   6.949   3.502   7.081  0.3075  0.7718 -0.0100
   81CHL1  H19A 8441   6.977   3.490   6.974 -2.6995 -2.5528 -0.6376
   81CHL1  H19B 8442   7.024   3.561   7.137  0.6944  0.5564 -0.2860
   81CHL1  H19C 8443   6.941   3.399   7.122  2.8764 -0.5368 -2.3781
   81CHL1    C1 8444   6.700   3.478   7.036 -0.1496  0.1226  0.2765
   81CHL1   H1A 8445   6.714   3.385   7.095 -3.3192 -0.5196  0.1983
   81CHL1   H1B 8446   6.602   3.528   7.055 -1.0954 -1.2992 -0.6454
   81CHL1    C2 8447   6.715   3.451   6.884  0.2529  0.5150 -0.5294
   81CHL1   H2A 8448   6.625   3.398   6.848 -1.2928  0.7658  2.6723
   81CHL1   H2B 8449   6.805   3.391   6.857 -1.2583 -1.5140 -1.2875
   81CHL1   C20 8450   6.812   3.629   7.787 -0.0173  0.0596 -0.6257
   81CHL1   H20 8451   6.767   3.529   7.768  0.7410 -0.0099 -2.1806
   81CHL1   C21 8452   6.727   3.708   7.888  0.1339  0.5706  0.2910
   81CHL1  H21A 8453   6.624   3.688   7.851  0.6987 -0.9619 -0.5492
   81CHL1  H21B 8454   6.742   3.817   7.876  3.1315  0.0903 -1.1660
   81CHL1  H21C 8455   6.723   3.664   7.990  0.3508  1.6810  0.7886
   81CHL1   C22 8456   6.957   3.602   7.853  0.0216 -0.7347  1.2204
   81CHL1  H22A 8457   7.007   3.526   7.789 -1.8065 -3.2510  2.5910
   81CHL1  H22B 8458   7.023   3.691   7.849  1.1887 -1.5994 -0.9581
   81CHL1   C23 8459   6.945   3.549   7.999 -0.5485  0.2747 -0.5736
   81CHL1  H23A 8460   7.049   3.518   8.022 -0.9038  0.7174  2.0408
   81CHL1  H23B 8461   6.918   3.635   8.065  1.8542 -0.2751  1.2520
   81CHL1   C24 8462   6.852   3.431   8.020 -0.1906  0.7846 -0.1888
   81CHL1  H24A 8463   6.743   3.442   8.001 -0.9359 -3.1074  0.9647
   81CHL1  H24B 8464   6.884   3.347   7.955 -1.5184  0.7197 -0.7843
   81CHL1   C25 8465   6.865   3.374   8.158 -0.3133  0.4699 -0.1384
   81CHL1   H25 8466   6.973   3.362   8.184  0.1916  1.1734 -1.7776
   81CHL1   C26 8467   6.805   3.458   8.272  0.3988  0.4321 -0.4563
   81CHL1  H26A 8468   6.879   3.532   8.307 -0.1939  1.0481 -0.4903
   81CHL1  H26B 8469   6.701   3.494   8.255 -0.2155  0.7315  3.0616
   81CHL1  H26C 8470   6.785   3.397   8.363  0.4294  1.6530  0.3908
   81CHL1   C27 8471   6.801   3.232   8.173  0.5225  0.4962  0.0111
   81CHL1  H27A 8472   6.819   3.149   8.101 -1.3493  0.9046 -0.9877
   81CHL1  H27B 8473   6.810   3.198   8.278 -1.8544 -2.0786 -0.4978
   81CHL1  H27C 8474   6.692   3.250   8.166  0.5737  0.6710 -0.4138
   82CHL1    C3 8475   1.758   3.775   6.922 -0.0782  0.2961  1.2978
   82CHL1    H3 8476   1.699   3.868   6.935 -1.1758 -0.1857  0.0250
   82CHL1    O3 8477   1.811   3.775   6.788 -0.3720  0.1177  0.1673
   82CHL1   H3' 8478   1.828   3.682   6.774  0.1232  0.2264  0.0295
   82CHL1    C4 8479   1.875   3.756   7.017  1.4263 -0.9253  0.2987
   82CHL1   H4A 8480   1.939   3.674   6.978 -0.7135 -1.0199 -3.3724
   82CHL1   H4B 8481   1.930   3.853   7.014  0.4838 -0.4039 -1.0183
   82CHL1    C5 8482   1.824   3.731   7.159  0.2051  0.2053 -0.0491
   82CHL1    C6 8483   1.861   3.812   7.254  0.1927  0.1095  0.0002
   82CHL1    H6 8484   1.936   3.892   7.242  0.9429 -0.3260  1.4880
   82CHL1    C7 8485   1.824   3.789   7.403 -0.7446 -0.5684 -0.3953
   82CHL1   H7A 8486   1.918   3.790   7.462  1.0757  0.1738 -3.1031
   82CHL1   H7B 8487   1.751   3.866   7.437  1.5125  0.9071  1.4549
   82CHL1    C8 8488   1.752   3.660   7.430  0.6593  1.0137 -0.5029
   82CHL1    H8 8489   1.832   3.582   7.429  1.3497  1.7011  0.0239
   82CHL1   C14 8490   1.676   3.669   7.562 -0.1556  0.6990 -0.1312
   82CHL1   H14 8491   1.602   3.752   7.556 -2.1835 -0.9309  0.9708
   82CHL1   C15 8492   1.751   3.715   7.688 -0.2655  0.3215 -0.2734
   82CHL1  H15A 8493   1.859   3.688   7.700 -0.2514  1.3933  2.6972
   82CHL1  H15B 8494   1.743   3.825   7.686 -0.1363  0.3390 -2.1252
   82CHL1   C16 8495   1.674   3.653   7.807 -1.0013 -0.4791  0.6997
   82CHL1  H16A 8496   1.740   3.581   7.859  0.5661  0.8185  0.5717
   82CHL1  H16B 8497   1.655   3.738   7.877 -3.1462  1.4167 -1.9654
   82CHL1   C17 8498   1.554   3.587   7.741  0.0478  0.1235 -0.1946
   82CHL1   H17 8499   1.467   3.657   7.733  1.3840  1.8961  0.1075
   82CHL1   C13 8500   1.594   3.550   7.591  0.0615  0.3058 -0.7300
   82CHL1   C18 8501   1.670   3.413   7.585  0.2504  0.4520  0.2991
   82CHL1  H18A 8502   1.740   3.400   7.670 -3.4843 -1.4439  3.3574
   82CHL1  H18B 8503   1.599   3.327   7.584  2.1555 -1.2262 -1.7791
   82CHL1  H18C 8504   1.731   3.404   7.493  1.6540  0.6693  1.1830
   82CHL1   C12 8505   1.480   3.548   7.489 -0.4150  0.0297  0.1396
   82CHL1  H12A 8506   1.404   3.468   7.504 -0.9713  0.9540  2.7618
   82CHL1  H12B 8507   1.432   3.648   7.498 -0.0832  0.0715  1.6613
   82CHL1   C11 8508   1.538   3.524   7.354  0.0584 -0.1796  0.1483
   82CHL1  H11A 8509   1.570   3.418   7.349  0.1708 -0.1060 -0.9634
   82CHL1  H11B 8510   1.456   3.535   7.281  1.4614 -0.2560 -1.5132
   82CHL1    C9 8511   1.645   3.640   7.320  0.1980  0.1307 -0.0008
   82CHL1    H9 8512   1.587   3.735   7.322 -1.8375 -1.0525  1.7042
   82CHL1   C10 8513   1.714   3.629   7.180 -0.3042  0.4896 -0.4882
   82CHL1   C19 8514   1.782   3.486   7.185 -0.3281 -0.0247  0.0054
   82CHL1  H19A 8515   1.872   3.478   7.249 -0.0652  2.5944  0.0555
   82CHL1  H19B 8516   1.712   3.402   7.205  1.6500 -2.2853 -1.9079
   82CHL1  H19C 8517   1.828   3.472   7.085  0.2886 -0.8823  0.3990
   82CHL1    C1 8518   1.608   3.643   7.068  0.2799  0.0521  0.1151
   82CHL1   H1A 8519   1.527   3.567   7.071 -0.8825  1.2896  1.0204
   82CHL1   H1B 8520   1.549   3.735   7.087 -1.1827 -1.3758  3.3406
   82CHL1    C2 8521   1.667   3.654   6.926  0.1702 -0.3093 -0.1693
   82CHL1   H2A 8522   1.584   3.672   6.854 -0.1524 -0.7438  0.0922
   82CHL1   H2B 8523   1.723   3.564   6.894 -0.0125 -1.2898  2.1155
   82CHL1   C20 8524   1.513   3.466   7.827  0.2884  0.5509  0.2842
   82CHL1   H20 8525   1.594   3.390   7.824  0.0353  0.2176  1.4436
   82CHL1   C21 8526   1.381   3.413   7.779  0.2621 -0.3418  1.2074
   82CHL1  H21A 8527   1.301   3.490   7.782 -0.9863 -1.5804  0.5324
   82CHL1  H21B 8528   1.345   3.327   7.838 -1.1494  0.9085  2.2477
   82CHL1  H21C 8529   1.398   3.381   7.674 -1.8383  0.0446  0.7025
   82CHL1   C22 8530   1.500   3.496   7.975  0.0404 -0.2251 -0.8652
   82CHL1  H22A 8531   1.455   3.408   8.026 -2.8581  0.5099 -1.9661
   82CHL1  H22B 8532   1.595   3.496   8.032 -1.3444  1.5800  1.6575
   82CHL1   C23 8533   1.410   3.618   8.008  0.1622 -0.0375  0.0004
   82CHL1  H23A 8534   1.464   3.709   7.975  1.0386 -0.1735  1.0244
   82CHL1  H23B 8535   1.322   3.615   7.940 -0.4438 -0.6701  0.7856
   82CHL1   C24 8536   1.354   3.624   8.155  0.3908  0.1152  0.4416
   82CHL1  H24A 8537   1.299   3.533   8.186  1.1077 -0.1175  1.0654
   82CHL1  H24B 8538   1.446   3.623   8.218  1.0775 -2.1948 -0.5202
   82CHL1   C25 8539   1.276   3.752   8.181  0.4242  0.4676  0.4191
   82CHL1   H25 8540   1.338   3.834   8.140  0.1252  0.5899  0.2073
   82CHL1   C26 8541   1.141   3.757   8.106  0.3860 -0.4547  0.2320
   82CHL1  H26A 8542   1.071   3.834   8.144  0.7611  0.2075 -0.3933
   82CHL1  H26B 8543   1.166   3.788   8.002  1.1602  0.7466  0.7603
   82CHL1  H26C 8544   1.097   3.655   8.105  0.0102 -0.2909 -0.1027
   82CHL1   C27 8545   1.281   3.785   8.329  0.3209 -0.0442 -0.4268
   82CHL1  H27A 8546   1.210   3.719   8.382 -0.0720  2.1959  2.0234
   82CHL1  H27B 8547   1.380   3.787   8.381 -0.2381  0.2861  0.6471
   82CHL1  H27C 8548   1.238   3.886   8.346 -0.5898 -0.5936  0.5864
   83CHL1    C3 8549   4.053   5.162   6.875  0.2296  0.3061  0.1608
   83CHL1    H3 8550   3.956   5.198   6.915  0.7253  1.1618  0.6426
   83CHL1    O3 8551   4.058   5.178   6.732 -0.3737  0.5268 -0.3922
   83CHL1   H3' 8552   4.146   5.147   6.710 -0.3485  0.1080  0.2848
   83CHL1    C4 8553   4.164   5.237   6.930  0.1286 -1.0520 -0.5519
   83CHL1   H4A 8554   4.260   5.215   6.880 -0.1362 -0.0747 -1.5134
   83CHL1   H4B 8555   4.151   5.343   6.900 -1.5764 -0.5152  1.7751
   83CHL1    C5 8556   4.178   5.230   7.079 -0.1424  0.3312 -0.3357
   83CHL1    C6 8557   4.178   5.342   7.150  0.7041  0.6299 -0.3920
   83CHL1    H6 8558   4.161   5.437   7.096 -2.5244  0.6895  0.4954
   83CHL1    C7 8559   4.181   5.351   7.293 -0.1509  0.1798  0.1862
   83CHL1   H7A 8560   4.250   5.433   7.324 -0.2143  0.7702 -1.1969
   83CHL1   H7B 8561   4.085   5.383   7.338 -0.0917  0.0414  0.4138
   83CHL1    C8 8562   4.223   5.218   7.357 -0.6010  0.5341 -0.4337
   83CHL1    H8 8563   4.332   5.208   7.340 -0.5750 -1.4897  0.6035
   83CHL1   C14 8564   4.186   5.209   7.504  0.5882 -0.4041  0.0571
   83CHL1   H14 8565   4.075   5.220   7.508  0.5544 -1.0685  1.5923
   83CHL1   C15 8566   4.237   5.330   7.584 -0.0502 -0.3316  0.0659
   83CHL1  H15A 8567   4.347   5.333   7.567  0.3329 -4.6695  0.5984
   83CHL1  H15B 8568   4.194   5.429   7.560  1.5436  0.2894 -0.3990
   83CHL1   C16 8569   4.221   5.284   7.727 -0.0582 -0.1886 -0.7637
   83CHL1  H16A 8570   4.317   5.305   7.780 -1.6458  1.8149  1.5308
   83CHL1  H16B 8571   4.136   5.339   7.772  0.2414  0.8601 -1.4466
   83CHL1   C17 8572   4.191   5.130   7.723 -0.7240  0.1616 -0.2076
   83CHL1   H17 8573   4.081   5.133   7.740 -0.5594  1.2611  0.8339
   83CHL1   C13 8574   4.218   5.087   7.584  0.3718 -0.5896 -0.4395
   83CHL1   C18 8575   4.374   5.058   7.568  0.6739 -0.2226 -0.6763
   83CHL1  H18A 8576   4.421   5.152   7.605 -1.2497 -0.6533  3.3337
   83CHL1  H18B 8577   4.415   4.977   7.633 -1.7353  0.1988  1.5345
   83CHL1  H18C 8578   4.405   5.027   7.466  0.3594 -1.9832 -0.2714
   83CHL1   C12 8579   4.129   4.976   7.518  1.0767 -0.4571 -0.1841
   83CHL1  H12A 8580   4.145   4.878   7.567 -0.2413 -2.0246 -2.6708
   83CHL1  H12B 8581   4.024   5.010   7.531  1.5173  0.7481  0.3422
   83CHL1   C11 8582   4.146   4.968   7.363 -0.1759 -0.0871  0.3337
   83CHL1  H11A 8583   4.245   4.919   7.348  0.4698  1.6953 -1.5797
   83CHL1  H11B 8584   4.066   4.901   7.323  1.3853 -0.9083 -1.6050
   83CHL1    C9 8585   4.142   5.097   7.283 -0.0351 -0.2084  0.3318
   83CHL1    H9 8586   4.039   5.135   7.271  0.4739  1.0636 -0.1239
   83CHL1   C10 8587   4.182   5.083   7.135 -0.0113 -0.1833 -0.2000
   83CHL1   C19 8588   4.327   5.033   7.114 -0.4492  0.1368  0.3481
   83CHL1  H19A 8589   4.328   4.922   7.118 -1.6831  0.1204  0.7492
   83CHL1  H19B 8590   4.377   5.058   7.019 -1.0169  1.2850  0.3221
   83CHL1  H19C 8591   4.393   5.071   7.195  1.0476 -0.2445 -0.6741
   83CHL1    C1 8592   4.072   4.989   7.057 -0.6507 -0.4543  0.5155
   83CHL1   H1A 8593   4.092   4.884   7.085 -0.4026 -0.4482  0.3639
   83CHL1   H1B 8594   3.976   5.032   7.094 -0.9331 -1.1558  0.6075
   83CHL1    C2 8595   4.073   5.013   6.905 -0.3354 -1.0445  0.2317
   83CHL1   H2A 8596   3.991   4.957   6.855 -0.0279 -1.6488  0.3995
   83CHL1   H2B 8597   4.174   4.982   6.871  0.1045 -0.5424  1.0504
   83CHL1   C20 8598   4.247   5.046   7.838 -0.5543  0.9078 -0.3540
   83CHL1   H20 8599   4.356   5.038   7.821 -0.7104 -1.5945 -0.6217
   83CHL1   C21 8600   4.195   4.898   7.838 -0.9011 -0.3396  0.0073
   83CHL1  H21A 8601   4.084   4.892   7.830 -0.9581 -0.5851  0.8957
   83CHL1  H21B 8602   4.221   4.840   7.930 -1.6708 -1.2572 -0.3361
   83CHL1  H21C 8603   4.243   4.859   7.746 -0.3153  0.9573 -0.2557
   83CHL1   C22 8604   4.225   5.100   7.987  0.0898  0.4537 -0.3115
   83CHL1  H22A 8605   4.220   5.211   7.986 -1.2359  0.4235  0.8072
   83CHL1  H22B 8606   4.127   5.071   8.028 -0.6206  1.1434 -1.4691
   83CHL1   C23 8607   4.340   5.054   8.075 -0.1702 -0.2413 -0.9859
   83CHL1  H23A 8608   4.333   4.944   8.063 -2.5534 -0.2064 -0.4161
   83CHL1  H23B 8609   4.441   5.087   8.042 -0.0683  0.2432 -0.2062
   83CHL1   C24 8610   4.308   5.089   8.226 -0.5186 -0.0721  0.2977
   83CHL1  H24A 8611   4.309   5.198   8.246 -0.1360  0.1058 -0.6386
   83CHL1  H24B 8612   4.212   5.037   8.246 -0.2638 -0.0888  1.5643
   83CHL1   C25 8613   4.422   5.036   8.313 -0.3496 -0.0304 -0.1921
   83CHL1   H25 8614   4.501   5.108   8.281 -0.0119 -0.6131 -0.6902
   83CHL1   C26 8615   4.385   5.048   8.457  0.4488 -0.5044  0.3765
   83CHL1  H26A 8616   4.453   4.984   8.517 -0.2641 -1.4045  0.2448
   83CHL1  H26B 8617   4.378   5.153   8.493 -0.3831 -0.6064  0.5209
   83CHL1  H26C 8618   4.287   4.995   8.457 -0.3587  0.8459 -1.6487
   83CHL1   C27 8619   4.470   4.895   8.286 -0.5822  0.7226  0.5959
   83CHL1  H27A 8620   4.385   4.825   8.295  1.7179 -1.9672  4.5291
   83CHL1  H27B 8621   4.530   4.889   8.192 -0.1654  0.6539  0.8613
   83CHL1  H27C 8622   4.540   4.862   8.366 -0.9115  0.7059  0.8806
   84CHL1    C3 8623   6.691   1.626   6.860  0.1207 -0.3634 -0.6866
   84CHL1    H3 8624   6.798   1.596   6.865  1.4010  3.7886  1.1520
   84CHL1    O3 8625   6.674   1.668   6.724  0.0530  0.4976 -0.6541
   84CHL1   H3' 8626   6.617   1.599   6.689  1.0494 -0.6510 -0.0787
   84CHL1    C4 8627   6.587   1.520   6.901  0.1675 -0.0905 -0.2231
   84CHL1   H4A 8628   6.488   1.567   6.884 -0.3882 -1.2421 -0.2429
   84CHL1   H4B 8629   6.607   1.435   6.832  2.5914  1.4923 -1.6071
   84CHL1    C5 8630   6.597   1.473   7.045  0.2765  0.4876 -0.2573
   84CHL1    C6 8631   6.607   1.347   7.084  0.0417  0.4461 -0.1729
   84CHL1    H6 8632   6.613   1.271   7.004 -1.0241  0.3502 -0.1762
   84CHL1    C7 8633   6.601   1.305   7.227 -0.2441 -0.2924 -0.9732
   84CHL1   H7A 8634   6.517   1.236   7.252 -1.1849  1.3581  0.6588
   84CHL1   H7B 8635   6.689   1.243   7.255 -0.9626 -0.4275  1.1660
   84CHL1    C8 8636   6.585   1.427   7.332 -0.4175 -0.0940 -0.6535
   84CHL1    H8 8637   6.476   1.449   7.328 -0.2590  0.6674 -0.8734
   84CHL1   C14 8638   6.639   1.383   7.465  0.3078 -0.1209 -0.5660
   84CHL1   H14 8639   6.749   1.373   7.447  0.3629 -0.8626  0.1285
   84CHL1   C15 8640   6.581   1.249   7.519 -0.5305 -0.3722 -0.6047
   84CHL1  H15A 8641   6.470   1.255   7.519 -0.4844  1.7259  1.2046
   84CHL1  H15B 8642   6.629   1.160   7.473  0.7535 -0.1085  0.1777
   84CHL1   C16 8643   6.614   1.258   7.664 -0.5720 -0.1250 -0.6121
   84CHL1  H16A 8644   6.529   1.232   7.730 -0.6974  3.3312  0.7527
   84CHL1  H16B 8645   6.696   1.183   7.676 -1.7496 -1.3264  0.2657
   84CHL1   C17 8646   6.671   1.404   7.688 -0.1770  0.6844  0.4114
   84CHL1   H17 8647   6.781   1.392   7.678  0.0586  0.4527  2.7867
   84CHL1   C13 8648   6.623   1.486   7.571  0.2958  0.9266  0.2299
   84CHL1   C18 8649   6.479   1.525   7.591  0.3745  0.9017 -0.2461
   84CHL1  H18A 8650   6.468   1.592   7.679 -0.5854  1.3232 -0.6712
   84CHL1  H18B 8651   6.443   1.582   7.502  0.2539  1.0216 -0.1219
   84CHL1  H18C 8652   6.405   1.443   7.604 -0.1817  0.7553 -3.4081
   84CHL1   C12 8653   6.715   1.606   7.529  0.1997  0.0942 -0.8250
   84CHL1  H12A 8654   6.732   1.680   7.610 -0.7255 -1.5619  0.9443
   84CHL1  H12B 8655   6.813   1.557   7.513  0.5089  0.2018  0.6193
   84CHL1   C11 8656   6.680   1.664   7.396 -0.3253 -0.3648  0.6055
   84CHL1  H11A 8657   6.585   1.722   7.403 -1.0558 -1.4929  0.4196
   84CHL1  H11B 8658   6.751   1.736   7.351 -0.7682  0.0221  0.5080
   84CHL1    C9 8659   6.659   1.553   7.280 -0.0633  0.2754 -0.9191
   84CHL1    H9 8660   6.763   1.519   7.263 -0.2160 -0.0837 -1.1389
   84CHL1   C10 8661   6.596   1.597   7.144 -0.0397 -0.0152  0.5368
   84CHL1   C19 8662   6.457   1.655   7.145  0.0633 -0.0627  0.7097
   84CHL1  H19A 8663   6.387   1.579   7.185 -0.5563 -1.3802 -2.5014
   84CHL1  H19B 8664   6.460   1.750   7.203 -1.8701 -0.2732  1.2219
   84CHL1  H19C 8665   6.424   1.696   7.047 -1.6133 -0.9445  0.8684
   84CHL1    C1 8666   6.695   1.702   7.091 -0.0460  0.3910 -0.3680
   84CHL1   H1A 8667   6.693   1.791   7.158  0.7705  0.2367 -0.1345
   84CHL1   H1B 8668   6.799   1.665   7.094  0.6414  1.7747 -3.4165
   84CHL1    C2 8669   6.670   1.754   6.950  0.0880  0.9443  0.0485
   84CHL1   H2A 8670   6.741   1.834   6.919 -0.0755  0.9001 -0.4408
   84CHL1   H2B 8671   6.572   1.804   6.939 -0.2922  0.0566 -0.7745
   84CHL1   C20 8672   6.644   1.453   7.825 -0.2122 -1.0449 -0.9695
   84CHL1   H20 8673   6.535   1.469   7.838 -0.0070 -0.8966  0.8006
   84CHL1   C21 8674   6.708   1.592   7.852  0.1223  0.3444 -0.6265
   84CHL1  H21A 8675   6.813   1.589   7.816  0.2263  1.4378 -0.4532
   84CHL1  H21B 8676   6.703   1.631   7.956  1.9907 -1.4636  0.1992
   84CHL1  H21C 8677   6.652   1.667   7.792 -2.0948 -1.7359 -1.3018
   84CHL1   C22 8678   6.697   1.355   7.930 -0.4001 -0.3518  0.4765
   84CHL1  H22A 8679   6.733   1.264   7.878  1.0430  2.1460 -3.3293
   84CHL1  H22B 8680   6.775   1.391   8.000 -2.5253  3.5014  1.1038
   84CHL1   C23 8681   6.578   1.326   8.020 -0.1653 -1.1518 -0.0606
   84CHL1  H23A 8682   6.534   1.425   8.048  0.8450 -0.9755  0.9644
   84CHL1  H23B 8683   6.493   1.281   7.963 -1.7095  0.8176  0.5676
   84CHL1   C24 8684   6.612   1.243   8.141  0.5504 -0.7370  0.4764
   84CHL1  H24A 8685   6.664   1.303   8.219 -1.2074 -0.2621  1.3640
   84CHL1  H24B 8686   6.516   1.215   8.190 -0.0720  0.4097 -0.0450
   84CHL1   C25 8687   6.689   1.121   8.118  0.3005  0.5309 -0.2226
   84CHL1   H25 8688   6.788   1.139   8.072 -0.5174 -1.6899 -3.1170
   84CHL1   C26 8689   6.734   1.059   8.254  0.3405 -0.4631 -0.2708
   84CHL1  H26A 8690   6.804   0.975   8.230  0.8001  0.0641 -0.8352
   84CHL1  H26B 8691   6.799   1.133   8.305  2.0987 -2.3361  0.3529
   84CHL1  H26C 8692   6.640   1.030   8.304  1.1146 -3.5855 -0.4235
   84CHL1   C27 8693   6.611   1.029   8.021  0.2265  0.0930  0.1331
   84CHL1  H27A 8694   6.592   1.079   7.924  2.3991 -1.7440 -1.3622
   84CHL1  H27B 8695   6.674   0.940   8.001 -1.5977 -1.0564 -0.7440
   84CHL1  H27C 8696   6.522   0.988   8.073  0.4475 -1.7951 -0.9118
   85CHL1    C3 8697   5.473   6.552   7.050 -0.1832 -0.2065  0.2392
   85CHL1    H3 8698   5.380   6.601   7.087 -0.2657 -0.6231  0.5949
   85CHL1    O3 8699   5.475   6.553   6.906  0.5768 -0.0880 -0.1619
   85CHL1   H3' 8700   5.562   6.520   6.880  0.4346 -0.1412 -0.5729
   85CHL1    C4 8701   5.599   6.628   7.092  0.0348  0.6727  0.1011
   85CHL1   H4A 8702   5.687   6.578   7.047 -0.5322 -2.0117  1.6954
   85CHL1   H4B 8703   5.604   6.730   7.049  0.6686  0.9063  0.7041
   85CHL1    C5 8704   5.617   6.635   7.242 -0.6510  0.3666 -0.3016
   85CHL1    C6 8705   5.646   6.747   7.309 -0.0417 -0.3848  0.2001
   85CHL1    H6 8706   5.651   6.842   7.252  0.9260 -1.7927 -2.2104
   85CHL1    C7 8707   5.668   6.753   7.458 -0.0754 -0.0416  0.4683
   85CHL1   H7A 8708   5.752   6.821   7.483  0.7101 -1.0046  0.5407
   85CHL1   H7B 8709   5.578   6.794   7.507 -1.0202 -1.9284  0.4129
   85CHL1    C8 8710   5.691   6.609   7.513  0.2180  0.5511 -0.1481
   85CHL1    H8 8711   5.789   6.589   7.465  0.3446 -0.1558  0.3820
   85CHL1   C14 8712   5.708   6.605   7.663  0.0544  0.1001  0.0732
   85CHL1   H14 8713   5.612   6.647   7.702 -0.3362 -0.7842  0.0855
   85CHL1   C15 8714   5.815   6.693   7.719  0.3882 -0.0177  0.1208
   85CHL1  H15A 8715   5.904   6.683   7.653  0.2750 -0.6536  0.0616
   85CHL1  H15B 8716   5.785   6.798   7.739 -3.8495 -0.6393 -1.8442
   85CHL1   C16 8717   5.836   6.642   7.862 -0.3915  0.8447  1.0988
   85CHL1  H16A 8718   5.942   6.616   7.881 -1.4146 -2.7964  2.7522
   85CHL1  H16B 8719   5.815   6.727   7.931  0.0993  2.9192 -1.2069
   85CHL1   C17 8720   5.743   6.515   7.876  0.2147  0.4460  0.4480
   85CHL1   H17 8721   5.651   6.561   7.919 -0.7238 -0.3153 -0.7039
   85CHL1   C13 8722   5.725   6.472   7.728  0.2418  0.6368  0.7633
   85CHL1   C18 8723   5.847   6.393   7.677 -0.2860 -0.2678  0.1733
   85CHL1  H18A 8724   5.855   6.298   7.734  1.5834 -1.0365 -1.2835
   85CHL1  H18B 8725   5.848   6.366   7.570  0.9981 -0.3106  0.1886
   85CHL1  H18C 8726   5.939   6.452   7.695  0.4724 -1.2728 -0.3336
   85CHL1   C12 8727   5.593   6.396   7.699 -0.0265  0.3836 -0.5578
   85CHL1  H12A 8728   5.575   6.298   7.748  0.1992 -0.2821 -1.7435
   85CHL1  H12B 8729   5.514   6.463   7.738 -0.0877  0.7948 -1.3519
   85CHL1   C11 8730   5.571   6.380   7.541  0.5218 -0.2448  0.3570
   85CHL1  H11A 8731   5.627   6.295   7.496  0.1307  0.3306 -1.2778
   85CHL1  H11B 8732   5.465   6.347   7.534  0.7969 -1.1343  0.2173
   85CHL1    C9 8733   5.587   6.511   7.460 -0.4688 -0.2481  0.3050
   85CHL1    H9 8734   5.482   6.543   7.476 -0.3730  0.4294 -0.3593
   85CHL1   C10 8735   5.604   6.494   7.307 -0.3336 -0.0173 -0.4810
   85CHL1   C19 8736   5.730   6.415   7.281 -0.2987 -0.5680  0.5249
   85CHL1  H19A 8737   5.820   6.455   7.333 -1.3498  3.9959 -0.7642
   85CHL1  H19B 8738   5.721   6.306   7.303 -2.8536 -0.5614 -0.2248
   85CHL1  H19C 8739   5.757   6.415   7.173  1.8008 -0.2665  1.0003
   85CHL1    C1 8740   5.481   6.413   7.254 -0.7997  0.6281  0.0302
   85CHL1   H1A 8741   5.477   6.315   7.306  1.3928  0.2382 -0.4749
   85CHL1   H1B 8742   5.391   6.466   7.292 -0.2377  1.8196 -0.2691
   85CHL1    C2 8743   5.473   6.409   7.103  0.0350  0.7911  0.6183
   85CHL1   H2A 8744   5.377   6.356   7.083  0.3823 -0.5998  2.4141
   85CHL1   H2B 8745   5.555   6.352   7.053  0.3205  1.0326  0.8098
   85CHL1   C20 8746   5.798   6.416   7.976 -0.7503  0.1667 -0.6840
   85CHL1   H20 8747   5.896   6.376   7.943 -0.5247  1.2315 -1.3749
   85CHL1   C21 8748   5.704   6.300   7.989  0.2594  0.5553  0.1769
   85CHL1  H21A 8749   5.740   6.237   8.073 -0.5696  1.8074  1.5236
   85CHL1  H21B 8750   5.715   6.232   7.902 -0.3049 -0.6844  1.0572
   85CHL1  H21C 8751   5.603   6.333   8.021 -0.8039 -1.1287 -1.2604
   85CHL1   C22 8752   5.806   6.481   8.117 -0.4721 -0.3510 -0.4250
   85CHL1  H22A 8753   5.847   6.584   8.106 -1.2554 -0.1943 -2.1291
   85CHL1  H22B 8754   5.702   6.500   8.151 -0.2015 -2.4451  1.8863
   85CHL1   C23 8755   5.888   6.409   8.226 -0.1194  0.3699 -0.0745
   85CHL1  H23A 8756   5.840   6.310   8.246 -1.0743  0.6436 -0.8949
   85CHL1  H23B 8757   5.989   6.392   8.182 -0.4257 -1.4497 -0.1684
   85CHL1   C24 8758   5.905   6.502   8.354  0.0876  0.0440 -0.9829
   85CHL1  H24A 8759   5.949   6.596   8.315  0.5320  0.4953  0.5329
   85CHL1  H24B 8760   5.813   6.527   8.412  2.1560  0.9056  2.2279
   85CHL1   C25 8761   6.007   6.456   8.468  0.4607 -0.0476  0.4379
   85CHL1   H25 8762   5.973   6.353   8.492 -2.4225  0.0756 -2.4577
   85CHL1   C26 8763   6.154   6.426   8.426  0.2493  0.2703  0.5405
   85CHL1  H26A 8764   6.204   6.522   8.400  0.9303 -0.1372  0.3240
   85CHL1  H26B 8765   6.209   6.377   8.509  0.1803 -0.5555  0.1114
   85CHL1  H26C 8766   6.156   6.360   8.337 -0.2705 -0.7821  1.2862
   85CHL1   C27 8767   5.999   6.547   8.591 -0.0571  0.6381 -0.1980
   85CHL1  H27A 8768   6.095   6.541   8.646 -0.0898  0.8701 -0.1126
   85CHL1  H27B 8769   5.985   6.655   8.569  0.6953  0.8484  0.3285
   85CHL1  H27C 8770   5.920   6.513   8.661  0.5264  0.1806  0.2480
   86CHL1    C3 8771   1.636   2.512   6.846  0.1743 -0.1048 -0.2668
   86CHL1    H3 8772   1.690   2.416   6.848 -0.3532 -0.4029  0.7260
   86CHL1    O3 8773   1.613   2.562   6.718  0.4003  1.0680  0.1620
   86CHL1   H3' 8774   1.530   2.519   6.696  1.0320 -1.4423  2.0868
   86CHL1    C4 8775   1.490   2.495   6.911 -0.7379  0.5772 -0.2468
   86CHL1   H4A 8776   1.443   2.594   6.892 -1.2992  0.1209 -1.3354
   86CHL1   H4B 8777   1.428   2.425   6.851 -1.7676  0.9068  0.4245
   86CHL1    C5 8778   1.481   2.458   7.060 -0.5490 -0.1761 -0.5231
   86CHL1    C6 8779   1.418   2.346   7.103 -1.0689  0.2644  0.4321
   86CHL1    H6 8780   1.363   2.284   7.030 -0.9238  3.4005 -2.5773
   86CHL1    C7 8781   1.408   2.304   7.241 -0.4368  0.4232  0.6323
   86CHL1   H7A 8782   1.306   2.272   7.271  0.3665 -2.9473  0.1684
   86CHL1   H7B 8783   1.477   2.220   7.265  3.6268  2.9119 -1.2149
   86CHL1    C8 8784   1.456   2.415   7.344 -0.5660  1.1291  0.2178
   86CHL1    H8 8785   1.372   2.488   7.351 -1.2139  0.8538 -3.0891
   86CHL1   C14 8786   1.484   2.353   7.486 -0.0539 -0.3195 -0.8009
   86CHL1   H14 8787   1.561   2.275   7.475  0.1094 -0.9841  3.3477
   86CHL1   C15 8788   1.369   2.275   7.546 -0.3113  0.3230  0.9164
   86CHL1  H15A 8789   1.272   2.328   7.538  0.2827  1.3613  0.3107
   86CHL1  H15B 8790   1.344   2.179   7.495 -3.4875  0.6922  1.6036
   86CHL1   C16 8791   1.408   2.259   7.693 -0.4357 -0.2951 -0.4967
   86CHL1  H16A 8792   1.320   2.294   7.750 -0.2663 -2.0208  0.9290
   86CHL1  H16B 8793   1.431   2.153   7.719 -0.1131 -0.4968 -1.5578
   86CHL1   C17 8794   1.532   2.352   7.713 -0.3291  0.2410 -0.0829
   86CHL1   H17 8795   1.624   2.291   7.705  1.9213  3.1196  1.6462
   86CHL1   C13 8796   1.535   2.446   7.595 -0.2460  0.2735 -0.1503
   86CHL1   C18 8797   1.420   2.550   7.620 -1.1015 -0.1344  0.1152
   86CHL1  H18A 8798   1.391   2.596   7.523  1.9063 -0.5080 -1.0644
   86CHL1  H18B 8799   1.329   2.499   7.659 -1.2756 -0.7226 -1.0072
   86CHL1  H18C 8800   1.450   2.635   7.686  1.3612 -0.4452 -0.5150
   86CHL1   C12 8801   1.666   2.519   7.547 -0.4373  0.2249 -0.0726
   86CHL1  H12A 8802   1.698   2.598   7.619  3.1559 -1.1580  0.0825
   86CHL1  H12B 8803   1.749   2.446   7.537 -1.5616 -1.1439  0.2554
   86CHL1   C11 8804   1.640   2.583   7.412 -0.0672  0.1678 -0.5866
   86CHL1  H11A 8805   1.587   2.680   7.420 -0.0812  0.2538 -1.6037
   86CHL1  H11B 8806   1.743   2.611   7.381  0.6437  1.4163  2.5333
   86CHL1    C9 8807   1.584   2.489   7.300 -0.2528 -0.4449 -0.5003
   86CHL1    H9 8808   1.664   2.412   7.299  0.7104  0.4532  1.5370
   86CHL1   C10 8809   1.565   2.542   7.145 -1.0051  0.9608 -0.0767
   86CHL1   C19 8810   1.483   2.666   7.170  0.0677  0.1399  0.5939
   86CHL1  H19A 8811   1.399   2.646   7.240 -0.7095  2.0918  0.2918
   86CHL1  H19B 8812   1.555   2.742   7.209  1.8182 -0.5492 -1.1159
   86CHL1  H19C 8813   1.448   2.708   7.073  1.3988  1.1395  0.5040
   86CHL1    C1 8814   1.707   2.573   7.087  0.2242  0.2721  0.2385
   86CHL1   H1A 8815   1.773   2.641   7.146 -2.2833  0.2095  3.3693
   86CHL1   H1B 8816   1.749   2.471   7.101 -2.9679 -1.0715  0.7099
   86CHL1    C2 8817   1.711   2.610   6.941 -0.3762 -0.7024  0.1361
   86CHL1   H2A 8818   1.815   2.605   6.902 -0.6905  0.4223 -0.9131
   86CHL1   H2B 8819   1.657   2.707   6.936  0.3405 -0.2716  0.5480
   86CHL1   C20 8820   1.549   2.412   7.855 -0.2174 -0.1992 -0.1325
   86CHL1   H20 8821   1.453   2.460   7.886 -1.2756 -3.0395  1.4044
   86CHL1   C21 8822   1.667   2.515   7.861 -0.5024 -0.1016 -0.1054
   86CHL1  H21A 8823   1.670   2.520   7.971 -1.1600 -2.7162  0.0743
   86CHL1  H21B 8824   1.637   2.612   7.814  0.9541  1.3713  1.8846
   86CHL1  H21C 8825   1.760   2.472   7.820 -1.4044 -0.7228 -1.5933
   86CHL1   C22 8826   1.570   2.295   7.965 -0.1231 -0.6158  0.4320
   86CHL1  H22A 8827   1.481   2.229   7.957  0.3425 -1.3722  1.3468
   86CHL1  H22B 8828   1.659   2.234   7.940  0.0069  0.2813 -1.4904
   86CHL1   C23 8829   1.573   2.340   8.118 -0.3792  0.1913  0.4739
   86CHL1  H23A 8830   1.659   2.407   8.141  0.8159 -2.0711  3.1159
   86CHL1  H23B 8831   1.475   2.391   8.128  0.1695  1.4581 -0.2976
   86CHL1   C24 8832   1.585   2.215   8.203 -0.1930  0.4883  0.5140
   86CHL1  H24A 8833   1.499   2.147   8.185 -0.0265  0.2957  0.4465
   86CHL1  H24B 8834   1.676   2.161   8.168 -1.0626 -0.7456  0.0867
   86CHL1   C25 8835   1.602   2.249   8.350  0.3147 -0.8560  1.1240
   86CHL1   H25 8836   1.693   2.312   8.362  0.0949 -0.6405  1.6669
   86CHL1   C26 8837   1.482   2.319   8.420  0.6540  0.6515  0.3530
   86CHL1  H26A 8838   1.473   2.424   8.384 -0.5298  0.1093 -1.0332
   86CHL1  H26B 8839   1.386   2.264   8.417 -0.2477  2.0068  2.1927
   86CHL1  H26C 8840   1.498   2.327   8.530 -0.8293  0.9828  0.5676
   86CHL1   C27 8841   1.639   2.127   8.429 -0.8431  0.1369  0.0087
   86CHL1  H27A 8842   1.725   2.073   8.385  1.1946  1.4641  2.1440
   86CHL1  H27B 8843   1.674   2.160   8.529  2.9319 -0.9099 -0.8250
   86CHL1  H27C 8844   1.552   2.057   8.431  0.0102 -0.9330  2.0799
   87CHL1    C3 8845   2.142   1.017   6.872  0.1693  0.1489  0.1875
   87CHL1    H3 8846   2.082   0.926   6.893  0.0962  0.3429  0.8134
   87CHL1    O3 8847   2.133   1.051   6.733 -0.3767  0.0836 -0.5422
   87CHL1   H3' 8848   2.222   1.041   6.698 -0.2176  1.5154 -0.5691
   87CHL1    C4 8849   2.100   1.134   6.955  0.2870 -1.0159  0.6235
   87CHL1   H4A 8850   2.144   1.229   6.920 -0.9936 -1.4666 -2.6050
   87CHL1   H4B 8851   1.994   1.147   6.924  0.5955  0.9547  0.2970
   87CHL1    C5 8852   2.111   1.111   7.104  0.1966  0.6490 -0.1430
   87CHL1    C6 8853   2.009   1.127   7.186  0.2242  0.6146  0.3405
   87CHL1    H6 8854   1.911   1.149   7.140 -0.3067  0.0536  1.1620
   87CHL1    C7 8855   2.008   1.118   7.342 -0.3428 -0.6452 -0.7707
   87CHL1   H7A 8856   1.961   1.209   7.386  1.9927  0.6919 -0.8732
   87CHL1   H7B 8857   1.957   1.027   7.379  2.0678 -1.1944  1.5100
   87CHL1    C8 8858   2.160   1.120   7.385 -0.0623  0.5184 -0.5177
   87CHL1    H8 8859   2.198   1.225   7.381  2.3365 -0.1415  1.9050
   87CHL1   C14 8860   2.183   1.083   7.534 -0.7650 -0.0349  0.2982
   87CHL1   H14 8861   2.139   0.981   7.534  1.2058 -0.9340 -0.9991
   87CHL1   C15 8862   2.095   1.160   7.637 -0.0771 -0.1764  0.7891
   87CHL1  H15A 8863   2.107   1.270   7.619  0.2823 -0.2399  0.6190
   87CHL1  H15B 8864   1.990   1.126   7.637 -0.2376  0.1101 -1.7395
   87CHL1   C16 8865   2.171   1.128   7.765 -0.1334  0.1035 -0.0997
   87CHL1  H16A 8866   2.183   1.222   7.822 -1.2208  0.9775 -1.2608
   87CHL1  H16B 8867   2.105   1.067   7.830  0.7759  1.5123  2.2415
   87CHL1   C17 8868   2.312   1.062   7.737  0.3921  0.2909  0.2558
   87CHL1   H17 8869   2.292   0.953   7.743  1.8448 -0.0912 -1.2741
   87CHL1   C13 8870   2.331   1.092   7.585  0.0004  0.4262 -0.9535
   87CHL1   C18 8871   2.395   1.226   7.571  0.9017 -0.1608 -0.7005
   87CHL1  H18A 8872   2.335   1.309   7.616 -0.1816 -0.6984 -1.1030
   87CHL1  H18B 8873   2.499   1.225   7.609  0.1712 -0.5392  1.4753
   87CHL1  H18C 8874   2.404   1.251   7.463  0.6102 -2.6790 -1.3871
   87CHL1   C12 8875   2.416   0.992   7.507 -0.3231 -0.3322 -0.1245
   87CHL1  H12A 8876   2.523   1.001   7.536  0.6492  1.7615 -3.6652
   87CHL1  H12B 8877   2.378   0.896   7.548  1.1158 -1.4676 -1.3114
   87CHL1   C11 8878   2.409   1.010   7.355 -0.4765  0.3688  0.1389
   87CHL1  H11A 8879   2.481   1.087   7.321 -0.1689 -0.3002 -0.7516
   87CHL1  H11B 8880   2.444   0.914   7.310 -1.2890  2.2114 -5.1746
   87CHL1    C9 8881   2.256   1.031   7.300  0.1100 -0.4173 -0.1035
   87CHL1    H9 8882   2.207   0.931   7.296  0.2288 -0.6036  1.8856
   87CHL1   C10 8883   2.255   1.080   7.150  0.1533  0.3552 -0.0590
   87CHL1   C19 8884   2.339   1.209   7.140 -0.2525 -0.2448 -0.3331
   87CHL1  H19A 8885   2.344   1.249   7.036 -0.6175 -0.7351 -0.5439
   87CHL1  H19B 8886   2.298   1.280   7.215  0.3622  0.4872 -0.6760
   87CHL1  H19C 8887   2.445   1.181   7.158  0.1416 -0.6728 -2.8527
   87CHL1    C1 8888   2.307   0.970   7.051  0.2545  0.4657 -0.2958
   87CHL1   H1A 8889   2.416   0.967   7.074 -0.0720 -1.4063  1.3417
   87CHL1   H1B 8890   2.255   0.875   7.078  0.0779  0.2420 -1.3816
   87CHL1    C2 8891   2.287   0.990   6.904 -0.1346 -0.5764 -0.3481
   87CHL1   H2A 8892   2.326   0.905   6.844  1.8155 -0.4553  0.6639
   87CHL1   H2B 8893   2.351   1.076   6.873  2.9008 -2.7765 -0.6552
   87CHL1   C20 8894   2.423   1.085   7.838  0.1331  1.0655 -1.0046
   87CHL1   H20 8895   2.516   1.050   7.790  1.0824 -1.1334  2.1353
   87CHL1   C21 8896   2.404   0.990   7.956 -0.1873 -0.9437  0.2683
   87CHL1  H21A 8897   2.386   0.886   7.921  2.5538 -1.9733  1.6407
   87CHL1  H21B 8898   2.327   1.026   8.028 -1.1486  0.9987 -1.6085
   87CHL1  H21C 8899   2.501   0.980   8.009  1.0290  0.2316 -1.5870
   87CHL1   C22 8900   2.447   1.233   7.886  1.2555  0.4793 -0.1593
   87CHL1  H22A 8901   2.401   1.306   7.817 -0.0698 -1.0123 -0.9195
   87CHL1  H22B 8902   2.396   1.238   7.985  2.2402  0.3044  0.3757
   87CHL1   C23 8903   2.593   1.263   7.906 -0.1661 -0.1908 -0.3989
   87CHL1  H23A 8904   2.629   1.182   7.973 -2.3980 -1.4410 -0.6506
   87CHL1  H23B 8905   2.652   1.270   7.812 -0.9621 -1.0779 -0.9823
   87CHL1   C24 8906   2.597   1.404   7.977  0.1164  0.1676  0.2130
   87CHL1  H24A 8907   2.557   1.477   7.904 -1.5493 -0.5508  0.3473
   87CHL1  H24B 8908   2.526   1.402   8.063  0.4607  1.4132  0.5517
   87CHL1   C25 8909   2.726   1.449   8.055 -0.1871 -0.2406 -1.4446
   87CHL1   H25 8910   2.776   1.358   8.095 -0.6177 -0.1139 -0.5955
   87CHL1   C26 8911   2.834   1.523   7.972 -0.3984 -0.2263 -0.5412
   87CHL1  H26A 8912   2.793   1.620   7.935  1.7881  1.8635  2.1123
   87CHL1  H26B 8913   2.909   1.565   8.042 -0.5205  1.5124 -1.3997
   87CHL1  H26C 8914   2.881   1.463   7.891  1.4968  1.8945 -1.0936
   87CHL1   C27 8915   2.698   1.526   8.180 -0.3525  0.3874  0.5105
   87CHL1  H27A 8916   2.792   1.523   8.238 -1.2178  1.0303  2.0184
   87CHL1  H27B 8917   2.683   1.632   8.150  2.1452  0.4023 -0.9349
   87CHL1  H27C 8918   2.615   1.482   8.240  0.7061  0.3502  1.9836
   88CHL1    C3 8919   4.084   6.378   6.981 -0.3594 -0.2009 -0.7532
   88CHL1    H3 8920   4.151   6.292   7.003 -2.1934 -1.4727  0.0812
   88CHL1    O3 8921   4.088   6.406   6.846  0.3308 -0.3364  0.1844
   88CHL1   H3' 8922   4.002   6.371   6.819  0.9107 -0.9051 -0.9811
   88CHL1    C4 8923   3.950   6.346   7.030 -0.0658  0.1885  0.1608
   88CHL1   H4A 8924   3.879   6.423   6.991  0.4990  0.6735  0.0732
   88CHL1   H4B 8925   3.925   6.254   6.974  0.7728  0.7978 -1.2986
   88CHL1    C5 8926   3.932   6.359   7.177  0.7661 -0.1199 -0.4505
   88CHL1    C6 8927   3.879   6.253   7.250 -0.0809  0.2890 -0.2581
   88CHL1    H6 8928   3.859   6.158   7.198  1.1852  0.3674 -0.9364
   88CHL1    C7 8929   3.846   6.258   7.392  0.2325 -0.4334 -0.4755
   88CHL1   H7A 8930   3.747   6.212   7.416  0.0848 -0.8693 -1.8268
   88CHL1   H7B 8931   3.922   6.208   7.455  1.6781  0.3799 -1.5269
   88CHL1    C8 8932   3.845   6.409   7.447 -0.8854 -0.0493 -0.1471
   88CHL1    H8 8933   3.756   6.460   7.405 -1.1082 -1.7904 -1.8945
   88CHL1   C14 8934   3.839   6.405   7.602  0.1941 -0.2339 -0.3904
   88CHL1   H14 8935   3.932   6.347   7.620  0.3091 -0.9267 -2.7908
   88CHL1   C15 8936   3.729   6.324   7.673  0.4744  0.0051  0.5220
   88CHL1  H15A 8937   3.632   6.339   7.622  0.8530 -1.3091 -0.6488
   88CHL1  H15B 8938   3.765   6.219   7.675 -0.8783 -0.4827  0.0151
   88CHL1   C16 8939   3.719   6.388   7.816  0.2364  0.3764  0.0654
   88CHL1  H16A 8940   3.614   6.425   7.821  0.5569  1.2751  0.2618
   88CHL1  H16B 8941   3.738   6.314   7.896  0.8491  2.6960  2.1962
   88CHL1   C17 8942   3.826   6.499   7.819 -0.3940  0.2543 -0.4001
   88CHL1   H17 8943   3.914   6.446   7.860 -1.3146  1.0198  2.8804
   88CHL1   C13 8944   3.856   6.544   7.671 -0.1462  0.6817 -0.0435
   88CHL1   C18 8945   3.747   6.637   7.627  0.8827  0.3759  0.1232
   88CHL1  H18A 8946   3.759   6.741   7.667 -0.9192  1.0871 -1.0498
   88CHL1  H18B 8947   3.758   6.649   7.518  0.0243 -0.2822 -0.0504
   88CHL1  H18C 8948   3.646   6.596   7.649  1.3710 -1.4013 -0.8044
   88CHL1   C12 8949   3.997   6.597   7.631 -0.8954  0.1884 -0.2223
   88CHL1  H12A 8950   4.013   6.702   7.666 -0.2692 -0.1249  0.4562
   88CHL1  H12B 8951   4.066   6.519   7.669  0.2633  1.2149 -0.1669
   88CHL1   C11 8952   4.008   6.614   7.474 -0.0507  0.5401  0.4700
   88CHL1  H11A 8953   3.942   6.696   7.440 -0.6246  0.6273  1.7490
   88CHL1  H11B 8954   4.116   6.636   7.462 -0.0127  1.3003  1.9776
   88CHL1    C9 8955   3.972   6.482   7.397 -0.2446  0.5474 -0.0536
   88CHL1    H9 8956   4.055   6.416   7.429  1.0566  1.9580 -0.4074
   88CHL1   C10 8957   3.974   6.490   7.240 -0.2981 -0.0615 -0.7157
   88CHL1   C19 8958   3.881   6.607   7.195  0.2605  0.2442 -0.1310
   88CHL1  H19A 8959   3.894   6.698   7.258 -2.7504 -0.1324  1.1683
   88CHL1  H19B 8960   3.885   6.629   7.086 -0.7443  3.3656  0.3524
   88CHL1  H19C 8961   3.774   6.586   7.215  0.3666  0.7042  0.9682
   88CHL1    C1 8962   4.121   6.510   7.187 -0.3440  0.0111 -0.0523
   88CHL1   H1A 8963   4.161   6.604   7.231  0.1958 -0.3299  0.2028
   88CHL1   H1B 8964   4.188   6.435   7.235  0.9785  0.8339 -0.5354
   88CHL1    C2 8965   4.141   6.511   7.041  0.1352 -0.0022  0.2223
   88CHL1   H2A 8966   4.247   6.515   7.008 -0.3995 -0.0233 -1.6254
   88CHL1   H2B 8967   4.098   6.603   6.996 -0.1101  0.7492  1.9269
   88CHL1   C20 8968   3.786   6.613   7.921  0.2581  0.6605  0.5475
   88CHL1   H20 8969   3.697   6.670   7.887  0.1810 -0.0995 -0.5437
   88CHL1   C21 8970   3.911   6.705   7.932  0.0264 -0.1793  0.0057
   88CHL1  H21A 8971   3.917   6.775   8.018  3.1921 -0.0374 -0.2017
   88CHL1  H21B 8972   3.916   6.770   7.841 -1.9163  1.1580  0.7891
   88CHL1  H21C 8973   4.004   6.644   7.941 -1.4903 -2.7291 -0.6710
   88CHL1   C22 8974   3.763   6.556   8.066 -0.2404 -0.0564  0.2152
   88CHL1  H22A 8975   3.768   6.640   8.139 -2.4861  0.2784  0.0647
   88CHL1  H22B 8976   3.661   6.514   8.075  0.2601 -1.5643 -0.7386
   88CHL1   C23 8977   3.871   6.453   8.109 -0.4204 -0.6638  0.8462
   88CHL1  H23A 8978   3.883   6.377   8.029 -0.8437  2.0991 -2.0404
   88CHL1  H23B 8979   3.970   6.503   8.117 -0.1097 -1.2014  0.4043
   88CHL1   C24 8980   3.828   6.391   8.231 -0.6918  0.3062 -0.4938
   88CHL1  H24A 8981   3.732   6.336   8.218 -1.6408  1.4184  1.3392
   88CHL1  H24B 8982   3.909   6.323   8.264 -0.4902  0.9387  0.3448
   88CHL1   C25 8983   3.811   6.491   8.348  0.1979 -0.4013 -0.2350
   88CHL1   H25 8984   3.721   6.553   8.334  0.0542 -0.1081  1.6500
   88CHL1   C26 8985   3.780   6.408   8.479 -0.8021  0.8475 -0.3271
   88CHL1  H26A 8986   3.765   6.481   8.562  1.0028  1.7452 -0.7152
   88CHL1  H26B 8987   3.694   6.343   8.455 -2.0189  2.2019  0.2578
   88CHL1  H26C 8988   3.869   6.355   8.519 -2.7280 -0.2928  2.7921
   88CHL1   C27 8989   3.946   6.575   8.370  0.5576  0.0528  0.3148
   88CHL1  H27A 8990   4.031   6.503   8.374  0.8343  0.1887 -1.7050
   88CHL1  H27B 8991   3.959   6.648   8.287  1.6804 -0.2527  0.2084
   88CHL1  H27C 8992   3.945   6.631   8.466  1.9474 -2.4100  1.8586
   89CHL1    C3 8993   3.303   2.899   7.080 -0.0921  0.1656 -0.3983
   89CHL1    H3 8994   3.275   2.793   7.063 -1.2888  0.5476 -0.8676
   89CHL1    O3 8995   3.358   2.959   6.967 -0.0723 -0.8339  0.1223
   89CHL1   H3' 8996   3.426   2.895   6.944 -0.0451 -0.8942  0.3587
   89CHL1    C4 8997   3.174   2.979   7.119  0.4000 -0.5219 -0.2393
   89CHL1   H4A 8998   3.206   3.085   7.125  1.7710 -0.9350  0.0658
   89CHL1   H4B 8999   3.102   2.977   7.034 -0.1261  1.8011  0.0837
   89CHL1    C5 9000   3.112   2.920   7.249  0.7874  0.4731  0.4284
   89CHL1    C6 9001   2.990   2.865   7.253  0.1692  0.1645  0.1639
   89CHL1    H6 9002   2.923   2.864   7.165 -0.7925  1.2786  0.8617
   89CHL1    C7 9003   2.923   2.826   7.382 -0.5438 -0.4167  0.2403
   89CHL1   H7A 9004   2.817   2.858   7.372 -0.8147 -1.2803  0.3345
   89CHL1   H7B 9005   2.929   2.716   7.376  1.7072 -0.2597 -1.7776
   89CHL1    C8 9006   2.990   2.887   7.513  0.0589  0.9643  0.3398
   89CHL1    H8 9007   2.967   2.996   7.513  1.0100  1.2166  2.0453
   89CHL1   C14 9008   2.935   2.822   7.632 -0.6420 -0.6625  0.1946
   89CHL1   H14 9009   2.959   2.713   7.625 -1.0246 -0.6763 -1.6982
   89CHL1   C15 9010   2.786   2.827   7.656 -0.7088  0.2109  0.3187
   89CHL1  H15A 9011   2.743   2.927   7.633 -3.4517 -1.1551 -1.0239
   89CHL1  H15B 9012   2.741   2.755   7.584 -0.0326 -1.4731  1.5165
   89CHL1   C16 9013   2.762   2.795   7.801 -0.3201 -0.1803  0.8925
   89CHL1  H16A 9014   2.707   2.884   7.839  1.8148  1.1094  1.1240
   89CHL1  H16B 9015   2.704   2.702   7.815  1.8469 -1.2383  3.8246
   89CHL1   C17 9016   2.902   2.789   7.862 -0.5986  0.1427 -0.0961
   89CHL1   H17 9017   2.941   2.686   7.870  0.4403  0.4927 -0.3889
   89CHL1   C13 9018   2.995   2.862   7.760  0.7763 -0.0219 -0.2657
   89CHL1   C18 9019   2.985   3.017   7.776  0.2114 -0.3370 -0.8088
   89CHL1  H18A 9020   3.041   3.062   7.691 -1.2333 -0.3006 -1.7834
   89CHL1  H18B 9021   2.880   3.054   7.776 -0.2412 -1.5077  0.4496
   89CHL1  H18C 9022   3.019   3.046   7.878 -0.0407 -0.5145 -0.6719
   89CHL1   C12 9023   3.139   2.826   7.763  0.5320  0.0475 -0.3856
   89CHL1  H12A 9024   3.178   2.871   7.857  0.1292 -1.3806  0.5033
   89CHL1  H12B 9025   3.149   2.715   7.758  1.7682  0.2040 -1.9239
   89CHL1   C11 9026   3.212   2.882   7.641 -0.1462  0.7568 -0.1001
   89CHL1  H11A 9027   3.218   2.992   7.656 -1.0747  0.9511 -1.0345
   89CHL1  H11B 9028   3.316   2.843   7.631 -0.6737 -0.0360 -3.8674
   89CHL1    C9 9029   3.140   2.861   7.505  0.5373  0.0861  0.3680
   89CHL1    H9 9030   3.143   2.752   7.485 -2.8975  0.0349 -0.4759
   89CHL1   C10 9031   3.199   2.930   7.379  0.3291 -0.2843  0.1912
   89CHL1   C19 9032   3.230   3.072   7.410  0.1827  0.8216 -0.4632
   89CHL1  H19A 9033   3.143   3.135   7.439 -0.3298 -0.9425  2.2213
   89CHL1  H19B 9034   3.301   3.078   7.495 -0.7482  0.7394  0.3361
   89CHL1  H19C 9035   3.278   3.139   7.336  1.3608  0.7492  0.2105
   89CHL1    C1 9036   3.328   2.859   7.339 -0.7318  0.4292 -0.2796
   89CHL1   H1A 9037   3.398   2.876   7.424 -0.3602  1.2862 -0.7539
   89CHL1   H1B 9038   3.313   2.749   7.341  0.6577  0.1576 -1.9836
   89CHL1    C2 9039   3.395   2.908   7.203 -0.3065 -0.2895  0.5229
   89CHL1   H2A 9040   3.486   2.852   7.175 -0.8692 -0.7704 -0.4169
   89CHL1   H2B 9041   3.423   3.015   7.214  1.0576 -0.4398 -1.1106
   89CHL1   C20 9042   2.906   2.831   8.006  0.1038 -0.7867  0.0798
   89CHL1   H20 9043   2.912   2.940   8.025  0.2953 -1.0063  1.3904
   89CHL1   C21 9044   3.026   2.777   8.078 -0.8399  0.1880  0.2626
   89CHL1  H21A 9045   3.022   2.666   8.089  0.6874 -0.0466 -1.1564
   89CHL1  H21B 9046   3.034   2.830   8.175 -0.9601  1.6648 -0.5139
   89CHL1  H21C 9047   3.123   2.795   8.026 -1.2511  1.6771 -0.0247
   89CHL1   C22 9048   2.780   2.791   8.083 -0.2114  0.2166 -0.2653
   89CHL1  H22A 9049   2.686   2.840   8.050 -0.3301  1.4295  1.7339
   89CHL1  H22B 9050   2.770   2.681   8.072 -0.6862  0.2434 -0.1314
   89CHL1   C23 9051   2.792   2.827   8.236  1.0441 -0.0194  0.5216
   89CHL1  H23A 9052   2.847   2.743   8.284  3.7079  0.1613 -1.9353
   89CHL1  H23B 9053   2.843   2.924   8.252  2.0658 -0.4015 -0.2720
   89CHL1   C24 9054   2.642   2.818   8.298  0.0088 -0.4000 -0.5560
   89CHL1  H24A 9055   2.584   2.887   8.234 -1.4597 -0.5373  0.5695
   89CHL1  H24B 9056   2.618   2.711   8.279 -0.2126 -0.5234  0.3474
   89CHL1   C25 9057   2.631   2.833   8.450 -0.1208 -0.5954  0.7694
   89CHL1   H25 9058   2.656   2.937   8.480  0.7208 -0.4113 -0.4831
   89CHL1   C26 9059   2.478   2.814   8.474  0.1142 -0.5694 -0.2926
   89CHL1  H26A 9060   2.416   2.876   8.406  0.3297 -0.4561 -0.3884
   89CHL1  H26B 9061   2.443   2.711   8.456  1.3894 -1.1744  0.5594
   89CHL1  H26C 9062   2.456   2.851   8.576  2.6261  2.9746 -0.8480
   89CHL1   C27 9063   2.707   2.724   8.524 -0.1478  0.1795 -0.4587
   89CHL1  H27A 9064   2.676   2.618   8.511  2.5198 -0.6004 -1.0362
   89CHL1  H27B 9065   2.816   2.727   8.503  0.2383 -0.1417  1.3646
   89CHL1  H27C 9066   2.706   2.739   8.634 -0.2102 -1.0843 -0.2749
   90CHL1    C3 9067   1.625   4.280   7.031 -0.2890  0.0612 -0.2602
   90CHL1    H3 9068   1.656   4.381   7.065 -0.1732  0.2659 -0.9537
   90CHL1    O3 9069   1.638   4.277   6.888 -0.6207  0.5575 -0.4880
   90CHL1   H3' 9070   1.577   4.212   6.852 -0.3047  0.1875 -0.3581
   90CHL1    C4 9071   1.717   4.175   7.108  0.3897  0.2520 -0.1340
   90CHL1   H4A 9072   1.702   4.081   7.051 -0.0949  0.7522 -0.8518
   90CHL1   H4B 9073   1.822   4.193   7.076  1.5995 -0.2347  3.2130
   90CHL1    C5 9074   1.699   4.164   7.261 -0.2708 -0.2045 -0.2955
   90CHL1    C6 9075   1.804   4.187   7.337 -0.0244 -0.2597  1.5641
   90CHL1    H6 9076   1.899   4.199   7.283 -0.5043 -0.1634  0.7203
   90CHL1    C7 9077   1.782   4.207   7.487 -0.8228  0.0186  0.0587
   90CHL1   H7A 9078   1.863   4.160   7.547 -0.6617 -0.6512 -0.6687
   90CHL1   H7B 9079   1.788   4.314   7.516 -1.1491  0.1991 -0.5230
   90CHL1    C8 9080   1.646   4.144   7.538 -0.1498 -1.1526 -0.3926
   90CHL1    H8 9081   1.656   4.033   7.540 -1.1333 -1.2558 -0.5494
   90CHL1   C14 9082   1.628   4.184   7.686 -0.0486  0.3690  0.1494
   90CHL1   H14 9083   1.625   4.295   7.690  0.2329  0.3774  0.1828
   90CHL1   C15 9084   1.740   4.156   7.787  0.0174 -0.2232 -0.1428
   90CHL1  H15A 9085   1.767   4.049   7.775 -0.8249 -0.3399 -1.1419
   90CHL1  H15B 9086   1.825   4.227   7.772  0.3049 -0.7446 -1.0554
   90CHL1   C16 9087   1.671   4.170   7.923  0.1111 -0.4314 -0.1671
   90CHL1  H16A 9088   1.674   4.077   7.983 -3.7227 -1.9081 -1.8993
   90CHL1  H16B 9089   1.709   4.257   7.981  1.5679 -1.2999  0.2349
   90CHL1   C17 9090   1.516   4.190   7.897 -0.3207  0.2672 -0.7625
   90CHL1   H17 9091   1.506   4.301   7.899  0.7774  0.3806 -0.2687
   90CHL1   C13 9092   1.495   4.136   7.750 -1.0309 -0.4500 -0.0830
   90CHL1   C18 9093   1.486   3.988   7.752 -0.0543  0.1550  0.3094
   90CHL1  H18A 9094   1.381   3.969   7.784 -1.2175  2.1329 -2.0049
   90CHL1  H18B 9095   1.506   3.942   7.653  1.2976  2.4438 -0.5574
   90CHL1  H18C 9096   1.555   3.938   7.824  0.5542 -2.2250 -1.7814
   90CHL1   C12 9097   1.388   4.200   7.664 -0.7185  0.0985 -0.1899
   90CHL1  H12A 9098   1.286   4.186   7.704 -0.5352 -0.8300 -0.0436
   90CHL1  H12B 9099   1.403   4.310   7.653 -0.1066  0.0502  0.1067
   90CHL1   C11 9100   1.394   4.148   7.516  0.3602 -0.6099 -0.4708
   90CHL1  H11A 9101   1.365   4.041   7.518  2.7808 -1.3299  0.6615
   90CHL1  H11B 9102   1.307   4.197   7.467  0.1219  0.7612  1.2361
   90CHL1    C9 9103   1.533   4.189   7.454 -0.2803 -0.3821 -0.3931
   90CHL1    H9 9104   1.540   4.299   7.463 -0.7718 -0.3719 -0.1072
   90CHL1   C10 9105   1.556   4.162   7.304  0.6666  0.3220  0.0612
   90CHL1   C19 9106   1.502   4.017   7.274 -0.1557  0.8136  0.4432
   90CHL1  H19A 9107   1.391   4.014   7.274 -0.1516 -0.9979 -0.7358
   90CHL1  H19B 9108   1.535   3.992   7.171  0.6011  3.0885  0.0794
   90CHL1  H19C 9109   1.547   3.946   7.346 -2.0156 -0.8580  0.0361
   90CHL1    C1 9110   1.460   4.257   7.220  0.4110  0.2004 -0.1165
   90CHL1   H1A 9111   1.357   4.233   7.255  0.2094  0.6706 -0.3883
   90CHL1   H1B 9112   1.480   4.361   7.255 -2.5033  0.7341  0.1681
   90CHL1    C2 9113   1.478   4.255   7.065 -0.6245 -0.2470 -0.9220
   90CHL1   H2A 9114   1.416   4.328   7.009  0.3506  0.0907 -1.5899
   90CHL1   H2B 9115   1.452   4.157   7.021 -0.4876 -0.8147  0.2288
   90CHL1   C20 9116   1.438   4.129   8.012  0.2230 -0.2452  0.0677
   90CHL1   H20 9117   1.457   4.019   8.019  1.1625 -0.0035  2.2105
   90CHL1   C21 9118   1.288   4.148   7.993 -0.1337 -0.2276 -0.8866
   90CHL1  H21A 9119   1.261   4.252   7.967 -5.0189 -1.3210 -1.2876
   90CHL1  H21B 9120   1.240   4.112   8.086  1.6204 -1.3568 -0.3696
   90CHL1  H21C 9121   1.254   4.074   7.916  0.9543 -1.5556 -0.1387
   90CHL1   C22 9122   1.477   4.180   8.149  0.3203 -0.1142 -0.6717
   90CHL1  H22A 9123   1.420   4.118   8.222  1.2081  0.5520  0.6338
   90CHL1  H22B 9124   1.582   4.155   8.177 -0.0691 -1.2166 -0.1323
   90CHL1   C23 9125   1.456   4.330   8.175  0.1402  0.9270  0.4521
   90CHL1  H23A 9126   1.494   4.393   8.092  0.2294 -0.4927 -0.6260
   90CHL1  H23B 9127   1.347   4.346   8.185  0.0236  0.4946 -0.0881
   90CHL1   C24 9128   1.532   4.376   8.301  0.6296 -0.3879  0.0464
   90CHL1  H24A 9129   1.479   4.348   8.394  0.7421  1.9100  0.8643
   90CHL1  H24B 9130   1.632   4.328   8.304  1.1746  0.7387  0.5559
   90CHL1   C25 9131   1.560   4.523   8.308  0.4391 -0.6205 -0.7300
   90CHL1   H25 9132   1.623   4.554   8.222 -0.5717  2.3541 -0.5208
   90CHL1   C26 9133   1.427   4.610   8.302  0.0390  0.5868 -0.3301
   90CHL1  H26A 9134   1.435   4.721   8.301 -3.0223  0.8858 -0.6575
   90CHL1  H26B 9135   1.375   4.582   8.207  0.2649  1.4100 -0.7067
   90CHL1  H26C 9136   1.372   4.588   8.396 -1.9248  0.2969 -1.4782
   90CHL1   C27 9137   1.635   4.559   8.444 -0.1786 -0.7197  0.1679
   90CHL1  H27A 9138   1.691   4.655   8.433  0.1714 -0.9302  0.1053
   90CHL1  H27B 9139   1.571   4.570   8.534 -0.3281  0.2348 -0.0383
   90CHL1  H27C 9140   1.701   4.471   8.456  0.7289 -0.2244 -0.9986
   91CHL1    C3 9141   2.361   5.159   7.261  1.0488 -0.2309 -0.6025
   91CHL1    H3 9142   2.468   5.166   7.288  0.8508 -1.3352  0.5795
   91CHL1    O3 9143   2.356   5.190   7.123 -0.6666  0.2375  0.3078
   91CHL1   H3' 9144   2.303   5.118   7.089 -0.7948 -0.0385  1.0567
   91CHL1    C4 9145   2.300   5.018   7.282 -0.0859 -0.0024 -0.5832
   91CHL1   H4A 9146   2.197   5.011   7.241 -0.6422 -1.2445  0.8809
   91CHL1   H4B 9147   2.362   4.942   7.231  1.1983  0.2764  0.4971
   91CHL1    C5 9148   2.305   4.984   7.429  0.5168  0.3460  0.3601
   91CHL1    C6 9149   2.368   4.877   7.476  0.2686  1.1174 -0.4590
   91CHL1    H6 9150   2.426   4.808   7.414  0.4990  0.5221  0.4052
   91CHL1    C7 9151   2.373   4.826   7.619  0.4383 -0.6249 -0.3099
   91CHL1   H7A 9152   2.345   4.720   7.603 -3.8564  0.3299 -0.3641
   91CHL1   H7B 9153   2.477   4.837   7.657  0.4202 -1.1399 -0.0988
   91CHL1    C8 9154   2.279   4.900   7.715 -0.1712 -0.1768 -0.3240
   91CHL1    H8 9155   2.177   4.857   7.703 -0.4034  0.2922 -0.0552
   91CHL1   C14 9156   2.333   4.893   7.858  0.0689 -0.4573 -0.3781
   91CHL1   H14 9157   2.420   4.960   7.843  1.0362 -1.2510  1.3661
   91CHL1   C15 9158   2.383   4.753   7.915 -0.4066 -0.0248  0.2415
   91CHL1  H15A 9159   2.311   4.672   7.891 -1.2139  0.9986 -0.9191
   91CHL1  H15B 9160   2.484   4.731   7.874 -0.4945 -1.0144  0.5325
   91CHL1   C16 9161   2.399   4.776   8.058  0.2977  0.2750 -0.1558
   91CHL1  H16A 9162   2.339   4.701   8.114  1.0474 -0.4432 -0.2900
   91CHL1  H16B 9163   2.505   4.771   8.089  0.5511  0.2003 -1.0008
   91CHL1   C17 9164   2.336   4.915   8.089 -0.6106  0.6238  0.2616
   91CHL1   H17 9165   2.420   4.988   8.089  1.0002 -1.1430  0.1674
   91CHL1   C13 9166   2.258   4.958   7.967 -0.7756 -0.3005  0.2654
   91CHL1   C18 9167   2.116   4.891   7.974  0.7903  0.3757  0.4492
   91CHL1  H18A 9168   2.060   4.948   8.051 -0.4042 -0.5087  0.2573
   91CHL1  H18B 9169   2.068   4.912   7.876  0.5087  0.8860  0.6944
   91CHL1  H18C 9170   2.121   4.783   8.001  6.0232  0.6661  1.8781
   91CHL1   C12 9171   2.232   5.106   7.926 -0.1167  0.8466  0.5712
   91CHL1  H12A 9172   2.146   5.128   7.992 -0.0344 -0.8771  1.3126
   91CHL1  H12B 9173   2.322   5.171   7.938 -0.6871  1.5636  1.0565
   91CHL1   C11 9174   2.172   5.112   7.781 -0.0196 -0.4020 -0.0282
   91CHL1  H11A 9175   2.062   5.092   7.779 -0.3936  1.4712 -0.6593
   91CHL1  H11B 9176   2.157   5.220   7.759 -2.3909 -0.2817  1.7391
   91CHL1    C9 9177   2.260   5.048   7.672 -0.2468 -0.3376 -0.4282
   91CHL1    H9 9178   2.356   5.102   7.689 -0.9775  0.7699  0.3109
   91CHL1   C10 9179   2.224   5.078   7.522 -0.5008  0.3682 -0.5133
   91CHL1   C19 9180   2.069   5.052   7.509  0.5462 -0.1559 -0.4849
   91CHL1  H19A 9181   2.010   5.124   7.569  0.3780 -1.4138  0.9160
   91CHL1  H19B 9182   2.038   5.072   7.404 -0.0236  4.0121  0.2934
   91CHL1  H19C 9183   2.033   4.950   7.533  0.8612 -0.6063 -1.8268
   91CHL1    C1 9184   2.276   5.216   7.492 -0.4711 -0.8800  0.4201
   91CHL1   H1A 9185   2.231   5.292   7.558  1.5808  0.7821  0.0016
   91CHL1   H1B 9186   2.383   5.228   7.519  0.0548  0.1368 -1.8610
   91CHL1    C2 9187   2.279   5.258   7.350 -0.4405 -0.4634 -0.1001
   91CHL1   H2A 9188   2.331   5.356   7.339 -0.1549 -0.7068 -1.0272
   91CHL1   H2B 9189   2.176   5.276   7.313 -0.2032 -0.5410 -0.8272
   91CHL1   C20 9190   2.266   4.920   8.231 -0.1084  0.5324  0.4398
   91CHL1   H20 9191   2.170   4.864   8.232  0.4551 -0.4931 -0.4572
   91CHL1   C21 9192   2.252   5.065   8.268  0.5237 -0.2773  0.0807
   91CHL1  H21A 9193   2.184   5.066   8.356  1.5125 -0.8049  0.8581
   91CHL1  H21B 9194   2.198   5.122   8.189 -1.1392 -1.5239  0.2566
   91CHL1  H21C 9195   2.349   5.117   8.281 -0.3633  1.7032 -0.7465
   91CHL1   C22 9196   2.358   4.854   8.340 -0.0954 -0.6720  0.8360
   91CHL1  H22A 9197   2.386   4.751   8.309 -0.8623 -0.5936 -0.1444
   91CHL1  H22B 9198   2.445   4.923   8.350  0.0893 -0.6255 -0.8923
   91CHL1   C23 9199   2.297   4.842   8.483 -0.0797 -0.2910  0.8562
   91CHL1  H23A 9200   2.268   4.943   8.520 -3.8759 -1.8035  2.4499
   91CHL1  H23B 9201   2.202   4.787   8.470 -1.0809  1.0628  2.0607
   91CHL1   C24 9202   2.399   4.781   8.582 -0.1901  0.2149 -0.4984
   91CHL1  H24A 9203   2.432   4.682   8.543 -4.0075 -1.0728 -0.8523
   91CHL1  H24B 9204   2.486   4.847   8.603  1.6226 -2.2294  0.2515
   91CHL1   C25 9205   2.326   4.752   8.716  0.2199  0.2160  0.0265
   91CHL1   H25 9206   2.405   4.712   8.783  2.3348  1.3793 -1.6629
   91CHL1   C26 9207   2.296   4.876   8.794  0.4068  0.4054 -0.0118
   91CHL1  H26A 9208   2.274   4.856   8.901 -2.5154  1.9436 -0.2123
   91CHL1  H26B 9209   2.363   4.960   8.769  1.2958 -0.4174 -0.4636
   91CHL1  H26C 9210   2.199   4.917   8.758  0.2999  0.2470  0.0953
   91CHL1   C27 9211   2.214   4.651   8.708  0.1055  0.2947 -0.6619
   91CHL1  H27A 9212   2.192   4.617   8.811 -0.6095  0.4369 -0.7646
   91CHL1  H27B 9213   2.117   4.684   8.666 -0.4536 -1.1332 -0.5783
   91CHL1  H27C 9214   2.247   4.564   8.647 -0.4722 -0.6110  0.2683
   92CHL1    C3 9215   6.185   1.150   6.894 -0.4634  0.6136  0.1545
   92CHL1    H3 9216   6.283   1.098   6.899 -0.8194 -0.1384 -0.4867
   92CHL1    O3 9217   6.165   1.178   6.752 -0.4144 -0.1398  0.1782
   92CHL1   H3' 9218   6.112   1.257   6.739 -1.5217 -0.8541  0.2756
   92CHL1    C4 9219   6.066   1.066   6.936  0.1607 -0.2717 -0.4425
   92CHL1   H4A 9220   5.973   1.125   6.922  0.6305  1.1298  1.7040
   92CHL1   H4B 9221   6.064   0.980   6.866 -0.2700 -1.4973  1.0232
   92CHL1    C5 9222   6.089   1.027   7.079 -0.6499 -0.0814 -0.2045
   92CHL1    C6 9223   6.100   0.896   7.114  0.0923  0.3806  0.3336
   92CHL1    H6 9224   6.076   0.829   7.031  3.5405 -0.2448 -0.2888
   92CHL1    C7 9225   6.110   0.847   7.257 -0.6443 -0.2449  0.1751
   92CHL1   H7A 9226   6.032   0.777   7.295 -0.8722  0.6805  1.4710
   92CHL1   H7B 9227   6.214   0.820   7.282 -0.6767 -2.0154 -1.3602
   92CHL1    C8 9228   6.081   0.961   7.365  0.0096  0.4394 -1.3157
   92CHL1    H8 9229   5.975   0.993   7.363 -1.0899 -2.8751 -1.9787
   92CHL1   C14 9230   6.119   0.912   7.500  0.3471 -0.0214  0.7742
   92CHL1   H14 9231   6.223   0.874   7.493 -0.2244 -1.5090  0.0536
   92CHL1   C15 9232   6.049   0.793   7.569 -0.1305  0.3031  0.4368
   92CHL1  H15A 9233   5.939   0.802   7.560 -0.0717  1.6028  0.8372
   92CHL1  H15B 9234   6.078   0.698   7.519  0.8613  1.6006 -1.5532
   92CHL1   C16 9235   6.090   0.793   7.710  0.1393  0.4474  0.5649
   92CHL1  H16A 9236   6.007   0.783   7.783  1.4914 -1.2805  1.9544
   92CHL1  H16B 9237   6.150   0.701   7.726  3.2131  2.2505  0.0763
   92CHL1   C17 9238   6.176   0.929   7.734  0.2559 -0.3311 -0.3864
   92CHL1   H17 9239   6.283   0.906   7.712  0.7106  0.1019  1.2242
   92CHL1   C13 9240   6.126   1.018   7.617  0.5572 -0.4522  0.0070
   92CHL1   C18 9241   5.985   1.072   7.647 -1.0565 -0.4091 -0.3100
   92CHL1  H18A 9242   5.936   1.108   7.554 -0.6755  2.3457  0.4756
   92CHL1  H18B 9243   5.929   0.987   7.691 -0.8646 -0.5816 -0.3951
   92CHL1  H18C 9244   5.995   1.155   7.719  0.0038 -1.6122  0.9871
   92CHL1   C12 9245   6.220   1.128   7.568 -0.7271 -0.4290  0.4125
   92CHL1  H12A 9246   6.238   1.213   7.638  0.4091  1.0440 -1.5548
   92CHL1  H12B 9247   6.315   1.075   7.548 -1.5262 -0.7679 -3.3337
   92CHL1   C11 9248   6.175   1.190   7.434  0.4944  0.2402 -0.5682
   92CHL1  H11A 9249   6.079   1.241   7.456  0.9968 -0.0141  2.8235
   92CHL1  H11B 9250   6.252   1.258   7.393  1.7169 -1.1153 -0.5983
   92CHL1    C9 9251   6.162   1.079   7.320 -0.7685 -0.3065 -0.2221
   92CHL1    H9 9252   6.264   1.040   7.298 -1.1916 -0.7047 -1.5968
   92CHL1   C10 9253   6.118   1.140   7.179 -0.1350 -0.4310  0.1792
   92CHL1   C19 9254   5.994   1.228   7.205 -0.3940  0.3505  0.5319
   92CHL1  H19A 9255   5.927   1.255   7.121  0.6473  1.2958 -0.0291
   92CHL1  H19B 9256   5.929   1.172   7.275 -0.5501 -0.4957 -0.2708
   92CHL1  H19C 9257   6.029   1.320   7.257 -0.3687 -0.6505  2.3607
   92CHL1    C1 9258   6.228   1.232   7.130  0.6604 -0.3948  0.1508
   92CHL1   H1A 9259   6.241   1.318   7.200 -0.5000 -2.0840  2.5695
   92CHL1   H1B 9260   6.328   1.185   7.141  0.4945 -0.8434 -0.2301
   92CHL1    C2 9261   6.208   1.274   6.983  0.6283  0.2220  0.5131
   92CHL1   H2A 9262   6.292   1.336   6.945 -0.4403  1.3262 -0.1437
   92CHL1   H2B 9263   6.122   1.342   6.961  1.4979  0.9690 -0.7475
   92CHL1   C20 9264   6.176   0.975   7.882  0.7374  0.4919 -0.0398
   92CHL1   H20 9265   6.079   1.011   7.922  0.5135 -1.0456  0.8618
   92CHL1   C21 9266   6.276   1.089   7.892 -0.2145  0.9067  0.1205
   92CHL1  H21A 9267   6.246   1.182   7.838  1.0420  0.0961 -2.0868
   92CHL1  H21B 9268   6.380   1.061   7.867  0.2873  0.8020  2.1728
   92CHL1  H21C 9269   6.272   1.129   7.996  1.6199  0.7765  0.2712
   92CHL1   C22 9270   6.222   0.854   7.969  0.4332 -0.3103 -0.0048
   92CHL1  H22A 9271   6.167   0.758   7.968  0.9286 -0.5946  0.1051
   92CHL1  H22B 9272   6.323   0.823   7.937  0.2091 -3.1455  1.7455
   92CHL1   C23 9273   6.229   0.896   8.121  0.2259  0.1386  0.0090
   92CHL1  H23A 9274   6.285   0.990   8.140  0.1266  0.5907 -1.7530
   92CHL1  H23B 9275   6.128   0.899   8.169  0.3805 -0.2180  0.3611
   92CHL1   C24 9276   6.293   0.777   8.186  0.3955 -0.7522 -0.6688
   92CHL1  H24A 9277   6.230   0.688   8.163 -0.3634 -0.6661  0.9589
   92CHL1  H24B 9278   6.395   0.768   8.143  0.9651 -2.2869  0.8619
   92CHL1   C25 9279   6.301   0.777   8.343 -0.0462 -0.0939  0.8630
   92CHL1   H25 9280   6.199   0.808   8.374 -0.4937 -0.2505 -0.3874
   92CHL1   C26 9281   6.340   0.642   8.387 -0.2952 -0.2162  0.5670
   92CHL1  H26A 9282   6.430   0.615   8.327  1.0014 -0.2105  2.4413
   92CHL1  H26B 9283   6.361   0.637   8.496 -1.0677 -0.4960  0.7104
   92CHL1  H26C 9284   6.255   0.575   8.361 -1.4332  1.1167  0.7004
   92CHL1   C27 9285   6.394   0.895   8.386 -0.0620  0.3433 -0.4105
   92CHL1  H27A 9286   6.357   0.997   8.361 -0.4409  0.5848  1.0655
   92CHL1  H27B 9287   6.412   0.903   8.495  0.5225 -0.3729 -0.4468
   92CHL1  H27C 9288   6.490   0.884   8.331  0.1193  1.4769 -0.3603
   93CHL1    C3 9289   3.806   5.832   6.957 -0.0917  0.0945  0.1621
   93CHL1    H3 9290   3.888   5.903   6.981 -0.3318  0.3287  0.3103
   93CHL1    O3 9291   3.797   5.822   6.813 -0.0421  0.1536 -0.6533
   93CHL1   H3' 9292   3.750   5.739   6.804 -0.3420  0.4761 -2.4604
   93CHL1    C4 9293   3.839   5.694   7.007  0.1395  0.3291  0.3011
   93CHL1   H4A 9294   3.773   5.614   6.968  1.0023  0.9485 -2.6560
   93CHL1   H4B 9295   3.943   5.671   6.974  0.5563  0.0148  1.7199
   93CHL1    C5 9296   3.831   5.692   7.160 -0.7177  0.1358  0.0873
   93CHL1    C6 9297   3.924   5.631   7.233 -0.2149  0.0033 -0.4091
   93CHL1    H6 9298   4.010   5.584   7.182  1.6593  0.5304  2.0814
   93CHL1    C7 9299   3.923   5.649   7.384 -0.3731 -0.2506  0.0223
   93CHL1   H7A 9300   3.943   5.547   7.423  0.7980 -0.7772 -1.7848
   93CHL1   H7B 9301   4.013   5.710   7.409  0.8019 -1.4661 -1.0398
   93CHL1    C8 9302   3.798   5.701   7.457 -0.6649 -0.4907  0.2212
   93CHL1    H8 9303   3.727   5.616   7.462 -0.4278 -0.6871  0.2969
   93CHL1   C14 9304   3.832   5.745   7.598  0.5038 -0.4175  0.2972
   93CHL1   H14 9305   3.908   5.822   7.574 -1.3597  0.8872 -1.8277
   93CHL1   C15 9306   3.912   5.656   7.695  0.3549 -0.8676 -0.2741
   93CHL1  H15A 9307   3.886   5.550   7.673 -0.1361 -0.4734 -1.7627
   93CHL1  H15B 9308   4.019   5.656   7.668  0.3983  1.7158 -0.2823
   93CHL1   C16 9309   3.890   5.723   7.829 -0.5010 -0.2111  0.0875
   93CHL1  H16A 9310   3.837   5.674   7.914 -0.3503  1.3447  1.1161
   93CHL1  H16B 9311   3.990   5.748   7.870  0.6131 -2.0118 -1.3909
   93CHL1   C17 9312   3.795   5.839   7.808  0.2138  0.2802  0.1369
   93CHL1   H17 9313   3.849   5.931   7.778 -1.5176  1.9200  1.7285
   93CHL1   C13 9314   3.715   5.805   7.678 -0.5067  0.3344 -0.0430
   93CHL1   C18 9315   3.602   5.710   7.702  0.8016  0.2950 -0.3580
   93CHL1  H18A 9316   3.517   5.766   7.747 -0.6298 -1.6024 -0.5661
   93CHL1  H18B 9317   3.556   5.670   7.609  2.9608 -1.5259 -0.7162
   93CHL1  H18C 9318   3.624   5.623   7.768  0.6588 -0.4061 -1.2150
   93CHL1   C12 9319   3.662   5.929   7.590  0.1643  0.0626 -0.3084
   93CHL1  H12A 9320   3.575   5.974   7.642  0.5203 -0.0478  0.3926
   93CHL1  H12B 9321   3.733   6.014   7.581 -0.2849  0.4079 -0.6598
   93CHL1   C11 9322   3.622   5.889   7.444  0.7493 -0.6327 -0.6194
   93CHL1  H11A 9323   3.527   5.834   7.465  1.1116 -0.8881  0.4085
   93CHL1  H11B 9324   3.587   5.973   7.381 -0.1216 -1.8081 -1.7651
   93CHL1    C9 9325   3.740   5.812   7.373  0.1531  0.0548 -0.1083
   93CHL1    H9 9326   3.816   5.891   7.354 -1.3363  1.1517 -1.8932
   93CHL1   C10 9327   3.710   5.766   7.229  0.4101  0.2900 -0.1769
   93CHL1   C19 9328   3.594   5.653   7.236 -0.8329 -0.1270  0.2662
   93CHL1  H19A 9329   3.562   5.625   7.133  1.9309  0.3627 -0.8301
   93CHL1  H19B 9330   3.636   5.568   7.294 -0.7943 -0.4461 -0.2288
   93CHL1  H19C 9331   3.506   5.696   7.287  0.3934  3.1471 -0.1072
   93CHL1    C1 9332   3.646   5.887   7.151 -0.0072 -0.5877 -0.6129
   93CHL1   H1A 9333   3.541   5.899   7.185  0.5933 -0.6517  1.4152
   93CHL1   H1B 9334   3.704   5.979   7.174  1.2001 -1.3037 -0.7289
   93CHL1    C2 9335   3.664   5.883   6.999  0.7551 -0.0060 -0.3679
   93CHL1   H2A 9336   3.641   5.976   6.943 -1.2666 -0.8486 -1.0159
   93CHL1   H2B 9337   3.599   5.805   6.955  1.6742 -1.1914  0.3321
   93CHL1   C20 9338   3.716   5.878   7.934 -0.1413  0.5608 -0.2831
   93CHL1   H20 9339   3.652   5.794   7.967 -0.8593  1.1207 -0.2215
   93CHL1   C21 9340   3.630   6.006   7.916  0.2019  0.1829 -0.1949
   93CHL1  H21A 9341   3.689   6.088   7.870 -0.4930  0.5991 -0.3669
   93CHL1  H21B 9342   3.573   6.025   8.010 -1.1884  0.9953 -1.1542
   93CHL1  H21C 9343   3.551   5.987   7.839  0.9275 -2.7110 -0.3193
   93CHL1   C22 9344   3.818   5.910   8.050  0.9254 -0.1769  0.1099
   93CHL1  H22A 9345   3.902   5.839   8.033  0.2609 -0.7498 -0.9625
   93CHL1  H22B 9346   3.866   6.008   8.031 -0.5740  0.2377 -2.0117
   93CHL1   C23 9347   3.757   5.903   8.194 -0.6435 -0.0738 -0.3908
   93CHL1  H23A 9348   3.679   5.981   8.188 -0.1076  0.5622  0.5536
   93CHL1  H23B 9349   3.697   5.809   8.202 -2.7642  0.9680 -2.9780
   93CHL1   C24 9350   3.855   5.941   8.307  0.1223  0.1833  0.3207
   93CHL1  H24A 9351   3.945   5.876   8.318 -0.7736 -1.3366 -1.1058
   93CHL1  H24B 9352   3.898   6.042   8.284 -0.9211  0.4471 -0.5008
   93CHL1   C25 9353   3.786   5.933   8.448  0.3766 -0.5306  0.6010
   93CHL1   H25 9354   3.681   5.970   8.451  0.3608 -0.5429  0.2267
   93CHL1   C26 9355   3.769   5.787   8.499 -0.6507  0.6596 -0.4922
   93CHL1  H26A 9356   3.701   5.727   8.436 -1.7492 -1.4237  2.4404
   93CHL1  H26B 9357   3.870   5.739   8.496 -1.8437 -1.9467 -2.3579
   93CHL1  H26C 9358   3.738   5.785   8.606 -0.7588  0.8146 -0.5213
   93CHL1   C27 9359   3.862   6.026   8.539  0.6329 -0.0855  0.5338
   93CHL1  H27A 9360   3.860   6.131   8.503 -1.7007 -0.0962  0.4733
   93CHL1  H27B 9361   3.818   6.024   8.641 -1.2537 -1.4558 -0.2468
   93CHL1  H27C 9362   3.969   5.998   8.552  0.7443  0.8727  1.8963
   94CHL1    C3 9363   6.114   0.465   6.929  0.2099 -0.5515 -0.1412
   94CHL1    H3 9364   6.200   0.535   6.936  0.0339 -0.1887 -1.3290
   94CHL1    O3 9365   6.068   0.476   6.796 -0.0121 -0.5964  0.5104
   94CHL1   H3' 9366   5.980   0.439   6.783  0.4567 -1.1987 -1.1449
   94CHL1    C4 9367   6.137   0.319   6.964 -0.2611  0.0627  0.7559
   94CHL1   H4A 9368   6.042   0.260   6.961  0.2835 -0.8100 -1.3594
   94CHL1   H4B 9369   6.207   0.280   6.886  0.5372 -0.0082  1.5031
   94CHL1    C5 9370   6.193   0.303   7.108 -0.3380 -0.0166 -0.3894
   94CHL1    C6 9371   6.316   0.245   7.139 -0.0503 -0.1227  0.1719
   94CHL1    H6 9372   6.378   0.220   7.051 -0.1784  2.1149 -0.6029
   94CHL1    C7 9373   6.367   0.235   7.273 -0.1560 -0.0525 -0.4459
   94CHL1   H7A 9374   6.416   0.136   7.282 -2.2381 -1.2518 -1.4542
   94CHL1   H7B 9375   6.448   0.310   7.284  0.0096 -0.4728  1.5927
   94CHL1    C8 9376   6.261   0.256   7.383 -0.0403  0.2091 -0.4765
   94CHL1    H8 9377   6.202   0.161   7.384 -0.9389  0.7478 -0.6998
   94CHL1   C14 9378   6.336   0.274   7.513  0.4196 -0.8137 -0.3729
   94CHL1   H14 9379   6.397   0.365   7.496 -0.9030  0.8026  2.7441
   94CHL1   C15 9380   6.426   0.160   7.558  0.0392  0.2283  0.5211
   94CHL1  H15A 9381   6.374   0.064   7.544 -1.7648  1.3812 -1.2068
   94CHL1  H15B 9382   6.525   0.156   7.506  1.7235  2.2226  3.2479
   94CHL1   C16 9383   6.460   0.183   7.706 -0.7368  0.0724  0.1833
   94CHL1  H16A 9384   6.446   0.096   7.775  3.3035 -0.6115  0.3709
   94CHL1  H16B 9385   6.567   0.210   7.700 -0.3431 -1.7294 -2.2882
   94CHL1   C17 9386   6.367   0.309   7.741 -0.6319  0.0599 -0.4135
   94CHL1   H17 9387   6.422   0.401   7.714  0.3232  0.2755  1.9509
   94CHL1   C13 9388   6.254   0.312   7.639 -0.8320 -0.6621  0.2155
   94CHL1   C18 9389   6.163   0.197   7.678  0.2781 -0.4113 -0.3261
   94CHL1  H18A 9390   6.102   0.172   7.589 -2.9719 -1.4871  2.0418
   94CHL1  H18B 9391   6.213   0.103   7.711  0.1184 -1.9603 -4.0307
   94CHL1  H18C 9392   6.101   0.221   7.766  0.4317  3.2531 -1.0888
   94CHL1   C12 9393   6.168   0.434   7.602 -0.1223  0.4755  0.1268
   94CHL1  H12A 9394   6.094   0.458   7.681  0.6923  1.0251  0.7505
   94CHL1  H12B 9395   6.237   0.519   7.580 -0.7707  0.8749 -0.3979
   94CHL1   C11 9396   6.093   0.411   7.475 -0.3738  0.0138  0.4876
   94CHL1  H11A 9397   6.017   0.333   7.499 -0.3648 -0.7082 -1.6802
   94CHL1  H11B 9398   6.047   0.502   7.432  1.2729  1.4324  1.6108
   94CHL1    C9 9399   6.175   0.374   7.346  0.0271  0.4778  0.4098
   94CHL1    H9 9400   6.250   0.454   7.324  0.1746  0.7239  1.7183
   94CHL1   C10 9401   6.100   0.365   7.215 -0.1418 -0.1667  0.0545
   94CHL1   C19 9402   5.982   0.266   7.229 -0.4587  0.0431 -0.6773
   94CHL1  H19A 9403   5.924   0.287   7.321  0.7596  0.1073  0.0977
   94CHL1  H19B 9404   5.914   0.269   7.141 -1.4103 -0.7128  0.0263
   94CHL1  H19C 9405   6.015   0.160   7.230  0.2877  0.2516 -1.2317
   94CHL1    C1 9406   6.055   0.511   7.173 -0.9858 -0.1653  0.1044
   94CHL1   H1A 9407   5.969   0.537   7.238  0.8957 -1.6036  3.4491
   94CHL1   H1B 9408   6.132   0.587   7.198 -0.3938  0.0869 -2.2278
   94CHL1    C2 9409   6.013   0.516   7.024  0.3853  0.1564 -0.3323
   94CHL1   H2A 9410   5.990   0.621   6.993  1.6709  0.9350  1.1950
   94CHL1   H2B 9411   5.915   0.468   7.006 -0.2173  0.9365  0.7515
   94CHL1   C20 9412   6.334   0.310   7.891  0.5246  1.3600  0.3074
   94CHL1   H20 9413   6.269   0.223   7.914  0.2260  1.2119 -1.0140
   94CHL1   C21 9414   6.260   0.442   7.933 -0.4755  0.3786 -0.0046
   94CHL1  H21A 9415   6.156   0.450   7.894 -0.3574 -0.2391 -0.4606
   94CHL1  H21B 9416   6.315   0.529   7.892 -1.4883  2.2807  2.4027
   94CHL1  H21C 9417   6.253   0.450   8.044  0.4919 -0.2406  0.1136
   94CHL1   C22 9418   6.463   0.293   7.978 -0.1156 -0.9344  0.4530
   94CHL1  H22A 9419   6.521   0.202   7.952  1.5115  0.3612 -0.6520
   94CHL1  H22B 9420   6.534   0.376   7.956 -0.9913 -0.0479  0.8868
   94CHL1   C23 9421   6.449   0.289   8.135  0.5694 -0.4416  0.5439
   94CHL1  H23A 9422   6.402   0.384   8.168 -2.9361 -1.9984  0.4642
   94CHL1  H23B 9423   6.373   0.209   8.153  1.1220 -0.9004  0.8770
   94CHL1   C24 9424   6.576   0.249   8.212 -0.7136  0.3613  0.1263
   94CHL1  H24A 9425   6.622   0.158   8.167  0.9905  0.4253  1.6461
   94CHL1  H24B 9426   6.660   0.320   8.198 -2.3682  2.6129  0.9167
   94CHL1   C25 9427   6.554   0.221   8.363 -0.1922 -0.0814 -0.2751
   94CHL1   H25 9428   6.484   0.134   8.360  1.4262 -1.4101 -1.2011
   94CHL1   C26 9429   6.685   0.175   8.424 -0.6216  0.1198 -0.6179
   94CHL1  H26A 9430   6.749   0.106   8.365  0.7682 -0.2400  1.2105
   94CHL1  H26B 9431   6.743   0.265   8.456  1.4200 -0.6539 -1.9226
   94CHL1  H26C 9432   6.662   0.111   8.512  1.6227  0.4278  0.2813
   94CHL1   C27 9433   6.494   0.333   8.451  0.0244 -0.7141  0.0135
   94CHL1  H27A 9434   6.568   0.415   8.448  1.1233 -1.6284  1.2092
   94CHL1  H27B 9435   6.394   0.365   8.414  0.3328 -2.4066 -2.5895
   94CHL1  H27C 9436   6.478   0.295   8.554 -1.3376 -2.1227 -0.6652
   95CHL1    C3 9437   0.180   1.367   6.555  0.2201  0.7376  0.0417
   95CHL1    H3 9438   0.279   1.410   6.581 -0.0698  0.2344  2.1422
   95CHL1    O3 9439   0.133   1.399   6.422 -0.2903 -0.2253 -0.0616
   95CHL1   H3' 9440   0.051   1.351   6.410 -0.4360 -0.2946  1.1193
   95CHL1    C4 9441   0.193   1.217   6.571  0.0399 -0.4732 -0.2764
   95CHL1   H4A 9442   0.091   1.182   6.542 -0.0189 -0.7795  0.2745
   95CHL1   H4B 9443   0.261   1.172   6.496 -0.6431 -0.8394 -0.6963
   95CHL1    C5 9444   0.230   1.158   6.709 -0.1472  0.1515  0.5512
   95CHL1    C6 9445   0.325   1.067   6.724 -0.0065  0.0558 -0.4324
   95CHL1    H6 9446   0.394   1.041   6.641 -1.3638 -0.5690 -1.3981
   95CHL1    C7 9447   0.355   1.018   6.865 -0.1212  0.1196 -0.4561
   95CHL1   H7A 9448   0.385   0.911   6.866 -2.7976 -0.7379 -1.9626
   95CHL1   H7B 9449   0.438   1.079   6.906  0.1244 -0.9850  0.7418
   95CHL1    C8 9450   0.244   1.037   6.967 -0.0833  0.1230 -0.3397
   95CHL1    H8 9451   0.158   0.970   6.945  0.2850  0.4146 -2.9758
   95CHL1   C14 9452   0.288   1.005   7.110 -0.5523 -0.0982 -0.2813
   95CHL1   H14 9453   0.370   1.079   7.120 -0.2373 -0.0082 -2.8355
   95CHL1   C15 9454   0.362   0.870   7.140  0.8690 -0.2045  0.0309
   95CHL1  H15A 9455   0.311   0.794   7.078 -0.2072  0.8390 -0.4128
   95CHL1  H15B 9456   0.470   0.867   7.112  1.2948 -0.8806  1.6340
   95CHL1   C16 9457   0.347   0.844   7.292 -0.6246  0.4413  0.1481
   95CHL1  H16A 9458   0.294   0.747   7.301 -0.6691  0.5103  0.6739
   95CHL1  H16B 9459   0.448   0.837   7.337  0.0648  0.0613 -1.3931
   95CHL1   C17 9460   0.262   0.968   7.347  0.1634 -0.3027  0.1338
   95CHL1   H17 9461   0.349   1.036   7.364 -0.6904  0.8410  0.1023
   95CHL1   C13 9462   0.190   1.024   7.222 -0.0193 -0.2912  0.3421
   95CHL1   C18 9463   0.064   0.944   7.191 -0.0968  0.7557 -0.3615
   95CHL1  H18A 9464   0.097   0.838   7.193 -1.3274  0.3027 -1.6637
   95CHL1  H18B 9465  -0.016   0.962   7.266  1.2265  1.3419  0.9692
   95CHL1  H18C 9466   0.021   0.955   7.089 -1.4971  0.4081  0.1663
   95CHL1   C12 9467   0.153   1.171   7.218  0.3330 -1.1584  1.1571
   95CHL1  H12A 9468   0.071   1.197   7.288  0.5034  2.4921  0.2003
   95CHL1  H12B 9469   0.240   1.232   7.251 -0.2163  2.1366 -2.6916
   95CHL1   C11 9470   0.100   1.219   7.084 -0.0020 -1.1847  0.5023
   95CHL1  H11A 9471  -0.004   1.203   7.049 -0.7012  0.4774  1.6563
   95CHL1  H11B 9472   0.107   1.330   7.094  0.5922 -1.0165 -1.3448
   95CHL1    C9 9473   0.188   1.174   6.965  0.0949 -0.3711  0.7073
   95CHL1    H9 9474   0.281   1.235   6.980 -0.1915  0.3944 -0.5086
   95CHL1   C10 9475   0.137   1.207   6.823 -0.0179  0.6520 -0.5205
   95CHL1   C19 9476  -0.001   1.139   6.796 -0.6111 -0.4220 -0.2645
   95CHL1  H19A 9477   0.006   1.029   6.810 -1.1340 -0.7536 -2.3031
   95CHL1  H19B 9478  -0.082   1.178   6.862 -1.4034 -0.1445 -1.3701
   95CHL1  H19C 9479  -0.037   1.154   6.692 -0.6768 -2.2589 -0.5544
   95CHL1    C1 9480   0.132   1.361   6.807  0.2766  0.1876 -0.1954
   95CHL1   H1A 9481   0.070   1.415   6.882  0.1087  1.8523 -1.4619
   95CHL1   H1B 9482   0.236   1.396   6.819  0.8010  0.1386 -3.5853
   95CHL1    C2 9483   0.078   1.414   6.667 -0.3428 -0.2265  0.3044
   95CHL1   H2A 9484   0.080   1.525   6.674  1.1579 -0.2129  0.1136
   95CHL1   H2B 9485  -0.025   1.374   6.654 -0.3579  0.0978 -0.6466
   95CHL1   C20 9486   0.186   0.937   7.478 -1.1322  0.1633 -0.1376
   95CHL1   H20 9487   0.118   0.850   7.465 -0.1041 -0.4186 -1.9875
   95CHL1   C21 9488   0.118   1.064   7.524  0.6209 -0.5085 -0.2963
   95CHL1  H21A 9489   0.195   1.145   7.524 -2.2024  2.4471 -2.0855
   95CHL1  H21B 9490   0.069   1.067   7.624  0.2453 -2.4825 -0.3840
   95CHL1  H21C 9491   0.042   1.100   7.450 -1.3350 -0.4054  1.6475
   95CHL1   C22 9492   0.292   0.885   7.588 -0.2758  0.3835 -0.2631
   95CHL1  H22A 9493   0.379   0.832   7.544  1.4956  1.0795  2.2035
   95CHL1  H22B 9494   0.328   0.969   7.650  2.0941 -2.2740  2.2933
   95CHL1   C23 9495   0.233   0.789   7.688 -0.7484 -0.4402 -0.3524
   95CHL1  H23A 9496   0.142   0.836   7.731 -0.5945 -1.2931  0.9695
   95CHL1  H23B 9497   0.203   0.698   7.633 -1.9793  0.1183 -0.6566
   95CHL1   C24 9498   0.330   0.737   7.801 -0.2437  0.1948  0.6263
   95CHL1  H24A 9499   0.285   0.655   7.861  0.3985  0.5975  1.6831
   95CHL1  H24B 9500   0.409   0.694   7.735 -1.2271  0.2719 -0.6475
   95CHL1   C25 9501   0.387   0.847   7.894 -0.1514  0.1972  0.5385
   95CHL1   H25 9502   0.431   0.932   7.838 -2.7177 -0.3224 -2.5424
   95CHL1   C26 9503   0.272   0.907   7.975 -0.0594  1.1716 -0.2665
   95CHL1  H26A 9504   0.303   0.984   8.050  1.9150 -2.8799  3.5197
   95CHL1  H26B 9505   0.197   0.949   7.905  0.0114 -0.9175 -1.6688
   95CHL1  H26C 9506   0.224   0.826   8.034  0.1152  0.9824 -0.3862
   95CHL1   C27 9507   0.490   0.796   7.998 -0.5710  0.3406  0.8524
   95CHL1  H27A 9508   0.500   0.875   8.075 -0.4189  1.0038  0.1617
   95CHL1  H27B 9509   0.437   0.708   8.041  0.4513 -0.8546 -0.2263
   95CHL1  H27C 9510   0.586   0.767   7.951 -0.9356 -3.0848  1.9758
   96CHL1    C3 9511   5.967   6.728   6.647  0.7175  0.6108  0.5652
   96CHL1    H3 9512   6.025   6.643   6.607 -0.3087  0.6476 -1.0955
   96CHL1    O3 9513   5.889   6.769   6.533 -0.0497 -0.0205 -0.4705
   96CHL1   H3' 9514   5.847   6.689   6.502 -0.2840  0.3099 -1.0074
   96CHL1    C4 9515   5.869   6.658   6.747 -0.0354  0.0679 -0.3555
   96CHL1   H4A 9516   5.787   6.728   6.774  0.0112  0.6240 -1.5693
   96CHL1   H4B 9517   5.813   6.577   6.695  0.7076 -1.1831  0.7260
   96CHL1    C5 9518   5.948   6.613   6.866 -0.0666 -0.2606  0.2635
   96CHL1    C6 9519   5.946   6.486   6.895  0.3810  0.3813  0.0764
   96CHL1    H6 9520   5.863   6.429   6.851  0.4327 -1.0155  1.6840
   96CHL1    C7 9521   6.013   6.427   7.013 -0.2154 -0.0129 -0.3543
   96CHL1   H7A 9522   5.945   6.358   7.070 -1.1949  2.0696  1.1286
   96CHL1   H7B 9523   6.099   6.365   6.982  1.8955  0.0707  4.4503
   96CHL1    C8 9524   6.068   6.534   7.111  0.4521  0.5379 -0.0788
   96CHL1    H8 9525   5.978   6.564   7.169 -2.3243 -3.3281 -1.9820
   96CHL1   C14 9526   6.163   6.471   7.205  0.5331  0.6774 -0.0634
   96CHL1   H14 9527   6.243   6.435   7.137 -1.3540 -2.3133 -0.8906
   96CHL1   C15 9528   6.109   6.347   7.280  0.0848 -0.1366  0.2783
   96CHL1  H15A 9529   6.011   6.365   7.330 -0.8908 -0.7812 -1.3166
   96CHL1  H15B 9530   6.112   6.262   7.209  2.6345  2.1321 -2.5875
   96CHL1   C16 9531   6.217   6.341   7.397  0.2998  0.1098  0.4784
   96CHL1  H16A 9532   6.168   6.308   7.491 -1.1916  2.1319  0.4860
   96CHL1  H16B 9533   6.276   6.248   7.384  1.4999  0.4691  2.8307
   96CHL1   C17 9534   6.301   6.470   7.390 -0.4412 -0.3480 -0.2598
   96CHL1   H17 9535   6.383   6.441   7.321 -0.1483  1.6014 -0.7919
   96CHL1   C13 9536   6.222   6.567   7.305  0.3068  0.1295  0.1012
   96CHL1   C18 9537   6.120   6.630   7.397  0.4081 -0.8042  0.1570
   96CHL1  H18A 9538   6.039   6.680   7.341 -1.0016 -0.0882  2.6756
   96CHL1  H18B 9539   6.076   6.551   7.462 -1.6832  0.4017  0.2980
   96CHL1  H18C 9540   6.164   6.708   7.463  1.6502 -1.1446 -0.2380
   96CHL1   C12 9541   6.301   6.679   7.229 -0.6224  0.6518  0.0874
   96CHL1  H12A 9542   6.352   6.752   7.295 -1.2012  1.6616 -0.5539
   96CHL1  H12B 9543   6.378   6.625   7.169 -0.2164  2.0672 -0.7214
   96CHL1   C11 9544   6.214   6.749   7.129  0.6190 -0.3589  0.0842
   96CHL1  H11A 9545   6.143   6.822   7.174 -0.5887  0.3085 -2.6254
   96CHL1  H11B 9546   6.272   6.803   7.051  1.1070 -3.8655 -2.2116
   96CHL1    C9 9547   6.135   6.650   7.039  0.7124 -0.0944 -0.1615
   96CHL1    H9 9548   6.211   6.605   6.972  2.6180  1.4210  0.8892
   96CHL1   C10 9549   6.035   6.716   6.943 -1.1416 -0.6813 -0.4025
   96CHL1   C19 9550   5.942   6.817   7.014 -0.3157  0.0627  0.9905
   96CHL1  H19A 9551   5.999   6.906   7.046  2.3800 -0.3327 -2.1444
   96CHL1  H19B 9552   5.860   6.842   6.943 -0.4145 -3.2536 -0.2295
   96CHL1  H19C 9553   5.900   6.768   7.104 -1.4135 -0.8100  0.0441
   96CHL1    C1 9554   6.123   6.789   6.836  0.2676  0.2907  0.0775
   96CHL1   H1A 9555   6.172   6.873   6.889  1.3827 -0.0617 -0.3580
   96CHL1   H1B 9556   6.204   6.721   6.801 -0.3463  0.5468 -1.9500
   96CHL1    C2 9557   6.040   6.836   6.715 -0.3031  0.0181 -0.2978
   96CHL1   H2A 9558   6.111   6.883   6.644  0.2189  1.3157  1.0329
   96CHL1   H2B 9559   5.953   6.898   6.746 -0.6429  1.3975 -3.5888
   96CHL1   C20 9560   6.377   6.508   7.512  0.6826 -0.3875 -0.4057
   96CHL1   H20 9561   6.402   6.616   7.516  0.2128 -0.2235 -1.7114
   96CHL1   C21 9562   6.510   6.430   7.518  0.7450  0.1937 -0.0699
   96CHL1  H21A 9563   6.495   6.321   7.532 -0.3127  0.3281 -0.1001
   96CHL1  H21B 9564   6.564   6.474   7.605  1.0287 -1.6357  0.7209
   96CHL1  H21C 9565   6.578   6.442   7.430  1.9276 -1.2445  0.5921
   96CHL1   C22 9566   6.302   6.491   7.643  0.1655  0.1019 -0.3085
   96CHL1  H22A 9567   6.200   6.534   7.637 -1.8827 -4.2819 -0.9398
   96CHL1  H22B 9568   6.306   6.384   7.670  0.6738  0.4651  1.1728
   96CHL1   C23 9569   6.369   6.555   7.769  0.2063  0.6573  0.7682
   96CHL1  H23A 9570   6.459   6.492   7.783 -0.2368  0.1919  1.5912
   96CHL1  H23B 9571   6.390   6.660   7.739 -3.4933  1.8512  1.7773
   96CHL1   C24 9572   6.279   6.558   7.897 -0.1590 -0.2364  0.2462
   96CHL1  H24A 9573   6.183   6.593   7.854 -1.5240 -3.5192  0.3802
   96CHL1  H24B 9574   6.264   6.455   7.934  0.3906 -0.2251  0.5238
   96CHL1   C25 9575   6.323   6.653   8.007 -0.1789 -0.3014  0.3644
   96CHL1   H25 9576   6.337   6.756   7.967  1.0223 -1.1424 -1.5725
   96CHL1   C26 9577   6.221   6.670   8.117  0.3134 -0.2866  0.2716
   96CHL1  H26A 9578   6.256   6.730   8.204 -0.2825  0.3477  0.0822
   96CHL1  H26B 9579   6.130   6.721   8.080  1.9614  3.9737  1.4308
   96CHL1  H26C 9580   6.192   6.568   8.150  1.3120 -0.8614 -0.5741
   96CHL1   C27 9581   6.454   6.610   8.076  0.2719 -0.1700  0.7124
   96CHL1  H27A 9582   6.498   6.672   8.157 -0.6673 -2.0194  2.7312
   96CHL1  H27B 9583   6.441   6.508   8.116  0.9787 -0.5983 -0.1150
   96CHL1  H27C 9584   6.535   6.598   8.001  0.5530 -0.2174  1.0199
   97OSM      N 9585   5.149   1.220  11.408  0.1921 -0.1208  0.0710
   97OSM    C15 9586   5.124   1.369  11.435  0.2204  0.8509  0.2906
   97OSM   H15A 9587   5.204   1.440  11.418  0.4214  1.3045  2.6822
   97OSM   H15B 9588   5.112   1.392  11.540  0.5251  1.4021  0.2101
   97OSM   H15C 9589   5.033   1.403  11.388  0.9574  0.7422 -1.2875
   97OSM    C14 9590   5.262   1.178  11.496 -0.3848 -0.4484  0.2397
   97OSM   H14A 9591   5.284   1.073  11.486  1.4564  0.0008 -0.8378
   97OSM   H14B 9592   5.243   1.207  11.598 -0.9619  0.1214 -0.0250
   97OSM   H14C 9593   5.347   1.233  11.459 -1.3875 -0.9987 -3.2025
   97OSM    C13 9594   5.034   1.148  11.462 -0.0062 -0.2985 -0.2513
   97OSM   H13A 9595   4.956   1.129  11.390 -1.5321  1.2980  0.9050
   97OSM   H13B 9596   4.984   1.193  11.546  1.7964 -3.0911  2.5307
   97OSM   H13C 9597   5.059   1.048  11.492 -0.2796  0.1133  1.4404
   97OSM    C12 9598   5.162   1.193  11.260 -0.3652  0.1707  0.1220
   97OSM   H12A 9599   5.202   1.092  11.267 -1.3011 -0.2453 -0.3822
   97OSM   H12B 9600   5.242   1.262  11.237  0.8468 -0.4961  2.0979
   97OSM    C11 9601   5.032   1.194  11.171 -0.2668 -0.2637 -0.3235
   97OSM   H11A 9602   4.973   1.103  11.197  1.0100 -1.0789 -0.1936
   97OSM   H11B 9603   5.062   1.170  11.067 -1.7545 -0.0135 -0.8316
   97OSM      P 9604   5.013   1.446  11.090  0.3586  0.3995 -0.5703
   97OSM    O13 9605   4.923   1.555  11.125 -0.2816 -0.8825 -0.0574
   97OSM    O14 9606   5.157   1.468  11.091 -0.5662 -0.4066  0.1234
   97OSM    O11 9607   4.974   1.387  10.955  0.2794  0.3430 -0.4589
   97OSM    O12 9608   4.966   1.321  11.184  0.6108 -0.3751 -0.2687
   97OSM    C1S 9609   4.839   1.385  10.912  0.1995  0.3089 -0.4126
   97OSM    H1S 9610   4.799   1.488  10.918 -0.8112 -0.1200  0.7319
   97OSM    H1T 9611   4.768   1.329  10.976 -0.8858  0.2535 -1.6224
   97OSM     NF 9612   4.733   1.399  10.698 -0.2591 -0.6801 -0.5361
   97OSM    HNF 9613   4.659   1.336  10.674 -1.0292  0.1162 -0.3301
   97OSM    C2S 9614   4.839   1.337  10.766  0.1119  0.3841  0.9126
   97OSM    H2S 9615   4.933   1.375  10.721 -0.6595 -1.0601 -2.2377
   97OSM    C3S 9616   4.836   1.181  10.767 -0.0051 -0.5337 -0.6441
   97OSM    H3S 9617   4.739   1.153  10.812 -0.4756 -0.3660 -1.5309
   97OSM     O3 9618   4.932   1.124  10.851  0.1336 -0.0032 -0.9228
   97OSM    HO3 9619   4.966   1.195  10.907  0.1249 -1.0623  0.4704
   97OSM    C4S 9620   4.857   1.125  10.630 -0.2443 -0.0675  0.6688
   97OSM    H4S 9621   4.951   1.151  10.580 -1.3905 -1.4518 -2.4731
   97OSM    C5S 9622   4.777   1.041  10.561 -0.2860  0.3094 -0.2991
   97OSM    H5S 9623   4.681   1.013  10.607  0.3570 -1.3933  0.0785
   97OSM    C6S 9624   4.802   0.988  10.427  0.1866  0.2724 -0.1818
   97OSM    H6S 9625   4.726   1.015  10.351  0.9041 -0.9974 -1.4052
   97OSM    H6T 9626   4.783   0.879  10.434  0.2681  0.2770  0.1157
   97OSM    C7S 9627   4.948   0.996  10.387  0.5343 -0.7698  0.0491
   97OSM    H7S 9628   5.013   0.952  10.466  0.0564  1.2466  1.6420
   97OSM    H7T 9629   4.978   1.101  10.364 -1.0675 -0.0505  1.0990
   97OSM    C8S 9630   4.979   0.913  10.253 -0.0765 -0.2126 -0.6396
   97OSM    H8S 9631   4.936   0.811  10.258  1.4140 -0.8192  0.5221
   97OSM    H8T 9632   5.088   0.900  10.270 -0.6060 -2.3513  1.6095
   97OSM    C9S 9633   4.950   0.992  10.117  0.2710  0.2155  0.1501
   97OSM    H9S 9634   4.995   1.092  10.136 -2.1933  0.8866  3.2440
   97OSM    H9T 9635   4.842   1.018  10.114  0.4672  1.0868  0.2301
   97OSM   C10S 9636   4.981   0.916   9.987 -1.1623  0.2896  0.0107
   97OSM   H10S 9637   4.907   0.834   9.972 -1.6767  0.8286 -0.4257
   97OSM   H10T 9638   5.087   0.882   9.987 -1.7818 -1.9169  1.8755
   97OSM   C11S 9639   4.964   1.005   9.860 -0.4372 -0.5536 -0.1317
   97OSM   H11S 9640   5.037   1.088   9.865 -0.4141 -0.6629  1.8053
   97OSM   H11T 9641   4.865   1.055   9.864 -0.4691 -0.7109  1.7033
   97OSM   C12S 9642   5.004   0.933   9.732  0.1356  0.1653 -0.0074
   97OSM   H12S 9643   4.946   0.839   9.729 -0.1764  0.3807 -1.7764
   97OSM   H12T 9644   5.105   0.890   9.750 -0.6211 -1.2874  0.9194
   97OSM   C13S 9645   4.979   1.005   9.598  0.5896 -0.1999  0.3021
   97OSM   H13S 9646   5.035   1.101   9.592  0.5488 -0.1789  0.2560
   97OSM   H13T 9647   4.871   1.030   9.592  0.2766 -1.7947 -1.4943
   97OSM   C14S 9648   5.020   0.917   9.486  0.1572 -0.0921  0.5330
   97OSM   H14S 9649   4.946   0.835   9.478 -0.1017  0.3084 -1.8526
   97OSM   H14T 9650   5.115   0.871   9.522 -1.2966 -3.4691  0.4382
   97OSM   C15S 9651   5.022   0.990   9.350 -0.5462 -1.1724 -0.4819
   97OSM   H15S 9652   5.064   0.937   9.261 -1.6854  0.4426 -2.0437
   97OSM   H15T 9653   5.097   1.070   9.368  0.7108 -2.0841 -1.4772
   97OSM   C16S 9654   4.882   1.044   9.297  0.5536  0.2128 -0.4954
   97OSM   H16S 9655   4.845   1.119   9.370  0.6585  0.6116 -0.8434
   97OSM   H16T 9656   4.804   0.964   9.293  0.2118  0.5113  0.0905
   97OSM   C17S 9657   4.899   1.089   9.156  0.3219 -0.1039 -0.3103
   97OSM   H17S 9658   4.934   1.010   9.086 -2.7890 -0.8509 -1.1890
   97OSM   H17T 9659   4.976   1.169   9.162  1.1311 -0.9166  0.5903
   97OSM   C18S 9660   4.778   1.156   9.088  1.0808 -0.6313  0.0596
   97OSM   H18S 9661   4.798   1.173   8.980 -0.2973  3.8769  0.3003
   97OSM   H18T 9662   4.760   1.259   9.125 -1.1392 -1.0336  0.2252
   97OSM   H18U 9663   4.690   1.093   9.113  1.0667 -1.1974 -1.2998
   97OSM    C1F 9664   4.716   1.535  10.675  0.3366 -0.3294  0.2088
   97OSM     OF 9665   4.803   1.611  10.714  0.0153  0.0670 -0.5260
   97OSM    C2F 9666   4.590   1.584  10.607  0.2832  0.7487  0.0251
   97OSM    H2F 9667   4.531   1.650  10.674 -2.3144 -2.3650  1.0601
   97OSM    H2G 9668   4.531   1.494  10.582 -0.9216  1.1553  1.2923
   97OSM    C3F 9669   4.632   1.642  10.477  0.7143 -0.2408  0.6641
   97OSM    H3F 9670   4.709   1.722  10.489  0.3594  0.0335  1.1410
   97OSM    H3G 9671   4.538   1.688  10.438 -0.0775 -1.9837  0.4190
   97OSM    C4F 9672   4.681   1.534  10.372  0.0323 -0.4845 -0.2175
   97OSM    H4F 9673   4.773   1.485  10.411 -0.5598  0.1956  2.1584
   97OSM    H4G 9674   4.711   1.589  10.280 -1.2006  1.6669  0.5856
   97OSM    C5F 9675   4.576   1.437  10.326 -0.6674 -0.0376  0.0207
   97OSM    H5F 9676   4.488   1.486  10.278 -0.2327  0.3741 -0.3632
   97OSM    H5G 9677   4.524   1.390  10.412  0.4197 -0.5947  0.3888
   97OSM    C6F 9678   4.643   1.330  10.237  0.5505  0.1314 -0.1749
   97OSM    H6F 9679   4.723   1.280  10.294 -0.5876  0.3545  1.6869
   97OSM    H6G 9680   4.693   1.369  10.145  2.1654 -0.3994  0.4587
   97OSM    C7F 9681   4.546   1.223  10.182  0.1250  0.0905  0.1070
   97OSM    H7F 9682   4.455   1.220  10.245 -0.0201  0.2637 -0.0942
   97OSM    H7G 9683   4.584   1.119  10.189 -0.9559 -0.4693 -1.5943
   97OSM    C8F 9684   4.501   1.253  10.039 -0.2293  0.3111 -0.0545
   97OSM    H8F 9685   4.455   1.353  10.056  1.9812  1.2280  0.9430
   97OSM    H8G 9686   4.419   1.180  10.025 -1.2040  1.3863 -0.0343
   97OSM    C9F 9687   4.610   1.230   9.929 -0.1417  0.0878 -0.2097
   97OSM    H9F 9688   4.649   1.128   9.918 -1.2349 -0.1512 -2.2901
   97OSM   C10F 9689   4.660   1.317   9.838 -0.9910 -0.4540 -0.4310
   97OSM   H10F 9690   4.719   1.276   9.755 -1.0156 -0.3597 -0.4946
   97OSM   C11F 9691   4.611   1.462   9.824 -0.1802  0.6006  0.1866
   97OSM   H11F 9692   4.691   1.537   9.844 -0.0355  0.2049  1.1254
   97OSM   H11G 9693   4.543   1.479   9.911 -0.7956  0.1344 -0.1932
   97OSM   C12F 9694   4.560   1.494   9.682 -0.0124 -0.0920 -0.0703
   97OSM   H12F 9695   4.498   1.586   9.691 -0.9045 -0.6394 -0.4360
   97OSM   H12G 9696   4.481   1.420   9.653 -0.4975 -0.1972  1.4273
   97OSM   C13F 9697   4.669   1.504   9.575 -0.5162  0.2024  0.5160
   97OSM   H13F 9698   4.711   1.405   9.549  0.3044  1.4778 -3.9230
   97OSM   H13G 9699   4.752   1.575   9.597  0.2910 -0.3636 -0.5986
   97OSM   C14F 9700   4.597   1.558   9.443 -0.1013 -0.1136 -0.0876
   97OSM   H14F 9701   4.491   1.528   9.459  0.1059 -0.1165  1.4104
   97OSM   H14G 9702   4.629   1.494   9.358  2.1231  3.1729 -1.9101
   97OSM   C15F 9703   4.607   1.708   9.410  0.4595  0.3658 -0.4008
   97OSM   H15F 9704   4.704   1.722   9.356  0.9080 -2.4584 -0.4933
   97OSM   H15G 9705   4.608   1.760   9.508 -1.8078  0.1285 -0.1917
   97OSM   C16F 9706   4.477   1.755   9.333  0.2774 -0.2540 -0.6125
   97OSM   H16F 9707   4.498   1.862   9.314  1.2076  0.1502  2.1692
   97OSM   H16G 9708   4.386   1.758   9.397 -0.7701 -0.5915 -2.0385
   97OSM   C17F 9709   4.457   1.675   9.201 -0.1237  0.3684 -0.4184
   97OSM   H17F 9710   4.448   1.565   9.218 -0.7090  0.3314 -0.9022
   97OSM   H17G 9711   4.543   1.691   9.133 -0.5372  1.2940 -0.7486
   97OSM   C18F 9712   4.340   1.727   9.124  0.1517  0.0155 -0.5353
   97OSM   H18F 9713   4.260   1.739   9.200  0.7928  0.1778  0.1251
   97OSM   H18G 9714   4.307   1.669   9.035  0.1588 -0.2077 -0.3929
   97OSM   H18H 9715   4.362   1.829   9.085  0.7028  1.1486  2.4826
   98OSM      N 9716   4.154   1.617  10.716 -0.1447  0.0798 -0.8860
   98OSM    C15 9717   4.154   1.637  10.568  0.0515  0.0633 -0.4968
   98OSM   H15A 9718   4.100   1.720  10.527  0.6988 -0.4634 -2.5256
   98OSM   H15B 9719   4.134   1.547  10.512 -1.0235  0.8533 -1.4085
   98OSM   H15C 9720   4.254   1.663  10.538  0.3340  0.1005  0.4360
   98OSM    C14 9721   4.213   1.736  10.776 -0.5507 -0.2090  0.6695
   98OSM   H14A 9722   4.142   1.817  10.775 -2.2683 -1.6663  0.3581
   98OSM   H14B 9723   4.302   1.772  10.727 -0.8833 -1.6471 -1.1233
   98OSM   H14C 9724   4.235   1.727  10.881  0.5013 -0.9005  0.4178
   98OSM    C13 9725   4.008   1.610  10.749  0.7436  0.0589  0.0284
   98OSM   H13A 9726   3.952   1.696  10.717 -2.0162 -2.3109 -2.1118
   98OSM   H13B 9727   4.003   1.610  10.857 -1.3688 -0.3125 -0.0248
   98OSM   H13C 9728   3.974   1.519  10.701  3.2004 -1.7449  1.4238
   98OSM    C12 9729   4.229   1.499  10.759 -0.9109 -0.1696 -0.8247
   98OSM   H12A 9730   4.228   1.488  10.866  2.3004  1.5712 -0.5005
   98OSM   H12B 9731   4.331   1.508  10.726 -1.1525 -0.9154 -1.8178
   98OSM    C11 9732   4.174   1.367  10.700 -0.1643  0.3071  0.0835
   98OSM   H11A 9733   4.195   1.378  10.591  2.1877  3.6788  0.7209
   98OSM   H11B 9734   4.066   1.360  10.725 -0.8613  2.4725 -1.9662
   98OSM      P 9735   4.175   1.111  10.772  0.0078  0.2477  0.2375
   98OSM    O13 9736   4.280   1.012  10.751 -0.2282 -0.3290  0.3633
   98OSM    O14 9737   4.119   1.110  10.910  0.2810 -0.1315  0.2924
   98OSM    O11 9738   4.058   1.100  10.657  0.2182 -0.6911 -0.0925
   98OSM    O12 9739   4.243   1.251  10.753  0.4823 -0.1726 -0.2955
   98OSM    C1S 9740   4.102   1.113  10.523 -0.3009  0.6384  0.3813
   98OSM    H1S 9741   4.206   1.079  10.504  0.7202  3.5610  0.2803
   98OSM    H1T 9742   4.102   1.218  10.487  0.4521  0.9864  1.3535
   98OSM     NF 9743   4.088   1.005  10.301 -0.3310 -0.9721  0.6487
   98OSM    HNF 9744   4.070   1.072  10.229 -2.1373 -2.4703 -0.3776
   98OSM    C2S 9745   4.012   1.025  10.426 -0.6917  0.5401  0.1342
   98OSM    H2S 9746   4.009   0.926  10.476  4.5782  0.3042  0.5861
   98OSM    C3S 9747   3.878   1.093  10.413  0.5109  0.1812  0.4795
   98OSM    H3S 9748   3.895   1.190  10.361 -0.5382  0.3329  0.3881
   98OSM     O3 9749   3.803   1.104  10.531 -0.2389 -0.3810  0.1131
   98OSM    HO3 9750   3.864   1.086  10.603  1.2789 -2.4282 -1.5462
   98OSM    C4S 9751   3.787   1.007  10.328 -0.0773 -0.3161  0.3448
   98OSM    H4S 9752   3.802   0.898  10.338 -0.4280 -0.4721 -0.7044
   98OSM    C5S 9753   3.699   1.051  10.235  0.0032 -0.2431 -0.5339
   98OSM    H5S 9754   3.689   1.159  10.218  1.5077  0.0037  0.0266
   98OSM    C6S 9755   3.617   0.952  10.161 -0.4887 -0.4287 -0.1634
   98OSM    H6S 9756   3.509   0.969  10.180  0.2089  2.0029  2.2817
   98OSM    H6T 9757   3.637   0.845  10.184 -0.4956  0.3941  4.6524
   98OSM    C7S 9758   3.642   0.979  10.008 -0.3649 -0.2352  0.4357
   98OSM    H7S 9759   3.745   0.956   9.971 -0.3776  1.3379 -0.6931
   98OSM    H7T 9760   3.629   1.084   9.973 -1.2243 -0.7139 -0.7740
   98OSM    C8S 9761   3.549   0.908   9.919  0.6294  0.8507 -0.0380
   98OSM    H8S 9762   3.449   0.954   9.931 -0.8087 -2.0773  0.0344
   98OSM    H8T 9763   3.533   0.802   9.950  0.1597  1.7183  2.9791
   98OSM    C9S 9764   3.589   0.927   9.777 -0.1798 -0.6397  0.3610
   98OSM    H9S 9765   3.665   0.848   9.758  0.8542  0.0165  1.6331
   98OSM    H9T 9766   3.638   1.026   9.767 -1.7346 -0.0701 -3.2683
   98OSM   C10S 9767   3.475   0.922   9.678 -0.6568  0.4773  0.3221
   98OSM   H10S 9768   3.391   0.976   9.726  1.0987  1.6639  2.2563
   98OSM   H10T 9769   3.441   0.817   9.673 -2.9293  1.1917 -0.8302
   98OSM   C11S 9770   3.498   0.970   9.535  0.1047 -0.1094 -0.4421
   98OSM   H11S 9771   3.564   0.894   9.487 -1.7140 -0.2368 -2.9711
   98OSM   H11T 9772   3.563   1.060   9.533  3.2080 -2.2228 -0.1374
   98OSM   C12S 9773   3.359   0.985   9.464  0.0553 -0.0480  0.3951
   98OSM   H12S 9774   3.298   1.063   9.515 -1.9317  0.0640 -1.9661
   98OSM   H12T 9775   3.289   0.900   9.481  1.2329 -1.4541 -1.4605
   98OSM   C13S 9776   3.372   1.003   9.317 -0.3333  0.0851  0.1674
   98OSM   H13S 9777   3.459   0.943   9.285 -1.0477 -1.1198  0.4099
   98OSM   H13T 9778   3.395   1.110   9.302 -1.6997  0.4499  0.5380
   98OSM   C14S 9779   3.261   0.949   9.224  0.5162 -0.2591  0.7053
   98OSM   H14S 9780   3.162   0.997   9.239  0.8744  1.2450 -1.2514
   98OSM   H14T 9781   3.264   0.839   9.237  0.8412 -0.2049  1.0989
   98OSM   C15S 9782   3.309   0.969   9.079 -0.4761  0.3495  1.0228
   98OSM   H15S 9783   3.400   0.907   9.066  0.2046  1.6728 -1.0979
   98OSM   H15T 9784   3.336   1.076   9.064 -2.4512  0.5672 -1.6528
   98OSM   C16S 9785   3.211   0.922   8.959 -0.2725 -0.3494  0.2249
   98OSM   H16S 9786   3.120   0.985   8.973  1.0737  1.9145 -0.6259
   98OSM   H16T 9787   3.179   0.820   8.988 -2.2391  0.5794  1.5431
   98OSM   C17S 9788   3.266   0.919   8.819 -0.4118  0.6240  0.5004
   98OSM   H17S 9789   3.368   0.875   8.823 -0.2341  1.0990  1.5801
   98OSM   H17T 9790   3.274   1.025   8.785 -0.3859  0.1411 -1.1178
   98OSM   C18S 9791   3.174   0.849   8.719  0.0245 -0.3770  0.0797
   98OSM   H18S 9792   3.069   0.869   8.752  0.3722 -0.1254  1.0692
   98OSM   H18T 9793   3.201   0.742   8.720  1.2053 -0.0992  1.8709
   98OSM   H18U 9794   3.180   0.900   8.620 -1.1494  2.8942  1.5437
   98OSM    C1F 9795   4.181   0.917  10.300  0.0730  0.1622  0.6813
   98OSM     OF 9796   4.204   0.847  10.398  0.3613  0.2696  0.6052
   98OSM    C2F 9797   4.262   0.912  10.168 -0.2823  0.6833  0.3264
   98OSM    H2F 9798   4.324   1.004  10.166 -0.2631  0.6670  0.1426
   98OSM    H2G 9799   4.185   0.930  10.090 -0.9081  0.0079  0.7740
   98OSM    C3F 9800   4.361   0.795  10.150 -0.1600 -0.6571 -0.3230
   98OSM    H3F 9801   4.307   0.697  10.158 -1.4836 -0.0789 -1.5553
   98OSM    H3G 9802   4.436   0.790  10.231  0.2663 -1.4378 -0.7523
   98OSM    C4F 9803   4.430   0.808  10.014  0.0263  0.2685 -0.1805
   98OSM    H4F 9804   4.538   0.794  10.038 -0.1686 -1.6971 -0.3018
   98OSM    H4G 9805   4.410   0.909   9.973  0.2052 -0.4178 -2.0307
   98OSM    C5F 9806   4.391   0.717   9.898 -0.5589 -0.3709 -0.2577
   98OSM    H5F 9807   4.289   0.723   9.856 -0.2795 -0.2553 -0.9173
   98OSM    H5G 9808   4.394   0.619   9.950  0.5278  1.4605  3.5239
   98OSM    C6F 9809   4.495   0.713   9.787 -0.3140 -0.3500  0.1071
   98OSM    H6F 9810   4.474   0.638   9.707 -0.5530  0.8549 -0.9882
   98OSM    H6G 9811   4.584   0.681   9.845 -1.3820 -0.7756  1.5537
   98OSM    C7F 9812   4.508   0.847   9.716 -0.2950  0.3400 -0.0290
   98OSM    H7F 9813   4.538   0.910   9.802 -0.8812 -0.1162  0.5172
   98OSM    H7G 9814   4.405   0.881   9.691 -0.0018  0.9236 -0.4794
   98OSM    C8F 9815   4.611   0.842   9.602 -0.0292  0.4844  1.0209
   98OSM    H8F 9816   4.700   0.781   9.627 -1.3153 -2.2886 -0.6753
   98OSM    H8G 9817   4.642   0.948   9.590  1.7055 -0.1733 -0.8107
   98OSM    C9F 9818   4.550   0.782   9.476  0.4021 -0.3933 -0.4801
   98OSM    H9F 9819   4.585   0.682   9.445  0.4608 -0.5929  0.2222
   98OSM   C10F 9820   4.476   0.851   9.390  1.0152 -0.5141  0.8240
   98OSM   H10F 9821   4.430   0.802   9.303  0.4550  1.3480  0.0284
   98OSM   C11F 9822   4.427   0.993   9.406  0.4184 -0.3028 -0.2243
   98OSM   H11F 9823   4.508   1.068   9.393 -1.3438  1.5943 -0.8316
   98OSM   H11G 9824   4.378   0.993   9.506  0.3536  0.2573 -0.2552
   98OSM   C12F 9825   4.320   1.024   9.294 -1.1660  0.7947 -0.8906
   98OSM   H12F 9826   4.253   1.105   9.331  0.9901  1.2555  2.4092
   98OSM   H12G 9827   4.248   0.941   9.279 -0.0069 -0.4766  0.2924
   98OSM   C13F 9828   4.385   1.075   9.161 -0.6064  0.0544 -0.5500
   98OSM   H13F 9829   4.471   1.012   9.132 -1.1575 -1.5456  1.0846
   98OSM   H13G 9830   4.421   1.180   9.164  0.9600 -0.4716  0.8099
   98OSM   C14F 9831   4.281   1.070   9.046  0.2036 -0.0571  0.2402
   98OSM   H14F 9832   4.195   1.136   9.070  1.4880  0.7580  3.0460
   98OSM   H14G 9833   4.243   0.966   9.038  1.4535 -0.7192  2.1407
   98OSM   C15F 9834   4.343   1.102   8.906 -0.0299 -0.6800 -0.6419
   98OSM   H15F 9835   4.441   1.050   8.897  1.1592  0.5693  3.2550
   98OSM   H15G 9836   4.350   1.213   8.901 -0.6724 -0.5984  0.0561
   98OSM   C16F 9837   4.254   1.050   8.794 -0.8001 -0.4340 -0.2001
   98OSM   H16F 9838   4.178   1.132   8.790 -0.6552 -0.2771  0.1682
   98OSM   H16G 9839   4.222   0.948   8.824  1.6878 -0.6661  2.0824
   98OSM   C17F 9840   4.317   1.062   8.658 -0.2127 -0.8237 -0.4397
   98OSM   H17F 9841   4.401   0.992   8.641 -0.4669 -1.3654  0.4618
   98OSM   H17G 9842   4.364   1.162   8.650  1.4717 -1.6129 -0.8768
   98OSM   C18F 9843   4.216   1.029   8.549 -0.1195  0.2152 -0.0563
   98OSM   H18F 9844   4.177   0.926   8.567 -2.0222  1.1517  1.6377
   98OSM   H18G 9845   4.252   1.043   8.445 -1.2382  0.9634 -0.3549
   98OSM   H18H 9846   4.130   1.100   8.549  0.3927  0.9396  2.4742
   99OSM      N 9847   5.258   2.518  11.057  0.4419 -0.7233  1.2904
   99OSM    C15 9848   5.171   2.398  11.083  0.5320 -0.0750 -0.4759
   99OSM   H15A 9849   5.167   2.361  11.185 -1.6312 -0.4523 -0.6459
   99OSM   H15B 9850   5.194   2.314  11.018  1.3437  0.9470 -1.5354
   99OSM   H15C 9851   5.067   2.420  11.061 -0.2023 -1.5099  1.2871
   99OSM    C14 9852   5.211   2.643  11.136  0.3340  0.5022  0.6311
   99OSM   H14A 9853   5.291   2.708  11.168  1.7155 -1.9346  2.4812
   99OSM   H14B 9854   5.161   2.609  11.226 -0.0369 -0.5783  0.0395
   99OSM   H14C 9855   5.139   2.698  11.077 -2.6241 -0.8597  2.6604
   99OSM    C13 9856   5.398   2.489  11.108 -0.6152 -0.5068 -0.1754
   99OSM   H13A 9857   5.396   2.444  11.206 -0.3453  0.5372  0.3339
   99OSM   H13B 9858   5.455   2.581  11.115 -1.6785  0.0217  2.8358
   99OSM   H13C 9859   5.450   2.427  11.037  1.4449  0.4221  0.4418
   99OSM    C12 9860   5.274   2.556  10.907 -0.2996  0.7772 -0.6012
   99OSM   H12A 9861   5.349   2.634  10.903 -1.1844  1.6241 -1.2084
   99OSM   H12B 9862   5.180   2.592  10.867 -0.6689  0.5530  0.0576
   99OSM    C11 9863   5.328   2.459  10.802 -0.2921 -0.0537  0.6378
   99OSM   H11A 9864   5.313   2.491  10.696 -0.5938 -1.6522  0.1709
   99OSM   H11B 9865   5.280   2.361  10.824  1.6926 -1.4122 -0.6473
   99OSM      P 9866   5.555   2.320  10.772 -0.0440 -0.0952 -0.4367
   99OSM    O13 9867   5.694   2.348  10.804 -0.1088 -0.1275 -0.1955
   99OSM    O14 9868   5.489   2.201  10.830 -0.4057  0.3510 -0.2745
   99OSM    O11 9869   5.539   2.337  10.615 -0.1093  0.1467  1.0086
   99OSM    O12 9870   5.468   2.446  10.823 -0.8300 -0.2505 -0.6065
   99OSM    C1S 9871   5.613   2.252  10.520 -0.5018  0.2558 -0.3175
   99OSM    H1S 9872   5.593   2.147  10.549 -0.3168  0.3635  0.2068
   99OSM    H1T 9873   5.722   2.272  10.532 -0.5409 -0.0213  0.5649
   99OSM     NF 9874   5.679   2.222  10.292 -0.2132  0.0177  0.2548
   99OSM    HNF 9875   5.758   2.277  10.268  0.1432  0.2445  1.8542
   99OSM    C2S 9876   5.568   2.263  10.371  1.0053 -0.2440 -0.4317
   99OSM    H2S 9877   5.472   2.207  10.360  0.1784  0.6159  1.8991
   99OSM    C3S 9878   5.538   2.416  10.332 -0.3249  0.2507  0.0112
   99OSM    H3S 9879   5.620   2.479  10.370 -0.5366  0.6332 -0.1592
   99OSM     O3 9880   5.430   2.474  10.405  0.5266 -0.5600 -0.2248
   99OSM    HO3 9881   5.421   2.430  10.490 -1.1353 -1.5070 -0.8509
   99OSM    C4S 9882   5.503   2.419  10.192  0.2687  0.2566  0.1362
   99OSM    H4S 9883   5.447   2.335  10.148 -0.1599  1.9372 -2.7706
   99OSM    C5S 9884   5.542   2.516  10.107 -0.4738  0.1483 -0.1224
   99OSM    H5S 9885   5.619   2.585  10.143  1.8041 -1.8345 -0.8687
   99OSM    C6S 9886   5.511   2.506   9.959  0.3446  0.5773  0.0653
   99OSM    H6S 9887   5.521   2.612   9.927 -0.1164  0.5728 -0.1043
   99OSM    H6T 9888   5.407   2.473   9.941  0.5796  0.2524 -0.6927
   99OSM    C7S 9889   5.585   2.401   9.869 -0.2833  0.2371 -0.2277
   99OSM    H7S 9890   5.561   2.301   9.912  0.1743 -0.8923 -2.4295
   99OSM    H7T 9891   5.694   2.420   9.878  0.3137 -1.3566 -2.8085
   99OSM    C8S 9892   5.556   2.386   9.720 -0.8602  0.8747  0.0744
   99OSM    H8S 9893   5.449   2.373   9.694 -0.2990 -0.6062 -1.7486
   99OSM    H8T 9894   5.600   2.291   9.683 -1.9936 -0.6519  2.3728
   99OSM    C9S 9895   5.606   2.497   9.634  0.3129  0.3572 -1.1021
   99OSM    H9S 9896   5.717   2.506   9.641  0.2967  1.0910 -1.7174
   99OSM    H9T 9897   5.566   2.595   9.667 -0.2680 -0.6189  1.2933
   99OSM   C10S 9898   5.565   2.488   9.484  0.4823 -0.0717 -0.1626
   99OSM   H10S 9899   5.456   2.468   9.474  1.0063 -2.1370 -2.6645
   99OSM   H10T 9900   5.625   2.405   9.442  1.9954  0.1090  1.5295
   99OSM   C11S 9901   5.598   2.627   9.410 -0.0842 -0.1599  0.4079
   99OSM   H11S 9902   5.698   2.664   9.442  0.0535  1.6442 -1.8294
   99OSM   H11T 9903   5.525   2.695   9.459 -0.8129  0.4070 -1.3728
   99OSM   C12S 9904   5.583   2.620   9.258  0.4204  0.0531  0.2955
   99OSM   H12S 9905   5.629   2.714   9.221  2.0866 -0.5104  0.8300
   99OSM   H12T 9906   5.633   2.538   9.201 -0.4797 -0.1631 -0.1944
   99OSM   C13S 9907   5.429   2.630   9.222 -0.1394 -0.6664 -0.0565
   99OSM   H13S 9908   5.388   2.715   9.282  2.5567  2.1854 -1.9395
   99OSM   H13T 9909   5.385   2.529   9.235 -4.1604  1.0121  0.6807
   99OSM   C14S 9910   5.420   2.676   9.073  0.3951  0.5364 -0.4511
   99OSM   H14S 9911   5.505   2.630   9.018 -0.1097 -0.5419 -0.3556
   99OSM   H14T 9912   5.442   2.784   9.086 -0.0362  0.4710  1.0020
   99OSM   C15S 9913   5.287   2.660   9.011  0.1002 -0.4177  0.6391
   99OSM   H15S 9914   5.230   2.570   9.044 -4.1993  1.8209  0.0298
   99OSM   H15T 9915   5.292   2.651   8.901  0.5257  0.3429  0.5884
   99OSM   C16S 9916   5.178   2.771   9.041 -0.3723  0.2023  0.4152
   99OSM   H16S 9917   5.210   2.875   9.017  1.7973 -0.4334  0.3470
   99OSM   H16T 9918   5.162   2.772   9.151  2.3752  1.5401  0.9049
   99OSM   C17S 9919   5.048   2.757   8.972  0.9881  0.2747  0.4488
   99OSM   H17S 9920   4.965   2.828   8.991 -0.1229 -0.6197 -0.8769
   99OSM   H17T 9921   5.016   2.656   9.005 -0.3298 -0.3793 -2.4970
   99OSM   C18S 9922   5.056   2.752   8.818 -0.0330 -0.4204 -0.6130
   99OSM   H18S 9923   5.091   2.651   8.788 -1.9188 -1.6162  0.9367
   99OSM   H18T 9924   5.116   2.834   8.773 -0.5651  2.4287  3.2499
   99OSM   H18U 9925   4.958   2.774   8.769 -0.5526  4.4422  1.9636
   99OSM    C1F 9926   5.706   2.092  10.279  0.3831 -0.1828  0.0973
   99OSM     OF 9927   5.641   2.012  10.338  0.1905 -0.1151  0.2325
   99OSM    C2F 9928   5.840   2.049  10.209  0.1705 -0.3938 -0.3602
   99OSM    H2F 9929   5.929   2.085  10.266  1.0355 -0.9473 -1.3101
   99OSM    H2G 9930   5.836   2.097  10.108 -0.5698  0.4735  0.0720
   99OSM    C3F 9931   5.853   1.898  10.202 -0.4518  0.5261  0.2213
   99OSM    H3F 9932   5.834   1.862  10.305 -0.6079  1.6038  0.5782
   99OSM    H3G 9933   5.786   1.861  10.121  0.9918  1.4965 -1.4854
   99OSM    C4F 9934   5.996   1.843  10.170 -0.3731  0.6462 -0.4603
   99OSM    H4F 9935   6.061   1.904  10.235 -1.1520  0.3198  0.6658
   99OSM    H4G 9936   6.017   1.861  10.063  0.0866  1.0403 -0.3037
   99OSM    C5F 9937   6.003   1.689  10.197 -0.3482  0.3920 -0.0343
   99OSM    H5F 9938   5.935   1.655  10.116  0.4316 -1.1772 -0.0641
   99OSM    H5G 9939   5.950   1.664  10.291  0.3997 -0.3590  0.1997
   99OSM    C6F 9940   6.138   1.627  10.200  0.2201 -0.1392  0.7041
   99OSM    H6F 9941   6.131   1.517  10.206 -2.1631 -0.1185 -0.2922
   99OSM    H6G 9942   6.185   1.674  10.289  1.2910  0.6802 -0.2536
   99OSM    C7F 9943   6.242   1.651  10.082 -0.3737  0.3201  0.6916
   99OSM    H7F 9944   6.339   1.636  10.133 -0.6516  2.2613  1.8866
   99OSM    H7G 9945   6.238   1.757  10.048  0.1058  0.5625  1.3907
   99OSM    C8F 9946   6.241   1.552   9.968  0.3871 -0.3966  0.2518
   99OSM    H8F 9947   6.253   1.447  10.002  1.2678 -1.4987 -3.0694
   99OSM    H8G 9948   6.325   1.576   9.900  0.9964  0.5608  1.2949
   99OSM    C9F 9949   6.112   1.563   9.895  1.1292  0.1617 -0.3947
   99OSM    H9F 9950   6.031   1.616   9.947  0.3686 -0.8589 -0.5158
   99OSM   C10F 9951   6.087   1.513   9.772 -0.1574  0.4501 -0.0082
   99OSM   H10F 9952   5.987   1.528   9.728 -0.1700  0.9696  0.1880
   99OSM   C11F 9953   6.196   1.443   9.695 -0.1742  0.2984  0.5706
   99OSM   H11F 9954   6.177   1.333   9.688  4.7901 -0.7427 -0.9873
   99OSM   H11G 9955   6.293   1.441   9.750  0.9297 -0.8809 -1.2870
   99OSM   C12F 9956   6.225   1.493   9.556 -0.2102  0.9656  0.1561
   99OSM   H12F 9957   6.311   1.442   9.508  0.1575  1.3629  0.3806
   99OSM   H12G 9958   6.256   1.599   9.566 -0.8787  1.0489  1.6164
   99OSM   C13F 9959   6.107   1.483   9.461  0.1069  0.6978  0.8444
   99OSM   H13F 9960   6.139   1.506   9.356 -0.6747  0.3272  0.5185
   99OSM   H13G 9961   6.030   1.562   9.474  0.6082  1.6244 -1.3554
   99OSM   C14F 9962   6.043   1.337   9.449  0.5417  1.1837 -0.2152
   99OSM   H14F 9963   6.037   1.292   9.550  0.3167 -0.5202 -0.9493
   99OSM   H14G 9964   6.125   1.290   9.391  0.7932  1.1994  0.1295
   99OSM   C15F 9965   5.916   1.326   9.354  0.0318  0.0277 -0.4965
   99OSM   H15F 9966   5.821   1.365   9.396 -0.3750  0.7050 -1.9669
   99OSM   H15G 9967   5.894   1.219   9.336 -3.4017  0.8966 -2.4648
   99OSM   C16F 9968   5.928   1.394   9.213  0.5382  0.1589 -1.3483
   99OSM   H16F 9969   6.027   1.364   9.174  1.2288  0.1818  0.3038
   99OSM   H16G 9970   5.940   1.502   9.239  0.3654 -0.4935  1.9046
   99OSM   C17F 9971   5.816   1.349   9.127 -0.5366 -1.1523  0.6599
   99OSM   H17F 9972   5.722   1.376   9.180  0.1387  3.0674 -0.0023
   99OSM   H17G 9973   5.818   1.244   9.090  0.5604 -0.4586 -1.4042
   99OSM   C18F 9974   5.810   1.436   9.002 -0.2555  0.0827 -0.6614
   99OSM   H18F 9975   5.713   1.407   8.958 -0.7522  1.5099 -0.5558
   99OSM   H18G 9976   5.904   1.421   8.945  1.9303  1.2657  2.3399
   99OSM   H18H 9977   5.799   1.543   9.029 -1.1668  0.0793 -0.9962
  100OSM      N 9978   1.418   2.584  10.998  0.4039 -0.5312 -0.2088
  100OSM    C15 9979   1.544   2.659  10.980  0.1653  0.5019  0.6493
  100OSM   H15A 9980   1.596   2.663  11.074  0.9969 -1.4804  0.3241
  100OSM   H15B 9981   1.521   2.761  10.951  1.9544  1.4037  2.1598
  100OSM   H15C 9982   1.603   2.611  10.903 -2.7399  0.2763 -1.6086
  100OSM    C14 9983   1.438   2.468  11.087 -0.5594 -0.1403  0.2027
  100OSM   H14A 9984   1.489   2.384  11.043 -0.0287  0.9154 -1.2796
  100OSM   H14B 9985   1.346   2.431  11.130 -0.4815  0.4309  0.8869
  100OSM   H14C 9986   1.503   2.484  11.172 -1.0172  0.4917  0.4406
  100OSM    C13 9987   1.320   2.674  11.059 -0.0757  0.5107  0.8343
  100OSM   H13A 9988   1.349   2.696  11.161  0.4121  1.3176  0.5330
  100OSM   H13B 9989   1.220   2.634  11.052 -0.0936  0.8639 -1.7276
  100OSM   H13C 9990   1.312   2.766  11.003 -0.7514 -0.5188 -0.8262
  100OSM    C12 9991   1.367   2.544  10.867 -0.3615  0.2742  0.2029
  100OSM   H12A 9992   1.269   2.501  10.877 -0.1020  0.1098  2.5020
  100OSM   H12B 9993   1.430   2.463  10.833  1.1161  1.9103 -1.1357
  100OSM    C11 9994   1.352   2.651  10.751  0.1772 -0.3821 -0.5306
  100OSM   H11A 9995   1.321   2.588  10.664 -1.3152 -0.1854 -0.1754
  100OSM   H11B 9996   1.452   2.695  10.734 -1.1708  2.9648 -0.7001
  100OSM      P 9997   1.105   2.753  10.765  0.5976 -0.0092 -0.1836
  100OSM    O13 9998   1.061   2.610  10.783 -0.0508 -0.5059 -0.6030
  100OSM    O14 9999   1.051   2.852  10.859  0.1070 -0.1435 -0.0638
  100OSM    O1110000   1.067   2.798  10.620  0.2820 -0.1741  0.0556
  100OSM    O1210001   1.260   2.756  10.783 -0.6830  0.0171 -0.6557
  100OSM    C1S10002   1.160   2.787  10.514  0.0464 -0.9324  0.0791
  100OSM    H1S10003   1.256   2.733  10.527  2.4117  2.0631 -3.1138
  100OSM    H1T10004   1.187   2.891  10.486 -0.1582 -0.8788  0.0833
  100OSM     NF10005   1.179   2.724  10.274  0.2100  0.3896 -0.0726
  100OSM    HNF10006   1.173   2.801  10.211  1.1706 -0.7781 -1.6464
  100OSM    C2S10007   1.084   2.728  10.386 -0.4404  0.6561 -0.3428
  100OSM    H2S10008   1.044   2.625  10.402 -0.4984  0.5720 -0.9860
  100OSM    C3S10009   0.960   2.814  10.350 -0.1915  0.3119  0.8185
  100OSM    H3S10010   0.993   2.917  10.326 -1.3750  0.8146  1.2697
  100OSM     O310011   0.867   2.840  10.451  0.0910  0.1476 -0.4349
  100OSM    HO310012   0.912   2.803  10.526  1.4410 -0.9106 -1.7043
  100OSM    C4S10013   0.876   2.765  10.234  0.6387  0.0653 -0.6857
  100OSM    H4S10014   0.801   2.692  10.266  2.4702 -1.6588 -0.1517
  100OSM    C5S10015   0.874   2.818  10.112  0.3717 -0.5868  0.2028
  100OSM    H5S10016   0.949   2.897  10.093  1.3112 -0.8382  2.5482
  100OSM    C6S10017   0.792   2.774   9.994  0.2545 -0.1909 -0.1237
  100OSM    H6S10018   0.716   2.849   9.964  0.3943  0.5820  1.3844
  100OSM    H6T10019   0.731   2.687  10.025 -0.7581  0.9108  1.1066
  100OSM    C7S10020   0.878   2.736   9.875 -0.1104 -0.6261  0.3978
  100OSM    H7S10021   0.952   2.659   9.906  1.5243  0.6423 -0.2406
  100OSM    H7T10022   0.948   2.817   9.844 -0.2494 -0.2612  1.0145
  100OSM    C8S10023   0.783   2.687   9.761  0.1708  1.0788  0.1324
  100OSM    H8S10024   0.717   2.775   9.744 -0.5092  0.3745 -1.0404
  100OSM    H8T10025   0.724   2.603   9.804 -2.0696  1.8988 -1.1547
  100OSM    C9S10026   0.861   2.642   9.638  0.7897  0.1519 -0.6491
  100OSM    H9S10027   0.930   2.558   9.663  0.5531  0.3287  0.6979
  100OSM    H9T10028   0.933   2.722   9.612 -0.4845  1.2758 -0.8207
  100OSM   C10S10029   0.772   2.625   9.518  0.5573  0.1634 -0.0395
  100OSM   H10S10030   0.694   2.704   9.520 -0.0829 -0.4417  1.9519
  100OSM   H10T10031   0.720   2.526   9.515 -0.0245  0.4657 -0.0591
  100OSM   C11S10032   0.856   2.635   9.394  0.1684  0.4270  0.0319
  100OSM   H11S10033   0.931   2.553   9.392 -1.6143 -1.2638 -1.4360
  100OSM   H11T10034   0.914   2.728   9.415  2.6553 -1.5615  2.7417
  100OSM   C12S10035   0.785   2.669   9.260 -0.0261 -0.0704 -1.4023
  100OSM   H12S10036   0.702   2.736   9.294 -1.4395 -2.3498 -0.1320
  100OSM   H12T10037   0.746   2.585   9.199  1.8069 -0.3564 -2.2278
  100OSM   C13S10038   0.861   2.762   9.172 -0.6060 -0.0293  0.5317
  100OSM   H13S10039   0.939   2.703   9.118 -0.8370  1.4155 -1.5010
  100OSM   H13T10040   0.916   2.834   9.236  0.7952 -1.7199  1.3317
  100OSM   C14S10041   0.773   2.832   9.065  0.1276 -0.4810 -0.7384
  100OSM   H14S10042   0.699   2.903   9.110  0.6962 -0.9238  0.9847
  100OSM   H14T10043   0.706   2.746   9.044  1.2014 -1.1970 -1.3147
  100OSM   C15S10044   0.847   2.889   8.946  0.0437 -0.4847  1.0620
  100OSM   H15S10045   0.928   2.821   8.914  0.5317 -0.0499  1.3544
  100OSM   H15T10046   0.916   2.967   8.984  2.1325 -2.7060  2.0322
  100OSM   C16S10047   0.748   2.926   8.827  0.7774 -0.3230 -0.7218
  100OSM   H16S10048   0.802   2.951   8.733  1.5024 -0.2104 -0.2848
  100OSM   H16T10049   0.672   3.001   8.857 -2.7901 -3.3981 -1.2770
  100OSM   C17S10050   0.676   2.799   8.782  0.1484 -0.2154 -0.2157
  100OSM   H17S10051   0.610   2.762   8.863 -0.7837 -2.3039 -1.8463
  100OSM   H17T10052   0.756   2.724   8.767  0.2000 -0.1926 -0.0557
  100OSM   C18S10053   0.597   2.817   8.651  0.0432  0.9441 -0.7075
  100OSM   H18S10054   0.658   2.790   8.562 -1.4724 -0.7261 -1.3003
  100OSM   H18T10055   0.564   2.922   8.643 -1.8715  0.4576  0.0701
  100OSM   H18U10056   0.509   2.748   8.646  0.6673  0.1837 -1.5767
  100OSM    C1F10057   1.285   2.644  10.268 -0.1431  0.2970 -0.4232
  100OSM     OF10058   1.311   2.571  10.360 -0.3707  0.6287 -0.0403
  100OSM    C2F10059   1.375   2.653  10.151  0.2963  0.0006 -0.3284
  100OSM    H2F10060   1.421   2.753  10.160 -0.1772  0.2820 -0.9593
  100OSM    H2G10061   1.320   2.653  10.054  1.4808 -0.0592 -1.0089
  100OSM    C3F10062   1.473   2.536  10.162  0.1331  0.2022  0.5203
  100OSM    H3F10063   1.417   2.441  10.172 -0.5502  0.4124 -1.0942
  100OSM    H3G10064   1.538   2.533  10.253  1.2754 -1.9649 -0.2739
  100OSM    C4F10065   1.559   2.504  10.038 -0.5200 -0.2208 -0.3551
  100OSM    H4F10066   1.497   2.488   9.948 -0.2032 -1.1730 -0.4169
  100OSM    H4G10067   1.629   2.421  10.062  1.1653  1.5820  1.4464
  100OSM    C5F10068   1.660   2.612   9.996  0.5370 -0.1846  0.0892
  100OSM    H5F10069   1.737   2.624  10.075 -0.6835 -0.8649  1.4230
  100OSM    H5G10070   1.612   2.712   9.986  3.7696  1.3156 -2.6674
  100OSM    C6F10071   1.747   2.580   9.872  0.1685 -0.0543 -0.1011
  100OSM    H6F10072   1.780   2.475   9.891 -1.0444 -0.4824 -0.2344
  100OSM    H6G10073   1.833   2.649   9.881  0.5213 -0.7343  3.2607
  100OSM    C7F10074   1.675   2.580   9.734 -0.0906 -0.4791 -0.5453
  100OSM    H7F10075   1.631   2.680   9.715  2.1475  0.8632  0.8082
  100OSM    H7G10076   1.586   2.514   9.741 -0.4780  0.1193  0.3798
  100OSM    C8F10077   1.763   2.532   9.618 -0.0513  0.2898 -0.8944
  100OSM    H8F10078   1.798   2.432   9.650  2.6044  1.2146 -0.7064
  100OSM    H8G10079   1.849   2.602   9.615  0.6315 -0.4351  0.5879
  100OSM    C9F10080   1.687   2.538   9.490 -0.2878  0.0906  0.3021
  100OSM    H9F10081   1.594   2.595   9.493  0.3872  1.2048  0.7124
  100OSM   C10F10082   1.729   2.480   9.374 -0.0807  0.0318  0.1458
  100OSM   H10F10083   1.666   2.484   9.283 -0.4127 -1.5616  0.2716
  100OSM   C11F10084   1.861   2.409   9.353 -0.0453  0.0030 -0.7552
  100OSM   H11F10085   1.844   2.318   9.291  0.9883  1.1962 -2.9093
  100OSM   H11G10086   1.915   2.397   9.449 -1.1664  0.2898 -0.0615
  100OSM   C12F10087   1.963   2.495   9.283  0.4962  0.3672  0.0550
  100OSM   H12F10088   1.999   2.577   9.349 -0.5142  0.4760  0.4867
  100OSM   H12G10089   1.912   2.542   9.196  0.0333  0.1667  0.2140
  100OSM   C13F10090   2.088   2.420   9.229  1.0969 -0.8702 -0.2729
  100OSM   H13F10091   2.061   2.316   9.203 -1.0698 -0.7335  1.1924
  100OSM   H13G10092   2.157   2.417   9.316 -0.1726  2.8032  1.0583
  100OSM   C14F10093   2.154   2.486   9.108  0.1404  0.6126  0.4900
  100OSM   H14F10094   2.171   2.592   9.136 -0.2984  0.5859  0.8562
  100OSM   H14G10095   2.091   2.492   9.016  1.3234 -0.2457 -0.4183
  100OSM   C15F10096   2.292   2.425   9.076 -0.0826 -0.3351 -0.0234
  100OSM   H15F10097   2.290   2.320   9.040  0.4941  0.0565 -1.2948
  100OSM   H15G10098   2.351   2.421   9.170  0.2443 -3.2566 -0.2814
  100OSM   C16F10099   2.357   2.519   8.964  0.3562  0.4542  0.3145
  100OSM   H16F10100   2.337   2.624   8.994  1.6432  0.8857 -0.2389
  100OSM   H16G10101   2.304   2.487   8.872  0.5200 -3.1355  1.3101
  100OSM   C17F10102   2.512   2.493   8.948  0.3244 -0.5758  0.1252
  100OSM   H17F10103   2.523   2.386   8.921  0.2854 -0.5583  0.0399
  100OSM   H17G10104   2.553   2.513   9.049  1.8535 -0.2923 -0.5224
  100OSM   C18F10105   2.574   2.576   8.831  0.4060  0.0890 -0.2225
  100OSM   H18F10106   2.685   2.577   8.839  0.4941 -0.3055 -1.3286
  100OSM   H18G10107   2.555   2.685   8.835  0.8645  0.2107 -1.0718
  100OSM   H18H10108   2.532   2.535   8.737  1.0443 -0.0211 -0.4700
  101OSM      N10109   5.797   1.868  11.050  0.3215 -0.1771 -0.7204
  101OSM    C1510110   5.911   1.916  11.141  0.7828  0.3806  0.2364
  101OSM   H15A10111   5.875   1.999  11.201  0.8349  0.8464 -0.3759
  101OSM   H15B10112   5.983   1.967  11.080  1.4577 -2.2146 -1.2786
  101OSM   H15C10113   5.958   1.833  11.191 -0.1253  0.5028  1.3604
  101OSM    C1410114   5.677   1.836  11.139  0.2910 -0.4460  0.2118
  101OSM   H14A10115   5.641   1.925  11.188 -1.9757  0.7680 -3.2802
  101OSM   H14B10116   5.700   1.768  11.219 -0.5240  0.6293  1.3942
  101OSM   H14C10117   5.601   1.794  11.074  2.2699 -0.5275 -2.1931
  101OSM    C1310118   5.758   1.984  10.962  0.1414 -1.1025 -0.5464
  101OSM   H13A10119   5.683   1.953  10.891 -0.7423  1.5608 -0.8571
  101OSM   H13B10120   5.838   2.019  10.899 -0.2320  1.9850  0.5185
  101OSM   H13C10121   5.731   2.075  11.013  0.2860 -0.0841 -2.2347
  101OSM    C1210122   5.832   1.742  10.976 -0.1016  1.1567 -0.2955
  101OSM   H12A10123   5.853   1.658  11.040 -0.6611  2.1247  1.2020
  101OSM   H12B10124   5.920   1.768  10.918 -0.1330 -0.8590 -1.3198
  101OSM    C1110125   5.743   1.687  10.861 -0.5636 -0.5759 -0.5527
  101OSM   H11A10126   5.815   1.626  10.803  1.0343 -1.2357  1.9440
  101OSM   H11B10127   5.699   1.761  10.792 -1.1991 -1.2001 -0.8321
  101OSM      P10128   5.520   1.557  10.860 -0.1466 -0.0933  0.3947
  101OSM    O1310129   5.474   1.426  10.914 -0.0019 -0.5859  0.6263
  101OSM    O1410130   5.421   1.668  10.855  0.6629 -0.7319  0.1968
  101OSM    O1110131   5.570   1.528  10.716  0.2834  0.9479  0.0290
  101OSM    O1210132   5.653   1.596  10.927 -0.8773 -0.5634 -0.1635
  101OSM    C1S10133   5.485   1.443  10.635  0.1680 -0.1526  0.2801
  101OSM    H1S10134   5.375   1.454  10.649  0.1753  2.0992 -0.9624
  101OSM    H1T10135   5.505   1.334  10.649  0.8607 -0.1462 -0.5808
  101OSM     NF10136   5.386   1.405  10.419 -0.6446 -0.1595 -0.8884
  101OSM    HNF10137   5.408   1.308  10.407  0.6599 -0.2010  1.3171
  101OSM    C2S10138   5.496   1.471  10.479  0.6727  0.5676 -0.6800
  101OSM    H2S10139   5.479   1.580  10.466 -0.0293  0.1743 -3.6545
  101OSM    C3S10140   5.637   1.427  10.434  0.1293  0.4417  0.9293
  101OSM    H3S10141   5.666   1.324  10.463  1.1405  0.6837  0.8128
  101OSM     O310142   5.737   1.493  10.504 -0.1551  0.6380  0.1185
  101OSM    HO310143   5.694   1.533  10.579  1.2161 -0.9802  1.8700
  101OSM    C4S10144   5.636   1.444  10.282 -0.3168 -0.6390 -0.1923
  101OSM    H4S10145   5.586   1.363  10.228 -0.0440 -1.6650  1.0259
  101OSM    C5S10146   5.672   1.558  10.217  0.1135  0.0112  0.3895
  101OSM    H5S10147   5.705   1.643  10.280 -1.3683 -0.2995  1.6455
  101OSM    C6S10148   5.657   1.587  10.067  0.1178 -0.1821  0.3997
  101OSM    H6S10149   5.754   1.599  10.015 -0.6718 -2.9824 -1.9617
  101OSM    H6T10150   5.599   1.680  10.050  0.3909 -0.2933 -1.2440
  101OSM    C7S10151   5.584   1.476   9.991  0.7157 -0.2590 -0.0056
  101OSM    H7S10152   5.483   1.445  10.025 -0.1679  0.3773 -1.9404
  101OSM    H7T10153   5.646   1.383   9.990  0.0483 -0.8485  3.2407
  101OSM    C8S10154   5.556   1.514   9.842  0.4393 -0.0637 -0.5825
  101OSM    H8S10155   5.519   1.619   9.847 -0.9896 -0.5604 -0.4278
  101OSM    H8T10156   5.482   1.440   9.805  1.2059 -0.7830 -0.7127
  101OSM    C9S10157   5.678   1.509   9.754 -0.0878  0.3026 -0.5081
  101OSM    H9S10158   5.743   1.421   9.777  1.3399  1.3084 -0.5807
  101OSM    H9T10159   5.747   1.593   9.775  1.1270 -0.8518  0.2650
  101OSM   C10S10160   5.644   1.505   9.603  0.1917 -0.0030 -0.6078
  101OSM   H10S10161   5.597   1.408   9.576  1.2950 -1.0987  1.1932
  101OSM   H10T10162   5.743   1.508   9.553 -0.0032  3.7272 -1.1112
  101OSM   C11S10163   5.562   1.621   9.544  0.3868 -0.1449  0.0519
  101OSM   H11S10164   5.603   1.717   9.583  0.0661  0.3082 -0.7042
  101OSM   H11T10165   5.456   1.613   9.579  0.8351 -0.4225  1.4159
  101OSM   C12S10166   5.551   1.640   9.388  0.4184  0.3146  0.1868
  101OSM   H12S10167   5.485   1.565   9.339 -1.1661  2.2572 -0.7529
  101OSM   H12T10168   5.653   1.624   9.348  0.6033 -1.4424  1.2267
  101OSM   C13S10169   5.486   1.773   9.341  0.5419 -0.2176  0.0909
  101OSM   H13S10170   5.542   1.860   9.381 -1.0142  0.6384  0.5007
  101OSM   H13T10171   5.387   1.764   9.390  0.7704  1.4376  0.9383
  101OSM   C14S10172   5.466   1.784   9.190 -0.4148  0.4700 -0.2662
  101OSM   H14S10173   5.398   1.871   9.184 -1.8799 -0.5590  0.6643
  101OSM   H14T10174   5.407   1.693   9.163  0.0131 -0.5229  1.9283
  101OSM   C15S10175   5.603   1.790   9.116  0.7263 -0.0692 -0.4656
  101OSM   H15S10176   5.665   1.703   9.146 -0.0718 -0.5544 -0.1953
  101OSM   H15T10177   5.663   1.880   9.142 -0.8214  0.1799  2.6957
  101OSM   C16S10178   5.586   1.780   8.967  0.2318  0.2883  0.3436
  101OSM   H16S10179   5.511   1.844   8.917 -2.3750 -2.7698  0.0149
  101OSM   H16T10180   5.554   1.679   8.935 -1.0694  1.1815 -1.3210
  101OSM   C17S10181   5.722   1.811   8.891 -0.7294 -0.5724  0.0043
  101OSM   H17S10182   5.779   1.716   8.883  1.3516  0.7775 -2.9903
  101OSM   H17T10183   5.784   1.879   8.953  0.3333 -1.0393 -0.5168
  101OSM   C18S10184   5.700   1.863   8.749 -0.2231  0.3591 -0.1580
  101OSM   H18S10185   5.667   1.969   8.737  0.3153  0.4429 -0.9542
  101OSM   H18T10186   5.627   1.802   8.692  0.0031  0.4655 -0.5626
  101OSM   H18U10187   5.805   1.848   8.715 -0.7347  0.0344 -1.6897
  101OSM    C1F10188   5.261   1.455  10.416 -0.2122 -0.3491 -0.3418
  101OSM     OF10189   5.228   1.563  10.467  0.2002 -0.4208 -0.4887
  101OSM    C2F10190   5.161   1.359  10.366 -0.1457 -0.2273 -0.1949
  101OSM    H2F10191   5.090   1.334  10.448  1.6935 -0.1208  1.5146
  101OSM    H2G10192   5.214   1.264  10.345  1.0800 -0.0494  1.7653
  101OSM    C3F10193   5.060   1.412  10.255  0.0430  0.0590  0.4832
  101OSM    H3F10194   5.010   1.500  10.301  0.6051  0.0971  1.0252
  101OSM    H3G10195   4.992   1.326  10.234  0.8674 -0.7492  1.0737
  101OSM    C4F10196   5.136   1.448  10.135 -0.8642  0.8644 -0.0886
  101OSM    H4F10197   5.200   1.361  10.108  0.0078  1.7034 -0.8418
  101OSM    H4G10198   5.210   1.524  10.169 -1.7694  0.7213  2.3099
  101OSM    C5F10199   5.053   1.493  10.010  0.1820  0.2554  0.1683
  101OSM    H5F10200   5.001   1.586  10.042 -1.5237 -0.3585 -0.6905
  101OSM    H5G10201   4.973   1.416  10.000 -0.7876  0.9036  2.2649
  101OSM    C6F10202   5.146   1.505   9.887  0.3801  0.1328 -0.3553
  101OSM    H6F10203   5.194   1.602   9.914 -0.7811  0.9235 -0.9934
  101OSM    H6G10204   5.219   1.423   9.875 -0.1000 -0.6277  1.4971
  101OSM    C7F10205   5.059   1.513   9.766 -0.4557 -0.4005 -0.6296
  101OSM    H7F10206   4.989   1.600   9.764  0.7848  0.7078  1.2138
  101OSM    H7G10207   5.007   1.414   9.767  2.2464 -1.9694  1.8011
  101OSM    C8F10208   5.137   1.515   9.632 -0.4891 -1.0614  0.3476
  101OSM    H8F10209   5.070   1.480   9.552  0.6041 -1.0856 -0.5902
  101OSM    H8G10210   5.224   1.446   9.626  0.2868  0.0017 -1.3929
  101OSM    C9F10211   5.195   1.657   9.605 -0.1551  0.0652  0.0182
  101OSM    H9F10212   5.292   1.678   9.651  1.3021 -0.9526 -2.4216
  101OSM   C10F10213   5.134   1.759   9.544  0.0068  0.1636 -0.8384
  101OSM   H10F10214   5.184   1.858   9.542 -0.7512  0.6635  1.9398
  101OSM   C11F10215   4.999   1.758   9.477 -0.7186 -0.6334 -1.0486
  101OSM   H11F10216   4.954   1.859   9.489  0.3851 -0.0928 -1.3223
  101OSM   H11G10217   4.942   1.677   9.528 -0.3757 -0.2295 -0.0015
  101OSM   C12F10218   5.003   1.722   9.329 -0.0596  0.7417 -0.0605
  101OSM   H12F10219   5.088   1.773   9.279 -0.3880  1.5604  0.1885
  101OSM   H12G10220   4.921   1.775   9.274  0.2662  0.0940 -1.2089
  101OSM   C13F10221   5.009   1.572   9.297  0.0239  0.3980  0.8569
  101OSM   H13F10222   4.911   1.530   9.328 -0.1990 -1.2305 -1.7375
  101OSM   H13G10223   5.093   1.525   9.351  0.5354 -1.5269 -1.4421
  101OSM   C14F10224   5.022   1.528   9.149 -0.0923  0.0075 -0.3506
  101OSM   H14F10225   4.958   1.590   9.083  1.5777 -0.7066 -2.7785
  101OSM   H14G10226   4.981   1.424   9.142  0.0338  0.0042 -1.2289
  101OSM   C15F10227   5.166   1.534   9.099  0.9361  0.0732  0.3646
  101OSM   H15F10228   5.216   1.441   9.134 -0.7953  0.1514  3.4257
  101OSM   H15G10229   5.204   1.632   9.134 -2.6924  1.8313 -0.1076
  101OSM   C16F10230   5.159   1.536   8.946 -1.0979  0.2702 -0.4627
  101OSM   H16F10231   5.078   1.601   8.907 -1.2832  0.2584 -0.1056
  101OSM   H16G10232   5.141   1.436   8.902  0.7278 -0.1771 -0.2886
  101OSM   C17F10233   5.293   1.581   8.883  0.1251 -0.3319 -0.3497
  101OSM   H17F10234   5.384   1.520   8.896  0.6988  0.3735 -0.9605
  101OSM   H17G10235   5.312   1.670   8.948 -1.4936 -1.1058  1.2836
  101OSM   C18F10236   5.283   1.620   8.732 -0.9598 -0.5989 -0.4278
  101OSM   H18F10237   5.243   1.531   8.679 -3.4094  0.8715 -1.2262
  101OSM   H18G10238   5.380   1.655   8.690 -0.6222 -1.4495 -0.3878
  101OSM   H18H10239   5.208   1.699   8.715 -0.9338 -0.6485 -0.7741
  102OSM      N10240   0.076   5.519  10.532  0.1688 -0.2609 -0.5203
  102OSM    C1510241   0.142   5.422  10.435 -0.1552 -0.0522 -0.7802
  102OSM   H15A10242   0.077   5.338  10.418 -2.8967  1.4550  1.4717
  102OSM   H15B10243   0.229   5.396  10.494 -0.2303 -0.1557 -0.7170
  102OSM   H15C10244   0.163   5.470  10.340 -1.3077  1.4549 -0.3164
  102OSM    C1410245   0.167   5.636  10.567  0.4117 -0.5867  0.4616
  102OSM   H14A10246   0.166   5.706  10.485 -1.9138  1.1841  1.8640
  102OSM   H14B10247   0.269   5.621  10.601  0.3920 -1.7981  0.0251
  102OSM   H14C10248   0.125   5.682  10.656 -1.3255  0.3037 -0.7688
  102OSM    C1310249  -0.046   5.567  10.461  0.2063 -0.2662 -0.4977
  102OSM   H13A10250  -0.021   5.578  10.356  0.4875 -4.8021 -1.1254
  102OSM   H13B10251  -0.102   5.637  10.521 -1.1060 -1.6703  0.0005
  102OSM   H13C10252  -0.124   5.493  10.450 -0.3616  0.0497  1.1418
  102OSM    C1210253   0.033   5.450  10.665 -0.3217 -0.3854 -0.5354
  102OSM   H12A10254  -0.031   5.518  10.719  0.1787 -0.1243 -0.2695
  102OSM   H12B10255   0.129   5.450  10.715 -0.2223  2.5643 -0.5539
  102OSM    C1110256  -0.030   5.303  10.665 -0.8191  0.2340  0.0389
  102OSM   H11A10257  -0.118   5.300  10.597 -0.3198 -0.7746 -0.5794
  102OSM   H11B10258  -0.066   5.284  10.769 -1.1797  1.0368  0.0676
  102OSM      P10259   0.030   5.077  10.534 -0.4491 -0.2520  0.1724
  102OSM    O1310260   0.137   4.977  10.555  0.0695 -0.3623  0.0064
  102OSM    O1410261  -0.110   5.044  10.564  0.1552 -0.1988 -0.2532
  102OSM    O1110262   0.049   5.144  10.396  0.7745  0.1871 -0.0425
  102OSM    O1210263   0.065   5.202  10.631  0.9233 -0.5277  0.5568
  102OSM    C1S10264  -0.068   5.180  10.317 -0.1189 -0.6652 -0.2361
  102OSM    H1S10265  -0.115   5.265  10.370  2.2270  0.7545 -0.3086
  102OSM    H1T10266  -0.142   5.097  10.316 -0.1614 -0.6260 -0.3055
  102OSM     NF10267  -0.155   5.282  10.104 -0.7361 -0.0469  0.7171
  102OSM    HNF10268  -0.204   5.230  10.035  1.0616  0.9659 -1.4638
  102OSM    C2S10269  -0.045   5.203  10.164  0.0857 -0.5702  0.1555
  102OSM    H2S10270   0.046   5.266  10.150 -2.1077  2.6332 -1.0225
  102OSM    C3S10271  -0.008   5.069  10.090 -0.4538 -0.1141 -0.4475
  102OSM    H3S10272  -0.111   5.027  10.083 -2.0743  2.4013  4.1776
  102OSM     O310273   0.077   4.980  10.165  0.3183  0.3843  0.0206
  102OSM    HO310274   0.075   5.008  10.257  2.4408 -0.4598  0.3820
  102OSM    C4S10275   0.042   5.084   9.949 -0.1512  0.3053 -0.4690
  102OSM    H4S10276   0.136   5.137   9.928  0.7654 -0.9861  0.2061
  102OSM    C5S10277  -0.030   5.048   9.845 -0.2551  1.0810  0.1398
  102OSM    H5S10278  -0.124   4.993   9.861  1.5242 -1.2216  4.0057
  102OSM    C6S10279   0.023   5.065   9.706 -0.5130 -0.4419  0.4375
  102OSM    H6S10280   0.012   4.966   9.656 -2.5072 -0.2857  0.4940
  102OSM    H6T10281   0.128   5.101   9.702 -0.3078 -1.1097 -0.3706
  102OSM    C7S10282  -0.069   5.155   9.622  0.3694  0.4932 -0.0222
  102OSM    H7S10283  -0.081   5.251   9.677 -2.0358 -0.1022  0.6111
  102OSM    H7T10284  -0.168   5.110   9.602  0.8525 -0.4525 -0.3321
  102OSM    C8S10285  -0.009   5.189   9.485 -0.3809  0.3517 -0.3889
  102OSM    H8S10286   0.101   5.192   9.499  0.1574 -1.7255 -3.2406
  102OSM    H8T10287  -0.039   5.290   9.451 -0.0927  0.4139 -0.4620
  102OSM    C9S10288  -0.050   5.086   9.377  0.4290 -0.5069  0.4896
  102OSM    H9S10289  -0.161   5.088   9.375  0.3989 -1.7364 -0.8307
  102OSM    H9T10290  -0.028   4.983   9.411 -0.2391 -0.6862  0.3968
  102OSM   C10S10291   0.001   5.121   9.234 -0.4383  0.0946 -0.3610
  102OSM   H10S10292   0.112   5.119   9.239 -0.4029  1.8921  3.5373
  102OSM   H10T10293  -0.022   5.227   9.215 -0.7760 -0.0937 -1.0095
  102OSM   C11S10294  -0.067   5.029   9.126 -0.5982  0.2730  0.4272
  102OSM   H11S10295  -0.172   5.064   9.127 -1.0135 -0.9299  1.1727
  102OSM   H11T10296  -0.055   4.923   9.157 -1.2607  0.2285  0.5462
  102OSM   C12S10297   0.005   5.055   8.996  0.2286 -0.5257  0.7101
  102OSM   H12S10298   0.113   5.028   9.000  0.9083  1.7295 -0.6127
  102OSM   H12T10299  -0.007   5.162   8.967 -0.0569 -1.0158 -1.1259
  102OSM   C13S10300  -0.050   4.961   8.881  0.3237  0.4323 -0.3345
  102OSM   H13S10301  -0.160   4.967   8.869  0.4956  1.9892 -1.3642
  102OSM   H13T10302  -0.028   4.856   8.909 -1.2813 -0.5315 -2.4261
  102OSM   C14S10303   0.006   4.999   8.750  0.1019 -0.5334  0.4013
  102OSM   H14S10304   0.114   4.974   8.751  0.6231  1.2723  3.5867
  102OSM   H14T10305   0.007   5.110   8.740  0.4335 -0.5489  0.2535
  102OSM   C15S10306  -0.063   4.931   8.625  0.6432 -0.2220 -0.5456
  102OSM   H15S10307  -0.171   4.955   8.615  0.9696  2.4489  1.2250
  102OSM   H15T10308  -0.052   4.821   8.639  3.7154  0.3282  2.9205
  102OSM   C16S10309  -0.008   4.967   8.487 -0.0737 -0.0343 -0.1900
  102OSM   H16S10310  -0.031   4.897   8.404 -1.3625 -1.3114  1.1902
  102OSM   H16T10311   0.102   4.981   8.484  0.4504 -3.5293 -1.0862
  102OSM   C17S10312  -0.067   5.103   8.445 -0.1612 -0.5834  0.3899
  102OSM   H17S10313   0.010   5.173   8.485 -1.3509  0.1511  1.4889
  102OSM   H17T10314  -0.160   5.123   8.502  1.1478  1.8004  1.8739
  102OSM   C18S10315  -0.085   5.129   8.293  0.0455 -0.9357  0.2345
  102OSM   H18S10316  -0.102   5.238   8.277  0.3917 -0.7639  0.9906
  102OSM   H18T10317  -0.177   5.070   8.272 -1.1321  0.7895  0.3419
  102OSM   H18U10318  -0.004   5.093   8.227 -1.1345  0.2613 -1.9724
  102OSM    C1F10319  -0.191   5.416  10.127  0.0421  0.6583  0.0796
  102OSM     OF10320  -0.110   5.485  10.186 -0.3717 -0.1086  0.0055
  102OSM    C2F10321  -0.328   5.462  10.088  0.5305  0.8334  0.4047
  102OSM    H2F10322  -0.365   5.537  10.162  2.5219  0.6428  1.6629
  102OSM    H2G10323  -0.402   5.380  10.081 -0.0110  0.7535  4.7545
  102OSM    C3F10324  -0.334   5.549   9.956  0.0348  0.1746 -0.5174
  102OSM    H3F10325  -0.250   5.620   9.950 -0.7240  1.0197 -5.8043
  102OSM    H3G10326  -0.423   5.616   9.948  1.3403  2.1239  0.5330
  102OSM    C4F10327  -0.322   5.463   9.828  0.1324  0.4696  0.1591
  102OSM    H4F10328  -0.407   5.392   9.838  0.0595  0.6533  0.9164
  102OSM    H4G10329  -0.225   5.409   9.819  0.2494  0.9834 -2.5274
  102OSM    C5F10330  -0.333   5.550   9.698 -0.0272  0.3771  0.0014
  102OSM    H5F10331  -0.255   5.629   9.691 -1.4878  1.9217  0.7826
  102OSM    H5G10332  -0.430   5.603   9.703 -1.5859 -2.3133  0.0027
  102OSM    C6F10333  -0.326   5.456   9.570  0.2646 -0.3160 -0.8658
  102OSM    H6F10334  -0.414   5.388   9.565 -0.7487  0.6280  2.0130
  102OSM    H6G10335  -0.235   5.393   9.573 -0.9133 -2.0519  0.7844
  102OSM    C7F10336  -0.341   5.537   9.446 -0.8635 -0.4829 -0.1043
  102OSM    H7F10337  -0.266   5.618   9.435 -0.7060 -0.6814 -0.5306
  102OSM    H7G10338  -0.436   5.595   9.451  1.5266  3.7757  0.4800
  102OSM    C8F10339  -0.337   5.449   9.320  0.6045 -0.5660  0.1693
  102OSM    H8F10340  -0.425   5.382   9.317  1.1820 -1.3414  0.1896
  102OSM    H8G10341  -0.238   5.397   9.320  0.3353 -1.1033  1.0485
  102OSM    C9F10342  -0.337   5.547   9.202  0.3476 -0.1663  0.1669
  102OSM    H9F10343  -0.397   5.639   9.196  1.2465  0.4223  0.0186
  102OSM   C10F10344  -0.260   5.538   9.091 -0.5920 -0.5129 -0.6138
  102OSM   H10F10345  -0.280   5.607   9.007  0.9111  0.4501 -0.2226
  102OSM   C11F10346  -0.157   5.436   9.065 -0.1882  0.5350  0.2898
  102OSM   H11F10347  -0.203   5.336   9.079 -0.4966  0.6768  0.2837
  102OSM   H11G10348  -0.072   5.450   9.135 -0.0047 -0.2809  0.2432
  102OSM   C12F10349  -0.104   5.447   8.916 -0.3428 -0.4841 -0.0093
  102OSM   H12F10350  -0.009   5.394   8.897 -0.5676 -0.3631 -1.6575
  102OSM   H12G10351  -0.085   5.552   8.884  1.0412 -0.5032  0.6714
  102OSM   C13F10352  -0.205   5.380   8.822 -0.8162 -0.2066 -0.2540
  102OSM   H13F10353  -0.307   5.414   8.847 -0.5077  1.6868 -1.3428
  102OSM   H13G10354  -0.198   5.272   8.846 -0.5776  0.0379  0.8182
  102OSM   C14F10355  -0.161   5.409   8.677 -0.7844  0.2287 -0.4855
  102OSM   H14F10356  -0.065   5.360   8.650  0.5705  2.6376 -0.3798
  102OSM   H14G10357  -0.140   5.518   8.671 -0.3096  0.0860 -1.5758
  102OSM   C15F10358  -0.269   5.376   8.570  0.1575 -0.2329  0.7469
  102OSM   H15F10359  -0.274   5.265   8.572  1.4459 -0.3056  0.6640
  102OSM   H15G10360  -0.232   5.405   8.469 -1.1471 -0.7191  0.1115
  102OSM   C16F10361  -0.413   5.436   8.584 -0.0923  0.3574 -0.0811
  102OSM   H16F10362  -0.452   5.388   8.676 -0.7415  1.4390  0.2266
  102OSM   H16G10363  -0.473   5.405   8.496 -0.7516 -0.1625  0.5442
  102OSM   C17F10364  -0.414   5.585   8.591  0.1709 -0.5818  0.1099
  102OSM   H17F10365  -0.370   5.629   8.499 -2.9123  0.1793 -1.1176
  102OSM   H17G10366  -0.345   5.615   8.673  1.9417 -0.9478 -1.2056
  102OSM   C18F10367  -0.560   5.634   8.603  0.1096 -0.2009  0.1346
  102OSM   H18F10368  -0.565   5.739   8.566 -1.3341  0.7730  2.8082
  102OSM   H18G10369  -0.588   5.635   8.711 -0.1866  0.2407  0.0537
  102OSM   H18H10370  -0.627   5.574   8.539  0.4299  2.3762 -2.8402
  103OSM      N10371   5.068   0.786  10.859 -0.3665 -0.1737 -0.4693
  103OSM    C1510372   4.917   0.812  10.864 -0.6117  0.7676 -0.0929
  103OSM   H15A10373   4.903   0.918  10.850 -0.9431  0.7694  0.2649
  103OSM   H15B10374   4.869   0.794  10.959 -0.8372  0.1773 -0.3157
  103OSM   H15C10375   4.866   0.758  10.785 -0.7575  1.0827 -0.2143
  103OSM    C1410376   5.128   0.898  10.940  0.1456 -0.4549  0.2438
  103OSM   H14A10377   5.224   0.920  10.894 -0.2848  1.4590  0.1842
  103OSM   H14B10378   5.124   0.877  11.046 -1.6852  0.5369  0.4171
  103OSM   H14C10379   5.075   0.989  10.916 -0.3286 -0.5389  0.9571
  103OSM    C1310380   5.096   0.656  10.926  0.1339 -0.2933 -0.6505
  103OSM   H13A10381   5.057   0.662  11.026  1.2775  1.4220 -0.2621
  103OSM   H13B10382   5.204   0.646  10.932  0.1900 -0.8084 -2.0018
  103OSM   H13C10383   5.044   0.582  10.867 -0.1170 -0.4313 -0.2572
  103OSM    C1210384   5.116   0.796  10.713  0.5192  0.3776 -0.4434
  103OSM   H12A10385   5.086   0.890  10.669  1.2714 -0.0848 -2.0516
  103OSM   H12B10386   5.066   0.729  10.644  0.8564  0.4266 -0.7357
  103OSM    C1110387   5.270   0.789  10.678  0.5069  0.4626 -0.8997
  103OSM   H11A10388   5.281   0.773  10.569  0.4793 -1.3490 -0.6657
  103OSM   H11B10389   5.304   0.695  10.728  3.2791  1.5474 -0.5794
  103OSM      P10390   5.494   0.905  10.746  0.3768 -0.1524  0.1003
  103OSM    O1310391   5.518   0.995  10.860 -0.1364 -0.1373  0.0189
  103OSM    O1410392   5.542   0.765  10.745 -0.4221 -0.0631 -0.1271
  103OSM    O1110393   5.536   0.973  10.616 -0.7103 -0.0637 -0.7716
  103OSM    O1210394   5.335   0.897  10.739 -0.8081 -0.2462  0.2094
  103OSM    C1S10395   5.640   0.924  10.529  0.9484 -0.1483  0.7137
  103OSM    H1S10396   5.661   0.817  10.548 -3.5646 -1.4426 -0.5610
  103OSM    H1T10397   5.722   1.000  10.532  0.5898  0.3743 -1.1873
  103OSM     NF10398   5.682   0.862  10.283 -0.4388  0.6305  0.1013
  103OSM    HNF10399   5.757   0.904  10.233  0.5155 -2.5445 -1.4212
  103OSM    C2S10400   5.591   0.926  10.373  0.4853  0.4422  0.0234
  103OSM    H2S10401   5.500   0.864  10.375  2.2616 -2.3526 -0.4749
  103OSM    C3S10402   5.564   1.072  10.324 -0.7992  0.0530 -0.8646
  103OSM    H3S10403   5.664   1.119  10.333  0.3997 -2.0401 -2.4409
  103OSM     O310404   5.485   1.144  10.418  0.0595  0.3230 -0.5420
  103OSM    HO310405   5.484   1.088  10.496  0.2801  3.9583  2.3193
  103OSM    C4S10406   5.513   1.080  10.188  0.0510  0.0238  0.9931
  103OSM    H4S10407   5.594   1.076  10.114  0.1972  0.0649  1.1491
  103OSM    C5S10408   5.392   1.062  10.150  0.4687  0.0896 -0.3425
  103OSM    H5S10409   5.311   1.054  10.225  0.5544 -1.7066 -0.3979
  103OSM    C6S10410   5.340   1.060  10.005 -0.0520  0.0186 -0.2810
  103OSM    H6S10411   5.257   1.133   9.997  0.7192  0.7472 -2.3823
  103OSM    H6T10412   5.297   0.964   9.969  0.6125 -0.1560 -0.6426
  103OSM    C7S10413   5.439   1.091   9.892 -0.1318  0.1900 -0.3145
  103OSM    H7S10414   5.510   1.006   9.902 -0.8755 -0.3219  0.9149
  103OSM    H7T10415   5.489   1.183   9.930 -1.6288  1.2885 -0.8892
  103OSM    C8S10416   5.378   1.124   9.757 -0.2563 -0.2806  0.0713
  103OSM    H8S10417   5.353   1.232   9.751 -0.5823 -0.3912 -0.6245
  103OSM    H8T10418   5.286   1.069   9.729  0.2779  0.3694 -3.4500
  103OSM    C9S10419   5.472   1.091   9.647 -0.5767 -0.2340  0.4499
  103OSM    H9S10420   5.512   0.988   9.662  0.1399 -0.1975 -1.0059
  103OSM    H9T10421   5.568   1.147   9.648 -0.2937 -0.6959  0.1173
  103OSM   C10S10422   5.413   1.109   9.498 -0.2722 -0.4901 -0.7944
  103OSM   H10S10423   5.383   1.214   9.478  3.0746  0.5457 -1.0240
  103OSM   H10T10424   5.324   1.043   9.492  0.4104 -1.4108 -1.0334
  103OSM   C11S10425   5.514   1.064   9.391 -0.2664 -0.1868 -0.3165
  103OSM   H11S10426   5.542   0.963   9.428 -2.1540 -0.1305  1.4050
  103OSM   H11T10427   5.605   1.127   9.391 -1.4080  1.5582  0.9631
  103OSM   C12S10428   5.460   1.049   9.250 -0.3056  0.2941 -0.0726
  103OSM   H12S10429   5.376   0.976   9.238  1.4390 -1.4143 -3.5614
  103OSM   H12T10430   5.544   1.003   9.193  0.2724 -0.9118  1.6490
  103OSM   C13S10431   5.438   1.191   9.185  0.1523  0.0727  0.4496
  103OSM   H13S10432   5.534   1.241   9.207  0.1676 -0.2643  1.1705
  103OSM   H13T10433   5.356   1.247   9.233  0.2095 -0.5099  1.2394
  103OSM   C14S10434   5.405   1.188   9.039  0.4133  0.5339 -0.5851
  103OSM   H14S10435   5.453   1.105   8.983  0.1792  0.4631 -0.6824
  103OSM   H14T10436   5.444   1.280   8.990 -0.5848  1.1518 -0.2552
  103OSM   C15S10437   5.255   1.172   9.002  0.2551 -0.2723 -0.0474
  103OSM   H15S10438   5.203   1.255   9.054 -1.8187 -0.8136 -1.1388
  103OSM   H15T10439   5.211   1.082   9.050  0.9545 -1.0698 -0.8695
  103OSM   C16S10440   5.225   1.178   8.852  0.0668  0.0428 -0.7039
  103OSM   H16S10441   5.263   1.079   8.820 -0.0947 -0.5378  0.7953
  103OSM   H16T10442   5.272   1.253   8.784  0.5808  0.5860  0.2303
  103OSM   C17S10443   5.073   1.182   8.831 -0.1894  0.2087  0.0045
  103OSM   H17S10444   5.032   1.280   8.863 -0.5809  0.4446 -1.1409
  103OSM   H17T10445   5.015   1.114   8.896 -1.2869  2.5571  1.6178
  103OSM   C18S10446   5.028   1.146   8.688 -0.6290 -0.3743  0.2208
  103OSM   H18S10447   5.080   1.206   8.610  0.6095 -1.7067 -0.0335
  103OSM   H18T10448   4.918   1.138   8.679 -0.6564 -1.4641  1.1589
  103OSM   H18U10449   5.065   1.043   8.666  0.6311  0.0467  0.2534
  103OSM    C1F10450   5.693   0.729  10.267  0.2566  0.2682  0.5877
  103OSM     OF10451   5.622   0.648  10.326  0.6545  0.1217 -0.0157
  103OSM    C2F10452   5.788   0.685  10.157  0.1641 -0.0225 -0.5764
  103OSM    H2F10453   5.890   0.682  10.201  0.4513 -0.3873 -1.2605
  103OSM    H2G10454   5.792   0.767  10.082  1.7203  0.3867 -0.0850
  103OSM    C3F10455   5.733   0.562  10.094 -0.6185 -0.3355  0.5697
  103OSM    H3F10456   5.636   0.593  10.048  0.3749  1.8050 -0.2225
  103OSM    H3G10457   5.713   0.479  10.166 -1.0444 -2.0662 -1.4231
  103OSM    C4F10458   5.835   0.512   9.995 -0.7241  0.1410 -0.2166
  103OSM    H4F10459   5.805   0.410   9.962  2.0412 -0.5512 -0.7908
  103OSM    H4G10460   5.932   0.501  10.047  0.6463  0.9508 -2.4482
  103OSM    C5F10461   5.866   0.610   9.881  0.0399  0.4578  0.0335
  103OSM    H5F10462   5.904   0.709   9.913  1.0818 -0.3473  1.3761
  103OSM    H5G10463   5.771   0.629   9.828 -0.3403 -0.2829  0.4397
  103OSM    C6F10464   5.975   0.555   9.779 -0.0294 -0.2268 -0.4637
  103OSM    H6F10465   6.065   0.558   9.844 -0.8662 -0.2795  0.7421
  103OSM    H6G10466   5.989   0.632   9.700  2.3548  0.0989  0.2187
  103OSM    C7F10467   5.942   0.413   9.730 -0.2334  0.2638  0.2407
  103OSM    H7F10468   5.834   0.390   9.723  0.1787 -1.3157 -2.2768
  103OSM    H7G10469   5.991   0.335   9.792  2.2767  0.2061 -1.6314
  103OSM    C8F10470   6.002   0.411   9.587 -0.4474  0.0439 -0.3497
  103OSM    H8F10471   6.113   0.424   9.593 -0.5578  0.4747  1.3075
  103OSM    H8G10472   5.966   0.499   9.530 -0.6433 -0.0530 -0.3734
  103OSM    C9F10473   5.984   0.281   9.513  0.1139 -0.2302 -0.1140
  103OSM    H9F10474   6.046   0.200   9.555  1.2372  0.4773 -0.3675
  103OSM   C10F10475   5.901   0.236   9.418  0.2470 -0.4448  0.4067
  103OSM   H10F10476   5.904   0.129   9.392  0.0104 -0.4524  0.4104
  103OSM   C11F10477   5.792   0.321   9.354  0.1205  0.5503  0.2639
  103OSM   H11F10478   5.789   0.415   9.413 -1.4109 -1.1485  3.1359
  103OSM   H11G10479   5.688   0.284   9.352  0.0400  0.7688 -1.9292
  103OSM   C12F10480   5.832   0.339   9.209  0.3661 -0.1431 -0.4198
  103OSM   H12F10481   5.825   0.239   9.163  0.5013 -0.7552  0.8383
  103OSM   H12G10482   5.941   0.361   9.197  0.8443 -2.1017  0.0188
  103OSM   C13F10483   5.736   0.428   9.127  0.0254  0.4510 -0.1220
  103OSM   H13F10484   5.733   0.532   9.166  1.6503 -0.1145  1.6743
  103OSM   H13G10485   5.635   0.384   9.142  0.5139  0.1091  2.5843
  103OSM   C14F10486   5.787   0.448   8.983 -0.3418 -0.2464 -0.1190
  103OSM   H14F10487   5.810   0.348   8.940  0.6155  1.1485 -3.1117
  103OSM   H14G10488   5.880   0.509   8.987  1.0616 -1.7563 -4.2419
  103OSM   C15F10489   5.694   0.524   8.889 -0.2244 -0.7658 -0.7247
  103OSM   H15F10490   5.657   0.619   8.934  0.6263  1.9880 -5.1692
  103OSM   H15G10491   5.617   0.445   8.880  0.1994 -1.1653 -0.8673
  103OSM   C16F10492   5.766   0.563   8.758 -0.0182 -0.0315 -0.0733
  103OSM   H16F10493   5.805   0.476   8.701 -1.6422 -2.6750  2.5581
  103OSM   H16G10494   5.845   0.637   8.781 -0.6688  1.5315 -2.5232
  103OSM   C17F10495   5.669   0.637   8.664 -0.0484  0.2011  0.1234
  103OSM   H17F10496   5.650   0.738   8.706 -0.6581  0.1293  0.0273
  103OSM   H17G10497   5.575   0.579   8.656  0.1659 -0.3255  1.3237
  103OSM   C18F10498   5.732   0.653   8.525 -0.9646  0.4413  0.1676
  103OSM   H18F10499   5.828   0.707   8.539 -0.5987 -0.5599  1.8269
  103OSM   H18G10500   5.661   0.701   8.455 -1.7572 -2.8781 -1.4766
  103OSM   H18H10501   5.752   0.558   8.472 -0.3959 -0.3127  1.6807
  104OSM      N10502   6.364   0.028  10.909  0.0757 -0.1064  0.5022
  104OSM    C1510503   6.444  -0.100  10.897 -0.1009 -0.3217 -0.3914
  104OSM   H15A10504   6.395  -0.180  10.843  1.1383  1.3604 -4.3595
  104OSM   H15B10505   6.476  -0.137  10.994 -0.7968 -0.0564 -0.0488
  104OSM   H15C10506   6.539  -0.083  10.848  1.8576 -0.9176  2.8781
  104OSM    C1410507   6.452   0.126  10.991  0.7159  0.0193 -0.5527
  104OSM   H14A10508   6.487   0.077  11.080 -0.7575 -0.8563 -0.4166
  104OSM   H14B10509   6.396   0.215  11.014  0.5692 -0.4122  0.8285
  104OSM   H14C10510   6.536   0.150  10.928  0.1732  2.2959 -0.4868
  104OSM    C1310511   6.347   0.084  10.775 -0.1118  0.4043 -0.6167
  104OSM   H13A10512   6.444   0.107  10.734 -0.8737  3.2980 -0.9803
  104OSM   H13B10513   6.294   0.178  10.785 -0.8617 -0.1548  1.0377
  104OSM   H13C10514   6.291   0.020  10.708  1.1906 -0.1870 -1.1574
  104OSM    C1210515   6.229   0.006  10.982  0.0183  0.5349 -0.7996
  104OSM   H12A10516   6.184   0.103  10.995  2.3482  1.6312 -0.3771
  104OSM   H12B10517   6.247  -0.036  11.080  0.2168  3.0289  0.3064
  104OSM    C1110518   6.122  -0.085  10.908  0.1543 -0.0589  0.8581
  104OSM   H11A10519   6.048  -0.123  10.981  0.1699 -1.0158  0.3866
  104OSM   H11B10520   6.176  -0.173  10.868  0.8747  0.3807  0.8400
  104OSM      P10521   5.932   0.079  10.843 -0.0790 -0.0982  0.2642
  104OSM    O1310522   5.839  -0.002  10.919 -0.0150 -0.3159  0.2600
  104OSM    O1410523   5.990   0.195  10.919 -0.2987 -0.2002  0.8515
  104OSM    O1110524   5.864   0.123  10.707 -0.8956 -0.1317  0.0871
  104OSM    O1210525   6.059  -0.005  10.801 -0.0578 -0.3130  0.2562
  104OSM    C1S10526   5.941   0.176  10.596  0.3942  0.0826 -0.2158
  104OSM    H1S10527   6.044   0.134  10.588  0.1011 -0.4528 -1.3857
  104OSM    H1T10528   5.944   0.286  10.581 -2.0953 -0.1401 -3.3026
  104OSM     NF10529   5.945   0.202  10.356 -0.6047  0.6778 -0.3772
  104OSM    HNF10530   5.915   0.295  10.335  0.1938  1.5409  1.9984
  104OSM    C2S10531   5.872   0.133  10.460 -0.4070  0.6448 -0.4432
  104OSM    H2S10532   5.879   0.023  10.449 -1.0322  0.7361 -1.9480
  104OSM    C3S10533   5.722   0.165  10.453 -0.0313 -0.6201 -0.3884
  104OSM    H3S10534   5.705   0.268  10.489 -1.0200 -0.6676 -0.6944
  104OSM     O310535   5.644   0.093  10.555  0.6550  0.6614  0.1216
  104OSM    HO310536   5.711   0.079  10.623 -0.5223  1.7761  1.5936
  104OSM    C4S10537   5.658   0.152  10.311 -0.2563  1.0110  0.0824
  104OSM    H4S10538   5.650   0.050  10.272 -0.1586  0.5939  1.1382
  104OSM    C5S10539   5.601   0.254  10.243 -0.3264 -0.1537  0.5482
  104OSM    H5S10540   5.582   0.350  10.293 -0.9242  0.2578 -0.4357
  104OSM    C6S10541   5.544   0.244  10.101  0.2974  0.3716 -0.7531
  104OSM    H6S10542   5.527   0.350  10.072  0.0014  0.1439 -1.4345
  104OSM    H6T10543   5.443   0.198  10.111  0.1563  0.8315  0.0378
  104OSM    C7S10544   5.639   0.176  10.005  0.0319 -0.0874 -0.5558
  104OSM    H7S10545   5.676   0.082  10.050  0.2926  0.2046 -0.1621
  104OSM    H7T10546   5.734   0.233  10.010  1.8150 -2.8865 -0.1987
  104OSM    C8S10547   5.595   0.156   9.853  1.0142  0.7133  0.1263
  104OSM    H8S10548   5.574   0.254   9.806  1.5987  1.3671  1.2118
  104OSM    H8T10549   5.508   0.087   9.846  1.6047 -0.1039  0.5806
  104OSM    C9S10550   5.702   0.088   9.771  0.1190 -0.0432  0.1211
  104OSM    H9S10551   5.736  -0.005   9.823  1.8636 -0.1369 -1.1131
  104OSM    H9T10552   5.788   0.157   9.756 -0.3883  0.6296  0.2541
  104OSM   C10S10553   5.645   0.052   9.636  0.3342  0.3369  0.4344
  104OSM   H10S10554   5.642   0.135   9.562  1.4107  0.1041  0.1130
  104OSM   H10T10555   5.542   0.011   9.644 -0.1211  1.4007  0.1984
  104OSM   C11S10556   5.730  -0.056   9.577 -0.3315  0.8718 -0.4266
  104OSM   H11S10557   5.715  -0.158   9.620 -1.0595 -0.0767 -2.7768
  104OSM   H11T10558   5.837  -0.039   9.602 -0.6320 -0.3579  2.0341
  104OSM   C12S10559   5.712  -0.071   9.425  0.5358 -0.7653 -0.5625
  104OSM   H12S10560   5.717   0.032   9.385  0.7100 -1.0972 -1.4255
  104OSM   H12T10561   5.607  -0.103   9.407  0.6110 -0.4775 -1.5732
  104OSM   C13S10562   5.818  -0.164   9.367  0.4334  0.0029 -0.2972
  104OSM   H13S10563   5.788  -0.269   9.388  0.1089  0.3119  0.8189
  104OSM   H13T10564   5.914  -0.139   9.415  1.4767 -1.4455 -1.5236
  104OSM   C14S10565   5.841  -0.133   9.217  0.5887  1.4482  0.4154
  104OSM   H14S10566   5.929  -0.197   9.191  0.2906  0.7893  1.0043
  104OSM   H14T10567   5.873  -0.029   9.194  1.1798  0.8396 -1.8847
  104OSM   C15S10568   5.733  -0.179   9.119 -0.3008  0.0462 -0.0177
  104OSM   H15S10569   5.640  -0.124   9.145 -0.0528 -0.3364  1.7774
  104OSM   H15T10570   5.703  -0.285   9.132 -1.1735  0.3275  0.3001
  104OSM   C16S10571   5.774  -0.156   8.976 -0.4634  1.2155 -0.1274
  104OSM   H16S10572   5.695  -0.210   8.919 -1.2941  1.4979  0.7335
  104OSM   H16T10573   5.870  -0.208   8.954 -1.0673 -0.1226  0.2824
  104OSM   C17S10574   5.780  -0.008   8.942 -0.2057  0.1326  0.0123
  104OSM   H17S10575   5.851   0.054   9.001 -0.3409 -0.0425  0.3617
  104OSM   H17T10576   5.684   0.037   8.974 -0.7748 -0.2650 -1.0992
  104OSM   C18S10577   5.792   0.023   8.802  0.5539  0.1471  0.6871
  104OSM   H18S10578   5.888  -0.023   8.770  0.3365 -1.1055  1.7370
  104OSM   H18T10579   5.773   0.128   8.772 -2.9530 -0.3708  0.7687
  104OSM   H18U10580   5.720  -0.030   8.738  0.3394  0.0976  0.9674
  104OSM    C1F10581   6.061   0.153  10.311  0.0356  0.1954  0.0896
  104OSM     OF10582   6.106   0.045  10.357 -0.0092  0.4581  0.2392
  104OSM    C2F10583   6.142   0.226  10.208  0.7064 -0.0071  0.3008
  104OSM    H2F10584   6.234   0.262  10.257  1.3765 -2.1691  0.7054
  104OSM    H2G10585   6.093   0.315  10.162 -0.4579 -1.7820 -2.1064
  104OSM    C3F10586   6.173   0.128  10.084  0.0040  0.3386 -0.1405
  104OSM    H3F10587   6.254   0.061  10.119 -0.5763 -0.4740 -0.3136
  104OSM    H3G10588   6.233   0.186  10.011  1.1382 -1.2043 -0.4852
  104OSM    C4F10589   6.056   0.070  10.010 -0.1745 -0.1973 -0.0149
  104OSM    H4F10590   5.985   0.150   9.981 -0.0383 -0.1879 -0.3194
  104OSM    H4G10591   6.001   0.005  10.082  0.5342 -1.2088 -0.3520
  104OSM    C5F10592   6.077  -0.018   9.885  0.3005  0.0107 -0.7053
  104OSM    H5F10593   5.986  -0.035   9.824 -0.9971  0.1131  1.1308
  104OSM    H5G10594   6.110  -0.119   9.918  0.7700  1.1536  2.7207
  104OSM    C6F10595   6.196   0.038   9.795  0.1080  0.5307 -0.3127
  104OSM    H6F10596   6.286   0.027   9.859 -0.8433 -0.3967  0.9005
  104OSM    H6G10597   6.188   0.145   9.764  1.0970  1.3217  1.9516
  104OSM    C7F10598   6.196  -0.042   9.665 -0.7140  0.2116  1.1039
  104OSM    H7F10599   6.094  -0.057   9.623 -0.9779  0.7359  1.5445
  104OSM    H7G10600   6.240  -0.143   9.676  2.7860  0.9366 -3.3136
  104OSM    C8F10601   6.285   0.028   9.553  0.3250 -0.4690 -0.3668
  104OSM    H8F10602   6.385   0.058   9.594  0.2776 -0.1589 -0.4718
  104OSM    H8G10603   6.240   0.129   9.537  0.4354 -0.4509 -0.5695
  104OSM    C9F10604   6.307  -0.054   9.430 -0.2768 -0.2220  0.0863
  104OSM    H9F10605   6.333  -0.159   9.451  2.4054  0.0591 -1.4070
  104OSM   C10F10606   6.295  -0.025   9.299  0.5816  0.0816  0.1047
  104OSM   H10F10607   6.334  -0.104   9.234 -0.0389 -0.9617  0.9665
  104OSM   C11F10608   6.264   0.115   9.246 -0.8053 -1.3505  0.0945
  104OSM   H11F10609   6.235   0.183   9.328  0.2813 -0.9416  0.1603
  104OSM   H11G10610   6.179   0.123   9.175 -0.6611  1.6075  0.1255
  104OSM   C12F10611   6.379   0.178   9.163 -0.0142  0.1251  0.4977
  104OSM   H12F10612   6.473   0.164   9.220 -1.0305 -0.7496  2.0415
  104OSM   H12G10613   6.361   0.287   9.154 -1.5489 -0.1753 -0.4664
  104OSM   C13F10614   6.395   0.123   9.020  0.6116 -0.1601  0.4032
  104OSM   H13F10615   6.303   0.136   8.958  1.0543 -2.3403 -0.7915
  104OSM   H13G10616   6.395   0.012   9.029  0.4223 -0.2968 -0.9509
  104OSM   C14F10617   6.517   0.152   8.930 -0.2390 -0.3337 -0.6527
  104OSM   H14F10618   6.609   0.117   8.982  0.6243  0.2232 -1.7541
  104OSM   H14G10619   6.527   0.262   8.916  1.5328 -0.3670  0.1388
  104OSM   C15F10620   6.504   0.084   8.799 -0.1296 -0.0692 -0.1045
  104OSM   H15F10621   6.596   0.111   8.744 -0.9326  0.4591 -1.2335
  104OSM   H15G10622   6.418   0.124   8.741  1.0101  1.8986 -0.4892
  104OSM   C16F10623   6.497  -0.072   8.809  0.9023 -0.0398 -0.0620
  104OSM   H16F10624   6.389  -0.085   8.830  0.1211  1.0354 -2.9631
  104OSM   H16G10625   6.546  -0.102   8.905  2.0610  0.3797 -0.4995
  104OSM   C17F10626   6.554  -0.137   8.687  0.0965 -0.0468  0.1130
  104OSM   H17F10627   6.552  -0.244   8.715  2.0257 -0.0831  0.2542
  104OSM   H17G10628   6.659  -0.110   8.664  0.4333 -1.1663  0.3270
  104OSM   C18F10629   6.463  -0.121   8.560 -0.0621  0.3968  0.2620
  104OSM   H18F10630   6.489  -0.039   8.490 -1.6927 -1.0546 -2.1979
  104OSM   H18G10631   6.359  -0.099   8.592  0.1482  1.6149  0.1480
  104OSM   H18H10632   6.463  -0.213   8.498 -2.7015  0.4930 -0.0053
  105OSM      N10633   3.035   2.554  11.065  0.5821  0.0017 -0.9863
  105OSM    C1510634   2.951   2.485  10.975  0.0401  1.1146  0.0171
  105OSM   H15A10635   2.885   2.432  11.042 -0.2052  1.8546  0.3762
  105OSM   H15B10636   3.001   2.415  10.910 -1.7767 -0.0115 -0.2623
  105OSM   H15C10637   2.896   2.553  10.912  0.1718  1.2961  0.0985
  105OSM    C1410638   2.944   2.648  11.156 -0.1032 -0.3507  0.2544
  105OSM   H14A10639   2.886   2.583  11.219  0.9502 -1.2837  0.3050
  105OSM   H14B10640   2.883   2.708  11.089  0.7664 -1.3415 -1.5185
  105OSM   H14C10641   3.008   2.705  11.221  0.5509  0.3370 -0.9386
  105OSM    C1310642   3.114   2.462  11.164 -0.1208  0.0610 -0.1901
  105OSM   H13A10643   3.161   2.379  11.113  1.9629  1.3236 -0.4264
  105OSM   H13B10644   3.059   2.425  11.250  0.1214  0.1442  0.0020
  105OSM   H13C10645   3.199   2.513  11.206  0.1017 -0.5824  0.1589
  105OSM    C1210646   3.139   2.626  10.981 -0.3267  0.3019  0.2500
  105OSM   H12A10647   3.082   2.672  10.901 -1.9313 -1.0278  0.5771
  105OSM   H12B10648   3.208   2.555  10.937 -1.5725 -1.0371  0.3919
  105OSM    C1110649   3.236   2.732  11.041  0.2425 -0.2267 -0.9867
  105OSM   H11A10650   3.316   2.738  10.965 -0.6280  0.6590 -1.8773
  105OSM   H11B10651   3.273   2.692  11.137 -2.4022 -0.3074  0.0817
  105OSM      P10652   3.098   2.932  10.949  0.2184  0.0886 -0.1459
  105OSM    O1310653   2.956   2.937  10.977  0.3024 -0.0872  0.1693
  105OSM    O1410654   3.155   3.063  10.928  0.0517 -0.5592  1.1683
  105OSM    O1110655   3.126   2.843  10.824 -0.3936 -0.2242 -0.1578
  105OSM    O1210656   3.173   2.858  11.065 -0.2754  0.2093  0.1567
  105OSM    C1S10657   3.059   2.832  10.708  0.2938 -0.0364 -0.3343
  105OSM    H1S10658   2.964   2.887  10.694  1.3043  1.4999 -1.4995
  105OSM    H1T10659   3.032   2.724  10.701  2.6956 -0.7411  0.3652
  105OSM     NF10660   3.077   2.926  10.482  0.0917 -0.4754 -0.5343
  105OSM    HNF10661   3.063   2.856  10.412  0.2087  0.2492 -1.2900
  105OSM    C2S10662   3.156   2.885  10.598 -0.2769 -0.6495  0.6191
  105OSM    H2S10663   3.218   2.968  10.637  0.5763 -0.7257 -0.5182
  105OSM    C3S10664   3.267   2.780  10.553  0.1846 -0.0372 -0.4328
  105OSM    H3S10665   3.210   2.688  10.525  0.3606  0.8188 -4.1789
  105OSM     O310666   3.356   2.743  10.657  0.3785  0.1912  0.7695
  105OSM    HO310667   3.320   2.794  10.730 -1.3920 -0.3265  0.3040
  105OSM    C4S10668   3.360   2.831  10.445 -0.0136 -0.2412 -0.4223
  105OSM    H4S10669   3.416   2.920  10.475 -0.0677 -0.1439 -0.6031
  105OSM    C5S10670   3.377   2.783  10.320  0.8489  0.0444  0.4201
  105OSM    H5S10671   3.319   2.701  10.275 -0.7552  1.1581  0.3628
  105OSM    C6S10672   3.484   2.843  10.230 -0.1659 -0.8217  0.4617
  105OSM    H6S10673   3.562   2.764  10.221 -1.8711 -2.8381  2.0098
  105OSM    H6T10674   3.520   2.944  10.258  1.7865 -0.9139 -1.4860
  105OSM    C7S10675   3.437   2.862  10.082  0.5072  0.4399  0.9050
  105OSM    H7S10676   3.329   2.886  10.069  0.4502  0.9467  2.1613
  105OSM    H7T10677   3.454   2.765  10.031  1.6655  0.9993  0.2135
  105OSM    C8S10678   3.525   2.967  10.004 -0.0730  0.0492  0.4958
  105OSM    H8S10679   3.633   2.962  10.029  0.2715  2.0153 -0.3933
  105OSM    H8T10680   3.492   3.071  10.021  0.6819  0.5674 -1.0082
  105OSM    C9S10681   3.494   2.947   9.853 -0.6467 -0.0088 -0.5795
  105OSM    H9S10682   3.384   2.955   9.854 -0.7908 -1.7808 -0.6237
  105OSM    H9T10683   3.528   2.852   9.808  3.7225  1.9218 -1.8876
  105OSM   C10S10684   3.540   3.061   9.760  0.6862  0.1446  0.1864
  105OSM   H10S10685   3.647   3.047   9.734  0.9495 -0.7351  1.6545
  105OSM   H10T10686   3.534   3.163   9.804 -1.0047 -0.0012  0.3465
  105OSM   C11S10687   3.459   3.068   9.629 -0.3046  0.3909  0.2675
  105OSM   H11S10688   3.477   3.159   9.568 -0.6366  0.0218 -0.3848
  105OSM   H11T10689   3.356   3.075   9.672  0.4147 -1.8035  2.5875
  105OSM   C12S10690   3.461   2.939   9.543 -0.6042  0.1552  0.7060
  105OSM   H12S10691   3.410   2.856   9.597 -0.4152 -1.0775 -0.9590
  105OSM   H12T10692   3.566   2.904   9.542 -1.6287 -3.2898  0.8219
  105OSM   C13S10693   3.416   2.961   9.398  0.0630 -0.4310  0.0001
  105OSM   H13S10694   3.314   3.004   9.407 -0.4095 -0.8948 -2.4961
  105OSM   H13T10695   3.407   2.861   9.351 -1.5140 -0.6350  0.6644
  105OSM   C14S10696   3.487   3.070   9.305  0.1977  0.2253 -0.1054
  105OSM   H14S10697   3.552   3.132   9.371 -0.3691 -0.9879  1.6644
  105OSM   H14T10698   3.410   3.136   9.260 -0.1003 -2.4197 -3.9526
  105OSM   C15S10699   3.563   2.997   9.197 -0.5503 -0.3896 -0.2867
  105OSM   H15S10700   3.486   2.941   9.139 -1.9904  0.9721  0.2443
  105OSM   H15T10701   3.620   2.925   9.259  1.5149  3.5890  2.9273
  105OSM   C16S10702   3.655   3.086   9.112  0.3232 -0.6315  0.1300
  105OSM   H16S10703   3.722   3.019   9.054  0.3826 -0.2929 -0.1963
  105OSM   H16T10704   3.704   3.153   9.185 -1.1612 -1.1852  1.6927
  105OSM   C17S10705   3.583   3.179   9.004 -0.2482  0.5141  0.8802
  105OSM   H17S10706   3.652   3.255   8.961  2.0534 -0.5673  2.4683
  105OSM   H17T10707   3.497   3.232   9.051 -1.2273  0.0397 -0.3260
  105OSM   C18S10708   3.536   3.093   8.878 -0.5825  0.5062 -0.1081
  105OSM   H18S10709   3.474   3.011   8.920 -0.4553  2.1605  3.7689
  105OSM   H18T10710   3.623   3.047   8.827  0.1439  0.7688  0.8567
  105OSM   H18U10711   3.477   3.164   8.816 -1.5385 -0.8000 -0.7445
  105OSM    C1F10712   3.007   3.042  10.484 -0.2704  0.2588 -0.4886
  105OSM     OF10713   3.032   3.118  10.579  0.0612  0.4358  0.1129
  105OSM    C2F10714   2.893   3.047  10.384  0.1601 -0.6999  0.3805
  105OSM    H2F10715   2.849   2.946  10.368  0.3211 -1.3574  3.4671
  105OSM    H2G10716   2.945   3.083  10.293 -2.7678  0.0974 -1.1215
  105OSM    C3F10717   2.795   3.153  10.422 -0.0632  1.1402  0.6326
  105OSM    H3F10718   2.832   3.258  10.414  1.0157  0.8763  1.9011
  105OSM    H3G10719   2.761   3.146  10.527 -1.5703  2.2158  0.2601
  105OSM    C4F10720   2.674   3.155  10.319 -0.1575 -0.6595 -0.2939
  105OSM    H4F10721   2.588   3.209  10.365 -0.8200 -0.6692 -1.4986
  105OSM    H4G10722   2.635   3.053  10.303 -1.2704 -0.4589  0.9633
  105OSM    C5F10723   2.711   3.222  10.189 -0.1551  0.8495 -0.6481
  105OSM    H5F10724   2.795   3.161  10.150 -0.5416  1.5079 -2.6201
  105OSM    H5G10725   2.744   3.327  10.201 -0.1406  0.8993 -1.0935
  105OSM    C6F10726   2.613   3.200  10.083 -0.3641  0.1069 -1.1045
  105OSM    H6F10727   2.520   3.253  10.114  0.0125  0.4911 -0.6108
  105OSM    H6G10728   2.591   3.092  10.077 -0.0334 -0.1848  1.8736
  105OSM    C7F10729   2.664   3.234   9.943  0.0180 -0.4306  0.6710
  105OSM    H7F10730   2.585   3.223   9.865  1.7951  1.0123 -1.4730
  105OSM    H7G10731   2.751   3.170   9.920  0.4801  0.4180 -0.0024
  105OSM    C8F10732   2.712   3.380   9.937  0.3420  0.3570  0.0658
  105OSM    H8F10733   2.798   3.406  10.003 -0.7867  2.5041  0.7931
  105OSM    H8G10734   2.630   3.444   9.975 -0.7367 -0.5407 -0.7031
  105OSM    C9F10735   2.759   3.422   9.799  0.4911 -0.2324 -0.0043
  105OSM    H9F10736   2.863   3.390   9.783  0.4901 -0.7300  0.9252
  105OSM   C10F10737   2.674   3.472   9.707 -0.1625  0.3218 -0.2083
  105OSM   H10F10738   2.717   3.521   9.618  0.5253  0.9061  0.4346
  105OSM   C11F10739   2.517   3.490   9.722  0.3862 -0.7367  0.3360
  105OSM   H11F10740   2.497   3.598   9.742  2.3693 -0.5670  1.7571
  105OSM   H11G10741   2.484   3.428   9.809  3.1041 -1.0420  1.2498
  105OSM   C12F10742   2.433   3.426   9.608 -0.7241 -0.2927  0.4590
  105OSM   H12F10743   2.326   3.435   9.635 -0.4989 -1.5023  1.9039
  105OSM   H12G10744   2.443   3.315   9.605 -0.3900 -0.2599 -1.4105
  105OSM   C13F10745   2.475   3.481   9.474 -0.2982  0.0217  0.4220
  105OSM   H13F10746   2.585   3.463   9.471 -0.3857 -0.4490 -0.9516
  105OSM   H13G10747   2.455   3.590   9.464  0.8835  0.1880 -0.5074
  105OSM   C14F10748   2.408   3.417   9.358 -0.0553  0.3310 -0.3463
  105OSM   H14F10749   2.302   3.405   9.389  0.6910 -2.3482  1.5873
  105OSM   H14G10750   2.448   3.314   9.342 -0.1660 -0.2695  2.6114
  105OSM   C15F10751   2.434   3.497   9.228  0.4635 -1.4043 -0.2114
  105OSM   H15F10752   2.543   3.485   9.211  0.9353  0.8469  0.9344
  105OSM   H15G10753   2.408   3.604   9.240  0.7100 -1.1347 -1.7906
  105OSM   C16F10754   2.367   3.453   9.104 -0.4485 -0.1496 -0.0175
  105OSM   H16F10755   2.257   3.458   9.116 -0.6146  2.8767 -1.9154
  105OSM   H16G10756   2.398   3.350   9.074 -1.2791 -0.2615 -0.5174
  105OSM   C17F10757   2.406   3.537   8.983 -0.8733  1.0358  0.1160
  105OSM   H17F10758   2.365   3.640   8.990 -1.6286  1.0577 -3.2414
  105OSM   H17G10759   2.366   3.489   8.891  1.8982  0.3360 -0.8121
  105OSM   C18F10760   2.558   3.559   8.965 -0.4166  0.1732 -0.1721
  105OSM   H18F10761   2.603   3.464   9.003 -0.1544  0.2019 -0.4058
  105OSM   H18G10762   2.609   3.643   9.016  1.7856 -2.7530  2.8692
  105OSM   H18H10763   2.566   3.560   8.854  0.8144 -0.1643 -0.1053
  106OSM      N10764   2.791   1.797  10.374  0.3323  0.1583 -0.1620
  106OSM    C1510765   2.931   1.748  10.349  0.6199 -0.2189  0.6359
  106OSM   H15A10766   2.978   1.757  10.252  2.9522  4.2294  1.8849
  106OSM   H15B10767   2.937   1.649  10.391  2.5073 -0.2813  0.2945
  106OSM   H15C10768   2.994   1.806  10.415  0.1087  1.3456 -0.1944
  106OSM    C1410769   2.692   1.736  10.283  0.3444 -0.4546 -0.5524
  106OSM   H14A10770   2.594   1.778  10.300  0.7438  1.2496 -2.1716
  106OSM   H14B10771   2.685   1.629  10.301 -0.2798  0.0669  3.2151
  106OSM   H14C10772   2.712   1.756  10.179  2.7230  0.3570  0.0107
  106OSM    C1310773   2.743   1.774  10.517 -0.0701 -0.3852 -0.2462
  106OSM   H13A10774   2.815   1.804  10.591 -1.2192 -1.9838  1.6375
  106OSM   H13B10775   2.722   1.669  10.531  0.9043 -0.6219 -0.5184
  106OSM   H13C10776   2.649   1.826  10.529 -1.1922 -2.5390  0.8676
  106OSM    C1210777   2.787   1.946  10.349  0.0441  0.2668 -0.1375
  106OSM   H12A10778   2.812   1.966  10.245 -1.7601  0.4638 -0.5719
  106OSM   H12B10779   2.858   1.997  10.412  0.8069  0.1813 -0.9072
  106OSM    C1110780   2.658   2.026  10.371 -0.8197 -0.0297  0.4772
  106OSM   H11A10781   2.574   1.979  10.316 -0.3962  0.4711 -0.6206
  106OSM   H11B10782   2.672   2.125  10.324 -0.3482 -0.5473 -0.5041
  106OSM      P10783   2.471   2.074  10.545  0.0652  0.3037 -0.0183
  106OSM    O1310784   2.422   1.946  10.600 -0.9639  0.7213  0.0361
  106OSM    O1410785   2.472   2.188  10.639 -0.1174  0.0333  0.2656
  106OSM    O1110786   2.398   2.110  10.412  0.0875 -0.2244 -0.3034
  106OSM    O1210787   2.624   2.049  10.505 -0.0087  0.3905  0.1907
  106OSM    C1S10788   2.374   2.244  10.365 -0.5760  0.2544 -0.3685
  106OSM    H1S10789   2.465   2.305  10.379  0.5722 -1.2308 -1.1350
  106OSM    H1T10790   2.298   2.291  10.432  0.0523  0.8955 -0.0991
  106OSM     NF10791   2.306   2.385  10.173  0.1402  0.1358 -0.0761
  106OSM    HNF10792   2.226   2.443  10.187  1.2965  1.6515  0.4649
  106OSM    C2S10793   2.302   2.243  10.223 -0.7170 -0.8810  0.4740
  106OSM    H2S10794   2.355   2.176  10.152 -0.2788 -0.4240  0.3685
  106OSM    C3S10795   2.161   2.179  10.231  0.2045  0.6254  0.1570
  106OSM    H3S10796   2.099   2.241  10.299 -0.7437 -0.1743  0.0376
  106OSM     O310797   2.163   2.049  10.291  0.0269 -0.3020 -0.1484
  106OSM    HO310798   2.251   2.044  10.331  0.3270  2.4632 -0.2681
  106OSM    C4S10799   2.108   2.178  10.086  0.4303 -0.5722 -0.2438
  106OSM    H4S10800   2.184   2.176  10.006  0.2310 -1.6189 -0.4125
  106OSM    C5S10801   1.979   2.197  10.054 -0.3803  0.2112  0.6679
  106OSM    H5S10802   1.906   2.205  10.135  1.1625  0.1385  2.1192
  106OSM    C6S10803   1.919   2.193   9.913 -0.2867 -0.5091 -0.3009
  106OSM    H6S10804   1.892   2.292   9.871  3.2622 -0.3025 -2.5159
  106OSM    H6T10805   1.825   2.134   9.907  0.2808 -1.4646  0.0307
  106OSM    C7S10806   2.016   2.129   9.818 -0.5717  0.5724 -0.2098
  106OSM    H7S10807   2.056   2.031   9.852 -2.1518 -0.4575 -1.1705
  106OSM    H7T10808   2.109   2.189   9.806 -1.3043  1.7516 -0.1396
  106OSM    C8S10809   1.965   2.108   9.681 -0.2419  0.4781 -0.1830
  106OSM    H8S10810   1.902   2.196   9.655  0.3733  1.3991  1.3248
  106OSM    H8T10811   1.896   2.022   9.670  1.8088 -1.2900  0.2010
  106OSM    C9S10812   2.077   2.097   9.577 -0.3552 -0.4884  0.2769
  106OSM    H9S10813   2.152   2.023   9.615 -0.1204 -0.3413  0.1015
  106OSM    H9T10814   2.137   2.191   9.572 -1.7507  0.5086  1.5508
  106OSM   C10S10815   2.022   2.046   9.445  0.2693  0.6265 -0.7580
  106OSM   H10S10816   1.930   2.106   9.426 -1.2976 -1.6052 -0.5796
  106OSM   H10T10817   1.976   1.946   9.457  0.7506  0.3795 -0.9426
  106OSM   C11S10818   2.131   2.036   9.345 -0.2821 -0.1692 -0.2050
  106OSM   H11S10819   2.211   1.959   9.357  0.0550 -0.0714 -1.6441
  106OSM   H11T10820   2.178   2.136   9.342 -0.4603 -0.0810 -0.0284
  106OSM   C12S10821   2.070   1.999   9.202  0.3925 -0.4988 -0.5025
  106OSM   H12S10822   1.986   2.071   9.196  1.5897  1.3110  2.4843
  106OSM   H12T10823   2.025   1.898   9.199 -1.3733  0.2375 -0.2804
  106OSM   C13S10824   2.188   2.006   9.099  0.4623  0.2922 -0.0618
  106OSM   H13S10825   2.256   1.921   9.122  0.2822 -0.2977 -1.5579
  106OSM   H13T10826   2.251   2.097   9.101 -0.1005  0.6796  0.6470
  106OSM   C14S10827   2.135   1.984   8.962 -0.3538  1.2579  0.7951
  106OSM   H14S10828   2.071   1.893   8.953  2.8234 -1.0145 -0.5403
  106OSM   H14T10829   2.223   1.971   8.896 -0.5725  1.5465  0.4429
  106OSM   C15S10830   2.069   2.112   8.917  0.3018  0.1538  0.6074
  106OSM   H15S10831   2.123   2.196   8.964  0.5410  0.4917 -0.2600
  106OSM   H15T10832   1.966   2.116   8.958  0.5188  0.9366  1.0812
  106OSM   C16S10833   2.072   2.121   8.764 -0.2200 -0.1990  0.0680
  106OSM   H16S10834   2.174   2.126   8.721 -0.3717  0.9640 -0.1819
  106OSM   H16T10835   2.012   2.210   8.736 -0.7048 -0.4581  0.2747
  106OSM   C17S10836   2.008   2.002   8.684  0.1649 -0.2375  0.0200
  106OSM   H17S10837   1.911   1.971   8.729  0.4545  0.6263  1.2840
  106OSM   H17T10838   2.085   1.921   8.684  2.3566  1.7297 -0.5454
  106OSM   C18S10839   1.984   2.044   8.536 -0.0885 -0.2019 -0.2944
  106OSM   H18S10840   1.932   1.962   8.482  1.4358 -1.2992 -0.1885
  106OSM   H18T10841   2.081   2.066   8.486 -1.3743  0.7614 -2.4718
  106OSM   H18U10842   1.934   2.141   8.517  1.1618  0.3301 -0.9872
  106OSM    C1F10843   2.413   2.442  10.122 -0.3893  0.6105 -0.5410
  106OSM     OF10844   2.513   2.377  10.098  0.2864  0.2819  0.1983
  106OSM    C2F10845   2.402   2.585  10.096  0.1556 -0.3368  0.0424
  106OSM    H2F10846   2.346   2.650  10.166  0.7552  2.6953 -2.1104
  106OSM    H2G10847   2.349   2.605  10.001  0.1388  0.8567  0.2902
  106OSM    C3F10848   2.534   2.666  10.078 -0.1166 -0.0929 -0.1579
  106OSM    H3F10849   2.618   2.604  10.040  0.4118 -2.2120  3.8733
  106OSM    H3G10850   2.569   2.694  10.180 -0.9535  0.2064  0.0480
  106OSM    C4F10851   2.527   2.797  10.000  0.5489  0.2902 -0.4795
  106OSM    H4F10852   2.600   2.872  10.037  0.3651 -0.5342  1.6978
  106OSM    H4G10853   2.432   2.851  10.022 -0.6856 -0.9068 -2.5102
  106OSM    C5F10854   2.548   2.784   9.848  0.2337 -0.3063  0.4235
  106OSM    H5F10855   2.471   2.722   9.797  0.0403 -0.9525  1.4541
  106OSM    H5G10856   2.650   2.741   9.834  0.2978 -0.1325  0.3576
  106OSM    C6F10857   2.547   2.927   9.787  0.0187 -0.2359 -0.7164
  106OSM    H6F10858   2.603   2.996   9.855  0.1717  0.2231 -1.2945
  106OSM    H6G10859   2.439   2.955   9.792  0.7454  2.6992  1.2119
  106OSM    C7F10860   2.602   2.936   9.645 -0.1122  0.5673  0.3448
  106OSM    H7F10861   2.603   2.841   9.588 -0.4875  0.7800 -0.0233
  106OSM    H7G10862   2.711   2.958   9.642  0.4420 -2.0271 -0.6711
  106OSM    C8F10863   2.530   3.040   9.556  0.1207  0.0361 -0.6320
  106OSM    H8F10864   2.515   3.132   9.616 -0.0951  0.0339 -0.6837
  106OSM    H8G10865   2.425   3.005   9.544  0.6070 -1.1454 -1.7295
  106OSM    C9F10866   2.591   3.061   9.423  0.3098 -0.0993 -0.5712
  106OSM    H9F10867   2.699   3.073   9.405  0.2814  1.1271  0.0164
  106OSM   C10F10868   2.529   3.051   9.301  0.9317 -0.7027 -0.1855
  106OSM   H10F10869   2.578   3.071   9.205  0.0299 -2.3499 -1.0412
  106OSM   C11F10870   2.387   3.017   9.271 -0.4167  0.1290  0.4307
  106OSM   H11F10871   2.350   3.094   9.201 -1.7362 -1.4359 -0.6660
  106OSM   H11G10872   2.324   3.029   9.362 -0.8417 -0.0408  0.1606
  106OSM   C12F10873   2.369   2.877   9.205  0.7157 -0.2056 -0.0581
  106OSM   H12F10874   2.447   2.889   9.127  1.8554 -0.2913  1.0364
  106OSM   H12G10875   2.268   2.876   9.160 -0.2016 -0.5990  1.9066
  106OSM   C13F10876   2.396   2.760   9.290 -0.3171  0.4010  0.7590
  106OSM   H13F10877   2.500   2.777   9.322  0.2381 -1.6566  0.2102
  106OSM   H13G10878   2.393   2.666   9.231  0.3679  2.0615 -2.0909
  106OSM   C14F10879   2.292   2.742   9.403 -0.3678  0.6964 -0.2450
  106OSM   H14F10880   2.198   2.744   9.344  0.6264  1.1704 -1.8759
  106OSM   H14G10881   2.311   2.834   9.463 -0.3018 -1.3536  3.1245
  106OSM   C15F10882   2.313   2.619   9.498  0.3251  0.0313  0.7198
  106OSM   H15F10883   2.401   2.657   9.554  0.4382  0.3852  0.3012
  106OSM   H15G10884   2.341   2.527   9.442 -2.4117 -0.8547  0.6595
  106OSM   C16F10885   2.186   2.576   9.584 -0.8316 -0.4254 -0.1215
  106OSM   H16F10886   2.116   2.516   9.523 -2.4279 -0.3464  1.5533
  106OSM   H16G10887   2.133   2.672   9.598  1.5712  1.1885 -1.2705
  106OSM   C17F10888   2.218   2.498   9.715 -0.2057  0.2876 -0.1317
  106OSM   H17F10889   2.315   2.538   9.751 -1.3199  3.6226 -0.5366
  106OSM   H17G10890   2.246   2.396   9.680  0.2180 -0.3481  1.9326
  106OSM   C18F10891   2.117   2.506   9.828  0.4125 -0.3848  1.1990
  106OSM   H18F10892   2.164   2.480   9.925  0.9051 -1.4827  0.6863
  106OSM   H18G10893   2.031   2.438   9.810 -1.6896  2.1803  0.9088
  106OSM   H18H10894   2.071   2.607   9.828 -0.6378 -0.7731 -1.7651
  107OSM      N10895   4.447   6.029  11.121 -0.6679 -0.1591  0.5889
  107OSM    C1510896   4.369   6.035  11.249  0.0271 -0.2053 -0.5647
  107OSM   H15A10897   4.355   5.934  11.284  0.4637 -0.0066  0.1976
  107OSM   H15B10898   4.280   6.086  11.215  0.3585  1.5222  0.9910
  107OSM   H15C10899   4.415   6.093  11.327  1.3357 -1.6090 -0.2511
  107OSM    C1410900   4.600   6.020  11.160  0.1921 -0.4411 -0.1526
  107OSM   H14A10901   4.616   5.940  11.230 -4.4147 -0.3264  1.3779
  107OSM   H14B10902   4.633   6.109  11.210  2.0424  0.2182 -2.3780
  107OSM   H14C10903   4.655   6.010  11.068  0.6657  0.5316  0.0159
  107OSM    C1310904   4.416   5.908  11.039  0.1186 -0.8116 -0.0173
  107OSM   H13A10905   4.311   5.911  11.013 -0.0396  0.0602  0.6840
  107OSM   H13B10906   4.437   5.827  11.107  1.6116  1.0897  1.9318
  107OSM   H13C10907   4.480   5.922  10.953  1.9830  0.6967  1.5342
  107OSM    C1210908   4.427   6.157  11.038  0.4868  0.1332  0.2859
  107OSM   H12A10909   4.468   6.232  11.105 -2.3789  1.0338  1.1898
  107OSM   H12B10910   4.323   6.188  11.032  0.2892 -0.4648  0.5631
  107OSM    C1110911   4.473   6.165  10.897 -0.1786 -0.0071  0.6443
  107OSM   H11A10912   4.572   6.115  10.898  1.5814  3.1382 -0.7837
  107OSM   H11B10913   4.489   6.266  10.855 -2.5293 -0.1453 -0.7587
  107OSM      P10914   4.255   6.154  10.764 -0.1609  0.4719 -0.1518
  107OSM    O1310915   4.172   6.057  10.693  0.0246 -0.1038  0.1336
  107OSM    O1410916   4.198   6.223  10.885  0.3032 -0.3038  0.6045
  107OSM    O1110917   4.307   6.264  10.654  0.0122 -0.0607 -0.4489
  107OSM    O1210918   4.393   6.089  10.813 -0.3577 -1.0320 -0.6472
  107OSM    C1S10919   4.415   6.227  10.574  0.5335 -0.1416  0.6915
  107OSM    H1S10920   4.410   6.119  10.549 -2.7832 -0.0579  0.4288
  107OSM    H1T10921   4.511   6.262  10.617  1.2516 -1.9924  0.6582
  107OSM     NF10922   4.510   6.235  10.347  0.1430  0.3922 -0.4904
  107OSM    HNF10923   4.590   6.294  10.342 -1.2596  2.6890  1.4938
  107OSM    C2S10924   4.407   6.293  10.433  1.0638 -0.4086 -0.4213
  107OSM    H2S10925   4.314   6.291  10.374  1.0060 -0.5256 -0.3246
  107OSM    C3S10926   4.429   6.447  10.451 -0.0362  0.3985  0.8651
  107OSM    H3S10927   4.534   6.451  10.488 -0.5990 -0.1804  2.6580
  107OSM     O310928   4.347   6.504  10.551 -0.5432  0.1109 -0.0129
  107OSM    HO310929   4.305   6.429  10.594 -0.2859 -0.9957 -1.5976
  107OSM    C4S10930   4.414   6.521  10.325  0.6111  0.6145 -0.0981
  107OSM    H4S10931   4.315   6.517  10.277  1.6342 -3.1916 -2.2927
  107OSM    C5S10932   4.504   6.594  10.256 -0.2521  0.0913 -1.0311
  107OSM    H5S10933   4.606   6.603  10.295 -1.0224 -0.5386  1.3197
  107OSM    C6S10934   4.456   6.667  10.127 -0.6848 -0.0566 -0.5040
  107OSM    H6S10935   4.472   6.776  10.141 -0.0563 -0.2749  0.5793
  107OSM    H6T10936   4.349   6.642  10.111 -0.3817  0.4203 -4.0793
  107OSM    C7S10937   4.498   6.615   9.988 -0.5094 -0.1029 -0.9918
  107OSM    H7S10938   4.481   6.506   9.978  0.5641 -0.3663 -0.1166
  107OSM    H7T10939   4.606   6.613   9.964 -0.1431 -0.9693  0.6035
  107OSM    C8S10940   4.437   6.690   9.872  0.3685 -0.5031 -0.5216
  107OSM    H8S10941   4.458   6.798   9.889  1.6826 -0.5842 -1.5011
  107OSM    H8T10942   4.326   6.683   9.864  0.4002 -0.8376 -0.6523
  107OSM    C9S10943   4.482   6.630   9.734  0.0845  0.8241 -0.6079
  107OSM    H9S10944   4.450   6.524   9.728 -2.3132  1.3903  0.8602
  107OSM    H9T10945   4.593   6.631   9.727  0.1209  3.0363 -0.4948
  107OSM   C10S10946   4.423   6.712   9.613  0.3726  0.3249 -0.6114
  107OSM   H10S10947   4.452   6.818   9.629  1.0247  0.0987 -0.2195
  107OSM   H10T10948   4.313   6.699   9.616  0.2774  1.1909 -0.1011
  107OSM   C11S10949   4.486   6.661   9.481 -0.2335 -0.5942  0.2105
  107OSM   H11S10950   4.480   6.551   9.469 -2.8688 -0.2867 -2.5251
  107OSM   H11T10951   4.592   6.693   9.480  0.0603 -1.3098  2.5744
  107OSM   C12S10952   4.421   6.728   9.364 -0.5583 -0.5690 -0.2490
  107OSM   H12S10953   4.415   6.838   9.376  1.4773 -0.3671 -0.7664
  107OSM   H12T10954   4.321   6.681   9.372 -0.9548 -0.2114 -2.3023
  107OSM   C13S10955   4.484   6.714   9.221 -0.1678  0.1671 -0.9843
  107OSM   H13S10956   4.495   6.604   9.211 -2.4184 -0.6285  3.0546
  107OSM   H13T10957   4.591   6.747   9.224  0.1290 -0.8259  0.5327
  107OSM   C14S10958   4.422   6.782   9.106 -0.6989  0.7637 -0.1890
  107OSM   H14S10959   4.395   6.882   9.144 -1.8349  0.2084  0.5199
  107OSM   H14T10960   4.329   6.727   9.081  0.1180  0.2044 -2.2195
  107OSM   C15S10961   4.516   6.797   8.992  0.0180  0.2185  0.2241
  107OSM   H15S10962   4.531   6.698   8.945 -0.2048  1.0310 -1.6357
  107OSM   H15T10963   4.613   6.838   9.029  0.1449  0.8899 -0.8082
  107OSM   C16S10964   4.459   6.893   8.884 -0.8855  0.4140  0.3944
  107OSM   H16S10965   4.526   6.902   8.796 -0.2877 -1.8188  0.5474
  107OSM   H16T10966   4.458   6.997   8.923  0.4173 -0.6152  3.4503
  107OSM   C17S10967   4.325   6.861   8.828  0.1703  0.2094  0.2716
  107OSM   H17S10968   4.246   6.870   8.905  0.6803 -1.9173  1.1217
  107OSM   H17T10969   4.319   6.756   8.792  0.8136 -0.1782  1.2466
  107OSM   C18S10970   4.294   6.957   8.715 -0.0053 -0.8632  0.3218
  107OSM   H18S10971   4.374   6.965   8.639  1.4403  2.1005  1.9644
  107OSM   H18T10972   4.275   7.061   8.750 -0.2271  0.0258 -2.2801
  107OSM   H18U10973   4.197   6.922   8.674  0.4745 -0.1604 -1.5034
  107OSM    C1F10974   4.503   6.121  10.284 -0.1547 -0.1928  0.3526
  107OSM     OF10975   4.404   6.053  10.296 -0.1112  0.6869 -0.2878
  107OSM    C2F10976   4.615   6.086  10.187 -0.7302 -0.1480 -0.0965
  107OSM    H2F10977   4.710   6.125  10.230 -1.7920  1.3126  1.0805
  107OSM    H2G10978   4.593   6.147  10.097 -0.0165  1.0740  0.5300
  107OSM    C3F10979   4.633   5.936  10.154 -0.2240  0.1727  1.0448
  107OSM    H3F10980   4.528   5.903  10.142  0.0102 -0.1965 -0.1525
  107OSM    H3G10981   4.675   5.882  10.241  3.3188 -2.9685 -2.2120
  107OSM    C4F10982   4.724   5.909  10.033  0.0179  0.0933 -0.3954
  107OSM    H4F10983   4.752   5.801  10.039  1.3549  0.3544 -1.3778
  107OSM    H4G10984   4.821   5.963  10.038 -0.1526  0.3409  0.2934
  107OSM    C5F10985   4.662   5.957   9.905  0.3671 -0.3245  0.1230
  107OSM    H5F10986   4.618   6.059   9.909  0.0460 -0.4960  1.3603
  107OSM    H5G10987   4.570   5.899   9.880 -1.7899  2.2156  1.6303
  107OSM    C6F10988   4.766   5.964   9.789  0.4815 -0.1718 -0.0318
  107OSM    H6F10989   4.799   5.859   9.775 -1.6736 -0.7242 -1.3986
  107OSM    H6G10990   4.842   6.027   9.839 -0.8834  0.0892  1.8399
  107OSM    C7F10991   4.723   6.052   9.664 -0.2464 -0.2339  0.5552
  107OSM    H7F10992   4.809   6.104   9.616 -1.3102  0.4076 -0.7386
  107OSM    H7G10993   4.657   6.140   9.680  0.9332  0.9636 -0.9141
  107OSM    C8F10994   4.637   5.965   9.566 -0.1399  0.4547  0.1959
  107OSM    H8F10995   4.555   5.933   9.634 -0.4021 -0.8207 -0.6979
  107OSM    H8G10996   4.699   5.876   9.543  0.6224  0.5113  1.8386
  107OSM    C9F10997   4.592   6.040   9.446  0.1068 -0.5098  0.5800
  107OSM    H9F10998   4.488   6.072   9.462  0.3717  0.5609  0.2153
  107OSM   C10F10999   4.646   6.054   9.325  0.4410 -0.6139  0.5965
  107OSM   H10F11000   4.593   6.104   9.243  1.4409  0.1709  0.4050
  107OSM   C11F11001   4.781   5.991   9.289  0.3253 -0.0408 -0.6655
  107OSM   H11F11002   4.842   5.964   9.378  2.5750 -1.0473 -2.4155
  107OSM   H11G11003   4.847   6.063   9.236  0.5071  0.1593 -0.1731
  107OSM   C12F11004   4.770   5.869   9.197  0.0726 -0.8095 -0.3375
  107OSM   H12F11005   4.740   5.784   9.261 -1.7500  0.4877  0.6352
  107OSM   H12G11006   4.870   5.845   9.156  0.2980 -0.0781 -0.2316
  107OSM   C13F11007   4.669   5.873   9.080 -0.9577 -0.0058  1.3104
  107OSM   H13F11008   4.569   5.873   9.127 -1.6743 -0.4508 -0.1666
  107OSM   H13G11009   4.673   5.774   9.031 -0.7093  0.0349  1.2460
  107OSM   C14F11010   4.670   5.994   8.987 -0.2778 -0.1292  0.1176
  107OSM   H14F11011   4.750   5.988   8.910  0.4081 -0.3925  0.8299
  107OSM   H14G11012   4.689   6.081   9.054  1.0876 -0.7425  0.5734
  107OSM   C15F11013   4.540   6.006   8.909 -0.5196  0.5200  0.7570
  107OSM   H15F11014   4.529   6.111   8.874 -0.3969 -0.1064 -1.2685
  107OSM   H15G11015   4.459   5.978   8.980  0.4660 -1.0038  1.3102
  107OSM   C16F11016   4.528   5.902   8.794 -0.2935 -0.8605 -0.3524
  107OSM   H16F11017   4.514   5.801   8.840 -0.8110 -0.3779  0.5943
  107OSM   H16G11018   4.622   5.886   8.736  1.4448 -0.3242  2.1424
  107OSM   C17F11019   4.406   5.930   8.713  0.3597  0.5791  0.1926
  107OSM   H17F11020   4.434   6.016   8.650 -3.1009  2.2886  0.7572
  107OSM   H17G11021   4.323   5.969   8.776 -0.3281 -2.7496  1.5488
  107OSM   C18F11022   4.363   5.808   8.619  0.5223 -0.2127  0.0706
  107OSM   H18F11023   4.333   5.717   8.675 -0.5797  0.4505  0.5799
  107OSM   H18G11024   4.440   5.786   8.542 -0.5954  1.0759 -1.4895
  107OSM   H18H11025   4.273   5.841   8.563 -0.5506 -0.3693  1.6423
  108OSM      N11026   2.252   0.644  10.851  0.5211 -0.3742 -0.4829
  108OSM    C1511027   2.102   0.662  10.887 -0.8250 -1.0421  0.2901
  108OSM   H15A11028   2.082   0.768  10.889  1.4028 -0.5620 -0.1784
  108OSM   H15B11029   2.099   0.626  10.988  2.8843  0.9965  1.2871
  108OSM   H15C11030   2.037   0.620  10.811 -1.0735  0.1870 -0.2030
  108OSM    C1411031   2.331   0.659  10.983 -0.0895  0.6821 -0.6776
  108OSM   H14A11032   2.433   0.640  10.955  0.2249  1.7700 -0.3136
  108OSM   H14B11033   2.305   0.585  11.058  2.2352 -1.1284 -1.5174
  108OSM   H14C11034   2.325   0.762  11.013 -1.0310  0.9445 -1.7055
  108OSM    C1311035   2.259   0.512  10.794 -0.5541  0.2606  0.2082
  108OSM   H13A11036   2.234   0.444  10.874  0.7783 -0.1016  0.3407
  108OSM   H13B11037   2.355   0.482  10.754 -0.6212  1.1303 -0.6367
  108OSM   H13C11038   2.187   0.486  10.718 -0.9025  1.9617 -0.0686
  108OSM    C1211039   2.295   0.731  10.741  0.2856  0.2695  0.3531
  108OSM   H12A11040   2.386   0.688  10.702  0.8742 -0.7798  2.7074
  108OSM   H12B11041   2.330   0.829  10.773  2.4381 -0.8053  1.5261
  108OSM    C1111042   2.199   0.757  10.615 -0.1477 -0.2422  0.4582
  108OSM   H11A11043   2.161   0.660  10.575  0.4571 -0.8848  1.3738
  108OSM   H11B11044   2.265   0.800  10.537 -0.7383 -0.9892 -0.4868
  108OSM      P11045   2.117   0.995  10.677 -0.0382 -0.2452  0.5502
  108OSM    O1311046   1.994   1.058  10.728  0.1024  0.6301  0.1794
  108OSM    O1411047   2.246   1.019  10.759  0.4875 -0.3972 -0.2051
  108OSM    O1111048   2.152   1.055  10.537  0.3587 -0.0254  0.7982
  108OSM    O1211049   2.093   0.848  10.642  0.2009  0.9913  0.0031
  108OSM    C1S11050   2.059   1.110  10.450  0.9238  0.3654  0.1313
  108OSM    H1S11051   2.003   1.192  10.499  0.8335  0.7481 -0.5950
  108OSM    H1T11052   1.986   1.031  10.422  0.0175  0.7430  1.3491
  108OSM     NF11053   2.024   1.235  10.231  0.0784  0.1158 -0.8422
  108OSM    HNF11054   1.999   1.201  10.141 -1.0995  1.4103 -1.0404
  108OSM    C2S11055   2.121   1.166  10.316 -0.2034  0.5414  0.1887
  108OSM    H2S11056   2.202   1.237  10.345  0.0061  0.5334 -0.3633
  108OSM    C3S11057   2.208   1.062  10.244 -0.2041 -0.3818 -1.4306
  108OSM    H3S11058   2.130   0.994  10.204  0.9884 -3.6544  1.3632
  108OSM     O311059   2.282   0.974  10.324  0.1168 -0.4478  0.2450
  108OSM    HO311060   2.251   0.993  10.413 -0.3441 -0.1884  0.0325
  108OSM    C4S11061   2.290   1.125  10.135  0.2034  0.1424  0.1866
  108OSM    H4S11062   2.349   1.214  10.161 -0.5403  0.5114  0.6473
  108OSM    C5S11063   2.308   1.065  10.017 -0.5745  0.1960 -0.0707
  108OSM    H5S11064   2.249   0.979   9.984 -2.3374  1.5337 -0.5479
  108OSM    C6S11065   2.390   1.127   9.907  0.4068 -0.2069 -0.4859
  108OSM    H6S11066   2.480   1.063   9.902  1.5778  1.1372  1.8191
  108OSM    H6T11067   2.432   1.227   9.933 -2.5604  0.6912  1.2916
  108OSM    C7S11068   2.309   1.123   9.778  0.4986 -0.6080 -0.3159
  108OSM    H7S11069   2.218   1.181   9.807  0.9693 -0.0513  0.0800
  108OSM    H7T11070   2.270   1.026   9.740  0.4732 -0.5414 -0.4568
  108OSM    C8S11071   2.375   1.204   9.655 -0.4515 -0.2564  0.5286
  108OSM    H8S11072   2.473   1.158   9.628 -0.7295 -1.4078  1.4254
  108OSM    H8T11073   2.409   1.305   9.690 -0.3711  0.0046 -0.2949
  108OSM    C9S11074   2.290   1.207   9.527  0.5251  0.0862  0.8440
  108OSM    H9S11075   2.339   1.253   9.439 -2.5867  4.5394  1.0705
  108OSM    H9T11076   2.200   1.271   9.539  2.2292  2.8357 -0.1059
  108OSM   C10S11077   2.230   1.075   9.470 -0.7674 -0.1809 -0.3837
  108OSM   H10S11078   2.163   1.021   9.541  0.4793 -0.3885  0.6704
  108OSM   H10T11079   2.310   1.003   9.445  0.8594  1.6780 -0.7888
  108OSM   C11S11080   2.142   1.112   9.348  0.5925  0.3466  0.1185
  108OSM   H11S11081   2.197   1.176   9.276 -2.6041  2.6912 -0.4302
  108OSM   H11T11082   2.052   1.168   9.380 -0.3986 -1.8427  1.3684
  108OSM   C12S11083   2.087   0.994   9.272  0.9318  0.5829  0.2851
  108OSM   H12S11084   2.018   0.934   9.334  2.2925 -1.1896  0.1577
  108OSM   H12T11085   2.171   0.931   9.234  0.2879 -0.1432  0.0554
  108OSM   C13S11086   1.997   1.036   9.159 -0.0321 -0.0048  0.2374
  108OSM   H13S11087   1.948   1.133   9.182  2.0201  0.6092  2.4698
  108OSM   H13T11088   1.913   0.965   9.143 -2.0195  2.2324  0.1208
  108OSM   C14S11089   2.069   1.059   9.020  0.0467 -0.0447  0.4004
  108OSM   H14S11090   2.139   0.973   9.008 -1.0745 -0.9350  0.0820
  108OSM   H14T11091   2.124   1.152   9.044 -2.0989  1.0454  1.2759
  108OSM   C15S11092   1.972   1.070   8.908 -0.4116 -0.4981  0.6465
  108OSM   H15S11093   2.020   1.138   8.834  0.4677 -1.1708  0.5703
  108OSM   H15T11094   1.877   1.116   8.940 -0.7728  0.7511 -1.8999
  108OSM   C16S11095   1.951   0.923   8.846  0.6758 -0.1216 -0.1013
  108OSM   H16S11096   1.861   0.922   8.780  0.6336 -5.7140 -0.4798
  108OSM   H16T11097   1.929   0.843   8.920 -0.7884 -2.6970 -3.0333
  108OSM   C17S11098   2.071   0.882   8.764 -0.1493 -0.2022 -0.3390
  108OSM   H17S11099   2.141   0.849   8.843 -1.1947 -1.4980  0.0888
  108OSM   H17T11100   2.114   0.978   8.727  0.8981 -0.5651 -0.0866
  108OSM   C18S11101   2.044   0.786   8.653  0.1763  0.7875  0.0279
  108OSM   H18S11102   2.137   0.776   8.592 -0.3881  2.2591 -1.1310
  108OSM   H18T11103   1.969   0.823   8.581  0.6898 -1.8469 -2.0227
  108OSM   H18U11104   2.005   0.691   8.696 -0.7463  0.5096 -1.3616
  108OSM    C1F11105   1.972   1.353  10.276 -0.6904  1.1515  0.1341
  108OSM     OF11106   2.005   1.409  10.381 -0.5139 -0.5867 -0.3431
  108OSM    C2F11107   1.872   1.399  10.184  0.3163  0.0825 -0.5105
  108OSM    H2F11108   1.811   1.313  10.149  0.3616 -0.2095  0.1155
  108OSM    H2G11109   1.930   1.431  10.095  0.5531 -2.5118 -1.3684
  108OSM    C3F11110   1.790   1.521  10.226 -0.3869 -0.1166  0.4328
  108OSM    H3F11111   1.856   1.605  10.257 -3.1814  2.6413 -0.5373
  108OSM    H3G11112   1.720   1.492  10.307 -0.3569  0.9940  0.8628
  108OSM    C4F11113   1.704   1.575  10.114  0.2298  0.0676  0.3539
  108OSM    H4F11114   1.677   1.496  10.041 -0.4475  0.0095  0.6590
  108OSM    H4G11115   1.760   1.657  10.065  0.7634 -0.3539  0.2503
  108OSM    C5F11116   1.583   1.647  10.172  0.2708 -0.1163 -0.2338
  108OSM    H5F11117   1.538   1.583  10.250  1.5017  0.1942  0.7660
  108OSM    H5G11118   1.510   1.643  10.088 -0.3008  1.7602  0.1158
  108OSM    C6F11119   1.592   1.793  10.228 -0.4530  1.2694  0.1798
  108OSM    H6F11120   1.686   1.797  10.287  0.4285 -0.5653 -1.0135
  108OSM    H6G11121   1.504   1.813  10.293 -1.5177 -1.2222 -0.3667
  108OSM    C7F11122   1.627   1.889  10.116 -0.4009 -0.1057 -0.4636
  108OSM    H7F11123   1.594   1.841  10.021 -0.3853 -2.0277  0.4480
  108OSM    H7G11124   1.737   1.894  10.105 -0.5401  3.1210 -1.3801
  108OSM    C8F11125   1.580   2.024  10.142 -0.2778 -0.6356 -0.7771
  108OSM    H8F11126   1.649   2.101  10.103 -2.1217  1.3598 -0.3173
  108OSM    H8G11127   1.584   2.044  10.252 -1.3266 -1.8886 -0.4791
  108OSM    C9F11128   1.438   2.055  10.103  0.0154  0.3457  0.6621
  108OSM    H9F11129   1.379   2.076  10.194 -0.7485  0.3890  0.1624
  108OSM   C10F11130   1.381   2.074   9.978 -0.6853 -0.8446  0.0744
  108OSM   H10F11131   1.278   2.112   9.980 -0.2926  0.3475  2.7032
  108OSM   C11F11132   1.445   2.065   9.837  0.0468  0.4194 -0.6837
  108OSM   H11F11133   1.364   2.048   9.763  2.8767  0.3944 -4.0083
  108OSM   H11G11134   1.522   1.985   9.828 -2.0325 -1.4889 -2.7701
  108OSM   C12F11135   1.507   2.189   9.781 -0.0054  1.5858  0.0349
  108OSM   H12F11136   1.608   2.204   9.827 -0.1342  2.0508  0.1779
  108OSM   H12G11137   1.454   2.283   9.807 -0.7051  1.9675 -2.5698
  108OSM   C13F11138   1.505   2.187   9.626 -0.4327  0.3745 -0.8208
  108OSM   H13F11139   1.556   2.279   9.592  0.2504  0.3743  0.1667
  108OSM   H13G11140   1.401   2.191   9.589 -0.5343  4.2176 -0.4709
  108OSM   C14F11141   1.568   2.063   9.559  0.5101 -0.1930 -0.4525
  108OSM   H14F11142   1.504   1.976   9.584  0.5866  0.2244  1.3694
  108OSM   H14G11143   1.659   2.043   9.620 -1.1623  2.3198  3.2717
  108OSM   C15F11144   1.597   2.088   9.408 -0.3990 -0.0363  0.0058
  108OSM   H15F11145   1.679   2.163   9.404 -1.2773  0.9150 -0.7333
  108OSM   H15G11146   1.506   2.135   9.367 -0.0052  0.3075 -0.4883
  108OSM   C16F11147   1.648   1.969   9.320 -0.1781 -0.5653 -0.6357
  108OSM   H16F11148   1.571   1.890   9.335 -0.3745 -0.1158  0.8265
  108OSM   H16G11149   1.749   1.938   9.353  1.0114  0.6599 -2.9038
  108OSM   C17F11150   1.663   2.009   9.172  0.4840  0.4800 -0.2641
  108OSM   H17F11151   1.737   2.091   9.166 -0.1630  1.0181 -1.3002
  108OSM   H17G11152   1.564   2.046   9.136  0.7127  1.4813  0.1039
  108OSM   C18F11153   1.705   1.885   9.087 -0.2754  0.3713  0.6433
  108OSM   H18F11154   1.614   1.833   9.050 -1.1433  0.0609  3.0219
  108OSM   H18G11155   1.749   1.810   9.156 -0.2271  1.2052  1.5437
  108OSM   H18H11156   1.775   1.916   9.007 -0.3964 -0.5068  0.1889
  109OSM      N11157   5.387   6.322  11.113  0.5384 -0.3208  0.0941
  109OSM    C1511158   5.242   6.285  11.128  0.2745  0.1858 -0.2608
  109OSM   H15A11159   5.223   6.306  11.232  2.1845 -0.4658  0.2756
  109OSM   H15B11160   5.224   6.180  11.107  1.6328 -0.4520  1.4196
  109OSM   H15C11161   5.179   6.355  11.076 -0.0644  2.2113  2.6554
  109OSM    C1411162   5.420   6.462  11.145  0.3816 -0.7009  0.1273
  109OSM   H14A11163   5.396   6.481  11.248  0.9208 -3.7892  0.9206
  109OSM   H14B11164   5.361   6.530  11.085 -0.1244 -1.1347  0.1310
  109OSM   H14C11165   5.526   6.479  11.132  0.4716 -0.3703  1.2303
  109OSM    C1311166   5.464   6.228  11.207 -0.7004  0.4770  0.7095
  109OSM   H13A11167   5.459   6.247  11.313  0.9018  0.4714  0.8127
  109OSM   H13B11168   5.570   6.242  11.191 -0.5397  0.0028  1.3010
  109OSM   H13C11169   5.433   6.125  11.195  0.0755  0.3116  0.0739
  109OSM    C1211170   5.433   6.290  10.969 -0.3816 -0.4373 -0.1041
  109OSM   H12A11171   5.361   6.321  10.895  0.5442  2.2013 -0.0055
  109OSM   H12B11172   5.428   6.185  10.944 -0.9652 -0.1611 -1.2400
  109OSM    C1111173   5.574   6.346  10.921 -0.6916 -0.6529 -0.5741
  109OSM   H11A11174   5.581   6.456  10.911 -2.9723 -0.1876  1.9728
  109OSM   H11B11175   5.573   6.321  10.813 -3.1309  0.1309 -0.7886
  109OSM      P11176   5.837   6.316  10.963 -0.3554  0.0120 -0.3469
  109OSM    O1311177   5.896   6.411  11.057 -0.0731  0.6178 -0.1399
  109OSM    O1411178   5.909   6.185  10.954 -0.4991  0.0258  0.0630
  109OSM    O1111179   5.829   6.371  10.809  0.0211 -0.6519  0.0643
  109OSM    O1211180   5.686   6.289  10.990 -0.3934 -0.0977  0.1620
  109OSM    C1S11181   5.951   6.414  10.746 -0.3789 -0.6197  0.1981
  109OSM    H1S11182   6.039   6.351  10.771  1.1163  0.4668 -2.0487
  109OSM    H1T11183   5.970   6.518  10.778  0.3445 -0.7698  0.2558
  109OSM     NF11184   6.073   6.426  10.526 -0.2447  0.6373  0.3724
  109OSM    HNF11185   6.120   6.508  10.495  0.6571  0.6438  1.6735
  109OSM    C2S11186   5.939   6.430  10.586 -0.5403  0.4570 -0.2752
  109OSM    H2S11187   5.895   6.333  10.556  0.0724  0.0478  0.1336
  109OSM    C3S11188   5.856   6.549  10.551 -0.0841  0.0936  0.4437
  109OSM    H3S11189   5.906   6.644  10.578  0.5761  0.8436 -2.9429
  109OSM     O311190   5.740   6.564  10.629  0.1219 -0.5669  0.4205
  109OSM    HO311191   5.756   6.507  10.705  1.0170  0.4234  0.9962
  109OSM    C4S11192   5.814   6.543  10.412  0.4158  0.1033 -1.0028
  109OSM    H4S11193   5.730   6.475  10.388  1.2177 -2.2275  2.0573
  109OSM    C5S11194   5.869   6.593  10.299 -0.1274 -0.2129  0.4748
  109OSM    H5S11195   5.967   6.644  10.292 -0.6123  0.6791  0.0582
  109OSM    C6S11196   5.815   6.563  10.165  0.3019  0.2857  0.6954
  109OSM    H6S11197   5.884   6.599  10.086 -0.0992  0.1182  0.2651
  109OSM    H6T11198   5.716   6.613  10.162 -0.1907 -0.2874  3.8174
  109OSM    C7S11199   5.804   6.412  10.129  0.1251 -0.2681  0.0725
  109OSM    H7S11200   5.725   6.367  10.193 -2.4253  1.5247 -1.6032
  109OSM    H7T11201   5.898   6.353  10.127  0.5285  0.3567  0.3205
  109OSM    C8S11202   5.744   6.386   9.981 -0.6312 -0.4756  0.5852
  109OSM    H8S11203   5.655   6.451   9.971 -1.1069 -1.2059 -0.0892
  109OSM    H8T11204   5.702   6.283   9.973  2.3420 -1.8091  0.6328
  109OSM    C9S11205   5.834   6.418   9.857  0.4971 -1.1005  0.1265
  109OSM    H9S11206   5.865   6.525   9.856 -0.7029 -0.7031 -1.9880
  109OSM    H9T11207   5.768   6.410   9.768 -0.1144  2.0351  0.1770
  109OSM   C10S11208   5.970   6.350   9.847  0.4342 -0.5037  0.2018
  109OSM   H10S11209   5.957   6.241   9.828 -0.9744 -0.3111 -0.0274
  109OSM   H10T11210   6.027   6.369   9.940 -0.8280 -1.0660  1.1036
  109OSM   C11S11211   6.074   6.406   9.744 -0.3276 -0.2033 -0.4565
  109OSM   H11S11212   6.163   6.341   9.753  0.1209  0.2699 -1.3074
  109OSM   H11T11213   6.106   6.508   9.774 -1.0697  0.5596 -2.1150
  109OSM   C12S11214   6.028   6.394   9.598  0.7646 -0.3790 -0.7152
  109OSM   H12S11215   5.975   6.489   9.577 -0.8751 -1.2738 -0.7577
  109OSM   H12T11216   5.956   6.310   9.592  2.6171 -2.0071 -1.2441
  109OSM   C13S11217   6.135   6.363   9.495  0.6488 -0.4468 -0.0151
  109OSM   H13S11218   6.188   6.270   9.523  0.0768 -0.6693  0.3516
  109OSM   H13T11219   6.208   6.446   9.495  2.0227 -1.5807  2.2427
  109OSM   C14S11220   6.082   6.346   9.347  0.2970 -0.0420 -0.1220
  109OSM   H14S11221   5.992   6.399   9.310  0.9919  1.0247 -0.3394
  109OSM   H14T11222   6.064   6.238   9.328 -1.9445  0.0798  0.9680
  109OSM   C15S11223   6.191   6.389   9.248 -0.3043  0.2484  0.4370
  109OSM   H15S11224   6.285   6.346   9.286  1.2184 -0.0192 -3.2469
  109OSM   H15T11225   6.193   6.500   9.250 -2.7186  0.4345 -1.6414
  109OSM   C16S11226   6.172   6.358   9.098  0.1079  0.6876 -0.2561
  109OSM   H16S11227   6.083   6.416   9.064 -0.8654 -1.0936 -0.9168
  109OSM   H16T11228   6.148   6.249   9.099  1.1521  0.4315  1.3384
  109OSM   C17S11229   6.290   6.397   9.015 -0.2999 -0.1708  0.5155
  109OSM   H17S11230   6.382   6.348   9.055 -0.2907 -0.6984 -0.1229
  109OSM   H17T11231   6.315   6.505   9.021 -1.1633  0.0916 -0.3645
  109OSM   C18S11232   6.277   6.353   8.865 -0.2629  0.5294  0.0799
  109OSM   H18S11233   6.365   6.381   8.803 -0.8357  0.2445 -0.8821
  109OSM   H18T11234   6.189   6.409   8.826 -1.0471 -0.2837  0.6332
  109OSM   H18U11235   6.269   6.244   8.843  0.0384  0.3859  0.6663
  109OSM    C1F11236   6.140   6.306  10.518 -0.6664 -1.0538 -0.3758
  109OSM     OF11237   6.097   6.211  10.568  0.3385  0.3736 -0.0714
  109OSM    C2F11238   6.277   6.304  10.449  0.5741 -0.0319 -0.0258
  109OSM    H2F11239   6.284   6.199  10.414 -3.9662 -1.4282  2.5264
  109OSM    H2G11240   6.360   6.306  10.523  0.6839  0.3458 -0.1559
  109OSM    C3F11241   6.303   6.415  10.338 -0.1075 -0.7475  0.3736
  109OSM    H3F11242   6.411   6.404  10.312  0.3534  2.5070  0.4759
  109OSM    H3G11243   6.287   6.513  10.387 -0.8801 -1.7686  2.2669
  109OSM    C4F11244   6.207   6.413  10.217  0.4493  0.8284  0.0155
  109OSM    H4F11245   6.106   6.417  10.263  0.8555  0.1791  1.0069
  109OSM    H4G11246   6.224   6.319  10.162  2.4675  2.2003 -1.8817
  109OSM    C5F11247   6.199   6.545  10.131  0.0388  0.3631 -0.0770
  109OSM    H5F11248   6.152   6.627  10.190 -1.3200 -0.7869  0.4791
  109OSM    H5G11249   6.136   6.514  10.044 -0.3874  1.0597 -0.0266
  109OSM    C6F11250   6.331   6.602  10.072  0.6190  0.1361  0.5458
  109OSM    H6F11251   6.383   6.654  10.155  1.5686 -0.2049  0.1775
  109OSM    H6G11252   6.313   6.675   9.990  1.0337 -0.0312  0.3037
  109OSM    C7F11253   6.434   6.502  10.021  0.1437 -0.2579  0.8487
  109OSM    H7F11254   6.462   6.433  10.103 -0.3536  0.0902  1.3194
  109OSM    H7G11255   6.527   6.555   9.992  0.0953 -1.1135 -1.0583
  109OSM    C8F11256   6.370   6.431   9.898 -0.3957  0.1360  0.6163
  109OSM    H8F11257   6.350   6.504   9.816 -0.8577 -0.3309  0.3074
  109OSM    H8G11258   6.273   6.383   9.923 -0.9857  0.3717 -1.0606
  109OSM    C9F11259   6.454   6.319   9.854 -0.8193  0.4102 -0.0240
  109OSM    H9F11260   6.444   6.230   9.917 -1.5534  0.9463  0.6321
  109OSM   C10F11261   6.536   6.318   9.746 -0.5391 -0.2792  0.3630
  109OSM   H10F11262   6.576   6.219   9.718  0.9942  1.0059 -2.4308
  109OSM   C11F11263   6.566   6.428   9.641  0.4654  0.0751 -0.4266
  109OSM   H11F11264   6.661   6.481   9.663 -0.1529  1.5582 -1.1775
  109OSM   H11G11265   6.481   6.500   9.644  0.2095 -0.2409  1.3531
  109OSM   C12F11266   6.567   6.369   9.501  0.5014  0.5870  0.2619
  109OSM   H12F11267   6.499   6.443   9.453  0.9786  1.9623  1.6194
  109OSM   H12G11268   6.518   6.270   9.488  0.5587  0.8514 -2.5427
  109OSM   C13F11269   6.703   6.356   9.435 -0.2940  0.3143 -0.3593
  109OSM   H13F11270   6.749   6.262   9.473 -2.8689  0.0489  2.4803
  109OSM   H13G11271   6.762   6.439   9.481 -2.2193  1.3603  0.3240
  109OSM   C14F11272   6.687   6.356   9.285  0.4439 -0.1431 -0.5825
  109OSM   H14F11273   6.630   6.448   9.261  0.5858  0.0848 -0.0510
  109OSM   H14G11274   6.620   6.270   9.263 -0.7804 -0.0312  2.2895
  109OSM   C15F11275   6.805   6.343   9.191 -0.0227  0.3331  0.9579
  109OSM   H15F11276   6.838   6.237   9.192  1.7204  0.8408  1.7653
  109OSM   H15G11277   6.891   6.396   9.236  0.6214 -1.1452  1.5263
  109OSM   C16F11278   6.759   6.383   9.047  0.0367  0.5399 -0.4879
  109OSM   H16F11279   6.710   6.482   9.034 -1.2099 -0.4097 -4.3253
  109OSM   H16G11280   6.681   6.311   9.014 -0.4091 -0.9274  3.2381
  109OSM   C17F11281   6.871   6.393   8.947 -0.3820 -0.6774 -0.1873
  109OSM   H17F11282   6.941   6.307   8.943  2.1659  1.2245  0.6359
  109OSM   H17G11283   6.939   6.477   8.974 -0.2791 -0.9975  0.5977
  109OSM   C18F11284   6.826   6.422   8.802 -0.0808 -0.1833  0.1873
  109OSM   H18F11285   6.772   6.519   8.794  1.4151  0.7551  1.0718
  109OSM   H18G11286   6.751   6.347   8.770  0.6075 -0.1189 -1.6989
  109OSM   H18H11287   6.911   6.419   8.731  1.5021  0.5371  1.9536
  110OSM      N11288   2.009   3.784  11.118 -0.1245 -0.2695  0.1260
  110OSM    C1511289   1.918   3.890  11.171 -0.2578 -0.1959 -0.5214
  110OSM   H15A11290   1.942   3.934  11.267  0.2050  0.5399 -0.9688
  110OSM   H15B11291   1.815   3.862  11.182 -1.0611  3.0955  1.9268
  110OSM   H15C11292   1.918   3.967  11.096  0.2911  1.2367  0.8839
  110OSM    C1411293   2.019   3.675  11.217  0.1475 -0.9724 -0.2330
  110OSM   H14A11294   2.040   3.715  11.316  0.1199 -0.1040 -0.5641
  110OSM   H14B11295   2.099   3.610  11.187  1.1936  0.5658 -0.9215
  110OSM   H14C11296   1.932   3.611  11.219  0.1434 -0.9855 -0.8235
  110OSM    C1311297   1.969   3.725  10.986 -0.2634  0.0510 -0.0192
  110OSM   H13A11298   1.978   3.792  10.902 -1.3853  0.2928  0.0341
  110OSM   H13B11299   1.867   3.688  10.982 -0.5834  0.9826 -0.9720
  110OSM   H13C11300   2.031   3.643  10.954 -2.2999 -0.9722 -1.6020
  110OSM    C1211301   2.148   3.850  11.105 -0.1254  0.1681  1.0257
  110OSM   H12A11302   2.220   3.775  11.075  0.1787 -0.4343  3.0907
  110OSM   H12B11303   2.175   3.890  11.202  0.9093 -0.0446  0.8420
  110OSM    C1111304   2.154   3.959  10.989 -0.1724  0.9654 -0.5847
  110OSM   H11A11305   2.153   3.908  10.890  2.2980  0.6274 -0.4782
  110OSM   H11B11306   2.260   3.989  10.993  0.6734 -1.8555  0.7647
  110OSM      P11307   2.092   4.215  11.013 -0.1442  0.1671  0.0752
  110OSM    O1311308   1.963   4.288  11.035 -0.1049 -0.0512  0.3224
  110OSM    O1411309   2.206   4.245  11.106  0.0232  0.4285  0.2825
  110OSM    O1111310   2.140   4.236  10.866 -0.5777  0.4984 -0.3661
  110OSM    O1211311   2.060   4.063  11.013 -0.3388 -0.1295  0.5674
  110OSM    C1S11312   2.048   4.265  10.762 -0.4894 -0.8375  0.9564
  110OSM    H1S11313   1.985   4.355  10.779  0.5078  0.3461 -1.2279
  110OSM    H1T11314   1.976   4.181  10.747  0.1035 -1.2914  0.6163
  110OSM     NF11315   2.042   4.344  10.518  0.3923 -0.4979 -0.3551
  110OSM    HNF11316   1.997   4.284  10.453 -2.5560  0.6792  0.4777
  110OSM    C2S11317   2.126   4.285  10.627  0.2937  0.5566 -0.3799
  110OSM    H2S11318   2.207   4.358  10.648 -1.7991  2.7574  0.5149
  110OSM    C3S11319   2.188   4.148  10.590 -0.0740  0.0510 -0.1945
  110OSM    H3S11320   2.112   4.071  10.565 -0.1719  0.2160 -0.4024
  110OSM     O311321   2.274   4.091  10.692 -0.2283  0.4748  0.1487
  110OSM    HO311322   2.273   4.151  10.767 -2.0139  1.0609 -0.2965
  110OSM    C4S11323   2.273   4.152  10.466  1.3053 -1.0773 -0.8339
  110OSM    H4S11324   2.204   4.124  10.385 -2.3831  0.4652  1.5057
  110OSM    C5S11325   2.402   4.182  10.452  0.0483  0.7400 -0.2861
  110OSM    H5S11326   2.449   4.208  10.548  0.2284  1.8817 -0.6697
  110OSM    C6S11327   2.499   4.188  10.337  0.8156  0.0408  0.0679
  110OSM    H6S11328   2.557   4.095  10.318  0.3073 -0.0603 -1.0838
  110OSM    H6T11329   2.570   4.272  10.354  1.9716 -0.7305 -0.8072
  110OSM    C7S11330   2.428   4.219  10.206  0.3176  0.0076  0.5764
  110OSM    H7S11331   2.388   4.323  10.217  0.2363 -0.2740  4.1574
  110OSM    H7T11332   2.338   4.160  10.179  0.6391  0.2910 -1.2517
  110OSM    C8S11333   2.532   4.209  10.095 -0.1029 -0.0802  0.0283
  110OSM    H8S11334   2.595   4.119  10.082  2.7147  1.8770 -0.8376
  110OSM    H8T11335   2.606   4.291  10.109  0.2200 -0.1896 -0.9717
  110OSM    C9S11336   2.458   4.243   9.966 -0.1963 -0.4447  0.1070
  110OSM    H9S11337   2.419   4.345   9.991  0.6993  0.2017 -1.0189
  110OSM    H9T11338   2.377   4.172   9.939 -0.8834  1.0118 -1.9550
  110OSM   C10S11339   2.552   4.245   9.842  0.1522  0.3360 -0.2337
  110OSM   H10S11340   2.596   4.144   9.828 -2.3824 -0.6316 -1.8629
  110OSM   H10T11341   2.634   4.309   9.879 -0.9971  1.0649  1.1573
  110OSM   C11S11342   2.482   4.290   9.717  0.8248  0.1745  0.1923
  110OSM   H11S11343   2.460   4.398   9.728  1.5656  0.2826  0.6593
  110OSM   H11T11344   2.389   4.230   9.711 -2.5663  4.6826  1.8628
  110OSM   C12S11345   2.560   4.303   9.583  0.3896  0.6148 -0.3259
  110OSM   H12S11346   2.590   4.200   9.554 -0.1139  0.0623  1.0781
  110OSM   H12T11347   2.645   4.374   9.596  1.4263 -0.6663  0.1458
  110OSM   C13S11348   2.472   4.366   9.472  0.1938  0.2830 -0.6566
  110OSM   H13S11349   2.437   4.461   9.519  0.0368  0.0737 -0.3523
  110OSM   H13T11350   2.379   4.306   9.462 -0.1101  0.6665 -0.1648
  110OSM   C14S11351   2.536   4.394   9.340  0.5636  0.4413 -0.0075
  110OSM   H14S11352   2.588   4.299   9.315 -1.0327 -0.6520  0.6834
  110OSM   H14T11353   2.619   4.465   9.358  0.9528  0.2667 -1.0226
  110OSM   C15S11354   2.444   4.442   9.220  0.6507  0.6497 -0.7197
  110OSM   H15S11355   2.381   4.355   9.190  2.3932 -0.2282 -2.0062
  110OSM   H15T11356   2.512   4.462   9.135 -1.5520 -1.2894 -3.0934
  110OSM   C16S11357   2.361   4.562   9.258 -0.4943  0.0422 -0.3474
  110OSM   H16S11358   2.418   4.614   9.338  0.4471  0.5955 -1.3575
  110OSM   H16T11359   2.280   4.521   9.321  0.0474  0.0412  0.3606
  110OSM   C17S11360   2.307   4.644   9.135 -0.3471 -1.3664 -0.2548
  110OSM   H17S11361   2.226   4.587   9.087 -0.8823 -1.8761  1.1997
  110OSM   H17T11362   2.390   4.648   9.061  0.9311 -2.1944  1.0685
  110OSM   C18S11363   2.262   4.793   9.171  0.0775 -0.6860  0.0261
  110OSM   H18S11364   2.151   4.794   9.160  0.0580  1.1801  0.0819
  110OSM   H18T11365   2.298   4.868   9.098 -3.9179 -0.5370 -2.0586
  110OSM   H18U11366   2.302   4.812   9.273  0.9992 -0.0293 -0.4418
  110OSM    C1F11367   2.018   4.476  10.521 -0.0081 -0.2244  0.1318
  110OSM     OF11368   2.105   4.553  10.561  0.4157 -0.8711 -0.4498
  110OSM    C2F11369   1.895   4.511  10.452  0.7146 -0.1390  0.4537
  110OSM    H2F11370   1.810   4.479  10.515 -1.5795  1.4902 -1.6468
  110OSM    H2G11371   1.896   4.450  10.359  2.4584  1.9796 -1.0540
  110OSM    C3F11372   1.890   4.656  10.407 -0.4923 -0.4276 -0.6238
  110OSM    H3F11373   1.926   4.717  10.493 -0.0464 -0.0053 -1.1097
  110OSM    H3G11374   1.787   4.698  10.406 -0.3465 -0.0270  0.1267
  110OSM    C4F11375   1.971   4.685  10.283 -1.6899  0.2992  0.0562
  110OSM    H4F11376   2.073   4.645  10.303 -2.7435 -2.6151  0.1316
  110OSM    H4G11377   1.987   4.793  10.261 -1.4770  0.2092 -0.2515
  110OSM    C5F11378   1.931   4.633  10.142 -0.0521  0.5360 -0.5698
  110OSM    H5F11379   1.847   4.701  10.119 -0.2153  0.9118  1.0131
  110OSM    H5G11380   1.902   4.526  10.154  1.1726  0.4114  1.9897
  110OSM    C6F11381   2.040   4.643  10.039 -0.6101  0.8039  0.5321
  110OSM    H6F11382   2.116   4.568  10.071 -0.5133  1.8799  3.0565
  110OSM    H6G11383   2.097   4.738  10.039  0.4101  0.2054 -0.0518
  110OSM    C7F11384   1.979   4.618   9.893 -0.9804  0.4006 -0.7578
  110OSM    H7F11385   2.059   4.675   9.842  0.0419  2.2114  2.5805
  110OSM    H7G11386   1.888   4.678   9.869 -4.5535 -4.0641  0.1209
  110OSM    C8F11387   1.979   4.474   9.854  0.1330  0.1033 -0.0360
  110OSM    H8F11388   1.877   4.450   9.815 -0.2772  2.5179 -0.6227
  110OSM    H8G11389   2.000   4.425   9.951 -0.9509 -0.2694  0.0282
  110OSM    C9F11390   2.088   4.435   9.751 -0.0559  0.5804  1.2381
  110OSM    H9F11391   2.191   4.427   9.789 -0.8258 -1.3194  3.1203
  110OSM   C10F11392   2.071   4.431   9.620  0.3477  0.3402 -0.3506
  110OSM   H10F11393   2.147   4.389   9.554  0.1895  1.3414 -1.2006
  110OSM   C11F11394   1.942   4.471   9.546 -0.0934 -0.1588  0.5735
  110OSM   H11F11395   1.936   4.582   9.557  2.0550  0.1383 -0.5873
  110OSM   H11G11396   1.858   4.418   9.596 -1.2255  1.1745  0.1511
  110OSM   C12F11397   1.947   4.444   9.399 -0.3141 -0.1785  0.0890
  110OSM   H12F11398   1.980   4.341   9.371 -0.7286 -0.2465 -0.1503
  110OSM   H12G11399   2.034   4.501   9.358 -1.5312  1.0632 -0.8368
  110OSM   C13F11400   1.818   4.478   9.317 -0.6796  0.2093  0.1778
  110OSM   H13F11401   1.812   4.589   9.319 -0.0057  0.2363  1.9605
  110OSM   H13G11402   1.730   4.433   9.366 -0.0712 -2.5138 -1.0362
  110OSM   C14F11403   1.820   4.434   9.167  1.3024  0.3222  0.0741
  110OSM   H14F11404   1.719   4.425   9.122  0.2959  0.1188  2.2475
  110OSM   H14G11405   1.863   4.332   9.159 -1.1360 -0.7630 -0.2283
  110OSM   C15F11406   1.913   4.524   9.081 -0.3889  0.0423 -0.6269
  110OSM   H15F11407   2.019   4.524   9.115 -0.2819  1.2735 -0.9310
  110OSM   H15G11408   1.891   4.630   9.105  2.4125  0.7162 -0.7565
  110OSM   C16F11409   1.915   4.489   8.943  0.1505 -0.1906 -0.2376
  110OSM   H16F11410   1.963   4.571   8.886  0.7653  0.4759  1.1739
  110OSM   H16G11411   1.813   4.490   8.900  0.3203 -0.4097 -0.6450
  110OSM   C17F11412   1.964   4.352   8.912 -0.5523  0.1045 -0.0690
  110OSM   H17F11413   1.904   4.273   8.963 -1.2983 -0.0979 -1.2310
  110OSM   H17G11414   2.067   4.336   8.948 -0.5878  0.3851  0.1561
  110OSM   C18F11415   1.964   4.320   8.758 -0.4471 -0.2217 -0.5859
  110OSM   H18F11416   1.862   4.335   8.715 -0.3031 -2.6778 -1.9837
  110OSM   H18G11417   2.014   4.221   8.748 -0.2797 -0.0348 -1.7448
  110OSM   H18H11418   2.034   4.393   8.712  3.4908 -1.5002  2.8141
  111OSM      N11419   2.826   3.219  11.098  0.8390 -0.1135  0.4988
  111OSM    C1511420   2.774   3.099  11.167 -1.1828 -0.0596  0.2742
  111OSM   H15A11421   2.770   3.113  11.274  0.6895 -3.9523  1.0179
  111OSM   H15B11422   2.839   3.016  11.145 -2.3238 -0.7542 -0.5910
  111OSM   H15C11423   2.671   3.084  11.138 -1.5697  0.7779  1.1489
  111OSM    C1411424   2.746   3.347  11.140 -0.2596  0.1318 -0.4052
  111OSM   H14A11425   2.766   3.371  11.243  1.9765 -0.5745 -0.6216
  111OSM   H14B11426   2.641   3.331  11.121 -0.1324  0.7898 -1.7534
  111OSM   H14C11427   2.772   3.433  11.080  2.5400  2.2389  3.3685
  111OSM    C1311428   2.970   3.232  11.137 -0.9709 -0.6545  0.0897
  111OSM   H13A11429   2.987   3.251  11.241  0.1920 -1.3409  0.0394
  111OSM   H13B11430   3.025   3.307  11.082 -1.2085 -1.9948 -2.1198
  111OSM   H13C11431   3.016   3.141  11.101 -1.5255 -0.2409 -1.8184
  111OSM    C1211432   2.818   3.194  10.947  0.2068  0.1115 -0.1123
  111OSM   H12A11433   2.720   3.171  10.908  1.1802 -1.0777 -1.9730
  111OSM   H12B11434   2.865   3.100  10.923  0.0146  0.2779 -1.1962
  111OSM    C1111435   2.882   3.297  10.854  0.1160 -0.2048 -0.2182
  111OSM   H11A11436   2.866   3.258  10.751 -1.2370  0.7450 -0.3881
  111OSM   H11B11437   2.993   3.288  10.862  0.3507  0.2244 -2.3241
  111OSM      P11438   2.730   3.482  10.775  0.3982 -0.0702 -0.0213
  111OSM    O1311439   2.606   3.398  10.770 -0.2785  0.0220  0.4139
  111OSM    O1411440   2.709   3.618  10.819  0.9610  0.4072  0.5863
  111OSM    O1111441   2.807   3.466  10.639 -0.2097  0.2649  0.0073
  111OSM    O1211442   2.839   3.430  10.878  0.5219 -0.8473  0.1610
  111OSM    C1S11443   2.937   3.510  10.622  0.3758 -0.0528  0.1497
  111OSM    H1S11444   3.009   3.430  10.647  1.6604  1.0108 -0.0440
  111OSM    H1T11445   2.957   3.610  10.664  0.9326  0.5338 -1.4531
  111OSM     NF11446   3.077   3.625  10.454  0.3659 -0.2809  0.0815
  111OSM    HNF11447   3.047   3.718  10.436 -0.3102 -0.7920 -1.6283
  111OSM    C2S11448   2.959   3.533  10.469 -0.7124 -0.0809  0.6227
  111OSM    H2S11449   2.983   3.436  10.420 -1.2318 -0.5560  1.2765
  111OSM    C3S11450   2.833   3.594  10.397 -0.2769 -0.3064  0.3813
  111OSM    H3S11451   2.792   3.687  10.441 -1.5154 -0.2150 -0.9326
  111OSM     O311452   2.728   3.499  10.393 -0.2874 -0.5998  0.2250
  111OSM    HO311453   2.758   3.437  10.460 -0.1098  2.2810  3.0343
  111OSM    C4S11454   2.867   3.626  10.259  0.1444 -0.1013  0.0097
  111OSM    H4S11455   2.914   3.545  10.201 -0.5631  0.6029 -1.6243
  111OSM    C5S11456   2.843   3.737  10.186 -0.1693  0.2613 -0.6903
  111OSM    H5S11457   2.808   3.821  10.249 -0.4083 -1.6530  1.8826
  111OSM    C6S11458   2.892   3.748  10.043  0.1601 -0.0068  0.1423
  111OSM    H6S11459   2.943   3.657  10.004 -1.6082 -1.2322  0.5469
  111OSM    H6T11460   2.964   3.832  10.031 -1.3303  0.9889 -2.9184
  111OSM    C7S11461   2.782   3.768   9.944  0.1583 -0.1918  0.3310
  111OSM    H7S11462   2.709   3.845   9.980  1.1593  0.0721  1.8701
  111OSM    H7T11463   2.730   3.671   9.933  0.5924 -0.4089  0.1979
  111OSM    C8S11464   2.836   3.812   9.805  0.4301 -0.2921  0.0855
  111OSM    H8S11465   2.894   3.721   9.776  1.3567 -0.1398  1.3880
  111OSM    H8T11466   2.912   3.893   9.809 -0.7653  0.8230  3.2266
  111OSM    C9S11467   2.716   3.837   9.706 -0.7204 -0.3455  0.3577
  111OSM    H9S11468   2.658   3.931   9.719  0.8738  0.8776 -1.0285
  111OSM    H9T11469   2.646   3.754   9.729 -1.1060 -0.4138 -0.9714
  111OSM   C10S11470   2.759   3.820   9.556  0.4891 -0.0330  0.3126
  111OSM   H10S11471   2.788   3.713   9.544 -0.6854 -0.4671  1.1473
  111OSM   H10T11472   2.846   3.884   9.531 -0.0611  0.7660  0.4134
  111OSM   C11S11473   2.646   3.861   9.467  0.3203  1.4251  0.3495
  111OSM   H11S11474   2.645   3.973   9.467  3.5314  1.5220  0.8072
  111OSM   H11T11475   2.548   3.830   9.510 -0.3537  1.6242 -0.9761
  111OSM   C12S11476   2.670   3.822   9.323 -0.5093 -0.3368  0.2899
  111OSM   H12S11477   2.596   3.741   9.305 -1.8670  0.6515  1.2234
  111OSM   H12T11478   2.777   3.802   9.303 -0.5406  0.1433 -0.4360
  111OSM   C13S11479   2.634   3.926   9.207 -0.5366  0.1000 -0.2675
  111OSM   H13S11480   2.556   3.994   9.246  1.2260  0.3009  3.2389
  111OSM   H13T11481   2.590   3.875   9.119  0.6764 -0.2167 -0.7222
  111OSM   C14S11482   2.749   4.011   9.144  0.4090 -0.1234 -0.6678
  111OSM   H14S11483   2.781   4.074   9.229 -2.2109  3.7865 -2.3005
  111OSM   H14T11484   2.698   4.083   9.076 -0.6777  0.3443  0.6043
  111OSM   C15S11485   2.864   3.932   9.088 -0.0085 -1.1159  0.0247
  111OSM   H15S11486   2.861   3.824   9.112 -2.5123 -0.7967  1.4979
  111OSM   H15T11487   2.957   3.961   9.142 -0.4500  1.8010 -0.6191
  111OSM   C16S11488   2.885   3.965   8.942  0.3232 -0.2632 -0.7964
  111OSM   H16S11489   2.951   3.891   8.893 -0.1114 -0.4250 -1.1306
  111OSM   H16T11490   2.923   4.067   8.920  1.5311 -0.5471 -0.1261
  111OSM   C17S11491   2.765   3.943   8.853 -0.0985  0.5248  0.6501
  111OSM   H17S11492   2.673   3.988   8.896 -0.2101  0.4318  0.5114
  111OSM   H17T11493   2.744   3.834   8.852 -0.7539  0.6459  0.3642
  111OSM   C18S11494   2.772   4.006   8.713  0.2245  0.1360  0.0160
  111OSM   H18S11495   2.693   3.987   8.637  0.2116  1.4989 -0.3353
  111OSM   H18T11496   2.870   3.976   8.670  0.8162  2.7909 -0.6961
  111OSM   H18U11497   2.776   4.116   8.727  1.9593  0.1997 -0.6561
  111OSM    C1F11498   3.197   3.594  10.484  0.0459  0.7985  0.2926
  111OSM     OF11499   3.223   3.479  10.522  0.3225 -0.1423 -0.2047
  111OSM    C2F11500   3.307   3.695  10.480 -0.2536  0.2809  0.0020
  111OSM    H2F11501   3.404   3.648  10.455 -0.1972  0.7883 -0.7467
  111OSM    H2G11502   3.327   3.732  10.583 -0.3887  0.6075 -0.0906
  111OSM    C3F11503   3.297   3.813  10.384  0.2301  0.7272  0.8596
  111OSM    H3F11504   3.378   3.884  10.410  1.4286 -0.8920  1.7572
  111OSM    H3G11505   3.206   3.871  10.412  0.9480  1.4113  1.8635
  111OSM    C4F11506   3.278   3.766  10.237  0.4161 -0.4451  0.8624
  111OSM    H4F11507   3.179   3.718  10.223  0.5084 -0.8316  1.5035
  111OSM    H4G11508   3.358   3.690  10.227  0.6314 -0.0748 -0.5229
  111OSM    C5F11509   3.298   3.886  10.133 -0.2106  0.0385  0.1999
  111OSM    H5F11510   3.389   3.947  10.153 -0.5012  0.2849  0.8055
  111OSM    H5G11511   3.217   3.962  10.140 -0.1120  0.1895 -0.3041
  111OSM    C6F11512   3.319   3.833   9.993  0.0745  1.2590 -0.1029
  111OSM    H6F11513   3.235   3.771   9.956  1.1954 -0.1642 -0.3357
  111OSM    H6G11514   3.410   3.770   9.998 -1.7332 -1.6215 -1.1869
  111OSM    C7F11515   3.338   3.939   9.883  0.1126  0.2401 -0.2157
  111OSM    H7F11516   3.431   3.992   9.914  0.9273 -1.6060  0.6220
  111OSM    H7G11517   3.244   3.997   9.873 -0.3535 -0.8804 -3.6878
  111OSM    C8F11518   3.362   3.865   9.749  0.3916 -0.1412  0.3240
  111OSM    H8F11519   3.427   3.775   9.746  0.5092 -0.0276 -0.7644
  111OSM    H8G11520   3.394   3.940   9.675 -1.7151 -1.2188 -1.8232
  111OSM    C9F11521   3.231   3.808   9.696  0.0510 -0.3179  0.1889
  111OSM    H9F11522   3.207   3.713   9.746  2.4288 -1.1455 -0.1182
  111OSM   C10F11523   3.154   3.858   9.601  0.6264  0.5092  0.8244
  111OSM   H10F11524   3.069   3.796   9.570  1.7485 -2.3221  3.0043
  111OSM   C11F11525   3.161   3.988   9.525 -0.0264 -0.2457  0.2934
  111OSM   H11F11526   3.216   4.066   9.582  0.1221 -0.1328 -0.0037
  111OSM   H11G11527   3.061   4.036   9.533  1.2373  2.5872  0.1757
  111OSM   C12F11528   3.193   3.948   9.379 -0.5474  0.2853  0.2514
  111OSM   H12F11529   3.188   4.039   9.316  0.8013 -0.3918 -0.8873
  111OSM   H12G11530   3.119   3.867   9.360 -0.0491 -0.1417  0.0880
  111OSM   C13F11531   3.330   3.880   9.359 -0.2665  0.3736 -0.0898
  111OSM   H13F11532   3.345   3.787   9.419 -1.3703 -0.9289 -1.7507
  111OSM   H13G11533   3.399   3.946   9.415 -1.4962 -0.6088  2.7607
  111OSM   C14F11534   3.381   3.858   9.216 -0.5406  0.7084 -0.4887
  111OSM   H14F11535   3.464   3.787   9.233 -2.6943 -2.6397 -2.8855
  111OSM   H14G11536   3.410   3.954   9.166 -2.4607  1.9808  0.7298
  111OSM   C15F11537   3.278   3.788   9.123  0.0765  0.0193  0.1149
  111OSM   H15F11538   3.204   3.869   9.107  2.9506  2.9408  0.5417
  111OSM   H15G11539   3.241   3.697   9.176  0.4640  0.2498  0.7978
  111OSM   C16F11540   3.332   3.736   8.986 -0.2403  0.1719 -0.1009
  111OSM   H16F11541   3.381   3.819   8.931  1.3010 -0.2330  0.6300
  111OSM   H16G11542   3.249   3.701   8.921  0.0440  0.6648 -0.7396
  111OSM   C17F11543   3.436   3.626   8.989 -0.5226 -0.1318  0.2138
  111OSM   H17F11544   3.399   3.533   9.038 -1.9638  0.9149  1.1879
  111OSM   H17G11545   3.512   3.655   9.065 -0.4404  2.7279 -0.8422
  111OSM   C18F11546   3.509   3.610   8.852 -0.0637 -0.5414 -0.3104
  111OSM   H18F11547   3.556   3.509   8.847 -0.6731 -0.8085 -0.6870
  111OSM   H18G11548   3.586   3.689   8.835  1.0804 -1.8324 -1.4027
  111OSM   H18H11549   3.440   3.619   8.766 -1.0882 -0.6694  0.4793
  112OSM      N11550   3.047   0.734  10.878 -0.3805  1.3599  0.8327
  112OSM    C1511551   3.125   0.648  10.974 -0.8886  0.0656 -0.1104
  112OSM   H15A11552   3.049   0.600  11.035 -2.3740 -0.1136 -2.0113
  112OSM   H15B11553   3.204   0.697  11.028  0.6664 -0.4908 -1.7688
  112OSM   H15C11554   3.176   0.570  10.919  0.0221  0.0124  0.7832
  112OSM    C1411555   2.965   0.829  10.956  0.7846 -0.4997 -0.4843
  112OSM   H14A11556   3.036   0.888  11.012 -1.7848  1.5122  0.8675
  112OSM   H14B11557   2.894   0.786  11.025  0.9551 -0.0231 -0.0025
  112OSM   H14C11558   2.917   0.905  10.897 -0.8062 -1.1384 -0.0581
  112OSM    C1311559   3.148   0.821  10.799  0.0919 -0.1099  0.4017
  112OSM   H13A11560   3.193   0.750  10.731 -1.5927 -1.0172  0.1776
  112OSM   H13B11561   3.229   0.869  10.851  0.0637 -0.3804  0.6973
  112OSM   H13C11562   3.098   0.896  10.739 -2.5176  0.6569  3.2745
  112OSM    C1211563   2.964   0.642  10.783  0.0796 -0.2956 -0.4660
  112OSM   H12A11564   2.885   0.596  10.840  0.9486  0.7869  1.7484
  112OSM   H12B11565   3.023   0.561  10.741  2.8057  0.7305  1.1022
  112OSM    C1111566   2.884   0.708  10.668 -0.1574  0.8152 -0.8364
  112OSM   H11A11567   2.834   0.634  10.601  1.5465  0.3378 -1.6526
  112OSM   H11B11568   2.936   0.766  10.589 -0.6193 -0.6989 -2.3243
  112OSM      P11569   2.654   0.737  10.785  0.9982  0.1500  0.0798
  112OSM    O1311570   2.684   0.634  10.885 -0.3767  0.0463  0.2545
  112OSM    O1411571   2.567   0.855  10.813 -0.2257  0.0063 -0.1438
  112OSM    O1111572   2.589   0.669  10.659 -0.5728 -0.1255  0.0387
  112OSM    O1211573   2.787   0.790  10.736  0.0241  0.1797  0.6367
  112OSM    C1S11574   2.580   0.731  10.534  0.0854 -0.2981  0.2575
  112OSM    H1S11575   2.663   0.800  10.510  0.7053 -1.1069  0.0144
  112OSM    H1T11576   2.486   0.790  10.532  0.6135  0.5598 -0.9237
  112OSM     NF11577   2.534   0.695  10.292 -0.1030 -0.1632 -0.7818
  112OSM    HNF11578   2.439   0.694  10.262  0.1854 -0.3925 -1.7089
  112OSM    C2S11579   2.564   0.622  10.413 -0.9279 -1.0154  0.7125
  112OSM    H2S11580   2.667   0.582  10.410 -0.0737  0.9613  1.9130
  112OSM    C3S11581   2.463   0.514  10.447 -0.2911 -0.1868 -0.5060
  112OSM    H3S11582   2.369   0.562  10.481  1.4731  1.8569  1.9208
  112OSM     O311583   2.484   0.445  10.571  0.5844  0.0392  0.1184
  112OSM    HO311584   2.540   0.503  10.623 -0.1798  1.6305 -0.7603
  112OSM    C4S11585   2.445   0.420  10.340 -0.6705  0.5125 -0.1463
  112OSM    H4S11586   2.373   0.443  10.260  1.2763  1.1884 -1.8051
  112OSM    C5S11587   2.507   0.297  10.325  0.4294 -0.5487 -0.2177
  112OSM    H5S11588   2.592   0.270  10.390  0.4152 -1.1849 -0.4568
  112OSM    C6S11589   2.495   0.195  10.208  0.2040 -0.6660 -0.9568
  112OSM    H6S11590   2.389   0.163  10.207 -0.7192  2.1805 -2.3253
  112OSM    H6T11591   2.565   0.111  10.229  2.2491  0.7662 -1.7404
  112OSM    C7S11592   2.530   0.246  10.065 -0.4170  0.1540  0.4368
  112OSM    H7S11593   2.638   0.272  10.066 -0.3944  0.2142  2.9853
  112OSM    H7T11594   2.491   0.347  10.040  1.4164  0.9703  0.7398
  112OSM    C8S11595   2.503   0.138   9.953 -0.1825 -0.1731  0.7913
  112OSM    H8S11596   2.394   0.141   9.935 -0.1673 -0.9087  0.5654
  112OSM    H8T11597   2.534   0.038   9.989  0.2466  0.3793  2.0581
  112OSM    C9S11598   2.561   0.166   9.809 -0.9136  0.2795 -0.2698
  112OSM    H9S11599   2.507   0.106   9.732 -1.5555 -1.7355  1.6453
  112OSM    H9T11600   2.668   0.135   9.807 -1.3198 -1.1796 -0.5611
  112OSM   C10S11601   2.557   0.310   9.777 -0.3028  0.1953  0.8619
  112OSM   H10S11602   2.636   0.354   9.841  1.9513  1.0909 -2.3008
  112OSM   H10T11603   2.458   0.353   9.804 -0.4549 -0.2981  1.1150
  112OSM   C11S11604   2.588   0.332   9.629 -0.1727 -0.2926  0.3716
  112OSM   H11S11605   2.554   0.436   9.609  0.6240 -0.0273  0.3698
  112OSM   H11T11606   2.512   0.267   9.580 -0.1796 -2.5451  3.1144
  112OSM   C12S11607   2.733   0.311   9.583  0.2123 -0.7158  0.0236
  112OSM   H12S11608   2.742   0.203   9.606  0.1189 -0.5691  0.7640
  112OSM   H12T11609   2.806   0.364   9.649 -1.1152 -1.0354  1.8163
  112OSM   C13S11610   2.746   0.358   9.436  0.3323  0.1131  0.3574
  112OSM   H13S11611   2.853   0.340   9.411  0.1100 -1.6948  0.5520
  112OSM   H13T11612   2.732   0.468   9.440  0.3414  0.0814  2.8949
  112OSM   C14S11613   2.660   0.281   9.333  0.2677  0.7348  0.0484
  112OSM   H14S11614   2.553   0.294   9.361  0.4741  0.0036  1.2209
  112OSM   H14T11615   2.669   0.170   9.336 -0.7198  0.6354 -0.2335
  112OSM   C15S11616   2.678   0.339   9.189  0.0642  0.0831  0.0402
  112OSM   H15S11617   2.769   0.288   9.152 -1.0358 -2.8953  1.1046
  112OSM   H15T11618   2.696   0.448   9.205  1.2368 -0.2982  1.6109
  112OSM   C16S11619   2.560   0.331   9.087  0.2331 -0.1653 -0.2388
  112OSM   H16S11620   2.472   0.391   9.120 -1.4379 -2.6734  0.1077
  112OSM   H16T11621   2.533   0.224   9.092 -1.7358  0.3248  0.2370
  112OSM   C17S11622   2.586   0.385   8.947  0.1476 -0.3274  0.4714
  112OSM   H17S11623   2.673   0.345   8.891 -0.8903  0.0233 -1.4863
  112OSM   H17T11624   2.635   0.484   8.964 -0.7401  0.1300  0.4087
  112OSM   C18S11625   2.464   0.399   8.858 -0.6636  0.2641 -0.2999
  112OSM   H18S11626   2.379   0.444   8.913  0.9535 -0.5229  3.1404
  112OSM   H18T11627   2.431   0.298   8.827 -2.2176  0.6361  0.0743
  112OSM   H18U11628   2.488   0.459   8.767  1.0465  1.9433  1.1691
  112OSM    C1F11629   2.627   0.767  10.225  0.2482  1.3465 -0.5145
  112OSM     OF11630   2.738   0.794  10.271  0.1400 -0.0659 -0.5539
  112OSM    C2F11631   2.582   0.823  10.094  0.4701 -0.9541 -0.1327
  112OSM    H2F11632   2.654   0.901  10.061 -1.6371  1.2473  0.1653
  112OSM    H2G11633   2.490   0.883  10.111  0.9366  0.3198 -1.8320
  112OSM    C3F11634   2.570   0.714   9.985 -1.0969  0.2780 -0.4558
  112OSM    H3F11635   2.521   0.625  10.030  0.5094  1.3436  3.8929
  112OSM    H3G11636   2.670   0.697   9.941 -0.2215 -0.7763  1.8258
  112OSM    C4F11637   2.486   0.764   9.861  0.1775 -0.1173 -0.1727
  112OSM    H4F11638   2.536   0.845   9.804 -0.9177 -0.5690 -1.8615
  112OSM    H4G11639   2.396   0.809   9.906 -1.2416 -0.2903 -2.6454
  112OSM    C5F11640   2.442   0.664   9.758  0.0976  0.3717 -0.1051
  112OSM    H5F11641   2.390   0.583   9.814  0.5200  1.5911  2.1654
  112OSM    H5G11642   2.524   0.624   9.694 -1.1308  0.7867 -2.0222
  112OSM    C6F11643   2.346   0.716   9.658  0.3301  0.1797  0.3449
  112OSM    H6F11644   2.368   0.822   9.632  2.4777 -0.2232  0.3759
  112OSM    H6G11645   2.246   0.723   9.707 -0.3907 -2.1889 -0.6084
  112OSM    C7F11646   2.331   0.631   9.538 -0.5558 -0.5470  0.4809
  112OSM    H7F11647   2.311   0.526   9.566  1.0655 -0.8699  0.5287
  112OSM    H7G11648   2.421   0.640   9.473 -1.3299 -1.2900 -0.7192
  112OSM    C8F11649   2.209   0.695   9.451 -0.8168  0.0093 -0.0602
  112OSM    H8F11650   2.244   0.785   9.396  1.7718 -0.6749  0.3274
  112OSM    H8G11651   2.123   0.717   9.517 -0.6394 -0.3662  0.3039
  112OSM    C9F11652   2.176   0.585   9.350 -0.1541  0.0468 -0.1429
  112OSM    H9F11653   2.240   0.591   9.261  1.4405 -0.5620  0.9389
  112OSM   C10F11654   2.073   0.502   9.353 -0.0488 -0.3660 -0.4849
  112OSM   H10F11655   2.064   0.422   9.278 -1.0759  0.7112 -1.5737
  112OSM   C11F11656   1.971   0.487   9.460  0.3837  0.2665 -0.5948
  112OSM   H11F11657   1.887   0.419   9.436 -0.2372  0.8166 -0.0401
  112OSM   H11G11658   1.927   0.582   9.498  0.1409  0.3172 -1.0014
  112OSM   C12F11659   2.029   0.432   9.591  0.0692  0.0543  0.0595
  112OSM   H12F11660   2.114   0.489   9.635  0.7649 -2.2787  1.9998
  112OSM   H12G11661   2.067   0.331   9.564  0.3352  0.2097 -0.1472
  112OSM   C13F11662   1.917   0.407   9.688 -0.1501  0.4060  0.1432
  112OSM   H13F11663   1.875   0.306   9.673  1.4929 -0.5500  1.5521
  112OSM   H13G11664   1.836   0.480   9.666 -0.1965  1.3332  2.9347
  112OSM   C14F11665   1.963   0.429   9.838 -0.2361  1.2277 -0.8134
  112OSM   H14F11666   1.879   0.429   9.910 -0.6068 -1.4622 -1.1529
  112OSM   H14G11667   2.035   0.511   9.860  2.0618 -0.7561 -0.4888
  112OSM   C15F11668   2.049   0.310   9.884  0.1274 -0.4461  0.0858
  112OSM   H15F11669   2.143   0.299   9.825  0.4903 -1.6085  0.8423
  112OSM   H15G11670   1.987   0.221   9.862  0.6617 -0.6189 -0.7699
  112OSM   C16F11671   2.073   0.316  10.029 -0.1199  0.8897  0.1951
  112OSM   H16F11672   1.983   0.340  10.090 -0.2003  1.6797 -0.2284
  112OSM   H16G11673   2.149   0.391  10.057  0.8665 -0.6086  1.7436
  112OSM   C17F11674   2.119   0.180  10.070  0.0335  0.3869 -0.6264
  112OSM   H17F11675   2.230   0.178  10.066  0.0450  0.2039 -0.2669
  112OSM   H17G11676   2.086   0.097  10.004  1.1593 -0.2489 -0.4173
  112OSM   C18F11677   2.066   0.158  10.213  0.1701  0.0055  0.1138
  112OSM   H18F11678   2.091   0.058  10.255  0.0551 -0.3818 -0.7096
  112OSM   H18G11679   1.955   0.170  10.215  0.0764 -0.8097  2.2589
  112OSM   H18H11680   2.104   0.232  10.286  1.0820 -0.3906  0.0447
  113OSM      N11681   2.060   6.046  10.646 -0.1807 -0.1732 -0.9269
  113OSM    C1511682   1.925   6.050  10.705  0.7557  0.4881 -0.5459
  113OSM   H15A11683   1.882   5.951  10.710 -0.0404  0.8050 -0.9221
  113OSM   H15B11684   1.852   6.107  10.650 -0.6990  2.0297  2.6933
  113OSM   H15C11685   1.934   6.084  10.807  0.2570 -1.7058  0.2876
  113OSM    C1411686   2.145   5.984  10.758 -0.5773 -0.4320  0.3361
  113OSM   H14A11687   2.109   5.886  10.789  1.6850 -0.4136  3.4678
  113OSM   H14B11688   2.147   6.045  10.847  0.2403 -2.2048  1.5940
  113OSM   H14C11689   2.247   5.971  10.726 -0.3241 -2.9843  1.8303
  113OSM    C1311690   2.069   5.964  10.530 -0.4430  0.3466  0.0880
  113OSM   H13A11691   1.993   5.995  10.460  0.6277 -0.4822 -1.4999
  113OSM   H13B11692   2.035   5.865  10.558  2.9830 -0.5013  1.7597
  113OSM   H13C11693   2.164   5.949  10.480 -1.5801 -0.5563 -1.9343
  113OSM    C1211694   2.104   6.189  10.622  0.2812  0.4645  0.6089
  113OSM   H12A11695   2.194   6.196  10.564  1.9152 -2.4043  2.5657
  113OSM   H12B11696   2.147   6.230  10.712 -0.5636 -0.0023  1.2411
  113OSM    C1111697   2.004   6.293  10.567 -0.5953 -0.2855  0.2516
  113OSM   H11A11698   1.922   6.303  10.642  0.0545 -2.4354  1.3227
  113OSM   H11B11699   1.958   6.256  10.473  0.2400  0.1536 -0.3488
  113OSM      P11700   2.101   6.508  10.665 -0.4602  0.0028 -0.0345
  113OSM    O1311701   2.023   6.633  10.653 -0.7842 -0.0182  0.2561
  113OSM    O1411702   2.084   6.430  10.794 -0.2458 -0.1386  0.8379
  113OSM    O1111703   2.260   6.545  10.648  0.0970  0.3987 -0.4235
  113OSM    O1211704   2.081   6.416  10.541 -0.5521  0.6480 -0.4357
  113OSM    C1S11705   2.352   6.450  10.592  0.1864  0.2019 -0.1911
  113OSM    H1S11706   2.321   6.347  10.619 -0.7790  0.9024  1.5202
  113OSM    H1T11707   2.450   6.475  10.637 -0.3901 -0.1805  1.3474
  113OSM     NF11708   2.453   6.361  10.381 -0.2478 -0.1269 -0.1621
  113OSM    HNF11709   2.539   6.409  10.361 -0.5352  0.1588 -0.7518
  113OSM    C2S11710   2.355   6.454  10.436 -0.2429  0.6480 -0.4898
  113OSM    H2S11711   2.260   6.410  10.399 -0.1664 -0.7360  0.8645
  113OSM    C3S11712   2.375   6.601  10.383 -0.4966  0.7102  0.5525
  113OSM    H3S11713   2.470   6.639  10.427  0.3135 -1.1218  0.5114
  113OSM     O311714   2.279   6.691  10.433  0.3947 -0.1113  0.3853
  113OSM    HO311715   2.231   6.639  10.498 -1.2409 -2.4939 -2.4834
  113OSM    C4S11716   2.388   6.601  10.232 -0.3213  0.3925  0.9429
  113OSM    H4S11717   2.487   6.570  10.195 -0.0316  0.3325  1.7641
  113OSM    C5S11718   2.299   6.635  10.135 -0.1760 -0.2301  0.2990
  113OSM    H5S11719   2.203   6.680  10.162 -0.2634  0.0581 -0.4590
  113OSM    C6S11720   2.320   6.627   9.985  0.6399 -0.2388 -0.0919
  113OSM    H6S11721   2.423   6.591   9.964  1.5384  2.2682 -0.3312
  113OSM    H6T11722   2.310   6.727   9.938  0.7536 -0.2469 -0.1345
  113OSM    C7S11723   2.220   6.534   9.907 -0.9669 -0.2216  0.0599
  113OSM    H7S11724   2.115   6.565   9.928 -0.5364 -0.1064  2.3902
  113OSM    H7T11725   2.239   6.435   9.955 -2.3836 -0.0423  1.0700
  113OSM    C8S11726   2.256   6.522   9.759 -0.3762 -0.0469  0.2920
  113OSM    H8S11727   2.347   6.460   9.743 -0.5224 -0.4911  1.1246
  113OSM    H8T11728   2.263   6.624   9.717  1.1020  0.6363  2.0670
  113OSM    C9S11729   2.150   6.442   9.680 -0.2315 -0.4704  0.0992
  113OSM    H9S11730   2.056   6.496   9.654 -1.4449 -2.6835 -0.3653
  113OSM    H9T11731   2.117   6.349   9.729  0.4110 -2.2532 -2.6313
  113OSM   C10S11732   2.208   6.397   9.543 -0.2720  0.1539 -0.0791
  113OSM   H10S11733   2.292   6.330   9.572 -0.4052  0.0319  0.0266
  113OSM   H10T11734   2.252   6.475   9.478 -2.3044  0.7112 -0.8459
  113OSM   C11S11735   2.111   6.326   9.450 -0.0311 -0.7653 -0.2351
  113OSM   H11S11736   2.012   6.375   9.463 -0.5642 -2.0879  0.9392
  113OSM   H11T11737   2.096   6.226   9.496  1.4469 -0.9264 -0.0433
  113OSM   C12S11738   2.143   6.320   9.307  0.7265  0.5548  0.4382
  113OSM   H12S11739   2.224   6.246   9.290  0.0532 -0.6314  2.1762
  113OSM   H12T11740   2.158   6.422   9.266 -0.1617 -0.0349 -1.4734
  113OSM   C13S11741   2.022   6.277   9.220  0.1934  0.1813  0.4869
  113OSM   H13S11742   1.928   6.328   9.251 -1.1181 -0.9347 -1.4197
  113OSM   H13T11743   1.995   6.172   9.239 -0.2598 -0.1221 -1.5786
  113OSM   C14S11744   2.040   6.286   9.070  0.6391  0.3867  0.5887
  113OSM   H14S11745   2.137   6.245   9.036  0.7159  0.8397  0.2676
  113OSM   H14T11746   2.024   6.392   9.042 -0.8861  0.4365  1.5221
  113OSM   C15S11747   1.919   6.209   9.008 -0.1408  0.0190 -0.2081
  113OSM   H15S11748   1.828   6.243   9.061 -0.7842  1.3173 -2.0557
  113OSM   H15T11749   1.930   6.102   9.036  1.4263  0.4060  0.7425
  113OSM   C16S11750   1.900   6.224   8.855 -0.0986  0.7051  0.2342
  113OSM   H16S11751   1.893   6.330   8.822  3.0098  1.3110  1.1303
  113OSM   H16T11752   1.818   6.161   8.815  0.0353 -0.3694  1.5938
  113OSM   C17S11753   2.027   6.161   8.783  0.3905  0.0137  0.3450
  113OSM   H17S11754   2.029   6.054   8.814 -1.7367 -0.1057  0.2586
  113OSM   H17T11755   2.121   6.207   8.819  0.7099  0.3203 -0.8587
  113OSM   C18S11756   2.010   6.163   8.631  0.2789  0.6299 -0.1139
  113OSM   H18S11757   1.972   6.262   8.598 -0.1424  0.1942 -0.9638
  113OSM   H18T11758   1.937   6.086   8.599 -0.3400  0.9521  0.4928
  113OSM   H18U11759   2.105   6.137   8.579  0.6017 -0.8956  1.1532
  113OSM    C1F11760   2.445   6.227  10.379  0.4169 -0.3146  0.1246
  113OSM     OF11761   2.361   6.167  10.444 -0.1023 -0.1620  0.2494
  113OSM    C2F11762   2.548   6.145  10.310  0.0842  0.3530  0.4730
  113OSM    H2F11763   2.600   6.076  10.381 -2.4324 -1.4916  0.6512
  113OSM    H2G11764   2.618   6.218  10.264 -2.8239  2.4664 -0.9083
  113OSM    C3F11765   2.489   6.055  10.196 -0.7994 -0.3016 -0.5126
  113OSM    H3F11766   2.393   6.018  10.238 -1.0886  1.3647  0.3967
  113OSM    H3G11767   2.562   5.973  10.180  0.0730  0.4351 -0.4143
  113OSM    C4F11768   2.474   6.126  10.057 -0.2993 -0.1912  0.4388
  113OSM    H4F11769   2.396   6.205  10.068 -0.2357 -0.4295  3.4564
  113OSM    H4G11770   2.442   6.052   9.981  2.0785 -0.0446 -0.8116
  113OSM    C5F11771   2.600   6.179  10.001 -0.3542  0.2806 -0.0101
  113OSM    H5F11772   2.674   6.099   9.981  1.6441  1.5819  1.6661
  113OSM    H5G11773   2.652   6.246  10.074  0.3762  0.3148 -0.5498
  113OSM    C6F11774   2.592   6.273   9.880  0.1743 -0.0351 -0.3756
  113OSM    H6F11775   2.577   6.382   9.895 -0.8384  0.0772 -1.9518
  113OSM    H6G11776   2.499   6.233   9.835 -0.4555  0.8289  0.1275
  113OSM    C7F11777   2.710   6.240   9.780 -0.3647 -0.4106  0.7564
  113OSM    H7F11778   2.723   6.134   9.747  1.5464 -0.0120  0.1022
  113OSM    H7G11779   2.801   6.265   9.839 -0.1647  0.2809  0.1691
  113OSM    C8F11780   2.704   6.330   9.657 -0.4940 -0.5256  0.3774
  113OSM    H8F11781   2.802   6.345   9.606 -1.7526  1.7366 -1.5838
  113OSM    H8G11782   2.650   6.422   9.691 -1.7972 -1.1938  0.1588
  113OSM    C9F11783   2.618   6.253   9.560 -0.4384 -0.8696  0.3840
  113OSM    H9F11784   2.543   6.186   9.605  0.5060 -1.4189  1.2086
  113OSM   C10F11785   2.623   6.267   9.427 -0.1401  0.5865 -0.3818
  113OSM   H10F11786   2.557   6.206   9.365 -0.1384  2.2738 -2.1314
  113OSM   C11F11787   2.716   6.356   9.356  0.0630 -0.4958  0.6068
  113OSM   H11F11788   2.779   6.295   9.288 -0.6702  1.1032 -1.6379
  113OSM   H11G11789   2.797   6.394   9.421  1.1169 -2.0435  0.2495
  113OSM   C12F11790   2.660   6.476   9.281  0.3941 -0.1782  0.1356
  113OSM   H12F11791   2.589   6.429   9.209  0.5632 -1.7719  0.9640
  113OSM   H12G11792   2.727   6.544   9.224 -0.0396  2.3131  2.3567
  113OSM   C13F11793   2.585   6.565   9.385  0.2809  0.5480  0.3632
  113OSM   H13F11794   2.661   6.614   9.449  0.7815 -1.8650  1.7301
  113OSM   H13G11795   2.509   6.514   9.448  0.1324 -2.7455 -2.2117
  113OSM   C14F11796   2.493   6.678   9.320 -0.3221 -0.3197 -0.1279
  113OSM   H14F11797   2.418   6.641   9.247  0.5773 -2.0931 -0.2265
  113OSM   H14G11798   2.564   6.750   9.274  0.1731 -0.4239  0.4644
  113OSM   C15F11799   2.413   6.736   9.432  0.0500  0.4648  0.1583
  113OSM   H15F11800   2.478   6.757   9.520  1.0124 -0.8843 -0.2025
  113OSM   H15G11801   2.342   6.661   9.471 -0.3345  0.2923 -0.8526
  113OSM   C16F11802   2.345   6.864   9.396  0.8972  0.1481  0.6078
  113OSM   H16F11803   2.316   6.855   9.289 -1.9031  3.2232  0.9371
  113OSM   H16G11804   2.418   6.948   9.401  0.9680  0.1453 -0.1843
  113OSM   C17F11805   2.224   6.887   9.488  0.3216 -0.4679  0.4450
  113OSM   H17F11806   2.154   6.800   9.483  1.1384 -1.1244  0.3198
  113OSM   H17G11807   2.164   6.972   9.448 -1.8627 -2.8186 -1.5920
  113OSM   C18F11808   2.244   6.921   9.634 -0.3738  0.7914 -0.3506
  113OSM   H18F11809   2.308   7.011   9.647 -0.3737  1.1840 -2.6569
  113OSM   H18G11810   2.304   6.843   9.686 -0.7076 -0.1396 -1.3249
  113OSM   H18H11811   2.153   6.910   9.697 -0.1212  0.0392 -0.1129
  114OSM      N11812   3.614   6.512  11.422 -0.1699  0.1993  0.6734
  114OSM    C1511813   3.492   6.434  11.419 -0.2593  0.5782 -0.6434
  114OSM   H15A11814   3.413   6.479  11.477 -0.5865 -0.9902  0.1795
  114OSM   H15B11815   3.515   6.347  11.479  1.6931  2.8305  2.1286
  114OSM   H15C11816   3.457   6.404  11.321  1.2085  0.3114 -1.1034
  114OSM    C1411817   3.566   6.654  11.394  0.7382  0.4917  0.0969
  114OSM   H14A11818   3.649   6.720  11.372  0.5851  0.7285  0.2278
  114OSM   H14B11819   3.528   6.693  11.487  0.4105  1.6243 -0.4828
  114OSM   H14C11820   3.506   6.657  11.304 -0.1161  2.0139  0.6824
  114OSM    C1311821   3.685   6.513  11.561  0.0442  0.0060 -0.4128
  114OSM   H13A11822   3.726   6.414  11.570 -2.4301 -1.1649 -1.2451
  114OSM   H13B11823   3.599   6.514  11.627  0.8592  1.2919  0.6782
  114OSM   H13C11824   3.758   6.591  11.578 -1.2159  1.0158  0.6985
  114OSM    C1211825   3.700   6.463  11.310 -0.1661  0.0711 -0.0388
  114OSM   H12A11826   3.758   6.545  11.269 -2.6537  0.9670 -2.0345
  114OSM   H12B11827   3.633   6.445  11.227 -1.1926 -0.5233  0.8912
  114OSM    C1111828   3.771   6.333  11.325 -1.0852 -0.2170 -0.2130
  114OSM   H11A11829   3.857   6.349  11.394 -1.9497 -1.8832  1.3213
  114OSM   H11B11830   3.833   6.304  11.237  1.7294  1.4811  1.0608
  114OSM      P11831   3.648   6.107  11.279  0.7204  0.2073 -0.0628
  114OSM    O1311832   3.758   6.008  11.264  0.0154 -0.1963 -0.1115
  114OSM    O1411833   3.512   6.070  11.333  0.5834 -0.3655 -0.1376
  114OSM    O1111834   3.631   6.188  11.148 -0.3963 -0.7374 -0.0430
  114OSM    O1211835   3.695   6.221  11.378 -0.3969  0.2758 -0.6675
  114OSM    C1S11836   3.598   6.127  11.022  0.0536  0.4224 -0.4088
  114OSM    H1S11837   3.491   6.098  11.016  0.4552 -1.2074 -0.1497
  114OSM    H1T11838   3.646   6.030  10.993 -2.5514 -1.0350 -0.1778
  114OSM     NF11839   3.559   6.153  10.778  0.8334 -0.3532  0.8514
  114OSM    HNF11840   3.614   6.096  10.717 -2.8100 -2.4399 -0.8287
  114OSM    C2S11841   3.622   6.218  10.894 -0.0221 -0.3408  1.3409
  114OSM    H2S11842   3.567   6.315  10.905 -0.2025 -0.2448 -0.2484
  114OSM    C3S11843   3.773   6.239  10.879 -0.3337 -0.5440  0.1405
  114OSM    H3S11844   3.816   6.137  10.866 -3.2987 -1.6304 -2.0478
  114OSM     O311845   3.841   6.291  10.992  0.1625  0.3447 -0.1234
  114OSM    HO311846   3.781   6.273  11.066  0.0166 -1.0773 -0.5470
  114OSM    C4S11847   3.805   6.321  10.753 -0.5880  0.1420 -0.2722
  114OSM    H4S11848   3.760   6.421  10.750  1.2885  1.0146 -1.0364
  114OSM    C5S11849   3.891   6.288  10.654 -0.1890 -0.7312  0.1943
  114OSM    H5S11850   3.957   6.202  10.674  0.4709 -0.2001  0.3149
  114OSM    C6S11851   3.932   6.375  10.542  0.4913  0.4321  0.3164
  114OSM    H6S11852   4.017   6.430  10.588 -0.1606  2.6322 -0.9626
  114OSM    H6T11853   3.859   6.454  10.515 -0.6994 -0.2831  1.3621
  114OSM    C7S11854   3.981   6.283  10.426 -0.2815  0.0557 -0.1604
  114OSM    H7S11855   3.902   6.214  10.390 -1.2012  1.6631 -1.3558
  114OSM    H7T11856   4.057   6.211  10.462  0.1469  0.2293 -0.7078
  114OSM    C8S11857   4.036   6.362  10.311 -0.2142  0.5200  0.0840
  114OSM    H8S11858   4.117   6.434  10.336 -0.6384  1.5715 -1.4160
  114OSM    H8T11859   3.950   6.412  10.262  0.3906  1.8691  0.3239
  114OSM    C9S11860   4.101   6.261  10.210 -0.0185  0.0188  0.4859
  114OSM    H9S11861   4.028   6.187  10.171 -0.5012  0.5471  0.3587
  114OSM    H9T11862   4.176   6.197  10.261 -0.7548 -0.2027  1.3305
  114OSM   C10S11863   4.182   6.331  10.099 -0.0720 -0.4988  0.1945
  114OSM   H10S11864   4.281   6.377  10.124 -1.0405  2.2070 -0.5802
  114OSM   H10T11865   4.127   6.416  10.053 -0.3321 -1.1507 -0.7283
  114OSM   C11S11866   4.198   6.224   9.981  0.3561 -0.7123  0.0279
  114OSM   H11S11867   4.104   6.186   9.935 -0.5097  0.0011  1.1665
  114OSM   H11T11868   4.258   6.139  10.020  1.1295  0.4115  1.3745
  114OSM   C12S11869   4.277   6.293   9.867 -0.3682 -0.6081 -0.5068
  114OSM   H12S11870   4.378   6.314   9.907 -0.1943  2.2935 -2.1510
  114OSM   H12T11871   4.226   6.391   9.852 -1.0046 -0.8904 -0.2148
  114OSM   C13S11872   4.260   6.226   9.733 -0.1492  0.0056  0.6450
  114OSM   H13S11873   4.150   6.218   9.720  0.2032 -2.3542 -1.5878
  114OSM   H13T11874   4.289   6.119   9.737 -2.6004 -0.7704 -0.4747
  114OSM   C14S11875   4.329   6.290   9.608 -0.3693  0.3193 -1.1963
  114OSM   H14S11876   4.440   6.279   9.609 -0.2628  0.5853 -3.5034
  114OSM   H14T11877   4.296   6.395   9.591  1.7964  0.9774 -1.7348
  114OSM   C15S11878   4.277   6.230   9.475  0.2925 -0.0930 -0.5100
  114OSM   H15S11879   4.167   6.244   9.461  0.0600 -1.0644  0.2694
  114OSM   H15T11880   4.286   6.120   9.475 -1.0740 -0.2300 -0.8485
  114OSM   C16S11881   4.342   6.300   9.359  0.9071 -0.0956 -0.8451
  114OSM   H16S11882   4.452   6.313   9.362  0.8494  0.2510  1.1575
  114OSM   H16T11883   4.305   6.404   9.346  2.6736  0.7519  0.4865
  114OSM   C17S11884   4.308   6.216   9.232  0.5946  0.1259  0.6979
  114OSM   H17S11885   4.340   6.110   9.239 -0.3592 -0.2638 -0.5579
  114OSM   H17T11886   4.352   6.266   9.144  1.2804 -0.6177  0.6156
  114OSM   C18S11887   4.158   6.201   9.209  0.8803 -0.1392 -0.1286
  114OSM   H18S11888   4.103   6.165   9.299  0.2556  1.1252  0.0083
  114OSM   H18T11889   4.127   6.138   9.123 -1.4198 -0.6513  0.9917
  114OSM   H18U11890   4.110   6.300   9.196 -0.0271 -0.5299  0.1478
  114OSM    C1F11891   3.422   6.167  10.765 -0.0270 -0.8711 -0.8514
  114OSM     OF11892   3.368   6.226  10.855  0.2783  0.2323 -0.2752
  114OSM    C2F11893   3.353   6.097  10.653  0.1457  0.4837  0.3769
  114OSM    H2F11894   3.359   5.989  10.676  0.8972  0.8389  1.9414
  114OSM    H2G11895   3.412   6.112  10.559 -1.0943 -2.8921 -1.1134
  114OSM    C3F11896   3.214   6.145  10.626 -0.4158  0.0592 -0.1998
  114OSM    H3F11897   3.220   6.252  10.594  2.2220  0.4607  1.3771
  114OSM    H3G11898   3.147   6.135  10.714  0.4212  0.2957  0.4811
  114OSM    C4F11899   3.149   6.060  10.512 -0.2993  0.3121 -0.2119
  114OSM    H4F11900   3.197   5.961  10.502  0.8201  0.7905  0.3009
  114OSM    H4G11901   3.161   6.117  10.417 -0.0413  0.1544 -0.2725
  114OSM    C5F11902   3.001   6.044  10.543 -0.4223 -0.8253 -0.2573
  114OSM    H5F11903   2.948   6.140  10.559  0.2476 -0.5344  0.2726
  114OSM    H5G11904   2.992   5.982  10.635 -2.5601  0.4499  0.4671
  114OSM    C6F11905   2.924   5.972  10.433 -0.2147  0.1346 -0.5719
  114OSM    H6F11906   2.832   5.943  10.488  0.0200  0.2460 -0.1132
  114OSM    H6G11907   2.984   5.885  10.401  0.7328  0.8412 -0.7560
  114OSM    C7F11908   2.887   6.066  10.313 -0.2439  0.2470 -0.9636
  114OSM    H7F11909   2.880   6.172  10.347  1.2831 -0.2880  1.2566
  114OSM    H7G11910   2.790   6.020  10.288 -0.4725 -0.6489  1.3211
  114OSM    C8F11911   2.985   6.067  10.193 -0.0054  0.4729  0.4145
  114OSM    H8F11912   3.076   6.108  10.242  0.8744 -2.6546  1.5744
  114OSM    H8G11913   2.952   6.145  10.120 -0.6162  0.0975  0.2803
  114OSM    C9F11914   3.018   5.930  10.137  0.4305 -0.2910  0.5650
  114OSM    H9F11915   3.089   5.878  10.203  1.4140  0.5868  0.2186
  114OSM   C10F11916   2.990   5.878  10.017  0.3234  0.4013  0.1043
  114OSM   H10F11917   3.031   5.779   9.991  1.7355  0.8220  0.6347
  114OSM   C11F11918   2.918   5.953   9.906  0.2589 -0.3625 -0.5111
  114OSM   H11F11919   2.892   6.056   9.938 -0.0405 -0.5135 -0.2660
  114OSM   H11G11920   2.821   5.911   9.873 -0.0743 -0.0273  0.0349
  114OSM   C12F11921   3.010   5.953   9.791 -1.1540 -0.1025  0.1162
  114OSM   H12F11922   3.015   5.850   9.748  1.3713  0.0456 -0.0857
  114OSM   H12G11923   3.110   5.978   9.833  0.5269 -1.2314 -2.8670
  114OSM   C13F11924   2.966   6.047   9.677 -0.1388  0.2589  0.8207
  114OSM   H13F11925   2.966   6.153   9.711  0.6329  2.2033 -4.3715
  114OSM   H13G11926   2.867   6.029   9.630  0.8656 -0.4181 -1.1437
  114OSM   C14F11927   3.073   6.036   9.571  0.2912 -0.1402  0.5869
  114OSM   H14F11928   3.067   5.929   9.542 -0.9116 -0.2324  1.1077
  114OSM   H14G11929   3.169   6.062   9.620  0.2065  0.0131  0.6728
  114OSM   C15F11930   3.057   6.125   9.455 -0.5836 -0.1494 -0.4917
  114OSM   H15F11931   3.016   6.217   9.501 -1.6546 -1.0228  0.3608
  114OSM   H15G11932   2.974   6.092   9.389 -1.3582  0.1127  0.3329
  114OSM   C16F11933   3.187   6.170   9.386 -0.0011  0.2359 -0.1361
  114OSM   H16F11934   3.222   6.079   9.334  0.7671 -0.7828  2.0503
  114OSM   H16G11935   3.261   6.207   9.460  0.6973 -1.1935 -0.0891
  114OSM   C17F11936   3.160   6.266   9.272 -0.3197 -0.1921 -0.4285
  114OSM   H17F11937   3.084   6.214   9.209 -1.0797  1.6409 -1.1148
  114OSM   H17G11938   3.244   6.290   9.203 -0.9435  1.7919 -0.5602
  114OSM   C18F11939   3.099   6.403   9.300  0.3240 -0.5120 -0.1557
  114OSM   H18F11940   2.992   6.403   9.269 -0.7983 -1.3740  3.2102
  114OSM   H18G11941   3.163   6.478   9.250  1.4283 -1.0443  0.4288
  114OSM   H18H11942   3.101   6.428   9.409  1.8218 -1.8465  0.1555
  115OSM      N11943   5.177   2.622   6.044  0.9198  0.0088 -0.3588
  115OSM    C1511944   5.141   2.712   5.930 -0.5156  0.0323 -0.7725
  115OSM   H15A11945   5.181   2.811   5.945  1.5364 -0.9570  0.8883
  115OSM   H15B11946   5.034   2.719   5.918 -0.9602 -0.4609  2.0872
  115OSM   H15C11947   5.179   2.670   5.838 -0.7196  1.9992 -1.8071
  115OSM    C1411948   5.072   2.511   6.052  0.2480  0.1768  0.3058
  115OSM   H14A11949   5.119   2.417   6.077 -1.6240 -0.0991  3.2491
  115OSM   H14B11950   5.012   2.498   5.963 -2.2098  1.3320  1.6764
  115OSM   H14C11951   4.999   2.533   6.129 -1.6432  1.5787 -1.7557
  115OSM    C1311952   5.306   2.563   6.019 -0.0559  0.1005  0.4616
  115OSM   H13A11953   5.341   2.516   6.110 -1.7417 -1.9130  0.1512
  115OSM   H13B11954   5.377   2.644   6.007  0.8267 -0.5420  1.1563
  115OSM   H13C11955   5.316   2.496   5.936 -4.0400  2.1319 -1.9581
  115OSM    C1211956   5.172   2.699   6.180  0.3188  0.0492 -0.2992
  115OSM   H12A11957   5.075   2.746   6.189  0.1438 -0.5394  1.1507
  115OSM   H12B11958   5.245   2.778   6.180  0.5218 -0.1080 -1.6785
  115OSM    C1111959   5.192   2.614   6.304 -0.7279  0.9119  0.3930
  115OSM   H11A11960   5.119   2.531   6.312 -1.0939  0.7651 -3.1861
  115OSM   H11B11961   5.162   2.682   6.387 -1.6488  1.5760 -0.4586
  115OSM      P11962   5.450   2.666   6.319 -0.1843  0.1436 -0.5698
  115OSM    O1311963   5.565   2.579   6.331  0.0773 -0.0172 -0.4169
  115OSM    O1411964   5.452   2.758   6.201  0.0518  0.5357  0.1520
  115OSM    O1111965   5.427   2.740   6.452  0.3453 -0.0282 -0.5898
  115OSM    O1211966   5.328   2.567   6.310  0.5668  0.0546  0.6212
  115OSM    C1S11967   5.448   2.674   6.579  0.5361 -0.4082 -1.2573
  115OSM    H1S11968   5.541   2.614   6.582  0.2231 -0.8928  0.5001
  115OSM    H1T11969   5.367   2.600   6.600 -1.2065  1.2004 -2.0506
  115OSM     NF11970   5.488   2.695   6.821  0.8895 -0.1111 -0.0826
  115OSM    HNF11971   5.416   2.678   6.888 -0.4564 -1.9502 -1.8753
  115OSM    C2S11972   5.459   2.779   6.700  0.3367  0.7460  0.5961
  115OSM    H2S11973   5.553   2.837   6.685  0.2334  0.4873 -1.2088
  115OSM    C3S11974   5.338   2.868   6.709 -0.4149  0.6474  0.4195
  115OSM    H3S11975   5.249   2.801   6.715 -1.0424  1.1469 -2.0978
  115OSM     O311976   5.325   2.948   6.587  0.1624 -0.2102 -0.5060
  115OSM    HO311977   5.387   2.899   6.533  1.2904 -0.4233  0.9259
  115OSM    C4S11978   5.345   2.953   6.836 -0.6297 -0.0953 -0.6837
  115OSM    H4S11979   5.270   2.914   6.907  0.3154  0.0947  0.4394
  115OSM    C5S11980   5.414   3.071   6.864  0.1222  0.7193 -0.3928
  115OSM    H5S11981   5.467   3.117   6.780  1.1149  0.6529  0.1887
  115OSM    C6S11982   5.412   3.158   6.994 -0.3536  0.4273  0.3266
  115OSM    H6S11983   5.307   3.184   7.015 -0.6254 -0.7901  0.5487
  115OSM    H6T11984   5.472   3.251   6.977 -0.1165  0.1699 -0.2920
  115OSM    C7S11985   5.470   3.082   7.114 -0.7592 -0.1529 -0.0221
  115OSM    H7S11986   5.577   3.063   7.089 -0.8978  0.6295 -1.3140
  115OSM    H7T11987   5.428   2.981   7.132 -3.7155  1.0245  0.1518
  115OSM    C8S11988   5.461   3.169   7.244 -0.2684  0.5414  0.9696
  115OSM    H8S11989   5.360   3.203   7.274 -1.0610  0.0199 -0.9997
  115OSM    H8T11990   5.520   3.261   7.223  0.3690 -0.7039 -3.8890
  115OSM    C9S11991   5.522   3.095   7.365 -0.5514  0.2826  0.6664
  115OSM    H9S11992   5.615   3.053   7.320 -0.7973  0.2668  0.1692
  115OSM    H9T11993   5.457   3.007   7.383  1.8131 -2.0986 -1.3975
  115OSM   C10S11994   5.542   3.172   7.489 -0.3221  0.4265  0.1648
  115OSM   H10S11995   5.443   3.204   7.527 -0.8230 -1.5913  0.6597
  115OSM   H10T11996   5.577   3.273   7.457  0.0558  0.4826  0.7457
  115OSM   C11S11997   5.612   3.107   7.605  0.3499  0.0418  0.1182
  115OSM   H11S11998   5.585   3.000   7.621  1.3229 -0.4676 -1.4325
  115OSM   H11T11999   5.586   3.159   7.700 -2.0831  1.7514 -1.3574
  115OSM   C12S12000   5.766   3.109   7.590  0.1630 -0.5820  0.0038
  115OSM   H12S12001   5.826   3.201   7.582  2.3649 -1.8880  0.5943
  115OSM   H12T12002   5.772   3.074   7.485 -0.6837  2.7284 -1.2642
  115OSM   C13S12003   5.838   3.015   7.693 -0.3338  0.0762  0.8816
  115OSM   H13S12004   5.775   2.924   7.681  0.6181 -0.3128 -1.8446
  115OSM   H13T12005   5.825   3.062   7.793 -2.8333 -0.1248  0.7178
  115OSM   C14S12006   5.989   3.000   7.655  0.1394 -0.6234 -0.9074
  115OSM   H14S12007   6.030   2.930   7.732 -1.4483 -0.2350  0.3405
  115OSM   H14T12008   6.041   3.098   7.656  0.1806 -0.5937  2.0185
  115OSM   C15S12009   6.014   2.920   7.525 -0.3524  0.5622 -0.2765
  115OSM   H15S12010   5.964   2.963   7.435 -1.3356 -1.2464 -0.6391
  115OSM   H15T12011   5.986   2.815   7.546 -0.0354  0.6323  0.5156
  115OSM   C16S12012   6.162   2.926   7.484  0.6063  0.0306  0.1316
  115OSM   H16S12013   6.222   2.898   7.573 -0.5371  0.8786  1.1961
  115OSM   H16T12014   6.176   3.032   7.454 -2.0057  0.8538  1.5098
  115OSM   C17S12015   6.202   2.845   7.353  0.5873  0.2074  0.2203
  115OSM   H17S12016   6.312   2.835   7.361  0.6963 -1.5422 -2.3808
  115OSM   H17T12017   6.179   2.905   7.263 -1.9394 -1.2554 -0.2069
  115OSM   C18S12018   6.133   2.709   7.348 -0.3148  0.2096  0.8683
  115OSM   H18S12019   6.187   2.629   7.293 -0.9429 -0.2195  0.8598
  115OSM   H18T12020   6.035   2.722   7.297  0.2827  2.4547  0.1795
  115OSM   H18U12021   6.118   2.670   7.451  0.5771 -2.1238  0.1910
  115OSM    C1F12022   5.599   2.629   6.846 -0.4702 -0.4285  0.0634
  115OSM     OF12023   5.696   2.651   6.772 -0.2096 -0.0367 -0.5833
  115OSM    C2F12024   5.596   2.526   6.949  0.4641  0.2693  1.0258
  115OSM    H2F12025   5.621   2.431   6.899  0.5764  0.6623  0.3229
  115OSM    H2G12026   5.494   2.505   6.989 -0.6383  0.2708 -1.6018
  115OSM    C3F12027   5.689   2.557   7.061  0.4152  0.0063  0.0890
  115OSM    H3F12028   5.787   2.588   7.020  1.4023 -1.6458  1.0843
  115OSM    H3G12029   5.708   2.462   7.116  0.1846 -0.4563 -0.6281
  115OSM    C4F12030   5.625   2.663   7.155 -0.2681  0.3267  0.4842
  115OSM    H4F12031   5.527   2.619   7.186 -1.4439  1.6271 -1.2053
  115OSM    H4G12032   5.621   2.758   7.099  0.4054 -0.2276 -0.5300
  115OSM    C5F12033   5.709   2.684   7.288  1.0912  0.0005  0.0150
  115OSM    H5F12034   5.696   2.792   7.309 -2.4617 -0.2925 -0.0196
  115OSM    H5G12035   5.817   2.672   7.265  1.3297  1.4851  0.2720
  115OSM    C6F12036   5.671   2.589   7.399  0.9423  0.3521  0.4050
  115OSM    H6F12037   5.690   2.486   7.361 -2.0069  0.9229 -3.1799
  115OSM    H6G12038   5.563   2.604   7.421  0.2471  0.3033 -2.4773
  115OSM    C7F12039   5.748   2.619   7.530  0.1889  0.4270 -0.3886
  115OSM    H7F12040   5.697   2.700   7.585  0.1694  0.1785 -0.0383
  115OSM    H7G12041   5.852   2.645   7.501  0.5431 -0.1388  0.3525
  115OSM    C8F12042   5.758   2.487   7.625  0.6299 -0.2832 -0.5803
  115OSM    H8F12043   5.802   2.515   7.723 -0.6060 -1.8623  0.4709
  115OSM    H8G12044   5.816   2.411   7.567  0.1712 -0.9066 -0.2385
  115OSM    C9F12045   5.625   2.422   7.652  0.1075  0.1470 -0.3625
  115OSM    H9F12046   5.546   2.449   7.580 -0.9037 -2.1321 -0.1724
  115OSM   C10F12047   5.579   2.370   7.769 -0.6220  0.1059  0.2295
  115OSM   H10F12048   5.483   2.317   7.766  0.2955 -1.6000 -0.3950
  115OSM   C11F12049   5.659   2.351   7.896  0.1062  0.3334  0.3660
  115OSM   H11F12050   5.730   2.435   7.911 -0.6654  1.1550 -0.3993
  115OSM   H11G12051   5.698   2.247   7.891 -0.3136  0.1799  0.2623
  115OSM   C12F12052   5.568   2.364   8.019 -0.2610  0.1642 -0.1896
  115OSM   H12F12053   5.485   2.291   8.004 -2.0928  2.0018  0.4928
  115OSM   H12G12054   5.519   2.464   8.020 -0.3734  0.1548 -2.2188
  115OSM   C13F12055   5.651   2.345   8.152  0.2526  0.1510  0.2442
  115OSM   H13F12056   5.686   2.448   8.176 -0.4361  0.8881 -1.7903
  115OSM   H13G12057   5.738   2.281   8.125 -0.8904 -1.7101  0.7675
  115OSM   C14F12058   5.587   2.287   8.276  0.2806  0.2018 -0.6458
  115OSM   H14F12059   5.649   2.253   8.362 -0.8954 -0.0444  0.1388
  115OSM   H14G12060   5.542   2.195   8.231 -0.2127 -0.5039  1.1833
  115OSM   C15F12061   5.464   2.368   8.327 -0.6533 -0.0333  0.4607
  115OSM   H15F12062   5.394   2.383   8.242 -0.7203  3.3986  0.9990
  115OSM   H15G12063   5.500   2.470   8.352 -0.4234  0.5421 -1.9924
  115OSM   C16F12064   5.383   2.306   8.439  1.5245  0.9479 -0.0541
  115OSM   H16F12065   5.295   2.372   8.453  2.4955  2.3583 -0.4213
  115OSM   H16G12066   5.446   2.308   8.530  1.5669  1.3467 -0.0919
  115OSM   C17F12067   5.356   2.147   8.426  0.1593 -0.4935  0.3253
  115OSM   H17F12068   5.456   2.102   8.445  0.6483  1.0169  1.5855
  115OSM   H17G12069   5.331   2.135   8.319  0.7592  2.2477 -0.1817
  115OSM   C18F12070   5.255   2.092   8.518  0.5021  0.9694 -0.7240
  115OSM   H18F12071   5.270   1.983   8.529 -2.1124  0.6297  0.3889
  115OSM   H18G12072   5.150   2.106   8.485  0.0804  1.9088  0.8645
  115OSM   H18H12073   5.258   2.132   8.622 -2.2073 -1.3093  0.3653
  116OSM      N12074   3.115   5.524   5.982  0.0392 -0.0590  0.0023
  116OSM    C1512075   3.110   5.377   5.969  0.8464 -0.4409 -0.4155
  116OSM   H15A12076   3.091   5.337   5.871 -1.1114  0.6693 -0.5422
  116OSM   H15B12077   3.026   5.349   6.031 -0.0963  2.4113 -0.2486
  116OSM   H15C12078   3.196   5.329   6.014  0.7074 -0.6089 -0.3257
  116OSM    C1412079   3.246   5.573   5.924  0.6284 -0.5757 -0.4189
  116OSM   H14A12080   3.260   5.518   5.833  1.7271 -1.1550  0.0918
  116OSM   H14B12081   3.330   5.545   5.986  0.9853 -1.0424 -1.1008
  116OSM   H14C12082   3.246   5.681   5.913 -0.3512 -0.0266  3.4461
  116OSM    C1312083   3.016   5.596   5.899 -0.0277  0.1053  0.4835
  116OSM   H13A12084   3.025   5.566   5.796 -0.5266 -0.8571  0.7117
  116OSM   H13B12085   3.038   5.702   5.909  2.7787 -0.5077  1.8715
  116OSM   H13C12086   2.918   5.577   5.939  0.3804  0.7280  1.8295
  116OSM    C1212087   3.097   5.570   6.126  0.0775  0.7160  0.2188
  116OSM   H12A12088   2.999   5.537   6.159  0.0025  0.3826 -0.3078
  116OSM   H12B12089   3.104   5.678   6.120 -1.4556  1.0348  2.7861
  116OSM    C1112090   3.193   5.522   6.240  0.0886 -0.3515 -0.1148
  116OSM   H11A12091   3.182   5.412   6.240 -2.8385 -0.1457  1.1716
  116OSM   H11B12092   3.162   5.561   6.339  1.6438 -1.6030  0.8942
  116OSM      P12093   3.366   5.710   6.241  0.2953  0.2152  0.2637
  116OSM    O1312094   3.496   5.719   6.172  0.6049 -0.4409 -0.2914
  116OSM    O1412095   3.259   5.795   6.179 -0.0713  0.6977 -0.5201
  116OSM    O1112096   3.384   5.737   6.390 -0.4420 -0.0775  0.7991
  116OSM    O1212097   3.325   5.557   6.227  0.0295 -0.0248  0.1394
  116OSM    C1S12098   3.419   5.646   6.493  0.0936  0.0658 -0.4381
  116OSM    H1S12099   3.524   5.612   6.480 -0.0826 -1.0388  0.7166
  116OSM    H1T12100   3.358   5.553   6.496  0.5192 -0.2178 -0.4108
  116OSM     NF12101   3.454   5.630   6.741  0.1405  0.0871  0.2271
  116OSM    HNF12102   3.383   5.583   6.793  0.5006 -0.1208  0.5426
  116OSM    C2S12103   3.415   5.714   6.635  0.5294  0.2171  0.6473
  116OSM    H2S12104   3.491   5.795   6.644  0.0802  0.5777  1.2691
  116OSM    C3S12105   3.275   5.776   6.665 -0.0338  0.6802  0.2512
  116OSM    H3S12106   3.194   5.703   6.642  2.7487 -2.8706  0.8569
  116OSM     O312107   3.240   5.885   6.582  0.1017  0.3153  0.4490
  116OSM    HO312108   3.306   5.884   6.513 -1.5077 -1.1332 -1.1682
  116OSM    C4S12109   3.267   5.828   6.809  0.8995  0.9176  0.6711
  116OSM    H4S12110   3.229   5.754   6.881 -1.6463  0.0254 -1.4369
  116OSM    C5S12111   3.297   5.950   6.853 -0.5691  0.2675  0.0273
  116OSM    H5S12112   3.345   6.026   6.789  0.6820  1.8420  2.6430
  116OSM    C6S12113   3.282   5.993   6.999  0.0963 -0.7786 -0.4123
  116OSM    H6S12114   3.230   6.090   7.008  2.2591  0.2069  3.2794
  116OSM    H6T12115   3.384   6.014   7.038  0.8237  0.1357 -2.6281
  116OSM    C7S12116   3.221   5.903   7.102 -0.0726  0.1717 -0.2008
  116OSM    H7S12117   3.274   5.806   7.111 -2.4844 -1.2675 -0.5244
  116OSM    H7T12118   3.115   5.881   7.078 -0.0485 -0.5439  0.3069
  116OSM    C8S12119   3.241   5.963   7.246  0.0362 -0.6467 -0.3235
  116OSM    H8S12120   3.168   6.046   7.252  3.0801  2.3581 -1.4046
  116OSM    H8T12121   3.343   6.005   7.261 -0.1871  0.1109 -0.8782
  116OSM    C9S12122   3.207   5.847   7.345 -0.2982  0.6376 -0.0458
  116OSM    H9S12123   3.273   5.761   7.322  0.4885  0.8283  1.3709
  116OSM    H9T12124   3.103   5.809   7.332 -0.8614  2.3885 -0.9635
  116OSM   C10S12125   3.224   5.888   7.493 -0.1621  0.6439 -0.2802
  116OSM   H10S12126   3.151   5.965   7.523  0.4214  0.0356  3.0943
  116OSM   H10T12127   3.327   5.930   7.490  0.6174 -0.6682  3.1701
  116OSM   C11S12128   3.204   5.771   7.594  0.1454 -0.6845  0.7169
  116OSM   H11S12129   3.290   5.703   7.577  1.1371 -0.5046  4.1862
  116OSM   H11T12130   3.109   5.714   7.591  0.4963 -1.2757  0.6905
  116OSM   C12S12131   3.219   5.836   7.737  0.2440 -0.0973 -0.0757
  116OSM   H12S12132   3.143   5.917   7.745  1.4517  1.0656 -0.2193
  116OSM   H12T12133   3.317   5.887   7.746  0.1791 -0.3354  3.2046
  116OSM   C13S12134   3.210   5.725   7.841 -0.6217  0.4216 -0.2716
  116OSM   H13S12135   3.292   5.650   7.834 -1.1427 -0.2549  0.5800
  116OSM   H13T12136   3.112   5.677   7.824 -0.7840  0.3754  0.7371
  116OSM   C14S12137   3.229   5.790   7.981 -0.4360 -0.4293 -0.0682
  116OSM   H14S12138   3.145   5.859   8.002 -1.2423 -1.6014  0.6767
  116OSM   H14T12139   3.323   5.850   7.977 -1.7136  1.7283  0.7202
  116OSM   C15S12140   3.235   5.677   8.081  0.2397  0.0298 -0.2082
  116OSM   H15S12141   3.322   5.613   8.056 -2.4089 -2.7214 -3.3463
  116OSM   H15T12142   3.155   5.600   8.078  0.1564  0.1231 -0.4009
  116OSM   C16S12143   3.245   5.740   8.224 -0.4654  0.1595  0.0059
  116OSM   H16S12144   3.156   5.801   8.253 -1.5085 -2.3502  2.5873
  116OSM   H16T12145   3.340   5.794   8.208  0.6382 -1.8763 -0.6983
  116OSM   C17S12146   3.256   5.635   8.328 -0.2293  0.4509  0.2298
  116OSM   H17S12147   3.318   5.552   8.288 -1.2446  0.2058 -0.9110
  116OSM   H17T12148   3.159   5.586   8.355 -0.0021  0.0732  0.3708
  116OSM   C18S12149   3.328   5.673   8.461  0.3315 -0.1529  0.5084
  116OSM   H18S12150   3.289   5.768   8.503 -1.1343 -0.6447  0.3394
  116OSM   H18T12151   3.437   5.686   8.445  0.3914 -0.5056  0.6285
  116OSM   H18U12152   3.314   5.588   8.531 -0.2537 -0.3932  0.1154
  116OSM    C1F12153   3.570   5.568   6.757 -0.4235  0.1281  0.2085
  116OSM     OF12154   3.668   5.598   6.689  0.1658  0.0319  0.1023
  116OSM    C2F12155   3.566   5.455   6.851  0.4325  0.3278  0.1761
  116OSM    H2F12156   3.468   5.401   6.849  0.4865  0.2268  0.2748
  116OSM    H2G12157   3.575   5.503   6.950  1.4872 -0.3364  0.4160
  116OSM    C3F12158   3.690   5.364   6.852 -0.6838 -0.4766  0.8528
  116OSM    H3F12159   3.775   5.430   6.877 -1.4281  0.4993  0.8585
  116OSM    H3G12160   3.709   5.320   6.752  1.4924  2.3295 -0.0866
  116OSM    C4F12161   3.679   5.250   6.952 -0.2097 -0.1913 -0.2603
  116OSM    H4F12162   3.739   5.173   6.900 -0.3111 -2.2677  2.5285
  116OSM    H4G12163   3.577   5.212   6.976 -0.2805  0.7691  1.0954
  116OSM    C5F12164   3.745   5.291   7.088  0.1732 -0.5796  0.3109
  116OSM    H5F12165   3.700   5.389   7.113  0.6608 -0.5562  1.1288
  116OSM    H5G12166   3.856   5.296   7.076 -0.0260  0.0268 -1.6445
  116OSM    C6F12167   3.718   5.198   7.207 -0.1694  0.1903  0.1078
  116OSM    H6F12168   3.765   5.098   7.193 -0.3640 -0.2899  2.5255
  116OSM    H6G12169   3.609   5.178   7.208  0.2037 -2.2927 -0.2275
  116OSM    C7F12170   3.767   5.265   7.334 -0.6782  0.0280 -0.1027
  116OSM    H7F12171   3.718   5.362   7.358 -1.0565 -0.4847  1.3224
  116OSM    H7G12172   3.873   5.296   7.321 -0.4524 -1.0045 -0.8387
  116OSM    C8F12173   3.763   5.181   7.462 -0.1168 -0.0506 -0.2261
  116OSM    H8F12174   3.842   5.105   7.445  1.3940  0.7715  2.4698
  116OSM    H8G12175   3.659   5.144   7.467 -1.3747  3.1882 -0.1135
  116OSM    C9F12176   3.796   5.256   7.590  0.1444 -0.3595  0.3172
  116OSM    H9F12177   3.813   5.362   7.565  0.6480  0.0361  2.1926
  116OSM   C10F12178   3.789   5.208   7.714 -0.2197  0.2628 -0.4344
  116OSM   H10F12179   3.816   5.272   7.799 -0.2954 -0.0801 -0.1496
  116OSM   C11F12180   3.751   5.070   7.751  0.4500 -0.5141 -0.1146
  116OSM   H11F12181   3.801   4.994   7.687 -1.3091 -1.7815 -0.0548
  116OSM   H11G12182   3.642   5.049   7.753  0.3520 -0.0642 -0.4453
  116OSM   C12F12183   3.796   5.039   7.898 -0.6913 -0.6542 -0.5021
  116OSM   H12F12184   3.748   5.113   7.966  1.8944 -0.7483  1.5664
  116OSM   H12G12185   3.905   5.055   7.904 -0.5496 -1.5911 -0.4465
  116OSM   C13F12186   3.765   4.888   7.921 -0.7833 -0.4415 -0.1712
  116OSM   H13F12187   3.819   4.830   7.844 -1.7123  0.2306 -1.3696
  116OSM   H13G12188   3.657   4.864   7.904 -1.1925  0.9083  0.4171
  116OSM   C14F12189   3.812   4.830   8.058  0.2079 -0.0278  0.7528
  116OSM   H14F12190   3.755   4.879   8.140 -2.0707  0.1184 -0.8440
  116OSM   H14G12191   3.912   4.878   8.068 -0.4182  1.3457  0.6796
  116OSM   C15F12192   3.808   4.672   8.063  0.3309 -0.2198 -0.1760
  116OSM   H15F12193   3.838   4.635   7.963  1.9754  1.5562 -0.4086
  116OSM   H15G12194   3.705   4.639   8.088 -1.2028  4.4154  0.8169
  116OSM   C16F12195   3.909   4.624   8.170 -0.4629 -0.2640 -0.6540
  116OSM   H16F12196   3.896   4.673   8.269  2.3705 -1.3455  0.3427
  116OSM   H16G12197   4.013   4.651   8.142 -0.6133  0.3990 -0.5886
  116OSM   C17F12198   3.904   4.476   8.198 -0.2728  0.1813 -1.0566
  116OSM   H17F12199   3.994   4.439   8.252 -0.1495  0.6240 -0.9532
  116OSM   H17G12200   3.905   4.420   8.103  3.6123 -0.2392 -0.9279
  116OSM   C18F12201   3.784   4.442   8.290  0.0628  0.3365 -0.3292
  116OSM   H18F12202   3.771   4.333   8.305  0.4261  0.3775  0.3480
  116OSM   H18G12203   3.696   4.478   8.234  0.4058  0.2092 -0.9634
  116OSM   H18H12204   3.795   4.486   8.391 -0.8859 -0.6275  0.2054
  117OSM      N12205   3.367   3.281   6.396  0.7484  0.3255 -0.3354
  117OSM    C1512206   3.257   3.285   6.300 -0.9855 -0.6500 -0.2267
  117OSM   H15A12207   3.181   3.356   6.330  1.1002  2.1425 -1.0947
  117OSM   H15B12208   3.206   3.190   6.291 -1.5193 -0.1751 -5.4229
  117OSM   H15C12209   3.290   3.314   6.201 -1.4501 -2.9910 -1.1311
  117OSM    C1412210   3.446   3.409   6.401 -0.4655 -0.2741  0.0241
  117OSM   H14A12211   3.368   3.482   6.412 -1.5539 -1.2169 -1.0674
  117OSM   H14B12212   3.497   3.432   6.309  2.3936 -1.0091  1.3037
  117OSM   H14C12213   3.513   3.426   6.484  1.3056  1.4077 -1.6452
  117OSM    C1312214   3.297   3.255   6.523  0.3495 -0.3183 -0.0284
  117OSM   H13A12215   3.373   3.275   6.597 -0.7060  3.8008  0.1965
  117OSM   H13B12216   3.258   3.156   6.539 -1.8717  0.5695  0.3933
  117OSM   H13C12217   3.210   3.318   6.535  0.8056  0.2879  0.1470
  117OSM    C1212218   3.452   3.162   6.361 -0.0131  0.3053 -0.0037
  117OSM   H12A12219   3.387   3.082   6.330 -0.5637  1.0990 -0.9375
  117OSM   H12B12220   3.510   3.132   6.448  1.1384  1.0064 -0.5058
  117OSM    C1112221   3.562   3.186   6.246  0.7122  0.6660 -0.3446
  117OSM   H11A12222   3.619   3.277   6.276 -0.7160  1.2125  0.8718
  117OSM   H11B12223   3.511   3.200   6.148 -0.1422  0.8312  0.1114
  117OSM      P12224   3.775   3.050   6.312  0.3675 -0.1742 -0.2977
  117OSM    O1312225   3.807   2.911   6.295 -0.1898  0.1655  0.4433
  117OSM    O1412226   3.875   3.147   6.264  0.6537 -0.0516 -0.1504
  117OSM    O1112227   3.742   3.081   6.459 -0.4672  0.1803  0.1023
  117OSM    O1212228   3.643   3.071   6.244  0.1510  0.5549  0.6475
  117OSM    C1S12229   3.723   2.979   6.559  0.1907 -0.4580  0.1135
  117OSM    H1S12230   3.787   2.893   6.534 -0.6308 -0.8575 -0.6439
  117OSM    H1T12231   3.616   2.949   6.553 -0.5960  1.7408  1.4963
  117OSM     NF12232   3.776   2.917   6.793 -0.1297  0.1481 -0.4302
  117OSM    HNF12233   3.696   2.868   6.825 -0.7496 -0.3521 -2.5775
  117OSM    C2S12234   3.751   3.028   6.705 -0.9464 -0.9542  0.8824
  117OSM    H2S12235   3.849   3.081   6.697  0.7393 -3.9674  0.2159
  117OSM    C3S12236   3.632   3.117   6.764 -0.7253  0.4554  0.0919
  117OSM    H3S12237   3.536   3.061   6.760 -1.1830  1.2979 -1.8714
  117OSM     O312238   3.601   3.235   6.683 -0.3094  0.9671 -0.5360
  117OSM    HO312239   3.661   3.227   6.609 -0.8125 -1.9887 -0.7637
  117OSM    C4S12240   3.671   3.150   6.911  0.2059 -0.3073 -0.1901
  117OSM    H4S12241   3.612   3.098   6.988  1.8569  1.1540  2.2314
  117OSM    C5S12242   3.762   3.238   6.955 -0.4568 -0.2519  0.0639
  117OSM    H5S12243   3.808   3.302   6.878 -1.3549  2.7714  1.8719
  117OSM    C6S12244   3.798   3.265   7.099  0.4551 -0.4455 -0.5037
  117OSM    H6S12245   3.806   3.373   7.126  1.3488 -0.2970 -1.3265
  117OSM    H6T12246   3.891   3.214   7.130 -0.4683 -2.3369 -0.6953
  117OSM    C7S12247   3.689   3.208   7.196  0.4085  0.4128  0.3222
  117OSM    H7S12248   3.701   3.098   7.210  2.5131  0.7197  1.2896
  117OSM    H7T12249   3.588   3.224   7.153  0.5428 -0.3330 -0.3006
  117OSM    C8S12250   3.701   3.263   7.337 -0.4920 -0.9569  0.5258
  117OSM    H8S12251   3.677   3.371   7.347  1.1964 -0.6051  1.0647
  117OSM    H8T12252   3.804   3.250   7.376 -0.2895 -0.1543  0.2689
  117OSM    C9S12253   3.614   3.183   7.436  0.1297  0.0224 -0.4778
  117OSM    H9S12254   3.638   3.075   7.436 -1.0790 -0.3721  2.8303
  117OSM    H9T12255   3.505   3.188   7.416 -0.1540  1.2590  1.1329
  117OSM   C10S12256   3.606   3.240   7.581 -0.1056  0.0600  0.1046
  117OSM   H10S12257   3.582   3.348   7.569 -1.4699 -0.0599  1.3657
  117OSM   H10T12258   3.698   3.230   7.641  0.0872  0.4935 -0.1171
  117OSM   C11S12259   3.496   3.164   7.653  0.2283 -0.1991  0.1118
  117OSM   H11S12260   3.503   3.057   7.624  0.8848  0.0124 -0.5355
  117OSM   H11T12261   3.397   3.200   7.618  0.5172  0.9246  0.4038
  117OSM   C12S12262   3.492   3.187   7.798  0.3645  0.6440 -0.4222
  117OSM   H12S12263   3.505   3.291   7.833 -1.3069  0.4330  0.9880
  117OSM   H12T12264   3.574   3.120   7.833 -1.0750 -0.2637  1.3825
  117OSM   C13S12265   3.358   3.143   7.869  0.4460 -0.3395  0.2529
  117OSM   H13S12266   3.359   3.032   7.869  1.7454 -0.3526  0.4234
  117OSM   H13T12267   3.274   3.190   7.813  0.6697 -0.3960 -0.1383
  117OSM   C14S12268   3.350   3.182   8.017 -1.2348 -0.2946  0.7156
  117OSM   H14S12269   3.344   3.292   8.028 -1.2809 -0.0498 -1.4151
  117OSM   H14T12270   3.440   3.148   8.074  0.4631  0.0994 -1.5801
  117OSM   C15S12271   3.216   3.136   8.083  0.3544 -0.2897  0.3550
  117OSM   H15S12272   3.202   3.026   8.081 -1.0480 -0.1220 -0.0804
  117OSM   H15T12273   3.132   3.161   8.015  0.0546 -0.0781  0.7960
  117OSM   C16S12274   3.203   3.185   8.228  0.8305 -0.2273 -0.0472
  117OSM   H16S12275   3.218   3.294   8.236 -1.3935  0.2631 -1.7631
  117OSM   H16T12276   3.262   3.122   8.299  1.9962  0.3577 -0.4610
  117OSM   C17S12277   3.055   3.162   8.273 -0.9926  0.3002  0.0970
  117OSM   H17S12278   3.030   3.054   8.269 -2.2863  0.4811  1.8592
  117OSM   H17T12279   2.981   3.217   8.211  0.0787  2.2549  0.4528
  117OSM   C18S12280   3.038   3.210   8.414 -0.0178  0.6016  0.3663
  117OSM   H18S12281   3.117   3.177   8.484 -1.0279 -1.5947  0.5483
  117OSM   H18T12282   2.933   3.187   8.444 -0.8863  0.3187 -2.5147
  117OSM   H18U12283   3.045   3.321   8.405 -0.3296  0.5306 -0.9396
  117OSM    C1F12284   3.899   2.857   6.800 -0.6587 -0.2770 -0.2066
  117OSM     OF12285   3.990   2.908   6.731  0.0837  0.3281 -0.4755
  117OSM    C2F12286   3.922   2.730   6.887  0.1547 -0.0895 -0.2519
  117OSM    H2F12287   3.909   2.641   6.822 -2.2613  1.5756 -2.2502
  117OSM    H2G12288   3.843   2.730   6.966  0.8654  0.4002  0.4686
  117OSM    C3F12289   4.063   2.728   6.963  0.1549 -0.4152 -0.4619
  117OSM    H3F12290   4.075   2.820   7.024  0.7587  0.1519 -1.4127
  117OSM    H3G12291   4.147   2.737   6.892  0.4748 -1.0515 -0.1711
  117OSM    C4F12292   4.091   2.604   7.045  0.8535  0.2577 -0.3090
  117OSM    H4F12293   4.104   2.513   6.983 -0.4742  0.3164 -0.7043
  117OSM    H4G12294   4.008   2.582   7.116  2.0887  0.7926  1.3735
  117OSM    C5F12295   4.224   2.612   7.126  0.0422 -0.2975 -0.0480
  117OSM    H5F12296   4.217   2.696   7.198  1.1711 -0.3634  0.1670
  117OSM    H5G12297   4.307   2.634   7.055 -0.3622 -1.3298 -0.8489
  117OSM    C6F12298   4.252   2.486   7.213  0.5506  0.1198 -0.1931
  117OSM    H6F12299   4.174   2.461   7.289  0.3120 -1.8456 -1.0154
  117OSM    H6G12300   4.340   2.512   7.276  0.5552 -0.6127  0.1114
  117OSM    C7F12301   4.271   2.354   7.138 -0.4188 -0.1184 -0.6104
  117OSM    H7F12302   4.349   2.376   7.062 -0.5824  0.9623 -0.4842
  117OSM    H7G12303   4.174   2.327   7.092  0.0934 -2.2491 -0.5211
  117OSM    C8F12304   4.323   2.246   7.233 -0.3390  0.4309 -0.2154
  117OSM    H8F12305   4.330   2.150   7.178 -1.4203  1.0069 -1.4058
  117OSM    H8G12306   4.254   2.240   7.320 -2.7769  2.2038 -1.8709
  117OSM    C9F12307   4.471   2.278   7.270  0.5868 -0.0004  0.6228
  117OSM    H9F12308   4.520   2.328   7.185 -1.5167  2.0192  0.4859
  117OSM   C10F12309   4.537   2.258   7.380 -0.3500  0.5614 -0.3385
  117OSM   H10F12310   4.644   2.282   7.376 -0.7410  2.4188 -0.5772
  117OSM   C11F12311   4.486   2.184   7.504  0.4760  0.5969 -0.4066
  117OSM   H11F12312   4.544   2.090   7.513 -2.1407 -0.9563  1.5258
  117OSM   H11G12313   4.383   2.145   7.515  0.9151 -0.3273  0.6397
  117OSM   C12F12314   4.497   2.259   7.634  0.1353 -0.3498 -0.9218
  117OSM   H12F12315   4.430   2.348   7.634  0.9966  0.3851  1.6106
  117OSM   H12G12316   4.594   2.313   7.648  0.1381 -0.9375  1.7013
  117OSM   C13F12317   4.473   2.172   7.754 -0.0075 -0.2782  0.2178
  117OSM   H13F12318   4.563   2.114   7.784 -0.4747 -1.2278 -0.1912
  117OSM   H13G12319   4.401   2.090   7.735 -0.2817  0.5566 -3.1083
  117OSM   C14F12320   4.419   2.262   7.863  0.4602 -0.2600 -0.6425
  117OSM   H14F12321   4.321   2.309   7.840 -0.1508 -1.1796  0.0178
  117OSM   H14G12322   4.488   2.347   7.877  0.1671 -0.0031 -0.7368
  117OSM   C15F12323   4.399   2.180   8.002 -0.2374  0.4288  0.2421
  117OSM   H15F12324   4.488   2.118   8.025 -0.8483 -0.3317  0.6074
  117OSM   H15G12325   4.309   2.114   7.999 -1.4127  1.9313  1.0727
  117OSM   C16F12326   4.384   2.276   8.115 -0.3308  0.2121  0.7494
  117OSM   H16F12327   4.307   2.347   8.077  1.2053  1.5434 -0.0177
  117OSM   H16G12328   4.474   2.341   8.120  0.6606 -1.1817  1.5172
  117OSM   C17F12329   4.330   2.225   8.244  0.5905 -0.2524 -0.7118
  117OSM   H17F12330   4.240   2.160   8.235 -1.9014  3.1023 -2.0515
  117OSM   H17G12331   4.408   2.165   8.296  0.1610 -0.5439 -0.3918
  117OSM   C18F12332   4.268   2.336   8.333 -0.1214  0.3897 -0.2877
  117OSM   H18F12333   4.256   2.293   8.434 -1.3342 -0.6344 -0.8351
  117OSM   H18G12334   4.163   2.356   8.303 -0.0670 -0.5610 -1.1754
  117OSM   H18H12335   4.322   2.433   8.332 -1.1849  0.9915 -1.3426
  118OSM      N12336   6.300   3.901   5.994 -0.0112 -0.0824 -0.1785
  118OSM    C1512337   6.288   3.824   6.132  0.3164 -0.7883 -0.1188
  118OSM   H15A12338   6.189   3.785   6.149  0.9002 -2.0393  0.5605
  118OSM   H15B12339   6.317   3.891   6.212  3.8922  1.8852 -3.2981
  118OSM   H15C12340   6.336   3.727   6.128 -1.0322 -1.4709 -0.4493
  118OSM    C1412341   6.251   4.040   6.009 -0.6526  0.1977  0.0706
  118OSM   H14A12342   6.284   4.099   5.924 -0.3731 -3.6553 -2.7943
  118OSM   H14B12343   6.279   4.086   6.103 -5.2151  1.6090  0.9692
  118OSM   H14C12344   6.145   4.056   6.010 -0.4396  1.8635  1.1551
  118OSM    C1312345   6.447   3.903   5.959 -0.2075  0.4446 -0.4241
  118OSM   H13A12346   6.491   3.807   5.934 -0.3319 -0.1232  1.3688
  118OSM   H13B12347   6.500   3.946   6.043  0.3526 -0.0647 -0.5088
  118OSM   H13C12348   6.458   3.973   5.878  2.5177  2.4264  1.4627
  118OSM    C1212349   6.228   3.829   5.887 -0.0074 -0.2984  0.2268
  118OSM   H12A12350   6.258   3.727   5.906  2.9435  0.2772 -0.7591
  118OSM   H12B12351   6.269   3.851   5.790  0.5687 -3.2004 -0.2721
  118OSM    C1112352   6.074   3.832   5.885 -0.6112  0.0212  0.1462
  118OSM   H11A12353   6.055   3.745   5.819  3.0167 -1.4738  0.8542
  118OSM   H11B12354   6.048   3.929   5.837 -1.4433 -0.2795 -0.0360
  118OSM      P12355   5.894   3.910   6.054  0.0726  0.4825  0.4308
  118OSM    O1312356   5.940   4.044   6.067 -0.2023 -0.2218 -0.0534
  118OSM    O1412357   5.771   3.877   5.975 -0.1264  0.0494  0.5660
  118OSM    O1112358   5.849   3.854   6.202 -0.2366  0.5623 -0.3517
  118OSM    O1212359   6.011   3.810   6.014  0.7208 -0.1297 -0.0276
  118OSM    C1S12360   5.937   3.812   6.306  0.1205  0.2290  0.2019
  118OSM    H1S12361   6.040   3.852   6.290 -0.7643  2.6021  0.1251
  118OSM    H1T12362   5.952   3.703   6.290  2.3476  0.8448 -2.7306
  118OSM     NF12363   5.990   3.825   6.542 -0.4841 -0.3041 -0.0267
  118OSM    HNF12364   5.961   3.741   6.588 -1.3408 -0.3327 -0.5873
  118OSM    C2S12365   5.897   3.875   6.440 -0.0717  0.1582 -0.3928
  118OSM    H2S12366   5.912   3.984   6.422  3.4089 -0.1624 -0.0271
  118OSM    C3S12367   5.746   3.846   6.467 -0.7324 -0.1416 -0.8290
  118OSM    H3S12368   5.713   3.741   6.455  2.6645 -1.6228  1.3872
  118OSM     O312369   5.665   3.925   6.385  0.8903  0.6196 -0.3487
  118OSM    HO312370   5.709   3.934   6.300  1.6504 -1.1818 -0.1930
  118OSM    C4S12371   5.710   3.892   6.611  0.3290 -0.7804 -1.4592
  118OSM    H4S12372   5.762   3.975   6.660 -2.7942  0.6702 -0.3964
  118OSM    C5S12373   5.623   3.830   6.697  0.4824 -0.6385  1.0124
  118OSM    H5S12374   5.583   3.737   6.655 -0.6084  1.1473 -2.2743
  118OSM    C6S12375   5.600   3.869   6.844 -0.9460 -0.3910 -0.1258
  118OSM    H6S12376   5.651   3.814   6.926  0.1078  0.0647 -0.4581
  118OSM    H6T12377   5.491   3.866   6.863 -0.7821 -3.1168  0.7603
  118OSM    C7S12378   5.646   4.017   6.875 -0.5518 -0.1523  0.2814
  118OSM    H7S12379   5.591   4.091   6.813  0.1899  0.5074  0.3988
  118OSM    H7T12380   5.756   4.018   6.858 -0.6642  1.3417 -0.4830
  118OSM    C8S12381   5.611   4.057   7.020 -0.0380  0.5140 -0.1524
  118OSM    H8S12382   5.689   4.127   7.058 -0.6869  0.4976  1.2916
  118OSM    H8T12383   5.598   3.970   7.088  2.2482 -0.6385 -1.0809
  118OSM    C9S12384   5.485   4.138   7.029  0.5988 -0.3357  0.3666
  118OSM    H9S12385   5.403   4.079   6.984  0.4865  0.4693 -0.5245
  118OSM    H9T12386   5.500   4.230   6.968  0.8269  0.7643  2.0115
  118OSM   C10S12387   5.449   4.172   7.175 -0.3601  0.4270  0.3618
  118OSM   H10S12388   5.524   4.242   7.218 -0.1835 -0.1867  1.0831
  118OSM   H10T12389   5.453   4.075   7.230 -1.7283  0.6980  0.9723
  118OSM   C11S12390   5.313   4.237   7.205 -0.1171  0.1454  0.3192
  118OSM   H11S12391   5.228   4.166   7.198 -0.8168  1.0784 -1.1105
  118OSM   H11T12392   5.283   4.323   7.142 -0.0602  0.6820  1.0130
  118OSM   C12S12393   5.309   4.286   7.351 -0.0588  0.6467 -0.1091
  118OSM   H12S12394   5.208   4.327   7.372  0.1615  0.9944  0.2811
  118OSM   H12T12395   5.381   4.370   7.355  1.0316 -0.2463 -0.4044
  118OSM   C13S12396   5.349   4.180   7.460 -0.0814 -1.3467  1.0075
  118OSM   H13S12397   5.456   4.155   7.450  0.6165  1.4252  0.7982
  118OSM   H13T12398   5.275   4.097   7.452 -2.0599  0.2853  1.4467
  118OSM   C14S12399   5.323   4.231   7.600 -0.2633 -0.0492 -0.4490
  118OSM   H14S12400   5.223   4.276   7.616  0.3574  1.2283 -0.0319
  118OSM   H14T12401   5.399   4.312   7.608 -0.5310  0.1657 -0.0235
  118OSM   C15S12402   5.344   4.108   7.695 -0.5886  0.6024  0.2779
  118OSM   H15S12403   5.434   4.045   7.679  1.0285  3.1898 -1.5667
  118OSM   H15T12404   5.254   4.044   7.679 -0.5149  0.7171 -0.6741
  118OSM   C16S12405   5.342   4.155   7.834  0.8277  0.2085 -0.0510
  118OSM   H16S12406   5.237   4.188   7.850 -0.0942 -1.2135 -2.5491
  118OSM   H16T12407   5.407   4.243   7.856  1.1608  0.8206 -3.0701
  118OSM   C17S12408   5.373   4.042   7.936 -0.1432  0.3134  0.5287
  118OSM   H17S12409   5.363   4.070   8.043  1.4786 -0.0712  0.8142
  118OSM   H17T12410   5.480   4.014   7.920 -0.8738 -3.1396  0.8794
  118OSM   C18S12411   5.316   3.906   7.914 -0.0689  0.2270 -0.4856
  118OSM   H18S12412   5.205   3.903   7.913 -0.0596 -0.1321 -0.6274
  118OSM   H18T12413   5.345   3.830   7.990  0.4400  1.5131  0.6455
  118OSM   H18U12414   5.341   3.872   7.811  2.2669  2.1980 -0.6506
  118OSM    C1F12415   6.113   3.870   6.552 -0.5953  0.4692 -0.6463
  118OSM     OF12416   6.142   3.959   6.482 -0.2691  0.0443  0.0827
  118OSM    C2F12417   6.201   3.815   6.664  0.0054  0.0795 -0.6914
  118OSM    H2F12418   6.295   3.768   6.628  1.1928  1.0270  1.0587
  118OSM    H2G12419   6.150   3.741   6.729  1.7824 -0.1160  0.5617
  118OSM    C3F12420   6.242   3.916   6.770  0.3114  0.4364  0.4176
  118OSM    H3F12421   6.148   3.970   6.792 -1.2886 -1.4052 -1.5210
  118OSM    H3G12422   6.322   3.987   6.741  1.8519 -0.9363  1.0986
  118OSM    C4F12423   6.284   3.840   6.900  0.7154  0.2048  0.3740
  118OSM    H4F12424   6.293   3.733   6.874 -1.5487  0.4509 -1.8144
  118OSM    H4G12425   6.205   3.844   6.978 -0.0676 -1.3992 -0.2881
  118OSM    C5F12426   6.410   3.895   6.967 -0.2506 -0.3882  0.5798
  118OSM    H5F12427   6.381   3.998   6.997 -0.7577 -0.4567  0.3433
  118OSM    H5G12428   6.499   3.893   6.900  1.2299  1.2938  2.3740
  118OSM    C6F12429   6.457   3.819   7.093 -0.7460  0.2853  0.0751
  118OSM    H6F12430   6.561   3.852   7.116  0.7494 -3.2377 -0.9568
  118OSM    H6G12431   6.461   3.711   7.068 -1.4759  0.6111 -1.5769
  118OSM    C7F12432   6.357   3.836   7.214  0.0525  0.2944  0.3336
  118OSM    H7F12433   6.264   3.811   7.158  0.6748 -0.1368 -0.5229
  118OSM    H7G12434   6.360   3.940   7.252  1.1074  0.2957  0.2708
  118OSM    C8F12435   6.378   3.732   7.331  0.3334 -0.8721  0.3815
  118OSM    H8F12436   6.481   3.743   7.371  0.3582  1.4752 -0.1473
  118OSM    H8G12437   6.373   3.630   7.287  0.3584 -0.4446 -0.6473
  118OSM    C9F12438   6.260   3.752   7.418 -0.3910 -0.0760 -0.2237
  118OSM    H9F12439   6.172   3.703   7.375 -0.5125  0.5705 -0.7210
  118OSM   C10F12440   6.265   3.827   7.531  0.0111  0.2236 -0.2401
  118OSM   H10F12441   6.170   3.833   7.587 -1.5582 -2.8403 -2.3206
  118OSM   C11F12442   6.377   3.898   7.593  0.2687  0.5177 -0.2978
  118OSM   H11F12443   6.341   4.003   7.599 -0.8592  0.1663 -0.5490
  118OSM   H11G12444   6.470   3.890   7.533  0.5562 -1.7435  0.3691
  118OSM   C12F12445   6.408   3.835   7.737 -0.0731 -0.2177  0.3558
  118OSM   H12F12446   6.503   3.886   7.764  0.1139  0.0164 -0.7248
  118OSM   H12G12447   6.418   3.725   7.733 -0.8235 -0.2572 -1.6122
  118OSM   C13F12448   6.317   3.874   7.846 -0.5210  0.8788 -0.8470
  118OSM   H13F12449   6.227   3.810   7.842  0.9186 -1.4003  0.6996
  118OSM   H13G12450   6.289   3.981   7.839 -1.4782  0.7982  1.1900
  118OSM   C14F12451   6.379   3.850   7.981  0.2398  0.1497  0.8426
  118OSM   H14F12452   6.332   3.927   8.045  0.3751  2.0766 -1.2264
  118OSM   H14G12453   6.488   3.867   7.967  0.5475 -1.6977  0.6864
  118OSM   C15F12454   6.373   3.707   8.035 -0.1631  0.4154  0.0387
  118OSM   H15F12455   6.440   3.638   7.980  2.2365  0.8904  2.1957
  118OSM   H15G12456   6.268   3.670   8.026  0.0245 -0.3388  0.8746
  118OSM   C16F12457   6.422   3.695   8.179 -0.6810  0.3648 -0.5396
  118OSM   H16F12458   6.384   3.778   8.243 -0.9219  1.4527 -2.0198
  118OSM   H16G12459   6.531   3.679   8.195 -0.3066  3.2542  0.5101
  118OSM   C17F12460   6.377   3.563   8.250  0.0910  0.4089  0.5914
  118OSM   H17F12461   6.405   3.476   8.187 -0.6715  1.2089 -0.9344
  118OSM   H17G12462   6.266   3.558   8.250 -0.0825  2.8233 -0.3380
  118OSM   C18F12463   6.424   3.554   8.396 -0.3545 -0.4764 -0.6609
  118OSM   H18F12464   6.384   3.454   8.426 -0.0452 -0.8234 -1.3854
  118OSM   H18G12465   6.372   3.633   8.455 -1.6678 -0.7660 -1.3827
  118OSM   H18H12466   6.533   3.567   8.410 -0.6634  0.8260  0.7916
  119OSM      N12467   0.031   3.616   5.809 -0.2071  0.4032 -0.0758
  119OSM    C1512468   0.032   3.593   5.957 -0.5199  0.8891  0.0048
  119OSM   H15A12469   0.058   3.492   5.988 -2.7416  0.7032  1.4914
  119OSM   H15B12470  -0.070   3.612   5.987 -0.6949  0.8666 -0.5668
  119OSM   H15C12471   0.099   3.660   6.009 -0.8649  1.9347 -0.8626
  119OSM    C1412472   0.061   3.756   5.774  0.8085  0.3755  0.0193
  119OSM   H14A12473   0.076   3.768   5.668  0.5688 -0.4023 -0.1097
  119OSM   H14B12474   0.151   3.794   5.821  0.3955  1.9539 -0.4418
  119OSM   H14C12475  -0.020   3.814   5.815  0.5365  0.3406 -0.4593
  119OSM    C1312476   0.146   3.534   5.765  0.3850 -0.0012 -0.3915
  119OSM   H13A12477   0.129   3.430   5.787  1.4182 -0.2196 -0.6090
  119OSM   H13B12478   0.237   3.566   5.814  1.9041 -0.3000 -2.8333
  119OSM   H13C12479   0.162   3.528   5.659  0.5144 -0.9636 -0.3217
  119OSM    C1212480  -0.093   3.559   5.749 -0.1561 -0.3110 -0.1871
  119OSM   H12A12481  -0.105   3.455   5.774 -2.2064 -0.3971 -1.3113
  119OSM   H12B12482  -0.086   3.572   5.642  0.9287  3.4051  0.1649
  119OSM    C1112483  -0.230   3.624   5.790  0.1505  0.3106  0.0567
  119OSM   H11A12484  -0.308   3.586   5.721 -0.2054  1.5144 -0.2359
  119OSM   H11B12485  -0.226   3.733   5.769 -1.9955  0.7838  1.6942
  119OSM      P12486  -0.376   3.510   5.970 -0.2335  0.1274 -0.0202
  119OSM    O1312487  -0.495   3.552   5.893  0.4394 -0.1397 -0.2046
  119OSM    O1412488  -0.326   3.374   5.951  0.3354 -0.5281 -0.0458
  119OSM    O1112489  -0.403   3.540   6.122  0.2758 -0.4317 -0.1930
  119OSM    O1212490  -0.266   3.614   5.935 -0.1726 -0.1200 -0.1502
  119OSM    C1S12491  -0.298   3.592   6.203  0.7633  0.2850  0.3406
  119OSM    H1S12492  -0.262   3.692   6.170  0.0673 -0.1802 -1.9943
  119OSM    H1T12493  -0.212   3.523   6.193  0.7741  0.4609 -0.9748
  119OSM     NF12494  -0.267   3.678   6.436 -0.6322  0.0760 -0.1717
  119OSM    HNF12495  -0.210   3.625   6.498  0.0877 -0.7795 -1.5148
  119OSM    C2S12496  -0.353   3.597   6.350 -0.0443  0.1761  0.5705
  119OSM    H2S12497  -0.454   3.643   6.343 -1.1217 -2.1280  0.1205
  119OSM    C3S12498  -0.379   3.453   6.407  0.7924  0.2568  0.5880
  119OSM    H3S12499  -0.283   3.399   6.402 -0.3461 -1.7341 -1.8482
  119OSM     O312500  -0.473   3.374   6.335  0.1069  0.4201  0.2231
  119OSM    HO312501  -0.464   3.406   6.245 -0.9565  0.6509  0.1864
  119OSM    C4S12502  -0.421   3.463   6.558 -0.7353 -0.1292  0.3954
  119OSM    H4S12503  -0.339   3.465   6.631  0.1552 -0.5130 -0.5755
  119OSM    C5S12504  -0.545   3.467   6.610 -0.4110 -0.9486 -0.1909
  119OSM    H5S12505  -0.625   3.454   6.535  0.0971  1.1672 -1.1864
  119OSM    C6S12506  -0.578   3.450   6.755  0.0430 -0.1909  0.5961
  119OSM    H6S12507  -0.650   3.364   6.758 -0.0093 -0.3045 -1.6435
  119OSM    H6T12508  -0.629   3.541   6.792  0.4197  0.8089 -1.2363
  119OSM    C7S12509  -0.464   3.406   6.844 -0.2011 -0.9943  0.0486
  119OSM    H7S12510  -0.406   3.499   6.863  1.3499 -1.4351 -2.1465
  119OSM    H7T12511  -0.396   3.336   6.792  1.8911  0.2224  1.0268
  119OSM    C8S12512  -0.512   3.357   6.979 -0.1283  0.0150 -0.3284
  119OSM    H8S12513  -0.605   3.417   6.994 -0.5373 -0.6061 -0.3596
  119OSM    H8T12514  -0.438   3.385   7.056  2.2914  1.3659 -2.9453
  119OSM    C9S12515  -0.556   3.210   6.972 -0.2998 -0.1355 -0.3837
  119OSM    H9S12516  -0.638   3.205   6.897 -1.3795  0.4949  0.7224
  119OSM    H9T12517  -0.586   3.185   7.076 -0.3993  2.3930  0.2545
  119OSM   C10S12518  -0.443   3.107   6.939  0.0631  0.2227 -0.1952
  119OSM   H10S12519  -0.394   3.143   6.847  0.0308  0.1373 -0.2449
  119OSM   H10T12520  -0.491   3.008   6.921  0.9064  0.0165 -1.3900
  119OSM   C11S12521  -0.328   3.083   7.044 -0.3857  0.2229 -0.1369
  119OSM   H11S12522  -0.244   3.154   7.030 -0.1802 -0.2088 -1.1225
  119OSM   H11T12523  -0.300   2.978   7.024 -3.1364 -0.6821  0.2845
  119OSM   C12S12524  -0.368   3.088   7.193 -0.3964 -0.1301  0.1511
  119OSM   H12S12525  -0.456   3.020   7.205  1.2586 -2.4869 -0.2160
  119OSM   H12T12526  -0.406   3.190   7.211  0.6625  0.2545  0.2910
  119OSM   C13S12527  -0.255   3.070   7.284  0.5701  0.4567  0.4158
  119OSM   H13S12528  -0.162   3.112   7.240  0.7478 -0.6559 -0.3274
  119OSM   H13T12529  -0.237   2.962   7.299 -0.3353  0.3245  0.6403
  119OSM   C14S12530  -0.277   3.132   7.423  0.3311 -0.3004  0.6529
  119OSM   H14S12531  -0.343   3.069   7.486 -1.2968 -0.8752 -1.4903
  119OSM   H14T12532  -0.318   3.236   7.417 -0.6765 -0.7009  0.3230
  119OSM   C15S12533  -0.145   3.135   7.494 -0.1463 -0.3682  0.3530
  119OSM   H15S12534  -0.089   3.221   7.451  0.7164 -1.8929 -1.7753
  119OSM   H15T12535  -0.085   3.044   7.471  1.8749  1.2160 -0.8981
  119OSM   C16S12536  -0.158   3.147   7.652 -0.3865  0.4603  1.0806
  119OSM   H16S12537  -0.219   3.068   7.700 -1.0750  0.5503  0.3714
  119OSM   H16T12538  -0.206   3.246   7.664 -1.7176 -0.3329  2.6729
  119OSM   C17S12539  -0.011   3.155   7.708 -0.0060  0.1780 -0.5187
  119OSM   H17S12540  -0.004   3.245   7.773  0.0697 -0.5366  0.4785
  119OSM   H17T12541   0.056   3.179   7.623 -1.1112 -0.5288 -1.6267
  119OSM   C18S12542   0.048   3.024   7.761  0.4922 -0.2569  0.6246
  119OSM   H18S12543   0.003   2.997   7.859 -1.4620 -2.5035 -0.7649
  119OSM   H18T12544   0.159   3.031   7.763  0.5702  1.9420 -2.9635
  119OSM   H18U12545   0.015   2.946   7.688 -2.0969  1.3087 -0.0019
  119OSM    C1F12546  -0.274   3.811   6.434  1.0125 -0.4065 -0.1016
  119OSM     OF12547  -0.308   3.877   6.334  0.4877 -0.1200 -0.1604
  119OSM    C2F12548  -0.251   3.871   6.570 -0.3398  0.4171 -0.2966
  119OSM    H2F12549  -0.224   3.789   6.640  3.1669  0.3992 -1.4647
  119OSM    H2G12550  -0.346   3.907   6.615 -0.6317 -1.2561  0.4836
  119OSM    C3F12551  -0.148   3.981   6.552  0.2559 -0.5463 -0.4604
  119OSM    H3F12552  -0.181   4.059   6.480 -0.1060 -0.3616 -0.1002
  119OSM    H3G12553  -0.052   3.941   6.515  0.1182 -2.2033  0.9006
  119OSM    C4F12554  -0.117   4.052   6.686  0.3190  0.3679  0.8132
  119OSM    H4F12555  -0.020   4.104   6.673 -0.5666  1.5804 -1.7656
  119OSM    H4G12556  -0.092   3.987   6.772 -1.2764  1.5868  2.2950
  119OSM    C5F12557  -0.225   4.150   6.736  0.3915  0.4244 -0.5591
  119OSM    H5F12558  -0.307   4.087   6.777  2.5940 -3.4889 -1.6435
  119OSM    H5G12559  -0.254   4.222   6.657  0.6317  1.9280  0.6729
  119OSM    C6F12560  -0.175   4.230   6.858 -0.5132 -0.1463 -0.9710
  119OSM    H6F12561  -0.239   4.317   6.883  0.6804 -0.2310  3.0722
  119OSM    H6G12562  -0.075   4.271   6.833 -0.3494  0.6441  0.8217
  119OSM    C7F12563  -0.152   4.143   6.987 -0.5571  0.2283  0.4046
  119OSM    H7F12564  -0.092   4.058   6.948 -1.6535 -0.5915  0.4558
  119OSM    H7G12565  -0.253   4.102   7.011  0.7319 -1.5211  3.2792
  119OSM    C8F12566  -0.083   4.212   7.106  0.0516 -0.2045  0.4158
  119OSM    H8F12567   0.016   4.243   7.066 -1.1281 -0.4102 -2.9783
  119OSM    H8G12568  -0.059   4.136   7.183  1.6244  0.5955  0.7533
  119OSM    C9F12569  -0.154   4.336   7.150 -0.3809 -0.3237 -1.5592
  119OSM    H9F12570  -0.130   4.434   7.109  0.3260  0.7283  1.1562
  119OSM   C10F12571  -0.248   4.327   7.244 -0.0389  0.3542  0.2002
  119OSM   H10F12572  -0.292   4.423   7.273  2.3553  1.5563  0.0491
  119OSM   C11F12573  -0.311   4.202   7.305  0.4170  0.1364 -1.2334
  119OSM   H11F12574  -0.329   4.130   7.222  2.4758 -0.8329 -0.9023
  119OSM   H11G12575  -0.403   4.224   7.363  1.4141  0.5018  0.2663
  119OSM   C12F12576  -0.220   4.134   7.408  0.3532 -0.1155 -1.0945
  119OSM   H12F12577  -0.111   4.132   7.387  0.5915 -3.7015 -0.1808
  119OSM   H12G12578  -0.262   4.031   7.410 -1.7396  0.6511 -2.7306
  119OSM   C13F12579  -0.238   4.199   7.548 -0.9382 -0.2806 -0.3373
  119OSM   H13F12580  -0.343   4.212   7.583 -1.0094 -2.0340  0.1836
  119OSM   H13G12581  -0.194   4.301   7.537 -1.0237 -0.3376 -1.2428
  119OSM   C14F12582  -0.160   4.139   7.664 -0.3481  0.1815 -0.1199
  119OSM   H14F12583  -0.052   4.136   7.639  0.7629  1.3531  3.8960
  119OSM   H14G12584  -0.197   4.038   7.691  0.8589 -0.2580 -0.0393
  119OSM   C15F12585  -0.188   4.218   7.797 -0.2561 -0.0561 -0.4708
  119OSM   H15F12586  -0.298   4.238   7.803 -0.3155  1.1726 -3.6680
  119OSM   H15G12587  -0.141   4.319   7.797  0.8086 -0.4571  2.3939
  119OSM   C16F12588  -0.141   4.133   7.917  0.0147 -0.2680 -0.6721
  119OSM   H16F12589  -0.186   4.032   7.905  1.8636 -1.0977 -0.8972
  119OSM   H16G12590  -0.181   4.176   8.011  0.0532 -1.2932 -0.1737
  119OSM   C17F12591   0.012   4.123   7.932 -0.2981  0.1039  0.6573
  119OSM   H17F12592   0.056   4.217   7.972  0.7994 -0.3821  0.6277
  119OSM   H17G12593   0.065   4.098   7.838 -1.0484 -2.8044  0.9147
  119OSM   C18F12594   0.038   4.019   8.047 -0.4240  0.2235  0.3328
  119OSM   H18F12595   0.148   4.010   8.065  0.1778  1.9642 -2.0079
  119OSM   H18G12596  -0.007   3.918   8.034  2.3062 -1.1177  0.5730
  119OSM   H18H12597  -0.005   4.043   8.146 -0.5894  0.5967  0.1730
  120OSM      N12598   3.696   0.449   6.303 -0.1370  0.4187  0.4526
  120OSM    C1512599   3.617   0.572   6.273  0.3614 -0.2315 -0.4196
  120OSM   H15A12600   3.542   0.555   6.198  0.2128 -0.0427 -0.3143
  120OSM   H15B12601   3.671   0.662   6.248 -0.0197 -0.0880 -0.7446
  120OSM   H15C12602   3.563   0.605   6.360  0.0991 -2.1710  0.2148
  120OSM    C1412603   3.803   0.432   6.199  0.6015  0.0028  0.6877
  120OSM   H14A12604   3.872   0.356   6.233 -1.0955 -0.6241  2.9380
  120OSM   H14B12605   3.862   0.518   6.170 -1.8810  1.4913 -0.2135
  120OSM   H14C12606   3.757   0.397   6.108 -0.1906  2.7597 -0.0636
  120OSM    C1312607   3.766   0.465   6.435 -0.4378 -0.9088 -0.1629
  120OSM   H13A12608   3.831   0.551   6.423  0.2286 -1.4410 -0.4665
  120OSM   H13B12609   3.825   0.377   6.460 -0.9721 -0.9780  0.9386
  120OSM   H13C12610   3.701   0.488   6.518 -0.4484  1.6200 -0.8121
  120OSM    C1212611   3.600   0.329   6.323 -0.8205  0.2001 -0.9742
  120OSM   H12A12612   3.557   0.324   6.422 -1.9258 -0.3499 -1.4572
  120OSM   H12B12613   3.667   0.244   6.320 -0.5645  0.3501  0.1943
  120OSM    C1112614   3.491   0.314   6.212  0.3672  0.1078  0.2882
  120OSM   H11A12615   3.454   0.211   6.231  1.3980  0.0020  1.9437
  120OSM   H11B12616   3.536   0.313   6.110 -1.4337 -0.4250 -0.5289
  120OSM      P12617   3.250   0.400   6.279 -0.6494 -0.0152  0.1365
  120OSM    O1312618   3.187   0.536   6.286 -0.4902 -0.1514  0.4363
  120OSM    O1412619   3.166   0.297   6.211 -0.8124 -0.3680 -0.3460
  120OSM    O1112620   3.280   0.350   6.427 -0.4183  0.1577 -0.8644
  120OSM    O1212621   3.388   0.417   6.216 -0.1726  0.1823  0.3157
  120OSM    C1S12622   3.316   0.447   6.521 -0.1304 -0.4514  0.0108
  120OSM    H1S12623   3.237   0.525   6.528 -1.0387 -1.3785  0.1636
  120OSM    H1T12624   3.416   0.491   6.499 -0.2916 -0.2008 -0.2320
  120OSM     NF12625   3.338   0.471   6.765 -0.2147  0.3974  0.0738
  120OSM    HNF12626   3.420   0.457   6.821  0.0890 -2.1840 -0.8951
  120OSM    C2S12627   3.321   0.375   6.658  0.0662 -0.2570 -0.1158
  120OSM    H2S12628   3.224   0.321   6.664 -0.1769  0.0818 -0.9055
  120OSM    C3S12629   3.434   0.263   6.655  0.5054  0.5582 -0.1362
  120OSM    H3S12630   3.529   0.308   6.621  1.6546 -1.0199  0.8740
  120OSM     O312631   3.413   0.163   6.558  0.3392 -0.3082 -0.3865
  120OSM    HO312632   3.349   0.206   6.500  1.5235  1.9451 -0.1539
  120OSM    C4S12633   3.447   0.191   6.784 -0.7219  0.0173 -0.6532
  120OSM    H4S12634   3.363   0.131   6.821 -0.9166  1.1358  0.7707
  120OSM    C5S12635   3.565   0.166   6.850 -0.4166 -0.4522  0.6320
  120OSM    H5S12636   3.657   0.207   6.804 -2.0472  0.6474 -1.8894
  120OSM    C6S12637   3.594   0.094   6.973 -0.4787  0.4100 -0.3354
  120OSM    H6S12638   3.665   0.152   7.036 -2.1893 -1.5926  3.8546
  120OSM    H6T12639   3.651   0.006   6.937  1.1540  1.8656 -1.4874
  120OSM    C7S12640   3.482   0.045   7.070 -1.2858  0.5566  0.4592
  120OSM    H7S12641   3.429  -0.036   7.014  1.6339 -0.2434 -1.3877
  120OSM    H7T12642   3.414   0.130   7.090 -2.5635 -0.5195  0.8532
  120OSM    C8S12643   3.547  -0.016   7.192  0.5951  0.0424 -0.3905
  120OSM    H8S12644   3.597   0.073   7.235  0.3719  0.4414 -0.9625
  120OSM    H8T12645   3.624  -0.095   7.173  1.2113  0.8742 -1.4658
  120OSM    C9S12646   3.442  -0.078   7.283 -0.3337  0.0645  0.2491
  120OSM    H9S12647   3.492  -0.105   7.378 -2.4728  1.6929  1.9755
  120OSM    H9T12648   3.403  -0.164   7.226 -2.6918  1.0992  0.1563
  120OSM   C10S12649   3.323   0.012   7.316  0.1011  0.0856  0.6351
  120OSM   H10S12650   3.275   0.024   7.217  0.2137 -2.0480  0.2763
  120OSM   H10T12651   3.354   0.110   7.358  0.5022 -0.3975  1.4994
  120OSM   C11S12652   3.240  -0.058   7.411 -0.7858 -0.5314 -0.3196
  120OSM   H11S12653   3.218  -0.158   7.370 -2.3993 -0.0225 -0.7524
  120OSM   H11T12654   3.153   0.006   7.438  1.8901  3.1228  0.4137
  120OSM   C12S12655   3.317  -0.093   7.543 -0.0860 -0.3463 -0.0865
  120OSM   H12S12656   3.372   0.000   7.568 -0.7636  0.0862 -0.1800
  120OSM   H12T12657   3.374  -0.187   7.528 -0.2308 -0.5237  0.4314
  120OSM   C13S12658   3.228  -0.133   7.660 -0.1645  0.5160  0.2262
  120OSM   H13S12659   3.168  -0.222   7.632 -0.9069  1.1127 -0.1224
  120OSM   H13T12660   3.162  -0.045   7.676 -0.7561 -0.1654  1.8628
  120OSM   C14S12661   3.298  -0.181   7.789  0.4467  0.1103  0.7122
  120OSM   H14S12662   3.404  -0.148   7.778  1.1013 -1.1710  2.5788
  120OSM   H14T12663   3.299  -0.292   7.793 -1.5663  0.0935  1.5251
  120OSM   C15S12664   3.253  -0.113   7.915  0.8626  0.5840 -0.5203
  120OSM   H15S12665   3.160  -0.153   7.960  1.7307  0.9009  1.6517
  120OSM   H15T12666   3.239  -0.003   7.904  0.9614  0.5056 -1.6083
  120OSM   C16S12667   3.370  -0.131   8.010  0.5793  0.5940 -0.0981
  120OSM   H16S12668   3.446  -0.056   7.980  0.9722 -0.6524 -2.5084
  120OSM   H16T12669   3.425  -0.228   8.004  0.8764  0.8275 -1.7286
  120OSM   C17S12670   3.336  -0.107   8.151 -0.7777  0.5640 -0.5966
  120OSM   H17S12671   3.242  -0.163   8.172 -0.2421  0.4538  1.8423
  120OSM   H17T12672   3.325   0.003   8.163 -0.2912  0.8203 -2.3257
  120OSM   C18S12673   3.436  -0.160   8.255  0.1859  0.0901 -0.3026
  120OSM   H18S12674   3.492  -0.255   8.238  1.0864  0.6978 -0.7747
  120OSM   H18T12675   3.381  -0.184   8.349 -0.0802 -0.9599 -0.7099
  120OSM   H18U12676   3.500  -0.077   8.293 -0.3435 -0.5628  2.2039
  120OSM    C1F12677   3.245   0.547   6.799  0.0135 -0.1346  0.3566
  120OSM     OF12678   3.138   0.546   6.742  0.2332 -0.1665 -0.1891
  120OSM    C2F12679   3.274   0.625   6.924  0.3121  0.3991  0.2407
  120OSM    H2F12680   3.353   0.698   6.899 -0.7282  1.1743 -0.8916
  120OSM    H2G12681   3.296   0.552   7.005 -0.6199  1.4528  1.4783
  120OSM    C3F12682   3.149   0.704   6.971  0.6868  0.1533 -0.2806
  120OSM    H3F12683   3.078   0.625   7.005  1.0397 -0.0226  0.0625
  120OSM    H3G12684   3.106   0.766   6.890 -0.0068  0.2696  0.1677
  120OSM    C4F12685   3.175   0.800   7.089 -0.6483  0.4143 -0.0202
  120OSM    H4F12686   3.082   0.839   7.134  0.0724 -0.2250  2.1751
  120OSM    H4G12687   3.233   0.884   7.045  1.7681 -0.8924  0.4775
  120OSM    C5F12688   3.250   0.719   7.202 -0.2020  0.8907  0.6372
  120OSM    H5F12689   3.359   0.714   7.184 -0.4327  1.5732 -1.2093
  120OSM    H5G12690   3.212   0.619   7.228  2.4097 -1.3284 -3.0687
  120OSM    C6F12691   3.224   0.798   7.327 -0.4978  0.2384 -0.7442
  120OSM    H6F12692   3.266   0.901   7.326  0.1391 -0.0236 -0.9956
  120OSM    H6G12693   3.270   0.751   7.417  1.5801  0.8523 -1.4386
  120OSM    C7F12694   3.078   0.812   7.368 -0.6154  0.0577 -0.1099
  120OSM    H7F12695   3.022   0.723   7.332 -0.7780  1.1408 -2.7172
  120OSM    H7G12696   3.035   0.902   7.320 -2.5453 -0.6205  0.2845
  120OSM    C8F12697   3.058   0.823   7.519 -0.8753  0.6188 -0.3299
  120OSM    H8F12698   3.109   0.916   7.551 -0.2391 -0.1235  0.8872
  120OSM    H8G12699   3.104   0.732   7.562  2.0428  1.8475 -0.6628
  120OSM    C9F12700   2.915   0.823   7.557 -0.2351  0.3695  0.4788
  120OSM    H9F12701   2.874   0.728   7.521  1.5046  0.6436 -2.5905
  120OSM   C10F12702   2.841   0.917   7.613 -0.3376  0.6285  0.3282
  120OSM   H10F12703   2.735   0.894   7.629 -0.2931 -0.6860 -1.0650
  120OSM   C11F12704   2.878   1.047   7.678 -0.2316 -0.3964  0.2062
  120OSM   H11F12705   2.806   1.124   7.646  0.0560 -0.0743  0.3276
  120OSM   H11G12706   2.975   1.079   7.635 -0.3495 -0.1856  0.1008
  120OSM   C12F12707   2.880   1.037   7.830 -0.5465 -0.3066  0.1602
  120OSM   H12F12708   2.781   1.007   7.871 -0.2773 -0.8786  0.4061
  120OSM   H12G12709   2.889   1.141   7.868 -1.5930 -0.6871  1.5618
  120OSM   C13F12710   2.998   0.960   7.895 -0.3124 -0.0668  0.3552
  120OSM   H13F12711   3.095   1.004   7.864 -0.0878 -1.0875 -0.4261
  120OSM   H13G12712   3.003   0.853   7.865 -0.1383  0.4093 -1.4335
  120OSM   C14F12713   2.986   0.949   8.048  0.1962 -0.5642  0.2468
  120OSM   H14F12714   3.013   1.045   8.097 -0.4239 -0.3918  0.2598
  120OSM   H14G12715   3.072   0.883   8.072  0.7529 -1.3192 -3.2470
  120OSM   C15F12716   2.855   0.888   8.097 -0.7724 -0.9916  0.6236
  120OSM   H15F12717   2.834   0.801   8.030  2.8356 -1.8665  0.3915
  120OSM   H15G12718   2.776   0.964   8.080 -0.3334 -0.2071  1.9961
  120OSM   C16F12719   2.841   0.851   8.249  0.8581  1.3769 -0.5101
  120OSM   H16F12720   2.868   0.744   8.259 -1.8514  0.7878  1.9338
  120OSM   H16G12721   2.732   0.864   8.269  0.1590 -2.9208 -0.6516
  120OSM   C17F12722   2.930   0.939   8.336 -0.4658  0.5694 -0.0933
  120OSM   H17F12723   2.896   1.044   8.328  0.3992  0.9201  0.5727
  120OSM   H17G12724   3.039   0.921   8.318 -0.3668 -1.2901  1.8990
  120OSM   C18F12725   2.919   0.905   8.483  0.2566  0.0834 -0.2888
  120OSM   H18F12726   2.977   0.972   8.550 -0.3243  1.1571 -0.8326
  120OSM   H18G12727   2.948   0.802   8.514  0.1222  0.3877  0.8829
  120OSM   H18H12728   2.810   0.903   8.506  0.4717 -1.6740  0.8619
  121OSM      N12729   0.705   3.305   6.121  0.0209  0.5126  0.2269
  121OSM    C1512730   0.612   3.287   6.001 -0.2491 -0.6799  0.2440
  121OSM   H15A12731   0.513   3.326   6.021  0.2890  0.0461  1.5992
  121OSM   H15B12732   0.587   3.185   5.975 -1.3584 -0.5892  0.8959
  121OSM   H15C12733   0.666   3.323   5.915  0.1390  0.3569  0.9059
  121OSM    C1412734   0.832   3.240   6.086  0.2621  1.0185  0.4609
  121OSM   H14A12735   0.907   3.249   6.163  0.5483 -0.1262  0.3309
  121OSM   H14B12736   0.880   3.282   5.998 -0.3291 -0.9891 -0.8808
  121OSM   H14C12737   0.823   3.133   6.076  0.0625  1.2621 -3.3382
  121OSM    C1312738   0.735   3.454   6.149  0.1735 -0.5325 -0.1683
  121OSM   H13A12739   0.758   3.506   6.057  0.0103 -0.7784 -0.3523
  121OSM   H13B12740   0.812   3.468   6.223  0.0228 -2.1889  0.3623
  121OSM   H13C12741   0.641   3.488   6.190  0.4559  0.6066 -0.4506
  121OSM    C1212742   0.659   3.236   6.245  0.4619  0.2087 -0.5616
  121OSM   H12A12743   0.744   3.229   6.311  0.1089  2.2023  0.1687
  121OSM   H12B12744   0.632   3.133   6.227 -0.8206  0.8543 -2.6836
  121OSM    C1112745   0.536   3.279   6.328  0.3484  0.4478  0.2801
  121OSM   H11A12746   0.548   3.389   6.344  0.7974  0.7906 -1.9500
  121OSM   H11B12747   0.517   3.220   6.419  0.4160 -1.8865 -1.1442
  121OSM      P12748   0.361   3.106   6.219  0.1866 -0.0826 -0.0335
  121OSM    O1312749   0.214   3.127   6.193 -0.0316 -0.6551 -0.4668
  121OSM    O1412750   0.445   3.038   6.113  0.1635  0.2362 -0.1269
  121OSM    O1112751   0.380   3.038   6.365  0.0318 -0.5725  0.0314
  121OSM    O1212752   0.420   3.254   6.247 -0.0509 -0.1745  0.1383
  121OSM    C1S12753   0.290   2.936   6.415  0.2984 -0.3123 -0.0063
  121OSM    H1S12754   0.327   2.840   6.374  2.2833 -1.9342  4.9014
  121OSM    H1T12755   0.187   2.953   6.376  1.2689  0.8263 -2.2520
  121OSM     NF12756   0.264   2.800   6.627 -0.2387 -0.1004  0.0006
  121OSM    HNF12757   0.177   2.776   6.670  0.6405 -0.6713  1.5112
  121OSM    C2S12758   0.298   2.932   6.569 -0.5125  0.4461 -0.1487
  121OSM    H2S12759   0.400   2.958   6.603 -0.3240 -0.5811  0.0985
  121OSM    C3S12760   0.207   3.041   6.623 -0.2647 -0.1795 -0.0291
  121OSM    H3S12761   0.108   2.997   6.599 -0.0402  0.2130 -1.8333
  121OSM     O312762   0.240   3.169   6.562  0.0135 -0.1934 -0.3430
  121OSM    HO312763   0.291   3.145   6.484  0.1683  0.4947 -0.4573
  121OSM    C4S12764   0.214   3.057   6.772  0.5825 -0.5271 -0.0130
  121OSM    H4S12765   0.321   3.050   6.797  0.0760  0.5041  2.7856
  121OSM    C5S12766   0.111   3.053   6.864 -0.0167  0.2138  0.1823
  121OSM    H5S12767   0.010   3.043   6.821 -0.2804  1.4060  0.4691
  121OSM    C6S12768   0.123   3.063   7.019  0.3461 -0.3955  1.2171
  121OSM    H6S12769   0.064   3.151   7.050 -0.5223 -0.1942 -0.8132
  121OSM    H6T12770   0.228   3.090   7.045  1.6379 -1.1953 -2.5074
  121OSM    C7S12771   0.082   2.931   7.076  0.6903 -0.3362  0.4339
  121OSM    H7S12772   0.137   2.841   7.041 -0.0303 -1.5126  2.1759
  121OSM    H7T12773  -0.027   2.913   7.066  0.4230  0.7564  1.2710
  121OSM    C8S12774   0.093   2.927   7.232 -0.4002 -0.7235  0.3313
  121OSM    H8S12775   0.023   2.999   7.277  0.2346  1.2670 -1.6901
  121OSM    H8T12776   0.196   2.953   7.265  0.1182 -2.0875 -0.1129
  121OSM    C9S12777   0.058   2.788   7.281 -0.0890  0.2668 -0.3729
  121OSM    H9S12778   0.142   2.729   7.236  0.7217 -0.7172  2.2513
  121OSM    H9T12779  -0.042   2.760   7.241 -0.1724  1.2176 -0.8475
  121OSM   C10S12780   0.082   2.775   7.437 -0.0508 -0.4772  0.0029
  121OSM   H10S12781   0.033   2.859   7.489  1.4519  0.2199  0.3480
  121OSM   H10T12782   0.191   2.793   7.451 -0.6417  2.2288  1.9762
  121OSM   C11S12783   0.034   2.642   7.486  0.0704  0.5331 -0.4919
  121OSM   H11S12784   0.080   2.562   7.423  0.8032 -0.0067  0.6897
  121OSM   H11T12785  -0.075   2.632   7.467  0.4429 -1.9010 -1.8999
  121OSM   C12S12786   0.068   2.609   7.629  0.3043  0.4785  0.5815
  121OSM   H12S12787   0.106   2.693   7.691  0.3643  0.1089  1.0495
  121OSM   H12T12788   0.163   2.551   7.628  0.5047  0.7522  2.0388
  121OSM   C13S12789  -0.042   2.541   7.697  0.1779  0.1518 -0.2307
  121OSM   H13S12790  -0.054   2.440   7.652  0.9812  0.6360 -1.5943
  121OSM   H13T12791  -0.136   2.598   7.680  0.4146  0.3995 -0.7179
  121OSM   C14S12792  -0.021   2.513   7.851 -0.2420  0.3456  0.1291
  121OSM   H14S12793  -0.122   2.521   7.897 -1.6387 -0.6903 -2.5278
  121OSM   H14T12794   0.045   2.597   7.881  1.2854 -0.7924  0.1120
  121OSM   C15S12795   0.035   2.383   7.888 -0.7127 -0.0705  0.6207
  121OSM   H15S12796  -0.015   2.300   7.833  2.1720 -2.0954  0.8361
  121OSM   H15T12797   0.011   2.363   7.995  0.9784  0.3993  1.1142
  121OSM   C16S12798   0.192   2.385   7.868  0.3638 -0.9309  0.4469
  121OSM   H16S12799   0.240   2.482   7.892 -0.0256  0.0162 -2.2538
  121OSM   H16T12800   0.216   2.371   7.761  0.0424 -0.5308  0.3195
  121OSM   C17S12801   0.251   2.267   7.936 -0.1627  0.6533  0.3099
  121OSM   H17S12802   0.360   2.259   7.916 -0.4056  0.2540 -0.9381
  121OSM   H17T12803   0.203   2.177   7.893  1.3186  0.7066 -1.6252
  121OSM   C18S12804   0.244   2.255   8.084 -0.1229 -0.0047  0.2316
  121OSM   H18S12805   0.302   2.163   8.106 -1.7518 -1.5224 -1.5086
  121OSM   H18T12806   0.138   2.247   8.117 -1.3041 -1.4512 -3.4135
  121OSM   H18U12807   0.296   2.343   8.129  2.1394 -1.2588  0.2103
  121OSM    C1F12808   0.331   2.685   6.603 -0.9427 -0.4451  0.2675
  121OSM     OF12809   0.438   2.698   6.533  0.4250  0.3100 -0.3210
  121OSM    C2F12810   0.286   2.554   6.659  0.1133 -0.0582 -0.3439
  121OSM    H2F12811   0.362   2.481   6.623 -0.3773 -1.3925  1.2377
  121OSM    H2G12812   0.189   2.532   6.610  0.6116 -1.3623 -0.7943
  121OSM    C3F12813   0.268   2.560   6.812  0.1595 -0.2132  0.2545
  121OSM    H3F12814   0.179   2.625   6.826  1.1013  0.8670  1.4165
  121OSM    H3G12815   0.356   2.598   6.868 -0.6141 -2.1639  2.9702
  121OSM    C4F12816   0.219   2.424   6.865 -0.7424  0.5880  0.0861
  121OSM    H4F12817   0.304   2.355   6.882  1.0715  2.4639 -0.9017
  121OSM    H4G12818   0.154   2.372   6.791 -0.1127  0.7371 -0.5919
  121OSM    C5F12819   0.153   2.424   6.999  0.3623 -0.0208  0.1092
  121OSM    H5F12820   0.051   2.468   6.993  0.2408 -0.1579  1.0309
  121OSM    H5G12821   0.220   2.486   7.062  0.0502 -0.6079  1.0377
  121OSM    C6F12822   0.129   2.290   7.080 -0.4762 -0.1109 -0.5965
  121OSM    H6F12823   0.232   2.253   7.097  0.2336  1.3855 -1.4628
  121OSM    H6G12824   0.062   2.233   7.012 -1.4828  2.4430 -1.8789
  121OSM    C7F12825   0.067   2.310   7.225 -0.2898 -0.1586 -0.9866
  121OSM    H7F12826  -0.032   2.356   7.209 -1.2389 -2.4267 -1.9617
  121OSM    H7G12827   0.139   2.381   7.273 -0.5759 -0.9059  0.6444
  121OSM    C8F12828   0.056   2.180   7.314  0.9536  0.7443  0.6509
  121OSM    H8F12829   0.151   2.124   7.304  0.3805 -0.7163  2.7204
  121OSM    H8G12830  -0.023   2.113   7.272  0.0382  0.0037  3.2894
  121OSM    C9F12831   0.020   2.210   7.458  0.5143 -0.0188 -0.6722
  121OSM    H9F12832   0.010   2.318   7.477  2.2953  0.1740 -0.7118
  121OSM   C10F12833   0.015   2.116   7.556  0.3796 -0.7366  0.1129
  121OSM   H10F12834   0.005   2.141   7.663  1.0904 -0.3433  0.0957
  121OSM   C11F12835   0.019   1.973   7.541 -0.0677  0.9221  0.1128
  121OSM   H11F12836   0.050   1.943   7.439 -1.0079  0.5123 -0.0674
  121OSM   H11G12837  -0.083   1.934   7.561  0.6131 -1.4362 -0.6196
  121OSM   C12F12838   0.134   1.907   7.630  0.0853 -0.2302 -0.5545
  121OSM   H12F12839   0.228   1.956   7.596 -1.5049  3.4260 -0.0558
  121OSM   H12G12840   0.149   1.798   7.608  2.0194  0.5737 -4.1968
  121OSM   C13F12841   0.118   1.910   7.788  0.1790 -0.2578 -0.0182
  121OSM   H13F12842   0.014   1.872   7.802 -0.5240  0.8759 -1.6893
  121OSM   H13G12843   0.115   2.016   7.821 -0.6012 -0.2035 -0.2455
  121OSM   C14F12844   0.214   1.829   7.863  0.1435  0.2011 -0.1944
  121OSM   H14F12845   0.305   1.813   7.801 -0.1933 -1.2449 -0.3479
  121OSM   H14G12846   0.175   1.725   7.872  0.9323 -0.0393  0.6871
  121OSM   C15F12847   0.248   1.906   7.996  0.0499  0.5475 -0.1466
  121OSM   H15F12848   0.159   1.943   8.050  0.8822  1.4520  0.6444
  121OSM   H15G12849   0.305   1.999   7.974  0.5368  0.0074 -1.2471
  121OSM   C16F12850   0.321   1.808   8.091  0.0383 -0.2342 -0.7021
  121OSM   H16F12851   0.420   1.786   8.047 -0.3444  0.0150 -1.7174
  121OSM   H16G12852   0.261   1.715   8.103 -0.5471  0.1396 -0.6549
  121OSM   C17F12853   0.336   1.878   8.228  0.6054  0.0466 -0.3031
  121OSM   H17F12854   0.246   1.936   8.258  0.9968  1.6752 -2.0862
  121OSM   H17G12855   0.411   1.956   8.204 -0.7829  0.4788 -3.9893
  121OSM   C18F12856   0.380   1.777   8.337 -0.4243 -0.0485 -0.8225
  121OSM   H18F12857   0.296   1.707   8.359 -1.7025  2.0996  1.5991
  121OSM   H18G12858   0.410   1.828   8.431  0.3771 -0.7082 -0.7042
  121OSM   H18H12859   0.466   1.712   8.308  0.0243 -0.8850  2.0517
  122OSM      N12860   4.678   4.844   5.979  0.0465 -0.1567 -0.0536
  122OSM    C1512861   4.582   4.910   6.071  0.0406 -0.0557  0.1221
  122OSM   H15A12862   4.627   4.998   6.116 -1.0318  1.1744 -1.0922
  122OSM   H15B12863   4.559   4.844   6.153 -1.7926 -0.0987 -0.3863
  122OSM   H15C12864   4.480   4.921   6.038 -0.0734 -0.1194  0.4508
  122OSM    C1412865   4.595   4.743   5.899 -0.3795  0.2681  0.5880
  122OSM   H14A12866   4.650   4.703   5.815 -0.1580 -0.3819  1.0365
  122OSM   H14B12867   4.506   4.786   5.855 -0.3471 -0.0052  0.2539
  122OSM   H14C12868   4.563   4.665   5.967  0.9796 -0.7036  0.1658
  122OSM    C1312869   4.746   4.953   5.894 -0.4657 -0.1096 -0.0430
  122OSM   H13A12870   4.783   5.040   5.947  3.1821 -2.4733  1.7124
  122OSM   H13B12871   4.690   4.989   5.809 -1.1854 -1.4072 -0.1532
  122OSM   H13C12872   4.841   4.920   5.854 -1.7299 -1.6441 -1.9702
  122OSM    C1212873   4.789   4.774   6.066  0.5806  0.0467 -0.6226
  122OSM   H12A12874   4.746   4.696   6.128  0.5617  1.3518  1.0816
  122OSM   H12B12875   4.819   4.849   6.137 -1.6741 -0.9962  1.5951
  122OSM    C1112876   4.907   4.717   5.993 -0.0727  0.9231  0.2966
  122OSM   H11A12877   4.874   4.648   5.912  0.0007  1.7974 -0.4971
  122OSM   H11B12878   4.950   4.651   6.071 -0.5399 -2.0275 -1.7632
  122OSM      P12879   5.148   4.794   5.931 -0.0139  0.0737 -0.2647
  122OSM    O1312880   5.181   4.700   5.819  0.4336  0.2765  0.3276
  122OSM    O1412881   5.200   4.929   5.913 -0.6530 -0.5656  0.0547
  122OSM    O1112882   5.192   4.735   6.069  0.0320 -0.3899 -0.5318
  122OSM    O1212883   4.991   4.819   5.944 -0.6468 -0.0823  0.6422
  122OSM    C1S12884   5.173   4.814   6.186  0.0730  0.0228  0.0624
  122OSM    H1S12885   5.069   4.802   6.222  0.1751 -3.2382 -0.4366
  122OSM    H1T12886   5.187   4.923   6.170  0.0742 -0.1522 -1.1643
  122OSM     NF12887   5.246   4.848   6.421 -0.2783  0.7686 -0.0434
  122OSM    HNF12888   5.319   4.909   6.449  1.8958 -0.6089 -2.3015
  122OSM    C2S12889   5.271   4.771   6.304  0.0826 -0.0890 -0.1681
  122OSM    H2S12890   5.245   4.669   6.337  2.0306 -0.5886 -0.0373
  122OSM    C3S12891   5.419   4.759   6.265  0.3934 -0.1200  0.3022
  122OSM    H3S12892   5.463   4.859   6.241 -0.5261  0.7925  2.1604
  122OSM     O312893   5.440   4.685   6.147  0.1840  0.3303  0.1697
  122OSM    HO312894   5.357   4.693   6.100 -0.6098 -0.4572  1.3764
  122OSM    C4S12895   5.507   4.716   6.383 -0.6137 -0.6664  0.3364
  122OSM    H4S12896   5.494   4.614   6.421  1.0142 -1.1994 -0.4321
  122OSM    C5S12897   5.600   4.800   6.438  0.0071 -0.3996 -0.2303
  122OSM    H5S12898   5.626   4.895   6.389 -2.3949 -1.0587 -3.0734
  122OSM    C6S12899   5.692   4.769   6.555 -0.0263  0.5621  0.4455
  122OSM    H6S12900   5.753   4.858   6.582  0.8475  1.0743 -2.7797
  122OSM    H6T12901   5.767   4.691   6.530  0.9307  1.1926  1.2900
  122OSM    C7S12902   5.620   4.723   6.682 -0.2285 -0.1180 -0.0944
  122OSM    H7S12903   5.574   4.623   6.671  0.1175 -0.0796 -2.3249
  122OSM    H7T12904   5.541   4.797   6.706 -0.8404 -1.0478  0.8310
  122OSM    C8S12905   5.717   4.722   6.803  0.0999 -0.1555  0.3826
  122OSM    H8S12906   5.769   4.818   6.784  0.4434 -0.8696 -3.0920
  122OSM    H8T12907   5.788   4.638   6.787 -0.1757  0.0365 -2.3026
  122OSM    C9S12908   5.648   4.724   6.934  0.0382  0.7645 -0.5449
  122OSM    H9S12909   5.586   4.817   6.930  0.8354  1.2829 -3.2943
  122OSM    H9T12910   5.718   4.739   7.018 -0.4940  1.5285 -0.2272
  122OSM   C10S12911   5.568   4.598   6.954 -0.1699  0.2921 -0.6997
  122OSM   H10S12912   5.641   4.517   6.933  0.9460  0.9422  0.4940
  122OSM   H10T12913   5.485   4.589   6.881 -0.2741  0.0946 -0.5552
  122OSM   C11S12914   5.507   4.582   7.094 -0.6003 -0.1198 -0.7702
  122OSM   H11S12915   5.590   4.559   7.165  0.2185 -0.5282 -1.8349
  122OSM   H11T12916   5.439   4.494   7.093  1.9090 -2.1787  0.0277
  122OSM   C12S12917   5.428   4.703   7.157 -0.0029  0.5558 -0.0787
  122OSM   H12S12918   5.343   4.723   7.089  0.1285  4.1994  0.6154
  122OSM   H12T12919   5.478   4.802   7.149 -0.4036  0.7029 -0.7502
  122OSM   C13S12920   5.362   4.669   7.290  0.1938 -0.5831  0.1607
  122OSM   H13S12921   5.325   4.565   7.275  1.5900 -0.9383 -0.9754
  122OSM   H13T12922   5.286   4.747   7.316  0.6104  0.2508 -1.0407
  122OSM   C14S12923   5.460   4.657   7.401 -0.1463  0.4773 -0.1325
  122OSM   H14S12924   5.526   4.745   7.421  0.6198  0.0470 -0.6835
  122OSM   H14T12925   5.534   4.581   7.368  0.3439  0.7695  0.2731
  122OSM   C15S12926   5.392   4.607   7.531 -0.1485 -0.5767  0.1860
  122OSM   H15S12927   5.456   4.604   7.622 -0.8191  0.2543  0.7034
  122OSM   H15T12928   5.357   4.503   7.519  1.1318 -1.0485  0.3629
  122OSM   C16S12929   5.282   4.702   7.564  0.1948 -0.2155  0.2498
  122OSM   H16S12930   5.203   4.682   7.488  0.2297 -0.0494  0.1701
  122OSM   H16T12931   5.317   4.807   7.570  0.5902 -0.3521  0.3222
  122OSM   C17S12932   5.227   4.691   7.711  0.7532 -0.3259  0.0288
  122OSM   H17S12933   5.198   4.584   7.708 -0.0025 -0.1748  1.2624
  122OSM   H17T12934   5.137   4.756   7.715  0.4217 -0.8384  1.5658
  122OSM   C18S12935   5.327   4.731   7.820 -0.9134 -0.3541 -0.4397
  122OSM   H18S12936   5.278   4.752   7.918 -0.3110 -1.0113  0.0148
  122OSM   H18T12937   5.385   4.818   7.784 -1.8932  0.7244  0.4770
  122OSM   H18U12938   5.399   4.647   7.827 -0.0791  0.1963 -2.0363
  122OSM    C1F12939   5.134   4.855   6.483 -0.9428 -0.1740  0.3070
  122OSM     OF12940   5.049   4.777   6.456 -0.1614  0.4454  0.6602
  122OSM    C2F12941   5.117   4.955   6.592  0.1701  0.2558 -0.4184
  122OSM    H2F12942   5.016   4.998   6.575  0.1848  0.7215  0.6270
  122OSM    H2G12943   5.189   5.038   6.574  0.9727 -0.1784  0.6865
  122OSM    C3F12944   5.136   4.900   6.738  0.0313 -0.2239  0.1357
  122OSM    H3F12945   5.229   4.839   6.742  0.9718  0.8563 -2.7383
  122OSM    H3G12946   5.054   4.826   6.750  1.0593 -1.1844  1.6669
  122OSM    C4F12947   5.134   5.002   6.852 -0.2185  0.4194  0.6847
  122OSM    H4F12948   5.035   5.051   6.851  0.0983  1.2367 -2.4881
  122OSM    H4G12949   5.204   5.086   6.834 -1.5206  1.1400 -1.2748
  122OSM    C5F12950   5.169   4.947   6.990 -0.8703 -0.0155 -0.3190
  122OSM    H5F12951   5.275   4.916   6.989 -1.2331 -1.3103 -0.8506
  122OSM    H5G12952   5.113   4.853   7.010  0.2453 -0.2751  1.9183
  122OSM    C6F12953   5.143   5.040   7.105  0.3683  0.0819 -0.4540
  122OSM    H6F12954   5.043   5.087   7.094 -0.2913 -1.2441 -0.1950
  122OSM    H6G12955   5.227   5.112   7.091 -1.0495  1.5168 -2.1262
  122OSM    C7F12956   5.158   4.979   7.250  0.5033 -0.3458 -0.3255
  122OSM    H7F12957   5.265   4.959   7.275  0.5877  0.5467  0.0981
  122OSM    H7G12958   5.096   4.889   7.268 -1.6689  1.2888  0.9853
  122OSM    C8F12959   5.107   5.071   7.364  0.2379  0.2056 -0.2581
  122OSM    H8F12960   4.996   5.080   7.358  0.1716 -0.9550 -1.1967
  122OSM    H8G12961   5.169   5.163   7.357  0.5823 -0.0445 -0.5128
  122OSM    C9F12962   5.124   5.001   7.495  0.7863 -0.3111  1.0513
  122OSM    H9F12963   5.130   4.891   7.494  0.9971 -0.2944  0.4540
  122OSM   C10F12964   5.120   5.064   7.613 -0.4416 -0.6569 -0.6557
  122OSM   H10F12965   5.140   5.007   7.704  0.8038  1.6921  0.6272
  122OSM   C11F12966   5.105   5.207   7.641 -0.2713  0.5745 -0.0858
  122OSM   H11F12967   5.029   5.259   7.578 -0.9020  2.6866  2.2775
  122OSM   H11G12968   5.203   5.254   7.620  1.1572 -0.6577  3.1775
  122OSM   C12F12969   5.072   5.232   7.790 -0.6469  0.2659 -0.0840
  122OSM   H12F12970   5.150   5.187   7.855 -0.3123  1.2839  0.2303
  122OSM   H12G12971   4.975   5.180   7.808  0.4601 -2.0788 -0.4464
  122OSM   C13F12972   5.080   5.385   7.821  0.0322 -0.3895  0.3545
  122OSM   H13F12973   4.994   5.433   7.770 -0.4306 -1.3178  0.2215
  122OSM   H13G12974   5.174   5.418   7.773  0.5483  0.9678  2.1949
  122OSM   C14F12975   5.082   5.406   7.971  0.7485 -0.3010  0.7400
  122OSM   H14F12976   5.184   5.377   8.005  1.6164  1.9627  0.2723
  122OSM   H14G12977   4.998   5.346   8.011 -0.8151  1.5179  0.3055
  122OSM   C15F12978   5.058   5.556   8.005  0.0546 -0.1776  0.6832
  122OSM   H15F12979   4.951   5.585   7.996  0.0306 -0.4840 -0.0466
  122OSM   H15G12980   5.137   5.616   7.956 -0.6770 -0.3667 -0.7610
  122OSM   C16F12981   5.085   5.568   8.152 -0.4147  0.2573 -0.0126
  122OSM   H16F12982   5.182   5.521   8.177 -0.6950  0.1153  0.8344
  122OSM   H16G12983   5.020   5.500   8.211  0.5148 -1.7750 -1.2260
  122OSM   C17F12984   5.075   5.715   8.192  0.2200  1.1548  0.1603
  122OSM   H17F12985   4.996   5.778   8.146  1.2523  2.0223 -0.4415
  122OSM   H17G12986   5.166   5.756   8.144  0.8432 -0.9025 -0.5417
  122OSM   C18F12987   5.079   5.750   8.345  0.3190  1.3890  0.6556
  122OSM   H18F12988   5.088   5.859   8.364  1.8947  1.1214  1.6601
  122OSM   H18G12989   5.159   5.691   8.395 -1.4260 -1.6280  0.1705
  122OSM   H18H12990   4.986   5.708   8.389  0.0818  1.9933  0.7348
  123OSM      N12991   1.963   0.328   6.543  0.4907  0.3079  0.1479
  123OSM    C1512992   2.065   0.360   6.644 -0.7303  0.9648  0.5255
  123OSM   H15A12993   2.068   0.466   6.664  1.5642  1.3438 -1.4262
  123OSM   H15B12994   2.161   0.329   6.605 -0.0379  1.1136  2.0273
  123OSM   H15C12995   2.032   0.304   6.731  0.1569 -0.8168 -0.2399
  123OSM    C1412996   1.993   0.422   6.429 -0.1513 -0.0993 -0.2361
  123OSM   H14A12997   2.002   0.526   6.458 -1.7581  0.4340 -1.5242
  123OSM   H14B12998   1.908   0.429   6.363 -1.0735  2.1694  1.0731
  123OSM   H14C12999   2.079   0.388   6.374  0.3107 -1.3309  1.1630
  123OSM    C1313000   1.989   0.188   6.488 -0.3503  0.2258  0.2804
  123OSM   H13A13001   2.062   0.183   6.408 -1.4934 -0.5632 -0.7498
  123OSM   H13B13002   1.899   0.154   6.439 -0.8108 -1.0151  1.9244
  123OSM   H13C13003   2.001   0.103   6.554  1.9791 -1.4565 -2.0862
  123OSM    C1213004   1.830   0.342   6.593  0.3479  0.0053  0.3623
  123OSM   H12A13005   1.818   0.445   6.624  0.5313  1.4042 -3.5927
  123OSM   H12B13006   1.822   0.272   6.675  0.8569  0.2233  0.5998
  123OSM    C1113007   1.721   0.292   6.495  0.1973 -0.0528 -0.2313
  123OSM   H11A13008   1.761   0.304   6.392 -1.8859  0.7625 -1.0256
  123OSM   H11B13009   1.629   0.354   6.505  0.0044 -0.2769 -0.5800
  123OSM      P13010   1.639   0.050   6.433  0.0984 -0.1849  0.3625
  123OSM    O1313011   1.539   0.120   6.351  0.7140  0.2480 -0.1594
  123OSM    O1413012   1.749  -0.002   6.353  0.3482  0.5143 -0.1797
  123OSM    O1113013   1.583  -0.072   6.524 -0.8704 -0.4440  0.3910
  123OSM    O1213014   1.691   0.155   6.546  0.1316 -0.5776  0.2353
  123OSM    C1S13015   1.644  -0.105   6.652  0.1962 -0.5123  0.4465
  123OSM    H1S13016   1.729  -0.042   6.686 -0.4904  0.2680  0.7721
  123OSM    H1T13017   1.696  -0.203   6.649 -0.4908 -0.9476  2.0512
  123OSM     NF13018   1.619  -0.141   6.889  0.1573  0.8962  0.1310
  123OSM    HNF13019   1.619  -0.237   6.917  0.9117  1.2619  1.4838
  123OSM    C2S13020   1.543  -0.117   6.770 -0.5451 -0.2291  0.1308
  123OSM    H2S13021   1.488  -0.021   6.775  1.5110  1.1499 -1.9833
  123OSM    C3S13022   1.439  -0.228   6.739 -0.0130 -1.0649  0.1655
  123OSM    H3S13023   1.495  -0.323   6.735  0.5823 -0.7204  0.2760
  123OSM     O313024   1.380  -0.214   6.612 -0.2113 -0.1400  0.5893
  123OSM    HO313025   1.454  -0.189   6.556 -0.7224  0.8764  0.3383
  123OSM    C4S13026   1.337  -0.241   6.847 -0.1890  0.9072 -0.1221
  123OSM    H4S13027   1.367  -0.319   6.918 -2.6663  0.5359  0.6297
  123OSM    C5S13028   1.236  -0.160   6.875  0.4299 -0.0158 -0.2048
  123OSM    H5S13029   1.227  -0.072   6.810 -1.9060 -0.9512 -1.2618
  123OSM    C6S13030   1.145  -0.173   6.997  0.2535 -0.6846 -0.0788
  123OSM    H6S13031   1.043  -0.152   6.957  0.6896  1.4234 -0.2085
  123OSM    H6T13032   1.164  -0.084   7.060 -0.2544 -0.9732  0.4878
  123OSM    C7S13033   1.159  -0.309   7.070 -0.4282 -0.6054 -0.3288
  123OSM    H7S13034   1.154  -0.394   6.999  0.7448 -1.8837  1.0463
  123OSM    H7T13035   1.067  -0.307   7.133 -0.9740  0.4017 -1.1253
  123OSM    C8S13036   1.280  -0.317   7.163  0.8279 -0.3181  0.0510
  123OSM    H8S13037   1.312  -0.214   7.190  0.4971  0.0817 -1.0191
  123OSM    H8T13038   1.362  -0.375   7.115 -1.8565 -3.5536 -0.9717
  123OSM    C9S13039   1.238  -0.382   7.298  0.3564  0.5137  0.3360
  123OSM    H9S13040   1.213  -0.487   7.270  2.9039 -0.4287  1.3108
  123OSM    H9T13041   1.146  -0.339   7.343 -1.5077 -1.9095 -0.9120
  123OSM   C10S13042   1.352  -0.379   7.401 -0.3131 -0.1342 -0.7520
  123OSM   H10S13043   1.396  -0.277   7.409 -1.6850  0.3403  2.4777
  123OSM   H10T13044   1.432  -0.451   7.374 -1.7318 -1.5717 -1.2600
  123OSM   C11S13045   1.294  -0.406   7.549 -0.3002  1.2300  0.7572
  123OSM   H11S13046   1.233  -0.498   7.552 -1.5215  1.8896 -1.4503
  123OSM   H11T13047   1.238  -0.316   7.581  1.7015  2.4320  1.0995
  123OSM   C12S13048   1.405  -0.421   7.648  0.4221  0.5311  0.7077
  123OSM   H12S13049   1.469  -0.330   7.643  1.0318  0.0333 -1.7194
  123OSM   H12T13050   1.470  -0.495   7.597 -0.5885 -0.0407  0.2247
  123OSM   C13S13051   1.367  -0.472   7.788 -0.8265 -0.6152  0.0611
  123OSM   H13S13052   1.323  -0.574   7.779  1.7432 -1.7074 -1.0216
  123OSM   H13T13053   1.286  -0.404   7.820  1.0008  1.7694 -0.1046
  123OSM   C14S13054   1.492  -0.472   7.883 -0.2187 -0.3355  0.7138
  123OSM   H14S13055   1.522  -0.366   7.870 -3.2484  0.6893  1.2321
  123OSM   H14T13056   1.564  -0.543   7.836 -0.7612  0.6724 -1.7793
  123OSM   C15S13057   1.452  -0.505   8.029  0.3062  0.3297 -0.4738
  123OSM   H15S13058   1.426  -0.613   8.036  2.7641 -0.2050  1.6478
  123OSM   H15T13059   1.364  -0.448   8.065  0.5070 -0.5705  1.6039
  123OSM   C16S13060   1.565  -0.482   8.135 -0.4662  0.3671 -0.4398
  123OSM   H16S13061   1.664  -0.488   8.084  0.6282 -1.2927  1.7282
  123OSM   H16T13062   1.559  -0.564   8.209 -0.0451  0.1255 -0.6657
  123OSM   C17S13063   1.556  -0.343   8.188  0.7530 -0.3497  0.0873
  123OSM   H17S13064   1.450  -0.310   8.186  0.9242  0.2247  0.1572
  123OSM   H17T13065   1.612  -0.274   8.121 -1.5983  1.2572 -0.3289
  123OSM   C18S13066   1.621  -0.318   8.325 -0.4377 -0.2348  0.6287
  123OSM   H18S13067   1.568  -0.371   8.407 -0.2085 -1.5779 -0.0547
  123OSM   H18T13068   1.623  -0.208   8.335  0.7937 -0.1862  0.1282
  123OSM   H18U13069   1.727  -0.352   8.331  0.1620  0.9912 -1.7937
  123OSM    C1F13070   1.683  -0.043   6.962 -0.4396  0.0679  0.4476
  123OSM     OF13071   1.662   0.078   6.931 -0.7526  0.0356 -0.6229
  123OSM    C2F13072   1.779  -0.088   7.074  0.0366 -0.4942  0.8038
  123OSM    H2F13073   1.882  -0.098   7.034 -0.9144  1.5974 -2.5575
  123OSM    H2G13074   1.741  -0.186   7.108 -1.4126 -0.2396 -0.0032
  123OSM    C3F13075   1.807   0.018   7.189 -0.0192 -0.3372 -0.1269
  123OSM    H3F13076   1.714   0.052   7.240 -0.5749 -1.9286 -0.0322
  123OSM    H3G13077   1.848   0.108   7.139  0.8847 -1.2802 -1.1322
  123OSM    C4F13078   1.911  -0.032   7.292  0.4087 -0.5342  0.2643
  123OSM    H4F13079   2.000  -0.049   7.227 -0.6139 -1.2617 -0.9903
  123OSM    H4G13080   1.885  -0.133   7.331  0.0994 -0.7247 -0.4264
  123OSM    C5F13081   1.936   0.069   7.406 -0.5252  0.4301 -0.0089
  123OSM    H5F13082   1.848   0.095   7.467 -0.3896  0.1907  0.2892
  123OSM    H5G13083   1.967   0.164   7.357 -0.9877  0.3671 -0.4309
  123OSM    C6F13084   2.047   0.018   7.509  0.4976 -0.6156 -0.3628
  123OSM    H6F13085   2.124  -0.045   7.462  2.2031  1.0264  0.1162
  123OSM    H6G13086   1.998  -0.053   7.579 -2.8379  0.8636 -0.9547
  123OSM    C7F13087   2.125   0.131   7.578  0.1594 -0.0300 -0.6259
  123OSM    H7F13088   2.058   0.185   7.648  0.8758 -0.2958  0.2829
  123OSM    H7G13089   2.155   0.202   7.498  0.2475  0.5596 -0.0763
  123OSM    C8F13090   2.242   0.069   7.654  0.4467 -0.5392 -0.1426
  123OSM    H8F13091   2.291  -0.013   7.598  0.0389  0.0310 -1.3556
  123OSM    H8G13092   2.202   0.021   7.746  1.4863 -1.8612 -0.3654
  123OSM    C9F13093   2.338   0.173   7.693 -0.7293  0.4727 -0.0780
  123OSM    H9F13094   2.319   0.280   7.676 -1.5111  0.2131 -0.9141
  123OSM   C10F13095   2.462   0.161   7.753  0.4836 -0.0706 -0.0009
  123OSM   H10F13096   2.522   0.251   7.772  0.1028  0.1320  0.2442
  123OSM   C11F13097   2.530   0.035   7.806  0.6813 -0.0189  0.1939
  123OSM   H11F13098   2.600  -0.002   7.728 -1.8550  0.9195 -2.7310
  123OSM   H11G13099   2.471  -0.059   7.808  1.8828 -0.7823  1.0262
  123OSM   C12F13100   2.595   0.071   7.937 -0.4572  0.4198 -0.4519
  123OSM   H12F13101   2.516   0.113   8.002 -1.0597  0.9331 -1.4908
  123OSM   H12G13102   2.674   0.147   7.920 -1.2264  1.7629  1.6402
  123OSM   C13F13103   2.668  -0.047   8.007 -0.5841  0.0028 -0.1497
  123OSM   H13F13104   2.735  -0.095   7.933 -1.5031 -0.9440 -0.4085
  123OSM   H13G13105   2.594  -0.124   8.039  1.0541 -0.9356  1.5985
  123OSM   C14F13106   2.737  -0.001   8.131  0.3715 -1.1430  0.0544
  123OSM   H14F13107   2.663   0.048   8.198  0.7737  0.3741 -0.5889
  123OSM   H14G13108   2.797   0.090   8.110 -2.2812  1.2323  2.0157
  123OSM   C15F13109   2.834  -0.095   8.200  0.7348  0.4296 -0.4853
  123OSM   H15F13110   2.890  -0.034   8.274  0.2412  2.0060 -1.3656
  123OSM   H15G13111   2.911  -0.152   8.143  2.3540 -1.6459  3.4296
  123OSM   C16F13112   2.756  -0.192   8.292  0.6473  0.8247 -0.4739
  123OSM   H16F13113   2.827  -0.269   8.331 -1.1608 -0.9579 -0.5219
  123OSM   H16G13114   2.675  -0.250   8.244 -0.1202  1.6403 -0.1844
  123OSM   C17F13115   2.688  -0.121   8.409 -0.3806  0.1270 -0.2810
  123OSM   H17F13116   2.594  -0.080   8.369 -0.1621 -0.9747 -2.0331
  123OSM   H17G13117   2.751  -0.039   8.449 -0.5338 -0.3830  1.0679
  123OSM   C18F13118   2.653  -0.213   8.529 -0.1675 -0.0098  0.5224
  123OSM   H18F13119   2.614  -0.158   8.618  0.1964  2.4769 -0.7582
  123OSM   H18G13120   2.738  -0.269   8.574  0.1631 -0.6708 -0.8685
  123OSM   H18H13121   2.584  -0.286   8.481 -0.3288  0.9524 -0.7645
  124OSM      N13122   3.482   4.695   6.056 -0.3459  0.4173 -0.2631
  124OSM    C1513123   3.570   4.652   5.950 -0.9441  0.7386 -0.1489
  124OSM   H15A13124   3.534   4.688   5.855 -0.7172 -0.9315 -0.8951
  124OSM   H15B13125   3.569   4.545   5.938 -0.4962  0.7515 -0.3410
  124OSM   H15C13126   3.671   4.687   5.970 -1.0906  0.1251  1.8477
  124OSM    C1413127   3.474   4.840   6.059  0.0598  0.2340 -0.2610
  124OSM   H14A13128   3.427   4.883   5.972 -0.3859 -0.8142 -0.5476
  124OSM   H14B13129   3.569   4.892   6.062 -0.2044  0.6857  0.9462
  124OSM   H14C13130   3.418   4.867   6.147 -0.2833 -1.3223  0.0328
  124OSM    C1313131   3.356   4.633   6.040  0.2905  0.0728 -0.2923
  124OSM   H13A13132   3.368   4.527   6.057  1.6701  0.3915  0.8927
  124OSM   H13B13133   3.339   4.648   5.934  1.2400  2.5880 -0.1472
  124OSM   H13C13134   3.275   4.667   6.102 -0.6052  1.9327 -2.3380
  124OSM    C1213135   3.544   4.638   6.186 -0.2325  0.3657 -0.2490
  124OSM   H12A13136   3.552   4.532   6.168 -0.7325  0.4522 -1.0412
  124OSM   H12B13137   3.479   4.665   6.268  0.9575  1.5471  0.3498
  124OSM    C1113138   3.682   4.689   6.236 -0.2595  0.1616  0.1433
  124OSM   H11A13139   3.685   4.666   6.345  0.7660 -1.7395 -0.2549
  124OSM   H11B13140   3.689   4.800   6.236 -0.2920  0.1905 -1.6831
  124OSM      P13141   3.810   4.472   6.181 -0.4622 -0.1083  0.0492
  124OSM    O1313142   3.703   4.400   6.109 -0.5699 -0.0020 -0.1811
  124OSM    O1413143   3.948   4.445   6.138 -0.1242 -0.0473  0.0435
  124OSM    O1113144   3.793   4.424   6.332 -0.0387  0.3401 -0.0241
  124OSM    O1213145   3.787   4.627   6.173 -0.0203  0.1405 -0.4301
  124OSM    C1S13146   3.904   4.433   6.429  0.2984 -0.1184 -0.9678
  124OSM    H1S13147   3.900   4.537   6.469  1.4945 -0.0262 -1.0390
  124OSM    H1T13148   4.002   4.427   6.376 -0.4379 -1.1646 -2.2732
  124OSM     NF13149   3.996   4.359   6.649  0.2813  0.3837 -0.0567
  124OSM    HNF13150   4.080   4.307   6.634  0.1823  0.1669  0.1244
  124OSM    C2S13151   3.890   4.332   6.542 -0.7777 -0.2974 -0.0272
  124OSM    H2S13152   3.797   4.351   6.599 -0.6158  0.7181 -0.0765
  124OSM    C3S13153   3.901   4.185   6.497  0.4701 -0.6935  0.8084
  124OSM    H3S13154   3.992   4.165   6.438 -0.1849 -2.7041  0.3943
  124OSM     O313155   3.795   4.149   6.417 -0.2422  0.3770 -0.1936
  124OSM    HO313156   3.740   4.226   6.400 -0.6623 -0.4174 -2.9157
  124OSM    C4S13157   3.901   4.099   6.622 -0.0658 -0.6168  0.6432
  124OSM    H4S13158   3.839   4.137   6.704  0.8278  1.1184  0.5744
  124OSM    C5S13159   3.966   3.979   6.643 -0.4712 -0.2759 -0.6368
  124OSM    H5S13160   4.038   3.936   6.572  2.4973  0.6441  1.5925
  124OSM    C6S13161   3.957   3.909   6.781  0.2504 -0.6238  0.6666
  124OSM    H6S13162   4.043   3.928   6.849  0.2784 -0.8704  0.6979
  124OSM    H6T13163   3.964   3.800   6.763  0.8190 -0.6378  0.9610
  124OSM    C7S13164   3.823   3.926   6.856  0.4359 -0.6885  0.3395
  124OSM    H7S13165   3.735   3.948   6.792  1.1225 -0.1779 -0.4396
  124OSM    H7T13166   3.846   4.021   6.910  0.4771  2.4995 -4.7033
  124OSM    C8S13167   3.783   3.808   6.951  0.0542  0.0008  0.4325
  124OSM    H8S13168   3.870   3.786   7.017 -0.4782  1.0203  1.5004
  124OSM    H8T13169   3.762   3.722   6.884  2.7869  0.4806 -1.2143
  124OSM    C9S13170   3.667   3.845   7.040 -0.1169  0.7965  0.3861
  124OSM    H9S13171   3.574   3.871   6.986  0.3293 -0.9440 -1.3594
  124OSM    H9T13172   3.694   3.941   7.089  1.6026  0.6764 -0.2410
  124OSM   C10S13173   3.641   3.743   7.155 -0.5532 -1.1786 -0.9015
  124OSM   H10S13174   3.684   3.651   7.108 -0.2432 -1.5889  0.1588
  124OSM   H10T13175   3.533   3.728   7.176 -0.5551 -0.7914 -0.6340
  124OSM   C11S13176   3.712   3.779   7.293  0.7884  0.2004  0.7615
  124OSM   H11S13177   3.653   3.865   7.331  0.0907  0.5008 -0.8975
  124OSM   H11T13178   3.817   3.814   7.286  0.6494  0.4115 -0.5727
  124OSM   C12S13179   3.695   3.665   7.396  0.4081 -0.2020 -0.3218
  124OSM   H12S13180   3.759   3.582   7.359  0.2732  0.8370 -3.1631
  124OSM   H12T13181   3.587   3.647   7.413  0.5591  0.6740  2.0215
  124OSM   C13S13182   3.756   3.700   7.536 -0.4281 -0.1880 -0.0214
  124OSM   H13S13183   3.696   3.782   7.579 -3.5887 -1.3029 -2.0160
  124OSM   H13T13184   3.861   3.736   7.533 -0.7992  1.0114  0.7263
  124OSM   C14S13185   3.728   3.576   7.626 -0.3325 -0.7438 -0.2248
  124OSM   H14S13186   3.764   3.486   7.571  1.6569 -1.3987  1.9580
  124OSM   H14T13187   3.622   3.560   7.654 -0.5076  0.8639  0.0881
  124OSM   C15S13188   3.806   3.582   7.758  0.1602 -0.1203  0.3806
  124OSM   H15S13189   3.800   3.684   7.802  0.5116  0.0157  0.1197
  124OSM   H15T13190   3.913   3.560   7.739  0.4436 -0.1454  1.8871
  124OSM   C16S13191   3.760   3.480   7.858 -0.3221 -0.2908  0.7563
  124OSM   H16S13192   3.742   3.379   7.816 -0.4947 -2.1418  4.8017
  124OSM   H16T13193   3.665   3.519   7.899  0.6808  1.0419  1.9416
  124OSM   C17S13194   3.861   3.454   7.974  0.2308 -0.9859  0.2813
  124OSM   H17S13195   3.926   3.543   7.985  0.4974 -1.0916 -0.3914
  124OSM   H17T13196   3.931   3.371   7.948 -0.9893 -2.0306  0.2341
  124OSM   C18S13197   3.786   3.442   8.106  0.8133  0.0613  0.3284
  124OSM   H18S13198   3.742   3.340   8.113  0.7223  0.1627  1.3764
  124OSM   H18T13199   3.710   3.517   8.135  1.5156  0.8358  0.2087
  124OSM   H18U13200   3.862   3.441   8.187  1.0433  2.3842  0.2153
  124OSM    C1F13201   3.987   4.464   6.727  0.7620 -0.2644 -0.1243
  124OSM     OF13202   3.888   4.539   6.719 -0.1974 -0.5652 -0.6514
  124OSM    C2F13203   4.101   4.484   6.826 -0.2991  0.4466 -0.6833
  124OSM    H2F13204   4.170   4.548   6.767 -0.7661  1.5212 -0.0862
  124OSM    H2G13205   4.151   4.386   6.837  2.0998  1.3255 -2.7311
  124OSM    C3F13206   4.080   4.571   6.955 -0.5184 -0.5024 -0.5099
  124OSM    H3F13207   4.032   4.669   6.938  2.0674  0.8001 -0.7809
  124OSM    H3G13208   4.186   4.591   6.981 -0.9834  0.5462  0.6921
  124OSM    C4F13209   4.028   4.498   7.071 -0.1543 -0.0582  0.5389
  124OSM    H4F13210   4.076   4.399   7.087 -1.6739 -1.2963 -1.8871
  124OSM    H4G13211   3.922   4.468   7.052 -0.5520  2.2137 -1.2555
  124OSM    C5F13212   4.035   4.568   7.201 -0.4230  0.0969 -0.7708
  124OSM    H5F13213   3.992   4.670   7.194 -0.5166  0.0265 -1.2654
  124OSM    H5G13214   4.144   4.574   7.221 -0.5396 -0.8882  0.2580
  124OSM    C6F13215   3.985   4.487   7.319 -0.5805  0.2440  0.6592
  124OSM    H6F13216   4.023   4.383   7.328  1.0004  0.6926 -0.4618
  124OSM    H6G13217   3.879   4.473   7.288  0.3623 -1.4506 -2.2731
  124OSM    C7F13218   3.971   4.556   7.453 -1.0356 -0.1709  0.1409
  124OSM    H7F13219   3.883   4.523   7.513 -1.6503  1.4961  0.2259
  124OSM    H7G13220   3.949   4.665   7.446  0.0118  0.3806  3.3975
  124OSM    C8F13221   4.094   4.536   7.549 -0.0117  0.0612 -0.1083
  124OSM    H8F13222   4.164   4.612   7.509  2.0262 -0.7303  1.7591
  124OSM    H8G13223   4.134   4.434   7.529 -1.3717 -0.5132 -0.0650
  124OSM    C9F13224   4.060   4.567   7.695  0.0367 -0.0780 -0.2896
  124OSM    H9F13225   4.085   4.669   7.729  0.9158 -0.0141 -1.0961
  124OSM   C10F13226   3.992   4.487   7.780 -0.4446  0.6155  0.0574
  124OSM   H10F13227   3.990   4.509   7.887  1.5489  3.0826 -0.3028
  124OSM   C11F13228   3.952   4.345   7.739 -0.3340  0.5499  0.4090
  124OSM   H11F13229   4.014   4.309   7.654 -1.4003  4.0186 -2.0541
  124OSM   H11G13230   3.845   4.336   7.710 -0.6168 -1.1408  1.7947
  124OSM   C12F13231   3.974   4.249   7.855  0.2078  0.2141  0.2498
  124OSM   H12F13232   3.941   4.150   7.816 -1.2650  1.0208 -0.6544
  124OSM   H12G13233   3.900   4.265   7.937 -0.1446 -0.5346  0.0905
  124OSM   C13F13234   4.111   4.247   7.920 -0.7406 -0.5203  0.2670
  124OSM   H13F13235   4.121   4.331   7.991 -0.9135 -2.5694  2.8494
  124OSM   H13G13236   4.183   4.256   7.836 -1.6444  0.8619 -0.4071
  124OSM   C14F13237   4.128   4.125   8.006 -0.1914  0.6869  0.0356
  124OSM   H14F13238   4.137   4.025   7.957  0.9753 -0.0837  1.7631
  124OSM   H14G13239   4.049   4.122   8.084 -1.7992 -0.3719 -1.5290
  124OSM   C15F13240   4.269   4.125   8.080  0.3827 -0.0558  0.0666
  124OSM   H15F13241   4.272   4.042   8.154 -0.0223 -2.8751 -2.8387
  124OSM   H15G13242   4.288   4.229   8.115  1.8700 -1.2941  3.3579
  124OSM   C16F13243   4.383   4.097   7.979  1.0452 -0.1716  0.3059
  124OSM   H16F13244   4.372   4.179   7.905  0.3958  0.5533  1.1686
  124OSM   H16G13245   4.363   3.997   7.934 -1.9677  0.5147 -0.1269
  124OSM   C17F13246   4.520   4.099   8.035 -0.0816  0.4181  0.3400
  124OSM   H17F13247   4.550   4.190   8.092 -0.7588 -2.2000  5.5050
  124OSM   H17G13248   4.577   4.081   7.941 -0.8681  0.7541 -0.2132
  124OSM   C18F13249   4.553   3.983   8.125  0.0966 -0.6316  0.0513
  124OSM   H18F13250   4.501   3.888   8.101 -0.3782 -0.3134 -0.1891
  124OSM   H18G13251   4.511   4.018   8.221 -2.4437  0.1103 -1.2426
  124OSM   H18H13252   4.662   3.963   8.138 -0.1963 -1.7007  1.0303
  125OSM      N13253   6.542   2.892   6.291 -0.0267  0.2827 -0.6235
  125OSM    C1513254   6.471   2.807   6.398 -0.0987 -0.1492  0.5302
  125OSM   H15A13255   6.511   2.707   6.393 -0.3509 -0.1947 -0.9941
  125OSM   H15B13256   6.364   2.806   6.384 -0.3115 -2.0086  1.8926
  125OSM   H15C13257   6.472   2.845   6.499 -3.0109  0.7007  0.3382
  125OSM    C1413258   6.518   2.827   6.160 -0.8444  0.3812 -0.2305
  125OSM   H14A13259   6.418   2.815   6.123 -0.1107  0.3191 -2.3087
  125OSM   H14B13260   6.563   2.729   6.161 -1.5099  0.0528 -1.0638
  125OSM   H14C13261   6.572   2.884   6.086  0.5778 -0.9902 -0.3132
  125OSM    C1313262   6.477   3.028   6.281 -0.0687 -0.4373 -0.0370
  125OSM   H13A13263   6.515   3.084   6.197  0.1489 -0.5772 -0.0322
  125OSM   H13B13264   6.494   3.076   6.376  0.3163 -3.3058  1.4543
  125OSM   H13C13265   6.370   3.014   6.279 -0.3012  1.1025  0.3895
  125OSM    C1213266   6.692   2.904   6.316 -0.4623 -0.1605 -0.0071
  125OSM   H12A13267   6.709   2.971   6.399 -0.8204  0.4250 -0.3970
  125OSM   H12B13268   6.735   2.952   6.229  1.9447  0.9621  1.6857
  125OSM    C1113269   6.772   2.771   6.339 -0.1295 -0.0016 -0.5873
  125OSM   H11A13270   6.724   2.703   6.412 -0.6091  0.4042 -0.5124
  125OSM   H11B13271   6.873   2.797   6.376 -0.8993 -0.0994  1.8067
  125OSM      P13272   6.882   2.579   6.220 -0.1113  0.0938 -0.1587
  125OSM    O1313273   6.837   2.495   6.103  0.5329 -0.4370  0.6092
  125OSM    O1413274   7.022   2.629   6.223 -0.2811 -0.4890 -0.6235
  125OSM    O1113275   6.842   2.505   6.350 -0.0479  1.0083  0.3638
  125OSM    O1213276   6.788   2.701   6.215  0.7317  0.1458  0.2254
  125OSM    C1S13277   6.821   2.361   6.350 -0.9272 -0.3067  0.4551
  125OSM    H1S13278   6.897   2.310   6.288 -0.5934  0.2665  0.3849
  125OSM    H1T13279   6.724   2.346   6.299 -0.2917 -1.0348 -0.5636
  125OSM     NF13280   6.798   2.155   6.483  0.1287 -0.5837 -0.2056
  125OSM    HNF13281   6.706   2.118   6.485  0.0195 -0.6542 -2.8724
  125OSM    C2S13282   6.812   2.299   6.498 -0.0505  0.0980 -0.1787
  125OSM    H2S13283   6.910   2.324   6.544  1.4607 -2.4424 -1.7879
  125OSM    C3S13284   6.697   2.367   6.579  0.1229  0.5017  0.0076
  125OSM    H3S13285   6.597   2.347   6.534  0.3834 -1.7688  0.3214
  125OSM     O313286   6.713   2.507   6.581 -0.4627 -0.0557 -0.1178
  125OSM    HO313287   6.742   2.527   6.492 -2.2608 -0.2101 -0.7872
  125OSM    C4S13288   6.690   2.324   6.720  0.9076  0.1282  0.3216
  125OSM    H4S13289   6.735   2.394   6.793  0.7073 -1.0794  1.6457
  125OSM    C5S13290   6.615   2.221   6.767  0.8752  0.1480  0.2574
  125OSM    H5S13291   6.554   2.162   6.697 -0.4065  2.1775 -0.4443
  125OSM    C6S13292   6.610   2.182   6.912  0.8731  0.3619 -0.2819
  125OSM    H6S13293   6.668   2.252   6.978 -0.8319  0.5271  1.1239
  125OSM    H6T13294   6.638   2.075   6.924 -1.0361 -0.3099 -1.4454
  125OSM    C7S13295   6.468   2.188   6.961 -0.6841 -0.5299 -0.6993
  125OSM    H7S13296   6.407   2.103   6.922  0.2191 -0.8530 -1.4341
  125OSM    H7T13297   6.414   2.283   6.938 -1.9240 -0.8309  0.8017
  125OSM    C8S13298   6.452   2.176   7.114 -0.4643  0.2340  0.5066
  125OSM    H8S13299   6.352   2.210   7.147  0.1057  0.3817  2.1755
  125OSM    H8T13300   6.513   2.257   7.158 -0.8801  1.3620 -0.9012
  125OSM    C9S13301   6.480   2.042   7.175 -0.2273  0.4017  0.2869
  125OSM    H9S13302   6.571   2.004   7.123 -1.5545 -0.2150 -1.6797
  125OSM    H9T13303   6.393   1.981   7.143 -0.7852  1.7795 -0.9633
  125OSM   C10S13304   6.511   2.042   7.327  0.5712 -0.1859 -0.4514
  125OSM   H10S13305   6.508   2.148   7.358  1.4756  0.1325 -1.3886
  125OSM   H10T13306   6.615   2.009   7.346  1.4765  2.1950 -0.9384
  125OSM   C11S13307   6.398   1.966   7.404 -0.1361 -0.8349  0.2185
  125OSM   H11S13308   6.377   1.874   7.345  0.4313 -0.4201 -0.6502
  125OSM   H11T13309   6.307   2.030   7.398 -1.2462 -2.3091  0.5814
  125OSM   C12S13310   6.422   1.925   7.550 -0.1599  0.1821  0.3156
  125OSM   H12S13311   6.529   1.895   7.556 -0.5011 -1.4810 -1.2683
  125OSM   H12T13312   6.352   1.841   7.572 -0.1389  0.1087  0.1026
  125OSM   C13S13313   6.383   2.038   7.644  0.2578 -0.9144 -0.1185
  125OSM   H13S13314   6.275   2.051   7.624 -0.2224 -1.1989  2.0215
  125OSM   H13T13315   6.437   2.128   7.606  1.5683 -1.5796  0.1144
  125OSM   C14S13316   6.420   1.997   7.789 -0.0065  0.2715  0.0935
  125OSM   H14S13317   6.380   1.902   7.830 -0.6397  0.3138 -0.4123
  125OSM   H14T13318   6.364   2.071   7.851  0.2876  0.7971 -0.2571
  125OSM   C15S13319   6.568   2.012   7.818 -0.3688  0.1678  0.3786
  125OSM   H15S13320   6.604   2.109   7.777  0.1947  0.9864  2.6347
  125OSM   H15T13321   6.624   1.922   7.784  1.8361  1.1558  1.1746
  125OSM   C16S13322   6.614   2.028   7.962  0.1762 -0.1334  0.2786
  125OSM   H16S13323   6.567   2.125   7.987  0.8227  0.2375  0.0705
  125OSM   H16T13324   6.720   2.062   7.965 -0.0339  0.4692  1.0770
  125OSM   C17S13325   6.594   1.909   8.053 -0.7421  0.0578 -0.1821
  125OSM   H17S13326   6.590   1.818   7.991 -0.3155  0.3571 -0.6608
  125OSM   H17T13327   6.490   1.919   8.088 -1.7646 -0.8028 -2.7283
  125OSM   C18S13328   6.685   1.894   8.175  0.0056  0.1458  0.0961
  125OSM   H18S13329   6.633   1.831   8.250 -2.8724 -0.4710 -2.2143
  125OSM   H18T13330   6.704   1.995   8.216  0.8148  0.8666 -1.9656
  125OSM   H18U13331   6.781   1.853   8.138  0.6675  1.9111 -0.2430
  125OSM    C1F13332   6.899   2.077   6.459 -0.5375  0.5027  0.1680
  125OSM     OF13333   7.007   2.122   6.421  0.4164  0.0602  0.3521
  125OSM    C2F13334   6.866   1.930   6.472 -0.3637  0.4243 -0.4285
  125OSM    H2F13335   6.856   1.891   6.368 -1.2430 -1.2710  0.2546
  125OSM    H2G13336   6.765   1.912   6.516 -0.4948 -1.3039 -1.3440
  125OSM    C3F13337   6.961   1.861   6.566  0.2262 -0.0780 -0.9040
  125OSM    H3F13338   7.064   1.868   6.525  0.4474  1.4374 -0.1832
  125OSM    H3G13339   6.934   1.755   6.580  1.4345 -0.0995  1.9514
  125OSM    C4F13340   6.960   1.920   6.709 -0.6347  0.1673 -0.3920
  125OSM    H4F13341   6.861   1.905   6.756  0.7998  0.0673  2.8372
  125OSM    H4G13342   6.980   2.029   6.700  1.1054  0.5456  4.8643
  125OSM    C5F13343   7.052   1.853   6.809 -0.2603 -0.0982  0.2037
  125OSM    H5F13344   7.153   1.843   6.764 -0.8390 -0.9697 -0.9608
  125OSM    H5G13345   7.006   1.753   6.827 -1.3058  0.6209  1.7916
  125OSM    C6F13346   7.055   1.926   6.945  0.2115 -0.4040  0.4587
  125OSM    H6F13347   6.954   1.924   6.991  0.6506 -5.3232  1.7763
  125OSM    H6G13348   7.064   2.034   6.920  0.1481 -0.5128 -0.0442
  125OSM    C7F13349   7.150   1.875   7.047 -0.8312  0.0958 -0.0136
  125OSM    H7F13350   7.160   1.938   7.138  0.3613 -0.1509  0.0361
  125OSM    H7G13351   7.250   1.898   7.005 -1.0278 -0.1238 -0.6051
  125OSM    C8F13352   7.133   1.729   7.080 -0.1427  0.2623 -0.7509
  125OSM    H8F13353   7.232   1.678   7.084  0.9214  2.3015  1.1517
  125OSM    H8G13354   7.082   1.674   6.998  0.6271 -1.7170  0.0341
  125OSM    C9F13355   7.051   1.701   7.201  0.9255  0.4153  0.9101
  125OSM    H9F13356   6.948   1.737   7.194  1.0209  0.5929  0.3637
  125OSM   C10F13357   7.083   1.617   7.301  0.8590  0.5358 -0.1482
  125OSM   H10F13358   7.004   1.607   7.377 -0.3408  0.6672 -1.3402
  125OSM   C11F13359   7.212   1.545   7.319  0.6152  0.2699 -0.3792
  125OSM   H11F13360   7.294   1.596   7.265 -0.0730  2.5220  0.5729
  125OSM   H11G13361   7.200   1.448   7.264 -5.0519  0.9667 -1.0471
  125OSM   C12F13362   7.250   1.522   7.469 -1.3545  0.0559 -0.4768
  125OSM   H12F13363   7.261   1.623   7.512 -0.7038  0.8453 -2.3630
  125OSM   H12G13364   7.351   1.476   7.472 -1.5978 -0.4128  1.6525
  125OSM   C13F13365   7.144   1.446   7.556  0.2099 -0.8714 -0.4667
  125OSM   H13F13366   7.097   1.367   7.495 -0.1480  1.3179 -3.2252
  125OSM   H13G13367   7.067   1.521   7.586 -1.1932 -1.8339 -1.5938
  125OSM   C14F13368   7.211   1.389   7.687  0.4249 -0.0458 -0.2843
  125OSM   H14F13369   7.314   1.428   7.706 -0.6580  2.5298  0.8286
  125OSM   H14G13370   7.222   1.281   7.667  0.5755  0.3684 -2.6693
  125OSM   C15F13371   7.122   1.402   7.816  1.0044  0.5159 -0.2262
  125OSM   H15F13372   7.019   1.366   7.794  0.9817  0.0942  0.5333
  125OSM   H15G13373   7.110   1.511   7.832  2.0463  0.5174  0.6529
  125OSM   C16F13374   7.176   1.328   7.939  0.1291  0.4184  0.9616
  125OSM   H16F13375   7.281   1.364   7.948 -0.4334  2.4865 -0.0680
  125OSM   H16G13376   7.164   1.220   7.916  0.4830  0.2362  1.5952
  125OSM   C17F13377   7.104   1.368   8.068  0.1121 -0.2235 -0.0127
  125OSM   H17F13378   7.003   1.322   8.058  0.2774 -0.6199  0.1067
  125OSM   H17G13379   7.101   1.478   8.061 -0.1617 -0.1994  0.4602
  125OSM   C18F13380   7.170   1.336   8.199 -0.0578  0.2523  0.0713
  125OSM   H18F13381   7.273   1.377   8.198  0.0819 -0.0809  0.2660
  125OSM   H18G13382   7.177   1.226   8.217  1.2608 -0.0476 -1.8987
  125OSM   H18H13383   7.112   1.386   8.279 -1.9379 -0.1451 -0.9922
  126OSM      N13384   2.621   5.194   6.724  0.5448  0.2419  0.2185
  126OSM    C1513385   2.709   5.177   6.846  0.0256  0.1247 -0.4461
  126OSM   H15A13386   2.808   5.159   6.807  0.5551  0.2097  0.8254
  126OSM   H15B13387   2.682   5.083   6.891  1.0222  0.3635  0.6946
  126OSM   H15C13388   2.708   5.260   6.915 -0.1419  0.9128 -1.3618
  126OSM    C1413389   2.623   5.060   6.648  0.5527 -1.1488 -0.2371
  126OSM   H14A13390   2.616   4.975   6.713 -0.0753 -1.0953 -0.2333
  126OSM   H14B13391   2.708   5.051   6.581  0.5969  1.8429 -0.7424
  126OSM   H14C13392   2.534   5.049   6.588 -0.2693  1.4490  0.3866
  126OSM    C1313393   2.481   5.205   6.778  0.6638 -0.2827  0.3765
  126OSM   H13A13394   2.417   5.183   6.694 -0.2136 -1.8612  1.4216
  126OSM   H13B13395   2.468   5.310   6.799  1.2071 -0.0604 -0.3445
  126OSM   H13C13396   2.461   5.132   6.855 -2.1556 -0.7903 -0.7190
  126OSM    C1213397   2.657   5.312   6.638 -0.3474 -0.5209  0.0670
  126OSM   H12A13398   2.671   5.401   6.697 -0.7042  0.0811 -0.7499
  126OSM   H12B13399   2.573   5.339   6.576  0.7665  0.9127 -0.8538
  126OSM    C1113400   2.776   5.292   6.546 -0.1769 -0.4241 -0.0943
  126OSM   H11A13401   2.786   5.385   6.486 -0.1529  0.4154  1.1839
  126OSM   H11B13402   2.771   5.216   6.465 -0.0001  1.3117 -1.8061
  126OSM      P13403   3.020   5.349   6.598  0.1692  0.1501 -0.5510
  126OSM    O1313404   3.141   5.268   6.640  0.7004  0.0519  0.3141
  126OSM    O1413405   3.022   5.406   6.463  0.6878  0.2338 -0.8443
  126OSM    O1113406   3.003   5.462   6.704 -0.2077 -0.4212 -0.4027
  126OSM    O1213407   2.888   5.261   6.620  0.3972 -0.2007  0.4230
  126OSM    C1S13408   3.023   5.432   6.841  0.1999 -0.0073 -0.5454
  126OSM    H1S13409   3.128   5.395   6.844  0.5244  0.9362  1.6975
  126OSM    H1T13410   2.952   5.353   6.874  0.7414 -0.4285 -0.3687
  126OSM     NF13411   3.064   5.526   7.072 -0.1372  0.4940  0.2118
  126OSM    HNF13412   3.007   5.516   7.153  0.1442  1.8290  0.5923
  126OSM    C2S13413   3.000   5.554   6.937 -0.0860 -0.1733 -0.0594
  126OSM    H2S13414   3.041   5.650   6.899  0.4249  0.2103  1.4010
  126OSM    C3S13415   2.848   5.589   6.932 -0.8183  0.3135 -0.2380
  126OSM    H3S13416   2.809   5.498   6.984  1.0451 -0.2176  0.3052
  126OSM     O313417   2.796   5.583   6.800 -0.4527 -0.4213 -0.0690
  126OSM    HO313418   2.874   5.558   6.750 -1.2545  0.0748 -1.6553
  126OSM    C4S13419   2.815   5.718   7.006  0.0165 -0.2901 -0.3747
  126OSM    H4S13420   2.785   5.710   7.112  0.4383  0.6614 -0.1748
  126OSM    C5S13421   2.820   5.846   6.957  0.3462 -0.8803  0.2470
  126OSM    H5S13422   2.824   5.850   6.847  1.1039  0.5256  0.2981
  126OSM    C6S13423   2.800   5.976   7.031  0.0869  0.2094  0.1994
  126OSM    H6S13424   2.707   6.029   7.003  0.3355  1.1144  1.0221
  126OSM    H6T13425   2.874   6.054   7.004 -0.9500  1.5526  1.1065
  126OSM    C7S13426   2.793   5.971   7.181  0.2606 -0.5369  0.1400
  126OSM    H7S13427   2.895   5.947   7.217  0.2423 -0.4312  0.2642
  126OSM    H7T13428   2.716   5.895   7.206 -0.8400  0.3511 -0.4440
  126OSM    C8S13429   2.757   6.105   7.245  0.7807  0.0937  0.2762
  126OSM    H8S13430   2.647   6.117   7.234  0.6528 -0.3812  1.0127
  126OSM    H8T13431   2.800   6.185   7.181  2.8042 -0.0090  1.4276
  126OSM    C9S13432   2.822   6.126   7.390  0.1418  0.2685  0.4413
  126OSM    H9S13433   2.766   6.208   7.438 -2.9893 -1.4127 -0.0255
  126OSM    H9T13434   2.932   6.135   7.375  0.1726  0.0342  0.5109
  126OSM   C10S13435   2.819   6.004   7.478 -0.2043  0.3346  0.1844
  126OSM   H10S13436   2.869   5.917   7.430 -2.4289 -1.1409  0.4088
  126OSM   H10T13437   2.718   5.959   7.491  0.6624 -2.1159 -0.9129
  126OSM   C11S13438   2.864   6.024   7.622 -0.4560 -0.4794 -0.2386
  126OSM   H11S13439   2.803   6.106   7.665 -1.7872 -2.4056  1.7470
  126OSM   H11T13440   2.973   6.049   7.624 -1.0386  2.3693  0.1793
  126OSM   C12S13441   2.836   5.904   7.718  0.1965 -0.4524  0.2297
  126OSM   H12S13442   2.887   5.809   7.691  0.2956 -0.1703 -0.5939
  126OSM   H12T13443   2.727   5.886   7.717 -0.7336  3.4841  3.6888
  126OSM   C13S13444   2.863   5.938   7.861 -0.3937  0.0885 -0.1614
  126OSM   H13S13445   2.819   6.040   7.871  0.1710  0.3044  0.1405
  126OSM   H13T13446   2.973   5.949   7.870 -0.2655 -0.6787 -0.7285
  126OSM   C14S13447   2.811   5.846   7.972  0.1954 -0.7111  0.2988
  126OSM   H14S13448   2.858   5.855   8.073 -1.1524 -4.4902  1.4424
  126OSM   H14T13449   2.828   5.738   7.955  1.2902 -0.2136 -2.1184
  126OSM   C15S13450   2.663   5.863   7.986 -0.5506  0.1954 -0.0151
  126OSM   H15S13451   2.613   5.817   7.899  0.3298  1.5911 -1.3133
  126OSM   H15T13452   2.632   5.970   7.990 -2.8061 -0.4342  2.7570
  126OSM   C16S13453   2.609   5.797   8.122 -0.0562 -0.1648 -0.5797
  126OSM   H16S13454   2.645   5.859   8.206  1.0474 -0.5474 -0.7586
  126OSM   H16T13455   2.652   5.698   8.149  2.4568  0.7378 -0.9688
  126OSM   C17S13456   2.462   5.792   8.130  0.8734  0.2598  0.7697
  126OSM   H17S13457   2.422   5.714   8.062 -1.9252 -0.7516  3.3305
  126OSM   H17T13458   2.419   5.883   8.081  1.7953 -0.0166 -0.6041
  126OSM   C18S13459   2.398   5.778   8.269 -0.2114  0.4883  0.4001
  126OSM   H18S13460   2.288   5.787   8.254 -0.9244 -4.9716  0.3739
  126OSM   H18T13461   2.421   5.869   8.328 -0.3775 -0.0625  1.3290
  126OSM   H18U13462   2.424   5.689   8.330  0.4510  1.0339  0.9221
  126OSM    C1F13463   3.197   5.525   7.087  0.9244  0.4674 -0.6259
  126OSM     OF13464   3.269   5.529   6.988  0.5028 -0.3004  0.5078
  126OSM    C2F13465   3.249   5.503   7.226 -0.4438  0.6904  0.5740
  126OSM    H2F13466   3.171   5.509   7.305  2.0237  1.9764  3.0712
  126OSM    H2G13467   3.329   5.571   7.260 -0.1672  0.7498 -0.1805
  126OSM    C3F13468   3.318   5.365   7.225  0.2723  0.3063 -0.2037
  126OSM    H3F13469   3.388   5.354   7.139  0.1282  0.0763 -0.2908
  126OSM    H3G13470   3.237   5.290   7.213  0.5157 -0.1397  0.8133
  126OSM    C4F13471   3.406   5.342   7.347  0.2341  0.3414 -0.0128
  126OSM    H4F13472   3.488   5.416   7.364  0.5224 -0.2366  1.2528
  126OSM    H4G13473   3.460   5.245   7.339 -0.6195 -0.0761 -0.8674
  126OSM    C5F13474   3.315   5.336   7.474 -0.2115  0.6407  0.3580
  126OSM    H5F13475   3.233   5.267   7.444  0.5834 -0.7485  1.2366
  126OSM    H5G13476   3.274   5.437   7.493 -2.2062 -0.4580  2.3401
  126OSM    C6F13477   3.382   5.283   7.597 -0.3789 -0.7965  0.1850
  126OSM    H6F13478   3.477   5.341   7.605 -0.8647  0.5880 -2.8873
  126OSM    H6G13479   3.428   5.183   7.583  2.3147  0.3157  0.3577
  126OSM    C7F13480   3.286   5.293   7.724 -0.0955 -0.3891  0.2411
  126OSM    H7F13481   3.188   5.240   7.717 -0.4590  0.3622 -0.6225
  126OSM    H7G13482   3.267   5.403   7.723  3.0585  0.2218 -0.6072
  126OSM    C8F13483   3.359   5.248   7.849  0.5199  0.0195 -0.0971
  126OSM    H8F13484   3.465   5.278   7.837  0.6537 -0.4322 -0.0609
  126OSM    H8G13485   3.361   5.138   7.833 -1.2283 -0.0737  0.1719
  126OSM    C9F13486   3.296   5.289   7.981  0.1328  0.1945  0.5999
  126OSM    H9F13487   3.186   5.293   7.977  0.1773  0.8782 -2.2829
  126OSM   C10F13488   3.367   5.306   8.093  0.0311 -0.0959  0.1418
  126OSM   H10F13489   3.323   5.341   8.187 -0.1070  0.9280 -0.2942
  126OSM   C11F13490   3.517   5.299   8.113  0.7883 -0.1984 -0.0013
  126OSM   H11F13491   3.577   5.281   8.021  0.1466 -0.8101 -0.3091
  126OSM   H11G13492   3.539   5.212   8.178 -1.0328 -1.9323 -1.5471
  126OSM   C12F13493   3.579   5.433   8.167 -0.3039  0.2400 -0.0296
  126OSM   H12F13494   3.517   5.457   8.256  0.2745  0.5406  0.2939
  126OSM   H12G13495   3.574   5.512   8.089 -1.4607  0.0267 -0.1850
  126OSM   C13F13496   3.727   5.414   8.213  0.6375 -0.0182  0.3057
  126OSM   H13F13497   3.748   5.322   8.272  1.2658 -0.3415 -0.4016
  126OSM   H13G13498   3.757   5.504   8.272  0.5666  0.8335 -0.9324
  126OSM   C14F13499   3.814   5.413   8.091 -0.1533  0.4392 -0.0241
  126OSM   H14F13500   3.790   5.486   8.011 -0.2670 -1.9929 -2.3780
  126OSM   H14G13501   3.792   5.312   8.051 -0.7320 -0.4413  2.3288
  126OSM   C15F13502   3.967   5.414   8.113 -0.0215  0.2504  0.4398
  126OSM   H15F13503   4.009   5.396   8.012  1.1445  0.8117  0.8038
  126OSM   H15G13504   4.000   5.327   8.174  2.6605  0.8180 -0.0604
  126OSM   C16F13505   4.019   5.539   8.177  0.0163  1.0836  0.2295
  126OSM   H16F13506   3.959   5.549   8.270 -1.8258 -4.5413  0.0121
  126OSM   H16G13507   4.014   5.624   8.106 -0.4852  1.0825  0.2610
  126OSM   C17F13508   4.166   5.529   8.229 -0.8195  0.6211 -0.0750
  126OSM   H17F13509   4.239   5.509   8.147  1.0768  1.6405  1.2845
  126OSM   H17G13510   4.185   5.443   8.296  0.3780  0.5418 -0.4981
  126OSM   C18F13511   4.228   5.653   8.296 -0.5554 -0.5866 -0.0911
  126OSM   H18F13512   4.323   5.633   8.350  0.2604 -1.1569 -1.6764
  126OSM   H18G13513   4.163   5.700   8.373  0.6143 -2.7621  2.3909
  126OSM   H18H13514   4.251   5.728   8.217 -1.1031  2.3021  2.2897
  127OSM      N13515   2.785   0.131   6.359 -0.0766  0.1233  0.6822
  127OSM    C1513516   2.814   0.071   6.496  0.1321 -0.0971 -0.1543
  127OSM   H15A13517   2.895   0.119   6.549  1.5376 -1.9696 -0.5191
  127OSM   H15B13518   2.844  -0.032   6.493  0.3565 -0.0820  1.2038
  127OSM   H15C13519   2.727   0.084   6.558  0.4131 -1.1288  0.4730
  127OSM    C1413520   2.904   0.109   6.276  0.0243  0.8801  0.3981
  127OSM   H14A13521   2.999   0.147   6.311 -0.0404  0.6591  0.8193
  127OSM   H14B13522   2.888   0.142   6.174 -1.0788  0.8604  0.5494
  127OSM   H14C13523   2.916   0.002   6.265  0.3425  0.9438  0.1168
  127OSM    C1313524   2.659   0.066   6.307  0.4180 -0.5675 -0.4224
  127OSM   H13A13525   2.659  -0.039   6.283 -0.8317 -0.6709 -0.0384
  127OSM   H13B13526   2.619   0.123   6.224 -2.3230  1.0059  1.7877
  127OSM   H13C13527   2.585   0.083   6.384 -1.0011 -0.3389 -1.7806
  127OSM    C1213528   2.759   0.285   6.353 -0.2363 -0.3245 -0.0236
  127OSM   H12A13529   2.741   0.307   6.248 -1.1165  3.9142  0.8383
  127OSM   H12B13530   2.852   0.337   6.369  0.2742 -0.6691 -1.6847
  127OSM    C1113531   2.645   0.349   6.422 -0.1158 -1.1866  0.6946
  127OSM   H11A13532   2.649   0.457   6.399 -1.4088 -1.2325  0.1450
  127OSM   H11B13533   2.651   0.332   6.532 -0.8673 -1.3933  0.7113
  127OSM      P13534   2.376   0.339   6.425 -0.0768  0.4222  0.2867
  127OSM    O1313535   2.344   0.485   6.417 -0.5780 -0.1236 -0.0355
  127OSM    O1413536   2.277   0.248   6.352  0.3816  0.2497 -0.1429
  127OSM    O1113537   2.385   0.307   6.585 -0.8061  0.7391 -0.3161
  127OSM    O1213538   2.524   0.310   6.368  0.2661 -0.0384  0.1551
  127OSM    C1S13539   2.403   0.170   6.621 -0.1488 -0.7312 -0.3469
  127OSM    H1S13540   2.491   0.124   6.571  0.2740 -0.3486  0.0357
  127OSM    H1T13541   2.313   0.110   6.597 -1.5444  1.1519 -0.0744
  127OSM     NF13542   2.410   0.017   6.804  0.2162 -0.0600 -0.1754
  127OSM    HNF13543   2.337  -0.004   6.868  0.2142 -0.0586 -0.1773
  127OSM    C2S13544   2.419   0.161   6.770 -0.1405  0.0874  0.4457
  127OSM    H2S13545   2.522   0.199   6.791  0.2203 -0.5319 -0.1458
  127OSM    C3S13546   2.323   0.257   6.847 -0.1536 -0.3975  0.2096
  127OSM    H3S13547   2.219   0.233   6.815 -0.6551  0.5032  1.1155
  127OSM     O313548   2.335   0.400   6.811  0.1847  0.1714  0.4690
  127OSM    HO313549   2.396   0.392   6.737  0.2107 -0.7633  0.5728
  127OSM    C4S13550   2.338   0.244   6.998 -0.0762 -0.4745  0.3627
  127OSM    H4S13551   2.437   0.263   7.042 -0.8760  0.0249  1.9829
  127OSM    C5S13552   2.236   0.204   7.071 -0.0613  0.2013  0.7269
  127OSM    H5S13553   2.136   0.189   7.027  1.0998 -1.5219 -1.5181
  127OSM    C6S13554   2.237   0.182   7.220 -0.1767  0.4011 -1.0375
  127OSM    H6S13555   2.199   0.080   7.241 -1.3231  1.2992  1.7201
  127OSM    H6T13556   2.165   0.253   7.266 -0.5010  1.1307 -2.5805
  127OSM    C7S13557   2.376   0.195   7.286  0.3531  0.0545 -0.0017
  127OSM    H7S13558   2.458   0.138   7.236 -0.4436 -1.7836  0.6723
  127OSM    H7T13559   2.372   0.139   7.382  0.3731 -0.2195 -0.1597
  127OSM    C8S13560   2.409   0.338   7.319  0.0234 -0.2018 -0.0770
  127OSM    H8S13561   2.349   0.357   7.410 -1.0861  0.9968 -1.0238
  127OSM    H8T13562   2.379   0.407   7.237  2.7258  2.4301  0.9367
  127OSM    C9S13563   2.554   0.379   7.346  0.3039  0.4716 -0.7317
  127OSM    H9S13564   2.616   0.333   7.266  0.6363  0.7535 -0.6388
  127OSM    H9T13565   2.577   0.329   7.442  0.8149  0.2291 -0.9795
  127OSM   C10S13566   2.560   0.533   7.368 -0.0586  0.0324 -0.2188
  127OSM   H10S13567   2.510   0.586   7.284 -2.2596  1.8576  2.0597
  127OSM   H10T13568   2.668   0.556   7.367  0.3302 -1.1751 -4.2479
  127OSM   C11S13569   2.500   0.593   7.499  0.3917 -0.0213  0.6235
  127OSM   H11S13570   2.390   0.576   7.506 -0.2396  2.3380 -2.1184
  127OSM   H11T13571   2.505   0.704   7.494 -2.4818  0.2096  1.2294
  127OSM   C12S13572   2.568   0.544   7.630  0.9931  0.0905  0.8328
  127OSM   H12S13573   2.668   0.591   7.621  1.3939 -1.0316 -1.1882
  127OSM   H12T13574   2.585   0.435   7.626 -0.5208 -0.1251 -1.2200
  127OSM   C13S13575   2.500   0.595   7.761 -0.2271 -0.5413 -0.6863
  127OSM   H13S13576   2.413   0.526   7.760 -0.1184 -0.6782 -0.7146
  127OSM   H13T13577   2.467   0.700   7.753  1.9418  0.1662 -0.8324
  127OSM   C14S13578   2.579   0.578   7.896 -0.1642 -0.5891 -0.1950
  127OSM   H14S13579   2.675   0.633   7.889 -1.1656  1.0868 -1.5963
  127OSM   H14T13580   2.612   0.473   7.908  1.0262 -0.5137 -2.3466
  127OSM   C15S13581   2.507   0.647   8.017 -0.6753 -0.5487 -0.2715
  127OSM   H15S13582   2.527   0.756   8.015  3.2344 -1.1377 -1.9431
  127OSM   H15T13583   2.558   0.621   8.112 -3.0795 -0.1711  1.2061
  127OSM   C16S13584   2.359   0.623   8.027  0.1914  0.2575  0.4764
  127OSM   H16S13585   2.330   0.519   8.002  0.9315  0.6366 -2.2783
  127OSM   H16T13586   2.301   0.677   7.950 -0.7958 -0.1005  0.9540
  127OSM   C17S13587   2.303   0.662   8.164  0.2596  0.5884  0.5372
  127OSM   H17S13588   2.316   0.772   8.176  0.4370  0.4921  1.2918
  127OSM   H17T13589   2.368   0.622   8.246 -0.4980  1.2195  1.4670
  127OSM   C18S13590   2.160   0.624   8.189  0.1609  0.5123 -0.7475
  127OSM   H18S13591   2.125   0.657   8.289  1.7618  3.2694 -0.9831
  127OSM   H18T13592   2.167   0.513   8.197 -1.2554  0.2353 -2.6743
  127OSM   H18U13593   2.084   0.657   8.116 -1.5810  3.4941  2.1245
  127OSM    C1F13594   2.492  -0.077   6.766  0.4892  0.5023  0.0149
  127OSM     OF13595   2.597  -0.048   6.704  0.0143  0.8020  0.0680
  127OSM    C2F13596   2.458  -0.218   6.809  0.0947  0.0700 -0.7121
  127OSM    H2F13597   2.509  -0.291   6.743  0.9076 -0.2562  0.2591
  127OSM    H2G13598   2.349  -0.236   6.795  0.3879 -1.0111 -1.7548
  127OSM    C3F13599   2.522  -0.245   6.945 -0.1259 -0.2625 -0.0848
  127OSM    H3F13600   2.620  -0.193   6.946 -0.3577  0.1860  0.0136
  127OSM    H3G13601   2.536  -0.354   6.957  1.2629 -0.0516  0.3020
  127OSM    C4F13602   2.433  -0.206   7.061  0.0461  0.3277 -0.6310
  127OSM    H4F13603   2.341  -0.267   7.047 -0.0763  0.6022 -1.0382
  127OSM    H4G13604   2.403  -0.099   7.063 -2.1432 -0.2241 -1.6703
  127OSM    C5F13605   2.498  -0.242   7.201 -0.1075 -0.0909  0.9765
  127OSM    H5F13606   2.566  -0.156   7.221 -1.4578  0.7075  2.3384
  127OSM    H5G13607   2.559  -0.335   7.198  1.3755  0.8605 -2.2349
  127OSM    C6F13608   2.399  -0.258   7.322  0.5108  0.2472  0.6326
  127OSM    H6F13609   2.328  -0.176   7.303 -0.1870 -0.4614  0.1258
  127OSM    H6G13610   2.449  -0.238   7.420 -1.5880  2.6459  1.3066
  127OSM    C7F13611   2.330  -0.394   7.328 -0.5380 -0.7879  0.7632
  127OSM    H7F13612   2.412  -0.468   7.336  0.5845  0.4095  0.6106
  127OSM    H7G13613   2.281  -0.411   7.230  1.0682  1.8619 -0.6244
  127OSM    C8F13614   2.245  -0.401   7.449 -0.1533  0.8709 -0.1953
  127OSM    H8F13615   2.158  -0.332   7.438 -1.7374 -0.5992  2.1788
  127OSM    H8G13616   2.310  -0.375   7.535  1.3991 -1.4756 -0.5983
  127OSM    C9F13617   2.180  -0.533   7.473  0.1292 -0.2926  0.4668
  127OSM    H9F13618   2.103  -0.545   7.396 -0.5861  2.3514  0.6742
  127OSM   C10F13619   2.199  -0.624   7.571  0.5631 -0.2796  0.5012
  127OSM   H10F13620   2.124  -0.704   7.579 -2.2351  2.1740  0.4942
  127OSM   C11F13621   2.296  -0.625   7.683 -0.4918  0.3101  0.2069
  127OSM   H11F13622   2.394  -0.612   7.632 -1.8122  2.9696 -1.8885
  127OSM   H11G13623   2.300  -0.728   7.725  2.7141  0.7969  1.3382
  127OSM   C12F13624   2.289  -0.541   7.811  0.2571  0.7045 -0.6868
  127OSM   H12F13625   2.218  -0.581   7.887  0.9468  2.3825  0.9137
  127OSM   H12G13626   2.234  -0.447   7.792 -1.3002  0.0994  0.6240
  127OSM   C13F13627   2.420  -0.504   7.875  0.6290  0.6089  0.1708
  127OSM   H13F13628   2.481  -0.431   7.817  0.9419  0.1723 -0.0559
  127OSM   H13G13629   2.481  -0.596   7.874 -0.6792 -0.2834 -0.1672
  127OSM   C14F13630   2.405  -0.455   8.021 -0.0242  0.0823  0.2970
  127OSM   H14F13631   2.332  -0.372   8.025 -0.7043 -0.5191  0.7222
  127OSM   H14G13632   2.507  -0.418   8.044  0.2764  0.9053 -2.1318
  127OSM   C15F13633   2.368  -0.574   8.117 -0.1055 -0.2305 -0.2488
  127OSM   H15F13634   2.429  -0.662   8.085  2.0797  0.9109  0.5502
  127OSM   H15G13635   2.259  -0.593   8.112 -0.5043  1.9453 -0.6534
  127OSM   C16F13636   2.396  -0.550   8.264 -0.3393 -0.3000 -0.1533
  127OSM   H16F13637   2.350  -0.450   8.276  1.1571  0.3408  0.5878
  127OSM   H16G13638   2.502  -0.526   8.289  0.0757  0.5005 -2.4017
  127OSM   C17F13639   2.345  -0.664   8.358 -0.1132  0.1717 -0.9280
  127OSM   H17F13640   2.381  -0.761   8.318 -0.7464 -0.0122 -1.0635
  127OSM   H17G13641   2.234  -0.651   8.360  0.1202  2.4073  0.4009
  127OSM   C18F13642   2.400  -0.647   8.503 -0.1717 -0.0110  0.3562
  127OSM   H18F13643   2.323  -0.683   8.574 -1.6638  2.4195  0.1213
  127OSM   H18G13644   2.429  -0.540   8.514  0.1163 -0.1575  1.0629
  127OSM   H18H13645   2.497  -0.697   8.519  0.3806  0.5448 -1.0652
  128OSM      N13646   0.445   2.397   5.952  0.7976  0.1223 -0.5460
  128OSM    C1513647   0.321   2.341   6.012 -0.9217 -0.2677  0.6780
  128OSM   H15A13648   0.276   2.292   5.927 -0.6603  2.7066 -1.3295
  128OSM   H15B13649   0.251   2.412   6.053  0.5574  0.3777  2.2010
  128OSM   H15C13650   0.349   2.281   6.097  1.1341 -1.0535 -0.4962
  128OSM    C1413651   0.553   2.295   5.948  0.4978 -0.2680 -0.4825
  128OSM   H14A13652   0.579   2.269   6.049 -0.4476  0.0298 -0.1465
  128OSM   H14B13653   0.641   2.337   5.903  1.3476 -1.9715 -0.5171
  128OSM   H14C13654   0.523   2.207   5.891  1.5496 -1.0744  0.1825
  128OSM    C1313655   0.413   2.451   5.812 -0.4282  0.8529 -0.0730
  128OSM   H13A13656   0.356   2.542   5.822  1.4210  2.0295  0.1552
  128OSM   H13B13657   0.358   2.376   5.757 -1.9950  0.6427  1.6928
  128OSM   H13C13658   0.503   2.483   5.761  0.5843 -0.3557  0.8612
  128OSM    C1213659   0.484   2.512   6.034 -0.7306 -0.7224  0.2424
  128OSM   H12A13660   0.529   2.494   6.131 -0.8453  1.0272  0.6502
  128OSM   H12B13661   0.392   2.561   6.063 -0.6872 -1.3981  1.6472
  128OSM    C1113662   0.580   2.614   5.964 -0.7181  0.3840  0.1994
  128OSM   H11A13663   0.593   2.692   6.043  0.6776 -2.4032  2.9580
  128OSM   H11B13664   0.554   2.669   5.871  3.7070  2.0606 -0.2959
  128OSM      P13665   0.840   2.613   5.994  0.1621  0.1210  0.2000
  128OSM    O1313666   0.952   2.517   6.010 -0.7137  0.4514 -0.3614
  128OSM    O1413667   0.851   2.715   5.885 -0.3562 -0.0152 -0.2632
  128OSM    O1113668   0.815   2.687   6.129  0.2655  0.4056 -0.4205
  128OSM    O1213669   0.706   2.543   5.965  0.6783 -0.2151  0.3986
  128OSM    C1S13670   0.779   2.621   6.259  0.5860 -0.4046  0.2846
  128OSM    H1S13671   0.845   2.534   6.277  0.4047 -0.4385  0.7911
  128OSM    H1T13672   0.677   2.575   6.256  1.3438 -2.1260 -0.6454
  128OSM     NF13673   0.714   2.669   6.497 -0.1712  0.1831 -0.9241
  128OSM    HNF13674   0.622   2.690   6.527 -0.4866 -0.2240 -1.5773
  128OSM    C2S13675   0.772   2.723   6.377  0.6254 -0.0120  1.0391
  128OSM    H2S13676   0.878   2.748   6.397  0.7874 -0.6076  0.9531
  128OSM    C3S13677   0.698   2.848   6.326  0.1828 -0.3725 -0.3508
  128OSM    H3S13678   0.598   2.816   6.289  0.3930  0.8265 -2.0896
  128OSM     O313679   0.773   2.918   6.223 -0.0601 -0.7870 -1.0510
  128OSM    HO313680   0.821   2.853   6.170 -0.2482 -0.2012 -1.9535
  128OSM    C4S13681   0.679   2.944   6.444  0.1098 -0.4282 -0.2521
  128OSM    H4S13682   0.587   2.923   6.500  0.8033 -0.7837  0.7756
  128OSM    C5S13683   0.765   3.044   6.488  0.5151 -0.6077 -0.5410
  128OSM    H5S13684   0.858   3.060   6.432  1.5882  0.2281  1.3858
  128OSM    C6S13685   0.761   3.126   6.617 -0.3873  0.2952  0.4966
  128OSM    H6S13686   0.728   3.225   6.579 -2.5493 -0.9330 -1.1080
  128OSM    H6T13687   0.864   3.147   6.652  0.1279  0.7381 -1.2045
  128OSM    C7S13688   0.660   3.073   6.719 -0.1454  0.4629  0.2249
  128OSM    H7S13689   0.558   3.077   6.676 -0.9817  0.5671  2.1224
  128OSM    H7T13690   0.654   3.161   6.787  0.5955 -0.9612  2.2325
  128OSM    C8S13691   0.714   2.951   6.800 -0.1400  0.6729  0.3407
  128OSM    H8S13692   0.810   2.982   6.847  0.4017 -0.0728 -0.2581
  128OSM    H8T13693   0.728   2.858   6.742 -0.6761  1.1868 -0.6321
  128OSM    C9S13694   0.621   2.907   6.918  0.2514  0.3240  0.6088
  128OSM    H9S13695   0.537   2.849   6.875  0.9079  1.3646 -2.3153
  128OSM    H9T13696   0.580   2.999   6.965 -0.1831  0.9193 -0.8646
  128OSM   C10S13697   0.692   2.815   7.014 -0.7263 -0.3329 -0.2273
  128OSM   H10S13698   0.765   2.877   7.070 -2.9422  1.5769  0.7044
  128OSM   H10T13699   0.752   2.743   6.953  1.1476  0.6515  0.3710
  128OSM   C11S13700   0.605   2.733   7.113  0.0370  0.5734 -0.4539
  128OSM   H11S13701   0.660   2.653   7.166 -0.6519  0.3789 -0.0205
  128OSM   H11T13702   0.521   2.678   7.063  0.3901 -0.5057  0.1102
  128OSM   C12S13703   0.542   2.825   7.221 -0.6270  0.3585  0.6022
  128OSM   H12S13704   0.464   2.884   7.168 -0.2026 -0.1472 -0.6303
  128OSM   H12T13705   0.606   2.909   7.255  1.0891  0.1615 -1.8928
  128OSM   C13S13706   0.479   2.750   7.327 -0.4632  0.1748 -0.4429
  128OSM   H13S13707   0.432   2.660   7.282  3.4514 -1.5454 -1.5631
  128OSM   H13T13708   0.408   2.828   7.361 -0.4739 -0.2540  0.5440
  128OSM   C14S13709   0.569   2.714   7.447 -0.4207  0.1454  0.0952
  128OSM   H14S13710   0.621   2.805   7.484 -0.6878  0.7598 -0.9840
  128OSM   H14T13711   0.657   2.653   7.417 -2.8243 -2.8339 -1.4554
  128OSM   C15S13712   0.494   2.646   7.554 -0.1020  0.0326 -1.2830
  128OSM   H15S13713   0.436   2.556   7.526 -2.0457  1.1770 -1.1847
  128OSM   H15T13714   0.418   2.726   7.573  0.2071  0.1510 -0.4823
  128OSM   C16S13715   0.578   2.622   7.675 -0.3175  0.2821 -0.3775
  128OSM   H16S13716   0.643   2.708   7.702 -1.3325  0.9759 -0.0913
  128OSM   H16T13717   0.652   2.543   7.650 -0.2794  0.4488 -0.7989
  128OSM   C17S13718   0.500   2.583   7.799 -0.1272 -0.4871 -0.0678
  128OSM   H17S13719   0.434   2.502   7.761  0.1129 -0.2347 -1.0741
  128OSM   H17T13720   0.442   2.672   7.829 -0.7969 -0.8252 -0.3454
  128OSM   C18S13721   0.596   2.531   7.909 -0.3732  0.2902  0.3354
  128OSM   H18S13722   0.669   2.613   7.925 -2.4254  2.4238 -0.6413
  128OSM   H18T13723   0.648   2.442   7.867 -0.4923 -0.0074  0.8112
  128OSM   H18U13724   0.547   2.515   8.008 -0.1356  0.1383  0.4291
  128OSM    C1F13725   0.775   2.580   6.574  0.0353  0.0366 -0.5378
  128OSM     OF13726   0.894   2.547   6.560  0.0737 -0.6027 -0.3490
  128OSM    C2F13727   0.700   2.536   6.695  0.2281 -0.0061 -0.1462
  128OSM    H2F13728   0.591   2.525   6.676  0.2722 -2.2803  0.6504
  128OSM    H2G13729   0.713   2.609   6.777  0.2659 -0.8282  0.5886
  128OSM    C3F13730   0.749   2.394   6.740  0.8071  0.2286 -0.5150
  128OSM    H3F13731   0.850   2.399   6.787 -0.6423  0.2949  2.9127
  128OSM    H3G13732   0.765   2.326   6.653  0.5803  0.7642 -0.9778
  128OSM    C4F13733   0.648   2.310   6.821  0.1435 -0.2332 -0.0442
  128OSM    H4F13734   0.691   2.208   6.832 -0.9411 -0.6527  0.4248
  128OSM    H4G13735   0.554   2.299   6.763 -0.0737 -1.1036  0.4566
  128OSM    C5F13736   0.621   2.375   6.959  0.2891  0.0480  0.5089
  128OSM    H5F13737   0.548   2.458   6.946 -0.3748 -0.1532  2.5330
  128OSM    H5G13738   0.714   2.426   6.994  1.7085 -1.0617 -1.4723
  128OSM    C6F13739   0.582   2.267   7.061  0.1911 -0.3874  0.4098
  128OSM    H6F13740   0.662   2.192   7.078 -1.2354 -1.6600  1.8107
  128OSM    H6G13741   0.498   2.213   7.012 -0.2093 -0.4272  1.1339
  128OSM    C7F13742   0.525   2.332   7.191 -0.2586  0.4870 -0.1567
  128OSM    H7F13743   0.449   2.403   7.155 -2.6910 -1.6922  0.3706
  128OSM    H7G13744   0.607   2.387   7.244  1.5707  0.2216 -2.5472
  128OSM    C8F13745   0.466   2.225   7.281 -0.0563 -0.2280  0.2008
  128OSM    H8F13746   0.537   2.144   7.307 -0.2590 -0.5930 -0.3537
  128OSM    H8G13747   0.387   2.175   7.221 -0.2219 -0.8978  0.9613
  128OSM    C9F13748   0.397   2.299   7.398  0.3881  0.1692 -0.1774
  128OSM    H9F13749   0.343   2.393   7.379 -0.2690  0.1222  1.3854
  128OSM   C10F13750   0.393   2.251   7.523 -0.1463 -0.4073  1.0648
  128OSM   H10F13751   0.352   2.316   7.602 -1.1812  0.1912  0.0576
  128OSM   C11F13752   0.476   2.130   7.574 -0.3100 -0.8685 -0.0716
  128OSM   H11F13753   0.543   2.081   7.500 -0.1768  0.8052 -1.0963
  128OSM   H11G13754   0.407   2.045   7.595 -0.3978 -0.9919 -0.8213
  128OSM   C12F13755   0.553   2.160   7.704 -0.6035 -0.4403 -0.5214
  128OSM   H12F13756   0.488   2.203   7.784  0.3128 -1.6270  0.9145
  128OSM   H12G13757   0.637   2.229   7.679 -2.0826  1.9868  0.8006
  128OSM   C13F13758   0.619   2.033   7.771 -0.0423  0.5951 -0.5595
  128OSM   H13F13759   0.683   1.982   7.696 -0.9361 -3.8125  1.3464
  128OSM   H13G13760   0.534   1.970   7.805 -0.1365  1.8308  1.6784
  128OSM   C14F13761   0.711   2.044   7.896 -0.4213  0.2735 -0.2665
  128OSM   H14F13762   0.808   2.085   7.858  1.9073 -3.7605  0.7645
  128OSM   H14G13763   0.737   1.943   7.932  1.6786  0.9066  0.1210
  128OSM   C15F13764   0.656   2.134   8.006 -0.6947 -0.4379  0.1172
  128OSM   H15F13765   0.550   2.105   8.021 -1.1633  1.2917  0.3664
  128OSM   H15G13766   0.661   2.237   7.964  3.1723 -0.2965  0.5547
  128OSM   C16F13767   0.730   2.132   8.143  0.0429  0.2162  0.4273
  128OSM   H16F13768   0.832   2.175   8.144 -0.4853  1.8453 -2.8059
  128OSM   H16G13769   0.732   2.025   8.175 -2.0628 -0.1827 -0.6258
  128OSM   C17F13770   0.652   2.211   8.251 -1.0582 -0.3848  0.5043
  128OSM   H17F13771   0.560   2.155   8.278 -0.1134 -1.3079  1.8729
  128OSM   H17G13772   0.610   2.302   8.203  0.9330 -0.0499 -0.7218
  128OSM   C18F13773   0.743   2.254   8.363 -0.1468 -0.8494  0.3209
  128OSM   H18F13774   0.835   2.297   8.319  0.3083 -0.6618  1.4356
  128OSM   H18G13775   0.763   2.163   8.423  0.6309 -0.8192  0.1156
  128OSM   H18H13776   0.698   2.335   8.424  1.2953  0.3817 -0.2011
  129OSM      N13777   6.163   6.782   5.937 -0.9136  0.2259 -0.4316
  129OSM    C1513778   6.252   6.903   5.930 -0.2460  0.0399  0.3900
  129OSM   H15A13779   6.224   6.959   5.842  1.0344  0.8259  0.4618
  129OSM   H15B13780   6.356   6.885   5.907  0.1668  2.6702 -0.1731
  129OSM   H15C13781   6.246   6.961   6.021  1.3950 -1.5608  1.5911
  129OSM    C1413782   6.018   6.831   5.916 -0.0318  0.0687  0.3239
  129OSM   H14A13783   5.979   6.893   5.994 -1.7215  0.3046 -0.6722
  129OSM   H14B13784   5.954   6.745   5.925 -1.0637  0.3309 -3.0055
  129OSM   H14C13785   6.008   6.875   5.818 -0.4285 -1.7622 -0.5093
  129OSM    C1313786   6.202   6.684   5.827 -0.2555 -0.0327 -0.1762
  129OSM   H13A13787   6.295   6.632   5.846 -0.4314  0.2966  1.7785
  129OSM   H13B13788   6.217   6.731   5.730  0.8849 -0.3455 -0.1645
  129OSM   H13C13789   6.132   6.603   5.816  0.1285 -0.2694 -0.9677
  129OSM    C1213790   6.171   6.710   6.068 -0.2415 -0.3484  0.8505
  129OSM   H12A13791   6.176   6.784   6.147 -2.8597 -1.7815  2.5081
  129OSM   H12B13792   6.265   6.657   6.077 -0.8743 -1.6984 -0.2705
  129OSM    C1113793   6.063   6.610   6.108  0.4107  0.3478 -0.1967
  129OSM   H11A13794   5.964   6.660   6.115 -0.1128 -0.4817 -1.3565
  129OSM   H11B13795   6.090   6.578   6.211  1.6668 -0.3253 -0.7164
  129OSM      P13796   5.983   6.371   6.023 -0.0052 -0.2739  0.0728
  129OSM    O1313797   5.848   6.398   5.965 -0.0876  0.8596  0.3439
  129OSM    O1413798   6.063   6.263   5.957  0.3668 -0.0692 -0.3181
  129OSM    O1113799   5.980   6.335   6.177  0.7231  0.2512  0.4013
  129OSM    O1213800   6.070   6.499   6.016 -0.7337 -0.2113 -0.0877
  129OSM    C1S13801   6.101   6.279   6.243  0.3774  0.1344 -0.2582
  129OSM    H1S13802   6.183   6.351   6.228 -0.3893  1.6393  2.1030
  129OSM    H1T13803   6.140   6.182   6.207 -2.5484 -0.6770 -1.5841
  129OSM     NF13804   6.177   6.244   6.478 -0.1013 -0.8592  0.0737
  129OSM    HNF13805   6.201   6.151   6.506 -0.6560 -1.9509 -2.7101
  129OSM    C2S13806   6.062   6.268   6.395  0.0667  0.2890  0.3226
  129OSM    H2S13807   6.009   6.361   6.423 -1.2692  0.7272 -3.1293
  129OSM    C3S13808   5.955   6.157   6.409 -0.6451  0.0335 -0.4091
  129OSM    H3S13809   6.001   6.058   6.388  0.1766  0.4281 -0.5019
  129OSM     O313810   5.848   6.162   6.314 -0.0360 -0.4943  0.0554
  129OSM    HO313811   5.881   6.234   6.259 -0.6341  0.5918  1.0646
  129OSM    C4S13812   5.909   6.134   6.553  0.4819 -0.2513 -0.6215
  129OSM    H4S13813   5.960   6.047   6.598  2.3934  1.2277  0.2330
  129OSM    C5S13814   5.805   6.193   6.616 -0.2109 -0.4196 -0.4922
  129OSM    H5S13815   5.747   6.268   6.561 -0.9112  0.7588  1.7236
  129OSM    C6S13816   5.754   6.162   6.753  0.1947 -0.8488 -0.0031
  129OSM    H6S13817   5.655   6.112   6.747 -0.6007  0.8417 -1.7314
  129OSM    H6T13818   5.728   6.259   6.800  1.2010 -0.7496  0.3768
  129OSM    C7S13819   5.845   6.088   6.850  0.2118  0.5774  0.6350
  129OSM    H7S13820   5.948   6.131   6.850  0.9737 -1.1277 -1.0406
  129OSM    H7T13821   5.827   5.981   6.830 -0.8552  0.6446  1.1465
  129OSM    C8S13822   5.795   6.093   6.995  0.1932 -0.3680 -0.0872
  129OSM    H8S13823   5.696   6.043   6.999  0.3743 -0.6864  0.9487
  129OSM    H8T13824   5.797   6.198   7.031 -2.3893  0.2571 -1.5106
  129OSM    C9S13825   5.884   6.019   7.094 -0.1738  0.3072 -0.5743
  129OSM    H9S13826   5.987   6.052   7.069 -0.9369  1.1557 -2.8128
  129OSM    H9T13827   5.882   5.908   7.086  0.6032  0.2227  0.2531
  129OSM   C10S13828   5.846   6.045   7.239 -0.5339  0.7360  0.0731
  129OSM   H10S13829   5.747   5.995   7.246 -0.1156 -0.0775  0.2681
  129OSM   H10T13830   5.832   6.154   7.257 -1.2761  0.4098  1.7292
  129OSM   C11S13831   5.950   5.978   7.330  0.4222  0.9155 -0.3313
  129OSM   H11S13832   6.043   6.037   7.316  2.7308 -1.3761  3.7047
  129OSM   H11T13833   5.967   5.870   7.312  0.1089  0.7719  0.2194
  129OSM   C12S13834   5.911   5.998   7.477  0.0955 -0.3287  0.0633
  129OSM   H12S13835   5.807   5.965   7.500 -0.4955  0.5495 -1.1949
  129OSM   H12T13836   5.896   6.108   7.483  1.7670 -0.0467 -0.5775
  129OSM   C13S13837   6.009   5.947   7.580 -0.0487  0.0052  0.3302
  129OSM   H13S13838   6.112   5.983   7.563  0.1289 -0.3634  0.6356
  129OSM   H13T13839   6.017   5.836   7.580  2.7680  0.1364 -1.1155
  129OSM   C14S13840   5.960   5.994   7.713  0.5435 -0.0955 -0.8509
  129OSM   H14S13841   5.855   5.962   7.723  0.6506 -0.2975 -0.3035
  129OSM   H14T13842   5.949   6.104   7.719 -2.1549 -0.3829  1.4511
  129OSM   C15S13843   6.037   5.935   7.825  0.1086 -0.1856 -0.1285
  129OSM   H15S13844   6.101   5.848   7.798 -1.0904 -1.5738  1.2824
  129OSM   H15T13845   5.978   5.914   7.917  1.7066 -1.2024  0.7085
  129OSM   C16S13846   6.149   6.029   7.869 -0.5438 -0.1032 -0.1299
  129OSM   H16S13847   6.207   6.077   7.787  0.2664  0.4712  0.7558
  129OSM   H16T13848   6.226   5.963   7.916  0.3013  1.5552  0.8927
  129OSM   C17S13849   6.124   6.139   7.972  0.1124  0.3533  0.5483
  129OSM   H17S13850   6.032   6.189   7.935  0.3233 -0.2543 -0.8747
  129OSM   H17T13851   6.213   6.206   7.974 -0.6205  1.4200 -0.9678
  129OSM   C18S13852   6.085   6.072   8.106  0.4534 -0.2318 -0.4940
  129OSM   H18S13853   6.066   6.162   8.168  0.3903  1.6623 -3.0710
  129OSM   H18T13854   6.167   6.001   8.130 -0.3021 -0.1457  2.7214
  129OSM   H18U13855   5.992   6.011   8.101  0.6572 -0.4536 -2.3976
  129OSM    C1F13856   6.268   6.340   6.504  0.9610 -0.3151  0.1215
  129OSM     OF13857   6.270   6.445   6.443  0.4843  0.0002 -0.1228
  129OSM    C2F13858   6.368   6.312   6.610 -0.6657  0.1455  0.1642
  129OSM    H2F13859   6.466   6.357   6.580  0.2910 -0.8483  1.6647
  129OSM    H2G13860   6.391   6.204   6.616 -1.3395 -0.0063  0.0583
  129OSM    C3F13861   6.323   6.368   6.742  0.6128 -0.1503  0.4486
  129OSM    H3F13862   6.233   6.319   6.785 -0.3304  0.4222 -0.8033
  129OSM    H3G13863   6.305   6.478   6.733  3.1432  0.2299 -0.6497
  129OSM    C4F13864   6.431   6.355   6.851 -0.2393 -0.4191 -0.3726
  129OSM    H4F13865   6.390   6.401   6.943  3.2465 -0.4283  1.3187
  129OSM    H4G13866   6.526   6.404   6.820  1.8562 -3.7620  0.2600
  129OSM    C5F13867   6.468   6.210   6.885 -0.3326  1.0079 -0.8950
  129OSM    H5F13868   6.512   6.160   6.796 -0.3071  3.1045 -2.1274
  129OSM    H5G13869   6.376   6.157   6.917  0.0596 -0.2595 -1.8066
  129OSM    C6F13870   6.570   6.194   6.996  0.1048 -0.1207  0.4566
  129OSM    H6F13871   6.666   6.245   6.972  0.5585 -0.7450  0.8983
  129OSM    H6G13872   6.587   6.084   6.995 -1.0028 -0.2994 -1.0756
  129OSM    C7F13873   6.520   6.222   7.138 -0.2352  0.0300 -0.1644
  129OSM    H7F13874   6.416   6.183   7.134 -0.2442  0.0794 -0.5044
  129OSM    H7G13875   6.509   6.331   7.159 -0.6007  0.1136 -0.7639
  129OSM    C8F13876   6.593   6.145   7.250  0.0628 -0.2682  0.3527
  129OSM    H8F13877   6.603   6.038   7.222 -2.5670 -0.4608 -0.1047
  129OSM    H8G13878   6.534   6.152   7.343 -0.3177 -4.5224  0.6435
  129OSM    C9F13879   6.729   6.197   7.252 -0.5293 -0.2592  1.3727
  129OSM    H9F13880   6.778   6.235   7.161  0.5923 -0.6911  1.7768
  129OSM   C10F13881   6.819   6.199   7.350 -0.1528  0.2747  0.0314
  129OSM   H10F13882   6.923   6.228   7.330 -0.0207  0.4582  0.9069
  129OSM   C11F13883   6.799   6.124   7.480  0.6022 -0.3695  0.0915
  129OSM   H11F13884   6.866   6.036   7.490 -1.6242 -2.0846  0.8960
  129OSM   H11G13885   6.695   6.084   7.478  0.0400  0.5244 -6.0585
  129OSM   C12F13886   6.802   6.211   7.604  0.4327  0.0281 -0.2150
  129OSM   H12F13887   6.729   6.292   7.582 -0.1755 -0.5741 -0.4625
  129OSM   H12G13888   6.900   6.261   7.623  0.1302  0.9015 -0.9035
  129OSM   C13F13889   6.761   6.137   7.729  0.0405  0.8639  0.1824
  129OSM   H13F13890   6.824   6.046   7.737 -0.8628  0.3073  1.4350
  129OSM   H13G13891   6.651   6.118   7.732 -0.4594  3.4577  2.3411
  129OSM   C14F13892   6.800   6.206   7.864 -0.5868  0.0206 -0.5970
  129OSM   H14F13893   6.724   6.284   7.886 -0.4699 -0.0817  0.2049
  129OSM   H14G13894   6.901   6.251   7.853 -0.3822 -0.2201  0.2005
  129OSM   C15F13895   6.794   6.112   7.983  0.1250  1.1406  0.1585
  129OSM   H15F13896   6.866   6.028   7.981 -2.7007 -1.4367 -0.4939
  129OSM   H15G13897   6.702   6.050   7.982  0.9584 -0.8025  5.7375
  129OSM   C16F13898   6.795   6.192   8.116  0.1356  0.2257 -0.0039
  129OSM   H16F13899   6.699   6.247   8.133  0.0722 -0.4683  2.1654
  129OSM   H16G13900   6.876   6.267   8.105 -0.1224  0.2503 -2.4101
  129OSM   C17F13901   6.814   6.098   8.233 -0.4449 -0.4187  0.5823
  129OSM   H17F13902   6.919   6.064   8.218 -0.4879  0.0075 -0.8325
  129OSM   H17G13903   6.739   6.016   8.239 -0.6643 -0.1809  1.1727
  129OSM   C18F13904   6.820   6.175   8.371 -0.1871  0.6516 -0.0993
  129OSM   H18F13905   6.890   6.262   8.365 -0.0904  0.5286 -0.8581
  129OSM   H18G13906   6.861   6.109   8.450 -1.2697 -1.3014 -1.1150
  129OSM   H18H13907   6.721   6.207   8.409  0.4008 -0.6639  2.8000
  130OSM      N13908   1.465   2.877   5.882  0.1822  0.0193  0.5801
  130OSM    C1513909   1.510   2.998   5.808  0.1816 -0.1239 -0.3868
  130OSM   H15A13910   1.525   2.977   5.703 -0.0479  0.7110 -0.5956
  130OSM   H15B13911   1.600   3.042   5.849  0.3856  0.4015 -1.3669
  130OSM   H15C13912   1.435   3.076   5.810 -1.6655 -1.8193 -0.4367
  130OSM    C1413913   1.400   2.773   5.786  0.3055  0.0108 -0.7995
  130OSM   H14A13914   1.469   2.752   5.706 -0.5899 -0.7693 -1.3806
  130OSM   H14B13915   1.306   2.804   5.742 -0.3800  0.1668  0.7027
  130OSM   H14C13916   1.387   2.679   5.837  0.8405  0.0933 -0.5044
  130OSM    C1313917   1.590   2.810   5.928  0.3606 -0.1841  0.1753
  130OSM   H13A13918   1.578   2.737   6.006  1.9992 -1.2241 -0.4929
  130OSM   H13B13919   1.655   2.882   5.976  2.9652 -0.8962 -2.0001
  130OSM   H13C13920   1.650   2.762   5.852  0.0470  1.0025 -0.8613
  130OSM    C1213921   1.373   2.918   5.995 -0.2877  0.2818  0.1172
  130OSM   H12A13922   1.283   2.959   5.952 -1.3869  0.7925  2.6945
  130OSM   H12B13923   1.409   3.002   6.054  0.1265 -0.0287  0.3128
  130OSM    C1113924   1.333   2.807   6.098  0.4836 -0.8668 -0.1067
  130OSM   H11A13925   1.276   2.731   6.041 -0.4787 -0.0611 -0.2494
  130OSM   H11B13926   1.260   2.862   6.161  0.5089  0.5313 -1.2365
  130OSM      P13927   1.495   2.844   6.300 -0.5313  0.1018  0.2381
  130OSM    O1313928   1.614   2.779   6.361 -0.6074 -0.3608  0.0497
  130OSM    O1413929   1.495   2.986   6.266 -0.6110 -0.5920  0.0243
  130OSM    O1113930   1.381   2.820   6.398  0.1208  0.6972 -0.1114
  130OSM    O1213931   1.451   2.762   6.171 -0.6117  0.1539 -0.2948
  130OSM    C1S13932   1.314   2.691   6.434  0.3306  0.1759  0.5866
  130OSM    H1S13933   1.390   2.610   6.438 -0.7999 -0.8963  0.9856
  130OSM    H1T13934   1.239   2.662   6.358  0.9906  1.4276 -0.5902
  130OSM     NF13935   1.180   2.584   6.613  0.0666  1.1171 -0.4146
  130OSM    HNF13936   1.081   2.587   6.612 -0.0946 -1.8936 -0.5708
  130OSM    C2S13937   1.242   2.707   6.564  0.7543 -0.7661  0.4288
  130OSM    H2S13938   1.322   2.740   6.633  0.7014  0.6047 -0.1414
  130OSM    C3S13939   1.135   2.823   6.566 -0.7930 -0.8458 -0.0907
  130OSM    H3S13940   1.050   2.799   6.499 -0.4433 -0.6587 -0.6040
  130OSM     O313941   1.181   2.948   6.504 -0.0468  0.4392  0.0455
  130OSM    HO313942   1.262   2.927   6.458 -0.3775 -0.9195  0.0363
  130OSM    C4S13943   1.086   2.834   6.708  0.0859 -0.4938 -0.6602
  130OSM    H4S13944   1.013   2.757   6.734 -0.9430  0.2663 -1.2127
  130OSM    C5S13945   1.129   2.901   6.814  0.0467 -0.6296 -0.4400
  130OSM    H5S13946   1.211   2.972   6.798 -0.1380 -0.5145 -0.8937
  130OSM    C6S13947   1.065   2.903   6.954  0.1473  0.2792  0.8971
  130OSM    H6S13948   0.980   2.831   6.960  1.5140 -1.4314  0.6892
  130OSM    H6T13949   1.039   3.005   6.987 -1.2563 -0.0598  0.9141
  130OSM    C7S13950   1.171   2.847   7.051 -0.3493 -0.5239  0.3592
  130OSM    H7S13951   1.266   2.902   7.032 -0.5726  0.3490  1.7152
  130OSM    H7T13952   1.190   2.739   7.031  2.1522 -0.3744  1.5378
  130OSM    C8S13953   1.137   2.845   7.205 -0.3371 -0.1331 -1.1279
  130OSM    H8S13954   1.107   2.945   7.243 -1.1888 -0.1499 -1.7360
  130OSM    H8T13955   1.227   2.822   7.266 -0.0589 -0.7962 -1.7768
  130OSM    C9S13956   1.028   2.744   7.242  0.2119  0.0204  0.4456
  130OSM    H9S13957   1.055   2.641   7.209 -1.1481 -0.1797 -0.1329
  130OSM    H9T13958   0.940   2.765   7.178 -0.4436 -0.7876  1.0607
  130OSM   C10S13959   0.982   2.729   7.388 -0.6522  0.9062  0.0803
  130OSM   H10S13960   0.888   2.670   7.383  1.1687 -2.0620 -2.6400
  130OSM   H10T13961   0.952   2.827   7.431 -1.4050  0.1990  1.2329
  130OSM   C11S13962   1.091   2.650   7.473 -0.0904  0.3057  0.1641
  130OSM   H11S13963   1.170   2.714   7.517  0.5972 -0.6108  0.2951
  130OSM   H11T13964   1.144   2.582   7.403  1.8038 -1.4757  3.1270
  130OSM   C12S13965   1.031   2.553   7.581  0.2192 -0.9561 -0.4930
  130OSM   H12S13966   1.114   2.497   7.628  1.5883  0.7061 -0.7989
  130OSM   H12T13967   0.959   2.480   7.539  0.5370 -1.8336  0.4541
  130OSM   C13S13968   0.972   2.634   7.692  0.4980 -1.2133 -0.8326
  130OSM   H13S13969   0.882   2.690   7.657  1.9930  1.5301 -0.5311
  130OSM   H13T13970   1.043   2.710   7.729 -0.2628 -0.3280 -1.1478
  130OSM   C14S13971   0.929   2.546   7.818  0.2595 -0.1226  0.1995
  130OSM   H14S13972   0.847   2.479   7.784  0.5481 -0.4812  0.2064
  130OSM   H14T13973   0.875   2.622   7.878 -0.3155  0.4048 -0.9540
  130OSM   C15S13974   1.047   2.486   7.899 -0.0790 -0.2586  0.3158
  130OSM   H15S13975   1.117   2.567   7.928  1.4142 -0.3684 -2.6359
  130OSM   H15T13976   1.112   2.437   7.823 -1.0232  2.0374 -2.1204
  130OSM   C16S13977   1.006   2.392   8.014 -0.5860 -0.1585  0.4243
  130OSM   H16S13978   0.957   2.315   7.951  1.0440  0.6365 -1.9819
  130OSM   H16T13979   0.936   2.436   8.087 -1.3598 -0.4671 -0.1179
  130OSM   C17S13980   1.123   2.341   8.099  0.0072 -0.1539  0.5865
  130OSM   H17S13981   1.196   2.298   8.026 -0.4559  1.3043 -0.7961
  130OSM   H17T13982   1.090   2.264   8.172  0.4737 -0.8489  0.0782
  130OSM   C18S13983   1.197   2.452   8.167 -0.0094  0.3359  0.6503
  130OSM   H18S13984   1.274   2.421   8.241  2.4677 -0.1555 -2.0017
  130OSM   H18T13985   1.133   2.528   8.217 -1.7728 -1.5385  1.3954
  130OSM   H18U13986   1.252   2.512   8.092  0.7000  0.3955  1.2015
  130OSM    C1F13987   1.258   2.473   6.639 -0.0535 -0.0706  0.0624
  130OSM     OF13988   1.378   2.473   6.615 -0.0908 -0.2609  0.0949
  130OSM    C2F13989   1.188   2.356   6.707 -0.3679 -0.3548  0.3596
  130OSM    H2F13990   1.261   2.272   6.715 -0.9478 -1.0831 -1.4774
  130OSM    H2G13991   1.112   2.320   6.634  0.9956 -2.2217 -0.2248
  130OSM    C3F13992   1.123   2.396   6.845  0.4839 -0.5181 -0.3700
  130OSM    H3F13993   1.044   2.469   6.818 -1.5407 -2.4480  0.0319
  130OSM    H3G13994   1.199   2.447   6.908 -0.2483 -0.5999  0.5995
  130OSM    C4F13995   1.057   2.283   6.929  0.3598  0.3759  0.2245
  130OSM    H4F13996   1.138   2.212   6.952 -0.5356 -0.0181  2.3436
  130OSM    H4G13997   0.969   2.228   6.888 -0.2838  0.5561  1.3303
  130OSM    C5F13998   1.023   2.338   7.067 -0.1897  0.0030  0.3224
  130OSM    H5F13999   0.932   2.400   7.058  0.9436  1.4202 -2.8392
  130OSM    H5G14000   1.106   2.396   7.113 -0.0780 -0.5646  0.8594
  130OSM    C6F14001   0.991   2.224   7.162  0.0223  0.2236 -0.3602
  130OSM    H6F14002   1.092   2.179   7.166  0.0334  0.1154 -1.6621
  130OSM    H6G14003   0.917   2.155   7.116  0.6732  0.0063 -1.0937
  130OSM    C7F14004   0.942   2.277   7.301 -0.3195  0.0301 -0.6813
  130OSM    H7F14005   0.847   2.333   7.287 -0.5699 -0.7462 -2.2732
  130OSM    H7G14006   1.016   2.350   7.341  2.3358 -1.4507 -2.5837
  130OSM    C8F14007   0.925   2.159   7.396  0.5253  0.0081  0.8469
  130OSM    H8F14008   1.011   2.089   7.396  0.3553 -0.2853 -1.4126
  130OSM    H8G14009   0.840   2.103   7.351  1.5474 -0.6469 -0.3205
  130OSM    C9F14010   0.886   2.209   7.524  0.1533  0.1539 -0.1223
  130OSM    H9F14011   0.801   2.278   7.520  1.0297  1.2200 -1.4797
  130OSM   C10F14012   0.950   2.172   7.639  0.2415 -0.1273 -0.1303
  130OSM   H10F14013   0.924   2.227   7.731 -0.2766  0.5995 -0.7011
  130OSM   C11F14014   1.058   2.070   7.651  0.1426  0.5305  0.2280
  130OSM   H11F14015   1.142   2.084   7.579 -0.7219 -1.9368 -1.3890
  130OSM   H11G14016   1.005   1.974   7.635  0.4245  0.7805 -2.7967
  130OSM   C12F14017   1.120   2.079   7.793 -0.6279  0.6279 -0.6540
  130OSM   H12F14018   1.041   2.055   7.868 -0.3794 -1.2389 -0.9366
  130OSM   H12G14019   1.160   2.181   7.808  0.2980  0.0395  1.1257
  130OSM   C13F14020   1.219   1.964   7.835  0.1333  0.0444  0.2812
  130OSM   H13F14021   1.294   1.957   7.753 -2.4457  0.8971 -2.3283
  130OSM   H13G14022   1.167   1.867   7.846  0.1390  0.2641  2.9889
  130OSM   C14F14023   1.286   1.990   7.967 -0.1272  0.0296  0.5687
  130OSM   H14F14024   1.321   2.095   7.971 -1.4154  0.7051 -2.6436
  130OSM   H14G14025   1.380   1.932   7.976  0.5031  0.9927  0.3160
  130OSM   C15F14026   1.186   1.974   8.077  0.4466 -0.4811  0.6983
  130OSM   H15F14027   1.147   1.871   8.069  0.9685 -0.5523 -2.0744
  130OSM   H15G14028   1.096   2.038   8.070  0.2413 -0.9169 -1.1255
  130OSM   C16F14029   1.247   1.999   8.212  0.7527 -0.2618  0.1692
  130OSM   H16F14030   1.276   2.105   8.222  1.1710 -0.4890  1.6753
  130OSM   H16G14031   1.342   1.944   8.228  1.3923  0.5247 -0.8659
  130OSM   C17F14032   1.148   1.940   8.317  0.6451 -0.3247  0.2786
  130OSM   H17F14033   1.101   1.846   8.280  0.6304 -0.4740  0.6775
  130OSM   H17G14034   1.067   2.011   8.343  1.4892  0.7153  0.1589
  130OSM   C18F14035   1.215   1.903   8.444  0.4892 -0.3629  0.4434
  130OSM   H18F14036   1.312   1.851   8.429  0.0894 -1.0797  0.3005
  130OSM   H18G14037   1.153   1.841   8.512  0.6773 -2.9593 -1.6129
  130OSM   H18H14038   1.239   1.998   8.496 -0.1280  0.6353 -1.0380
  131OSM      N14039   0.808   0.333   5.831  0.1290 -0.1165 -0.4981
  131OSM    C1514040   0.897   0.217   5.850 -0.4680  0.3336  0.3867
  131OSM   H15A14041   0.852   0.139   5.909  0.7512 -0.3904  0.4076
  131OSM   H15B14042   0.988   0.249   5.899  1.7532  0.3936 -3.3541
  131OSM   H15C14043   0.925   0.181   5.752 -2.3270  0.0722 -0.0905
  131OSM    C1414044   0.882   0.452   5.768 -0.3181  0.9308  0.0785
  131OSM   H14A14045   0.950   0.496   5.841  1.1786  1.3954 -1.5329
  131OSM   H14B14046   0.810   0.528   5.742 -0.6913  1.0149  1.2942
  131OSM   H14C14047   0.933   0.419   5.679 -2.2119 -1.4373 -0.2155
  131OSM    C1314048   0.695   0.305   5.737 -0.4600 -0.3362  0.0010
  131OSM   H13A14049   0.625   0.228   5.767 -1.0843  0.5626  0.9071
  131OSM   H13B14050   0.731   0.281   5.638  0.5378  0.3845  0.1850
  131OSM   H13C14051   0.636   0.394   5.722 -1.1780 -0.6933  0.6087
  131OSM    C1214052   0.752   0.371   5.971 -0.3760 -0.0718 -0.2766
  131OSM   H12A14053   0.678   0.299   6.002 -0.3143 -0.3951 -0.8581
  131OSM   H12B14054   0.706   0.469   5.964 -0.3859 -0.0413  0.2165
  131OSM    C1114055   0.857   0.384   6.084 -0.2676  0.6357  0.4748
  131OSM   H11A14056   0.903   0.286   6.110 -2.7347 -1.4184 -2.1711
  131OSM   H11B14057   0.795   0.397   6.175  0.4313  2.0480  0.7770
  131OSM      P14058   1.069   0.530   6.163  0.1412  0.3209  0.0349
  131OSM    O1314059   1.145   0.419   6.206  0.4201  0.9908  0.1100
  131OSM    O1414060   1.146   0.643   6.109  0.0790 -0.2970  0.1386
  131OSM    O1114061   0.977   0.576   6.286  0.4904 -0.2358  0.0372
  131OSM    O1214062   0.961   0.484   6.062  0.2581  0.4250 -0.4328
  131OSM    C1S14063   0.995   0.504   6.409 -0.0663 -0.5064  0.1047
  131OSM    H1S14064   1.087   0.540   6.460 -0.7151 -2.4584  2.8990
  131OSM    H1T14065   1.005   0.394   6.397  1.2889 -0.3073 -0.7123
  131OSM     NF14066   0.894   0.464   6.638 -0.1317  0.5840 -0.8545
  131OSM    HNF14067   0.828   0.395   6.665 -1.2041  1.1960 -1.8228
  131OSM    C2S14068   0.880   0.539   6.512 -1.6316  0.4783  0.5982
  131OSM    H2S14069   0.895   0.646   6.537  0.4319  0.5582 -0.7127
  131OSM    C3S14070   0.742   0.518   6.449 -0.1318 -0.0147  0.4231
  131OSM    H3S14071   0.733   0.410   6.423 -0.8812 -0.2475  1.5663
  131OSM     O314072   0.714   0.592   6.334  0.8798 -0.7024 -0.0048
  131OSM    HO314073   0.799   0.628   6.309  0.1177  0.6303 -0.7804
  131OSM    C4S14074   0.642   0.540   6.559  0.5546  0.2416  0.4103
  131OSM    H4S14075   0.625   0.463   6.636  0.7517 -1.6463 -1.3556
  131OSM    C5S14076   0.574   0.648   6.579 -0.0938  0.1220  0.2843
  131OSM    H5S14077   0.584   0.728   6.504 -2.7054 -0.2077 -0.5136
  131OSM    C6S14078   0.476   0.684   6.684  0.5887  0.8987 -0.6260
  131OSM    H6S14079   0.386   0.708   6.624 -0.4111  0.3563  0.5998
  131OSM    H6T14080   0.495   0.783   6.730 -0.2641  1.6378 -1.8077
  131OSM    C7S14081   0.437   0.590   6.800  0.7364 -0.0920  0.2790
  131OSM    H7S14082   0.392   0.498   6.757 -0.5949  0.2181  0.9592
  131OSM    H7T14083   0.351   0.637   6.851  1.7528  2.1395  0.0426
  131OSM    C8S14084   0.543   0.524   6.889 -1.1859  0.8739 -1.1399
  131OSM    H8S14085   0.637   0.582   6.882 -0.0740 -0.6890  0.1365
  131OSM    H8T14086   0.564   0.420   6.856  1.7911  1.5526 -1.7172
  131OSM    C9S14087   0.504   0.535   7.039  0.2660 -0.3123 -0.1149
  131OSM    H9S14088   0.413   0.473   7.050  0.4241 -0.1182  3.2545
  131OSM    H9T14089   0.469   0.637   7.063 -1.2271 -0.5370 -1.2172
  131OSM   C10S14090   0.611   0.483   7.140  0.3223  0.6500 -0.6032
  131OSM   H10S14091   0.710   0.517   7.104  1.6277 -0.5798  1.6595
  131OSM   H10T14092   0.607   0.372   7.131 -1.6872  0.3144  2.7384
  131OSM   C11S14093   0.598   0.537   7.286  0.0130  0.3941 -0.3946
  131OSM   H11S14094   0.500   0.502   7.326 -0.3541  1.1971 -0.5606
  131OSM   H11T14095   0.589   0.647   7.277  0.7103  0.5110  0.2349
  131OSM   C12S14096   0.718   0.484   7.370  0.3327 -0.9390 -0.3173
  131OSM   H12S14097   0.814   0.531   7.339 -0.0752  1.6755  1.9789
  131OSM   H12T14098   0.731   0.375   7.353  0.1045 -0.7572 -1.8016
  131OSM   C13S14099   0.704   0.517   7.519  0.8782  0.5204 -0.1146
  131OSM   H13S14100   0.770   0.442   7.566  2.7590  0.7620 -2.2199
  131OSM   H13T14101   0.602   0.490   7.554  0.8736 -0.7546 -1.0377
  131OSM   C14S14102   0.747   0.661   7.559 -0.0637  0.6901 -0.3072
  131OSM   H14S14103   0.697   0.741   7.502  2.5945  1.8250 -1.2271
  131OSM   H14T14104   0.856   0.676   7.540  0.0170 -0.5401 -0.8691
  131OSM   C15S14105   0.729   0.687   7.718 -0.3582 -0.6008  0.5969
  131OSM   H15S14106   0.678   0.595   7.755  0.1900 -1.0333  0.2851
  131OSM   H15T14107   0.671   0.781   7.733 -1.2138 -0.8909 -0.7296
  131OSM   C16S14108   0.869   0.710   7.782  1.3157 -0.2609 -0.6523
  131OSM   H16S14109   0.902   0.809   7.744 -0.9742 -0.0474 -2.2506
  131OSM   H16T14110   0.934   0.629   7.740  0.6356 -0.1503 -1.9560
  131OSM   C17S14111   0.869   0.708   7.933 -0.6788 -0.1484  0.3636
  131OSM   H17S14112   0.808   0.617   7.955  0.9751 -1.6279 -0.8974
  131OSM   H17T14113   0.813   0.793   7.976  0.5860  2.0614 -2.1295
  131OSM   C18S14114   1.011   0.700   7.986 -0.7063  0.0815  0.3766
  131OSM   H18S14115   1.072   0.784   7.945 -0.7731 -0.1004 -0.0977
  131OSM   H18T14116   1.060   0.606   7.951 -1.7032 -0.0770 -0.6463
  131OSM   H18U14117   1.013   0.702   8.097  0.2442  1.3240  0.3610
  131OSM    C1F14118   1.000   0.485   6.717  0.8786  0.4257 -0.1867
  131OSM     OF14119   1.078   0.578   6.703 -0.2234  0.4366  0.2279
  131OSM    C2F14120   1.020   0.398   6.838 -0.0102  0.6920  0.1159
  131OSM    H2F14121   0.988   0.293   6.817 -0.7849  0.5789  1.6866
  131OSM    H2G14122   0.951   0.443   6.912 -0.9090  0.1949 -0.4051
  131OSM    C3F14123   1.163   0.392   6.905 -0.8569  0.1093  0.8121
  131OSM    H3F14124   1.194   0.495   6.932  0.9301  0.0204 -0.6866
  131OSM    H3G14125   1.233   0.355   6.827 -2.5063  0.1857 -0.7605
  131OSM    C4F14126   1.162   0.302   7.035  0.4693 -0.2611  0.7690
  131OSM    H4F14127   1.119   0.204   7.007  1.8409 -0.6551 -0.0601
  131OSM    H4G14128   1.102   0.353   7.114  1.5779 -1.3331  2.3492
  131OSM    C5F14129   1.311   0.295   7.090 -0.4772  0.2781 -0.3954
  131OSM    H5F14130   1.358   0.394   7.109  0.6674 -0.4555  0.7563
  131OSM    H5G14131   1.386   0.268   7.013  1.3740  0.9538  1.0922
  131OSM    C6F14132   1.328   0.214   7.213  0.0914  0.2533  0.2761
  131OSM    H6F14133   1.334   0.110   7.175 -0.7895  0.2408  0.1463
  131OSM    H6G14134   1.231   0.235   7.264  0.5491  2.0006  0.4675
  131OSM    C7F14135   1.441   0.261   7.304  0.0755  0.0611  0.1701
  131OSM    H7F14136   1.452   0.372   7.308 -0.5992  0.1553 -0.4382
  131OSM    H7G14137   1.532   0.230   7.248 -0.9359  0.2931 -1.6608
  131OSM    C8F14138   1.419   0.214   7.450 -0.3106 -0.3971  0.3695
  131OSM    H8F14139   1.423   0.103   7.452 -0.1909 -0.4175 -0.6120
  131OSM    H8G14140   1.320   0.238   7.495 -1.5207 -0.9927 -1.8537
  131OSM    C9F14141   1.530   0.269   7.542 -0.2478  0.4445 -0.3971
  131OSM    H9F14142   1.549   0.377   7.543 -0.1025  0.4491 -1.6744
  131OSM   C10F14143   1.589   0.193   7.633 -0.3082 -0.5549 -0.8419
  131OSM   H10F14144   1.668   0.234   7.698 -0.4338 -1.2113 -0.2650
  131OSM   C11F14145   1.566   0.047   7.655 -0.5590 -0.0940 -0.4288
  131OSM   H11F14146   1.663   0.008   7.692 -0.2131  1.0299 -0.1096
  131OSM   H11G14147   1.550  -0.020   7.568 -0.2231 -2.5412  1.3059
  131OSM   C12F14148   1.459   0.039   7.770 -0.6224 -0.0929  0.4138
  131OSM   H12F14149   1.434  -0.069   7.764 -1.2776  0.1102 -0.7741
  131OSM   H12G14150   1.367   0.100   7.757 -1.5066 -1.3529  0.5916
  131OSM   C13F14151   1.525   0.057   7.911 -0.5709  0.5504 -0.6952
  131OSM   H13F14152   1.547   0.163   7.935  0.1053  0.3520 -0.4332
  131OSM   H13G14153   1.626   0.011   7.904 -0.1921  1.4197 -1.0366
  131OSM   C14F14154   1.440  -0.017   8.017 -0.6229 -0.0674 -0.4335
  131OSM   H14F14155   1.457  -0.126   8.001  0.5398 -0.1463  1.1143
  131OSM   H14G14156   1.332  -0.002   7.997 -1.5163 -2.9164  1.7149
  131OSM   C15F14157   1.471   0.020   8.163  0.3978 -0.7049  0.0419
  131OSM   H15F14158   1.431  -0.066   8.221 -0.7826 -0.3608 -0.2314
  131OSM   H15G14159   1.403   0.104   8.190  1.2730 -0.2325  0.8449
  131OSM   C16F14160   1.613   0.041   8.204  0.6406  0.7021  0.1151
  131OSM   H16F14161   1.660   0.126   8.151  2.5065  1.2571  2.4615
  131OSM   H16G14162   1.669  -0.052   8.179 -2.5415 -1.2290 -0.3280
  131OSM   C17F14163   1.620   0.067   8.352  0.9794  0.0471 -0.0250
  131OSM   H17F14164   1.569  -0.013   8.409 -1.0332  1.6278  0.4825
  131OSM   H17G14165   1.560   0.153   8.388  0.2499 -0.6695  0.4962
  131OSM   C18F14166   1.757   0.078   8.406  0.3686 -1.5331  0.8286
  131OSM   H18F14167   1.755   0.069   8.517 -1.7516 -1.7621  0.8235
  131OSM   H18G14168   1.801   0.174   8.375 -2.0810 -0.5710  0.1109
  131OSM   H18H14169   1.824   0.001   8.363  2.4396  2.0298 -2.9623
  132OSM      N14170   1.849   3.786   6.369  0.9651  0.4750 -0.2735
  132OSM    C1514171   1.814   3.643   6.377  0.3804 -0.7473 -0.1749
  132OSM   H15A14172   1.760   3.607   6.291  3.0061  0.4506 -2.4930
  132OSM   H15B14173   1.754   3.616   6.463  0.0132 -1.6686 -0.7151
  132OSM   H15C14174   1.900   3.579   6.393  0.1393 -0.5323  2.4045
  132OSM    C1414175   1.719   3.865   6.369 -0.5190  0.3959 -0.0154
  132OSM   H14A14176   1.744   3.968   6.346  1.3452 -0.6750 -3.4573
  132OSM   H14B14177   1.674   3.850   6.466  3.6368  0.0173  2.1155
  132OSM   H14C14178   1.659   3.807   6.301  1.5416 -1.1924 -0.5905
  132OSM    C1314179   1.917   3.820   6.499 -0.6927 -0.1766  0.3750
  132OSM   H13A14180   1.970   3.914   6.489  1.4961 -1.3772 -0.0442
  132OSM   H13B14181   1.999   3.750   6.510 -0.1426  0.5150  0.7521
  132OSM   H13C14182   1.861   3.819   6.591  0.3305 -0.2721  1.0097
  132OSM    C1214183   1.930   3.809   6.247  0.1389  0.4993 -0.1189
  132OSM   H12A14184   1.872   3.774   6.163  0.5834  0.3887 -0.3885
  132OSM   H12B14185   2.015   3.744   6.261  0.4549  0.9585  0.1397
  132OSM    C1114186   1.964   3.958   6.225 -0.0698 -0.4914  0.0570
  132OSM   H11A14187   1.872   4.019   6.236 -0.5319 -1.2667  0.6442
  132OSM   H11B14188   1.997   3.965   6.119  2.5831 -1.6743  0.7072
  132OSM      P14189   2.178   4.110   6.276  0.0037  0.2163  0.1467
  132OSM    O1314190   2.301   4.030   6.247  0.2108 -0.7446  0.6083
  132OSM    O1414191   2.128   4.202   6.161 -0.3887  0.2037 -0.8280
  132OSM    O1114192   2.215   4.202   6.402 -0.1880 -0.5219  0.2464
  132OSM    O1214193   2.059   4.021   6.320  0.0502  0.4310  0.4188
  132OSM    C1S14194   2.170   4.161   6.528 -0.7185 -0.1667 -0.2012
  132OSM    H1S14195   2.220   4.069   6.563  1.9290  1.6586  1.1888
  132OSM    H1T14196   2.059   4.155   6.523 -0.6122 -1.4101 -1.5557
  132OSM     NF14197   2.187   4.212   6.773 -0.1961  0.3038 -0.2523
  132OSM    HNF14198   2.098   4.232   6.813 -0.3502 -0.0388 -0.4181
  132OSM    C2S14199   2.216   4.268   6.637  0.1962 -0.3900 -0.3857
  132OSM    H2S14200   2.325   4.289   6.629  0.5101 -2.0072 -0.7482
  132OSM    C3S14201   2.142   4.402   6.603  0.2788 -0.3461  0.6736
  132OSM    H3S14202   2.034   4.388   6.623 -0.1294  0.9682 -0.4375
  132OSM     O314203   2.168   4.449   6.474  0.2338  0.2338 -0.3810
  132OSM    HO314204   2.215   4.377   6.430  0.5495  0.7361 -0.8848
  132OSM    C4S14205   2.191   4.512   6.691 -0.0145 -0.0567 -0.1098
  132OSM    H4S14206   2.283   4.563   6.660  0.7568 -0.3929  1.5552
  132OSM    C5S14207   2.131   4.561   6.802  0.2254 -0.5770 -0.2144
  132OSM    H5S14208   2.034   4.515   6.823 -1.1586  1.7743 -1.0918
  132OSM    C6S14209   2.177   4.673   6.889  0.6619  0.4704  0.1904
  132OSM    H6S14210   2.152   4.769   6.839 -1.7597 -0.8642 -1.3829
  132OSM    H6T14211   2.288   4.676   6.894  0.8192 -1.9069 -0.4214
  132OSM    C7S14212   2.116   4.674   7.030  0.0448  0.0247  0.5663
  132OSM    H7S14213   2.006   4.658   7.027 -0.0885  0.9044  0.4163
  132OSM    H7T14214   2.135   4.772   7.079  2.1363  0.7250 -1.4658
  132OSM    C8S14215   2.187   4.560   7.112 -0.4334 -0.2020 -0.0746
  132OSM    H8S14216   2.292   4.588   7.134 -0.6837  0.4982  0.2613
  132OSM    H8T14217   2.183   4.462   7.060  0.7949 -0.8299  0.9502
  132OSM    C9S14218   2.120   4.525   7.255  0.0627  0.0518  0.4217
  132OSM    H9S14219   2.136   4.416   7.260 -1.0792 -0.1716 -0.4184
  132OSM    H9T14220   2.012   4.550   7.243  0.4237  1.6475  0.2405
  132OSM   C10S14221   2.182   4.599   7.375 -0.5908  0.0867  0.5403
  132OSM   H10S14222   2.174   4.709   7.362 -0.9454  0.0573  0.4954
  132OSM   H10T14223   2.286   4.562   7.382 -0.0368  1.2465 -1.0693
  132OSM   C11S14224   2.105   4.567   7.508 -0.6822 -0.0014 -0.4133
  132OSM   H11S14225   1.997   4.583   7.489 -0.4835 -0.4407 -2.0784
  132OSM   H11T14226   2.147   4.639   7.582 -0.9352 -1.6010  1.3683
  132OSM   C12S14227   2.114   4.425   7.558 -0.3471  0.1289 -0.1533
  132OSM   H12S14228   2.221   4.409   7.582 -0.0376  3.1019  0.8416
  132OSM   H12T14229   2.064   4.362   7.481 -3.1143  0.1603  1.4906
  132OSM   C13S14230   2.032   4.403   7.685 -0.1022  0.6760 -0.0570
  132OSM   H13S14231   2.030   4.298   7.719 -4.7187  0.3407 -0.7918
  132OSM   H13T14232   1.924   4.410   7.661  0.0314  1.2454 -0.5361
  132OSM   C14S14233   2.069   4.483   7.812 -0.1740  1.4023 -0.4708
  132OSM   H14S14234   2.040   4.589   7.797  0.1386  1.5591  0.0059
  132OSM   H14T14235   2.180   4.474   7.824 -0.4831 -1.3987  1.0610
  132OSM   C15S14236   2.003   4.434   7.936  0.1317  0.4243 -0.4026
  132OSM   H15S14237   2.025   4.327   7.955  0.8327  0.0969 -2.7880
  132OSM   H15T14238   1.893   4.442   7.921  0.2530 -0.2619 -1.8044
  132OSM   C16S14239   2.051   4.512   8.056  0.0822 -0.0797 -0.0042
  132OSM   H16S14240   2.024   4.619   8.046  2.3080  0.3484 -2.7764
  132OSM   H16T14241   2.162   4.503   8.050  0.5421  2.6043  2.3091
  132OSM   C17S14242   2.005   4.479   8.198  0.0434 -0.2771  0.9129
  132OSM   H17S14243   2.022   4.370   8.213 -1.1090 -0.6285 -0.1900
  132OSM   H17T14244   1.895   4.491   8.191  0.2550  2.1118  0.6080
  132OSM   C18S14245   2.084   4.545   8.304  0.2220  0.1062 -0.1902
  132OSM   H18S14246   2.075   4.655   8.312 -0.3543  0.1424 -1.2168
  132OSM   H18T14247   2.191   4.516   8.297 -0.3218 -2.7135  1.2213
  132OSM   H18U14248   2.062   4.499   8.403  1.6134 -0.1210  0.0323
  132OSM    C1F14249   2.249   4.113   6.827  0.1317  0.3682 -0.1332
  132OSM     OF14250   2.344   4.069   6.772 -0.6286  0.3166  0.0096
  132OSM    C2F14251   2.189   4.050   6.947  0.8204 -0.6313 -0.3250
  132OSM    H2F14252   2.260   3.982   7.000  0.6753 -1.2140 -0.8612
  132OSM    H2G14253   2.095   4.002   6.913 -0.3840  1.9416 -0.8382
  132OSM    C3F14254   2.171   4.161   7.055 -0.9700  0.2004 -0.2220
  132OSM    H3F14255   2.076   4.207   7.020  0.1964  2.7477 -0.2934
  132OSM    H3G14256   2.249   4.240   7.050 -0.1755 -0.5022  0.5777
  132OSM    C4F14257   2.142   4.109   7.197 -0.3926 -0.5939  0.3106
  132OSM    H4F14258   2.063   4.031   7.202 -1.8517  0.8449  0.5248
  132OSM    H4G14259   2.104   4.194   7.258  2.5884  3.3682 -2.8091
  132OSM    C5F14260   2.256   4.057   7.290  0.0854 -0.7411  0.1656
  132OSM    H5F14261   2.303   4.152   7.322 -2.2032  0.7211 -0.5935
  132OSM    H5G14262   2.332   3.994   7.240  1.5260 -1.0529  2.5669
  132OSM    C6F14263   2.210   3.975   7.412  0.7716  0.2803  0.0824
  132OSM    H6F14264   2.299   3.926   7.458  1.4665  0.5978 -0.8919
  132OSM    H6G14265   2.134   3.899   7.386  1.7844 -1.2075  1.2491
  132OSM    C7F14266   2.146   4.074   7.512 -0.1414  1.4557  0.5411
  132OSM    H7F14267   2.050   4.097   7.461  0.5957 -2.1867 -2.9587
  132OSM    H7G14268   2.220   4.156   7.519  3.1380 -1.3447  1.1625
  132OSM    C8F14269   2.102   4.010   7.644 -0.3830  1.0840  0.2738
  132OSM    H8F14270   2.039   3.923   7.615  0.2865  0.3369  0.9985
  132OSM    H8G14271   2.030   4.083   7.685 -0.5385  0.9805  0.1854
  132OSM    C9F14272   2.221   3.969   7.717  0.8013  0.6981  0.4043
  132OSM    H9F14273   2.305   3.912   7.674 -0.4126 -1.2649  0.5068
  132OSM   C10F14274   2.230   3.981   7.848 -0.2642  0.4023 -0.3366
  132OSM   H10F14275   2.320   3.946   7.902  0.0382  0.0862 -1.0278
  132OSM   C11F14276   2.130   4.052   7.938  0.0970 -0.3646  0.4685
  132OSM   H11F14277   2.042   4.095   7.886  0.7442 -1.0689 -1.2961
  132OSM   H11G14278   2.177   4.143   7.980 -0.9893  1.2844 -1.6963
  132OSM   C12F14279   2.069   3.961   8.043  0.0339 -0.6552  0.8794
  132OSM   H12F14280   2.004   4.020   8.111  2.5597  0.8042  2.1872
  132OSM   H12G14281   2.148   3.911   8.101  0.5426 -1.9281 -0.8238
  132OSM   C13F14282   1.983   3.856   7.976  0.0435 -0.1410 -0.7104
  132OSM   H13F14283   2.022   3.824   7.877 -0.2500 -1.8293 -0.3121
  132OSM   H13G14284   1.881   3.899   7.963  1.0670  3.5174  1.8594
  132OSM   C14F14285   1.970   3.729   8.058  0.3189 -0.2142  0.1648
  132OSM   H14F14286   2.071   3.695   8.090  0.6807  0.1625 -0.5622
  132OSM   H14G14287   1.919   3.655   7.992 -0.3316  1.3325 -1.1224
  132OSM   C15F14288   1.881   3.728   8.188 -0.1872 -0.0870  0.3149
  132OSM   H15F14289   1.784   3.777   8.165 -0.8477 -1.7540 -0.6069
  132OSM   H15G14290   1.934   3.783   8.269  0.6919 -2.1076  1.1789
  132OSM   C16F14291   1.843   3.594   8.233  0.3670  0.4276  0.1944
  132OSM   H16F14292   1.936   3.533   8.238  1.5905  2.3002  1.6432
  132OSM   H16G14293   1.790   3.557   8.142 -0.3166  2.2297 -0.1728
  132OSM   C17F14294   1.761   3.580   8.361 -0.9703 -0.2481  0.1044
  132OSM   H17F14295   1.664   3.628   8.336 -0.9939 -0.4101 -0.1246
  132OSM   H17G14296   1.810   3.636   8.443  0.3802  0.0706 -0.8747
  132OSM   C18F14297   1.742   3.436   8.405 -0.0586  1.1239  0.1746
  132OSM   H18F14298   1.812   3.410   8.487 -0.7323  0.6213  0.6027
  132OSM   H18G14299   1.773   3.373   8.320 -0.3825  0.5282  0.4908
  132OSM   H18H14300   1.632   3.417   8.411  0.3987 -2.0585  0.2596
  133SAPE     N14301   4.533   2.649  10.887  0.4294 -0.7458 -0.1976
  133SAPE   HN114302   4.536   2.549  10.917 -2.3150 -0.0294  3.1195
  133SAPE   HN214303   4.602   2.712  10.931  0.0668 -0.1820 -0.4282
  133SAPE   HN314304   4.439   2.684  10.915  0.0823 -0.2699 -1.8298
  133SAPE   C1214305   4.551   2.672  10.735 -0.4242 -0.1392 -0.3444
  133SAPE  H12A14306   4.497   2.595  10.676 -2.0776  2.0384 -1.8286
  133SAPE  H12B14307   4.659   2.669  10.711  0.4756  0.2634  3.2061
  133SAPE   C1114308   4.498   2.810  10.705  0.4674  0.7157 -0.1514
  133SAPE  H11A14309   4.529   2.834  10.602  1.4079 -1.3684 -0.4158
  133SAPE  H11B14310   4.555   2.878  10.772 -1.9193  1.1069  1.6582
  133SAPE     P14311   4.274   2.941  10.757 -0.6317  0.0172 -0.2164
  133SAPE   O1314312   4.235   2.939  10.897  0.1457  0.1778 -0.4899
  133SAPE   O1414313   4.333   3.067  10.709 -0.5179 -0.3410  0.8197
  133SAPE   O1214314   4.365   2.812  10.722  0.1692  0.0050 -0.1519
  133SAPE   O1114315   4.146   2.911  10.675  0.4479 -0.7083  0.0117
  133SAPE    C114316   4.122   2.795  10.592 -0.6646 -0.2710  0.7866
  133SAPE    HA14317   4.158   2.706  10.649 -2.2420 -0.7635  1.0509
  133SAPE    HB14318   4.014   2.775  10.578 -0.4997  0.2127 -1.4286
  133SAPE    C214319   4.204   2.797  10.455 -0.7233 -0.0114 -0.2043
  133SAPE    HS14320   4.302   2.836  10.490  1.0862 -3.6835 -0.7697
  133SAPE   O2114321   4.148   2.895  10.364 -0.4967  0.2272 -0.1676
  133SAPE   C2114322   4.236   2.969  10.298  0.1393  0.1305 -0.0257
  133SAPE   O2214323   4.359   2.963  10.303  0.4773  0.1814 -0.5668
  133SAPE   C2214324   4.165   3.058  10.199  0.0734 -0.4921  0.3921
  133SAPE   H2R14325   4.055   3.052  10.205  0.0919 -0.3417  0.8731
  133SAPE   H2S14326   4.188   3.161  10.235  0.2015 -1.1779  2.3903
  133SAPE    C314327   4.220   2.651  10.395  0.1185 -0.0850  0.2806
  133SAPE    HX14328   4.119   2.605  10.390  0.4226 -0.8788  1.2413
  133SAPE    HY14329   4.278   2.597  10.472  1.2543  1.0273  0.2416
  133SAPE   O3114330   4.296   2.640  10.276 -0.2247  0.2829 -0.1713
  133SAPE   C3114331   4.424   2.651  10.284  0.2553 -0.4255 -0.3555
  133SAPE   O3214332   4.492   2.659  10.387 -1.0303 -0.3451  0.5599
  133SAPE   C3214333   4.479   2.676  10.142 -0.3512  0.1880  0.7555
  133SAPE   H2X14334   4.492   2.786  10.139  1.2358  0.0110  0.2207
  133SAPE   H2Y14335   4.397   2.661  10.068  0.3446  2.2778 -0.5006
  133SAPE   C2314336   4.220   3.044  10.052 -0.3340 -1.1560 -0.2624
  133SAPE   H3R14337   4.331   3.042  10.060 -0.4806 -1.2980  3.5306
  133SAPE   H3S14338   4.187   3.139  10.005  0.8080 -0.5242  0.1620
  133SAPE   C2414339   4.165   2.926   9.979  0.4060  0.5347  0.0212
  133SAPE   H4R14340   4.209   2.840  10.034 -1.3824 -1.3909 -1.4384
  133SAPE   H4S14341   4.205   2.922   9.876 -0.5653 -1.2435 -0.3300
  133SAPE   C2514342   4.014   2.925   9.975 -0.1434  0.7765 -0.4611
  133SAPE   H5R14343   3.955   2.931  10.068 -1.9417 -0.6615 -1.4432
  133SAPE   C2614344   3.931   2.944   9.874 -0.6086 -0.7685 -0.1203
  133SAPE   H6R14345   3.824   2.923   9.888 -1.1140  1.1565 -0.8578
  133SAPE   C2714346   3.968   2.966   9.727  0.8058  0.1332 -0.3317
  133SAPE   H7R14347   4.062   2.914   9.701 -0.2566 -0.5482 -3.2031
  133SAPE   H7S14348   3.967   3.075   9.705 -2.8121  0.3500  0.1938
  133SAPE   C2814349   3.866   2.900   9.637 -0.0258  0.4932 -0.4395
  133SAPE   H8R14350   3.771   2.865   9.682 -0.0142  1.4825  0.3834
  133SAPE   C2914351   3.880   2.902   9.504 -0.2637  0.2122 -0.3605
  133SAPE   H9R14352   3.809   2.844   9.443 -2.1901  0.2135  1.7730
  133SAPE  C21014353   4.009   2.957   9.431 -0.2507  0.2809  0.4818
  133SAPE  H10R14354   4.099   2.958   9.497  1.1012  2.9647 -1.2343
  133SAPE  H10S14355   4.001   3.061   9.393 -1.9760 -1.0994 -3.5045
  133SAPE  C21114356   4.051   2.876   9.311 -0.3090 -0.0357  1.2821
  133SAPE  H11R14357   4.005   2.778   9.327  1.3245 -0.6798  2.2550
  133SAPE  C21214358   4.130   2.920   9.200  0.4974  0.2601 -1.3140
  133SAPE  H12R14359   4.151   2.843   9.124 -1.3383 -1.4224 -0.2056
  133SAPE  C21314360   4.179   3.058   9.172  0.7226 -0.6054  0.4777
  133SAPE  H13R14361   4.244   3.056   9.082  0.8416  1.5183  0.4576
  133SAPE  H13S14362   4.246   3.089   9.255  0.7780  0.3679  0.0854
  133SAPE  C21414363   4.069   3.162   9.145 -0.0727 -0.0784  0.8191
  133SAPE  H14R14364   4.031   3.214   9.235 -3.0842 -1.7041  0.6289
  133SAPE  C21514365   4.007   3.181   9.024  0.2311  0.6585  0.1395
  133SAPE  H15R14366   3.944   3.270   9.007  0.4298  0.5884 -1.0407
  133SAPE  C21614367   4.050   3.102   8.902  0.2096  0.3057 -0.2037
  133SAPE  H16R14368   4.067   2.997   8.935  1.3883  0.8387  0.9780
  133SAPE  H16S14369   4.139   3.149   8.856 -1.7139  3.4975 -0.9476
  133SAPE  C21714370   3.959   3.087   8.782  0.2402 -0.4122 -0.3750
  133SAPE  H17R14371   3.931   3.184   8.735 -1.6897 -0.7182  0.0693
  133SAPE  H17S14372   3.859   3.053   8.815  0.6358 -2.2546 -0.9546
  133SAPE  C21814373   4.008   2.980   8.682 -0.5835 -0.3709 -0.0514
  133SAPE  H18R14374   3.925   2.948   8.615  0.6604  0.3779 -2.0403
  133SAPE  H18S14375   4.039   2.884   8.729  0.0682  0.1003  0.4956
  133SAPE  C21914376   4.123   3.040   8.601 -0.6073 -0.1291  0.3641
  133SAPE  H19R14377   4.208   3.064   8.668 -1.8100  1.7717  1.2802
  133SAPE  H19S14378   4.090   3.136   8.556 -1.0621  0.8995  2.7433
  133SAPE  C22014379   4.180   2.952   8.489 -0.0638 -0.1116 -0.0495
  133SAPE  H20R14380   4.097   2.938   8.416 -0.7532  1.5324  0.3816
  133SAPE  H20S14381   4.217   2.854   8.524 -2.2108 -0.6878  0.7951
  133SAPE  H20T14382   4.263   3.003   8.437 -0.6793  2.1000  1.0193
  133SAPE   C3314383   4.609   2.596  10.102  0.3649 -0.2862 -0.4925
  133SAPE   H3X14384   4.587   2.491  10.133 -0.5930  0.1915  0.5431
  133SAPE   H3Y14385   4.696   2.633  10.160  0.5407  0.2377 -1.0843
  133SAPE   C3414386   4.648   2.615   9.952  0.4268 -0.4471 -0.6540
  133SAPE   H4X14387   4.667   2.724   9.938 -2.6941  0.1223 -1.1952
  133SAPE   H4Y14388   4.551   2.600   9.901 -0.6970  1.8259  0.6523
  133SAPE   C3514389   4.756   2.531   9.894  0.0390 -0.3881  0.2683
  133SAPE   H5X14390   4.718   2.429   9.872  1.7602 -0.4738 -2.7687
  133SAPE   H5Y14391   4.827   2.526   9.980 -1.9389  0.0303  2.0038
  133SAPE   C3614392   4.816   2.582   9.761 -0.2837  0.5251  0.0688
  133SAPE   H6X14393   4.908   2.522   9.745 -1.4665 -1.1285 -0.8840
  133SAPE   H6Y14394   4.832   2.692   9.760 -1.4736  0.7659 -2.6585
  133SAPE   C3714395   4.729   2.554   9.641  0.8246 -0.3842 -0.2048
  133SAPE   H7X14396   4.672   2.461   9.661  0.6306 -0.6127 -1.6714
  133SAPE   H7Y14397   4.801   2.529   9.560  1.9630 -0.3156  0.7448
  133SAPE   C3814398   4.624   2.657   9.597  0.5575 -0.6138 -0.6706
  133SAPE   H8X14399   4.679   2.753   9.584 -1.2986  0.8294  1.4824
  133SAPE   H8Y14400   4.557   2.679   9.683  0.0109  0.0961 -1.2521
  133SAPE   C3914401   4.550   2.638   9.468  0.1177  0.5634  0.0605
  133SAPE   H9X14402   4.493   2.543   9.468 -0.3058  0.8158  0.0678
  133SAPE   H9Y14403   4.626   2.618   9.390  1.4242 -2.7494  1.9832
  133SAPE  C31014404   4.461   2.756   9.441  1.0060 -0.1856  0.6146
  133SAPE  H10X14405   4.449   2.821   9.530 -0.8992  0.5336 -0.1221
  133SAPE  H10Y14406   4.358   2.716   9.427 -0.6475  3.1840  1.9681
  133SAPE  C31114407   4.502   2.846   9.320  0.3762  0.1974 -0.3555
  133SAPE  H11X14408   4.607   2.873   9.343 -0.0972  0.2858  1.9945
  133SAPE  H11Y14409   4.446   2.942   9.316  1.3035  0.7128 -2.3878
  133SAPE  C31214410   4.492   2.776   9.191  0.8801  0.5657  0.4197
  133SAPE  H12X14411   4.385   2.784   9.163  1.3596  2.1443 -1.1493
  133SAPE  H12Y14412   4.515   2.667   9.195  1.3044  0.5876 -0.7678
  133SAPE  C31314413   4.588   2.826   9.079  0.9940  0.1864 -0.5888
  133SAPE  H13X14414   4.615   2.742   9.011  1.1916  1.3253 -1.9574
  133SAPE  H13Y14415   4.681   2.843   9.138  0.3005 -1.6171  1.1484
  133SAPE  C31414416   4.527   2.945   9.005  0.3071  0.0567  0.2425
  133SAPE  H14X14417   4.504   3.027   9.077  1.1747 -0.3873  1.0367
  133SAPE  H14Y14418   4.433   2.904   8.962 -0.0176  0.6225  0.3956
  133SAPE  C31514419   4.615   2.988   8.889 -0.3037  1.1505  0.5573
  133SAPE  H15X14420   4.665   2.897   8.852 -3.5557 -0.4550 -0.2613
  133SAPE  H15Y14421   4.698   3.051   8.927 -0.1414  0.7620  0.8556
  133SAPE  C31614422   4.542   3.040   8.763  0.0103 -0.5768  0.5755
  133SAPE  H16X14423   4.523   3.150   8.768 -1.4114 -0.7868  0.1014
  133SAPE  H16Y14424   4.441   2.995   8.759  0.9357 -2.8005  0.9858
  133SAPE  C31714425   4.602   3.013   8.620  0.1922  0.5607  0.7510
  133SAPE  H17X14426   4.515   3.029   8.553 -0.7281 -3.8434  0.5811
  133SAPE  H17Y14427   4.625   2.904   8.617 -2.1666 -0.0604  2.0282
  133SAPE  C31814428   4.725   3.102   8.591  0.3740  0.1017 -0.3016
  133SAPE  H18X14429   4.801   3.065   8.518  0.4798  2.1417 -1.2845
  133SAPE  H18Y14430   4.780   3.117   8.687  0.0359  0.0739 -0.1049
  133SAPE  H18Z14431   4.690   3.199   8.549 -1.4901 -1.2088 -1.9756
  134SAPE     N14432   0.593   3.584  10.843 -0.0720  0.7675 -0.0887
  134SAPE   HN114433   0.576   3.535  10.933  0.1797  1.6737  0.4641
  134SAPE   HN214434   0.650   3.668  10.863  1.4027 -0.8288  3.1746
  134SAPE   HN314435   0.504   3.601  10.792  1.4349  1.7788 -2.5503
  134SAPE   C1214436   0.681   3.479  10.774  0.0836  0.5471 -0.5723
  134SAPE  H12A14437   0.750   3.435  10.849 -2.5257 -1.2170  0.9580
  134SAPE  H12B14438   0.759   3.527  10.710  1.1145 -2.8130 -2.0703
  134SAPE   C1114439   0.618   3.359  10.704 -0.0490  0.2323 -0.1806
  134SAPE  H11A14440   0.697   3.305  10.648  0.5503  0.2218  0.6723
  134SAPE  H11B14441   0.539   3.397  10.635  0.9653 -2.4942 -3.0942
  134SAPE     P14442   0.552   3.129  10.799  0.1920 -0.3657 -0.2167
  134SAPE   O1314443   0.691   3.081  10.816  0.5990  0.0908  0.4724
  134SAPE   O1414444   0.456   3.074  10.895  0.4574 -0.5387 -0.0272
  134SAPE   O1214445   0.542   3.281  10.799  0.1187  0.1486  1.3957
  134SAPE   O1114446   0.506   3.085  10.648  0.7219  0.1690 -0.2832
  134SAPE    C114447   0.383   3.145  10.594 -0.2888 -0.0229 -0.4501
  134SAPE    HA14448   0.308   3.063  10.588  0.2389 -0.4661 -1.2395
  134SAPE    HB14449   0.348   3.231  10.655  2.1618 -0.0120  1.0721
  134SAPE    C214450   0.403   3.202  10.449  0.3338  0.3128 -0.1323
  134SAPE    HS14451   0.465   3.293  10.440 -1.3417  1.2986 -2.9939
  134SAPE   O2114452   0.272   3.238  10.402  0.3239  0.1310  0.5284
  134SAPE   C2114453   0.274   3.311  10.291 -0.7803 -0.0932  0.6088
  134SAPE   O2214454   0.369   3.369  10.238 -0.4464  0.0736  0.4382
  134SAPE   C2214455   0.136   3.311  10.226 -0.3870 -0.1270 -0.3884
  134SAPE   H2R14456   0.091   3.215  10.193 -0.9510  0.2642 -0.7678
  134SAPE   H2S14457   0.064   3.343  10.305 -0.4265  0.7543 -0.7773
  134SAPE    C314458   0.465   3.083  10.366 -0.0519 -0.2328 -0.0924
  134SAPE    HX14459   0.390   3.003  10.382  0.8852 -0.8151  1.5217
  134SAPE    HY14460   0.557   3.046  10.416  0.7307 -0.2239 -1.4759
  134SAPE   O3114461   0.486   3.119  10.229 -0.0827  0.2694 -0.7360
  134SAPE   C3114462   0.606   3.157  10.189 -0.4219  0.5037 -0.7811
  134SAPE   O3214463   0.708   3.159  10.255  0.0132 -0.1723 -0.3704
  134SAPE   C3214464   0.598   3.198  10.043 -0.9143  0.5391  0.3639
  134SAPE   H2X14465   0.704   3.200  10.009 -1.3257 -0.4979 -1.0906
  134SAPE   H2Y14466   0.545   3.296  10.039 -0.4745  0.8009  0.9527
  134SAPE   C2314467   0.119   3.418  10.119 -0.2768 -0.0399  0.0206
  134SAPE   H3R14468   0.195   3.401  10.040 -0.0581 -0.9874  0.4245
  134SAPE   H3S14469   0.143   3.518  10.163  0.2442 -0.0125 -0.3198
  134SAPE   C2414470  -0.026   3.434  10.071 -0.2318  0.3237 -0.6364
  134SAPE   H4R14471  -0.044   3.538  10.036  3.3331  0.6289 -1.9618
  134SAPE   H4S14472  -0.098   3.416  10.153  0.6447 -2.5528 -0.4003
  134SAPE   C2514473  -0.077   3.335   9.974 -0.1395  0.0536 -1.2433
  134SAPE   H5R14474  -0.142   3.264  10.028 -0.4469  1.3311  0.1496
  134SAPE   C2614475  -0.061   3.335   9.843 -0.4817  0.0704 -0.0409
  134SAPE   H6R14476  -0.109   3.256   9.784 -0.8425  0.5917 -0.4529
  134SAPE   C2714477   0.015   3.434   9.761 -0.5274  0.4411 -0.4771
  134SAPE   H7R14478   0.064   3.509   9.826  0.1271  1.5994 -2.2516
  134SAPE   H7S14479  -0.062   3.496   9.710 -0.2369  1.7065  0.5764
  134SAPE   C2814480   0.108   3.375   9.658 -0.0542  0.0026  0.1528
  134SAPE   H8R14481   0.201   3.328   9.695  1.1767  1.4171 -1.0124
  134SAPE   C2914482   0.077   3.369   9.529  0.3625  0.1863  0.5452
  134SAPE   H9R14483   0.144   3.313   9.462 -0.7256 -0.6293  0.1107
  134SAPE  C21014484  -0.041   3.433   9.457 -0.9118  0.3997 -0.3901
  134SAPE  H10R14485  -0.072   3.528   9.506  1.9961  1.7268 -0.9089
  134SAPE  H10S14486  -0.132   3.370   9.465 -0.0549 -0.6577  2.5660
  134SAPE  C21114487  -0.016   3.471   9.312  1.1365  0.1006  0.2973
  134SAPE  H11R14488   0.089   3.486   9.283  0.3301  2.9716 -1.5908
  134SAPE  C21214489  -0.115   3.477   9.221  0.3004 -0.1294  0.2233
  134SAPE  H12R14490  -0.089   3.497   9.116  3.3631 -1.7311  0.5345
  134SAPE  C21314491  -0.262   3.455   9.239 -0.8441  0.1383 -0.1291
  134SAPE  H13R14492  -0.309   3.548   9.202  0.0030  0.6056 -0.0500
  134SAPE  H13S14493  -0.283   3.449   9.348 -1.6993  0.0762 -0.2916
  134SAPE  C21414494  -0.308   3.326   9.178  0.0492  0.7760  0.1569
  134SAPE  H14R14495  -0.320   3.231   9.230  1.8145  1.0674  1.1666
  134SAPE  C21514496  -0.343   3.324   9.050 -0.2163 -0.2866 -0.1411
  134SAPE  H15R14497  -0.377   3.231   9.004 -0.8097 -0.0073 -0.2750
  134SAPE  C21614498  -0.349   3.439   8.948 -0.2933  0.7862  0.0171
  134SAPE  H16R14499  -0.331   3.543   8.982  0.2146  0.7117 -0.0052
  134SAPE  H16S14500  -0.451   3.436   8.905 -0.7440  0.8460  1.0662
  134SAPE  C21714501  -0.240   3.397   8.845  0.2455  0.0295 -0.4038
  134SAPE  H17R14502  -0.246   3.292   8.808 -1.0708  1.0712 -3.5692
  134SAPE  H17S14503  -0.142   3.412   8.895 -0.8387 -0.9092  2.1550
  134SAPE  C21814504  -0.248   3.493   8.722  0.1025  0.4403 -1.1863
  134SAPE  H18R14505  -0.253   3.600   8.750  0.1348  0.4144 -1.0814
  134SAPE  H18S14506  -0.348   3.470   8.679 -0.7405 -1.0915  1.3688
  134SAPE  C21914507  -0.132   3.483   8.621 -0.4938  0.2397  0.4503
  134SAPE  H19R14508  -0.146   3.562   8.545 -0.1684  0.7017  0.8616
  134SAPE  H19S14509  -0.125   3.381   8.577  2.5022  0.5649 -0.0397
  134SAPE  C22014510  -0.003   3.502   8.695  0.2838 -0.1013 -0.3266
  134SAPE  H20R14511   0.014   3.421   8.770  2.1597  2.0123  1.6460
  134SAPE  H20S14512  -0.008   3.596   8.754 -0.3451 -0.6105  0.4521
  134SAPE  H20T14513   0.082   3.513   8.626 -0.1230  2.9985 -0.4393
  134SAPE   C3314514   0.515   3.098   9.947  0.3070 -0.1378 -1.0538
  134SAPE   H3X14515   0.407   3.099   9.975  0.6585  1.6802  0.4398
  134SAPE   H3Y14516   0.555   2.994   9.957  2.2881  0.3698 -2.9170
  134SAPE   C3414517   0.533   3.135   9.798 -0.3703  0.2120 -0.1010
  134SAPE   H4X14518   0.632   3.164   9.757 -1.0687  2.7154 -0.1482
  134SAPE   H4Y14519   0.465   3.222   9.786 -1.3496 -0.2390  1.7835
  134SAPE   C3514520   0.466   3.021   9.717 -0.3955 -0.9678  0.3444
  134SAPE   H5X14521   0.364   3.020   9.759  0.1522  0.5042  1.8337
  134SAPE   H5Y14522   0.515   2.925   9.745  1.1996 -0.2539  0.1090
  134SAPE   C3614523   0.466   3.053   9.557  0.2118  0.1476 -0.0602
  134SAPE   H6X14524   0.564   3.081   9.515  0.0163 -0.2323 -0.7793
  134SAPE   H6Y14525   0.411   3.149   9.558 -0.3130 -0.1465  0.6976
  134SAPE   C3714526   0.392   2.946   9.478  0.3263  0.0151 -0.8725
  134SAPE   H7X14527   0.285   2.941   9.509  0.0524 -0.7353 -1.8873
  134SAPE   H7Y14528   0.444   2.848   9.489  3.4206  1.5927 -0.6464
  134SAPE   C3814529   0.383   2.978   9.332 -0.0298  0.6262  0.4555
  134SAPE   H8X14530   0.324   2.900   9.278  2.6879 -0.4926 -1.0634
  134SAPE   H8Y14531   0.484   2.977   9.287 -1.0332  4.7797 -2.4536
  134SAPE   C3914532   0.320   3.112   9.309 -0.7204  0.1209 -0.0253
  134SAPE   H9X14533   0.404   3.181   9.332 -0.5987  0.2595 -0.8625
  134SAPE   H9Y14534   0.238   3.128   9.382  0.3789  0.0805  1.2593
  134SAPE  C31014535   0.287   3.135   9.159  1.0543  0.1829  0.9090
  134SAPE  H10X14536   0.250   3.239   9.143 -3.4212 -1.3876 -0.3948
  134SAPE  H10Y14537   0.207   3.064   9.128  2.0560 -0.7052  0.3003
  134SAPE  C31114538   0.396   3.095   9.057 -0.4279 -0.6782  0.1431
  134SAPE  H11X14539   0.422   2.987   9.049  0.0260 -0.7927  2.3979
  134SAPE  H11Y14540   0.484   3.155   9.086 -1.2060  0.1680  0.8180
  134SAPE  C31214541   0.370   3.137   8.907 -0.0093 -0.0535  0.5216
  134SAPE  H12X14542   0.447   3.085   8.847 -1.0863 -0.5839 -0.4405
  134SAPE  H12Y14543   0.402   3.242   8.895 -2.5874  0.6667 -0.8435
  134SAPE  C31314544   0.235   3.123   8.847  0.1945  0.0098  0.0575
  134SAPE  H13X14545   0.171   3.192   8.906 -0.3826  1.7169 -2.3984
  134SAPE  H13Y14546   0.197   3.019   8.845  0.5285 -0.1560 -3.1555
  134SAPE  C31414547   0.229   3.183   8.707 -0.1386 -0.1895  0.2421
  134SAPE  H14X14548   0.233   3.294   8.706 -1.4237 -0.1138 -1.1653
  134SAPE  H14Y14549   0.134   3.151   8.657  0.7210 -0.8303 -1.0417
  134SAPE  C31514550   0.348   3.134   8.617 -0.1515  0.0031 -0.1488
  134SAPE  H15X14551   0.366   3.025   8.629  0.6914  0.1603  0.1044
  134SAPE  H15Y14552   0.437   3.189   8.654 -1.1973  0.9131  1.1524
  134SAPE  C31614553   0.329   3.159   8.469 -0.2132  0.3232  0.3685
  134SAPE  H16X14554   0.318   3.270   8.472  1.5850  0.5230  2.1568
  134SAPE  H16Y14555   0.227   3.130   8.436 -1.3104  3.5483  0.5719
  134SAPE  C31714556   0.451   3.127   8.380  0.6376 -0.2953 -0.0452
  134SAPE  H17X14557   0.467   3.017   8.386 -2.6591 -1.0183 -2.1839
  134SAPE  H17Y14558   0.533   3.182   8.431  0.7890 -0.4058 -0.1681
  134SAPE  C31814559   0.433   3.175   8.240 -0.5413  0.0652 -0.5845
  134SAPE  H18X14560   0.416   3.285   8.239 -0.7743  0.0303 -0.6473
  134SAPE  H18Y14561   0.342   3.123   8.203 -0.9530 -1.7223  2.6487
  134SAPE  H18Z14562   0.521   3.159   8.174 -0.5644 -0.5568 -0.4715
  135SAPE     N14563   0.649   0.730  10.386  0.3398  0.0312  0.2412
  135SAPE   HN114564   0.643   0.814  10.326  4.8448  0.0710 -0.5006
  135SAPE   HN214565   0.720   0.664  10.348 -0.0714 -0.4499  0.2942
  135SAPE   HN314566   0.554   0.689  10.382  0.9432 -1.6009  1.5556
  135SAPE   C1214567   0.660   0.767  10.527  0.4176 -0.2790  0.6654
  135SAPE  H12A14568   0.559   0.772  10.572  0.2644  0.4147  0.2712
  135SAPE  H12B14569   0.703   0.870  10.528 -2.8469  1.2024  2.5264
  135SAPE   C1114570   0.740   0.659  10.598 -0.5518  0.1502 -0.0710
  135SAPE  H11A14571   0.697   0.559  10.574  1.1954  0.0195 -3.2643
  135SAPE  H11B14572   0.721   0.691  10.702 -1.4738  0.9933 -0.4862
  135SAPE     P14573   0.955   0.565  10.464 -0.0178 -0.2370  0.1981
  135SAPE   O1314574   1.081   0.628  10.425  0.4464  0.2753 -0.3618
  135SAPE   O1414575   0.962   0.438  10.535 -0.3660  0.5751 -0.4826
  135SAPE   O1214576   0.880   0.666  10.560 -0.0670 -0.1883 -0.1151
  135SAPE   O1114577   0.853   0.555  10.342  0.2011  0.2041 -0.0345
  135SAPE    C114578   0.903   0.511  10.218  0.0163  0.5486  0.5507
  135SAPE    HA14579   0.949   0.598  10.166 -1.0004  1.8823  1.7774
  135SAPE    HB14580   0.984   0.436  10.224 -1.1280 -0.8205 -0.4885
  135SAPE    C214581   0.802   0.447  10.119  0.3684 -0.0969  0.2315
  135SAPE    HS14582   0.847   0.395  10.031  0.7426 -1.1202  1.0066
  135SAPE   O2114583   0.704   0.542  10.076 -0.1473  0.3358 -0.6239
  135SAPE   C2114584   0.747   0.626   9.987  0.6152  0.8665  0.2513
  135SAPE   O2214585   0.863   0.634   9.945 -0.0993  0.2131 -0.6808
  135SAPE   C2214586   0.633   0.706   9.931 -0.6735 -0.6471  0.0510
  135SAPE   H2R14587   0.540   0.648   9.914 -2.2234  2.0199 -1.3613
  135SAPE   H2S14588   0.610   0.787  10.004  1.5296  0.1923 -0.1132
  135SAPE    C314589   0.732   0.323  10.187  0.5961 -0.5752 -0.1456
  135SAPE    HX14590   0.707   0.355  10.291  0.2959 -1.3600  0.0271
  135SAPE    HY14591   0.809   0.245  10.205  0.6554 -0.7363 -1.0800
  135SAPE   O3114592   0.612   0.291  10.110  0.4939  0.4504  0.2994
  135SAPE   C3114593   0.636   0.200  10.013 -0.7855 -0.3368  0.6397
  135SAPE   O3214594   0.747   0.166   9.985 -0.0137  0.6574 -0.0977
  135SAPE   C3214595   0.505   0.143   9.965  1.3548  0.0489  0.3944
  135SAPE   H2X14596   0.455   0.097  10.053  2.7744  0.5836  1.5365
  135SAPE   H2Y14597   0.544   0.063   9.899  0.4476 -1.0564  1.1776
  135SAPE   C2314598   0.682   0.788   9.806  0.8037 -0.2426  0.3837
  135SAPE   H3R14599   0.724   0.713   9.735 -0.2215 -1.2547  0.8148
  135SAPE   H3S14600   0.766   0.849   9.845 -1.1382  2.1984  0.9725
  135SAPE   C2414601   0.568   0.870   9.735  0.0009  0.4803 -0.1886
  135SAPE   H4R14602   0.631   0.929   9.665 -0.3451  0.2645 -0.6917
  135SAPE   H4S14603   0.534   0.946   9.808  0.3788 -0.1072  0.6136
  135SAPE   C2514604   0.450   0.793   9.674 -0.3360 -0.5338 -0.3812
  135SAPE   H5R14605   0.365   0.791   9.744 -0.4989 -0.7282 -0.5854
  135SAPE   C2614606   0.432   0.757   9.549  0.5500 -0.7157  0.4015
  135SAPE   H6R14607   0.341   0.699   9.527 -0.4453  0.9889 -0.1909
  135SAPE   C2714608   0.513   0.776   9.425  0.0622  0.4365 -0.2814
  135SAPE   H7R14609   0.611   0.808   9.465  0.4192 -0.2138 -0.6145
  135SAPE   H7S14610   0.471   0.858   9.362  0.1967 -1.2926 -2.8078
  135SAPE   C2814611   0.521   0.651   9.341 -0.4164 -0.2498 -0.1669
  135SAPE   H8R14612   0.436   0.648   9.271 -2.6421  3.2796  2.0640
  135SAPE   C2914613   0.627   0.570   9.337 -0.0815  0.6391  0.1254
  135SAPE   H9R14614   0.628   0.484   9.269 -1.6789  1.4071 -0.9267
  135SAPE  C21014615   0.752   0.578   9.422 -0.2501 -0.7095  0.0196
  135SAPE  H10R14616   0.767   0.678   9.469  0.7002 -0.1136 -1.4564
  135SAPE  H10S14617   0.842   0.556   9.361 -0.0419 -1.0479  0.4439
  135SAPE  C21114618   0.731   0.477   9.535  0.0025  0.5641  0.5771
  135SAPE  H11R14619   0.639   0.495   9.592 -0.4670  2.0719 -0.5939
  135SAPE  C21214620   0.806   0.374   9.574 -0.6610  0.7313 -0.3098
  135SAPE  H12R14621   0.779   0.313   9.662 -1.0609  2.8746  1.1415
  135SAPE  C21314622   0.939   0.335   9.512 -0.9884  0.0244 -0.2907
  135SAPE  H13R14623   0.918   0.334   9.403 -2.2760 -1.6796 -0.0627
  135SAPE  H13S14624   0.958   0.227   9.532  0.1645  0.0406 -1.1837
  135SAPE  C21414625   1.056   0.419   9.563 -0.1411  0.6705  0.3603
  135SAPE  H14R14626   1.058   0.461   9.664  0.0138  1.7901 -0.0895
  135SAPE  C21514627   1.154   0.468   9.483  0.1040 -0.6902 -0.4052
  135SAPE  H15R14628   1.230   0.535   9.527 -1.5345  0.9570  0.0658
  135SAPE  C21614629   1.181   0.447   9.344 -0.1996  0.5243  0.5365
  135SAPE  H16R14630   1.131   0.352   9.314 -1.5508  0.6846  2.1514
  135SAPE  H16S14631   1.287   0.421   9.325 -1.1633 -3.3961 -0.5476
  135SAPE  C21714632   1.138   0.556   9.241  0.3796 -0.0025 -0.4797
  135SAPE  H17R14633   1.203   0.643   9.265  1.5095 -1.5704  2.5674
  135SAPE  H17S14634   1.033   0.584   9.264  1.0158  1.7383  0.4276
  135SAPE  C21814635   1.168   0.520   9.096 -0.0099 -0.2679  0.7248
  135SAPE  H18R14636   1.086   0.453   9.061  0.1181  0.7079 -1.6159
  135SAPE  H18S14637   1.268   0.473   9.085 -0.1603 -0.6873  1.1073
  135SAPE  C21914638   1.169   0.630   8.990  0.2674  0.1350 -0.4242
  135SAPE  H19R14639   1.262   0.685   9.014 -0.8814  0.8985  2.7949
  135SAPE  H19S14640   1.085   0.699   9.014  0.3251 -0.4253  1.5911
  135SAPE  C22014641   1.166   0.582   8.847 -0.0854  0.3977 -0.2986
  135SAPE  H20R14642   1.260   0.533   8.814 -0.3766  0.3060 -1.0219
  135SAPE  H20S14643   1.142   0.673   8.786 -0.4272  0.6701  0.2319
  135SAPE  H20T14644   1.079   0.514   8.843 -0.8545  1.3255  0.2035
  135SAPE   C3314645   0.410   0.245   9.893 -0.7089 -1.1895  0.4911
  135SAPE   H3X14646   0.396   0.334   9.958 -0.8800  0.6773 -1.9995
  135SAPE   H3Y14647   0.306   0.210   9.875 -1.2084  1.0192 -1.2742
  135SAPE   C3414648   0.465   0.277   9.749 -0.3263  0.8137  0.5688
  135SAPE   H4X14649   0.571   0.309   9.747  0.3687 -1.3352 -1.1106
  135SAPE   H4Y14650   0.403   0.362   9.712 -0.1455  0.1329 -1.4647
  135SAPE   C3514651   0.451   0.161   9.654  0.2306  0.5804  0.5000
  135SAPE   H5X14652   0.343   0.134   9.646  0.1178  1.3339 -0.9320
  135SAPE   H5Y14653   0.510   0.070   9.677 -1.1634 -0.7983 -1.1463
  135SAPE   C3614654   0.504   0.200   9.515 -0.0200  0.3770  0.1674
  135SAPE   H6X14655   0.614   0.213   9.513 -0.0002  0.3601 -2.4058
  135SAPE   H6Y14656   0.443   0.287   9.483  0.0778 -0.2311 -1.7856
  135SAPE   C3714657   0.471   0.087   9.413  0.3671  0.1053  0.0770
  135SAPE   H7X14658   0.360   0.081   9.404  0.3641 -0.4787  0.4436
  135SAPE   H7Y14659   0.511  -0.006   9.458  2.5024  1.7615  1.8009
  135SAPE   C3814660   0.530   0.104   9.270  0.4348 -0.7330 -0.1349
  135SAPE   H8X14661   0.569   0.007   9.233 -0.2690 -0.9056 -0.4585
  135SAPE   H8Y14662   0.624   0.161   9.286  1.0172 -1.7183  0.0548
  135SAPE   C3914663   0.433   0.179   9.182 -0.1395 -0.6191  0.1529
  135SAPE   H9X14664   0.413   0.284   9.215 -3.0721 -0.4258 -1.8541
  135SAPE   H9Y14665   0.340   0.118   9.175  0.4128 -1.4596  0.0245
  135SAPE  C31014666   0.488   0.173   9.036  0.8854 -1.4711  0.5856
  135SAPE  H10X14667   0.507   0.067   9.008 -1.5024 -1.6455 -0.5987
  135SAPE  H10Y14668   0.580   0.236   9.035 -1.4172  2.1634  0.1444
  135SAPE  C31114669   0.393   0.239   8.934 -0.7116 -0.7271 -0.0483
  135SAPE  H11X14670   0.293   0.198   8.960 -0.9232  0.6067  1.3415
  135SAPE  H11Y14671   0.416   0.207   8.830  0.1836 -1.6178  0.4007
  135SAPE  C31214672   0.392   0.395   8.929 -0.1802  0.6115 -0.1707
  135SAPE  H12X14673   0.357   0.433   9.027 -0.2643  2.6360 -0.9299
  135SAPE  H12Y14674   0.310   0.429   8.862 -3.2958 -1.2182  2.4115
  135SAPE  C31314675   0.526   0.471   8.904 -0.3138 -0.4718 -0.1472
  135SAPE  H13X14676   0.557   0.447   8.800  0.5905 -3.4566  0.7271
  135SAPE  H13Y14677   0.596   0.421   8.974 -1.3745 -0.7680  0.7217
  135SAPE  C31414678   0.515   0.623   8.927  0.3613  0.0846  1.0158
  135SAPE  H14X14679   0.511   0.639   9.037  0.4806  1.3108  0.8570
  135SAPE  H14Y14680   0.417   0.656   8.886  0.9638 -0.2390 -0.7889
  135SAPE  C31514681   0.643   0.692   8.891 -0.5093 -0.5218 -0.0216
  135SAPE  H15X14682   0.646   0.726   8.785 -0.3742  3.4296  1.0777
  135SAPE  H15Y14683   0.724   0.622   8.921 -0.9747 -1.5580 -1.1106
  135SAPE  C31614684   0.662   0.819   8.972 -0.5126  0.0255  0.6579
  135SAPE  H16X14685   0.630   0.816   9.079 -1.5924 -2.5634  0.3525
  135SAPE  H16Y14686   0.611   0.902   8.919  0.4809  0.1718 -0.0920
  135SAPE  C31714687   0.809   0.863   8.975  0.0165  0.2267 -0.5506
  135SAPE  H17X14688   0.849   0.885   8.874  3.0551 -0.8299  0.3145
  135SAPE  H17Y14689   0.862   0.773   9.014  0.2835  0.7184  0.2429
  135SAPE  C31814690   0.833   0.974   9.075 -0.4140 -0.5309 -0.4743
  135SAPE  H18X14691   0.943   0.989   9.078 -0.4840 -0.1563  0.7319
  135SAPE  H18Y14692   0.803   0.945   9.178 -2.9421  1.3012 -0.6014
  135SAPE  H18Z14693   0.775   1.065   9.048  0.3110 -0.5200 -2.0894
  136SAPE     N14694   3.815   0.922  11.334 -0.1629 -0.7533  0.3400
  136SAPE   HN114695   3.821   1.017  11.376 -2.2335 -0.6363  0.4810
  136SAPE   HN214696   3.720   0.883  11.317  0.1066 -0.4452 -2.1851
  136SAPE   HN314697   3.852   0.857  11.406  1.1320 -0.2800  0.1222
  136SAPE   C1214698   3.886   0.924  11.198 -0.5888  0.0962 -0.3901
  136SAPE  H12A14699   3.981   0.980  11.213 -1.3042  0.9572  1.1704
  136SAPE  H12B14700   3.821   0.980  11.128 -1.3908 -1.7269 -1.1865
  136SAPE   C1114701   3.895   0.779  11.146 -0.3193 -0.0721  0.2097
  136SAPE  H11A14702   3.927   0.722  11.235  1.5644  0.4297 -0.0915
  136SAPE  H11B14703   3.973   0.769  11.066 -1.2067  1.8350 -0.9852
  136SAPE     P14704   3.749   0.642  10.970 -0.4278 -0.1983  0.1795
  136SAPE   O1314705   3.820   0.520  11.019 -0.0081  0.3169 -0.2811
  136SAPE   O1414706   3.603   0.627  10.948 -0.6804 -0.0820  0.4703
  136SAPE   O1214707   3.769   0.748  11.089  0.0429  0.4622  0.3861
  136SAPE   O1114708   3.826   0.694  10.842  0.3576 -0.6239  0.7938
  136SAPE    C114709   3.766   0.802  10.762  0.2264  1.1534 -0.1587
  136SAPE    HA14710   3.696   0.861  10.825  0.0812  0.7632  0.0443
  136SAPE    HB14711   3.842   0.877  10.730 -0.3328  0.8093 -2.4469
  136SAPE    C214712   3.678   0.741  10.642  0.2281 -0.1466  0.4171
  136SAPE    HS14713   3.628   0.650  10.681  0.1110 -0.3687 -0.2481
  136SAPE   O2114714   3.773   0.715  10.534 -0.4253  0.6816  0.7049
  136SAPE   C2114715   3.736   0.610  10.458  0.1177 -0.5636 -0.0718
  136SAPE   O2214716   3.638   0.538  10.477 -0.3652  0.0493  0.1387
  136SAPE   C2214717   3.821   0.616  10.326  0.0598  0.2803 -0.3725
  136SAPE   H2R14718   3.755   0.664  10.250 -3.6034 -0.7121  1.9119
  136SAPE   H2S14719   3.909   0.680  10.344 -0.5269  0.7234  1.0175
  136SAPE    C314720   3.566   0.835  10.585  0.2517 -0.3999  0.2400
  136SAPE    HX14721   3.625   0.928  10.570  0.6495 -0.5213  1.0135
  136SAPE    HY14722   3.488   0.849  10.663  0.1836  1.6558 -0.1406
  136SAPE   O3114723   3.503   0.786  10.460  0.2470  0.2411  0.1993
  136SAPE   C3114724   3.401   0.697  10.475 -0.5826 -0.3408 -0.1386
  136SAPE   O3214725   3.354   0.655  10.582  0.0002 -0.3337  0.8786
  136SAPE   C3214726   3.349   0.649  10.344  0.2787  1.0876  0.2958
  136SAPE   H2X14727   3.403   0.562  10.302 -0.3372  0.2234  1.2441
  136SAPE   H2Y14728   3.354   0.726  10.264  1.0302 -0.0865 -0.8265
  136SAPE   C2314729   3.862   0.473  10.281 -0.1679 -0.9339 -0.0642
  136SAPE   H3R14730   3.776   0.404  10.295  1.8722 -3.7280 -0.2504
  136SAPE   H3S14731   3.940   0.433  10.350 -1.9066 -0.2040  2.4629
  136SAPE   C2414732   3.907   0.457  10.133  0.6402  0.0303  0.0653
  136SAPE   H4R14733   3.814   0.468  10.072  1.2306 -1.5853 -1.2024
  136SAPE   H4S14734   3.933   0.351  10.116  0.5955  0.3821 -2.5796
  136SAPE   C2514735   4.020   0.557  10.106 -0.9609  0.1258  0.0870
  136SAPE   H5R14736   4.112   0.554  10.166  0.2522 -1.0573 -1.7016
  136SAPE   C2614737   4.003   0.658  10.016  0.8310 -0.2793  0.8610
  136SAPE   H6R14738   4.083   0.734  10.008  0.6823 -0.1205  0.8813
  136SAPE   C2714739   3.875   0.691   9.937 -0.1955  0.3525 -0.3514
  136SAPE   H7R14740   3.872   0.802   9.934  1.3450  0.4470  0.5813
  136SAPE   H7S14741   3.790   0.655   9.998  0.6805 -3.6619 -1.1889
  136SAPE   C2814742   3.865   0.619   9.804 -0.8406  0.1578  0.3781
  136SAPE   H8R14743   3.818   0.519   9.811  1.8411 -1.1609  0.7476
  136SAPE   C2914744   3.910   0.661   9.693 -0.1744  0.1356  1.1306
  136SAPE   H9R14745   3.905   0.609   9.596  1.2025 -0.0063  1.1077
  136SAPE  C21014746   3.980   0.792   9.663 -0.2304 -0.2158  0.0373
  136SAPE  H10R14747   4.024   0.827   9.758 -3.7944  1.9645  1.0896
  136SAPE  H10S14748   3.899   0.854   9.618  0.5947 -0.5056 -1.9581
  136SAPE  C21114749   4.091   0.790   9.569 -0.0650  0.7744  0.8367
  136SAPE  H11R14750   4.190   0.800   9.614  0.5338 -3.3009  0.8592
  136SAPE  C21214751   4.078   0.772   9.435 -0.1287  0.2018 -0.6650
  136SAPE  H12R14752   4.170   0.797   9.380  0.9156  0.5034  1.1335
  136SAPE  C21314753   3.955   0.746   9.353 -0.8868  0.6499 -0.2621
  136SAPE  H13R14754   3.871   0.797   9.404 -1.3289 -1.0222  0.7519
  136SAPE  H13S14755   3.932   0.638   9.355  2.6802 -0.2754 -1.7345
  136SAPE  C21414756   3.961   0.786   9.203 -0.1869 -0.0740 -0.0115
  136SAPE  H14R14757   3.918   0.885   9.182 -0.2232 -0.1901 -0.4925
  136SAPE  C21514758   4.030   0.717   9.112 -0.1790  0.2968 -0.6516
  136SAPE  H15R14759   4.039   0.741   9.005  0.3528  0.8860 -0.4848
  136SAPE  C21614760   4.100   0.588   9.136  0.1692  0.0695  0.0962
  136SAPE  H16R14761   4.101   0.550   9.240  0.0893 -1.2791 -0.3732
  136SAPE  H16S14762   4.202   0.600   9.092 -0.5138  1.6736 -1.1500
  136SAPE  C21714763   4.036   0.496   9.030 -0.1971 -0.2509 -0.5700
  136SAPE  H17R14764   4.059   0.526   8.926 -1.8278  0.0387 -0.8689
  136SAPE  H17S14765   3.927   0.479   9.044 -0.8853  1.5858 -3.1062
  136SAPE  C21814766   4.100   0.351   9.030 -0.0028 -0.1604  0.0565
  136SAPE  H18R14767   4.211   0.354   9.040  0.0926 -1.4079 -0.5056
  136SAPE  H18S14768   4.088   0.316   8.925  2.4003 -1.1364  0.0520
  136SAPE  C21914769   4.023   0.246   9.122  0.1199  0.3087  0.3405
  136SAPE  H19R14770   4.014   0.154   9.061 -0.9841  1.6680 -1.6673
  136SAPE  H19S14771   3.925   0.289   9.150  0.0261  0.4192 -0.1507
  136SAPE  C22014772   4.103   0.207   9.239 -0.1434 -0.2377 -0.2383
  136SAPE  H20R14773   4.130   0.298   9.297  1.7879 -2.2449  2.2608
  136SAPE  H20S14774   4.203   0.162   9.224 -0.1625 -0.1602 -0.6047
  136SAPE  H20T14775   4.043   0.149   9.313 -0.9482  2.5142  1.4334
  136SAPE   C3314776   3.191   0.608  10.342 -0.0978  0.4878 -0.6238
  136SAPE   H3X14777   3.132   0.699  10.367  0.2109  0.8145 -1.0728
  136SAPE   H3Y14778   3.165   0.525  10.411  1.1171 -1.0849 -1.9671
  136SAPE   C3414779   3.154   0.564  10.201  0.1004  0.3119 -0.3404
  136SAPE   H4X14780   3.208   0.472  10.172 -0.5131 -0.5316  1.0886
  136SAPE   H4Y14781   3.165   0.654  10.136 -3.0012  1.7278  0.8584
  136SAPE   C3514782   3.001   0.533  10.184  0.4225 -0.3658  0.5550
  136SAPE   H5X14783   2.938   0.620  10.214 -1.0366 -0.1117 -2.8317
  136SAPE   H5Y14784   2.969   0.447  10.247 -0.6582 -0.7771 -0.5273
  136SAPE   C3614785   2.949   0.501  10.040 -0.3840 -0.6630 -0.2081
  136SAPE   H6X14786   2.838   0.507  10.045 -0.3063  0.3092  1.2109
  136SAPE   H6Y14787   2.980   0.396  10.023 -0.0112 -0.2646 -2.2555
  136SAPE   C3714788   3.022   0.581   9.932  0.2549  0.5912  0.3490
  136SAPE   H7X14789   3.132   0.574   9.931  0.5597  3.6951  1.5065
  136SAPE   H7Y14790   2.994   0.688   9.937 -0.1663  0.5916 -1.4607
  136SAPE   C3814791   2.975   0.534   9.788 -0.0855  0.3109  0.4681
  136SAPE   H8X14792   2.869   0.565   9.797  0.1728  1.3284  0.1384
  136SAPE   H8Y14793   2.993   0.424   9.776  0.9358  0.5661 -0.5309
  136SAPE   C3914794   3.053   0.615   9.683  0.9241 -0.0056 -0.4409
  136SAPE   H9X14795   3.160   0.595   9.705  1.0326 -0.4158 -1.2964
  136SAPE   H9Y14796   3.026   0.722   9.694  0.6923  0.3373 -3.5427
  136SAPE  C31014797   3.028   0.577   9.540 -0.7516  0.1644  0.2220
  136SAPE  H10X14798   2.923   0.605   9.518 -0.8071  2.5210  2.8279
  136SAPE  H10Y14799   3.044   0.468   9.529  1.6526  0.4704  0.0914
  136SAPE  C31114800   3.125   0.645   9.438  0.4401 -0.4850 -0.6856
  136SAPE  H11X14801   3.226   0.645   9.484 -0.8680 -0.9226  2.4190
  136SAPE  H11Y14802   3.091   0.750   9.422 -0.3843 -0.4262  1.2198
  136SAPE  C31214803   3.107   0.576   9.299  0.1111 -0.6115  0.2869
  136SAPE  H12X14804   3.145   0.654   9.230  1.8430 -1.1105  0.6218
  136SAPE  H12Y14805   2.997   0.569   9.283  0.0418  1.2491 -0.2680
  136SAPE  C31314806   3.183   0.440   9.278 -0.5434  0.4263  0.3135
  136SAPE  H13X14807   3.171   0.373   9.366  0.8755 -1.0041 -0.5211
  136SAPE  H13Y14808   3.292   0.457   9.267 -0.3788 -0.7198 -0.0353
  136SAPE  C31414809   3.147   0.370   9.156  0.7452 -0.6085  0.1477
  136SAPE  H14X14810   3.038   0.388   9.141  1.3700  2.1675 -1.8024
  136SAPE  H14Y14811   3.178   0.263   9.158  0.4699 -0.7108 -0.9438
  136SAPE  C31514812   3.214   0.427   9.037 -0.2824 -0.1401  0.5027
  136SAPE  H15X14813   3.325   0.438   9.043 -0.2103 -0.7863  0.4203
  136SAPE  H15Y14814   3.172   0.529   9.022 -2.5841 -1.2177 -0.9445
  136SAPE  C31614815   3.193   0.347   8.909  0.0693 -0.6372  0.0106
  136SAPE  H16X14816   3.083   0.331   8.901  0.0473 -0.2457 -0.6061
  136SAPE  H16Y14817   3.235   0.245   8.919 -1.8870 -1.3891  1.1140
  136SAPE  C31714818   3.256   0.419   8.787  0.5662 -0.2020  0.3711
  136SAPE  H17X14819   3.367   0.422   8.785  0.5515  1.6248  0.2756
  136SAPE  H17Y14820   3.215   0.522   8.800  0.2035 -0.5532  2.3581
  136SAPE  C31814821   3.214   0.368   8.646  0.0485  0.1136  0.4930
  136SAPE  H18X14822   3.105   0.362   8.628  0.4764 -1.5252 -2.0905
  136SAPE  H18Y14823   3.254   0.269   8.617  0.3944 -0.0000  1.3193
  136SAPE  H18Z14824   3.257   0.440   8.572  1.6125 -2.0149 -0.7998
  137SAPE     N14825   2.143   5.382  10.871  0.0407 -0.0673  0.3995
  137SAPE   HN114826   2.159   5.282  10.895  1.8485 -0.0877 -0.7365
  137SAPE   HN214827   2.234   5.422  10.898 -0.6994  1.1905  1.1167
  137SAPE   HN314828   2.073   5.431  10.930  0.0965  0.7957 -0.2283
  137SAPE   C1214829   2.127   5.431  10.730 -0.6635  0.0571 -0.2905
  137SAPE  H12A14830   2.193   5.370  10.665 -1.5418  1.1734 -2.3413
  137SAPE  H12B14831   2.148   5.541  10.729 -0.3324 -0.0056 -0.0870
  137SAPE   C1114832   1.985   5.401  10.685  0.1231  0.2096 -0.6036
  137SAPE  H11A14833   1.953   5.297  10.709 -2.9221  0.9797 -0.9294
  137SAPE  H11B14834   1.989   5.411  10.575  0.4161 -0.6821 -0.6823
  137SAPE     P14835   1.867   5.632  10.689  0.1480 -0.0124 -0.0350
  137SAPE   O1314836   1.777   5.714  10.778  0.2756 -0.6648 -0.7731
  137SAPE   O1414837   2.001   5.692  10.668 -0.7934  0.3097  0.0714
  137SAPE   O1214838   1.879   5.485  10.744 -0.5699 -0.6418  0.7185
  137SAPE   O1114839   1.804   5.595  10.551 -0.3485 -0.2903 -0.1091
  137SAPE    C114840   1.668   5.549  10.553  0.3254 -0.0873 -0.6214
  137SAPE    HA14841   1.643   5.474  10.631 -0.8510 -0.5260 -1.3924
  137SAPE    HB14842   1.601   5.637  10.556  0.7383  0.1958  1.5626
  137SAPE    C214843   1.637   5.447  10.435 -0.8990  0.4908 -0.0402
  137SAPE    HS14844   1.533   5.410  10.451 -2.4481  4.4977  0.4278
  137SAPE   O2114845   1.733   5.342  10.428 -0.2198  0.0991  0.4692
  137SAPE   C2114846   1.710   5.237  10.508 -0.6256 -0.2729 -0.2402
  137SAPE   O2214847   1.613   5.224  10.584  0.4700 -0.4530  0.0454
  137SAPE   C2214848   1.824   5.140  10.485  0.0074 -0.0471  0.1677
  137SAPE   H2R14849   1.911   5.204  10.456 -0.8954  0.3031 -1.8984
  137SAPE   H2S14850   1.853   5.099  10.584  1.0450  0.7670  0.2263
  137SAPE    C314851   1.646   5.537  10.307 -0.6480 -0.3475 -0.8746
  137SAPE    HX14852   1.746   5.586  10.309 -0.6522 -0.2710 -2.0495
  137SAPE    HY14853   1.572   5.619  10.312 -1.4933 -1.1397 -0.2162
  137SAPE   O3114854   1.636   5.458  10.184  0.0498  0.8448  0.5579
  137SAPE   C3114855   1.516   5.432  10.140  0.5621 -0.4682 -0.1504
  137SAPE   O3214856   1.415   5.456  10.203 -0.5991 -0.2620 -0.1395
  137SAPE   C3214857   1.522   5.386   9.990  0.7469 -0.0777 -0.3814
  137SAPE   H2X14858   1.430   5.326   9.976  0.2435  0.5031  0.3551
  137SAPE   H2Y14859   1.612   5.321  10.000 -0.3996 -1.8403 -1.0165
  137SAPE   C2314860   1.809   5.030  10.383 -0.3089  0.0206 -0.4565
  137SAPE   H3R14861   1.743   4.943  10.404  0.7983 -0.5317  0.8523
  137SAPE   H3S14862   1.909   4.986  10.362  0.1399  0.1791  1.2263
  137SAPE   C2414863   1.766   5.082  10.244  0.4639  0.4258  0.2870
  137SAPE   H4R14864   1.673   5.139  10.264  1.1411  1.1640  1.4728
  137SAPE   H4S14865   1.743   4.998  10.175 -0.1463  0.5913  0.2901
  137SAPE   C2514866   1.877   5.160  10.175 -0.8840 -0.5101  0.1946
  137SAPE   H5R14867   1.897   5.260  10.216 -1.7035 -0.2552 -0.0077
  137SAPE   C2614868   1.941   5.128  10.064 -0.0809 -0.2743  0.1639
  137SAPE   H6R14869   2.007   5.196  10.009 -1.5441  0.2860 -0.9808
  137SAPE   C2714870   1.934   5.002   9.979  0.7733  0.0423  0.1715
  137SAPE   H7R14871   1.847   5.004   9.910  0.0217  0.3124  1.0942
  137SAPE   H7S14872   1.917   4.915  10.046  0.2114 -0.0227 -0.0474
  137SAPE   C2814873   2.054   4.986   9.901  0.4834 -0.3498  0.2230
  137SAPE   H8R14874   2.143   4.973   9.965  1.1874 -2.7057 -1.1410
  137SAPE   C2914875   2.066   4.975   9.764  0.2436  0.4268 -0.5312
  137SAPE   H9R14876   2.165   4.984   9.718  0.6410  0.3113  0.2945
  137SAPE  C21014877   1.955   4.978   9.665  0.3345 -0.0280 -0.5147
  137SAPE  H10R14878   1.957   5.076   9.613  1.3182 -0.0916 -0.6195
  137SAPE  H10S14879   1.855   4.966   9.712  0.5650 -1.5247 -0.3375
  137SAPE  C21114880   1.959   4.872   9.563 -0.3110 -0.1678  0.3417
  137SAPE  H11R14881   1.941   4.773   9.607  0.9392 -0.7885 -0.4736
  137SAPE  C21214882   1.967   4.887   9.428 -0.7773  0.1114 -0.3396
  137SAPE  H12R14883   1.967   4.792   9.371 -2.7651 -1.4201  1.9820
  137SAPE  C21314884   1.970   5.013   9.344 -1.0168 -0.0179  0.2342
  137SAPE  H13R14885   2.056   5.010   9.274 -1.6220 -0.3713 -0.5100
  137SAPE  H13S14886   1.987   5.108   9.397  3.9974 -0.1803 -0.5837
  137SAPE  C21414887   1.849   5.024   9.258 -0.5728  0.4969  0.8206
  137SAPE  H14R14888   1.765   5.065   9.315 -1.2185 -1.3971  1.2998
  137SAPE  C21514889   1.827   4.996   9.126 -0.2147 -0.1578 -0.4739
  137SAPE  H15R14890   1.728   5.006   9.080 -0.0649 -1.1885 -1.0457
  137SAPE  C21614891   1.924   4.952   9.034 -0.0889 -0.8400  0.2298
  137SAPE  H16R14892   1.927   4.841   9.044 -0.4064 -0.8947 -0.2424
  137SAPE  H16S14893   2.022   4.994   9.067  0.0487  0.0418 -1.2136
  137SAPE  C21714894   1.894   4.999   8.891 -0.6173  0.3716  0.3446
  137SAPE  H17R14895   1.992   4.987   8.841 -0.9469  0.3580 -0.3031
  137SAPE  H17S14896   1.872   5.107   8.878 -1.6691 -0.0245 -1.3532
  137SAPE  C21814897   1.791   4.919   8.812  0.0689 -0.7087  0.1091
  137SAPE  H18R14898   1.693   4.928   8.864  0.0576 -0.2067  0.0070
  137SAPE  H18S14899   1.826   4.815   8.801 -0.5777 -0.8121 -1.1857
  137SAPE  C21914900   1.757   4.985   8.672 -0.2755  0.2679  0.0247
  137SAPE  H19R14901   1.692   5.074   8.687 -2.4448 -1.3199  0.5863
  137SAPE  H19S14902   1.699   4.907   8.618 -0.5761  1.0252 -0.7666
  137SAPE  C22014903   1.872   5.011   8.580  0.0212 -0.9069 -0.2737
  137SAPE  H20R14904   1.970   5.057   8.605  2.1045 -2.4025 -4.7661
  137SAPE  H20S14905   1.831   5.075   8.500 -0.5475 -2.1129 -0.9742
  137SAPE  H20T14906   1.897   4.917   8.526  2.2871  0.7086 -2.2088
  137SAPE   C3314907   1.528   5.509   9.896  0.3573  0.5175  0.1773
  137SAPE   H3X14908   1.609   5.571   9.939 -0.1231  2.4521 -1.5540
  137SAPE   H3Y14909   1.435   5.569   9.903  0.6770  0.8120  2.5796
  137SAPE   C3414910   1.556   5.463   9.758  0.0639 -0.1050 -0.0594
  137SAPE   H4X14911   1.643   5.395   9.750  0.6180  0.3472  1.7104
  137SAPE   H4Y14912   1.575   5.555   9.699 -2.5957 -0.6189 -1.9077
  137SAPE   C3514913   1.445   5.384   9.678 -0.6323 -0.2757 -1.2101
  137SAPE   H5X14914   1.347   5.432   9.656 -0.9392 -0.7387 -0.8638
  137SAPE   H5Y14915   1.432   5.292   9.738 -2.0594  0.1683 -0.8004
  137SAPE   C3614916   1.493   5.353   9.533  0.0431  0.0265 -0.2830
  137SAPE   H6X14917   1.563   5.268   9.545 -0.9498 -1.0771 -1.9132
  137SAPE   H6Y14918   1.537   5.444   9.487  2.1967 -0.6973  0.2571
  137SAPE   C3714919   1.389   5.288   9.444 -0.2305  0.2595  0.2699
  137SAPE   H7X14920   1.309   5.360   9.418  0.9147  1.8316  0.9445
  137SAPE   H7Y14921   1.350   5.200   9.501  1.2009  0.1725  1.1470
  137SAPE   C3814922   1.449   5.228   9.311 -0.1863 -1.0383  0.0719
  137SAPE   H8X14923   1.361   5.180   9.263 -0.1732 -1.6329  0.6202
  137SAPE   H8Y14924   1.530   5.154   9.330 -0.1559 -1.1273 -0.3829
  137SAPE   C3914925   1.493   5.343   9.211  0.1484 -0.6653 -0.0084
  137SAPE   H9X14926   1.564   5.419   9.251  0.6376 -0.1588 -1.7486
  137SAPE   H9Y14927   1.395   5.393   9.195 -1.9384 -4.5837 -0.6274
  137SAPE  C31014928   1.550   5.296   9.069 -0.4093 -0.1173 -0.9220
  137SAPE  H10X14929   1.629   5.219   9.086 -1.7314 -0.9126  2.3522
  137SAPE  H10Y14930   1.608   5.386   9.039 -1.4168  1.7253  2.1870
  137SAPE  C31114931   1.439   5.275   8.976 -0.2191  0.1820 -0.1542
  137SAPE  H11X14932   1.380   5.370   8.977 -0.5260  0.0236  1.5675
  137SAPE  H11Y14933   1.371   5.197   9.016  2.4741 -1.4468  1.4967
  137SAPE  C31214934   1.476   5.251   8.837  0.1139 -0.1569 -0.4354
  137SAPE  H12X14935   1.385   5.225   8.779  0.8310 -1.9528 -0.8468
  137SAPE  H12Y14936   1.536   5.157   8.830  2.0997  1.1595 -1.8675
  137SAPE  C31314937   1.559   5.362   8.765  0.2164 -0.6044  0.8401
  137SAPE  H13X14938   1.583   5.330   8.662  0.8301  0.8538  0.5158
  137SAPE  H13Y14939   1.648   5.369   8.832 -0.9225  0.8402  2.3024
  137SAPE  C31414940   1.496   5.501   8.756 -0.1356  0.7416 -0.2469
  137SAPE  H14X14941   1.566   5.573   8.707  1.3546 -0.0601  0.6428
  137SAPE  H14Y14942   1.488   5.530   8.863  1.1916 -0.9104  0.3252
  137SAPE  C31514943   1.363   5.529   8.682  0.4374 -0.5089  0.0766
  137SAPE  H15X14944   1.306   5.435   8.700 -0.3781  0.1069  0.8117
  137SAPE  H15Y14945   1.395   5.548   8.577  1.4591  0.3763  0.5322
  137SAPE  C31614946   1.294   5.657   8.729  0.4785  0.1046  0.2255
  137SAPE  H16X14947   1.345   5.753   8.705  1.3480 -0.6502 -1.0324
  137SAPE  H16Y14948   1.281   5.646   8.839 -4.0622  2.6399  0.2127
  137SAPE  C31714949   1.158   5.669   8.660 -0.0372  0.0460  0.3217
  137SAPE  H17X14950   1.087   5.588   8.686  1.2445 -1.0872  0.4504
  137SAPE  H17Y14951   1.170   5.675   8.550  2.8562 -0.5717  0.5181
  137SAPE  C31814952   1.084   5.804   8.699 -0.3129  0.5371  0.0208
  137SAPE  H18X14953   1.154   5.884   8.667  1.5773 -0.7082  0.8345
  137SAPE  H18Y14954   1.076   5.815   8.809  1.9214 -0.6996  0.3704
  137SAPE  H18Z14955   0.985   5.820   8.651 -0.5670 -1.8835 -0.3642
  138SAPE     N14956   4.700   4.321  10.865  0.4339 -0.6945 -0.1808
  138SAPE   HN114957   4.621   4.379  10.899  1.3994  1.0487 -0.8153
  138SAPE   HN214958   4.695   4.319  10.761 -0.0307  2.4296 -0.2951
  138SAPE   HN314959   4.699   4.225  10.906 -1.4374 -1.7317 -2.4375
  138SAPE   C1214960   4.824   4.396  10.921 -0.7391 -0.2896  0.8523
  138SAPE  H12A14961   4.799   4.435  11.022  2.4071  1.0713  1.2278
  138SAPE  H12B14962   4.846   4.480  10.851  0.6554 -0.5823  0.9122
  138SAPE   C1114963   4.963   4.314  10.930  0.1258  0.4507 -0.0243
  138SAPE  H11A14964   4.932   4.255  11.019 -2.2654 -0.1338 -1.1603
  138SAPE  H11B14965   5.050   4.376  10.962  3.1277 -3.2298 -0.3515
  138SAPE     P14966   5.128   4.216  10.741 -0.1016  0.4797 -0.1589
  138SAPE   O1314967   5.236   4.265  10.828 -0.4401 -0.1729 -0.2764
  138SAPE   O1414968   5.150   4.078  10.681 -0.1011 -0.5485 -0.4041
  138SAPE   O1214969   4.984   4.226  10.821 -0.4107 -0.0642  0.2643
  138SAPE   O1114970   5.116   4.317  10.620  0.2665 -0.1323 -0.0144
  138SAPE    C114971   5.045   4.439  10.629  0.7002 -0.5769 -0.1329
  138SAPE    HA14972   4.939   4.429  10.661  0.7306 -0.4455  0.0105
  138SAPE    HB14973   5.088   4.497  10.714 -1.1623  0.0603  0.4176
  138SAPE    C214974   5.060   4.521  10.499 -1.1865 -0.1143 -0.0630
  138SAPE    HS14975   4.992   4.494  10.416 -1.1146  3.2211 -1.3559
  138SAPE   O2114976   5.189   4.509  10.437  1.0862 -0.1293  0.1729
  138SAPE   C2114977   5.295   4.520  10.513  0.1090 -0.2817 -0.6399
  138SAPE   O2214978   5.310   4.566  10.624  0.2719 -0.8034 -0.3418
  138SAPE   C2214979   5.408   4.468  10.430 -0.3969  0.2232 -0.2655
  138SAPE   H2R14980   5.410   4.358  10.439 -0.5215 -0.1642 -3.7201
  138SAPE   H2S14981   5.389   4.489  10.322 -1.5555 -2.7655 -0.7392
  138SAPE    C314982   5.031   4.675  10.524  0.4280 -0.5209  0.7331
  138SAPE    HX14983   5.121   4.729  10.560 -0.8566  0.1708  3.1989
  138SAPE    HY14984   4.954   4.674  10.605  1.6391 -1.0585  1.9241
  138SAPE   O3114985   4.970   4.749  10.408  0.1316  0.1715 -0.1103
  138SAPE   C3114986   4.966   4.878  10.428  0.5962 -0.8028 -0.1108
  138SAPE   O3214987   5.032   4.938  10.512 -0.7807 -0.9738 -0.2299
  138SAPE   C3214988   4.862   4.941  10.328 -0.3491 -0.6069  0.0472
  138SAPE   H2X14989   4.891   4.889  10.234 -0.5186 -3.0501  1.2715
  138SAPE   H2Y14990   4.869   5.052  10.330 -0.3739 -0.6071  0.1255
  138SAPE   C2314991   5.546   4.533  10.459 -0.1034  0.0002  0.1307
  138SAPE   H3R14992   5.570   4.490  10.559 -1.8789 -2.3691 -0.3655
  138SAPE   H3S14993   5.560   4.643  10.455  2.8204 -0.3035 -0.0620
  138SAPE   C2414994   5.654   4.476  10.362 -0.0159  0.5108  0.1144
  138SAPE   H4R14995   5.636   4.367  10.348  0.0559  0.4711  0.3347
  138SAPE   H4S14996   5.755   4.487  10.406  0.9306 -0.2079 -1.7482
  138SAPE   C2514997   5.645   4.541  10.224 -0.6971 -0.6773 -0.1952
  138SAPE   H5R14998   5.665   4.649  10.218 -0.2012 -0.6826  0.9986
  138SAPE   C2614999   5.622   4.472  10.109  0.3275 -0.5948 -0.3270
  138SAPE   H6R15000   5.611   4.539  10.023 -0.8131  1.1358  1.0938
  138SAPE   C2715001   5.588   4.330  10.084 -0.4738 -0.1451 -0.6505
  138SAPE   H7R15002   5.626   4.273  10.172 -2.7197 -0.8101 -0.0606
  138SAPE   H7S15003   5.637   4.292   9.992 -0.2519  2.3257 -1.6182
  138SAPE   C2815004   5.440   4.320  10.084  0.9120  0.8887 -0.4263
  138SAPE   H8R15005   5.401   4.292  10.183  1.5093 -1.3770 -0.7702
  138SAPE   C2915006   5.364   4.333   9.975  0.6899 -0.0221 -0.0319
  138SAPE   H9R15007   5.255   4.339   9.993  0.6897 -0.0509 -0.0213
  138SAPE  C21015008   5.414   4.357   9.836 -0.6772  0.2142  0.4332
  138SAPE  H10R15009   5.513   4.308   9.828 -0.7304 -0.0075  1.1405
  138SAPE  H10S15010   5.449   4.461   9.820 -2.4779  0.5349 -2.1723
  138SAPE  C21115011   5.305   4.315   9.737 -0.3801 -0.6644 -0.5273
  138SAPE  H11R15012   5.213   4.375   9.732 -0.8577 -1.4455 -4.1572
  138SAPE  C21215013   5.320   4.221   9.639  0.1901  0.2218 -0.4555
  138SAPE  H12R15014   5.231   4.180   9.590  0.5242  0.1437 -0.9980
  138SAPE  C21315015   5.442   4.139   9.611  0.6228 -1.1618 -0.0612
  138SAPE  H13R15016   5.416   4.032   9.626  2.0644 -1.2960  1.6973
  138SAPE  H13S15017   5.518   4.160   9.689  0.2356 -0.0126  0.0296
  138SAPE  C21415018   5.503   4.156   9.470  0.2780  0.3161  0.0625
  138SAPE  H14R15019   5.606   4.195   9.470  0.2303  0.4784 -0.9650
  138SAPE  C21515020   5.447   4.116   9.353  0.1498  0.1931  0.3223
  138SAPE  H15R15021   5.496   4.136   9.257  1.0735  1.4024  1.0141
  138SAPE  C21615022   5.310   4.047   9.345 -0.3825 -0.1023 -0.6579
  138SAPE  H16R15023   5.252   4.052   9.440  0.5573 -0.0190 -0.0742
  138SAPE  H16S15024   5.320   3.937   9.330  0.2126 -0.0248 -0.8478
  138SAPE  C21715025   5.214   4.113   9.244 -0.2030  0.0565  0.0959
  138SAPE  H17R15026   5.209   4.218   9.280 -0.5590 -0.4722  1.6541
  138SAPE  H17S15027   5.113   4.066   9.249 -1.1585  2.1183  2.9588
  138SAPE  C21815028   5.256   4.127   9.097  1.3202  0.2657 -0.5883
  138SAPE  H18R15029   5.342   4.197   9.097  0.5172  1.3808  2.1110
  138SAPE  H18S15030   5.177   4.187   9.046  1.5416  1.0233 -0.0699
  138SAPE  C21915031   5.275   3.995   9.028 -0.7949  0.2038  0.6063
  138SAPE  H19R15032   5.183   3.938   9.048 -0.3962 -0.2698  1.1066
  138SAPE  H19S15033   5.359   3.939   9.074 -0.7766  0.0198  0.3493
  138SAPE  C22015034   5.283   4.008   8.876  0.4401 -0.9219  0.1062
  138SAPE  H20R15035   5.371   4.075   8.864  0.0108 -0.3363  0.1668
  138SAPE  H20S15036   5.202   4.070   8.832  2.8166  1.7550 -0.8323
  138SAPE  H20T15037   5.297   3.920   8.811 -3.5849 -0.6558 -1.3676
  138SAPE   C3315038   4.715   4.897  10.361 -0.1201  0.2017 -0.5075
  138SAPE   H3X15039   4.689   4.950  10.455  0.0359 -1.3599  0.4575
  138SAPE   H3Y15040   4.720   4.789  10.386  0.6662 -0.1398 -1.9750
  138SAPE   C3415041   4.606   4.939  10.258  0.2322  0.3553 -0.9276
  138SAPE   H4X15042   4.506   4.953  10.303  0.2500 -1.4358 -0.2231
  138SAPE   H4Y15043   4.591   4.857  10.184 -0.5639 -1.0589  0.7210
  138SAPE   C3515044   4.623   5.074  10.189 -0.7504 -0.6686  0.4361
  138SAPE   H5X15045   4.719   5.073  10.133 -0.3598  0.0360  1.0770
  138SAPE   H5Y15046   4.639   5.156  10.263 -1.0343  0.3447 -0.5987
  138SAPE   C3615047   4.516   5.106  10.089  0.1959 -0.1468  0.5593
  138SAPE   H6X15048   4.416   5.107  10.139  0.4668  1.0432  1.0966
  138SAPE   H6Y15049   4.522   5.021  10.017  1.5946  0.3276  0.0826
  138SAPE   C3715050   4.545   5.231  10.003  0.4274  0.5265 -0.1597
  138SAPE   H7X15051   4.593   5.295  10.080 -1.3750  0.3750  1.1634
  138SAPE   H7Y15052   4.449   5.276   9.969 -0.5096 -0.8087  0.5881
  138SAPE   C3815053   4.643   5.191   9.888  1.1542 -0.5477  0.3112
  138SAPE   H8X15054   4.716   5.123   9.937  2.1991  1.4393  1.6891
  138SAPE   H8Y15055   4.691   5.280   9.842 -0.8240 -0.9543 -2.8675
  138SAPE   C3915056   4.575   5.104   9.774 -0.2360 -0.0681  0.3871
  138SAPE   H9X15057   4.475   5.152   9.765 -1.1092 -2.1005 -1.8870
  138SAPE   H9Y15058   4.561   4.995   9.791  0.0485 -0.4669 -1.6971
  138SAPE  C31015059   4.658   5.119   9.645  0.6743 -0.7770 -0.0909
  138SAPE  H10X15060   4.764   5.110   9.675  0.7149 -2.5089 -0.6429
  138SAPE  H10Y15061   4.653   5.226   9.616 -2.3852 -0.9557 -0.5762
  138SAPE  C31115062   4.621   5.026   9.524 -0.0509  0.5550 -0.4827
  138SAPE  H11X15063   4.515   5.038   9.494  0.1428  0.5192 -1.1969
  138SAPE  H11Y15064   4.622   4.921   9.561  0.1509  0.8669  0.4367
  138SAPE  C31215065   4.711   5.018   9.402 -0.2942 -0.0339  0.3857
  138SAPE  H12X15066   4.807   4.969   9.428  1.2403  3.1629  1.2401
  138SAPE  H12Y15067   4.744   5.122   9.383  2.1786 -1.3774 -4.0388
  138SAPE  C31315068   4.660   4.941   9.280 -0.0732 -0.1945  0.3380
  138SAPE  H13X15069   4.564   4.981   9.241  0.5079  1.8831  0.8903
  138SAPE  H13Y15070   4.634   4.837   9.308  0.0238 -0.1334  0.6689
  138SAPE  C31415071   4.761   4.939   9.165  0.0915  0.5181 -0.3911
  138SAPE  H14X15072   4.852   4.884   9.197 -0.1143  0.9061  0.9287
  138SAPE  H14Y15073   4.812   5.037   9.149  1.2666  0.0523  0.3913
  138SAPE  C31515074   4.699   4.871   9.046 -0.1019 -0.1729 -0.0772
  138SAPE  H15X15075   4.622   4.932   8.994  0.4342  2.1955  1.7160
  138SAPE  H15Y15076   4.662   4.769   9.070 -0.5152  0.8408  4.5408
  138SAPE  C31615077   4.804   4.876   8.931 -0.4856  0.3603  0.1399
  138SAPE  H16X15078   4.893   4.818   8.965  0.8814  1.4485 -1.3885
  138SAPE  H16Y15079   4.837   4.982   8.927  2.3167 -0.4250  0.1050
  138SAPE  C31715080   4.749   4.845   8.796  0.3561 -0.1080 -0.4565
  138SAPE  H17X15081   4.662   4.911   8.773 -1.2651 -2.8387 -2.8355
  138SAPE  H17Y15082   4.706   4.744   8.812  0.5985  0.0542  1.4092
  138SAPE  C31815083   4.842   4.848   8.680  0.1228  0.2022  0.3859
  138SAPE  H18X15084   4.921   4.770   8.682 -0.8652 -0.9007 -1.2896
  138SAPE  H18Y15085   4.884   4.950   8.668 -1.5877  0.6104 -3.3550
  138SAPE  H18Z15086   4.794   4.827   8.583  2.0514  0.3534 -0.6628
  139SAPE     N15087   4.454   3.186  10.479  0.0327 -0.3596 -0.6182
  139SAPE   HN115088   4.549   3.199  10.517 -0.4298 -1.5412  1.0434
  139SAPE   HN215089   4.388   3.177  10.559 -0.3935  0.0991 -0.9104
  139SAPE   HN315090   4.446   3.094  10.430  0.7273  0.5420 -2.5432
  139SAPE   C1215091   4.400   3.311  10.414 -0.1656 -0.7199  1.0989
  139SAPE  H12A15092   4.301   3.283  10.371  0.3754  0.7159 -1.2749
  139SAPE  H12B15093   4.472   3.343  10.335 -1.0800 -2.2125 -0.4202
  139SAPE   C1115094   4.370   3.413  10.515  0.4844 -0.1206  0.2003
  139SAPE  H11A15095   4.331   3.507  10.470  0.6138  0.2631  0.8695
  139SAPE  H11B15096   4.462   3.435  10.573 -0.7435 -0.7686  2.5275
  139SAPE     P15097   4.191   3.463  10.700  0.3449  0.2314 -0.1822
  139SAPE   O1315098   4.094   3.385  10.784 -0.5315  0.6930  0.4114
  139SAPE   O1415099   4.299   3.538  10.768 -0.0956 -0.2034  0.4032
  139SAPE   O1215100   4.264   3.366  10.605 -0.0012 -0.4184 -0.5538
  139SAPE   O1115101   4.109   3.544  10.592  0.0610 -0.2577 -0.2424
  139SAPE    C115102   3.991   3.495  10.531 -0.6770  0.6940 -0.4275
  139SAPE    HA15103   3.955   3.399  10.575 -1.0831  1.4513  0.9497
  139SAPE    HB15104   3.914   3.575  10.527  0.4688  1.8267 -0.2259
  139SAPE    C215105   4.022   3.463  10.379  0.4864 -0.7553 -0.0795
  139SAPE    HS15106   4.107   3.392  10.372 -0.0853 -1.2953 -2.7113
  139SAPE   O2115107   4.043   3.587  10.310 -0.4368 -0.1298 -0.6206
  139SAPE   C2115108   4.123   3.583  10.213  0.1664 -0.0487  0.3623
  139SAPE   O2215109   4.193   3.491  10.184 -0.4244 -0.0311 -0.4278
  139SAPE   C2215110   4.123   3.710  10.132 -0.4397 -0.1251  0.2734
  139SAPE   H2R15111   4.037   3.706  10.062 -1.1390  1.8262  0.9554
  139SAPE   H2S15112   4.105   3.795  10.201  0.3737  0.2420  0.0577
  139SAPE    C315113   3.907   3.388  10.303  0.1101 -0.3978 -0.3541
  139SAPE    HX15114   3.811   3.442  10.319  0.8791  1.1230 -0.6188
  139SAPE    HY15115   3.905   3.285  10.344  0.9227  0.5852  2.4149
  139SAPE   O3115116   3.926   3.398  10.155  0.0751  0.3082 -0.1499
  139SAPE   C3115117   3.895   3.289  10.087  0.1955  0.6886  0.2921
  139SAPE   O3215118   3.837   3.186  10.130 -0.2947 -0.1869  0.0654
  139SAPE   C3215119   3.946   3.307   9.941  0.5784  0.5238 -0.4731
  139SAPE   H2X15120   3.998   3.220   9.894 -2.5706 -1.3985 -0.7135
  139SAPE   H2Y15121   4.016   3.392   9.934  0.8471  0.2440 -1.4547
  139SAPE   C2315122   4.246   3.732  10.045  0.1405  0.2492 -0.2350
  139SAPE   H3R15123   4.339   3.702  10.098  0.3078  2.0150  0.5278
  139SAPE   H3S15124   4.254   3.840  10.021 -2.1188  0.5216  0.0301
  139SAPE   C2415125   4.253   3.671   9.901 -0.2893  0.2742 -0.0196
  139SAPE   H4R15126   4.257   3.561   9.913 -0.6581  0.4091  1.5277
  139SAPE   H4S15127   4.344   3.706   9.847 -1.9755  0.8243 -2.6784
  139SAPE   C2515128   4.139   3.724   9.814  0.1496  1.0569 -0.4091
  139SAPE   H5R15129   4.059   3.778   9.866 -0.3833 -1.3337  1.4737
  139SAPE   C2615130   4.110   3.691   9.688 -0.2372 -0.3195  0.0735
  139SAPE   H6R15131   4.027   3.734   9.631  0.4118  1.4684  0.4219
  139SAPE   C2715132   4.194   3.602   9.607  0.1489  0.0026  0.5103
  139SAPE   H7R15133   4.206   3.504   9.658  0.5742 -0.0056  0.3964
  139SAPE   H7S15134   4.298   3.639   9.591 -0.1814  0.3545 -0.8888
  139SAPE   C2815135   4.126   3.552   9.481  0.1390 -0.3937  0.4337
  139SAPE   H8R15136   4.064   3.633   9.441 -1.6297 -0.6063  2.5912
  139SAPE   C2915137   4.140   3.427   9.419 -0.0621  0.1552  0.1057
  139SAPE   H9R15138   4.089   3.424   9.322  0.6504 -1.7504 -0.2437
  139SAPE  C21015139   4.243   3.326   9.470 -0.2022 -0.1070 -0.8200
  139SAPE  H10R15140   4.327   3.383   9.515  0.3689 -2.1239  0.7999
  139SAPE  H10S15141   4.307   3.280   9.392  2.8342 -0.1876  1.5575
  139SAPE  C21115142   4.205   3.215   9.568 -0.1020  0.7817  1.2381
  139SAPE  H11R15143   4.097   3.195   9.564  0.0028  0.3743 -0.0111
  139SAPE  C21215144   4.282   3.152   9.656 -0.3665  0.2916  0.5712
  139SAPE  H12R15145   4.240   3.075   9.721  0.7300 -0.3997  0.4889
  139SAPE  C21315146   4.427   3.183   9.684 -0.3468  0.4986  0.0929
  139SAPE  H13R15147   4.443   3.158   9.791 -4.1690 -0.8580  0.4961
  139SAPE  H13S15148   4.454   3.290   9.666  2.1529 -0.1630 -0.4367
  139SAPE  C21415149   4.517   3.113   9.593  0.1035  0.5732  0.4308
  139SAPE  H14R15150   4.473   3.128   9.493 -3.4475 -0.7933  1.6144
  139SAPE  C21515151   4.633   3.047   9.616  0.7708  0.3793 -0.4870
  139SAPE  H15R15152   4.684   2.986   9.540 -0.8465 -0.5082 -0.9255
  139SAPE  C21615153   4.684   3.020   9.752 -0.3514  0.5246 -0.6948
  139SAPE  H16R15154   4.766   2.945   9.748 -2.6675 -2.1723 -0.7663
  139SAPE  H16S15155   4.614   2.964   9.817 -1.0715  1.8780 -0.2494
  139SAPE  C21715156   4.741   3.139   9.829 -0.3401  0.0766 -0.5151
  139SAPE  H17R15157   4.664   3.216   9.852 -0.0966  0.4909 -1.0859
  139SAPE  H17S15158   4.813   3.198   9.769  0.7486  0.7650  1.3722
  139SAPE  C21815159   4.821   3.098   9.956 -0.9544  0.5127 -0.1840
  139SAPE  H18R15160   4.861   3.190  10.004 -1.7485  0.7322  0.0809
  139SAPE  H18S15161   4.916   3.045   9.937  0.7195  2.9811  0.7654
  139SAPE  C21915162   4.733   3.017  10.055  0.4911  0.4546 -0.7644
  139SAPE  H19R15163   4.770   2.914  10.037 -0.4459 -0.0479  0.0837
  139SAPE  H19S15164   4.627   3.019  10.020  0.3738 -3.0220 -0.9758
  139SAPE  C22015165   4.765   3.053  10.199 -0.2372 -0.3727 -1.0874
  139SAPE  H20R15166   4.684   3.026  10.270 -0.8858 -0.5879 -1.8896
  139SAPE  H20S15167   4.780   3.163  10.209  0.2426 -0.5870  0.8378
  139SAPE  H20T15168   4.858   3.005  10.237 -2.2141 -2.4445  1.5221
  139SAPE   C3315169   3.830   3.324   9.847  0.9355  0.3727  0.5621
  139SAPE   H3X15170   3.758   3.399   9.887 -2.6119 -1.3556 -2.0005
  139SAPE   H3Y15171   3.764   3.236   9.835 -1.1003  1.7720  0.8532
  139SAPE   C3415172   3.856   3.356   9.702 -0.0487 -0.2092 -0.2138
  139SAPE   H4X15173   3.900   3.269   9.650  0.4984  0.7694 -1.4418
  139SAPE   H4Y15174   3.931   3.438   9.692  0.0539 -0.1841  0.6874
  139SAPE   C3515175   3.736   3.401   9.621 -0.1980  0.4350 -0.1916
  139SAPE   H5X15176   3.683   3.483   9.675  0.0331  1.3085 -1.2651
  139SAPE   H5Y15177   3.679   3.306   9.611 -0.0193  0.4778 -1.8170
  139SAPE   C3615178   3.779   3.456   9.485 -0.2018  0.2985  0.0197
  139SAPE   H6X15179   3.866   3.397   9.450 -0.4098  0.0900 -0.1602
  139SAPE   H6Y15180   3.806   3.563   9.494 -0.3118  0.3571 -0.3378
  139SAPE   C3715181   3.666   3.450   9.381  0.1698 -0.1443  0.3636
  139SAPE   H7X15182   3.605   3.541   9.399  0.1118 -0.2259  0.5807
  139SAPE   H7Y15183   3.621   3.353   9.412  1.4171 -0.3316  1.7226
  139SAPE   C3815184   3.738   3.460   9.248  0.0502  0.0083 -0.5145
  139SAPE   H8X15185   3.673   3.420   9.167  1.4968 -1.7888 -0.8478
  139SAPE   H8Y15186   3.818   3.383   9.249 -0.0696 -0.1522 -1.8661
  139SAPE   C3915187   3.798   3.595   9.215  0.6977  0.2447  0.1732
  139SAPE   H9X15188   3.853   3.644   9.298  0.2944  0.1413  0.5051
  139SAPE   H9Y15189   3.722   3.664   9.172  0.0076 -2.4659 -3.4569
  139SAPE  C31015190   3.904   3.573   9.105 -0.1626 -0.1032  0.2736
  139SAPE  H10X15191   3.983   3.504   9.142  0.4248 -0.4020 -1.4639
  139SAPE  H10Y15192   3.965   3.664   9.084  3.0265 -1.5317  2.4285
  139SAPE  C31115193   3.846   3.516   8.973 -0.5090 -0.4341 -0.4537
  139SAPE  H11X15194   3.765   3.584   8.940 -1.0798 -0.8846  0.0033
  139SAPE  H11Y15195   3.806   3.416   9.001  0.5669 -0.8975 -0.4990
  139SAPE  C31215196   3.938   3.494   8.851 -0.5332 -0.6959 -0.3416
  139SAPE  H12X15197   4.011   3.411   8.865 -1.6207 -1.4434  1.2047
  139SAPE  H12Y15198   3.991   3.588   8.829 -1.6778 -0.0404 -0.3898
  139SAPE  C31315199   3.867   3.458   8.719 -0.7355  0.5368  0.0992
  139SAPE  H13X15200   3.781   3.392   8.744 -2.3280  2.5631  0.2392
  139SAPE  H13Y15201   3.931   3.411   8.642 -0.9213  1.2012 -0.4713
  139SAPE  C31415202   3.802   3.579   8.642  0.1146 -0.2095  0.3447
  139SAPE  H14X15203   3.885   3.641   8.602 -1.3275  0.2717 -2.0832
  139SAPE  H14Y15204   3.740   3.639   8.713 -3.2534 -1.2044 -1.5586
  139SAPE  C31515205   3.714   3.540   8.519 -0.4653  0.2999  0.0171
  139SAPE  H15X15206   3.631   3.474   8.551 -0.7633  2.0154  3.2548
  139SAPE  H15Y15207   3.787   3.499   8.446  1.5197  2.1382  0.8516
  139SAPE  C31615208   3.636   3.654   8.446 -0.5477  0.3074 -0.9552
  139SAPE  H16X15209   3.596   3.721   8.524 -3.2573 -1.2718 -0.8746
  139SAPE  H16Y15210   3.720   3.702   8.391  1.6599 -0.9860  1.0738
  139SAPE  C31715211   3.527   3.607   8.354  0.1235 -0.3303  1.1682
  139SAPE  H17X15212   3.559   3.528   8.283 -3.0801 -1.0181  0.3270
  139SAPE  H17Y15213   3.496   3.687   8.283  0.0483  1.3446  3.0066
  139SAPE  C31815214   3.409   3.548   8.425  0.2664  0.3436  0.1226
  139SAPE  H18X15215   3.332   3.528   8.348  0.2190 -1.8160  0.6625
  139SAPE  H18Y15216   3.369   3.616   8.503  0.6002  0.6983 -0.0150
  139SAPE  H18Z15217   3.430   3.445   8.462 -0.9571 -0.8427 -2.2635
  140SAPE     N15218   6.124   0.398  11.023  0.0830  0.4284  0.3407
  140SAPE   HN115219   6.218   0.369  11.059 -0.5855 -0.8183  1.1658
  140SAPE   HN215220   6.077   0.440  11.106  0.9993  2.0245  0.1047
  140SAPE   HN315221   6.066   0.317  10.994  0.8084 -0.7051  1.9063
  140SAPE   C1215222   6.153   0.498  10.914 -0.4073 -0.2116  0.2356
  140SAPE  H12A15223   6.213   0.584  10.950  1.3348 -0.9046 -0.8661
  140SAPE  H12B15224   6.052   0.536  10.889 -0.4259  0.3335  1.1138
  140SAPE   C1115225   6.234   0.436  10.800 -0.4739 -0.2906 -0.8723
  140SAPE  H11A15226   6.260   0.517  10.729  2.4125 -0.0515  0.2987
  140SAPE  H11B15227   6.178   0.362  10.739 -0.8172 -0.0652 -0.8282
  140SAPE     P15228   6.490   0.451  10.845  0.0802 -0.1824  0.3289
  140SAPE   O1315229   6.481   0.562  10.950  0.3930 -0.0231  0.7310
  140SAPE   O1415230   6.604   0.357  10.847 -0.0975 -0.2592 -0.4408
  140SAPE   O1215231   6.355   0.380  10.850  0.4067  0.0690  0.7129
  140SAPE   O1115232   6.491   0.518  10.700  0.4610 -0.2144  0.0230
  140SAPE    C115233   6.512   0.436  10.581 -0.0905 -0.0191 -0.4890
  140SAPE    HA15234   6.561   0.338  10.597 -0.3530  0.0250  0.6380
  140SAPE    HB15235   6.413   0.435  10.529  0.1316 -1.5636 -0.9129
  140SAPE    C215236   6.612   0.524  10.498  0.5475 -0.4045  0.1579
  140SAPE    HS15237   6.693   0.554  10.568 -1.0116  2.1566  1.0257
  140SAPE   O2115238   6.531   0.644  10.474 -0.1311  0.0163 -0.3422
  140SAPE   C2115239   6.608   0.752  10.447 -0.0338 -0.5538 -0.3701
  140SAPE   O2215240   6.728   0.748  10.423 -0.0983 -0.6790  0.2081
  140SAPE   C2215241   6.524   0.873  10.427 -0.0192 -0.3659 -0.7497
  140SAPE   H2R15242   6.432   0.858  10.366 -1.0271  0.2361  0.5498
  140SAPE   H2S15243   6.485   0.903  10.527 -0.4795 -0.4612 -0.8964
  140SAPE    C315244   6.662   0.457  10.372 -0.0879  0.1040  0.0039
  140SAPE    HX15245   6.750   0.397  10.406 -0.5199  1.0005  2.9683
  140SAPE    HY15246   6.701   0.531  10.298 -1.7078  1.1157  0.1237
  140SAPE   O3115247   6.562   0.378  10.302 -0.0493 -0.1993 -0.5831
  140SAPE   C3115248   6.613   0.303  10.201  0.3159 -0.3013 -0.8796
  140SAPE   O3215249   6.733   0.308  10.174 -1.0040 -0.0469  0.3852
  140SAPE   C3215250   6.502   0.219  10.140  0.1722  0.5416  0.0089
  140SAPE   H2X15251   6.433   0.279  10.076 -0.7003  0.0681  0.4946
  140SAPE   H2Y15252   6.459   0.170  10.230 -1.0359  3.0204  0.8717
  140SAPE   C2315253   6.596   0.999  10.369  0.9177 -0.6990  0.0287
  140SAPE   H3R15254   6.631   0.973  10.267  0.4610  0.0949 -0.3350
  140SAPE   H3S15255   6.685   1.029  10.429  0.0471  3.2776 -0.4334
  140SAPE   C2415256   6.505   1.126  10.354 -0.3670  0.9156  0.3038
  140SAPE   H4R15257   6.457   1.160  10.448  3.3917  1.7066  2.1455
  140SAPE   H4S15258   6.422   1.092  10.290  0.0496 -0.3089  0.3949
  140SAPE   C2515259   6.571   1.235  10.274  0.5603 -0.2079  0.8084
  140SAPE   H5R15260   6.623   1.316  10.328  1.6776 -0.9879  0.9402
  140SAPE   C2615261   6.575   1.252  10.138 -0.1949  0.5134  0.8585
  140SAPE   H6R15262   6.619   1.345  10.100  1.0398 -0.8095 -1.2135
  140SAPE   C2715263   6.520   1.167  10.025  0.1470 -0.5705 -0.6389
  140SAPE   H7R15264   6.428   1.214   9.985 -0.1774 -0.3594  0.3235
  140SAPE   H7S15265   6.473   1.077  10.071 -1.8011  0.7120 -0.0252
  140SAPE   C2815266   6.609   1.118   9.918  0.4351  1.0483 -1.4062
  140SAPE   H8R15267   6.707   1.081   9.953 -0.1447 -0.1768 -1.0480
  140SAPE   C2915268   6.578   1.093   9.788 -0.0376  0.0199 -0.1113
  140SAPE   H9R15269   6.655   1.044   9.726  1.4501  2.2231 -0.1293
  140SAPE  C21015270   6.451   1.132   9.718 -0.0541  0.0410  0.5391
  140SAPE  H10R15271   6.476   1.190   9.627  0.6936  0.6117  1.0965
  140SAPE  H10S15272   6.385   1.188   9.788 -2.1161  1.4311 -2.3252
  140SAPE  C21115273   6.366   1.019   9.681  0.0175  0.3352 -0.3772
  140SAPE  H11R15274   6.325   0.975   9.773 -0.5322  2.9065  0.7131
  140SAPE  C21215275   6.336   0.974   9.559 -0.2671 -0.5146  0.5614
  140SAPE  H12R15276   6.277   0.883   9.541 -1.4313  0.2863  0.1640
  140SAPE  C21315277   6.383   1.034   9.428 -0.4593 -0.2440 -0.1700
  140SAPE  H13R15278   6.493   1.044   9.430 -0.6244  1.8331  0.6768
  140SAPE  H13S15279   6.356   1.140   9.412  2.5706  0.7436  0.7391
  140SAPE  C21415280   6.337   0.953   9.308  0.6683  0.0053 -0.0902
  140SAPE  H14R15281   6.273   0.866   9.329 -0.5121  0.5614 -1.1865
  140SAPE  C21515282   6.334   1.001   9.181  0.1045 -0.0928  0.3105
  140SAPE  H15R15283   6.290   0.944   9.098 -1.9594  0.5225  0.9154
  140SAPE  C21615284   6.383   1.129   9.128 -0.1230 -0.5670  0.5408
  140SAPE  H16R15285   6.429   1.111   9.029 -1.3779 -3.1778  0.3539
  140SAPE  H16S15286   6.456   1.181   9.195  1.0438 -1.0208 -0.3346
  140SAPE  C21715287   6.275   1.240   9.095  0.1380  0.0029  0.0516
  140SAPE  H17R15288   6.210   1.245   9.185 -2.1983 -0.7036 -1.4867
  140SAPE  H17S15289   6.198   1.193   9.030  0.5262 -2.0583  1.0184
  140SAPE  C21815290   6.336   1.364   9.033 -0.5852 -0.1303  0.2640
  140SAPE  H18R15291   6.445   1.354   9.054 -0.5015  1.5305  0.7658
  140SAPE  H18S15292   6.310   1.462   9.078  1.7965  0.3527  0.7527
  140SAPE  C21915293   6.309   1.372   8.880  0.6048 -0.2573 -0.4525
  140SAPE  H19R15294   6.199   1.369   8.862  0.6989 -1.4132 -0.9250
  140SAPE  H19S15295   6.341   1.284   8.821 -0.9884 -0.8889 -0.4333
  140SAPE  C22015296   6.364   1.499   8.814 -0.3616 -0.2484  0.3624
  140SAPE  H20R15297   6.314   1.594   8.844  3.4760  3.1435 -2.6910
  140SAPE  H20S15298   6.347   1.496   8.704  1.5964 -0.4587  0.0323
  140SAPE  H20T15299   6.472   1.516   8.835 -0.6465  1.1646  0.8324
  140SAPE   C3315300   6.551   0.110  10.045  1.1517  0.0726  0.7851
  140SAPE   H3X15301   6.458   0.055  10.021  0.6723  0.8741  0.7854
  140SAPE   H3Y15302   6.626   0.035  10.077  0.3305 -0.7301  0.8516
  140SAPE   C3415303   6.598   0.163   9.899 -0.1337  0.0153 -0.3339
  140SAPE   H4X15304   6.690   0.223   9.918 -0.3393  0.3247 -0.2965
  140SAPE   H4Y15305   6.532   0.249   9.874  0.0070  0.6871  1.4571
  140SAPE   C3515306   6.602   0.051   9.796 -0.0718 -0.1856  0.5004
  140SAPE   H5X15307   6.509   0.002   9.761  0.7342 -1.2658 -0.1856
  140SAPE   H5Y15308   6.668  -0.025   9.842  3.3757 -0.1396 -3.7023
  140SAPE   C3615309   6.688   0.087   9.679 -0.2858 -0.1563 -0.3185
  140SAPE   H6X15310   6.791   0.126   9.693  0.0766 -1.6385  1.4764
  140SAPE   H6Y15311   6.631   0.171   9.634  0.1761  1.3746  1.7491
  140SAPE   C3715312   6.693  -0.034   9.581 -0.0342 -0.4015 -0.6760
  140SAPE   H7X15313   6.596  -0.088   9.588  0.1443 -0.6531 -0.0587
  140SAPE   H7Y15314   6.770  -0.109   9.607 -0.3076 -0.8403 -1.1175
  140SAPE   C3815315   6.720   0.033   9.448 -0.5744  0.7503 -0.1030
  140SAPE   H8X15316   6.799   0.111   9.451  0.3672 -0.1764  0.2020
  140SAPE   H8Y15317   6.624   0.071   9.408 -0.9541  0.6736  0.6998
  140SAPE   C3915318   6.762  -0.059   9.334 -0.0688  0.2884  0.2254
  140SAPE   H9X15319   6.673  -0.112   9.293 -0.7174  1.3161  0.2425
  140SAPE   H9Y15320   6.833  -0.133   9.376  1.7356  2.0541  0.4065
  140SAPE  C31015321   6.806   0.024   9.210 -0.3480  0.7691  0.1065
  140SAPE  H10X15322   6.880   0.100   9.243  1.7891 -0.5762 -1.3206
  140SAPE  H10Y15323   6.717   0.072   9.164 -0.6535 -2.0900 -2.6219
  140SAPE  C31115324   6.852  -0.070   9.097 -0.5462  0.2138 -0.2710
  140SAPE  H11X15325   6.774  -0.142   9.064 -0.2583  0.3270 -1.2362
  140SAPE  H11Y15326   6.940  -0.125   9.137 -0.0665  0.6565 -0.6871
  140SAPE  C31215327   6.882   0.010   8.966 -0.6042 -0.1714  0.7593
  140SAPE  H12X15328   6.934   0.104   8.992  0.5616 -0.1698 -1.3210
  140SAPE  H12Y15329   6.786   0.049   8.926  0.3588  2.7467  1.0608
  140SAPE  C31315330   6.956  -0.060   8.844 -0.8046 -0.0230  0.6365
  140SAPE  H13X15331   6.952  -0.008   8.747  0.7605 -2.8446 -1.0832
  140SAPE  H13Y15332   6.895  -0.152   8.828 -0.8161  0.3064 -1.3779
  140SAPE  C31415333   7.099  -0.099   8.863 -0.4180 -0.5166 -0.6091
  140SAPE  H14X15334   7.104  -0.179   8.940 -1.5088 -1.8250 -1.8489
  140SAPE  H14Y15335   7.153  -0.007   8.897  0.5996 -1.2294 -0.2474
  140SAPE  C31515336   7.178  -0.155   8.739 -0.1380  0.0853 -0.2853
  140SAPE  H15X15337   7.190  -0.073   8.665 -2.5820  0.0338 -0.8114
  140SAPE  H15Y15338   7.132  -0.242   8.687  1.8032  0.0594 -2.0922
  140SAPE  C31615339   7.321  -0.209   8.770  0.0520  0.0844 -0.6777
  140SAPE  H16X15340   7.306  -0.300   8.831 -1.5293 -1.5813 -3.3889
  140SAPE  H16Y15341   7.389  -0.139   8.825 -0.3335 -0.1078  0.0663
  140SAPE  C31715342   7.383  -0.241   8.639  0.4483 -0.0077  0.3723
  140SAPE  H17X15343   7.382  -0.153   8.572  1.3153 -0.2119  0.0786
  140SAPE  H17Y15344   7.318  -0.311   8.583 -0.9324  0.7121  1.0338
  140SAPE  C31815345   7.529  -0.300   8.655 -0.7150  0.2048 -0.2616
  140SAPE  H18X15346   7.546  -0.359   8.748  0.7079 -0.0604 -0.6677
  140SAPE  H18Y15347   7.599  -0.214   8.663  0.6935 -0.7865 -1.3954
  140SAPE  H18Z15348   7.559  -0.353   8.562  1.8678  1.1124 -0.0345
  141SAPE     N15349   1.488   0.616  10.994 -0.6619  0.4252  0.9645
  141SAPE   HN115350   1.476   0.565  10.904  1.9277 -0.1825  0.8788
  141SAPE   HN215351   1.450   0.556  11.071  2.4719 -0.2374  2.1572
  141SAPE   HN315352   1.431   0.703  10.997 -2.2440 -0.5720  0.9807
  141SAPE   C1215353   1.633   0.649  11.023 -0.7974 -0.0233 -0.5684
  141SAPE  H12A15354   1.701   0.561  11.010  0.1966  0.9494 -2.4016
  141SAPE  H12B15355   1.638   0.676  11.130 -0.2371 -1.1966 -0.2810
  141SAPE   C1115356   1.678   0.757  10.925 -0.4474  0.3538  0.3724
  141SAPE  H11A15357   1.650   0.732  10.820  2.6269 -0.2814 -0.4122
  141SAPE  H11B15358   1.789   0.753  10.927 -0.4743 -1.0404  0.0306
  141SAPE     P15359   1.503   0.950  10.919  0.4600  0.0383  0.1149
  141SAPE   O1315360   1.399   0.857  10.969  0.4824 -0.5512  0.6157
  141SAPE   O1415361   1.500   1.092  10.951 -0.0131  0.1814 -0.8656
  141SAPE   O1215362   1.630   0.883  10.976 -0.2671 -0.0353  0.4007
  141SAPE   O1115363   1.523   0.929  10.765  0.1883  1.2687  0.1795
  141SAPE    C115364   1.640   0.980  10.697 -0.0107  0.0945 -1.4527
  141SAPE    HA15365   1.630   1.090  10.702 -0.9881 -0.0174 -0.7892
  141SAPE    HB15366   1.733   0.950  10.751 -0.1593 -1.5198 -2.0583
  141SAPE    C215367   1.638   0.930  10.549  0.0468 -0.0713 -0.3787
  141SAPE    HS15368   1.741   0.945  10.510 -0.2407 -0.1636 -1.1902
  141SAPE   O2115369   1.545   1.021  10.481 -0.4314 -0.1480 -0.1481
  141SAPE   C2115370   1.589   1.097  10.396 -0.3145 -0.0610  1.1074
  141SAPE   O2215371   1.697   1.085  10.341  0.5306 -0.3845  0.0055
  141SAPE   C2215372   1.476   1.198  10.374  0.2602  0.5161 -0.6115
  141SAPE   H2R15373   1.382   1.142  10.384 -0.9419  2.4749 -0.3555
  141SAPE   H2S15374   1.472   1.263  10.464  2.9089  1.0538 -0.7966
  141SAPE    C315375   1.590   0.784  10.525  0.4813  0.2352 -0.1570
  141SAPE    HX15376   1.484   0.767  10.553  0.2004  2.3716  0.3081
  141SAPE    HY15377   1.648   0.715  10.591  1.7308  1.2441 -0.1601
  141SAPE   O3115378   1.623   0.751  10.391 -0.7339  0.5494 -0.1201
  141SAPE   C3115379   1.523   0.755  10.309  0.8165 -0.5219 -0.4320
  141SAPE   O3215380   1.408   0.799  10.336 -0.3375 -0.2349 -0.3779
  141SAPE   C3215381   1.556   0.711  10.165 -0.1862  0.4160  0.2491
  141SAPE   H2X15382   1.658   0.669  10.164 -0.2718  0.1972  0.7534
  141SAPE   H2Y15383   1.574   0.804  10.107  3.0826  0.5967  1.3958
  141SAPE   C2315384   1.485   1.272  10.242 -0.1833 -0.2210  0.4900
  141SAPE   H3R15385   1.585   1.318  10.227 -0.0396  0.5838  3.3004
  141SAPE   H3S15386   1.412   1.356  10.241  1.0731  0.9058 -0.8072
  141SAPE   C2415387   1.450   1.181  10.118  0.2431 -0.0088 -0.0434
  141SAPE   H4R15388   1.513   1.090  10.107  0.9028  0.6038 -1.8245
  141SAPE   H4S15389   1.472   1.241  10.026 -1.4554  1.4483  0.4413
  141SAPE   C2515390   1.306   1.157  10.081 -0.2447 -0.2068  0.2936
  141SAPE   H5R15391   1.234   1.228  10.127  1.7351  0.4474  2.5941
  141SAPE   C2615392   1.256   1.072   9.987  0.5075  0.1091 -0.8063
  141SAPE   H6R15393   1.151   1.092   9.958  0.6239 -0.0377 -1.3450
  141SAPE   C2715394   1.328   0.981   9.895 -0.2055  0.3784 -0.1372
  141SAPE   H7R15395   1.426   0.946   9.935 -0.7883  0.0412  1.0307
  141SAPE   H7S15396   1.345   1.042   9.804 -0.4767  0.3588 -0.2015
  141SAPE   C2815397   1.259   0.856   9.871  0.4296  1.1854 -0.2726
  141SAPE   H8R15398   1.267   0.783   9.954  2.4977 -0.4044 -1.7496
  141SAPE   C2915399   1.205   0.814   9.758 -0.2936  0.2471  0.3857
  141SAPE   H9R15400   1.175   0.709   9.758 -0.6483  0.3142  2.5580
  141SAPE  C21015401   1.190   0.882   9.627  0.1428  0.1751  0.6458
  141SAPE  H10R15402   1.255   0.844   9.545  0.3025  0.0352  0.8371
  141SAPE  H10S15403   1.212   0.991   9.635  0.3466  0.1262  0.7620
  141SAPE  C21115404   1.050   0.866   9.570 -0.6268 -0.1952  0.4415
  141SAPE  H11R15405   1.026   0.760   9.555 -2.9603  0.3556 -0.0757
  141SAPE  C21215406   0.974   0.960   9.515 -0.5425 -0.1183 -0.9277
  141SAPE  H12R15407   0.872   0.934   9.484 -0.6863  0.0163 -0.5819
  141SAPE  C21315408   1.003   1.108   9.508  0.0902 -1.0534 -0.1502
  141SAPE  H13R15409   0.948   1.158   9.425 -1.3073  1.3145  2.0787
  141SAPE  H13S15410   1.111   1.127   9.487  0.6277 -2.4466  1.1675
  141SAPE  C21415411   0.974   1.185   9.639 -0.2158  0.4052 -0.0955
  141SAPE  H14R15412   1.024   1.140   9.726  0.5969  4.5141  1.8264
  141SAPE  C21515413   0.894   1.287   9.664  0.9560  0.2260 -0.3364
  141SAPE  H15R15414   0.890   1.337   9.761  1.1588 -0.3498 -0.0273
  141SAPE  C21615415   0.797   1.346   9.568 -0.6649 -0.0395 -0.2142
  141SAPE  H16R15416   0.866   1.386   9.490 -1.6137  0.0531 -1.0237
  141SAPE  H16S15417   0.749   1.438   9.610 -0.4922 -0.0846  0.0838
  141SAPE  C21715418   0.690   1.262   9.508 -0.2916 -1.2188  0.0962
  141SAPE  H17R15419   0.653   1.188   9.584  1.2317 -0.0085  2.1148
  141SAPE  H17S15420   0.746   1.199   9.435  4.0928  1.2710  0.9874
  141SAPE  C21815421   0.574   1.332   9.430  0.1669 -0.4249 -0.9945
  141SAPE  H18R15422   0.624   1.409   9.367  0.0945  0.3859 -0.0874
  141SAPE  H18S15423   0.519   1.385   9.510  0.0464 -2.1499  0.1180
  141SAPE  C21915424   0.481   1.243   9.353 -0.2401  0.4510 -0.4119
  141SAPE  H19R15425   0.412   1.318   9.310  0.7511  1.5670 -0.1188
  141SAPE  H19S15426   0.431   1.176   9.425  1.9627  0.3159  1.1036
  141SAPE  C22015427   0.554   1.173   9.248  0.3161  0.6105  0.9472
  141SAPE  H20R15428   0.482   1.107   9.196 -0.2460  1.7508  0.2287
  141SAPE  H20S15429   0.637   1.115   9.293  1.0248 -0.1661 -1.2750
  141SAPE  H20T15430   0.588   1.245   9.170  0.6685  1.7671  2.1154
  141SAPE   C3315431   1.449   0.625  10.095  0.0281  0.0497  0.1600
  141SAPE   H3X15432   1.347   0.668  10.104 -0.3520 -0.5487 -1.1216
  141SAPE   H3Y15433   1.454   0.532  10.156 -0.5553 -0.2387 -0.2277
  141SAPE   C3415434   1.489   0.592   9.952 -0.5783  0.0293 -0.4203
  141SAPE   H4X15435   1.596   0.565   9.944 -0.6468 -0.9818  1.4323
  141SAPE   H4Y15436   1.483   0.686   9.895  1.0559  0.5918  0.2768
  141SAPE   C3515437   1.403   0.471   9.903 -0.0661 -0.4925 -0.5445
  141SAPE   H5X15438   1.295   0.497   9.909  0.2129  0.8372 -0.9489
  141SAPE   H5Y15439   1.438   0.393   9.974  0.9085  0.9910  0.6544
  141SAPE   C3615440   1.431   0.437   9.763 -0.2492  1.0984  0.1680
  141SAPE   H6X15441   1.404   0.517   9.691 -2.7554  1.9059  1.8759
  141SAPE   H6Y15442   1.363   0.353   9.736 -0.2872  0.6601  1.5297
  141SAPE   C3715443   1.565   0.376   9.733 -0.3072 -0.0844 -0.2957
  141SAPE   H7X15444   1.576   0.293   9.805  0.9267 -0.6819 -1.1227
  141SAPE   H7Y15445   1.637   0.457   9.759  0.6622 -1.2623  0.7942
  141SAPE   C3815446   1.587   0.328   9.591 -0.0592 -0.1338 -0.2250
  141SAPE   H8X15447   1.492   0.271   9.586 -0.9205  1.2500 -0.0939
  141SAPE   H8Y15448   1.679   0.266   9.584  0.7800  1.1680 -1.1425
  141SAPE   C3915449   1.581   0.433   9.477  0.2963 -0.2783  0.4772
  141SAPE   H9X15450   1.666   0.503   9.487 -0.0565  0.0578  1.2268
  141SAPE   H9Y15451   1.488   0.494   9.472  1.2559  1.4599  2.3367
  141SAPE  C31015452   1.601   0.369   9.345  0.1853 -0.0000 -0.5708
  141SAPE  H10X15453   1.512   0.314   9.306  0.0951  1.2050 -2.1413
  141SAPE  H10Y15454   1.684   0.296   9.349  0.0239 -0.1387  3.0737
  141SAPE  C31115455   1.635   0.482   9.238 -0.7303  1.1909  0.1794
  141SAPE  H11X15456   1.728   0.532   9.273  1.5820 -2.8517  0.3875
  141SAPE  H11Y15457   1.556   0.561   9.245 -1.2776  0.5085  2.2133
  141SAPE  C31215458   1.653   0.423   9.100  0.3708  0.5052  0.1582
  141SAPE  H12X15459   1.580   0.340   9.085  1.6566 -0.7935  0.8161
  141SAPE  H12Y15460   1.752   0.373   9.108  1.6069  2.6485 -0.9216
  141SAPE  C31315461   1.669   0.509   8.978  0.3247 -0.8632 -0.9252
  141SAPE  H13X15462   1.724   0.600   9.010  1.0067 -1.3911 -0.5668
  141SAPE  H13Y15463   1.563   0.534   8.954  0.2526  2.1629  1.8666
  141SAPE  C31415464   1.755   0.461   8.864  0.0910 -0.3374  0.6506
  141SAPE  H14X15465   1.718   0.360   8.834 -2.6758  0.9641 -0.6172
  141SAPE  H14Y15466   1.854   0.454   8.913 -0.9415 -1.4753  2.6963
  141SAPE  C31515467   1.735   0.550   8.737 -0.4021  0.7033 -0.4953
  141SAPE  H15X15468   1.762   0.656   8.757 -0.5530  0.3003  2.0755
  141SAPE  H15Y15469   1.629   0.558   8.703  0.2974  4.2369 -2.4001
  141SAPE  C31615470   1.804   0.485   8.617 -0.0263  0.5197  0.3210
  141SAPE  H16X15471   1.761   0.384   8.605  1.1410  0.1663 -1.2526
  141SAPE  H16Y15472   1.913   0.478   8.638 -0.0760  0.5340  0.5872
  141SAPE  C31715473   1.780   0.556   8.478 -0.0793  0.7879 -0.1384
  141SAPE  H17X15474   1.801   0.665   8.489  0.0797  0.7228  0.2374
  141SAPE  H17Y15475   1.671   0.544   8.461  0.0010 -1.7591  0.6833
  141SAPE  C31815476   1.863   0.487   8.365  0.3773  0.0764  0.1684
  141SAPE  H18X15477   1.809   0.402   8.319  1.2371  1.5409 -3.9906
  141SAPE  H18Y15478   1.968   0.477   8.402  0.5658  0.4447 -0.2558
  141SAPE  H18Z15479   1.877   0.559   8.282  1.2257  0.3562  0.5318
  142SAPE     N15480   1.052   6.291  11.074  0.2433  0.1676  0.0812
  142SAPE   HN115481   1.081   6.326  10.981 -0.6598 -1.9813 -1.0687
  142SAPE   HN215482   1.108   6.204  11.085  1.7351  1.2090  1.3195
  142SAPE   HN315483   0.953   6.261  11.070  0.9051 -2.1574  0.0241
  142SAPE   C1215484   1.093   6.384  11.186  0.2322  0.3983 -0.5780
  142SAPE  H12A15485   1.089   6.321  11.277 -0.8733  2.0431  0.5540
  142SAPE  H12B15486   1.023   6.469  11.201 -2.1672 -1.3578 -1.1710
  142SAPE   C1115487   1.237   6.425  11.163 -0.3884 -0.1180  0.2045
  142SAPE  H11A15488   1.275   6.490  11.245  1.1672 -1.8382  0.9257
  142SAPE  H11B15489   1.238   6.485  11.069 -0.1793 -1.1110 -0.4418
  142SAPE     P15490   1.476   6.342  11.089  0.5149  0.5798  0.1482
  142SAPE   O1315491   1.526   6.460  11.157 -0.2263 -0.0831 -0.2825
  142SAPE   O1415492   1.556   6.218  11.101  0.1512 -0.4340 -0.3883
  142SAPE   O1215493   1.329   6.318  11.143  0.1763 -0.1839  0.5670
  142SAPE   O1115494   1.453   6.363  10.934  0.1827  0.2246 -0.0745
  142SAPE    C115495   1.369   6.279  10.853  0.1228 -0.2115  0.2771
  142SAPE    HA15496   1.342   6.182  10.900  1.1905 -1.4592 -1.5368
  142SAPE    HB15497   1.279   6.341  10.831  0.5394  1.1521  2.1619
  142SAPE    C215498   1.438   6.237  10.718 -0.5361  0.4815  0.0941
  142SAPE    HS15499   1.522   6.172  10.750 -2.2811 -2.3837 -0.6823
  142SAPE   O2115500   1.481   6.351  10.650  0.5447 -0.4003 -0.7079
  142SAPE   C2115501   1.593   6.333  10.579  0.0611  0.4872 -0.9663
  142SAPE   O2215502   1.653   6.228  10.585 -0.5110  0.5040  0.3119
  142SAPE   C2215503   1.635   6.449  10.500 -0.9252  0.5909  0.0533
  142SAPE   H2R15504   1.562   6.533  10.503 -1.9520 -0.2584 -0.2732
  142SAPE   H2S15505   1.741   6.468  10.526 -0.4612 -1.7391  0.0469
  142SAPE    C315506   1.344   6.153  10.628  0.0498  0.6517 -0.4865
  142SAPE    HX15507   1.254   6.217  10.609 -2.4917 -2.9250 -1.6717
  142SAPE    HY15508   1.298   6.080  10.698 -1.1123  3.5398  1.9599
  142SAPE   O3115509   1.395   6.096  10.508 -0.0945 -0.4578 -0.1798
  142SAPE   C3115510   1.486   6.003  10.518  0.2535  0.0642  0.3903
  142SAPE   O3215511   1.518   5.938  10.615 -0.1661  0.2184 -0.2973
  142SAPE   C3215512   1.554   5.980  10.384  0.1268 -0.7204 -0.3279
  142SAPE   H2X15513   1.567   6.079  10.335  1.1194 -0.2923  0.7421
  142SAPE   H2Y15514   1.483   5.925  10.319 -0.7629 -1.0163  0.8608
  142SAPE   C2315515   1.649   6.407  10.349 -0.0592 -0.4193  0.5172
  142SAPE   H3R15516   1.552   6.397  10.296 -0.6381  3.1308  0.6487
  142SAPE   H3S15517   1.697   6.309  10.331 -2.0646 -1.0262 -2.2849
  142SAPE   C2415518   1.736   6.516  10.266 -0.3512 -0.1364 -1.0033
  142SAPE   H4R15519   1.720   6.616  10.310  1.8145  0.4999 -1.5681
  142SAPE   H4S15520   1.711   6.507  10.158  1.0859  1.3012 -1.4953
  142SAPE   C2515521   1.889   6.492  10.274 -0.0884  0.0023  0.2859
  142SAPE   H5R15522   1.941   6.548  10.353  2.4980  0.4253 -1.5908
  142SAPE   C2615523   1.972   6.435  10.183  0.4056 -0.6804  0.8675
  142SAPE   H6R15524   2.080   6.426  10.201  0.5807  0.8212  0.6854
  142SAPE   C2715525   1.924   6.365  10.055 -0.3954 -0.0365 -0.0763
  142SAPE   H7R15526   1.849   6.288  10.081  0.5163 -1.9904 -2.7324
  142SAPE   H7S15527   1.999   6.308   9.995 -2.4501 -2.3049 -0.6265
  142SAPE   C2815528   1.855   6.448   9.952 -0.8970  0.1420  0.6304
  142SAPE   H8R15529   1.862   6.557   9.966  0.0197  0.1174  0.4078
  142SAPE   C2915530   1.787   6.410   9.838  0.0946 -0.0066 -0.9032
  142SAPE   H9R15531   1.755   6.492   9.772 -1.8803  1.7554  1.9888
  142SAPE  C21015532   1.751   6.263   9.809  0.1701  0.3341 -0.4325
  142SAPE  H10R15533   1.647   6.239   9.839  0.3745 -0.7121 -0.5143
  142SAPE  H10S15534   1.813   6.190   9.865 -1.7664 -1.1108 -0.0624
  142SAPE  C21115535   1.780   6.234   9.667 -0.4826 -0.4524 -0.2277
  142SAPE  H11R15536   1.802   6.327   9.614  2.8122 -0.0145  1.6345
  142SAPE  C21215537   1.764   6.121   9.601  0.7645  0.6892  0.1293
  142SAPE  H12R15538   1.785   6.118   9.493  0.1342  0.9148 -0.0045
  142SAPE  C21315539   1.718   5.985   9.660  0.6201 -0.0481 -0.2631
  142SAPE  H13R15540   1.721   5.973   9.770 -1.0002  0.0495 -0.1784
  142SAPE  H13S15541   1.774   5.899   9.617 -0.5924 -0.7634 -0.4447
  142SAPE  C21415542   1.571   5.976   9.632 -0.5856 -0.6071  0.2837
  142SAPE  H14R15543   1.520   6.055   9.689  1.6916  1.3517 -0.2431
  142SAPE  C21515544   1.510   5.893   9.542 -0.0428 -0.5074 -0.1391
  142SAPE  H15R15545   1.400   5.895   9.537 -0.0177  1.0100 -0.5535
  142SAPE  C21615546   1.582   5.785   9.466 -0.2852 -0.5938 -0.1634
  142SAPE  H16R15547   1.590   5.691   9.526  0.1783  1.0530  2.5472
  142SAPE  H16S15548   1.686   5.812   9.435  0.0003  1.7549  2.4480
  142SAPE  C21715549   1.507   5.743   9.342  0.0614  0.6427  0.4009
  142SAPE  H17R15550   1.415   5.695   9.383  1.0679 -2.1566 -0.4332
  142SAPE  H17S15551   1.562   5.652   9.311  2.5738  1.0895  3.1233
  142SAPE  C21815552   1.476   5.849   9.236  0.3384  0.7329  0.1306
  142SAPE  H18R15553   1.560   5.918   9.214  0.3263  3.0092  5.6675
  142SAPE  H18S15554   1.391   5.913   9.267  0.0193  0.0831  0.6352
  142SAPE  C21915555   1.418   5.791   9.108  0.5167  0.3018  0.3124
  142SAPE  H19R15556   1.499   5.718   9.088  0.9939  0.2290  2.2895
  142SAPE  H19S15557   1.399   5.867   9.029 -6.1334  0.9684  1.8959
  142SAPE  C22015558   1.278   5.728   9.135 -0.0076  0.2911 -0.1765
  142SAPE  H20R15559   1.262   5.676   9.232 -0.3637  0.0056 -0.3842
  142SAPE  H20S15560   1.243   5.654   9.060  0.0656 -0.9469  0.9737
  142SAPE  H20T15561   1.201   5.808   9.136 -1.6678 -1.2342  0.4735
  142SAPE   C3315562   1.681   5.900  10.399 -0.8004  0.3991 -0.3073
  142SAPE   H3X15563   1.646   5.803  10.439  0.7027  0.4825  1.3436
  142SAPE   H3Y15564   1.737   5.951  10.481  1.2731 -0.5932 -1.0571
  142SAPE   C3415565   1.773   5.900  10.268  0.7657 -0.4019 -0.0592
  142SAPE   H4X15566   1.711   5.894  10.176 -1.5229 -0.8342  1.4169
  142SAPE   H4Y15567   1.844   5.815  10.264  0.9878 -0.1692 -2.4344
  142SAPE   C3515568   1.859   6.022  10.256 -0.2090  0.1489  0.4903
  142SAPE   H5X15569   1.882   6.060  10.357  0.1797  1.9288 -0.2356
  142SAPE   H5Y15570   1.810   6.106  10.200  2.0117  1.0386 -0.2106
  142SAPE   C3615571   1.993   6.000  10.170  0.4418 -0.5659  0.1311
  142SAPE   H6X15572   2.067   5.932  10.219 -1.6831 -1.4838  2.2429
  142SAPE   H6Y15573   2.036   6.101  10.151 -1.4783  0.2175 -0.2790
  142SAPE   C3715574   1.970   5.941  10.031 -0.4639 -0.1702 -0.0508
  142SAPE   H7X15575   1.902   6.012   9.980 -0.8474  0.8006  1.7512
  142SAPE   H7Y15576   1.928   5.838  10.029 -0.1173 -0.3149 -1.9856
  142SAPE   C3815577   2.102   5.943   9.946  0.5088 -0.0321 -0.7736
  142SAPE   H8X15578   2.101   5.872   9.860  0.0155 -1.1439  0.1205
  142SAPE   H8Y15579   2.185   5.917  10.016  1.1495  4.2011  0.2966
  142SAPE   C3915580   2.129   6.079   9.887 -0.2782 -0.1399 -0.2763
  142SAPE   H9X15581   2.188   6.142   9.956 -0.3511  1.5986 -1.7277
  142SAPE   H9Y15582   2.038   6.128   9.846 -0.1219  0.5227  0.1730
  142SAPE  C31015583   2.222   6.061   9.763  0.3139  0.2010 -0.1913
  142SAPE  H10X15584   2.314   6.004   9.792 -0.5696 -1.0050  0.3189
  142SAPE  H10Y15585   2.246   6.165   9.733 -0.5418  1.3679  2.7470
  142SAPE  C31115586   2.152   5.993   9.645 -0.1412  0.6457  0.1266
  142SAPE  H11X15587   2.067   6.053   9.606 -0.1920  0.9700  0.7183
  142SAPE  H11Y15588   2.107   5.895   9.669 -0.8080  0.5469 -1.4346
  142SAPE  C31215589   2.250   5.971   9.525  0.7544  0.0416 -0.8675
  142SAPE  H12X15590   2.333   5.904   9.558 -0.1001 -1.9172 -2.4259
  142SAPE  H12Y15591   2.282   6.070   9.488 -1.4545  0.8129 -0.8475
  142SAPE  C31315592   2.174   5.905   9.409  0.1932  0.6533 -0.1539
  142SAPE  H13X15593   2.071   5.946   9.402  0.3343  1.5143  2.0144
  142SAPE  H13Y15594   2.160   5.802   9.448 -0.6653  0.6924 -0.3330
  142SAPE  C31415595   2.250   5.916   9.275 -0.4062  0.3064  0.0993
  142SAPE  H14X15596   2.359   5.898   9.288 -0.7085 -1.8305  0.1067
  142SAPE  H14Y15597   2.234   6.018   9.236 -0.8381 -0.4033 -1.6807
  142SAPE  C31515598   2.204   5.831   9.160  0.0936  0.3291 -0.4672
  142SAPE  H15X15599   2.105   5.868   9.127 -0.1525 -0.2624 -0.4130
  142SAPE  H15Y15600   2.198   5.731   9.209 -1.6187  0.6764  0.0679
  142SAPE  C31615601   2.302   5.830   9.042  0.2719 -0.9072  0.4414
  142SAPE  H16X15602   2.279   5.742   8.978  3.5084 -0.6142 -1.3237
  142SAPE  H16Y15603   2.405   5.824   9.083 -0.1442 -0.3811  1.6160
  142SAPE  C31715604   2.282   5.961   8.956  0.5042  0.5277  0.7285
  142SAPE  H17X15605   2.257   6.044   9.024  0.9663  0.2994  1.1852
  142SAPE  H17Y15606   2.197   5.931   8.891 -2.6063  3.4128  3.1348
  142SAPE  C31815607   2.391   5.997   8.858 -0.0085  0.3412  0.1116
  142SAPE  H18X15608   2.385   6.105   8.835 -0.3591  0.3656  0.3120
  142SAPE  H18Y15609   2.389   5.935   8.766 -4.2620 -0.2627  0.4094
  142SAPE  H18Z15610   2.488   5.970   8.905 -0.1609 -0.8281 -0.2150
  143SAPE     N15611   4.081   6.440  10.964  0.7266 -0.2570  0.2782
  143SAPE   HN115612   4.148   6.364  10.940  0.5100 -0.2721 -0.2964
  143SAPE   HN215613   4.103   6.485  11.055 -0.6043  0.6892  0.1628
  143SAPE   HN315614   3.983   6.404  10.966  0.7179 -0.4695 -1.8141
  143SAPE   C1215615   4.091   6.545  10.857  0.1617  0.4081  0.7388
  143SAPE  H12A15616   4.035   6.634  10.892 -0.3195 -0.6112  2.7790
  143SAPE  H12B15617   4.040   6.511  10.764  0.4946  0.9794  0.3464
  143SAPE   C1115618   4.235   6.581  10.823  0.0169  0.3753  0.5140
  143SAPE  H11A15619   4.242   6.636  10.726  1.5121 -0.4641  0.1110
  143SAPE  H11B15620   4.299   6.492  10.805  1.0398  1.1071  0.3927
  143SAPE     P15621   4.294   6.812  10.905 -0.1748  0.5856 -0.2511
  143SAPE   O1315622   4.264   6.870  11.039  0.0216 -0.8252  0.8879
  143SAPE   O1415623   4.416   6.856  10.830  0.6479 -0.2494 -0.6812
  143SAPE   O1215624   4.291   6.653  10.928 -0.4556  0.5774  0.3181
  143SAPE   O1115625   4.180   6.838  10.802 -0.7998 -0.5871 -0.1323
  143SAPE    C115626   4.195   6.950  10.707  0.1536  0.0578 -0.3912
  143SAPE    HA15627   4.220   7.045  10.758  0.9097 -1.2882  1.9163
  143SAPE    HB15628   4.278   6.932  10.636 -1.9407 -1.2411 -2.6691
  143SAPE    C215629   4.068   6.976  10.622 -0.9415  0.4834  0.6793
  143SAPE    HS15630   3.992   7.010  10.695 -2.3176  2.6720 -1.5738
  143SAPE   O2115631   4.033   6.856  10.566 -0.0466  1.2862 -0.3628
  143SAPE   C2115632   3.935   6.848  10.480  0.2304 -0.2644 -1.0210
  143SAPE   O2215633   3.849   6.934  10.467  0.3842  0.1063 -0.1059
  143SAPE   C2215634   3.945   6.723  10.402  0.4459  0.1475 -0.2412
  143SAPE   H2R15635   4.040   6.730  10.346  0.2742 -0.9605 -0.7149
  143SAPE   H2S15636   3.958   6.640  10.474  0.8654 -0.1767 -0.6840
  143SAPE    C315637   4.099   7.094  10.518 -1.0322 -0.2616  0.0408
  143SAPE    HX15638   4.132   7.184  10.575 -1.2770 -0.4400  0.4702
  143SAPE    HY15639   4.005   7.126  10.469 -0.7685  0.0709 -0.2574
  143SAPE   O3115640   4.190   7.056  10.420 -0.4733  0.0597 -0.0244
  143SAPE   C3115641   4.319   7.098  10.435 -0.3430 -0.1753 -0.2725
  143SAPE   O3215642   4.356   7.184  10.513 -0.1647  0.2373  0.3340
  143SAPE   C3215643   4.403   7.041  10.320  0.1545 -0.5976 -0.3770
  143SAPE   H2X15644   4.359   6.947  10.280  2.9006 -2.6958  1.2094
  143SAPE   H2Y15645   4.509   7.025  10.348 -0.0305 -1.1298  0.0277
  143SAPE   C2315646   3.827   6.708  10.310  0.1294 -0.1717 -0.3347
  143SAPE   H3R15647   3.740   6.721  10.377 -1.5356 -3.3422 -1.6523
  143SAPE   H3S15648   3.813   6.604  10.272 -2.3016  0.5531 -1.6018
  143SAPE   C2415649   3.840   6.797  10.191 -0.1254  0.2396 -0.0437
  143SAPE   H4R15650   3.865   6.902  10.216 -0.7766  0.0851  1.4028
  143SAPE   H4S15651   3.734   6.793  10.158 -0.1972 -2.4628  0.2784
  143SAPE   C2515652   3.921   6.734  10.083 -0.0432 -0.0341 -0.1792
  143SAPE   H5R15653   3.877   6.634  10.067 -3.2911  1.2838 -0.1497
  143SAPE   C2615654   4.018   6.787  10.010  0.3575 -0.2114 -0.2835
  143SAPE   H6R15655   4.069   6.727   9.932 -0.3390 -0.6321 -0.4248
  143SAPE   C2715656   4.067   6.926  10.013  0.4993 -0.3887  0.2247
  143SAPE   H7R15657   4.123   6.944  10.108 -1.1914  1.9457  0.8667
  143SAPE   H7S15658   3.990   7.006  10.012  1.1851  0.2795 -0.2620
  143SAPE   C2815659   4.161   6.951   9.897 -0.4220 -0.2717 -0.0026
  143SAPE   H8R15660   4.270   6.964   9.906 -0.0577 -2.4619 -0.7229
  143SAPE   C2915661   4.119   6.971   9.770 -0.1769 -0.4396  0.2272
  143SAPE   H9R15662   4.195   7.002   9.698  0.3486 -1.1039  0.4923
  143SAPE  C21015663   3.970   6.972   9.727 -0.3343  0.1239  0.2972
  143SAPE  H10R15664   3.908   6.985   9.818  0.4159  2.1519  0.5785
  143SAPE  H10S15665   3.945   6.877   9.676  1.7206  0.3218 -1.2301
  143SAPE  C21115666   3.941   7.096   9.641 -0.0602 -0.2410 -0.8063
  143SAPE  H11R15667   3.981   7.193   9.673  0.9662 -1.1364  0.7606
  143SAPE  C21215668   3.864   7.100   9.535  0.4975  1.3168 -0.3337
  143SAPE  H12R15669   3.840   7.195   9.485 -1.2567  0.4971 -1.1300
  143SAPE  C21315670   3.795   6.979   9.472  0.6801  0.7893 -0.1281
  143SAPE  H13R15671   3.854   6.889   9.499  0.7939  1.9656  4.3634
  143SAPE  H13S15672   3.809   7.000   9.364  1.1986 -0.0226 -0.2262
  143SAPE  C21415673   3.653   6.959   9.509  0.1050 -0.6145  0.4582
  143SAPE  H14R15674   3.654   6.938   9.617 -0.6377 -0.0452  0.5751
  143SAPE  C21515675   3.542   6.977   9.430  0.6067  0.1828  0.6494
  143SAPE  H15R15676   3.443   6.956   9.473 -0.1053 -0.0375 -1.0268
  143SAPE  C21615677   3.537   7.017   9.278  0.4525 -0.5377  0.4073
  143SAPE  H16R15678   3.633   7.064   9.249  1.3656 -2.3580  0.2969
  143SAPE  H16S15679   3.462   7.099   9.273  1.3535  0.2483 -0.8293
  143SAPE  C21715680   3.493   6.897   9.184 -0.3500 -0.0550 -0.3007
  143SAPE  H17R15681   3.436   6.839   9.260  0.2883  0.1613  0.3634
  143SAPE  H17S15682   3.583   6.833   9.175  0.1833  0.4809  1.0235
  143SAPE  C21815683   3.433   6.942   9.054  0.1822  0.5754 -0.7837
  143SAPE  H18R15684   3.329   6.980   9.061 -0.7193 -1.8739  0.2001
  143SAPE  H18S15685   3.421   6.851   8.991 -0.3395 -0.9294  1.3928
  143SAPE  C21915686   3.530   7.027   8.970  0.1800 -0.6617 -0.6774
  143SAPE  H19R15687   3.538   7.136   8.990  1.8379 -0.9689  0.5164
  143SAPE  H19S15688   3.475   7.027   8.874 -0.5420  2.3605 -0.3827
  143SAPE  C22015689   3.671   6.962   8.957  0.4033 -0.1785 -0.3815
  143SAPE  H20R15690   3.744   7.029   8.906  1.7158 -1.1416  0.1719
  143SAPE  H20S15691   3.678   6.864   8.907  0.4338 -0.6388  0.5033
  143SAPE  H20T15692   3.724   6.937   9.052  2.1469 -1.0176 -1.5247
  143SAPE   C3315693   4.412   7.137  10.192 -0.0780  0.2290 -0.4357
  143SAPE   H3X15694   4.460   7.236  10.211  1.3648 -0.0804 -2.1798
  143SAPE   H3Y15695   4.312   7.152  10.146  0.4361 -0.9105 -2.0120
  143SAPE   C3415696   4.477   7.065  10.073 -0.0629 -0.5895 -0.0018
  143SAPE   H4X15697   4.430   6.965  10.065  0.7859 -1.2339  2.2690
  143SAPE   H4Y15698   4.583   7.051  10.104 -0.5632 -1.1337  1.5813
  143SAPE   C3515699   4.474   7.143   9.943 -0.1150 -0.2036  0.6066
  143SAPE   H5X15700   4.547   7.227   9.944  2.5292 -2.3528  0.0747
  143SAPE   H5Y15701   4.371   7.180   9.921  0.5477  1.2416 -0.1966
  143SAPE   C3615702   4.529   7.066   9.823  0.3635  0.0481  0.8258
  143SAPE   H6X15703   4.457   6.983   9.810  2.8294 -2.1824  0.5719
  143SAPE   H6Y15704   4.628   7.020   9.844 -0.2586 -2.0438 -0.5016
  143SAPE   C3715705   4.531   7.147   9.694  0.5421 -0.0638  0.5439
  143SAPE   H7X15706   4.576   7.247   9.713  0.5164  0.3684 -1.4305
  143SAPE   H7Y15707   4.424   7.164   9.667 -0.2229  1.4738  3.9281
  143SAPE   C3815708   4.594   7.080   9.570  0.3484  0.1218 -0.6181
  143SAPE   H8X15709   4.520   6.999   9.553  2.1170 -1.4204 -1.1582
  143SAPE   H8Y15710   4.694   7.040   9.594 -0.9693 -3.5740 -0.6547
  143SAPE   C3915711   4.608   7.172   9.450 -0.1432 -0.1015  0.1579
  143SAPE   H9X15712   4.664   7.265   9.474 -1.0819  0.9952 -1.6737
  143SAPE   H9Y15713   4.506   7.209   9.426 -0.3384 -1.1784 -0.7898
  143SAPE  C31015714   4.674   7.109   9.329 -0.3543 -0.3332  0.2609
  143SAPE  H10X15715   4.680   6.998   9.337  0.9330 -0.2422  0.7439
  143SAPE  H10Y15716   4.783   7.128   9.325 -0.6803  1.7188 -0.1567
  143SAPE  C31115717   4.605   7.157   9.201  0.0733 -0.1227 -0.1042
  143SAPE  H11X15718   4.511   7.100   9.186  0.0549 -0.6279  1.7192
  143SAPE  H11Y15719   4.661   7.123   9.111  0.1754 -2.8352  0.8963
  143SAPE  C31215720   4.574   7.304   9.192  0.2183  0.4505  0.0190
  143SAPE  H12X15721   4.662   7.361   9.229  0.6666 -0.2204 -0.0006
  143SAPE  H12Y15722   4.482   7.322   9.252 -0.6407 -0.9142 -0.8189
  143SAPE  C31315723   4.541   7.336   9.043  0.6511  0.3824 -0.1498
  143SAPE  H13X15724   4.456   7.273   9.009 -1.5544  0.9238  3.7588
  143SAPE  H13Y15725   4.633   7.317   8.984 -0.2205 -1.6528 -0.9415
  143SAPE  C31415726   4.495   7.485   9.014 -0.0626  0.8042 -0.8459
  143SAPE  H14X15727   4.576   7.553   9.047  0.9542 -0.7711  0.0391
  143SAPE  H14Y15728   4.407   7.504   9.080  0.5751  0.7113  0.0484
  143SAPE  C31515729   4.463   7.506   8.864 -0.0811  0.7805 -0.1383
  143SAPE  H15X15730   4.547   7.464   8.804  0.3036 -0.7007  1.3371
  143SAPE  H15Y15731   4.442   7.613   8.846  2.7864  1.1058 -2.3213
  143SAPE  C31615732   4.338   7.429   8.817  0.2010  0.2538  0.6642
  143SAPE  H16X15733   4.259   7.466   8.886  0.8922  4.4604 -0.5349
  143SAPE  H16Y15734   4.346   7.319   8.830 -0.8589  0.4364  3.9591
  143SAPE  C31715735   4.296   7.468   8.674  0.1403  0.2509  0.1502
  143SAPE  H17X15736   4.382   7.459   8.604 -0.2556 -0.7547 -0.2124
  143SAPE  H17Y15737   4.270   7.576   8.672 -2.1295 -0.2604 -1.3665
  143SAPE  C31815738   4.168   7.393   8.624  0.1697 -0.0975 -1.0357
  143SAPE  H18X15739   4.098   7.378   8.709 -0.2249 -0.0800 -1.3535
  143SAPE  H18Y15740   4.188   7.292   8.583 -0.5249 -0.5483 -0.2925
  143SAPE  H18Z15741   4.107   7.461   8.560 -0.7100  1.5585  1.4061
  144SAPE     N15742   0.446   6.156  11.031 -0.1278 -0.2278 -0.4108
  144SAPE   HN115743   0.471   6.207  11.118 -1.7794 -1.5253  0.8816
  144SAPE   HN215744   0.476   6.057  11.035 -1.5038 -0.6543 -0.2816
  144SAPE   HN315745   0.489   6.204  10.949  1.3904  1.3069  1.1962
  144SAPE   C1215746   0.297   6.163  11.022  0.6241  0.2903  0.5830
  144SAPE  H12A15747   0.251   6.126  11.116 -4.0347 -0.8575 -1.8389
  144SAPE  H12B15748   0.265   6.088  10.946  0.8292  0.3946  0.3907
  144SAPE   C1115749   0.254   6.306  10.989 -0.0235 -0.0423  0.1698
  144SAPE  H11A15750   0.333   6.351  10.925  0.6399 -1.3047  0.0825
  144SAPE  H11B15751   0.255   6.349  11.092  1.1768 -4.1149  2.0657
  144SAPE     P15752   0.098   6.269  10.787  0.1023  0.3661 -0.2865
  144SAPE   O1315753   0.235   6.237  10.737  0.0965  0.5364  0.1498
  144SAPE   O1415754   0.001   6.154  10.768  0.0179 -0.2233 -0.3920
  144SAPE   O1215755   0.119   6.295  10.940  0.5167  0.1849  0.0237
  144SAPE   O1115756   0.052   6.399  10.719 -0.3980 -0.7611 -0.3058
  144SAPE    C115757  -0.055   6.409  10.628 -0.3434 -0.7613  0.1857
  144SAPE    HA15758  -0.152   6.366  10.659  0.0208  0.1169  2.8137
  144SAPE    HB15759  -0.057   6.519  10.607  0.3472 -0.5972  0.9213
  144SAPE    C215760  -0.024   6.342  10.492  0.6548 -0.3525  0.0624
  144SAPE    HS15761  -0.027   6.233  10.516 -0.0936 -0.4032 -0.2535
  144SAPE   O2115762   0.100   6.387  10.434  0.0402 -0.2099 -0.1300
  144SAPE   C2115763   0.184   6.292  10.403  0.0988 -0.0584 -0.0623
  144SAPE   O2215764   0.171   6.171  10.413  0.4184 -0.1371  0.4231
  144SAPE   C2215765   0.305   6.352  10.350  0.2221 -0.0338 -0.2013
  144SAPE   H2R15766   0.297   6.462  10.335 -0.9899  0.0554  0.9362
  144SAPE   H2S15767   0.385   6.344  10.428 -1.5119  1.6938  1.8786
  144SAPE    C315768  -0.137   6.357  10.387 -0.3340  0.6197  0.0874
  144SAPE    HX15769  -0.155   6.464  10.362  2.3440  1.2998  0.7838
  144SAPE    HY15770  -0.227   6.331  10.446 -0.3295 -0.1378 -0.2393
  144SAPE   O3115771  -0.115   6.281  10.268 -0.1427  0.1451 -0.1692
  144SAPE   C3115772  -0.119   6.151  10.279 -0.9085 -0.4414 -0.5197
  144SAPE   O3215773  -0.152   6.089  10.378 -0.1187 -0.5951  0.5383
  144SAPE   C3215774  -0.083   6.084  10.145  0.5881 -0.1576 -0.8172
  144SAPE   H2X15775   0.016   6.120  10.109  0.9509 -0.3069 -0.0108
  144SAPE   H2Y15776  -0.160   6.099  10.067  0.8721 -3.2284 -1.8275
  144SAPE   C2315777   0.349   6.284  10.214 -0.4271 -0.1948 -0.2429
  144SAPE   H3R15778   0.291   6.328  10.130  1.1298  0.0138 -1.2449
  144SAPE   H3S15779   0.348   6.173  10.218  0.8980 -0.2237 -0.2792
  144SAPE   C2415780   0.503   6.311  10.189 -0.0199 -0.3899  0.3024
  144SAPE   H4R15781   0.566   6.260  10.265 -0.3419 -0.7533  0.3290
  144SAPE   H4S15782   0.522   6.418  10.211  0.3655 -0.5099  0.5513
  144SAPE   C2515783   0.549   6.277  10.047  0.4879  0.7278 -0.1556
  144SAPE   H5R15784   0.531   6.352   9.969  0.9997  1.3949  0.3499
  144SAPE   C2615785   0.605   6.165   9.999  0.4692  0.1278  0.2496
  144SAPE   H6R15786   0.618   6.156   9.890 -0.8934  2.6304 -0.1834
  144SAPE   C2715787   0.625   6.041  10.083 -0.4394  1.1487  0.2072
  144SAPE   H7R15788   0.619   6.067  10.190  0.5365  0.3233  0.4809
  144SAPE   H7S15789   0.728   6.002  10.066 -0.6487  1.3703 -1.8913
  144SAPE   C2815790   0.523   5.938  10.050  0.2030  0.4933  0.3460
  144SAPE   H8R15791   0.440   5.937  10.122 -0.7823  2.7033 -0.6814
  144SAPE   C2915792   0.541   5.833   9.959  0.9321 -0.0604  0.3451
  144SAPE   H9R15793   0.459   5.760   9.948  0.9619 -0.0533  0.0728
  144SAPE  C21015794   0.657   5.803   9.875 -0.4037 -0.0578  0.2596
  144SAPE  H10R15795   0.738   5.880   9.883  0.8059 -1.2057 -0.4376
  144SAPE  H10S15796   0.632   5.809   9.766  0.8244  0.2344 -0.0262
  144SAPE  C21115797   0.713   5.663   9.903  0.3759 -0.2411 -0.6647
  144SAPE  H11R15798   0.692   5.621  10.002 -0.2840 -1.4348 -1.2880
  144SAPE  C21215799   0.786   5.590   9.824  0.3593 -0.5740  0.6719
  144SAPE  H12R15800   0.822   5.489   9.852 -1.5267 -1.2152  0.9412
  144SAPE  C21315801   0.847   5.640   9.695  1.2718 -0.6855 -1.1643
  144SAPE  H13R15802   0.847   5.751   9.685  1.5934 -0.6358 -0.6445
  144SAPE  H13S15803   0.785   5.612   9.607  0.4013 -1.7043 -0.2491
  144SAPE  C21415804   0.980   5.571   9.660 -0.1054 -0.2567 -0.9246
  144SAPE  H14R15805   0.964   5.474   9.611 -1.6348 -0.4930 -0.0359
  144SAPE  C21515806   1.103   5.621   9.688  0.6678  0.2208 -0.7832
  144SAPE  H15R15807   1.200   5.571   9.675  1.0268  0.4047  0.9608
  144SAPE  C21615808   1.118   5.757   9.748  0.3557  0.0547  0.1006
  144SAPE  H16R15809   1.038   5.777   9.822  1.2339 -0.1624  1.1404
  144SAPE  H16S15810   1.125   5.838   9.672  2.8414  2.9028  3.0404
  144SAPE  C21715811   1.237   5.771   9.840  0.0202  0.2708  0.7020
  144SAPE  H17R15812   1.324   5.727   9.787 -0.5245  1.3326 -1.1374
  144SAPE  H17S15813   1.207   5.706   9.925 -1.7231 -0.8565 -0.7227
  144SAPE  C21815814   1.278   5.905   9.884  0.2705 -0.7901 -0.3733
  144SAPE  H18R15815   1.204   5.957   9.948  2.3449 -3.1066  4.3963
  144SAPE  H18S15816   1.298   5.969   9.796  0.4301 -1.3369 -0.7414
  144SAPE  C21915817   1.407   5.891   9.966 -0.3028  0.2349 -0.4317
  144SAPE  H19R15818   1.468   5.848   9.883 -1.0237  1.8607 -1.8818
  144SAPE  H19S15819   1.391   5.822  10.051 -0.8779 -0.0532 -0.7602
  144SAPE  C22015820   1.470   6.020  10.022 -0.5525 -0.6944  0.7371
  144SAPE  H20R15821   1.419   6.055  10.115  0.2650  2.8622 -0.0072
  144SAPE  H20S15822   1.466   6.105   9.951 -0.9061 -3.0957 -2.3108
  144SAPE  H20T15823   1.578   6.002  10.044 -0.0195  1.8957  0.5235
  144SAPE   C3315824  -0.040   5.932  10.161 -0.2447  0.0177  0.2330
  144SAPE   H3X15825  -0.090   5.886  10.249  1.3279  0.3807  1.3578
  144SAPE   H3Y15826   0.068   5.924  10.187  0.2309  1.1037 -1.2569
  144SAPE   C3415827  -0.083   5.862  10.031 -0.2476 -0.0287 -0.2415
  144SAPE   H4X15828  -0.193   5.868  10.037 -0.2428 -0.9276  1.2535
  144SAPE   H4Y15829  -0.052   5.756  10.044 -0.5612 -0.0629  0.2589
  144SAPE   C3515830  -0.026   5.925   9.898 -0.1970  0.4012  0.2023
  144SAPE   H5X15831   0.021   5.845   9.837 -0.5891  0.7022 -0.4986
  144SAPE   H5Y15832   0.051   6.000   9.926 -1.6070  2.0045 -0.0407
  144SAPE   C3615833  -0.142   5.976   9.810 -0.7620  0.0256 -0.0174
  144SAPE   H6X15834  -0.183   6.065   9.862 -1.4794  0.4111 -1.1941
  144SAPE   H6Y15835  -0.219   5.897   9.802  0.6943 -2.0630  3.8272
  144SAPE   C3715836  -0.097   6.003   9.667  0.2911 -0.3971  0.1706
  144SAPE   H7X15837  -0.022   6.081   9.645 -0.3867  0.3594  0.4948
  144SAPE   H7Y15838  -0.190   6.033   9.612 -1.0694 -2.5095  1.1606
  144SAPE   C3815839  -0.073   5.868   9.590  0.1363 -0.1516 -0.0469
  144SAPE   H8X15840  -0.136   5.781   9.621 -0.3811  0.0220 -0.5806
  144SAPE   H8Y15841   0.034   5.845   9.605  0.5213  0.7311 -1.3152
  144SAPE   C3915842  -0.075   5.884   9.440  0.1075  0.6974  0.0223
  144SAPE   H9X15843  -0.052   5.989   9.410 -0.2561  0.5659 -0.7527
  144SAPE   H9Y15844  -0.181   5.860   9.413  0.6397  0.6077 -2.1770
  144SAPE  C31015845   0.002   5.780   9.367 -0.0756 -0.0555 -0.4309
  144SAPE  H10X15846  -0.053   5.684   9.370  0.9413 -0.6506 -0.2753
  144SAPE  H10Y15847   0.102   5.778   9.417  1.0089 -1.3774 -2.5073
  144SAPE  C31115848   0.022   5.829   9.220 -0.1920  0.4145 -0.0518
  144SAPE  H11X15849  -0.003   5.938   9.221 -1.9358  0.0418  0.5188
  144SAPE  H11Y15850  -0.044   5.775   9.149 -0.4713 -0.2446  0.6890
  144SAPE  C31215851   0.167   5.838   9.171  0.2472 -0.8190 -0.6720
  144SAPE  H12X15852   0.215   5.738   9.178  0.0489 -0.8657  0.2893
  144SAPE  H12Y15853   0.226   5.911   9.231  0.4311 -0.5863 -1.1354
  144SAPE  C31315854   0.186   5.897   9.031 -0.5725  0.0232 -0.1469
  144SAPE  H13X15855   0.294   5.916   9.017 -0.4427  0.6920  1.5867
  144SAPE  H13Y15856   0.135   5.995   9.020  3.2834  2.2207 -0.1261
  144SAPE  C31415857   0.161   5.787   8.925 -0.6827 -0.6884  0.4309
  144SAPE  H14X15858   0.052   5.781   8.909 -0.3844 -1.2911 -1.7554
  144SAPE  H14Y15859   0.206   5.691   8.956  1.6641  0.4347  0.7548
  144SAPE  C31515860   0.217   5.820   8.783 -0.0682  0.3399  0.1344
  144SAPE  H15X15861   0.327   5.832   8.796 -0.0472 -0.8537  1.1855
  144SAPE  H15Y15862   0.174   5.919   8.758  1.7436  1.1398 -0.0274
  144SAPE  C31615863   0.189   5.719   8.672 -0.1354 -0.2383 -0.4840
  144SAPE  H16X15864   0.228   5.759   8.576 -0.8017  2.8718  0.4419
  144SAPE  H16Y15865   0.079   5.715   8.662 -0.2120 -0.4865  0.4135
  144SAPE  C31715866   0.244   5.581   8.701  0.0560 -0.0856 -0.7660
  144SAPE  H17X15867   0.171   5.517   8.756 -0.9612  0.8240 -1.0135
  144SAPE  H17Y15868   0.343   5.597   8.748 -1.1895  3.4208  0.9807
  144SAPE  C31815869   0.270   5.506   8.572 -0.0931 -0.5301 -0.6087
  144SAPE  H18X15870   0.339   5.553   8.499 -0.6129  1.1478 -0.0693
  144SAPE  H18Y15871   0.174   5.484   8.520 -1.5165  1.4641  0.9985
  144SAPE  H18Z15872   0.331   5.418   8.602  0.0182  0.2874  1.7939
  145SAPE     N15873   3.797   0.258  10.955  0.2022  0.2473 -0.3774
  145SAPE   HN115874   3.793   0.229  10.855 -0.0735  1.8758 -0.8727
  145SAPE   HN215875   3.717   0.227  11.013  0.7899  2.5705  1.8906
  145SAPE   HN315876   3.793   0.362  10.959 -2.1134  0.1949 -0.3733
  145SAPE   C1215877   3.927   0.197  11.020  0.3171 -0.3241  0.4220
  145SAPE  H12A15878   3.916   0.234  11.124 -2.4944  1.5752 -0.4229
  145SAPE  H12B15879   4.017   0.240  10.972  0.0409  0.5160  0.6444
  145SAPE   C1115880   3.917   0.043  11.009  0.1228 -0.6053  0.7117
  145SAPE  H11A15881   4.001   0.002  11.069 -0.2074  1.6176  2.8079
  145SAPE  H11B15882   3.937   0.014  10.903 -0.7649 -0.6135  0.5364
  145SAPE     P15883   3.722  -0.133  11.015 -0.3443  0.3981 -0.4185
  145SAPE   O1315884   3.804  -0.250  11.064  0.0393  0.0009  0.1428
  145SAPE   O1415885   3.577  -0.133  11.053 -0.8691  0.2010  0.4830
  145SAPE   O1215886   3.788   0.002  11.067  0.2237 -0.2984  0.2723
  145SAPE   O1115887   3.736  -0.124  10.861  0.3043  0.2858 -0.2090
  145SAPE    C115888   3.677  -0.020  10.776 -0.1823 -0.5064 -0.4006
  145SAPE    HA15889   3.639   0.065  10.837 -1.2030 -1.4089  0.2673
  145SAPE    HB15890   3.757   0.005  10.703 -0.6545 -0.5056 -0.9235
  145SAPE    C215891   3.553  -0.069  10.703  0.2603  0.3579 -0.3629
  145SAPE    HS15892   3.483  -0.103  10.782  0.7332 -2.0085 -0.8815
  145SAPE   O2115893   3.581  -0.168  10.614  0.3427  0.8606 -0.3302
  145SAPE   C2115894   3.493  -0.258  10.565  0.1039 -0.0566  0.1202
  145SAPE   O2215895   3.391  -0.297  10.622 -0.1159 -0.0725 -0.2011
  145SAPE   C2215896   3.538  -0.292  10.424 -0.2346  0.6432  0.4095
  145SAPE   H2R15897   3.533  -0.202  10.358  0.7866  0.9442  0.7210
  145SAPE   H2S15898   3.644  -0.319  10.441  0.2421  1.6366 -0.8414
  145SAPE    C315899   3.481   0.051  10.633 -0.6839  0.1923  0.2808
  145SAPE    HX15900   3.488   0.135  10.706  1.0387 -0.5832  1.0760
  145SAPE    HY15901   3.376   0.020  10.618 -0.0045 -1.3606 -1.5929
  145SAPE   O3115902   3.549   0.095  10.517 -0.3812  0.2247  0.5489
  145SAPE   C3115903   3.487   0.092  10.402 -0.0267  0.2786  0.0597
  145SAPE   O3215904   3.384   0.031  10.376 -0.0860  0.2860  0.1132
  145SAPE   C3215905   3.572   0.177  10.305  0.8004  0.2353 -0.4965
  145SAPE   H2X15906   3.667   0.119  10.300 -1.5775 -4.5713  2.1776
  145SAPE   H2Y15907   3.589   0.277  10.349  1.6090  0.3723 -1.1068
  145SAPE   C2315908   3.473  -0.429  10.372  0.1062 -0.1348 -0.3659
  145SAPE   H3R15909   3.365  -0.433  10.398  0.2900 -1.0945  0.3386
  145SAPE   H3S15910   3.518  -0.506  10.439 -1.5747 -1.1949 -0.4010
  145SAPE   C2415911   3.494  -0.465  10.226 -0.5564  0.5426  1.0203
  145SAPE   H4R15912   3.440  -0.395  10.158 -1.2781  0.5951  1.6406
  145SAPE   H4S15913   3.448  -0.566  10.221 -0.4752  0.5679 -0.9304
  145SAPE   C2515914   3.644  -0.487  10.187  0.0017  0.7371  0.3119
  145SAPE   H5R15915   3.712  -0.515  10.268  2.8504  0.7934 -1.9002
  145SAPE   C2615916   3.700  -0.464  10.062  0.4005  0.5664 -0.0893
  145SAPE   H6R15917   3.804  -0.496  10.050  0.7906  1.5668  0.5649
  145SAPE   C2715918   3.638  -0.412   9.930  0.6049  0.1479 -0.4124
  145SAPE   H7R15919   3.528  -0.425   9.942  0.0641  0.6726 -3.6490
  145SAPE   H7S15920   3.662  -0.475   9.841 -0.1631 -0.9675  0.1524
  145SAPE   C2815921   3.648  -0.259   9.911 -0.3394 -0.5283  0.3548
  145SAPE   H8R15922   3.596  -0.207   9.992  1.3037  1.6571  0.0972
  145SAPE   C2915923   3.715  -0.189   9.810 -0.0489 -0.1036 -0.3912
  145SAPE   H9R15924   3.707  -0.080   9.805  2.0439  0.2322  1.5321
  145SAPE  C21015925   3.788  -0.251   9.686 -0.1194  0.4637 -0.1774
  145SAPE  H10R15926   3.768  -0.187   9.598 -2.3876  1.2539  0.8401
  145SAPE  H10S15927   3.748  -0.349   9.651  1.2883 -0.8516  1.6890
  145SAPE  C21115928   3.933  -0.265   9.714  0.1690 -0.0049 -0.2737
  145SAPE  H11R15929   3.968  -0.251   9.817  1.1885  0.6151 -0.6869
  145SAPE  C21215930   4.018  -0.292   9.620 -0.5745  0.6457  0.4638
  145SAPE  H12R15931   4.126  -0.288   9.642 -0.1891 -1.7032 -0.6879
  145SAPE  C21315932   3.988  -0.316   9.474 -0.5810  0.5750  0.7089
  145SAPE  H13R15933   3.889  -0.366   9.475 -0.8768  1.1499  1.0786
  145SAPE  H13S15934   4.059  -0.389   9.430  0.3719  0.6964  1.9860
  145SAPE  C21415935   3.992  -0.183   9.397  0.2088  0.3958 -0.5404
  145SAPE  H14R15936   4.012  -0.100   9.465 -1.5723 -2.0782  3.3421
  145SAPE  C21515937   3.961  -0.175   9.267 -0.4587  0.4163  0.7138
  145SAPE  H15R15938   3.943  -0.073   9.232  1.3691  0.6020  0.1979
  145SAPE  C21615939   3.927  -0.284   9.167  0.0571  0.3566  0.8755
  145SAPE  H16R15940   3.816  -0.291   9.175 -0.2611  1.9632 -1.3289
  145SAPE  H16S15941   3.967  -0.385   9.190  2.1669  0.8130 -0.5788
  145SAPE  C21715942   3.975  -0.253   9.022 -0.0938  0.1163  0.5401
  145SAPE  H17R15943   3.983  -0.340   8.953 -0.2156  2.1029 -2.1280
  145SAPE  H17S15944   4.080  -0.216   9.018  0.1048 -0.4545  0.4532
  145SAPE  C21815945   3.895  -0.147   8.947 -0.0080  0.3749 -0.0513
  145SAPE  H18R15946   3.859  -0.073   9.022 -2.3428 -2.8559  2.3416
  145SAPE  H18S15947   3.798  -0.193   8.917  0.7283 -1.6809  0.5624
  145SAPE  C21915948   3.964  -0.092   8.829 -0.5490  0.9590  0.3518
  145SAPE  H19R15949   4.041  -0.016   8.854  0.4378 -0.3407  1.4048
  145SAPE  H19S15950   3.881  -0.046   8.771 -1.0850 -0.3971 -0.0067
  145SAPE  C22015951   4.036  -0.190   8.737  0.9859 -0.7539 -0.0531
  145SAPE  H20R15952   4.128  -0.229   8.784  1.6451 -0.4878 -1.0796
  145SAPE  H20S15953   4.048  -0.135   8.641  1.3097  0.1343  0.4854
  145SAPE  H20T15954   3.965  -0.273   8.716 -1.7614  1.7199 -1.2865
  145SAPE   C3315955   3.501   0.187  10.166 -0.4755  0.9898  0.3165
  145SAPE   H3X15956   3.429   0.272  10.174 -2.4565 -0.5073 -0.7196
  145SAPE   H3Y15957   3.446   0.095  10.139  0.4391 -0.0298  1.8238
  145SAPE   C3415958   3.599   0.228  10.055  0.6632 -0.2897  0.5707
  145SAPE   H4X15959   3.692   0.167  10.060  1.3781  0.4970 -1.7564
  145SAPE   H4Y15960   3.634   0.324  10.097 -0.7538 -0.4034  2.1208
  145SAPE   C3515961   3.553   0.236   9.913  0.8515  0.2805  0.6034
  145SAPE   H5X15962   3.514   0.142   9.867 -1.9147  2.3153 -1.6393
  145SAPE   H5Y15963   3.640   0.278   9.858  0.2592  2.2134  1.0446
  145SAPE   C3615964   3.432   0.339   9.889 -0.7074 -0.3137 -0.8527
  145SAPE   H6X15965   3.457   0.434   9.940 -0.1480 -1.0332  0.2713
  145SAPE   H6Y15966   3.341   0.295   9.934 -0.5890  0.2363 -0.0465
  145SAPE   C3715967   3.401   0.375   9.742 -0.2070 -1.0471  0.5822
  145SAPE   H7X15968   3.327   0.456   9.728  0.7069 -0.3291 -0.2427
  145SAPE   H7Y15969   3.372   0.289   9.678  0.2246 -0.1850 -0.8166
  145SAPE   C3815970   3.515   0.438   9.665 -0.3089  0.0630  0.0700
  145SAPE   H8X15971   3.607   0.375   9.662  1.4232  2.4094  0.8247
  145SAPE   H8Y15972   3.542   0.529   9.722 -0.8167 -0.2905  0.8835
  145SAPE   C3915973   3.488   0.485   9.528  0.4247  0.1800  0.3199
  145SAPE   H9X15974   3.391   0.538   9.527  0.7606  0.8023  0.2041
  145SAPE   H9Y15975   3.461   0.400   9.461  2.3071 -1.6271  1.7379
  145SAPE  C31015976   3.603   0.571   9.479  0.2434  0.5793 -0.3787
  145SAPE  H10X15977   3.692   0.505   9.471  0.2348  0.2231  1.9348
  145SAPE  H10Y15978   3.615   0.648   9.559 -0.7143 -0.6691  1.0133
  145SAPE  C31115979   3.565   0.646   9.349  0.7801  0.3777 -0.8017
  145SAPE  H11X15980   3.634   0.733   9.337  0.8840  0.1687 -1.8584
  145SAPE  H11Y15981   3.458   0.671   9.362  0.1419 -1.5244 -1.9725
  145SAPE  C31215982   3.599   0.552   9.229 -0.7925 -0.2326 -0.0684
  145SAPE  H12X15983   3.562   0.450   9.252 -1.6980 -0.1455 -1.0800
  145SAPE  H12Y15984   3.710   0.556   9.231 -0.7958  0.3194  2.0344
  145SAPE  C31315985   3.562   0.623   9.103  0.1955  0.5725  0.0288
  145SAPE  H13X15986   3.476   0.690   9.125  0.1583  0.7499 -0.6128
  145SAPE  H13Y15987   3.528   0.542   9.034 -0.4337 -2.1539  3.2875
  145SAPE  C31415988   3.667   0.711   9.041 -0.3897 -0.5872  0.8680
  145SAPE  H14X15989   3.748   0.635   9.039 -0.3494 -0.5469  1.0144
  145SAPE  H14Y15990   3.689   0.794   9.111  0.2691 -1.1191  1.3029
  145SAPE  C31515991   3.621   0.789   8.914 -0.0632 -0.1984  0.0788
  145SAPE  H15X15992   3.566   0.882   8.940  2.4056  1.6456 -0.8968
  145SAPE  H15Y15993   3.552   0.727   8.853  0.2734  1.3469 -1.9835
  145SAPE  C31615994   3.742   0.816   8.819  0.3170  0.9480  0.0250
  145SAPE  H16X15995   3.817   0.875   8.874 -0.3372  0.8319  1.0657
  145SAPE  H16Y15996   3.704   0.879   8.736  2.7853  2.2276 -0.2056
  145SAPE  C31715997   3.807   0.684   8.768  0.2270 -0.2277  0.4813
  145SAPE  H17X15998   3.857   0.630   8.852  0.4348  1.1796  1.2826
  145SAPE  H17Y15999   3.892   0.717   8.704  0.1957 -0.9153  0.0781
  145SAPE  C31816000   3.712   0.596   8.679 -0.6471 -0.4948 -0.3558
  145SAPE  H18X16001   3.781   0.543   8.609 -0.4781  1.4758 -1.7512
  145SAPE  H18Y16002   3.645   0.665   8.624  0.5402  0.5929 -0.4834
  145SAPE  H18Z16003   3.662   0.522   8.746  1.6701  1.5545  4.0920
  146SAPE     N16004   0.378   6.021  10.623 -0.3294  0.3581  0.6547
  146SAPE   HN116005   0.339   5.940  10.675 -1.2580  0.3830  0.0035
  146SAPE   HN216006   0.329   6.110  10.647 -2.4732 -0.8072  0.8451
  146SAPE   HN316007   0.358   5.996  10.524  0.3895  0.2730  0.5252
  146SAPE   C1216008   0.529   6.016  10.634 -0.2997 -0.3103 -0.6701
  146SAPE  H12A16009   0.556   5.917  10.591  1.0588 -0.4688  0.5024
  146SAPE  H12B16010   0.550   6.012  10.743 -1.9882 -0.4412 -0.3138
  146SAPE   C1116011   0.581   6.139  10.554  0.2379 -0.4136 -1.6123
  146SAPE  H11A16012   0.540   6.124  10.452 -2.1257  2.1145 -1.1409
  146SAPE  H11B16013   0.692   6.146  10.558  0.1647  3.2273 -2.7961
  146SAPE     P16014   0.598   6.339  10.725  0.2024 -0.1441  0.8229
  146SAPE   O1316015   0.521   6.462  10.755 -0.1764 -0.6218 -0.1694
  146SAPE   O1416016   0.615   6.246  10.836 -0.2571  0.0211 -0.4021
  146SAPE   O1216017   0.528   6.265  10.607  0.2446 -0.5461  0.6235
  146SAPE   O1116018   0.735   6.371  10.659  0.0896  0.7248 -0.2243
  146SAPE    C116019   0.827   6.470  10.650 -0.2227 -0.7156 -0.0291
  146SAPE    HA16020   0.836   6.517  10.750 -0.8604 -2.6823  1.0138
  146SAPE    HB16021   0.928   6.432  10.623  1.5014  2.5999  1.2220
  146SAPE    C216022   0.782   6.574  10.542 -0.5009  0.0117  0.8613
  146SAPE    HS16023   0.681   6.605  10.577  0.3898  2.7707  1.2430
  146SAPE   O2116024   0.788   6.518  10.415  0.0291 -0.5049 -0.0922
  146SAPE   C2116025   0.733   6.588  10.315  0.6610 -0.3692  0.5333
  146SAPE   O2216026   0.653   6.678  10.335  0.5625 -0.5011 -0.0585
  146SAPE   C2216027   0.803   6.561  10.181  0.0582  0.1135  0.3431
  146SAPE   H2R16028   0.899   6.509  10.199  0.1054  0.3815  0.8727
  146SAPE   H2S16029   0.732   6.492  10.129  0.5788 -0.7313  0.7317
  146SAPE    C316030   0.875   6.704  10.540 -0.9162 -0.4361  0.1675
  146SAPE    HX16031   0.879   6.738  10.645 -1.3402 -0.5056  0.2101
  146SAPE    HY16032   0.824   6.780  10.477  0.6371 -0.0436 -0.6640
  146SAPE   O3116033   0.998   6.670  10.471 -0.2003  0.1999 -0.5091
  146SAPE   C3116034   1.103   6.635  10.542 -0.1072 -0.6791  0.6744
  146SAPE   O3216035   1.110   6.625  10.664  0.5160  0.6813  0.3711
  146SAPE   C3216036   1.228   6.613  10.450  0.0890 -0.2499  0.8056
  146SAPE   H2X16037   1.307   6.556  10.504 -0.2955  0.5663  2.2763
  146SAPE   H2Y16038   1.256   6.718  10.428 -0.9820 -0.4453 -1.9157
  146SAPE   C2316039   0.831   6.682  10.101 -0.7555 -0.7207  1.0587
  146SAPE   H3R16040   0.918   6.737  10.141  0.7594 -1.6201 -0.8132
  146SAPE   H3S16041   0.747   6.755  10.102  0.0702  0.2385  2.1012
  146SAPE   C2416042   0.874   6.658   9.953  0.1999  0.2104 -0.4674
  146SAPE   H4R16043   0.948   6.576   9.941  2.2725  1.8250  0.5415
  146SAPE   H4S16044   0.916   6.754   9.918  1.6929 -0.9293 -1.9633
  146SAPE   C2516045   0.744   6.635   9.879  0.6113  0.1846 -0.1586
  146SAPE   H5R16046   0.664   6.573   9.923 -1.9489  3.0939 -0.3312
  146SAPE   C2616047   0.722   6.694   9.762 -0.2235  0.3926 -0.7060
  146SAPE   H6R16048   0.624   6.677   9.716  0.0722 -6.2063  0.0719
  146SAPE   C2716049   0.819   6.767   9.683 -0.1926  0.2061  0.7564
  146SAPE   H7R16050   0.921   6.727   9.700 -1.5126 -3.5421  0.7852
  146SAPE   H7S16051   0.800   6.871   9.717  2.2010  0.5762  1.1292
  146SAPE   C2816052   0.790   6.779   9.528  0.1809 -0.9265 -0.0076
  146SAPE   H8R16053   0.747   6.876   9.498  1.2275 -0.2767  0.5282
  146SAPE   C2916054   0.814   6.685   9.432  1.0678 -0.1991 -0.6083
  146SAPE   H9R16055   0.786   6.708   9.329 -0.2232 -0.8198 -0.4061
  146SAPE  C21016056   0.881   6.552   9.460 -0.0732  0.0325  0.0306
  146SAPE  H10R16057   0.854   6.511   9.560 -0.7816  2.1329  0.7706
  146SAPE  H10S16058   0.986   6.577   9.484  0.1374 -1.8514  1.2835
  146SAPE  C21116059   0.861   6.448   9.349  0.3277  0.2790 -0.5543
  146SAPE  H11R16060   0.781   6.374   9.363 -0.4046  1.5170  2.9078
  146SAPE  C21216061   0.945   6.449   9.243 -0.3842  0.0456 -0.1348
  146SAPE  H12R16062   0.936   6.369   9.167 -2.1004 -0.8388  0.9204
  146SAPE  C21316063   1.063   6.534   9.220 -0.1186 -0.0188  0.0282
  146SAPE  H13R16064   1.152   6.478   9.256 -0.1536 -0.1334 -0.0626
  146SAPE  H13S16065   1.068   6.624   9.285  0.4918  0.2086 -0.3262
  146SAPE  C21416066   1.081   6.568   9.071  0.0202 -0.3552  0.2584
  146SAPE  H14R16067   1.177   6.536   9.027 -0.4895  0.9237 -1.9707
  146SAPE  C21516068   0.991   6.627   8.985 -0.4759 -0.4775 -0.0222
  146SAPE  H15R16069   1.016   6.624   8.878 -0.1442  1.3754 -0.0208
  146SAPE  C21616070   0.854   6.674   9.030  0.7484 -0.0221  0.3935
  146SAPE  H16R16071   0.838   6.671   9.140  0.9736  0.5821  0.4480
  146SAPE  H16S16072   0.783   6.610   8.974  2.5847  0.4695 -2.7019
  146SAPE  C21716073   0.842   6.822   8.998 -0.3600 -0.0336 -0.5004
  146SAPE  H17R16074   0.741   6.862   9.024  0.1209  0.5200  0.6076
  146SAPE  H17S16075   0.852   6.847   8.891 -3.1913 -1.0689 -1.0983
  146SAPE  C21816076   0.940   6.906   9.076  0.6471 -0.8010 -0.0298
  146SAPE  H18R16077   1.043   6.876   9.046  0.4378 -1.6804  0.1282
  146SAPE  H18S16078   0.929   6.862   9.177 -3.7812 -0.5985 -0.2160
  146SAPE  C21916079   0.906   7.053   9.086 -0.4280 -0.6485 -0.5402
  146SAPE  H19R16080   0.992   7.104   9.135 -0.1393 -0.1627 -1.5216
  146SAPE  H19S16081   0.813   7.063   9.145  0.1529 -1.1881  0.5024
  146SAPE  C22016082   0.881   7.128   8.958 -0.7668  0.5146  0.3224
  146SAPE  H20R16083   0.853   7.234   8.976  0.0119  0.9031 -0.6405
  146SAPE  H20S16084   0.800   7.091   8.892  0.5936 -0.3347 -0.9504
  146SAPE  H20T16085   0.964   7.130   8.885  0.7652 -0.4631  1.9453
  146SAPE   C3316086   1.189   6.540  10.313 -0.2718 -0.2888 -0.0108
  146SAPE   H3X16087   1.103   6.597  10.271 -2.0987 -1.7813  1.5633
  146SAPE   H3Y16088   1.149   6.440  10.337 -1.2249 -0.3927 -1.8549
  146SAPE   C3416089   1.300   6.556  10.208 -0.3317 -0.4273  0.0476
  146SAPE   H4X16090   1.403   6.535  10.245 -0.1373 -0.8190 -0.7084
  146SAPE   H4Y16091   1.296   6.664  10.181  0.5195 -0.1100  1.1147
  146SAPE   C3516092   1.267   6.477  10.075  0.0369  0.2477 -0.1981
  146SAPE   H5X16093   1.162   6.492  10.040 -0.8906 -0.6120  2.0305
  146SAPE   H5Y16094   1.284   6.369  10.097 -0.3012 -0.4649 -3.0447
  146SAPE   C3616095   1.359   6.536   9.973 -0.3292 -0.5309 -0.1539
  146SAPE   H6X16096   1.465   6.534  10.005 -0.6190 -0.1235  0.8746
  146SAPE   H6Y16097   1.336   6.642   9.950 -0.6294 -0.5276  0.1590
  146SAPE   C3716098   1.341   6.464   9.839 -0.2040 -0.7850 -0.4344
  146SAPE   H7X16099   1.233   6.471   9.812 -0.6984  3.1592  1.8749
  146SAPE   H7Y16100   1.375   6.359   9.848  3.3937  0.1604 -1.4814
  146SAPE   C3816101   1.425   6.525   9.727  0.3582  0.4468 -0.5403
  146SAPE   H8X16102   1.524   6.549   9.772  0.7576 -0.9919 -0.6179
  146SAPE   H8Y16103   1.374   6.619   9.695 -0.2268  0.5708  0.6911
  146SAPE   C3916104   1.443   6.424   9.613 -0.2464  0.5631  0.1744
  146SAPE   H9X16105   1.345   6.377   9.590  0.1369  0.3560 -1.0920
  146SAPE   H9Y16106   1.508   6.343   9.653 -1.7133  0.2617  2.0929
  146SAPE  C31016107   1.505   6.478   9.483 -0.2391  0.2750  0.0013
  146SAPE  H10X16108   1.612   6.497   9.507 -0.1105 -0.4605  0.0406
  146SAPE  H10Y16109   1.459   6.578   9.471  1.1079  0.8016 -1.0547
  146SAPE  C31116110   1.478   6.389   9.356 -0.2098 -0.0011  0.8956
  146SAPE  H11X16111   1.371   6.366   9.338  0.8190 -3.4958 -1.9194
  146SAPE  H11Y16112   1.532   6.292   9.362  1.0453  0.5657 -0.6197
  146SAPE  C31216113   1.529   6.457   9.231  0.1340 -0.0703 -0.1426
  146SAPE  H12X16114   1.640   6.454   9.229  0.1390  0.1563 -0.3316
  146SAPE  H12Y16115   1.488   6.560   9.245 -2.1406 -0.9384 -0.1362
  146SAPE  C31316116   1.482   6.385   9.107 -0.0517  0.1771 -0.5976
  146SAPE  H13X16117   1.377   6.348   9.114 -0.0715  0.3809  0.2503
  146SAPE  H13Y16118   1.544   6.294   9.096  0.5617  0.6142 -0.7929
  146SAPE  C31416119   1.492   6.465   8.976 -0.5854 -0.1627  0.1120
  146SAPE  H14X16120   1.437   6.561   8.984 -0.1880  0.1208 -0.4649
  146SAPE  H14Y16121   1.438   6.411   8.896  0.8128 -0.3741 -0.7168
  146SAPE  C31516122   1.632   6.474   8.925  0.6556  0.5858 -0.1335
  146SAPE  H15X16123   1.668   6.371   8.901 -0.1649  0.5384 -1.2395
  146SAPE  H15Y16124   1.702   6.521   8.997  0.2590  1.2277 -0.1645
  146SAPE  C31616125   1.626   6.549   8.789 -0.4676 -0.4051  0.0008
  146SAPE  H16X16126   1.553   6.633   8.794  0.6629  0.5528  2.5865
  146SAPE  H16Y16127   1.592   6.481   8.709  0.2781 -1.2873  0.4114
  146SAPE  C31716128   1.762   6.604   8.735  0.6447  0.5654 -0.0551
  146SAPE  H17X16129   1.751   6.642   8.631 -0.2783  0.8937  0.1570
  146SAPE  H17Y16130   1.823   6.512   8.729 -1.2043 -0.7602  0.6070
  146SAPE  C31816131   1.835   6.709   8.814  0.8243 -0.7905  0.2649
  146SAPE  H18X16132   1.766   6.791   8.843  1.3825 -0.1932 -0.0649
  146SAPE  H18Y16133   1.920   6.752   8.757  0.5114 -2.5198 -1.5923
  146SAPE  H18Z16134   1.867   6.677   8.916 -0.9780 -0.8550  0.8497
  147SAPE     N16135   5.586   2.897   6.024  0.2458 -0.5711 -0.0862
  147SAPE   HN116136   5.566   2.825   6.097 -0.6667 -0.6712 -0.4226
  147SAPE   HN216137   5.520   2.861   5.952 -1.4064 -2.8857  2.3543
  147SAPE   HN316138   5.686   2.888   5.996  0.0783  0.4750 -1.0526
  147SAPE   C1216139   5.565   3.039   6.075 -0.4593  0.1616  0.8463
  147SAPE  H12A16140   5.459   3.070   6.077 -0.0973  1.3860  2.0834
  147SAPE  H12B16141   5.614   3.101   5.997  0.7153  3.1970  3.8078
  147SAPE   C1116142   5.620   3.063   6.214  0.1622 -0.1547 -0.5361
  147SAPE  H11A16143   5.564   2.984   6.269 -0.4022  0.0775 -0.7653
  147SAPE  H11B16144   5.603   3.165   6.255  0.8113 -0.0644 -0.4798
  147SAPE     P16145   5.866   3.142   6.238  0.0217 -0.2219  0.2967
  147SAPE   O1316146   6.000   3.074   6.256 -0.3844 -0.7010  0.0687
  147SAPE   O1416147   5.841   3.247   6.138  0.2994 -0.1668 -0.3231
  147SAPE   O1216148   5.757   3.030   6.218 -0.3301 -0.3512 -0.9230
  147SAPE   O1116149   5.808   3.204   6.374 -0.5468  0.4006  0.1368
  147SAPE    C116150   5.914   3.249   6.462  0.3576  0.6626 -0.2258
  147SAPE    HA16151   5.986   3.167   6.482 -1.3950 -0.4997  1.7236
  147SAPE    HB16152   5.952   3.346   6.422 -3.2141  2.8597  1.2276
  147SAPE    C216153   5.871   3.281   6.612 -0.1531 -0.3074 -0.9617
  147SAPE    HS16154   5.961   3.325   6.661 -1.8577  2.3001  0.0597
  147SAPE   O2116155   5.821   3.164   6.684  0.6054  0.0781 -0.1387
  147SAPE   C2116156   5.919   3.076   6.731  0.4385  0.1432  0.1975
  147SAPE   O2216157   6.034   3.106   6.730  0.4597  0.3951 -0.3339
  147SAPE   C2216158   5.857   2.944   6.769  0.1282  0.8386 -0.3692
  147SAPE   H2R16159   5.764   2.965   6.826 -0.3148  0.2279 -0.8533
  147SAPE   H2S16160   5.840   2.894   6.672  2.6860  2.1627 -1.5990
  147SAPE    C316161   5.760   3.389   6.614  0.0767 -0.1987  0.0135
  147SAPE    HX16162   5.663   3.337   6.596 -1.0599  1.7111  0.3434
  147SAPE    HY16163   5.782   3.464   6.535  1.6682 -1.7776 -1.1197
  147SAPE   O3116164   5.743   3.446   6.745  0.1930 -0.3239  0.1170
  147SAPE   C3116165   5.835   3.534   6.777 -0.0072  0.4192 -0.0079
  147SAPE   O3216166   5.907   3.592   6.699 -0.5025  0.9573  0.1070
  147SAPE   C3216167   5.834   3.557   6.932  0.6534 -0.1164 -0.1524
  147SAPE   H2X16168   5.817   3.456   6.975  1.1560 -0.8765 -1.6736
  147SAPE   H2Y16169   5.751   3.628   6.955  0.3224 -0.4659 -0.2548
  147SAPE   C2316170   5.955   2.847   6.834 -0.1992 -0.3050  0.1636
  147SAPE   H3R16171   6.032   2.812   6.761 -0.4704 -0.0797 -0.2339
  147SAPE   H3S16172   5.902   2.752   6.855  1.2074 -0.7007  2.1392
  147SAPE   C2416173   6.021   2.905   6.963 -0.0130 -0.4514  0.0393
  147SAPE   H4R16174   6.061   3.008   6.953 -2.4474  0.6536  0.9089
  147SAPE   H4S16175   6.113   2.849   6.990  0.2092 -0.2863 -0.3661
  147SAPE   C2516176   5.926   2.910   7.083 -0.0542  0.2187  1.0197
  147SAPE   H5R16177   5.896   2.810   7.119  0.5334 -0.2140  0.3390
  147SAPE   C2616178   5.879   3.018   7.153  0.3438 -0.4854  0.1992
  147SAPE   H6R16179   5.817   3.005   7.243  0.1942  1.8507  0.4949
  147SAPE   C2716180   5.921   3.158   7.110 -0.5151  0.9158 -0.0291
  147SAPE   H7R16181   5.925   3.179   7.001  1.0735  0.3180 -0.1061
  147SAPE   H7S16182   6.025   3.176   7.143 -1.0815  0.3373  2.2540
  147SAPE   C2816183   5.832   3.253   7.167  0.2051 -0.2910  0.2028
  147SAPE   H8R16184   5.744   3.277   7.106  0.7084  0.7197 -0.1541
  147SAPE   C2916185   5.847   3.332   7.277 -0.2131  0.5453 -0.0866
  147SAPE   H9R16186   5.772   3.411   7.294 -0.1948  0.1696  2.0214
  147SAPE  C21016187   5.970   3.333   7.369  0.1281  0.2134 -0.2339
  147SAPE  H10R16188   5.982   3.228   7.403 -0.5100  0.3767  0.5309
  147SAPE  H10S16189   5.929   3.384   7.459  1.3175 -0.2417  0.5948
  147SAPE  C21116190   6.099   3.387   7.315 -0.3589 -0.5677  0.6127
  147SAPE  H11R16191   6.101   3.414   7.208 -0.1089 -1.0381  0.4956
  147SAPE  C21216192   6.210   3.383   7.387 -0.4514  1.2560 -0.6841
  147SAPE  H12R16193   6.300   3.425   7.340 -0.0521  0.4541 -0.6427
  147SAPE  C21316194   6.230   3.325   7.531 -0.3758 -0.2749 -0.5919
  147SAPE  H13R16195   6.329   3.275   7.542 -0.3024 -0.2191 -1.0003
  147SAPE  H13S16196   6.158   3.247   7.566  0.4158 -0.1938  1.3460
  147SAPE  C21416197   6.224   3.447   7.634  0.5750 -0.3610 -0.4249
  147SAPE  H14R16198   6.231   3.549   7.592  2.8727 -0.3325 -0.1001
  147SAPE  C21516199   6.209   3.440   7.765  0.1400  0.2324  0.5160
  147SAPE  H15R16200   6.192   3.530   7.826 -3.4598 -1.4342  2.2849
  147SAPE  C21616201   6.200   3.306   7.841  0.1660 -0.2873 -0.0676
  147SAPE  H16R16202   6.276   3.231   7.814 -0.8263 -1.9268  1.4779
  147SAPE  H16S16203   6.106   3.252   7.819  0.4658 -1.2744  0.9758
  147SAPE  C21716204   6.216   3.320   7.998  0.6332 -0.0418  0.8165
  147SAPE  H17R16205   6.116   3.352   8.033 -1.2645 -4.1497 -0.1723
  147SAPE  H17S16206   6.296   3.392   8.023  2.2773 -2.1308  1.9014
  147SAPE  C21816207   6.247   3.182   8.059 -0.2142  0.1150  0.5243
  147SAPE  H18R16208   6.351   3.153   8.032 -0.2780  0.7569 -0.4862
  147SAPE  H18S16209   6.168   3.110   8.029 -1.0712  1.0607  0.4457
  147SAPE  C21916210   6.250   3.188   8.215 -0.0440  0.1472 -0.0914
  147SAPE  H19R16211   6.265   3.292   8.251 -0.9611 -0.1099  1.1246
  147SAPE  H19S16212   6.332   3.120   8.247 -0.5732 -1.0259 -1.1573
  147SAPE  C22016213   6.121   3.135   8.263  0.0039 -1.3107 -0.0632
  147SAPE  H20R16214   6.117   3.024   8.259  4.0719 -1.6599  1.3174
  147SAPE  H20S16215   6.037   3.178   8.203 -0.0559  2.9508  2.6315
  147SAPE  H20T16216   6.105   3.178   8.364 -1.7450  0.3203 -0.9544
  147SAPE   C3316217   5.968   3.619   6.976 -0.7426 -0.0446 -0.1301
  147SAPE   H3X16218   6.006   3.699   6.909  0.3724  0.0601  0.5936
  147SAPE   H3Y16219   6.038   3.533   6.964 -1.2036 -0.8550  2.4146
  147SAPE   C3416220   5.962   3.671   7.119  0.4033 -0.0888  0.1939
  147SAPE   H4X16221   6.064   3.691   7.157  0.8830 -1.2762 -0.4357
  147SAPE   H4Y16222   5.915   3.599   7.190 -1.7795  0.9369 -0.1077
  147SAPE   C3516223   5.888   3.806   7.143  0.0647  0.3060  0.2468
  147SAPE   H5X16224   5.777   3.807   7.131 -0.0030  3.6628  0.2599
  147SAPE   H5Y16225   5.931   3.887   7.080  0.0780 -0.3991 -0.6834
  147SAPE   C3616226   5.897   3.865   7.287 -0.5161 -0.5164  0.5491
  147SAPE   H6X16227   5.861   3.970   7.283 -1.9626 -1.0381 -1.4052
  147SAPE   H6Y16228   6.008   3.869   7.300 -0.3501  2.4257 -0.8376
  147SAPE   C3716229   5.827   3.791   7.401  0.5087  0.4761  0.3268
  147SAPE   H7X16230   5.871   3.690   7.399 -1.1163 -0.2593 -0.7291
  147SAPE   H7Y16231   5.718   3.777   7.385  0.6183 -2.3290  1.5712
  147SAPE   C3816232   5.862   3.851   7.540  1.0434  0.6718  0.1069
  147SAPE   H8X16233   5.809   3.949   7.546  3.4641  2.0647 -0.0800
  147SAPE   H8Y16234   5.970   3.863   7.558  1.3655  0.2369 -1.3689
  147SAPE   C3916235   5.807   3.774   7.659  0.1790 -0.1965 -0.6827
  147SAPE   H9X16236   5.697   3.760   7.646  0.2260  0.3442 -1.7407
  147SAPE   H9Y16237   5.817   3.843   7.746  2.7974 -0.2666 -0.8519
  147SAPE  C31016238   5.870   3.632   7.683  0.5591  0.1934 -0.1505
  147SAPE  H10X16239   5.979   3.639   7.703  0.6022  0.1059 -0.3500
  147SAPE  H10Y16240   5.859   3.564   7.596 -0.5059  1.1970 -0.8479
  147SAPE  C31116241   5.818   3.561   7.812  0.1667  0.0519 -1.0367
  147SAPE  H11X16242   5.794   3.640   7.887  2.4286  1.4233 -1.6651
  147SAPE  H11Y16243   5.900   3.500   7.856 -0.7177  1.3436  2.8824
  147SAPE  C31216244   5.686   3.482   7.799 -0.3202 -0.0188 -0.0632
  147SAPE  H12X16245   5.699   3.400   7.726 -0.3625 -0.3025  0.2457
  147SAPE  H12Y16246   5.621   3.550   7.741  0.6223  0.1803 -0.9096
  147SAPE  C31316247   5.635   3.429   7.942 -0.0348 -0.6139  0.4062
  147SAPE  H13X16248   5.537   3.389   7.909  0.7483 -2.0766 -0.2124
  147SAPE  H13Y16249   5.605   3.515   8.006  2.9766  3.2855 -2.8286
  147SAPE  C31416250   5.711   3.322   8.026  0.2602  0.0977 -0.5844
  147SAPE  H14X16251   5.821   3.340   8.035  0.5241 -2.2409  2.3946
  147SAPE  H14Y16252   5.707   3.226   7.970  0.4017 -0.4564  0.3434
  147SAPE  C31516253   5.667   3.310   8.175 -0.1074  0.1049  1.0821
  147SAPE  H15X16254   5.562   3.273   8.163  0.8406 -2.5525  0.1756
  147SAPE  H15Y16255   5.659   3.407   8.228  0.8359  0.5848  0.3503
  147SAPE  C31616256   5.756   3.212   8.254 -0.3595 -0.8089 -0.1180
  147SAPE  H16X16257   5.859   3.250   8.240  0.0583 -1.9903 -0.3352
  147SAPE  H16Y16258   5.755   3.114   8.202 -0.8059 -1.6655  1.4438
  147SAPE  C31716259   5.723   3.178   8.400 -0.1771  0.1027  0.2583
  147SAPE  H17X16260   5.619   3.141   8.415  0.6024 -1.3391  2.6579
  147SAPE  H17Y16261   5.732   3.272   8.459 -1.4944  0.2504  0.2557
  147SAPE  C31816262   5.808   3.065   8.449 -0.1646  0.2508  0.1213
  147SAPE  H18X16263   5.802   3.050   8.559  1.5366 -0.9769  0.0726
  147SAPE  H18Y16264   5.912   3.094   8.424 -1.0644  1.9467 -1.9342
  147SAPE  H18Z16265   5.790   2.971   8.393 -1.1496  0.8347 -0.5760
  148SAPE     N16266   3.582   1.143   6.537  0.2759 -0.5017 -0.1958
  148SAPE   HN116267   3.537   1.235   6.516 -0.1720 -0.7853 -0.4946
  148SAPE   HN216268   3.666   1.136   6.476  0.5593 -0.2519  0.1568
  148SAPE   HN316269   3.514   1.065   6.528  0.5678 -0.6979 -0.7359
  148SAPE   C1216270   3.630   1.148   6.677  0.6759 -0.4193  0.1737
  148SAPE  H12A16271   3.534   1.159   6.731 -0.9421 -0.4317 -2.4975
  148SAPE  H12B16272   3.698   1.235   6.693  0.2968 -0.2899  1.1029
  148SAPE   C1116273   3.684   1.015   6.730 -0.3187  0.2957  1.0974
  148SAPE  H11A16274   3.713   1.021   6.837  2.6107 -2.1986  0.5798
  148SAPE  H11B16275   3.777   1.013   6.670 -0.7900 -1.2729  0.3790
  148SAPE     P16276   3.606   0.789   6.602 -0.2078 -0.1645  0.5390
  148SAPE   O1316277   3.481   0.716   6.582 -0.0287 -0.4134  0.1256
  148SAPE   O1416278   3.660   0.855   6.473  0.0822  0.0790 -0.6265
  148SAPE   O1216279   3.591   0.906   6.703 -0.0258 -0.7007 -0.9657
  148SAPE   O1116280   3.714   0.700   6.667 -0.1348 -1.2240 -0.1855
  148SAPE    C116281   3.726   0.696   6.811 -0.4145  0.0334  1.2282
  148SAPE    HA16282   3.789   0.779   6.851  0.8416 -1.3567  2.2293
  148SAPE    HB16283   3.626   0.712   6.858 -0.7968 -0.0318  0.4402
  148SAPE    C216284   3.777   0.557   6.841  0.1973 -0.3338 -0.1945
  148SAPE    HS16285   3.723   0.479   6.784 -1.1531  0.4703 -0.0531
  148SAPE   O2116286   3.775   0.531   6.986 -0.3542  0.4487  0.0763
  148SAPE   C2116287   3.647   0.499   7.025 -0.7836 -0.3609 -0.2382
  148SAPE   O2216288   3.554   0.486   6.953  0.6134  0.0412 -0.2385
  148SAPE   C2216289   3.639   0.477   7.179 -0.5718  0.1607  0.2382
  148SAPE   H2R16290   3.534   0.452   7.209 -0.0901 -0.5388  1.4370
  148SAPE   H2S16291   3.718   0.407   7.213  1.1603  1.0891 -1.6819
  148SAPE    C316292   3.920   0.552   6.795  0.5135  0.1394  0.0140
  148SAPE    HX16293   3.967   0.641   6.842  0.3284  0.0757  0.3244
  148SAPE    HY16294   3.917   0.572   6.686 -0.0952  1.9362  0.3304
  148SAPE   O3116295   3.985   0.434   6.848 -0.3525  0.4175  0.3152
  148SAPE   C3116296   4.116   0.429   6.851 -0.3921 -0.6451  0.0867
  148SAPE   O3216297   4.193   0.520   6.826  0.0870 -0.0541  0.0258
  148SAPE   C3216298   4.166   0.285   6.875  0.0256 -0.5067 -0.3316
  148SAPE   H2X16299   4.248   0.274   6.801 -0.9348 -1.3284 -1.3135
  148SAPE   H2Y16300   4.090   0.211   6.842  0.1607 -0.9218  0.2691
  148SAPE   C2316301   3.676   0.600   7.254  0.7367  0.6083 -0.7987
  148SAPE   H3R16302   3.588   0.667   7.248  0.0425 -0.2388 -0.3361
  148SAPE   H3S16303   3.762   0.655   7.210  0.7063  0.1968 -1.3901
  148SAPE   C2416304   3.695   0.573   7.407 -0.9276  0.3490 -0.4588
  148SAPE   H4R16305   3.722   0.671   7.453  1.0742 -0.9205  1.2259
  148SAPE   H4S16306   3.774   0.495   7.414  0.2993  1.6533  1.2811
  148SAPE   C2516307   3.565   0.521   7.470  0.2209  0.6061 -0.0784
  148SAPE   H5R16308   3.484   0.591   7.496 -0.6700 -0.8902  1.3174
  148SAPE   C2616309   3.540   0.395   7.511 -0.2955 -0.8878 -0.0870
  148SAPE   H6R16310   3.453   0.359   7.568  0.8572 -0.6483  1.9430
  148SAPE   C2716311   3.643   0.287   7.503 -0.0702 -0.4402 -0.5969
  148SAPE   H7R16312   3.746   0.321   7.527 -0.3417 -0.5435  0.7513
  148SAPE   H7S16313   3.668   0.267   7.396  0.4176 -1.0432 -0.3794
  148SAPE   C2816314   3.620   0.159   7.579 -0.5808 -0.0300  1.0002
  148SAPE   H8R16315   3.581   0.082   7.511  0.0504  0.5395 -0.0576
  148SAPE   C2916316   3.627   0.150   7.713  1.2124 -0.0834  0.2407
  148SAPE   H9R16317   3.607   0.055   7.766 -1.4860 -0.5128 -1.3648
  148SAPE  C21016318   3.659   0.264   7.815 -0.2895 -1.1817  0.1797
  148SAPE  H10R16319   3.557   0.307   7.832 -0.8393 -1.0344 -2.9300
  148SAPE  H10S16320   3.710   0.344   7.758 -0.0116 -1.2225  0.3699
  148SAPE  C21116321   3.741   0.215   7.930  0.9786 -0.2877  0.0924
  148SAPE  H11R16322   3.845   0.207   7.893  0.8891  0.9124 -0.4731
  148SAPE  C21216323   3.697   0.181   8.053 -0.4943 -0.3072 -1.0730
  148SAPE  H12R16324   3.766   0.134   8.124 -0.7447  0.8863 -0.0029
  148SAPE  C21316325   3.554   0.200   8.099  0.1596  0.4287 -0.2525
  148SAPE  H13R16326   3.517   0.104   8.141  0.3094  0.7971  0.7307
  148SAPE  H13S16327   3.486   0.218   8.013  0.6246  1.5561 -0.4018
  148SAPE  C21416328   3.533   0.314   8.189 -0.0006  0.1568  0.1967
  148SAPE  H14R16329   3.543   0.411   8.138  2.4472  0.8190  1.7454
  148SAPE  C21516330   3.501   0.311   8.319  0.1802  0.1597  0.6597
  148SAPE  H15R16331   3.478   0.409   8.363  0.1221 -0.9566  3.2956
  148SAPE  C21616332   3.470   0.197   8.410 -0.3915 -0.1019 -0.7723
  148SAPE  H16R16333   3.468   0.099   8.359  2.5561 -1.5140  1.5209
  148SAPE  H16S16334   3.372   0.207   8.462  0.7671 -1.7482  1.9453
  148SAPE  C21716335   3.595   0.187   8.507 -0.3038 -0.3556  0.4825
  148SAPE  H17R16336   3.570   0.107   8.579  0.1740 -0.6216  0.3534
  148SAPE  H17S16337   3.610   0.287   8.554 -1.8920  1.7961 -3.1702
  148SAPE  C21816338   3.728   0.159   8.437  0.5817  0.6879  0.5114
  148SAPE  H18R16339   3.764   0.241   8.371 -0.6903 -0.0115 -1.1334
  148SAPE  H18S16340   3.702   0.074   8.371  1.0890  1.1024 -0.2390
  148SAPE  C21916341   3.833   0.112   8.527 -0.2980 -0.4271 -0.5331
  148SAPE  H19R16342   3.908   0.075   8.454  0.3192  1.5552 -0.9532
  148SAPE  H19S16343   3.791   0.031   8.590  0.6081 -2.4255 -2.3513
  148SAPE  C22016344   3.895   0.213   8.621  0.6445 -0.7072  0.0415
  148SAPE  H20R16345   3.807   0.250   8.678 -0.3452 -0.8095 -1.3811
  148SAPE  H20S16346   3.937   0.292   8.556  3.3404 -0.9046  1.4127
  148SAPE  H20T16347   3.967   0.184   8.700  0.9111  0.3691  0.2045
  148SAPE   C3316348   4.210   0.256   7.028 -0.4122  0.3670 -0.3076
  148SAPE   H3X16349   4.270   0.342   7.065 -0.6855  0.1286  0.7106
  148SAPE   H3Y16350   4.264   0.159   7.021 -1.3568 -0.0665 -2.3477
  148SAPE   C3416351   4.083   0.239   7.113 -0.7352 -0.0199  0.3141
  148SAPE   H4X16352   4.030   0.152   7.068  0.9538 -1.9204  1.7857
  148SAPE   H4Y16353   4.016   0.327   7.102  0.1423  0.5452 -0.6741
  148SAPE   C3516354   4.100   0.219   7.264  0.0654  0.0814  0.4774
  148SAPE   H5X16355   4.168   0.298   7.304 -0.7960  0.0528  2.0687
  148SAPE   H5Y16356   4.144   0.118   7.272 -0.3427 -0.3135 -1.8120
  148SAPE   C3616357   3.967   0.221   7.342  0.2651  0.5735  0.0231
  148SAPE   H6X16358   3.895   0.163   7.281 -0.0579  0.3914  0.5701
  148SAPE   H6Y16359   3.935   0.327   7.357  0.6012  0.6835 -0.0254
  148SAPE   C3716360   3.988   0.150   7.479  0.2517 -0.1486  0.1394
  148SAPE   H7X16361   4.063   0.072   7.453  0.4867 -0.2651  1.1223
  148SAPE   H7Y16362   3.892   0.105   7.514  0.4086 -1.5215 -1.0990
  148SAPE   C3816363   4.049   0.232   7.591  0.3106 -0.8013 -0.1988
  148SAPE   H8X16364   3.983   0.317   7.619  1.8447  0.0769  0.8593
  148SAPE   H8Y16365   4.137   0.288   7.555 -0.2568  0.1200 -0.1787
  148SAPE   C3916366   4.096   0.153   7.713  0.2208 -0.2724 -0.1163
  148SAPE   H9X16367   4.184   0.087   7.699 -1.2206 -2.5961  1.2496
  148SAPE   H9Y16368   4.018   0.079   7.740 -1.3775  1.2156 -0.4130
  148SAPE  C31016369   4.135   0.247   7.829 -0.8272  0.3894  0.1825
  148SAPE  H10X16370   4.046   0.312   7.844 -0.5283  1.0159 -0.6844
  148SAPE  H10Y16371   4.219   0.318   7.817 -1.0010  1.0358  2.3260
  148SAPE  C31116372   4.161   0.157   7.953 -0.0162 -0.8387 -0.6078
  148SAPE  H11X16373   4.242   0.085   7.928  0.9690 -0.5702  1.5748
  148SAPE  H11Y16374   4.072   0.094   7.973  0.9003 -1.6388  1.2227
  148SAPE  C31216375   4.173   0.236   8.088 -0.7105 -0.4949 -0.0647
  148SAPE  H12X16376   4.257   0.309   8.078 -0.3157 -0.8000  0.9003
  148SAPE  H12Y16377   4.203   0.154   8.157  1.2766  0.5917  0.4454
  148SAPE  C31316378   4.047   0.308   8.128 -0.3061  0.2494  0.1233
  148SAPE  H13X16379   3.958   0.245   8.149 -1.8065  1.5403 -2.0124
  148SAPE  H13Y16380   4.011   0.381   8.053 -2.2302 -1.5749 -0.8487
  148SAPE  C31416381   4.064   0.391   8.261  0.1823  0.1120  0.0839
  148SAPE  H14X16382   4.159   0.449   8.259 -0.5812  1.4012 -0.0016
  148SAPE  H14Y16383   4.077   0.320   8.345 -3.9668 -1.3195 -0.2674
  148SAPE  C31516384   3.936   0.474   8.297 -0.4999 -0.8657 -0.1490
  148SAPE  H15X16385   3.943   0.508   8.403 -0.5863  0.4456 -0.5457
  148SAPE  H15Y16386   3.842   0.415   8.301 -0.7049 -0.4904  2.6770
  148SAPE  C31616387   3.902   0.601   8.213 -0.2861  0.8977  0.0063
  148SAPE  H16X16388   3.866   0.578   8.110 -1.9614  0.6634  0.6061
  148SAPE  H16Y16389   4.002   0.645   8.197  1.5422 -3.0071 -0.6480
  148SAPE  C31716390   3.800   0.688   8.296  0.3382  0.0284 -0.6390
  148SAPE  H17X16391   3.713   0.622   8.318 -0.9034  1.3706 -1.2709
  148SAPE  H17Y16392   3.758   0.762   8.223  0.3345 -0.8607 -1.5607
  148SAPE  C31816393   3.872   0.756   8.407 -0.0419  0.2174  0.0867
  148SAPE  H18X16394   3.939   0.829   8.358 -0.4557  0.7302  0.2753
  148SAPE  H18Y16395   3.936   0.689   8.468 -0.4082  0.1373  0.3877
  148SAPE  H18Z16396   3.803   0.818   8.467 -1.7860 -2.6173  1.2344
  149SAPE     N16397   4.841   3.351   6.162 -0.0755 -0.6720 -0.3182
  149SAPE   HN116398   4.766   3.404   6.210 -1.3305 -2.2993 -0.3741
  149SAPE   HN216399   4.899   3.427   6.121 -2.7321  2.9779  2.0823
  149SAPE   HN316400   4.792   3.313   6.078  0.4871 -0.1794 -0.8872
  149SAPE   C1216401   4.924   3.281   6.267  0.1500  0.2676 -0.2903
  149SAPE  H12A16402   4.976   3.353   6.334 -1.9957 -0.1766  2.0341
  149SAPE  H12B16403   4.992   3.215   6.209 -1.3885  1.9902 -4.3661
  149SAPE   C1116404   4.840   3.184   6.345 -0.1332  0.8460  0.5141
  149SAPE  H11A16405   4.752   3.241   6.382 -0.0543 -0.2317  2.5017
  149SAPE  H11B16406   4.900   3.146   6.430  0.7602 -1.0779 -0.9051
  149SAPE     P16407   4.836   2.939   6.268  0.1545 -0.1112 -0.2739
  149SAPE   O1316408   4.739   2.864   6.187  0.1364  0.0964 -0.7871
  149SAPE   O1416409   4.979   2.929   6.246 -0.3982  0.3391  0.5134
  149SAPE   O1216410   4.784   3.088   6.256  0.1959  0.1489 -0.1398
  149SAPE   O1116411   4.813   2.900   6.416  0.3493  0.2701 -0.2815
  149SAPE    C116412   4.681   2.913   6.466  0.1251  0.2540 -0.4378
  149SAPE    HA16413   4.647   3.017   6.483 -2.6621 -0.9636  2.5713
  149SAPE    HB16414   4.606   2.855   6.408 -1.9550  1.3729  0.9719
  149SAPE    C216415   4.678   2.858   6.611  0.0164  0.3707 -0.3449
  149SAPE    HS16416   4.605   2.916   6.671  0.6390  0.8521 -0.0337
  149SAPE   O2116417   4.801   2.876   6.690 -0.4868 -0.0811 -0.3917
  149SAPE   C2116418   4.834   2.998   6.717 -0.0581  0.2454  0.3938
  149SAPE   O2216419   4.764   3.098   6.689  0.0611  0.2491 -0.6933
  149SAPE   C2216420   4.962   2.995   6.795  0.1026 -0.2056 -0.1167
  149SAPE   H2R16421   4.945   2.933   6.885  0.3576 -0.8364 -0.4933
  149SAPE   H2S16422   5.033   2.942   6.728  1.1489 -0.2443  1.0004
  149SAPE    C316423   4.641   2.705   6.622  0.0501 -0.1185 -0.1146
  149SAPE    HX16424   4.717   2.643   6.572 -0.7721 -0.2004 -1.3203
  149SAPE    HY16425   4.549   2.676   6.566 -1.0173 -1.6339  2.2589
  149SAPE   O3116426   4.616   2.679   6.765 -0.1183  0.0553 -0.5396
  149SAPE   C3116427   4.707   2.626   6.841 -0.2045 -0.0932 -0.1786
  149SAPE   O3216428   4.821   2.589   6.802  0.6357 -0.1191  0.5913
  149SAPE   C3216429   4.664   2.626   6.986 -0.3971 -0.6037  0.0222
  149SAPE   H2X16430   4.733   2.556   7.038  0.9781  1.3113  0.9305
  149SAPE   H2Y16431   4.563   2.581   6.984 -1.4341  1.5774  0.2306
  149SAPE   C2316432   5.026   3.130   6.834 -0.3526  0.9014  0.0142
  149SAPE   H3R16433   5.045   3.187   6.740  1.0304 -1.2159 -1.0602
  149SAPE   H3S16434   5.124   3.102   6.879  0.3295  2.2409 -0.5624
  149SAPE   C2416435   4.942   3.198   6.930 -1.1178  0.0474  0.1830
  149SAPE   H4R16436   4.915   3.131   7.015 -2.1753 -1.4055 -1.2444
  149SAPE   H4S16437   4.845   3.215   6.879 -1.1518 -0.4946  0.0654
  149SAPE   C2516438   5.000   3.334   6.968  0.2802 -0.4047 -0.5209
  149SAPE   H5R16439   4.993   3.409   6.887 -0.8247  0.4530  0.3408
  149SAPE   C2616440   5.056   3.372   7.087  0.2021  0.6062  0.2012
  149SAPE   H6R16441   5.104   3.471   7.091  0.5975  0.3741  1.4020
  149SAPE   C2716442   5.073   3.273   7.201  0.2842 -0.3254 -0.0537
  149SAPE   H7R16443   5.177   3.262   7.237  0.2423 -2.6745 -0.4756
  149SAPE   H7S16444   5.052   3.167   7.173 -0.1356 -1.0105  2.6083
  149SAPE   C2816445   4.980   3.300   7.311 -0.0593  0.3036 -0.4862
  149SAPE   H8R16446   4.932   3.399   7.311  3.8509  2.3844  0.3960
  149SAPE   C2916447   4.994   3.232   7.430  0.3509 -0.2796  0.3592
  149SAPE   H9R16448   4.939   3.275   7.515 -1.2452  0.3261 -0.9095
  149SAPE  C21016449   5.097   3.133   7.466 -0.5108 -0.2034 -0.7080
  149SAPE  H10R16450   5.183   3.134   7.395 -0.1298 -2.9638 -0.3992
  149SAPE  H10S16451   5.058   3.028   7.469  0.1981 -0.4640  1.3527
  149SAPE  C21116452   5.145   3.158   7.606 -0.4777 -0.2336 -0.4857
  149SAPE  H11R16453   5.180   3.256   7.641  1.3504 -1.4406  1.2929
  149SAPE  C21216454   5.148   3.063   7.702 -0.3823 -0.4494 -0.0345
  149SAPE  H12R16455   5.173   3.101   7.803 -3.9072 -1.1001  1.2337
  149SAPE  C21316456   5.097   2.922   7.692 -0.3467 -0.2414  0.4718
  149SAPE  H13R16457   4.996   2.929   7.645  0.5302  0.5642 -1.3886
  149SAPE  H13S16458   5.065   2.890   7.793 -0.5593 -0.7389  0.2484
  149SAPE  C21416459   5.183   2.831   7.600 -0.0690  0.2960  0.0511
  149SAPE  H14R16460   5.168   2.826   7.491  0.1095 -1.8696  0.0843
  149SAPE  C21516461   5.262   2.733   7.644 -0.2522  0.5684 -0.1950
  149SAPE  H15R16462   5.312   2.679   7.562 -1.5053  0.9069 -1.2175
  149SAPE  C21616463   5.304   2.699   7.787  0.6381  0.2076  1.4987
  149SAPE  H16R16464   5.349   2.598   7.799 -0.2556 -0.6316 -1.3859
  149SAPE  H16S16465   5.209   2.683   7.842 -0.4203  0.6976 -0.1347
  149SAPE  C21716466   5.379   2.809   7.864  0.8382  0.2817  0.5170
  149SAPE  H17R16467   5.330   2.909   7.862  0.1102 -0.0788 -0.4202
  149SAPE  H17S16468   5.477   2.823   7.814  0.3391  0.1975 -0.5219
  149SAPE  C21816469   5.402   2.759   8.008  0.1010 -1.0140 -0.4329
  149SAPE  H18R16470   5.477   2.677   8.012  0.5516 -0.5917 -0.0188
  149SAPE  H18S16471   5.312   2.720   8.061 -0.0654  2.1425  1.9399
  149SAPE  C21916472   5.450   2.869   8.105 -0.1602 -0.3336 -0.1779
  149SAPE  H19R16473   5.391   2.963   8.102 -0.1493 -0.3160  0.1124
  149SAPE  H19S16474   5.548   2.898   8.061  0.6703 -3.2480 -0.4303
  149SAPE  C22016475   5.475   2.815   8.245  0.3281 -0.1039 -0.0908
  149SAPE  H20R16476   5.582   2.793   8.262  0.1453  1.5980  4.6514
  149SAPE  H20S16477   5.414   2.727   8.277 -0.6628  0.8989  0.8450
  149SAPE  H20T16478   5.458   2.889   8.325  1.2042  1.0692 -0.9547
  149SAPE   C3316479   4.672   2.762   7.063 -0.2055 -0.4056  0.0593
  149SAPE   H3X16480   4.635   2.841   6.995  1.1841 -0.6807 -1.0743
  149SAPE   H3Y16481   4.782   2.769   7.078  0.2582  0.6143 -3.0833
  149SAPE   C3416482   4.603   2.772   7.198  0.0934 -0.2346  0.0845
  149SAPE   H4X16483   4.497   2.740   7.182 -0.9317  2.0668  1.7905
  149SAPE   H4Y16484   4.601   2.881   7.219 -4.0129 -0.0073 -0.6078
  149SAPE   C3516485   4.662   2.677   7.302 -0.3827 -0.0072  0.3914
  149SAPE   H5X16486   4.757   2.715   7.344 -0.7348  0.7383  0.5205
  149SAPE   H5Y16487   4.692   2.585   7.246 -1.4895  0.1560 -0.5227
  149SAPE   C3616488   4.565   2.647   7.417  0.0210  0.6975 -0.4763
  149SAPE   H6X16489   4.624   2.602   7.499  0.5975  1.6014 -0.3749
  149SAPE   H6Y16490   4.493   2.574   7.375  0.4818 -1.1051  1.6920
  149SAPE   C3716491   4.488   2.766   7.471 -0.4047  0.7697 -0.1214
  149SAPE   H7X16492   4.433   2.824   7.394 -2.4246  0.5035  1.0522
  149SAPE   H7Y16493   4.561   2.836   7.517  1.9036 -0.8279 -1.1703
  149SAPE   C3816494   4.397   2.726   7.585  0.5837 -0.1945  0.7927
  149SAPE   H8X16495   4.338   2.813   7.622 -1.1827 -1.0929  0.1744
  149SAPE   H8Y16496   4.449   2.694   7.678  0.4147 -0.6869  0.7217
  149SAPE   C3916497   4.293   2.614   7.550 -0.0949  0.1266 -0.3235
  149SAPE   H9X16498   4.345   2.521   7.520  0.7656  1.0207 -1.7199
  149SAPE   H9Y16499   4.230   2.635   7.461 -0.1051  0.7984 -0.1640
  149SAPE  C31016500   4.213   2.572   7.674  0.6796 -1.2184 -0.1875
  149SAPE  H10X16501   4.278   2.587   7.763 -1.8934 -1.0510  1.7898
  149SAPE  H10Y16502   4.203   2.461   7.681 -0.7926 -1.0019  5.1785
  149SAPE  C31116503   4.079   2.640   7.699  0.2059  0.3249 -0.0001
  149SAPE  H11X16504   4.012   2.600   7.621 -0.1724  1.7023 -0.4054
  149SAPE  H11Y16505   4.097   2.749   7.686  0.9879  0.1128 -0.8041
  149SAPE  C31216506   4.012   2.614   7.836  0.6371 -0.3439  0.7541
  149SAPE  H12X16507   3.946   2.525   7.830  1.2097 -0.6860 -0.8906
  149SAPE  H12Y16508   3.945   2.696   7.870  1.6424 -1.2240  5.7340
  149SAPE  C31316509   4.097   2.607   7.957 -0.6648  0.9453 -0.1025
  149SAPE  H13X16510   4.195   2.555   7.954 -1.1384  0.0393 -0.1948
  149SAPE  H13Y16511   4.033   2.552   8.029 -0.8839 -0.1818 -1.1386
  149SAPE  C31416512   4.112   2.746   8.023  0.6786 -0.0014  0.7393
  149SAPE  H14X16513   4.012   2.791   8.034 -0.8501 -2.2462 -2.3985
  149SAPE  H14Y16514   4.190   2.805   7.971  1.9330 -1.6421  0.6423
  149SAPE  C31516515   4.192   2.728   8.157  0.0043  0.0380  1.0801
  149SAPE  H15X16516   4.156   2.632   8.201 -0.1980 -0.3436  0.1047
  149SAPE  H15Y16517   4.156   2.809   8.223 -1.7235 -0.1416  0.4103
  149SAPE  C31616518   4.345   2.745   8.134  0.9289 -0.1825  0.4485
  149SAPE  H16X16519   4.361   2.842   8.083 -3.5132  0.7938  0.5545
  149SAPE  H16Y16520   4.388   2.669   8.065 -0.5818  1.5679 -2.5857
  149SAPE  C31716521   4.428   2.734   8.264  0.0632  0.1908 -0.2947
  149SAPE  H17X16522   4.405   2.641   8.320 -1.2970  0.9161  0.3992
  149SAPE  H17Y16523   4.374   2.814   8.317 -0.3647  0.6702 -1.4157
  149SAPE  C31816524   4.574   2.777   8.262 -0.7334 -0.4793  0.1544
  149SAPE  H18X16525   4.615   2.785   8.365  0.2136 -1.1508 -0.1523
  149SAPE  H18Y16526   4.592   2.872   8.208  0.2773 -0.4674  0.5031
  149SAPE  H18Z16527   4.632   2.704   8.201 -2.5570  0.6222 -3.1346
  150SAPE     N16528   3.133   3.923   6.225  0.0832 -0.2559  0.3143
  150SAPE   HN116529   3.170   3.964   6.313 -0.8418  0.1194  0.5400
  150SAPE   HN216530   3.030   3.907   6.220  0.2756 -1.2972 -2.3808
  150SAPE   HN316531   3.171   3.827   6.215  0.1440 -0.2311  0.3047
  150SAPE   C1216532   3.176   4.020   6.120 -0.5926 -0.1934  0.2239
  150SAPE  H12A16533   3.134   3.990   6.022 -0.5316  2.6799 -0.7754
  150SAPE  H12B16534   3.286   4.031   6.114 -0.5951  0.5911  1.3088
  150SAPE   C1116535   3.123   4.157   6.142  0.1331  0.0847  0.1073
  150SAPE  H11A16536   3.012   4.166   6.142  0.0108 -1.1670 -1.1504
  150SAPE  H11B16537   3.157   4.219   6.056  0.0290 -0.3867 -0.2702
  150SAPE     P16538   3.249   4.355   6.264  0.2041 -0.2188  0.1465
  150SAPE   O1316539   3.348   4.352   6.153  0.7140  0.1350  0.0691
  150SAPE   O1416540   3.142   4.457   6.257  0.3251  0.2477  0.0675
  150SAPE   O1216541   3.169   4.218   6.259  0.2522 -0.6082  0.0596
  150SAPE   O1116542   3.331   4.365   6.395 -0.3236 -0.7082  0.2251
  150SAPE    C116543   3.437   4.286   6.422  0.2368 -0.4590  0.1057
  150SAPE    HA16544   3.504   4.264   6.336 -0.1160 -0.5660 -0.1425
  150SAPE    HB16545   3.510   4.336   6.489  1.4255  1.8965 -2.7203
  150SAPE    C216546   3.393   4.150   6.481 -0.0865  0.5017 -0.3374
  150SAPE    HS16547   3.373   4.088   6.391  0.7744 -2.1800  1.2116
  150SAPE   O2116548   3.283   4.179   6.570 -0.0922  0.1142  0.3112
  150SAPE   C2116549   3.182   4.096   6.558 -0.7716 -1.4518 -0.3091
  150SAPE   O2216550   3.167   4.008   6.477  0.6558  0.0600 -0.3612
  150SAPE   C2216551   3.075   4.124   6.666 -0.4032 -0.5670  0.1334
  150SAPE   H2R16552   3.123   4.138   6.765 -1.2362  1.5151  0.3087
  150SAPE   H2S16553   3.023   4.217   6.633 -0.1535 -0.3783  0.2649
  150SAPE    C316554   3.508   4.083   6.563  0.6506 -0.0033  0.3468
  150SAPE    HX16555   3.582   4.058   6.484  0.3441 -1.2986  0.4520
  150SAPE    HY16556   3.479   3.983   6.601  1.4854 -0.4597 -0.2052
  150SAPE   O3116557   3.568   4.173   6.656  0.2643  0.2877  0.3056
  150SAPE   C3116558   3.510   4.176   6.780 -0.0567 -0.7016  0.0482
  150SAPE   O3216559   3.414   4.105   6.809  0.3101  0.5535  0.1115
  150SAPE   C3216560   3.580   4.285   6.864  0.8761 -0.0623 -0.4468
  150SAPE   H2X16561   3.532   4.383   6.847 -1.3145 -0.4700  2.5952
  150SAPE   H2Y16562   3.687   4.277   6.832  1.3582 -0.2368  1.1349
  150SAPE   C2316563   2.957   4.025   6.678 -0.2775 -0.4471 -0.7743
  150SAPE   H3R16564   2.927   4.000   6.574  1.2153 -0.9231 -1.1207
  150SAPE   H3S16565   2.873   4.066   6.738  1.4538 -0.6250  1.9231
  150SAPE   C2416566   3.005   3.897   6.762 -0.2558 -0.2822  0.1984
  150SAPE   H4R16567   3.095   3.869   6.703 -1.0121  0.1608 -1.2141
  150SAPE   H4S16568   2.930   3.815   6.760 -1.4112  0.7688 -0.0662
  150SAPE   C2516569   3.032   3.939   6.908 -0.2836 -0.5360  0.4237
  150SAPE   H5R16570   3.119   4.005   6.925 -0.0569 -0.9888  1.0662
  150SAPE   C2616571   2.965   3.912   7.017 -0.0743 -0.3650  0.3555
  150SAPE   H6R16572   2.995   3.951   7.116  0.1054 -1.0933  0.5948
  150SAPE   C2716573   2.842   3.825   7.027 -0.2407  0.3276 -0.3647
  150SAPE   H7R16574   2.859   3.761   7.117 -0.4820  2.3827  1.2076
  150SAPE   H7S16575   2.835   3.754   6.941 -2.0258 -1.6909  1.3259
  150SAPE   C2816576   2.712   3.900   7.032  0.8298 -0.3298 -0.1172
  150SAPE   H8R16577   2.668   3.922   6.934 -1.8062  1.7453  1.4005
  150SAPE   C2916578   2.629   3.921   7.136 -0.3775 -0.4292  0.1657
  150SAPE   H9R16579   2.537   3.979   7.120 -0.5338 -0.9339 -0.8451
  150SAPE  C21016580   2.643   3.878   7.282  0.6336  0.0681  0.5106
  150SAPE  H10R16581   2.656   3.768   7.289 -0.0027 -0.0868 -0.5305
  150SAPE  H10S16582   2.547   3.898   7.334  1.6213  2.9633  1.4300
  150SAPE  C21116583   2.750   3.940   7.366 -0.1278  0.4726  0.6453
  150SAPE  H11R16584   2.836   3.977   7.307  1.5991 -2.1978  1.2943
  150SAPE  C21216585   2.750   3.946   7.497 -0.0188 -0.5370  0.4153
  150SAPE  H12R16586   2.832   3.999   7.549 -0.1309  0.0803 -0.0199
  150SAPE  C21316587   2.642   3.890   7.580 -0.3211 -0.3027 -0.6734
  150SAPE  H13R16588   2.570   3.829   7.521  0.9977 -0.9438 -1.6970
  150SAPE  H13S16589   2.596   3.978   7.630  1.8576  2.0483 -2.5043
  150SAPE  C21416590   2.712   3.800   7.676  0.0062 -0.0247 -0.6352
  150SAPE  H14R16591   2.752   3.706   7.633 -2.6480 -1.3212 -0.4449
  150SAPE  C21516592   2.712   3.818   7.812 -0.0087  0.5438  0.2860
  150SAPE  H15R16593   2.753   3.739   7.876  0.9498 -0.7230 -1.8003
  150SAPE  C21616594   2.646   3.924   7.896 -0.5766 -0.1403 -0.0494
  150SAPE  H16R16595   2.546   3.955   7.861 -1.0829  0.5795  1.9299
  150SAPE  H16S16596   2.710   4.015   7.894 -0.0451 -0.5202 -1.0726
  150SAPE  C21716597   2.632   3.892   8.046  0.2584 -0.2896 -0.2165
  150SAPE  H17R16598   2.613   3.987   8.101 -0.0386 -0.6030  0.2292
  150SAPE  H17S16599   2.708   3.829   8.097  0.5530  1.3627  1.5395
  150SAPE  C21816600   2.507   3.813   8.078  0.1613 -0.0789  0.0875
  150SAPE  H18R16601   2.512   3.715   8.027  0.5801  0.2777 -0.5903
  150SAPE  H18S16602   2.412   3.866   8.053 -0.7119 -0.5170  2.3076
  150SAPE  C21916603   2.478   3.769   8.217 -0.1399  0.6253 -0.6312
  150SAPE  H19R16604   2.428   3.851   8.273  0.4031  0.7912 -0.3810
  150SAPE  H19S16605   2.559   3.748   8.289 -3.5586 -1.7582  2.9567
  150SAPE  C22016606   2.386   3.651   8.223 -0.2987  0.3765 -0.3132
  150SAPE  H20R16607   2.379   3.609   8.326  0.1309  0.4065 -0.2684
  150SAPE  H20S16608   2.427   3.564   8.166  1.2624  1.4530 -0.8786
  150SAPE  H20T16609   2.289   3.674   8.174 -0.3523  2.8493  0.8017
  150SAPE   C3316610   3.567   4.252   7.018 -0.3444 -0.5475 -0.5564
  150SAPE   H3X16611   3.594   4.145   7.033 -1.3972 -0.4600  2.8714
  150SAPE   H3Y16612   3.466   4.263   7.064  1.4816  1.7831  3.4627
  150SAPE   C3416613   3.663   4.328   7.110  0.2377  0.7372 -0.2264
  150SAPE   H4X16614   3.644   4.437   7.102  0.4824  0.9723  1.7386
  150SAPE   H4Y16615   3.770   4.319   7.084 -0.1959 -0.7297 -1.7015
  150SAPE   C3516616   3.650   4.292   7.261 -0.8195 -0.3901 -0.2517
  150SAPE   H5X16617   3.541   4.285   7.280 -0.6965 -1.7336  0.0999
  150SAPE   H5Y16618   3.690   4.380   7.315  0.8115 -0.4384 -1.3032
  150SAPE   C3616619   3.719   4.165   7.312  0.3674  0.1386  0.1923
  150SAPE   H6X16620   3.822   4.159   7.270  0.0472 -2.6809 -0.3477
  150SAPE   H6Y16621   3.667   4.074   7.277  0.4648  0.3774 -0.5956
  150SAPE   C3716622   3.717   4.147   7.467  0.7672 -0.1934 -0.5928
  150SAPE   H7X16623   3.770   4.237   7.505  1.8905 -0.8333 -0.6206
  150SAPE   H7Y16624   3.776   4.057   7.494 -0.2462 -0.9410 -0.8341
  150SAPE   C3816625   3.565   4.136   7.516  0.0352  0.4602  0.0895
  150SAPE   H8X16626   3.521   4.034   7.506  2.0301 -0.2042 -3.4892
  150SAPE   H8Y16627   3.508   4.210   7.456  0.5479  0.5842 -0.2436
  150SAPE   C3916628   3.561   4.170   7.666  0.1693 -0.3372  0.4690
  150SAPE   H9X16629   3.461   4.209   7.693  1.0937  3.6807 -1.1667
  150SAPE   H9Y16630   3.625   4.259   7.680  0.1535 -0.2537  0.0244
  150SAPE  C31016631   3.616   4.058   7.758  0.7175  0.2677  0.3275
  150SAPE  H10X16632   3.721   4.037   7.730  1.1403  3.4833 -0.8670
  150SAPE  H10Y16633   3.554   3.968   7.736 -1.4490  1.3704  1.5115
  150SAPE  C31116634   3.609   4.081   7.906 -0.1726 -1.5719  0.2291
  150SAPE  H11X16635   3.504   4.109   7.930 -0.2098 -1.7208  0.2410
  150SAPE  H11Y16636   3.671   4.170   7.929 -3.4280  1.2102 -0.9392
  150SAPE  C31216637   3.649   3.958   7.993  0.2502 -0.2157 -0.2960
  150SAPE  H12X16638   3.760   3.951   7.989  0.2807 -0.6078  0.8304
  150SAPE  H12Y16639   3.607   3.863   7.954 -1.5217  0.7575 -0.8604
  150SAPE  C31316640   3.608   3.955   8.141 -0.3907 -0.1902  0.1848
  150SAPE  H13X16641   3.654   3.865   8.187 -1.3705 -1.6097 -1.4839
  150SAPE  H13Y16642   3.499   3.964   8.164 -0.5406 -0.8980 -0.2078
  150SAPE  C31416643   3.679   4.072   8.222  0.1320  0.1737  0.0177
  150SAPE  H14X16644   3.629   4.169   8.205  0.6974  0.7048  1.2690
  150SAPE  H14Y16645   3.783   4.079   8.183 -0.2874 -0.2982 -1.2386
  150SAPE  C31516646   3.686   4.044   8.371 -0.0787  0.4422  0.5020
  150SAPE  H15X16647   3.761   4.111   8.418  1.3790 -1.3022  0.7958
  150SAPE  H15Y16648   3.721   3.939   8.384  1.6070  0.9123  0.0461
  150SAPE  C31616649   3.544   4.078   8.433  0.0893 -0.9013 -0.0708
  150SAPE  H16X16650   3.470   4.002   8.400  1.7790 -2.5285 -0.2974
  150SAPE  H16Y16651   3.513   4.179   8.397  0.8664 -0.0627  1.5267
  150SAPE  C31716652   3.544   4.085   8.584 -0.6677  0.3554 -0.2693
  150SAPE  H17X16653   3.608   4.005   8.627  0.3602  1.2630 -0.0558
  150SAPE  H17Y16654   3.435   4.074   8.604 -0.9092  0.2813 -1.5579
  150SAPE  C31816655   3.603   4.215   8.632  0.5579 -0.6677  0.0054
  150SAPE  H18X16656   3.532   4.299   8.640  1.6131  0.3349 -0.8431
  150SAPE  H18Y16657   3.693   4.245   8.575  1.3271  1.0051  2.0136
  150SAPE  H18Z16658   3.646   4.207   8.734  2.1323  2.8421 -0.2397
  151SAPE     N16659   5.168   1.501   6.364  0.2156 -0.0444  0.5263
  151SAPE   HN116660   5.094   1.560   6.407 -0.5882 -0.0705 -0.7466
  151SAPE   HN216661   5.123   1.408   6.378  0.7793 -0.0938  2.1347
  151SAPE   HN316662   5.258   1.500   6.415  1.3927 -0.7846 -1.4298
  151SAPE   C1216663   5.192   1.551   6.223 -0.0100 -0.3875 -0.3827
  151SAPE  H12A16664   5.093   1.580   6.181  0.0586 -0.2352 -0.4419
  151SAPE  H12B16665   5.230   1.463   6.168  0.3605  0.1796 -1.0518
  151SAPE   C1116666   5.295   1.673   6.222  0.0408  0.0916  0.2336
  151SAPE  H11A16667   5.291   1.733   6.128  2.0323 -1.9797 -1.2858
  151SAPE  H11B16668   5.400   1.638   6.229  0.1488  0.0708 -1.1639
  151SAPE     P16669   5.321   1.894   6.362 -0.2354  0.1260 -0.1658
  151SAPE   O1316670   5.439   1.915   6.276  0.4185 -0.4294 -0.3600
  151SAPE   O1416671   5.212   1.995   6.351  0.7754 -0.4388 -0.3826
  151SAPE   O1216672   5.270   1.753   6.339 -0.3160  0.4588  0.1661
  151SAPE   O1116673   5.366   1.888   6.513 -0.0265  0.0888  0.2006
  151SAPE    C116674   5.274   1.850   6.618  0.8567 -0.4380  0.2371
  151SAPE    HA16675   5.171   1.830   6.581 -1.4966  2.9581  4.1158
  151SAPE    HB16676   5.297   1.756   6.673  0.7606 -1.2607 -1.0899
  151SAPE    C216677   5.265   1.961   6.721 -0.2613  0.0705  0.0585
  151SAPE    HS16678   5.233   2.054   6.670 -1.7694 -0.7933 -0.6394
  151SAPE   O2116679   5.387   1.971   6.803  0.5313 -0.2236  0.6104
  151SAPE   C2116680   5.389   2.079   6.884 -0.3524 -0.2786 -0.2682
  151SAPE   O2216681   5.319   2.174   6.869 -0.6133 -0.3215 -0.4994
  151SAPE   C2216682   5.502   2.057   6.985  0.3893  0.0673  0.0999
  151SAPE   H2R16683   5.505   1.952   7.021  0.2450  0.2129  0.5427
  151SAPE   H2S16684   5.599   2.083   6.938  0.1722  0.1905 -0.2801
  151SAPE    C316685   5.138   1.938   6.812  0.0510 -1.0836  0.4022
  151SAPE    HX16686   5.062   1.928   6.732 -0.0049 -2.9718  0.6455
  151SAPE    HY16687   5.097   2.023   6.870 -0.2752 -0.7556 -0.3018
  151SAPE   O3116688   5.141   1.813   6.880 -0.1691  0.5849 -0.1053
  151SAPE   C3116689   5.170   1.821   7.004 -0.3820 -0.1831  0.1069
  151SAPE   O3216690   5.175   1.918   7.073  0.2190 -1.0982  0.2954
  151SAPE   C3216691   5.198   1.688   7.060 -0.8272  0.0929 -0.3649
  151SAPE   H2X16692   5.246   1.628   6.979 -1.3538  2.2509 -2.3777
  151SAPE   H2Y16693   5.098   1.642   7.077 -1.0445  0.5834 -0.3064
  151SAPE   C2316694   5.497   2.153   7.112 -0.0275 -0.7498  0.2436
  151SAPE   H3R16695   5.415   2.108   7.172  2.4901 -1.2799  3.5772
  151SAPE   H3S16696   5.486   2.260   7.082 -3.1134 -0.9741  0.2625
  151SAPE   C2416697   5.625   2.146   7.193  0.2166  0.0347 -0.3267
  151SAPE   H4R16698   5.618   2.214   7.280  0.2258  0.3147 -0.5422
  151SAPE   H4S16699   5.716   2.176   7.136 -0.0293 -1.1246 -1.3824
  151SAPE   C2516700   5.647   2.003   7.241 -0.6005 -0.3669 -0.3745
  151SAPE   H5R16701   5.718   1.946   7.180 -0.9701 -0.2728 -0.9108
  151SAPE   C2616702   5.589   1.940   7.348  0.0254 -0.2362 -0.2304
  151SAPE   H6R16703   5.615   1.836   7.369 -0.3502 -0.8017 -2.3513
  151SAPE   C2716704   5.481   1.994   7.434 -0.1473 -0.6108 -0.1079
  151SAPE   H7R16705   5.414   2.056   7.371  1.9534  1.2196 -0.6433
  151SAPE   H7S16706   5.538   2.060   7.503  0.6106 -2.2279  0.8738
  151SAPE   C2816707   5.421   1.890   7.526  0.5181 -0.8142 -0.3826
  151SAPE   H8R16708   5.334   1.842   7.480  0.3613  0.7473 -1.8203
  151SAPE   C2916709   5.446   1.870   7.660 -0.6270 -0.6475 -0.7994
  151SAPE   H9R16710   5.398   1.786   7.713  0.0604 -1.0860 -0.8542
  151SAPE  C21016711   5.567   1.928   7.738 -0.5382  0.5380 -0.3536
  151SAPE  H10R16712   5.633   1.985   7.670  1.5584 -2.5543 -1.0930
  151SAPE  H10S16713   5.632   1.844   7.771 -0.1179 -0.1419 -2.7750
  151SAPE  C21116714   5.524   2.016   7.852  0.3507 -0.2608  0.2570
  151SAPE  H11R16715   5.519   2.124   7.828  2.2650 -0.0792  0.5567
  151SAPE  C21216716   5.473   1.974   7.972 -0.1889 -0.4887  0.1379
  151SAPE  H12R16717   5.446   2.052   8.045 -1.5521 -0.2112 -0.6412
  151SAPE  C21316718   5.454   1.834   8.020 -0.2486  0.4669  0.1079
  151SAPE  H13R16719   5.539   1.772   7.984 -0.5974 -0.1785  0.3719
  151SAPE  H13S16720   5.373   1.785   7.962 -1.6881  0.4881  2.0168
  151SAPE  C21416721   5.419   1.811   8.165 -0.8004 -0.0117  0.2463
  151SAPE  H14R16722   5.315   1.794   8.195 -0.8801 -0.3110 -0.1820
  151SAPE  C21516723   5.509   1.819   8.265  0.2105 -0.3524  0.2118
  151SAPE  H15R16724   5.462   1.801   8.363 -1.6120 -2.7426 -0.9891
  151SAPE  C21616725   5.653   1.856   8.249  0.1937  0.6488 -0.1548
  151SAPE  H16R16726   5.678   1.917   8.339  0.9444  1.2079 -0.7282
  151SAPE  H16S16727   5.672   1.915   8.157  1.4832 -1.9894 -1.6716
  151SAPE  C21716728   5.750   1.740   8.250 -0.2759 -0.2935  0.2570
  151SAPE  H17R16729   5.852   1.783   8.254 -0.4918  0.1487  1.2972
  151SAPE  H17S16730   5.735   1.679   8.159  0.6088  1.1881 -0.9318
  151SAPE  C21816731   5.731   1.661   8.378 -0.6298 -0.1552 -0.2828
  151SAPE  H18R16732   5.633   1.608   8.381  0.3865 -2.1113  0.2766
  151SAPE  H18S16733   5.741   1.728   8.465  1.0016 -0.5553 -0.1367
  151SAPE  C21916734   5.840   1.548   8.387  0.2237 -0.2557 -0.5164
  151SAPE  H19R16735   5.911   1.544   8.302  0.4879 -1.9611 -0.2635
  151SAPE  H19S16736   5.776   1.458   8.373  1.5068 -1.3623  0.3446
  151SAPE  C22016737   5.921   1.548   8.514  0.0757  0.1162 -0.6457
  151SAPE  H20R16738   5.931   1.446   8.557  1.8994  0.7254  0.4902
  151SAPE  H20S16739   6.027   1.578   8.497  1.0359 -1.8555  1.3178
  151SAPE  H20T16740   5.867   1.610   8.588  0.2606 -0.9866  0.4542
  151SAPE   C3316741   5.287   1.697   7.190 -0.3267  0.4418  0.7207
  151SAPE   H3X16742   5.240   1.762   7.267 -2.8698 -0.9680  0.4386
  151SAPE   H3Y16743   5.386   1.741   7.164 -0.1288 -0.5866 -0.3695
  151SAPE   C3416744   5.314   1.560   7.252 -0.1493  0.8013  0.1112
  151SAPE   H4X16745   5.388   1.578   7.333  0.0235 -1.0503  0.4215
  151SAPE   H4Y16746   5.359   1.508   7.165 -1.2279 -0.8286  0.4735
  151SAPE   C3516747   5.194   1.474   7.292  0.5190 -0.6316 -0.6366
  151SAPE   H5X16748   5.233   1.381   7.338  1.0696 -3.1205 -5.4415
  151SAPE   H5Y16749   5.159   1.433   7.195  1.4323  1.5918 -1.9953
  151SAPE   C3616750   5.076   1.541   7.373  0.2003 -0.2145 -0.7561
  151SAPE   H6X16751   4.993   1.468   7.379  0.0864  0.0431  1.8951
  151SAPE   H6Y16752   5.046   1.630   7.314 -2.1879 -0.6177 -0.2417
  151SAPE   C3716753   5.107   1.584   7.520  0.2199  0.2860  0.0551
  151SAPE   H7X16754   5.015   1.610   7.575 -0.0249 -0.9934  0.2795
  151SAPE   H7Y16755   5.179   1.668   7.513  0.3103  0.1144 -1.2912
  151SAPE   C3816756   5.150   1.467   7.612  0.0841 -0.3285 -0.7076
  151SAPE   H8X16757   5.245   1.427   7.569  0.1785  0.6899 -1.4983
  151SAPE   H8Y16758   5.070   1.390   7.613  0.2483 -0.5238 -1.6084
  151SAPE   C3916759   5.179   1.516   7.753  0.4547 -0.1645 -0.8886
  151SAPE   H9X16760   5.085   1.548   7.801  0.4598 -0.7231 -0.4927
  151SAPE   H9Y16761   5.242   1.607   7.739  1.0617 -0.7378 -2.0569
  151SAPE  C31016762   5.235   1.415   7.857  0.6467 -0.1864  0.4643
  151SAPE  H10X16763   5.315   1.355   7.809  1.7523  0.4250  1.4703
  151SAPE  H10Y16764   5.149   1.356   7.896  0.0229 -1.3997 -2.4760
  151SAPE  C31116765   5.297   1.502   7.970  0.5402  0.1686  0.1721
  151SAPE  H11X16766   5.212   1.551   8.021  1.6712  0.7598  1.5423
  151SAPE  H11Y16767   5.366   1.579   7.930  0.1695  1.2124  1.4816
  151SAPE  C31216768   5.375   1.427   8.073  0.4899  0.8296 -0.1988
  151SAPE  H12X16769   5.425   1.490   8.149  2.9261  2.0976 -2.6630
  151SAPE  H12Y16770   5.459   1.378   8.020  1.2247  2.5001 -0.6529
  151SAPE  C31316771   5.294   1.327   8.156 -0.0837 -0.4599 -0.7518
  151SAPE  H13X16772   5.249   1.245   8.097 -2.9298  0.8136 -0.5324
  151SAPE  H13Y16773   5.203   1.373   8.201 -1.8095 -2.7398 -1.7438
  151SAPE  C31416774   5.375   1.252   8.268 -0.0492 -0.5375 -0.1855
  151SAPE  H14X16775   5.407   1.323   8.347 -1.7440 -1.0356  0.9900
  151SAPE  H14Y16776   5.474   1.208   8.243  0.5895 -0.2063  1.6106
  151SAPE  C31516777   5.295   1.141   8.338  0.9783 -0.3959 -0.3548
  151SAPE  H15X16778   5.289   1.052   8.272 -1.1630  0.8497 -1.9615
  151SAPE  H15Y16779   5.195   1.185   8.358  2.2152  1.7816  1.5713
  151SAPE  C31616780   5.349   1.099   8.481 -0.5266 -0.6153 -0.0233
  151SAPE  H16X16781   5.284   1.011   8.501  0.7260 -0.9199  3.4009
  151SAPE  H16Y16782   5.337   1.177   8.560  0.1114 -1.6785  1.1725
  151SAPE  C31716783   5.490   1.045   8.486 -0.1215 -0.6392  0.2060
  151SAPE  H17X16784   5.570   1.118   8.463  0.5657 -0.3613  3.1175
  151SAPE  H17Y16785   5.485   0.962   8.411 -0.6084 -1.0461  0.6760
  151SAPE  C31816786   5.542   0.992   8.620 -0.0875 -0.1288  0.4542
  151SAPE  H18X16787   5.468   0.916   8.654  0.3169 -1.3462 -1.2365
  151SAPE  H18Y16788   5.548   1.068   8.701  0.3001 -0.0614  0.3643
  151SAPE  H18Z16789   5.641   0.949   8.594 -0.5758  0.1025 -2.0719
  152SAPE     N16790   1.795   2.660   6.528 -0.7547  0.5287  0.1718
  152SAPE   HN116791   1.732   2.711   6.462 -1.7095 -2.4668 -1.3964
  152SAPE   HN216792   1.846   2.586   6.476  2.8934  2.1511  1.1229
  152SAPE   HN316793   1.726   2.622   6.595  0.6332  0.5038  1.6602
  152SAPE   C1216794   1.884   2.754   6.605 -0.1483 -0.1533  0.0638
  152SAPE  H12A16795   1.932   2.697   6.687  0.2275  1.5912  1.1036
  152SAPE  H12B16796   1.827   2.836   6.653  0.6042  1.2186 -1.3061
  152SAPE   C1116797   1.987   2.812   6.509  0.2157 -0.8703 -0.5007
  152SAPE  H11A16798   2.069   2.738   6.497 -1.5051 -3.2196  1.2503
  152SAPE  H11B16799   2.021   2.902   6.565 -0.2028 -1.6260  1.0192
  152SAPE     P16800   1.970   2.987   6.313  0.6604 -0.0241 -0.0125
  152SAPE   O1316801   2.124   3.004   6.315 -0.2258  0.2271 -0.3405
  152SAPE   O1416802   1.911   2.997   6.173 -0.1979  0.1681 -0.6906
  152SAPE   O1216803   1.921   2.854   6.389 -0.6655 -0.0953  0.1909
  152SAPE   O1116804   1.909   3.111   6.394  0.6622 -0.0030 -0.6524
  152SAPE    C116805   1.775   3.108   6.442 -0.0302  0.1291  0.4053
  152SAPE    HA16806   1.713   3.165   6.369  0.4051 -1.0055 -0.8980
  152SAPE    HB16807   1.735   3.005   6.442 -1.7505  0.7291 -0.9833
  152SAPE    C216808   1.751   3.166   6.580 -0.1939  0.6525  0.9633
  152SAPE    HS16809   1.783   3.272   6.569  1.1790  0.0268 -1.7749
  152SAPE   O2116810   1.833   3.087   6.663  0.1880 -0.2612 -0.2793
  152SAPE   C2116811   1.885   3.148   6.764  0.0970 -0.0917 -0.1385
  152SAPE   O2216812   1.863   3.264   6.798 -0.3498  0.2545  0.1519
  152SAPE   C2216813   1.959   3.042   6.834  0.4433  0.1981 -0.0470
  152SAPE   H2R16814   2.024   2.993   6.759  0.4128 -1.3850  0.9241
  152SAPE   H2S16815   2.027   3.087   6.909  2.2714 -2.2150 -0.1453
  152SAPE    C316816   1.602   3.151   6.619 -0.2658  0.3652  0.4608
  152SAPE    HX16817   1.580   3.042   6.618 -0.0189  0.3037 -1.2636
  152SAPE    HY16818   1.542   3.203   6.541 -1.8063 -0.4016  1.0759
  152SAPE   O3116819   1.569   3.217   6.743 -0.4635  0.0138  0.2243
  152SAPE   C3116820   1.484   3.160   6.824  0.3753  0.0299  0.2152
  152SAPE   O3216821   1.438   3.049   6.803 -0.1231 -0.3054  0.1750
  152SAPE   C3216822   1.445   3.255   6.937  0.3910  0.3054  0.2583
  152SAPE   H2X16823   1.362   3.314   6.893 -1.0903 -1.9681 -0.2111
  152SAPE   H2Y16824   1.530   3.319   6.968 -1.5515  2.9441  0.5067
  152SAPE   C2316825   1.871   2.949   6.920  1.4072 -0.2839 -0.2217
  152SAPE   H3R16826   1.928   2.867   6.968 -1.0158 -0.8805  1.8771
  152SAPE   H3S16827   1.791   2.891   6.869  1.3316  0.2937 -0.7674
  152SAPE   C2416828   1.805   3.031   7.036 -0.3223  0.4489  0.4886
  152SAPE   H4R16829   1.719   3.093   7.003  0.1818  0.4231 -0.9038
  152SAPE   H4S16830   1.881   3.104   7.074 -1.3694  1.0434  1.5081
  152SAPE   C2516831   1.754   2.952   7.155 -0.5898 -0.2013  0.4657
  152SAPE   H5R16832   1.653   2.916   7.129 -0.0353  0.7798 -3.7570
  152SAPE   C2616833   1.829   2.919   7.264 -0.1377  0.3608  0.4097
  152SAPE   H6R16834   1.775   2.865   7.343 -0.6899 -2.2068 -1.6031
  152SAPE   C2716835   1.972   2.958   7.279  0.4580  0.1252 -0.4128
  152SAPE   H7R16836   1.987   3.052   7.337  0.6168  0.5029 -1.0599
  152SAPE   H7S16837   2.026   2.974   7.183  1.6095 -1.6302 -0.1005
  152SAPE   C2816838   2.035   2.846   7.355  0.3184  0.2445 -0.1727
  152SAPE   H8R16839   2.082   2.766   7.294  1.4929  0.7354  0.0543
  152SAPE   C2916840   2.034   2.820   7.485 -0.4799  1.0589 -0.5957
  152SAPE   H9R16841   2.084   2.733   7.529 -0.6748  1.6204  0.8020
  152SAPE  C21016842   1.967   2.904   7.588 -0.1447  0.2192 -0.6253
  152SAPE  H10R16843   1.873   2.945   7.546 -0.6329  2.0275  1.9935
  152SAPE  H10S16844   2.037   2.985   7.617 -0.9159  0.7653 -0.2962
  152SAPE  C21116845   1.914   2.833   7.709 -0.4011 -0.6799  0.2235
  152SAPE  H11R16846   1.882   2.733   7.674  0.0482 -1.3546  1.6698
  152SAPE  C21216847   1.911   2.871   7.841 -0.7786 -0.0615  0.1394
  152SAPE  H12R16848   1.869   2.804   7.917 -0.3711 -2.7069 -1.8484
  152SAPE  C21316849   1.947   3.009   7.904 -0.6035  0.7659  0.7198
  152SAPE  H13R16850   2.010   3.073   7.838 -0.4701  0.1144  0.2039
  152SAPE  H13S16851   2.021   2.990   7.984  1.3030  0.1149 -1.1041
  152SAPE  C21416852   1.836   3.096   7.947 -0.2474  0.0030  0.4412
  152SAPE  H14R16853   1.812   3.166   7.866  0.0783  2.1016  2.0864
  152SAPE  C21516854   1.786   3.095   8.067 -0.2542  0.0667 -0.4668
  152SAPE  H15R16855   1.701   3.160   8.091 -0.1817  0.4961 -1.3271
  152SAPE  C21616856   1.835   3.001   8.176  0.4143 -0.5375 -0.4165
  152SAPE  H16R16857   1.914   3.059   8.227  0.3764 -1.7424  1.1092
  152SAPE  H16S16858   1.885   2.907   8.143 -0.5322 -1.6528  1.1474
  152SAPE  C21716859   1.722   2.969   8.275 -0.0257  0.7506  0.0465
  152SAPE  H17R16860   1.677   3.062   8.318  0.5614  0.4502  1.3689
  152SAPE  H17S16861   1.763   2.915   8.363 -1.7678 -1.3347 -0.3564
  152SAPE  C21816862   1.609   2.882   8.218  0.4329  0.2789  0.1653
  152SAPE  H18R16863   1.646   2.779   8.195 -1.7623 -0.2664 -1.2830
  152SAPE  H18S16864   1.571   2.920   8.121 -0.6073  1.0224  0.8482
  152SAPE  C21916865   1.484   2.879   8.309  0.6738  0.3801 -0.7224
  152SAPE  H19R16866   1.521   2.827   8.400 -1.1560 -0.2327 -0.2920
  152SAPE  H19S16867   1.411   2.811   8.259 -0.4087 -1.0682  2.5482
  152SAPE  C22016868   1.419   3.012   8.340  0.4133 -0.2121 -0.9366
  152SAPE  H20R16869   1.405   3.085   8.258 -3.7413 -0.1582 -0.3538
  152SAPE  H20S16870   1.470   3.060   8.427  1.4415 -0.8776 -1.1556
  152SAPE  H20T16871   1.314   3.001   8.374  0.5881  0.5801 -0.0916
  152SAPE   C3316872   1.406   3.166   7.063 -0.6265  0.9923 -0.3498
  152SAPE   H3X16873   1.500   3.114   7.088 -0.0801  1.3391 -1.5858
  152SAPE   H3Y16874   1.324   3.095   7.035 -0.7704  0.4640  1.3309
  152SAPE   C3416875   1.366   3.251   7.177  1.2885 -0.4296 -0.3040
  152SAPE   H4X16876   1.286   3.318   7.141  1.9342  1.3316  1.3415
  152SAPE   H4Y16877   1.450   3.321   7.198 -0.2564  1.5264 -0.4006
  152SAPE   C3516878   1.325   3.182   7.307  0.3555 -0.0368 -0.5195
  152SAPE   H5X16879   1.240   3.116   7.280 -2.1585  1.3513  3.2336
  152SAPE   H5Y16880   1.294   3.269   7.369  1.0597  1.0104 -1.5737
  152SAPE   C3616881   1.434   3.110   7.373 -0.9024 -0.4787 -0.2353
  152SAPE   H6X16882   1.525   3.172   7.387 -0.8839 -0.7604  1.0856
  152SAPE   H6Y16883   1.457   3.021   7.310 -1.5462 -1.6947  1.1947
  152SAPE   C3716884   1.389   3.059   7.517 -0.2919 -0.4573 -0.0803
  152SAPE   H7X16885   1.282   3.029   7.518 -0.7046  0.8186 -1.6791
  152SAPE   H7Y16886   1.403   3.146   7.584 -1.4970 -0.6646  0.4804
  152SAPE   C3816887   1.480   2.943   7.566  0.2017 -0.0034  0.4072
  152SAPE   H8X16888   1.582   2.971   7.532 -0.3712 -1.5794 -3.1216
  152SAPE   H8Y16889   1.465   2.848   7.510  1.6402 -1.0223  1.6960
  152SAPE   C3916890   1.491   2.925   7.716  0.1171  0.0138 -0.1520
  152SAPE   H9X16891   1.557   3.001   7.764 -1.0899  1.0691 -0.1293
  152SAPE   H9Y16892   1.543   2.829   7.737 -1.2319 -0.4394  1.2322
  152SAPE  C31016893   1.361   2.916   7.787  0.2669  0.0015 -0.0589
  152SAPE  H10X16894   1.295   2.839   7.741  0.8629 -1.2076  1.0426
  152SAPE  H10Y16895   1.309   3.012   7.765 -2.4061 -1.6997 -1.7107
  152SAPE  C31116896   1.371   2.896   7.937  0.0816 -0.8923 -1.1491
  152SAPE  H11X16897   1.435   2.978   7.976  0.9574 -1.0254 -2.2460
  152SAPE  H11Y16898   1.418   2.800   7.968 -0.0859 -0.0471  2.1537
  152SAPE  C31216899   1.236   2.904   8.004  0.4629  0.2454  0.1980
  152SAPE  H12X16900   1.242   2.878   8.111  2.4861 -2.3767 -0.4435
  152SAPE  H12Y16901   1.168   2.822   7.973  1.6958 -0.2728 -1.2597
  152SAPE  C31316902   1.165   3.044   7.988  0.4321  1.4071 -0.0985
  152SAPE  H13X16903   1.115   3.048   7.889 -1.0383  2.5623  0.6519
  152SAPE  H13Y16904   1.236   3.129   7.992  0.5805  1.3274 -0.8428
  152SAPE  C31416905   1.064   3.075   8.095  0.1913  0.0583 -0.1879
  152SAPE  H14X16906   1.101   3.068   8.200  2.3959 -0.6449 -0.9423
  152SAPE  H14Y16907   0.980   3.003   8.086  0.0604  0.4762 -3.3411
  152SAPE  C31516908   0.997   3.214   8.087 -0.4043 -0.0163  0.4384
  152SAPE  H15X16909   1.001   3.255   7.983 -2.2596  1.3724  0.8711
  152SAPE  H15Y16910   1.059   3.286   8.145  0.0291  0.0065 -0.0447
  152SAPE  C31616911   0.853   3.198   8.114 -0.3268  0.3748  0.2741
  152SAPE  H16X16912   0.835   3.137   8.205 -0.2065  0.1580  0.1514
  152SAPE  H16Y16913   0.808   3.142   8.029  0.2934  1.8096 -1.0396
  152SAPE  C31716914   0.801   3.342   8.130 -0.2476 -0.3632  0.2245
  152SAPE  H17X16915   0.692   3.349   8.109 -0.2213  1.2593  0.4873
  152SAPE  H17Y16916   0.852   3.399   8.049 -0.3197 -1.3524 -0.5392
  152SAPE  C31816917   0.824   3.405   8.268  0.2671  0.2835  0.0767
  152SAPE  H18X16918   0.771   3.343   8.343  1.0606 -0.4083  0.0858
  152SAPE  H18Y16919   0.789   3.510   8.261  0.1787  0.2544  0.0852
  152SAPE  H18Z16920   0.935   3.402   8.272  0.2641 -2.1576  0.3270
  153SAPE     N16921   5.136   5.759   6.368 -0.5070  0.0413  0.7809
  153SAPE   HN116922   5.039   5.723   6.371 -1.7446  2.9355 -0.4802
  153SAPE   HN216923   5.163   5.794   6.274  0.3953 -1.7628  0.3127
  153SAPE   HN316924   5.200   5.683   6.398  0.7966  1.0241  0.5745
  153SAPE   C1216925   5.144   5.878   6.469 -0.3552  0.0500 -0.0600
  153SAPE  H12A16926   5.171   5.833   6.568  0.8214  0.8044 -0.0209
  153SAPE  H12B16927   5.046   5.927   6.488 -0.2661  0.5512 -0.8590
  153SAPE   C1116928   5.253   5.974   6.428 -0.4290 -0.0479 -0.4575
  153SAPE  H11A16929   5.275   6.050   6.506  0.5340 -0.4250 -0.3373
  153SAPE  H11B16930   5.233   6.021   6.330  3.1938 -1.4043 -2.0328
  153SAPE     P16931   5.511   5.963   6.370  0.1243  0.1067  0.1098
  153SAPE   O1316932   5.545   5.899   6.239  0.1771 -0.4129 -0.3129
  153SAPE   O1416933   5.493   6.109   6.372 -0.4785  0.4966  0.0385
  153SAPE   O1216934   5.371   5.894   6.420 -0.5020 -0.7070 -0.5009
  153SAPE   O1116935   5.612   5.922   6.485 -0.2546  0.6277 -0.2225
  153SAPE    C116936   5.631   5.786   6.522 -0.2834 -0.7827 -0.4360
  153SAPE    HA16937   5.577   5.708   6.465 -0.3520 -1.3237  0.3418
  153SAPE    HB16938   5.739   5.770   6.503  0.1036  2.2639 -1.2822
  153SAPE    C216939   5.599   5.762   6.679 -0.3145 -0.0046  0.3898
  153SAPE    HS16940   5.663   5.839   6.727  1.4108 -0.9250 -0.3522
  153SAPE   O2116941   5.637   5.634   6.717  0.2173  0.5604 -0.1509
  153SAPE   C2116942   5.764   5.610   6.748  0.1278 -0.9105  0.6417
  153SAPE   O2216943   5.854   5.690   6.722  0.1241  0.3001 -0.1514
  153SAPE   C2216944   5.763   5.500   6.848 -0.4872 -0.4879 -0.5573
  153SAPE   H2R16945   5.659   5.475   6.877 -1.5679 -0.1297 -3.8006
  153SAPE   H2S16946   5.803   5.409   6.798  0.8851  0.7199 -1.7429
  153SAPE    C316947   5.451   5.789   6.722  0.0632  0.6774 -0.0941
  153SAPE    HX16948   5.399   5.694   6.698  1.4117 -0.7546  2.2452
  153SAPE    HY16949   5.416   5.871   6.656 -1.1182  2.0866  2.1406
  153SAPE   O3116950   5.443   5.821   6.866  0.3962 -0.4449  0.2271
  153SAPE   C3116951   5.325   5.822   6.918  0.7343 -0.4650 -0.4032
  153SAPE   O3216952   5.218   5.806   6.857  0.6376  0.1259  0.0733
  153SAPE   C3216953   5.352   5.854   7.065 -0.1270  0.1030  0.0946
  153SAPE   H2X16954   5.437   5.792   7.100  0.9367  0.2313 -2.0384
  153SAPE   H2Y16955   5.259   5.816   7.112  0.2240 -0.0564  0.6725
  153SAPE   C2316956   5.854   5.525   6.970  0.1176 -0.3154  0.6273
  153SAPE   H3R16957   5.959   5.541   6.937  0.0787  0.9087  1.0714
  153SAPE   H3S16958   5.848   5.432   7.031 -0.5672 -0.3648  0.4890
  153SAPE   C2416959   5.807   5.644   7.058  0.6546  0.1530 -0.1554
  153SAPE   H4R16960   5.814   5.736   6.996  0.3549  0.1558 -0.1882
  153SAPE   H4S16961   5.893   5.639   7.128 -0.9769 -0.6711  1.9016
  153SAPE   C2516962   5.672   5.640   7.125 -0.7360  0.0809  0.5547
  153SAPE   H5R16963   5.600   5.678   7.051 -0.4526 -0.0802  0.1937
  153SAPE   C2616964   5.642   5.597   7.247  0.3301 -0.4685 -0.1767
  153SAPE   H6R16965   5.539   5.607   7.282  0.8015 -2.2407  1.9234
  153SAPE   C2716966   5.733   5.533   7.346 -0.3381 -1.0596 -0.3805
  153SAPE   H7R16967   5.829   5.508   7.295 -1.1280  0.5079 -2.8296
  153SAPE   H7S16968   5.696   5.434   7.380  1.2967 -1.4744  0.2933
  153SAPE   C2816969   5.780   5.622   7.453 -0.1035  0.6812 -0.2239
  153SAPE   H8R16970   5.834   5.710   7.415 -0.4854  0.2678 -1.7623
  153SAPE   C2916971   5.776   5.608   7.586  1.1757 -0.2301 -0.8358
  153SAPE   H9R16972   5.815   5.690   7.648  0.3797 -1.3230  1.2035
  153SAPE  C21016973   5.724   5.485   7.656 -0.6755  0.2992  0.3725
  153SAPE  H10R16974   5.800   5.465   7.735  0.4915  2.2774 -0.1835
  153SAPE  H10S16975   5.733   5.397   7.588 -2.3533  1.7589 -1.8555
  153SAPE  C21116976   5.587   5.510   7.693  0.4337 -0.0615  0.4931
  153SAPE  H11R16977   5.520   5.550   7.616  0.6707  0.5233  0.5764
  153SAPE  C21216978   5.538   5.504   7.818 -0.9947 -0.3145  0.8831
  153SAPE  H12R16979   5.435   5.540   7.831 -0.8987  0.1954  0.2872
  153SAPE  C21316980   5.612   5.460   7.940 -0.2386 -0.1316 -0.3844
  153SAPE  H13R16981   5.676   5.543   7.978 -1.0003 -0.8038  2.5824
  153SAPE  H13S16982   5.677   5.374   7.915  1.5850  1.2130 -0.4544
  153SAPE  C21416983   5.519   5.413   8.049 -0.2460 -0.2196  0.4473
  153SAPE  H14R16984   5.432   5.349   8.027  0.6291 -1.1184 -0.4772
  153SAPE  C21516985   5.535   5.453   8.180  0.3198  0.0941 -0.1837
  153SAPE  H15R16986   5.464   5.418   8.256  0.1615  2.0801  0.6220
  153SAPE  C21616987   5.640   5.556   8.222 -0.1951  1.1845  0.2487
  153SAPE  H16R16988   5.612   5.584   8.326 -2.1171 -2.3010  0.8171
  153SAPE  H16S16989   5.629   5.649   8.161 -0.6087  1.1010  0.1931
  153SAPE  C21716990   5.789   5.512   8.223 -0.1957  0.3420 -0.2857
  153SAPE  H17R16991   5.809   5.444   8.138 -0.2203 -1.0331  0.7809
  153SAPE  H17S16992   5.811   5.451   8.313  0.4871  1.2288  0.1678
  153SAPE  C21816993   5.891   5.632   8.220 -0.4264  0.3480 -0.8396
  153SAPE  H18R16994   5.894   5.663   8.326 -1.2882  1.3901 -1.1069
  153SAPE  H18S16995   5.857   5.718   8.158 -0.1425  0.7756 -0.4079
  153SAPE  C21916996   6.020   5.588   8.164 -0.4909 -0.4662 -0.1670
  153SAPE  H19R16997   6.061   5.498   8.215 -0.4206 -0.6933 -0.6159
  153SAPE  H19S16998   6.099   5.664   8.182  2.7803 -3.2823 -1.5325
  153SAPE  C22016999   6.022   5.570   8.009  0.4157 -0.4298 -0.7348
  153SAPE  H20R17000   5.970   5.661   7.973  1.0993  1.5221  2.6550
  153SAPE  H20S17001   5.968   5.479   7.978 -2.5226 -0.0274  2.5363
  153SAPE  H20T17002   6.130   5.559   7.986  0.4589 -0.1392 -0.6799
  153SAPE   C3317003   5.373   6.007   7.081 -0.2909  0.5827  0.4913
  153SAPE   H3X17004   5.290   6.057   7.027  0.9792  2.0538 -0.1870
  153SAPE   H3Y17005   5.473   6.037   7.044  1.7461 -1.6629  3.6334
  153SAPE   C3417006   5.336   6.057   7.223  0.2735  0.1451 -0.7354
  153SAPE   H4X17007   5.250   5.997   7.261  0.9647  1.6663  3.8088
  153SAPE   H4Y17008   5.288   6.157   7.214 -1.9820 -0.5550  2.0115
  153SAPE   C3517009   5.456   6.045   7.313 -0.7674  0.6076  0.0403
  153SAPE   H5X17010   5.539   6.116   7.294 -0.7477  0.8718  1.0850
  153SAPE   H5Y17011   5.493   5.944   7.283 -2.0020  0.3524 -0.7312
  153SAPE   C3617012   5.414   6.045   7.465  0.3209 -0.5235 -0.4781
  153SAPE   H6X17013   5.334   5.971   7.485  0.8357 -0.5229  1.8803
  153SAPE   H6Y17014   5.360   6.134   7.502 -4.6741 -3.3238 -0.1869
  153SAPE   C3717015   5.524   6.003   7.561  0.2008 -0.2024  0.1563
  153SAPE   H7X17016   5.622   6.055   7.554  1.2460 -2.1612 -0.5428
  153SAPE   H7Y17017   5.541   5.895   7.545 -0.8038 -0.2555 -0.6576
  153SAPE   C3817018   5.479   6.016   7.708 -0.4912 -0.6376  0.8226
  153SAPE   H8X17019   5.386   5.955   7.713 -1.3489  0.6753  1.5738
  153SAPE   H8Y17020   5.466   6.125   7.728  1.4824 -0.5653  1.9148
  153SAPE   C3917021   5.576   5.963   7.815 -0.0503  0.1549  0.6811
  153SAPE   H9X17022   5.673   6.017   7.803  0.5339 -1.3862 -3.0425
  153SAPE   H9Y17023   5.605   5.858   7.792  2.0675  0.8476 -0.1372
  153SAPE  C31017024   5.512   5.972   7.955  0.0313  0.0860 -0.1224
  153SAPE  H10X17025   5.430   5.899   7.961  0.0224  0.1998  2.0839
  153SAPE  H10Y17026   5.463   6.071   7.965 -2.1385 -0.8423 -1.1512
  153SAPE  C31117027   5.618   5.947   8.062  0.7276  0.9241 -0.5793
  153SAPE  H11X17028   5.707   6.006   8.032  1.4919 -1.3279 -3.1872
  153SAPE  H11Y17029   5.650   5.840   8.064  0.1429  0.7529  0.3997
  153SAPE  C31217030   5.551   5.974   8.202 -0.1923 -0.4290 -0.1758
  153SAPE  H12X17031   5.523   6.082   8.203 -0.4533 -0.4756 -1.0745
  153SAPE  H12Y17032   5.623   5.967   8.286 -0.7461 -0.6974  0.2845
  153SAPE  C31317033   5.422   5.898   8.228  0.0593 -0.0995 -0.0780
  153SAPE  H13X17034   5.439   5.789   8.213 -0.2517 -0.2788  0.7966
  153SAPE  H13Y17035   5.338   5.927   8.161 -0.6065 -1.0219  0.3279
  153SAPE  C31417036   5.380   5.916   8.373 -0.1342  0.3262 -0.6369
  153SAPE  H14X17037   5.469   5.907   8.438  0.9756  1.1619 -1.9568
  153SAPE  H14Y17038   5.310   5.833   8.398  2.4356 -1.8759 -0.3203
  153SAPE  C31517039   5.319   6.050   8.387 -0.1237 -0.4862  0.5743
  153SAPE  H15X17040   5.227   6.050   8.325  0.5496  2.3797 -0.5830
  153SAPE  H15Y17041   5.369   6.136   8.337 -2.1329 -0.4140 -1.4547
  153SAPE  C31617042   5.274   6.082   8.529 -0.1603  0.0738 -0.8061
  153SAPE  H16X17043   5.345   6.064   8.612 -0.9743  0.3343 -0.0399
  153SAPE  H16Y17044   5.188   6.016   8.557  0.4889  0.1170  1.4897
  153SAPE  C31717045   5.243   6.235   8.529 -0.0111 -0.3942  0.5505
  153SAPE  H17X17046   5.154   6.260   8.466  0.0426  1.1992  1.0818
  153SAPE  H17Y17047   5.326   6.298   8.491 -0.6119 -0.0526 -0.2450
  153SAPE  C31817048   5.216   6.281   8.669  0.6321  0.3473  0.2267
  153SAPE  H18X17049   5.221   6.392   8.682  0.7915  0.5068 -1.1265
  153SAPE  H18Y17050   5.281   6.235   8.746  0.6731 -0.0232 -0.0319
  153SAPE  H18Z17051   5.115   6.248   8.702  1.2107 -0.7447  0.9830
  154SAPE     N17052   2.597   3.701   6.536  0.4895 -0.4354  0.9694
  154SAPE   HN117053   2.549   3.652   6.614  0.9285  0.5311  1.8689
  154SAPE   HN217054   2.556   3.796   6.522 -0.2462 -1.2377 -4.5851
  154SAPE   HN317055   2.561   3.647   6.454 -1.1566 -0.4173  1.6320
  154SAPE   C1217056   2.749   3.701   6.531  0.6758  0.5051  0.0056
  154SAPE  H12A17057   2.789   3.600   6.552  1.8748  0.8339 -0.5518
  154SAPE  H12B17058   2.776   3.781   6.603 -2.0639  1.7200 -0.1803
  154SAPE   C1117059   2.796   3.745   6.386 -0.2104 -0.0747  0.2576
  154SAPE  H11A17060   2.774   3.655   6.324 -4.5783 -0.6578  2.2692
  154SAPE  H11B17061   2.904   3.773   6.384 -0.1827 -0.2215 -1.7686
  154SAPE     P17062   2.751   3.920   6.203 -0.3875  0.1338 -0.0583
  154SAPE   O1317063   2.885   3.869   6.166  0.4375 -0.0907 -0.1021
  154SAPE   O1417064   2.642   3.888   6.110  0.0768 -0.3378  0.2955
  154SAPE   O1217065   2.714   3.852   6.337 -0.2375 -0.5990  0.1277
  154SAPE   O1117066   2.757   4.079   6.234 -0.4700  0.2253 -0.0890
  154SAPE    C117067   2.693   4.120   6.357  0.1181 -0.1730  0.0164
  154SAPE    HA17068   2.589   4.080   6.353  0.4223 -1.1079  0.9335
  154SAPE    HB17069   2.752   4.093   6.448  1.3104 -1.1893 -1.0199
  154SAPE    C217070   2.664   4.272   6.372  0.0541  0.4970  0.0542
  154SAPE    HS17071   2.624   4.314   6.277 -2.6237  1.1240  1.3629
  154SAPE   O2117072   2.795   4.336   6.397 -0.4785  0.1763 -0.0286
  154SAPE   C2117073   2.782   4.469   6.408 -0.0759 -0.1933 -0.0117
  154SAPE   O2217074   2.685   4.532   6.366 -0.4761  0.3558 -0.1577
  154SAPE   C2217075   2.915   4.518   6.476  0.4019  0.2850  0.3349
  154SAPE   H2R17076   2.990   4.437   6.460 -1.1546 -1.1416 -0.0492
  154SAPE   H2S17077   2.948   4.601   6.410 -3.1364 -0.9826 -3.4825
  154SAPE    C317078   2.560   4.288   6.486  0.0519  0.7219  0.3715
  154SAPE    HX17079   2.465   4.235   6.461  1.5357 -1.5294 -0.7524
  154SAPE    HY17080   2.535   4.396   6.485  1.5821  1.1346  1.6819
  154SAPE   O3117081   2.599   4.225   6.609  0.4438  0.1196  0.3354
  154SAPE   C3117082   2.580   4.314   6.711 -0.2451 -0.1960 -0.4380
  154SAPE   O3217083   2.530   4.424   6.705 -0.1025  0.1654 -0.2646
  154SAPE   C3217084   2.610   4.242   6.841 -0.4723 -0.0217 -0.0866
  154SAPE   H2X17085   2.720   4.229   6.845 -0.5180 -0.2528  0.4348
  154SAPE   H2Y17086   2.574   4.137   6.842 -0.3752 -0.0601  1.1200
  154SAPE   C2317087   2.906   4.557   6.625  0.1759  0.5505  0.3234
  154SAPE   H3R17088   2.858   4.481   6.690 -1.4509  1.3398  0.0962
  154SAPE   H3S17089   2.842   4.647   6.635 -0.2687  0.0113  3.4023
  154SAPE   C2417090   3.043   4.600   6.689  0.7345  0.5481  0.1981
  154SAPE   H4R17091   3.025   4.672   6.771 -0.8009  1.3923 -0.8268
  154SAPE   H4S17092   3.097   4.665   6.616  1.5557  2.1483  2.1454
  154SAPE   C2517093   3.140   4.483   6.720  1.3680 -0.0146  0.0119
  154SAPE   H5R17094   3.207   4.466   6.634  1.9825 -0.1389  0.5147
  154SAPE   C2617095   3.157   4.427   6.836  0.5395  0.3481 -0.2594
  154SAPE   H6R17096   3.235   4.350   6.850 -0.9594 -1.3657 -0.9366
  154SAPE   C2717097   3.073   4.452   6.960  0.1740 -0.5415 -0.2607
  154SAPE   H7R17098   2.993   4.528   6.943 -1.1528 -1.4622  1.5364
  154SAPE   H7S17099   3.140   4.497   7.036  1.2988 -0.2438 -1.3875
  154SAPE   C2817100   2.994   4.326   7.009  0.2388 -0.8992  0.1760
  154SAPE   H8R17101   2.925   4.286   6.933  0.6800 -1.9123  0.2866
  154SAPE   C2917102   3.007   4.262   7.122  0.4479 -0.0272  0.5016
  154SAPE   H9R17103   2.949   4.173   7.152  0.1473  0.0151  0.0672
  154SAPE  C21017104   3.107   4.280   7.230 -0.0102 -0.5957  0.0491
  154SAPE  H10R17105   3.086   4.381   7.271 -1.6691  0.1570 -2.3764
  154SAPE  H10S17106   3.212   4.275   7.195  0.4163  0.2739  1.1496
  154SAPE  C21117107   3.118   4.170   7.336 -0.6635 -0.7067  0.5943
  154SAPE  H11R17108   3.172   4.083   7.296  0.8596  0.6073 -0.3038
  154SAPE  C21217109   3.078   4.174   7.458  0.0276  0.0440  0.2559
  154SAPE  H12R17110   3.109   4.086   7.517 -1.0997 -0.5170  0.0522
  154SAPE  C21317111   3.002   4.292   7.526  0.3280  0.5993 -0.6644
  154SAPE  H13R17112   2.961   4.368   7.455 -0.9885  1.1147  0.5958
  154SAPE  H13S17113   3.079   4.339   7.590  2.2132 -1.7317 -1.0755
  154SAPE  C21417114   2.900   4.231   7.614 -0.0571 -0.0796  0.1791
  154SAPE  H14R17115   2.810   4.190   7.566 -0.3266  0.4952  0.1911
  154SAPE  C21517116   2.897   4.231   7.749  0.3552  0.1957  0.7842
  154SAPE  H15R17117   2.822   4.178   7.810  1.2007  0.2456  1.9054
  154SAPE  C21617118   2.994   4.292   7.840 -0.8802 -0.3320  0.1230
  154SAPE  H16R17119   2.972   4.397   7.867  1.3755  0.1702  0.1543
  154SAPE  H16S17120   3.089   4.295   7.784 -2.2132 -0.6044 -2.2595
  154SAPE  C21717121   3.014   4.200   7.959 -1.0735  0.1570 -0.5838
  154SAPE  H17R17122   3.004   4.097   7.919 -3.6263 -0.1160  0.5376
  154SAPE  H17S17123   2.932   4.210   8.034 -0.6155 -1.3921  0.1696
  154SAPE  C21817124   3.154   4.223   8.025 -0.2180 -0.6415 -0.0518
  154SAPE  H18R17125   3.237   4.255   7.959 -0.3538  1.6746  0.8055
  154SAPE  H18S17126   3.178   4.125   8.070 -1.3635 -0.9105  0.0088
  154SAPE  C21917127   3.157   4.326   8.132 -0.4221  0.0583 -0.0598
  154SAPE  H19R17128   3.073   4.305   8.202 -1.2939  0.3511 -0.9989
  154SAPE  H19S17129   3.149   4.426   8.084 -0.8319 -0.1190 -0.3613
  154SAPE  C22017130   3.286   4.318   8.216  0.4682  0.1778 -0.2986
  154SAPE  H20R17131   3.374   4.338   8.151 -0.5730  2.7744 -1.0580
  154SAPE  H20S17132   3.294   4.223   8.273 -0.7686  0.4179  0.3019
  154SAPE  H20T17133   3.272   4.399   8.291 -0.8529 -0.4922  0.2139
  154SAPE   C3317134   2.557   4.322   6.962  0.2589 -0.1275 -0.4260
  154SAPE   H3X17135   2.446   4.330   6.961  0.2961  0.3826 -1.1911
  154SAPE   H3Y17136   2.606   4.422   6.959  1.7011 -0.8327 -1.8679
  154SAPE   C3417137   2.589   4.265   7.099 -0.4700 -0.7241 -0.2187
  154SAPE   H4X17138   2.696   4.240   7.117  0.2776  1.9035 -0.6224
  154SAPE   H4Y17139   2.531   4.170   7.102 -0.9767 -0.4130  0.0083
  154SAPE   C3517140   2.554   4.357   7.213  0.4015 -0.0149 -0.2334
  154SAPE   H5X17141   2.446   4.379   7.199  0.3129  1.6840  2.5142
  154SAPE   H5Y17142   2.621   4.445   7.212  1.5301 -0.8542 -0.5069
  154SAPE   C3617143   2.572   4.283   7.343 -0.2925 -0.3816  0.0466
  154SAPE   H6X17144   2.683   4.284   7.351 -0.1052 -3.3248 -0.8522
  154SAPE   H6Y17145   2.531   4.180   7.352  3.1160 -1.7293  2.2616
  154SAPE   C3717146   2.502   4.357   7.452 -0.7660 -0.2528 -1.0911
  154SAPE   H7X17147   2.393   4.338   7.442 -0.9704  0.7054 -0.8778
  154SAPE   H7Y17148   2.517   4.467   7.440  0.6724 -0.5675 -2.4500
  154SAPE   C3817149   2.558   4.315   7.592  0.4468  0.1225  0.0345
  154SAPE   H8X17150   2.644   4.382   7.613  0.2819  0.6971 -1.0669
  154SAPE   H8Y17151   2.565   4.205   7.602 -2.7912 -0.3055 -1.2409
  154SAPE   C3917152   2.465   4.353   7.712  0.2657 -1.2314 -0.4908
  154SAPE   H9X17153   2.362   4.314   7.697  0.2119 -1.1384 -0.3547
  154SAPE   H9Y17154   2.451   4.462   7.725  0.5241 -1.4755  2.5593
  154SAPE  C31017155   2.523   4.314   7.850  0.5549 -0.4044 -0.2827
  154SAPE  H10X17156   2.616   4.371   7.868  0.6346 -0.1090 -1.5450
  154SAPE  H10Y17157   2.558   4.209   7.857  1.3400 -0.0850  0.8155
  154SAPE  C31117158   2.419   4.335   7.962  0.2669 -0.3817 -1.0755
  154SAPE  H11X17159   2.320   4.290   7.938  0.9634 -1.5955 -1.7699
  154SAPE  H11Y17160   2.399   4.442   7.983  1.1612 -0.7066  1.8258
  154SAPE  C31217161   2.462   4.273   8.096 -0.3384 -0.1806  0.4777
  154SAPE  H12X17162   2.549   4.332   8.132  0.3716 -0.2605 -1.0250
  154SAPE  H12Y17163   2.492   4.167   8.082 -1.2752 -0.1800 -2.1014
  154SAPE  C31317164   2.355   4.293   8.201  0.2540  0.4397  0.3265
  154SAPE  H13X17165   2.265   4.267   8.142  1.0436  0.0771 -0.7455
  154SAPE  H13Y17166   2.348   4.395   8.245 -1.7845 -0.5599  2.5134
  154SAPE  C31417167   2.367   4.190   8.313  0.3050  0.3736  0.6407
  154SAPE  H14X17168   2.453   4.227   8.373 -0.3999  0.5002  1.6038
  154SAPE  H14Y17169   2.392   4.087   8.280 -1.7048 -0.4740  1.5825
  154SAPE  C31517170   2.244   4.192   8.401 -0.5375 -0.0780 -0.7930
  154SAPE  H15X17171   2.214   4.291   8.441  2.2223 -0.6612  3.2746
  154SAPE  H15Y17172   2.284   4.128   8.482  0.2639  0.9438 -0.3524
  154SAPE  C31617173   2.122   4.117   8.346 -0.0976 -0.4101 -0.0875
  154SAPE  H16X17174   2.134   4.008   8.327  0.5377 -0.2027 -0.9519
  154SAPE  H16Y17175   2.094   4.169   8.252  2.3445 -0.7449 -1.0811
  154SAPE  C31717176   2.008   4.130   8.454 -0.2095  0.3823  0.0059
  154SAPE  H17X17177   2.008   4.235   8.490 -1.7702  0.9469 -1.5045
  154SAPE  H17Y17178   2.024   4.069   8.546 -0.3050  1.5108  0.7928
  154SAPE  C31817179   1.873   4.103   8.388  0.3573  0.7397  0.8143
  154SAPE  H18X17180   1.845   4.173   8.307 -0.3871 -0.1232  0.2996
  154SAPE  H18Y17181   1.788   4.112   8.459  0.1645  1.8717  0.4590
  154SAPE  H18Z17182   1.859   4.005   8.336 -0.3493  0.6917  1.0801
  155SAPE     N17183   4.846   5.687   6.126  0.8300  0.3129  0.2971
  155SAPE   HN117184   4.907   5.603   6.120  0.5103  0.0760  0.3958
  155SAPE   HN217185   4.855   5.759   6.051 -1.4557  0.8485  0.4838
  155SAPE   HN317186   4.855   5.732   6.220 -0.3586  4.1157 -1.2246
  155SAPE   C1217187   4.703   5.627   6.116  1.2475 -0.9268  0.1559
  155SAPE  H12A17188   4.665   5.617   6.012  0.6623 -0.1761  0.2862
  155SAPE  H12B17189   4.640   5.707   6.160  0.3661 -0.5644 -1.6511
  155SAPE   C1117190   4.686   5.498   6.195  0.9814  0.1102 -0.5163
  155SAPE  H11A17191   4.759   5.421   6.161  2.0187  0.2574  1.2547
  155SAPE  H11B17192   4.584   5.461   6.172  1.2821 -1.5875  0.7007
  155SAPE     P17193   4.818   5.490   6.418  0.0978  0.2058  0.2706
  155SAPE   O1317194   4.867   5.355   6.381  0.1821  0.5502 -0.2087
  155SAPE   O1417195   4.910   5.609   6.407 -0.0251 -0.7160 -0.5441
  155SAPE   O1217196   4.691   5.522   6.336  0.0883  0.0382 -0.0549
  155SAPE   O1117197   4.754   5.476   6.561 -0.5652 -0.2502 -0.3531
  155SAPE    C117198   4.644   5.392   6.582  0.4334 -0.6004  0.5887
  155SAPE    HA17199   4.556   5.447   6.620  1.9017  1.7863  0.7773
  155SAPE    HB17200   4.608   5.344   6.489  2.0060 -0.7810  0.0318
  155SAPE    C217201   4.671   5.268   6.677 -0.2725  0.1308  0.3378
  155SAPE    HS17202   4.575   5.217   6.699 -0.1625  0.2976  1.2537
  155SAPE   O2117203   4.735   5.310   6.800 -0.3682 -0.4130  0.4846
  155SAPE   C2117204   4.655   5.359   6.891 -0.1030 -0.2822 -0.2863
  155SAPE   O2217205   4.538   5.384   6.879 -0.3932  0.2505  0.5316
  155SAPE   C2217206   4.736   5.357   7.022 -0.0781  0.1943  1.0822
  155SAPE   H2R17207   4.778   5.255   7.035  0.7297  0.2801 -0.5591
  155SAPE   H2S17208   4.819   5.427   6.999 -1.1155  0.9983 -0.3288
  155SAPE    C317209   4.767   5.159   6.602  0.6772  0.1432 -0.6338
  155SAPE    HX17210   4.861   5.218   6.595  2.1919 -2.0546  0.1111
  155SAPE    HY17211   4.736   5.141   6.497 -0.2133  3.4367 -1.0449
  155SAPE   O3117212   4.792   5.034   6.673  0.6541  0.4598 -0.0558
  155SAPE   C3117213   4.677   4.955   6.699 -0.8873 -0.0931  0.6144
  155SAPE   O3217214   4.567   4.994   6.667 -0.1842 -0.2862 -0.1837
  155SAPE   C3217215   4.715   4.822   6.753 -0.7687  0.4543 -0.3318
  155SAPE   H2X17216   4.818   4.830   6.793 -0.7645  0.3223 -0.3176
  155SAPE   H2Y17217   4.714   4.748   6.670 -3.3404 -1.5669  1.3442
  155SAPE   C2317218   4.667   5.420   7.143  0.0331 -0.3150 -0.2963
  155SAPE   H3R17219   4.573   5.368   7.172  0.2008 -2.0751 -2.5773
  155SAPE   H3S17220   4.649   5.527   7.118 -0.3414 -0.0681  0.9782
  155SAPE   C2417221   4.760   5.425   7.270 -0.4393  0.2914  0.0817
  155SAPE   H4R17222   4.704   5.481   7.347  0.8007 -1.5423  2.4739
  155SAPE   H4S17223   4.849   5.489   7.250  0.7901 -0.6191  2.1847
  155SAPE   C2517224   4.797   5.286   7.319  0.4990  0.0980  0.2470
  155SAPE   H5R17225   4.826   5.214   7.241 -0.3108  1.5069 -1.4093
  155SAPE   C2617226   4.789   5.245   7.446  0.0971  0.6541 -0.0516
  155SAPE   H6R17227   4.836   5.150   7.474 -0.3988  0.0669 -1.1599
  155SAPE   C2717228   4.735   5.334   7.563  0.4313  0.5382 -0.1583
  155SAPE   H7R17229   4.646   5.394   7.534  0.5329  1.6512  1.6627
  155SAPE   H7S17230   4.818   5.402   7.590  1.1400 -0.2462 -0.3259
  155SAPE   C2817231   4.696   5.249   7.683 -0.7598  0.1383  0.0762
  155SAPE   H8R17232   4.686   5.142   7.663 -0.3172  0.5612 -3.0637
  155SAPE   C2917233   4.694   5.289   7.808  0.9710 -0.2445  0.4588
  155SAPE   H9R17234   4.641   5.220   7.876 -1.0375 -1.0895 -1.8360
  155SAPE  C21017235   4.724   5.426   7.863  0.0963 -0.3950  0.0375
  155SAPE  H10R17236   4.771   5.483   7.779  2.2552 -1.8965  0.1497
  155SAPE  H10S17237   4.802   5.425   7.941  0.7296 -0.3379 -0.5800
  155SAPE  C21117238   4.606   5.504   7.921  0.7754  0.2518 -0.3243
  155SAPE  H11R17239   4.529   5.536   7.850  0.8134 -1.2233 -1.0488
  155SAPE  C21217240   4.597   5.552   8.046  0.2030  0.8056  0.0762
  155SAPE  H12R17241   4.501   5.601   8.065 -1.0810 -0.9556 -1.5632
  155SAPE  C21317242   4.695   5.540   8.162 -1.3386  0.2468 -0.3565
  155SAPE  H13R17243   4.770   5.620   8.149 -1.9053  0.8817  0.2017
  155SAPE  H13S17244   4.740   5.439   8.171 -0.0920  0.9042  1.1793
  155SAPE  C21417245   4.634   5.585   8.290  0.0867 -0.8567  0.0615
  155SAPE  H14R17246   4.556   5.662   8.289  0.2147 -0.7352 -1.0490
  155SAPE  C21517247   4.661   5.547   8.413 -0.0552  0.1368 -0.0830
  155SAPE  H15R17248   4.605   5.584   8.500 -0.6061 -1.2973  0.2001
  155SAPE  C21617249   4.748   5.441   8.468 -0.3585 -0.3778  0.1285
  155SAPE  H16R17250   4.813   5.481   8.549 -2.1705 -1.1374  2.0436
  155SAPE  H16S17251   4.810   5.404   8.384 -1.1104  0.7805 -0.9765
  155SAPE  C21717252   4.686   5.320   8.543  0.1543  0.1932  0.2890
  155SAPE  H17R17253   4.766   5.250   8.574  1.6450  2.2010  1.1799
  155SAPE  H17S17254   4.610   5.271   8.477 -0.1032  1.8815 -0.7451
  155SAPE  C21817255   4.597   5.355   8.662  0.1428 -0.1762  0.5431
  155SAPE  H18R17256   4.496   5.386   8.627 -0.8425 -2.8352  0.7998
  155SAPE  H18S17257   4.629   5.443   8.721  1.7552 -0.6133  0.3529
  155SAPE  C21917258   4.588   5.236   8.766 -0.3899 -0.6439 -0.4558
  155SAPE  H19R17259   4.690   5.205   8.797  0.8565  0.0546 -3.5644
  155SAPE  H19S17260   4.531   5.152   8.720 -0.7684  0.0137 -1.2061
  155SAPE  C22017261   4.515   5.291   8.891 -0.5650  0.0431  0.8770
  155SAPE  H20R17262   4.422   5.341   8.857 -0.9453 -0.9215  0.4702
  155SAPE  H20S17263   4.586   5.369   8.927  0.0673  0.8852 -1.9330
  155SAPE  H20T17264   4.497   5.215   8.970 -0.4795 -0.4801  0.3976
  155SAPE   C3317265   4.635   4.784   6.879  0.4169 -1.0108 -0.1729
  155SAPE   H3X17266   4.647   4.674   6.893 -0.5068 -0.9740  1.1303
  155SAPE   H3Y17267   4.528   4.807   6.858  1.0057  0.2280 -2.1051
  155SAPE   C3417268   4.682   4.863   7.004 -0.3681  0.3607  0.6726
  155SAPE   H4X17269   4.654   4.970   6.992  1.5738  0.8502  0.0800
  155SAPE   H4Y17270   4.793   4.865   7.016 -0.5091  1.4560  1.9881
  155SAPE   C3517271   4.643   4.801   7.138  0.3885 -0.1411  0.5564
  155SAPE   H5X17272   4.685   4.700   7.154  1.9777  0.4146  0.1443
  155SAPE   H5Y17273   4.533   4.798   7.149  0.5342  0.2975  2.4525
  155SAPE   C3617274   4.692   4.888   7.255  0.0708  0.0896  0.0294
  155SAPE   H6X17275   4.641   4.986   7.244  0.3030  0.3873  1.4296
  155SAPE   H6Y17276   4.802   4.905   7.258 -0.1889  1.9129  0.9420
  155SAPE   C3717277   4.658   4.823   7.394 -0.6959  0.6326  0.8945
  155SAPE   H7X17278   4.703   4.722   7.398 -4.0352 -0.9914  0.9021
  155SAPE   H7Y17279   4.550   4.801   7.408 -0.7550  0.8607  0.8007
  155SAPE   C3817280   4.693   4.904   7.518  0.5733 -0.1879  0.1974
  155SAPE   H8X17281   4.622   4.989   7.533  0.9595  0.3562 -0.8890
  155SAPE   H8Y17282   4.796   4.945   7.509  0.4790  0.1501  0.5899
  155SAPE   C3917283   4.688   4.828   7.647 -0.0526 -0.0257 -1.1904
  155SAPE   H9X17284   4.713   4.721   7.631  2.1816  0.2623 -0.0591
  155SAPE   H9Y17285   4.584   4.816   7.685  0.4477  1.3449  0.7856
  155SAPE  C31017286   4.781   4.868   7.769  0.5895  0.0730  0.1498
  155SAPE  H10X17287   4.765   4.976   7.790  3.2851  0.2151  1.9237
  155SAPE  H10Y17288   4.888   4.867   7.738  1.2408  0.8033  2.2611
  155SAPE  C31117289   4.757   4.782   7.892 -0.2160  0.7400  0.1595
  155SAPE  H11X17290   4.755   4.672   7.876  1.1753  0.7699 -0.3203
  155SAPE  H11Y17291   4.659   4.803   7.941  0.3495  0.8687  1.2619
  155SAPE  C31217292   4.868   4.792   7.998 -0.1898 -0.9140  0.3509
  155SAPE  H12X17293   4.867   4.897   8.035 -0.0306 -0.3559 -1.1702
  155SAPE  H12Y17294   4.962   4.765   7.945 -1.2329 -1.8007 -1.1073
  155SAPE  C31317295   4.854   4.687   8.113  0.6120  0.0949  0.3924
  155SAPE  H13X17296   4.848   4.583   8.076 -1.1533 -0.6807  2.6293
  155SAPE  H13Y17297   4.757   4.713   8.161  0.0204 -0.8752 -0.2530
  155SAPE  C31417298   4.969   4.700   8.211 -0.0306 -0.3868 -0.3682
  155SAPE  H14X17299   4.924   4.664   8.305 -1.1037 -0.7275 -1.0003
  155SAPE  H14Y17300   5.004   4.806   8.209  0.7032 -0.5872 -3.1933
  155SAPE  C31517301   5.078   4.595   8.185  0.3500 -0.5272  0.3513
  155SAPE  H15X17302   5.099   4.606   8.077  1.0254 -1.8479  0.3282
  155SAPE  H15Y17303   5.041   4.494   8.215  0.7055 -0.8831 -0.3754
  155SAPE  C31617304   5.216   4.628   8.250  0.9028 -0.1013 -0.3465
  155SAPE  H16X17305   5.244   4.730   8.216 -0.2738 -0.4991 -2.7686
  155SAPE  H16Y17306   5.293   4.556   8.213  2.3364  0.8331  0.6878
  155SAPE  C31717307   5.215   4.622   8.408 -0.2142  0.6272 -0.0246
  155SAPE  H17X17308   5.134   4.690   8.441 -0.9716 -0.0739 -0.4077
  155SAPE  H17Y17309   5.313   4.663   8.441  1.0423  1.2464 -3.9817
  155SAPE  C31817310   5.195   4.482   8.471  0.2623 -0.1137  0.4832
  155SAPE  H18X17311   5.237   4.482   8.574  1.3195 -0.7713  0.0682
  155SAPE  H18Y17312   5.243   4.408   8.403 -0.2587 -0.5379  0.5669
  155SAPE  H18Z17313   5.086   4.465   8.479  0.6888 -3.1814  1.0556
  156SAPE     N17314   1.162   6.517   6.485  0.2205  0.3723  0.1010
  156SAPE   HN117315   1.077   6.516   6.545  1.0115 -0.5182  1.2666
  156SAPE   HN217316   1.242   6.548   6.544 -0.8022  0.4603  1.4883
  156SAPE   HN317317   1.144   6.598   6.423  1.2918  1.6006  1.3287
  156SAPE   C1217318   1.183   6.386   6.405  0.5385 -0.6263  0.2415
  156SAPE  H12A17319   1.128   6.391   6.308 -0.1994 -1.0943  0.6307
  156SAPE  H12B17320   1.138   6.310   6.472 -1.1327  1.1335  1.1932
  156SAPE   C1117321   1.336   6.346   6.390 -0.2515  0.9892  0.2066
  156SAPE  H11A17322   1.402   6.421   6.343  1.5994 -1.7271 -1.8690
  156SAPE  H11B17323   1.343   6.256   6.324  5.2287  1.3223 -0.1106
  156SAPE     P17324   1.518   6.258   6.551 -0.0583 -0.2810  0.2796
  156SAPE   O1317325   1.546   6.148   6.459  0.2569  0.3259  0.4065
  156SAPE   O1417326   1.621   6.365   6.556  0.3626 -0.0711 -0.0949
  156SAPE   O1217327   1.384   6.315   6.517  0.3367 -0.0043 -0.4284
  156SAPE   O1117328   1.508   6.201   6.699 -0.1572 -0.6194  0.1900
  156SAPE    C117329   1.427   6.096   6.741  0.4150 -0.5368 -0.0539
  156SAPE    HA17330   1.376   6.045   6.657 -1.1962 -0.4724  0.8583
  156SAPE    HB17331   1.492   6.022   6.793  0.2120 -1.0485 -0.5290
  156SAPE    C217332   1.313   6.144   6.840  0.4161 -0.0212 -0.3836
  156SAPE    HS17333   1.345   6.230   6.902  2.2277 -0.0428 -1.2384
  156SAPE   O2117334   1.283   6.033   6.926 -0.2131  0.0865 -0.0592
  156SAPE   C2117335   1.336   6.018   7.046 -0.3294  0.2128  0.3678
  156SAPE   O2217336   1.402   6.102   7.104  0.7874  0.0781 -0.2364
  156SAPE   C2217337   1.319   5.875   7.104 -0.4838 -0.6575  0.2808
  156SAPE   H2R17338   1.235   5.826   7.050 -1.6568 -1.0642  2.3846
  156SAPE   H2S17339   1.417   5.828   7.082  0.2718  0.6973  0.6621
  156SAPE    C317340   1.195   6.192   6.754  0.1087  0.1632  0.1118
  156SAPE    HX17341   1.172   6.109   6.683  1.4319  0.0975 -0.2632
  156SAPE    HY17342   1.223   6.271   6.682 -0.9306 -0.7749 -1.3959
  156SAPE   O3117343   1.078   6.233   6.824  0.2977 -0.1774 -0.4241
  156SAPE   C3117344   0.996   6.132   6.863  0.0741 -0.8935  0.6702
  156SAPE   O3217345   0.995   6.023   6.815  0.3537 -0.3699 -0.1863
  156SAPE   C3217346   0.894   6.191   6.960  0.5454  0.4122  0.3262
  156SAPE   H2X17347   0.837   6.266   6.902 -0.9410 -0.9344 -0.0389
  156SAPE   H2Y17348   0.946   6.248   7.039  0.4327  1.2260 -0.1780
  156SAPE   C2317349   1.290   5.872   7.257  0.8915 -0.2028 -0.0437
  156SAPE   H3R17350   1.354   5.944   7.312 -0.0613  1.0174 -0.4846
  156SAPE   H3S17351   1.323   5.772   7.292 -0.0267 -0.3524  0.4292
  156SAPE   C2417352   1.141   5.887   7.302  0.0070 -0.2914  0.3933
  156SAPE   H4R17353   1.137   5.854   7.408  0.1266 -0.4108  0.3599
  156SAPE   H4S17354   1.079   5.809   7.254 -0.5816  0.5563 -0.2484
  156SAPE   C2517355   1.089   6.027   7.285 -0.6006 -0.7950 -0.4234
  156SAPE   H5R17356   1.122   6.085   7.198 -1.0046  0.6645  0.3605
  156SAPE   C2617357   1.013   6.099   7.368 -0.1802  0.2090  0.1626
  156SAPE   H6R17358   0.992   6.203   7.339  0.9041 -0.4184 -3.2606
  156SAPE   C2717359   0.958   6.053   7.507  0.5155 -0.3522 -0.0141
  156SAPE   H7R17360   0.989   5.949   7.531 -2.5367 -1.7893 -1.6609
  156SAPE   H7S17361   0.847   6.059   7.502  0.4709 -1.2634 -0.2647
  156SAPE   C2817362   0.992   6.142   7.623  0.0189 -0.2502 -0.9774
  156SAPE   H8R17363   1.041   6.236   7.594  1.9947 -1.4091 -1.5276
  156SAPE   C2917364   0.972   6.117   7.752 -0.2759 -0.4569  0.3645
  156SAPE   H9R17365   1.002   6.194   7.825 -0.4363  1.6730 -1.7054
  156SAPE  C21017366   0.909   5.993   7.803 -0.6054  0.2033 -0.0639
  156SAPE  H10R17367   0.998   5.950   7.855  0.0212  2.5003  0.8943
  156SAPE  H10S17368   0.873   5.917   7.730  2.6667 -4.0111  2.1849
  156SAPE  C21117369   0.801   6.002   7.910 -0.4317 -0.6797 -0.2840
  156SAPE  H11R17370   0.760   6.102   7.934 -1.0843 -1.5587  2.7759
  156SAPE  C21217371   0.747   5.915   7.997  0.4160 -0.5898 -0.3439
  156SAPE  H12R17372   0.676   5.947   8.075 -0.3101 -0.2092 -1.1430
  156SAPE  C21317373   0.785   5.765   8.002  0.0780  0.8578 -0.4002
  156SAPE  H13R17374   0.888   5.774   8.042  0.0295  2.6114 -0.5604
  156SAPE  H13S17375   0.793   5.732   7.896  1.8345  1.8195 -0.6088
  156SAPE  C21417376   0.697   5.668   8.070  0.5563  0.0240  0.4797
  156SAPE  H14R17377   0.601   5.656   8.018  0.2815 -0.1107  1.0188
  156SAPE  C21517378   0.714   5.626   8.195  0.0029 -0.1604  0.7543
  156SAPE  H15R17379   0.642   5.554   8.237 -0.3469  0.2153  0.8026
  156SAPE  C21617380   0.823   5.663   8.286  0.1462  0.7319 -0.1295
  156SAPE  H16R17381   0.916   5.699   8.237 -0.0106 -0.0801 -1.0664
  156SAPE  H16S17382   0.853   5.575   8.347 -0.6066  0.5706  0.0237
  156SAPE  C21717383   0.777   5.769   8.393 -0.0550  0.5344 -0.1138
  156SAPE  H17R17384   0.682   5.817   8.362 -0.7542 -2.2657 -2.9201
  156SAPE  H17S17385   0.850   5.852   8.403  0.1102  0.4449 -0.5512
  156SAPE  C21817386   0.749   5.700   8.527 -0.4801  0.0358 -0.0674
  156SAPE  H18R17387   0.847   5.676   8.574 -1.1229 -1.4210  0.6213
  156SAPE  H18S17388   0.704   5.600   8.508  0.4502 -0.0690 -1.9706
  156SAPE  C21917389   0.659   5.776   8.620 -0.4547 -0.5635  0.8036
  156SAPE  H19R17390   0.554   5.784   8.584  0.0483 -0.1448 -0.6434
  156SAPE  H19S17391   0.711   5.873   8.633  0.3772 -1.0292  1.0413
  156SAPE  C22017392   0.671   5.719   8.762 -0.6639  0.2907 -0.4051
  156SAPE  H20R17393   0.606   5.785   8.824  1.0015  2.0025 -0.3867
  156SAPE  H20S17394   0.773   5.732   8.803 -1.9055 -0.4031  3.2819
  156SAPE  H20T17395   0.649   5.610   8.759 -0.5455  0.2486 -4.3149
  156SAPE   C3317396   0.804   6.091   7.032 -0.6219  0.2786  0.1964
  156SAPE   H3X17397   0.876   6.027   7.089  0.4390  0.4679 -0.8993
  156SAPE   H3Y17398   0.738   6.016   6.983  0.8032 -0.2681 -0.9762
  156SAPE   C3417399   0.718   6.162   7.131  0.1871 -0.0093  0.1295
  156SAPE   H4X17400   0.648   6.225   7.072  0.3617  0.3845  0.3379
  156SAPE   H4Y17401   0.775   6.233   7.195  2.0528 -0.3900 -1.0228
  156SAPE   C3517402   0.625   6.075   7.215 -0.2498 -0.3667 -0.2403
  156SAPE   H5X17403   0.672   6.030   7.305  0.7748  0.3128 -0.4191
  156SAPE   H5Y17404   0.604   5.983   7.157 -3.1247  0.6034 -0.8994
  156SAPE   C3617405   0.500   6.145   7.261 -0.4714  0.0951 -0.2792
  156SAPE   H6X17406   0.470   6.205   7.173  2.2854  0.9087 -0.7684
  156SAPE   H6Y17407   0.523   6.208   7.349  1.4693  0.2359 -0.8482
  156SAPE   C3717408   0.392   6.042   7.285  0.8602  0.3925  0.0904
  156SAPE   H7X17409   0.352   5.992   7.195  1.2980 -0.0868  0.1567
  156SAPE   H7Y17410   0.315   6.099   7.341  0.1417 -2.5867  2.3827
  156SAPE   C3817411   0.437   5.936   7.388 -1.1662  0.0828  0.0639
  156SAPE   H8X17412   0.495   5.993   7.464 -0.6502 -1.5035  0.8904
  156SAPE   H8Y17413   0.515   5.867   7.350 -1.6560 -0.8185  0.6681
  156SAPE   C3917414   0.327   5.849   7.457  0.0230 -0.1425 -0.0931
  156SAPE   H9X17415   0.277   5.784   7.383  0.0447 -0.4496  0.1622
  156SAPE   H9Y17416   0.258   5.926   7.498 -0.5887 -0.3187 -0.7635
  156SAPE  C31017417   0.385   5.759   7.564 -0.0546  0.1180 -0.0416
  156SAPE  H10X17418   0.464   5.811   7.621  0.3073  0.9560 -1.2663
  156SAPE  H10Y17419   0.435   5.678   7.506  0.4334  0.1036  0.3950
  156SAPE  C31117420   0.280   5.696   7.651 -0.4151  0.3532 -0.3664
  156SAPE  H11X17421   0.318   5.613   7.714  2.6229  1.3625 -0.7145
  156SAPE  H11Y17422   0.218   5.645   7.575  0.3301 -1.7781  0.3750
  156SAPE  C31217423   0.204   5.790   7.750  0.1149 -0.8285 -0.0032
  156SAPE  H12X17424   0.132   5.733   7.812 -1.0954  0.8016  0.1415
  156SAPE  H12Y17425   0.140   5.852   7.684  0.0074 -0.5023  0.4053
  156SAPE  C31317426   0.291   5.877   7.836  0.2900  0.5297 -0.8629
  156SAPE  H13X17427   0.220   5.940   7.894  1.0125 -0.0860  0.7695
  156SAPE  H13Y17428   0.356   5.949   7.782  0.2159 -1.2844 -3.5102
  156SAPE  C31417429   0.381   5.808   7.944 -0.2580 -0.3391  0.5548
  156SAPE  H14X17430   0.445   5.874   8.007 -1.3913 -0.7425  2.1813
  156SAPE  H14Y17431   0.458   5.753   7.884  0.7433  0.7058  0.8419
  156SAPE  C31517432   0.312   5.708   8.037 -0.6079 -0.8374  0.1997
  156SAPE  H15X17433   0.390   5.670   8.106  1.3752 -0.2049 -1.5882
  156SAPE  H15Y17434   0.278   5.629   7.967 -0.4844 -1.2257  0.5763
  156SAPE  C31617435   0.194   5.773   8.111 -0.4843  0.0390  0.1139
  156SAPE  H16X17436   0.113   5.792   8.037 -2.0288 -0.9516  1.4639
  156SAPE  H16Y17437   0.220   5.877   8.140 -2.3912  0.4974  0.3083
  156SAPE  C31717438   0.137   5.688   8.230  0.3668 -0.8168 -0.0406
  156SAPE  H17X17439   0.221   5.649   8.291  0.5753 -2.0480 -1.0808
  156SAPE  H17Y17440   0.080   5.602   8.189 -0.8734 -1.1997  2.3218
  156SAPE  C31817441   0.050   5.772   8.326  0.0304 -0.7406 -0.3669
  156SAPE  H18X17442  -0.026   5.836   8.276  0.1960 -0.7529 -0.6342
  156SAPE  H18Y17443   0.108   5.844   8.388 -0.7037  0.2352 -0.7790
  156SAPE  H18Z17444   0.005   5.699   8.396 -2.1528  0.3380 -0.5427
  157SAPE     N17445   4.794   1.052   5.941  0.0343 -0.1073 -0.0887
  157SAPE   HN117446   4.726   1.083   5.869  2.3240  3.9449 -0.8289
  157SAPE   HN217447   4.765   1.098   6.030 -0.6042 -0.1026 -0.2904
  157SAPE   HN317448   4.888   1.086   5.911 -0.1367  0.2174 -0.2653
  157SAPE   C1217449   4.794   0.901   5.948 -0.5074 -0.2738  0.1128
  157SAPE  H12A17450   4.798   0.868   5.842 -2.0027  2.4120 -0.8742
  157SAPE  H12B17451   4.693   0.873   5.984 -0.1827  0.6992  1.8729
  157SAPE   C1117452   4.898   0.854   6.050  0.1126  0.3659  0.3003
  157SAPE  H11A17453   4.888   0.746   6.029 -0.8021  0.6067 -0.6361
  157SAPE  H11B17454   4.860   0.892   6.147  0.0143 -0.5312  0.6155
  157SAPE     P17455   5.126   0.954   6.142 -0.3108 -0.1181  0.0325
  157SAPE   O1317456   5.265   0.903   6.126  0.5497 -0.1349  0.3874
  157SAPE   O1417457   5.113   1.099   6.135 -0.3616 -0.2513  0.7132
  157SAPE   O1217458   5.027   0.891   6.030 -0.5089 -0.2646  0.1447
  157SAPE   O1117459   5.061   0.893   6.268 -0.6802  0.0711 -0.1417
  157SAPE    C117460   5.127   0.795   6.343  0.1457  0.1692 -0.0333
  157SAPE    HA17461   5.051   0.719   6.373  0.4447 -0.5177 -0.9882
  157SAPE    HB17462   5.196   0.731   6.285  1.8825  2.1287 -0.2600
  157SAPE    C217463   5.214   0.849   6.464  0.2830  0.0351  0.0886
  157SAPE    HS17464   5.247   0.768   6.532 -0.6701 -1.7351 -1.4911
  157SAPE   O2117465   5.134   0.939   6.534  0.6841 -0.6438 -0.2058
  157SAPE   C2117466   5.056   0.892   6.636  1.3206 -0.0933  0.5235
  157SAPE   O2217467   5.038   0.773   6.657  0.2460 -0.4198 -0.0097
  157SAPE   C2217468   4.986   1.009   6.705  0.5637  0.2619 -0.1357
  157SAPE   H2R17469   5.056   1.037   6.786  1.4016 -1.0587 -0.3697
  157SAPE   H2S17470   4.968   1.092   6.633 -2.3723 -0.3516 -0.2371
  157SAPE    C317471   5.334   0.919   6.419  0.3773 -0.1389 -0.6804
  157SAPE    HX17472   5.314   1.004   6.351  0.8380 -0.5056 -1.2862
  157SAPE    HY17473   5.402   0.851   6.364  0.4076  1.7364 -3.1231
  157SAPE   O3117474   5.397   0.979   6.530 -0.1648 -0.3217 -0.6256
  157SAPE   C3117475   5.478   0.907   6.608  0.5150  0.1715 -0.3950
  157SAPE   O3217476   5.483   0.788   6.604 -0.2597 -0.3036 -0.2669
  157SAPE   C3217477   5.545   1.000   6.718 -0.4327  0.1200 -0.2501
  157SAPE   H2X17478   5.456   1.052   6.760  0.0001  0.4434  0.2648
  157SAPE   H2Y17479   5.619   1.064   6.666 -0.3901 -0.3364 -0.7627
  157SAPE   C2317480   4.855   0.966   6.768 -0.3167  0.0503 -0.4532
  157SAPE   H3R17481   4.871   0.880   6.838  0.0011  1.4682  1.2951
  157SAPE   H3S17482   4.785   0.936   6.687 -0.5036 -0.2841 -0.1740
  157SAPE   C2417483   4.783   1.079   6.839 -1.3249  0.0638  1.1080
  157SAPE   H4R17484   4.841   1.107   6.930 -0.7945 -1.7910  1.3752
  157SAPE   H4S17485   4.688   1.046   6.885 -1.6675 -1.0425 -0.3203
  157SAPE   C2517486   4.756   1.202   6.752 -0.4676  0.4348  0.1357
  157SAPE   H5R17487   4.670   1.177   6.689  0.8174 -3.9531 -0.1801
  157SAPE   C2617488   4.818   1.320   6.739  0.5326  0.8473 -0.3204
  157SAPE   H6R17489   4.777   1.403   6.681  0.3717  0.4367 -0.7983
  157SAPE   C2717490   4.939   1.356   6.821  0.3784  0.2360  0.0610
  157SAPE   H7R17491   4.989   1.261   6.848 -0.1427  0.0247  0.3166
  157SAPE   H7S17492   4.910   1.409   6.915  0.6017 -0.8579  0.7560
  157SAPE   C2817493   5.027   1.451   6.737  0.6505 -0.2689 -0.4047
  157SAPE   H8R17494   4.975   1.544   6.707  1.0577  0.4762  1.1087
  157SAPE   C2917495   5.151   1.424   6.690 -0.0142 -0.1504 -0.3958
  157SAPE   H9R17496   5.208   1.508   6.648  0.0599  0.7456  1.3981
  157SAPE  C21017497   5.237   1.300   6.704 -0.4557 -0.0753 -0.2744
  157SAPE  H10R17498   5.255   1.253   6.605  0.1741  1.8158 -1.1041
  157SAPE  H10S17499   5.182   1.215   6.750  0.7900 -1.3630 -1.0702
  157SAPE  C21117500   5.367   1.315   6.774  0.4733 -0.7423 -0.4602
  157SAPE  H11R17501   5.458   1.332   6.715  0.7374 -1.4634 -0.2618
  157SAPE  C21217502   5.390   1.290   6.909  0.3228  0.4033  0.9092
  157SAPE  H12R17503   5.496   1.303   6.937  0.8465  1.6443 -1.4103
  157SAPE  C21317504   5.298   1.237   7.020  0.6165  0.3235  0.3266
  157SAPE  H13R17505   5.203   1.293   7.009  0.9623  1.2434  1.8655
  157SAPE  H13S17506   5.335   1.276   7.117  0.4682  0.4982  0.3123
  157SAPE  C21417507   5.261   1.093   7.019  0.6684  0.9981  0.3099
  157SAPE  H14R17508   5.248   1.050   6.919 -2.6369  0.6779  0.7922
  157SAPE  C21517509   5.237   1.012   7.124  0.3454 -0.1934  0.0865
  157SAPE  H15R17510   5.208   0.907   7.108 -2.3538  0.3626  0.8615
  157SAPE  C21617511   5.232   1.047   7.273  0.2884  1.0535  0.6174
  157SAPE  H16R17512   5.266   1.152   7.285  2.0325  0.5521  0.3786
  157SAPE  H16S17513   5.302   0.978   7.326  3.1685  1.6504 -2.0366
  157SAPE  C21717514   5.079   1.032   7.303 -0.5325  0.1515 -0.5153
  157SAPE  H17R17515   5.037   0.931   7.287  0.8799 -1.0199  2.3372
  157SAPE  H17S17516   5.022   1.099   7.234 -1.3230  0.5660  0.5032
  157SAPE  C21817517   5.051   1.066   7.455 -0.5891 -0.3296  0.9859
  157SAPE  H18R17518   4.945   1.071   7.489 -1.7236 -0.0318 -2.2768
  157SAPE  H18S17519   5.104   1.162   7.470  0.5639 -0.1680 -2.9985
  157SAPE  C21917520   5.117   0.978   7.554  0.4314  0.4159 -0.5304
  157SAPE  H19R17521   5.218   0.935   7.538 -0.0091 -1.5944  1.5959
  157SAPE  H19S17522   5.064   0.881   7.558  0.3418  0.4358 -1.1417
  157SAPE  C22017523   5.112   1.050   7.693 -0.1620 -0.2187  0.0908
  157SAPE  H20R17524   5.009   1.050   7.733  0.7890  1.6724  2.8606
  157SAPE  H20S17525   5.156   1.152   7.686  1.8527 -1.0003  0.4720
  157SAPE  H20T17526   5.164   0.999   7.777 -2.1456  0.4692  1.8325
  157SAPE   C3317527   5.616   0.915   6.826  0.5864  1.2420  0.5140
  157SAPE   H3X17528   5.709   0.871   6.784 -0.4685  0.2478 -0.8780
  157SAPE   H3Y17529   5.559   0.826   6.859  0.4328  0.9315 -0.5369
  157SAPE   C3417530   5.657   1.003   6.943  0.0413  0.1426 -0.2756
  157SAPE   H4X17531   5.572   1.034   7.008 -0.3051 -2.4279  0.6339
  157SAPE   H4Y17532   5.691   1.096   6.893  1.1304 -0.6172 -0.9881
  157SAPE   C3517533   5.761   0.950   7.040  0.2565  0.6785 -0.1341
  157SAPE   H5X17534   5.804   1.034   7.099  0.1139  0.2721  0.5460
  157SAPE   H5Y17535   5.838   0.906   6.973  0.5488 -1.0658  1.2707
  157SAPE   C3617536   5.724   0.828   7.129 -0.9011 -0.6658  0.6426
  157SAPE   H6X17537   5.816   0.776   7.163  0.6803  1.6734  0.1536
  157SAPE   H6Y17538   5.660   0.756   7.074 -0.4829 -0.4199 -0.1738
  157SAPE   C3717539   5.652   0.874   7.258  0.8031 -0.2175 -0.6536
  157SAPE   H7X17540   5.568   0.933   7.216  0.6131 -0.4188 -0.5598
  157SAPE   H7Y17541   5.729   0.939   7.306  1.2950 -0.0438 -1.6593
  157SAPE   C3817542   5.604   0.759   7.354 -0.2989 -0.8656 -0.2398
  157SAPE   H8X17543   5.688   0.686   7.349 -0.1987 -0.6887 -1.9514
  157SAPE   H8Y17544   5.518   0.704   7.310 -1.7708 -1.0193  2.6255
  157SAPE   C3917545   5.574   0.810   7.496 -0.0682  0.1681 -0.3794
  157SAPE   H9X17546   5.518   0.729   7.548 -0.7555  0.7495 -0.2007
  157SAPE   H9Y17547   5.511   0.901   7.484 -0.5401 -0.2033 -0.7342
  157SAPE  C31017548   5.684   0.853   7.588 -0.6529 -0.6143 -0.1925
  157SAPE  H10X17549   5.755   0.925   7.543  0.3059 -1.2451  0.2703
  157SAPE  H10Y17550   5.747   0.768   7.622  2.5347  1.2230 -1.1044
  157SAPE  C31117551   5.633   0.904   7.723  0.8943 -0.2817  0.6670
  157SAPE  H11X17552   5.545   0.968   7.700 -0.5637 -2.0361  1.1217
  157SAPE  H11Y17553   5.712   0.959   7.779 -0.6687  0.1309  2.5472
  157SAPE  C31217554   5.597   0.796   7.829 -0.4965  0.1376 -0.1244
  157SAPE  H12X17555   5.691   0.743   7.853  0.3393  0.5246 -2.2743
  157SAPE  H12Y17556   5.528   0.723   7.782  0.3635  0.0867 -1.3580
  157SAPE  C31317557   5.520   0.859   7.946 -0.0463 -0.3024 -0.3771
  157SAPE  H13X17558   5.417   0.887   7.914 -1.2275 -1.0351  2.4808
  157SAPE  H13Y17559   5.559   0.959   7.973 -1.1439  1.1446 -3.6975
  157SAPE  C31417560   5.509   0.775   8.079 -0.6646  0.0378 -0.4971
  157SAPE  H14X17561   5.602   0.779   8.140 -1.8435  1.2352  1.3013
  157SAPE  H14Y17562   5.475   0.673   8.049 -0.5067  0.2193 -1.3036
  157SAPE  C31517563   5.395   0.832   8.165 -0.6907 -0.6429 -0.4885
  157SAPE  H15X17564   5.414   0.941   8.170 -1.1727 -0.5636 -0.3460
  157SAPE  H15Y17565   5.400   0.795   8.270 -1.5025  1.8232  0.4955
  157SAPE  C31617566   5.256   0.816   8.113 -0.1561  0.0167 -0.3645
  157SAPE  H16X17567   5.243   0.726   8.049 -1.9497  1.5245 -2.2623
  157SAPE  H16Y17568   5.228   0.893   8.038  0.4046 -0.0023 -0.6004
  157SAPE  C31717569   5.139   0.817   8.214 -0.2198  0.5860 -0.0333
  157SAPE  H17X17570   5.138   0.915   8.267  3.2174  0.0243  1.3659
  157SAPE  H17Y17571   5.149   0.743   8.296  0.2084  0.0195 -0.5861
  157SAPE  C31817572   4.999   0.803   8.147 -0.1548 -0.2815 -0.1426
  157SAPE  H18X17573   4.993   0.707   8.091 -0.8719 -0.3823  0.0980
  157SAPE  H18Y17574   4.981   0.880   8.069  0.4345 -0.9983 -0.9983
  157SAPE  H18Z17575   4.919   0.806   8.224  1.8344  0.0455  2.0152
  158SAPE     N17576   1.895   4.333   6.141  0.1652  0.4781  0.5747
  158SAPE   HN117577   1.981   4.283   6.170 -1.0618 -1.4353  1.1468
  158SAPE   HN217578   1.822   4.271   6.099  0.1110  1.2438 -0.4851
  158SAPE   HN317579   1.913   4.405   6.069  3.3303 -0.7707 -0.0406
  158SAPE   C1217580   1.839   4.401   6.260 -0.1748  0.6262  0.2446
  158SAPE  H12A17581   1.751   4.463   6.236  0.3031  0.4350 -2.2997
  158SAPE  H12B17582   1.916   4.465   6.308  0.1009  0.5190 -0.0525
  158SAPE   C1117583   1.816   4.293   6.371  0.1196 -0.0476  0.3014
  158SAPE  H11A17584   1.781   4.350   6.460 -1.0898  0.7421 -0.6486
  158SAPE  H11B17585   1.919   4.258   6.394  0.8744  2.3181  0.8765
  158SAPE     P17586   1.562   4.219   6.317 -0.0908 -0.0135  0.3632
  158SAPE   O1317587   1.527   4.230   6.175  0.4786 -0.4331 -0.1347
  158SAPE   O1417588   1.490   4.115   6.394  0.4315  0.0530  0.0523
  158SAPE   O1217589   1.721   4.185   6.331  0.0214 -0.7935  0.5024
  158SAPE   O1117590   1.534   4.360   6.381  0.2534  0.0886 -0.9158
  158SAPE    C117591   1.519   4.376   6.526  0.9185 -0.0360  0.2429
  158SAPE    HA17592   1.525   4.280   6.582 -2.2790 -0.6859 -0.3575
  158SAPE    HB17593   1.590   4.447   6.573  0.2130  2.1447 -1.7803
  158SAPE    C217594   1.374   4.419   6.554  0.3263  0.2178  0.6679
  158SAPE    HS17595   1.347   4.428   6.661 -1.9308  0.7366  0.1155
  158SAPE   O2117596   1.284   4.320   6.493 -0.4257  0.2632 -0.1880
  158SAPE   C2117597   1.257   4.213   6.580 -0.2580 -0.1492  0.0465
  158SAPE   O2217598   1.295   4.208   6.695  0.1420 -0.0590 -0.2739
  158SAPE   C2217599   1.185   4.100   6.507  0.3519 -0.4138  0.2602
  158SAPE   H2R17600   1.096   4.145   6.459  0.6580 -1.2220 -1.1375
  158SAPE   H2S17601   1.271   4.058   6.449  2.2634  1.0256  1.9144
  158SAPE    C317602   1.339   4.550   6.482  0.0965 -0.4623  0.2116
  158SAPE    HX17603   1.231   4.557   6.458  0.2237  2.2474  0.0111
  158SAPE    HY17604   1.394   4.548   6.386  0.5428 -1.3788  0.4776
  158SAPE   O3117605   1.378   4.658   6.571  0.6100  0.3833  0.2340
  158SAPE   C3117606   1.383   4.778   6.519 -0.4729 -0.1554 -0.4239
  158SAPE   O3217607   1.367   4.809   6.404 -0.2114  0.3650 -0.2262
  158SAPE   C3217608   1.405   4.875   6.639 -0.1850  0.3935 -0.0740
  158SAPE   H2X17609   1.389   4.974   6.591 -1.8591  0.3877  0.4049
  158SAPE   H2Y17610   1.514   4.870   6.659 -0.0725  1.6035 -0.3266
  158SAPE   C2317611   1.144   3.988   6.602 -0.6173  0.0784  0.6682
  158SAPE   H3R17612   1.234   3.958   6.659  1.4180 -0.1147 -2.4262
  158SAPE   H3S17613   1.109   3.895   6.553 -3.5168  1.2747  0.1972
  158SAPE   C2417614   1.039   4.023   6.710  0.3599 -0.7022  1.1009
  158SAPE   H4R17615   0.956   4.083   6.665  0.6566 -0.8264  0.3751
  158SAPE   H4S17616   1.087   4.102   6.771  1.0546  1.5721 -2.0840
  158SAPE   C2517617   0.992   3.915   6.796  0.9946 -0.2312 -0.1356
  158SAPE   H5R17618   0.919   3.850   6.745  0.1985  2.3431 -2.5249
  158SAPE   C2617619   1.046   3.874   6.912  0.2463 -0.2757  0.6692
  158SAPE   H6R17620   0.995   3.785   6.951 -1.4637 -0.4217 -1.6592
  158SAPE   C2717621   1.156   3.941   6.987  0.4132  0.4860  0.3237
  158SAPE   H7R17622   1.110   3.990   7.075 -1.4018 -0.2140 -0.1960
  158SAPE   H7S17623   1.214   4.013   6.926  1.7380 -1.3845 -0.7427
  158SAPE   C2817624   1.254   3.832   7.038 -0.0611 -0.1973 -0.0978
  158SAPE   H8R17625   1.350   3.831   6.984  0.3369  0.5949  0.5563
  158SAPE   C2917626   1.244   3.759   7.155  0.2508 -0.1678 -0.9465
  158SAPE   H9R17627   1.332   3.698   7.178 -0.8495 -1.6024 -0.3593
  158SAPE  C21017628   1.135   3.753   7.256  0.0730  0.4517 -0.0142
  158SAPE  H10R17629   1.107   3.648   7.278 -1.8935  0.6067 -1.5157
  158SAPE  H10S17630   1.040   3.792   7.214  0.8370  1.5752 -0.7615
  158SAPE  C21117631   1.155   3.855   7.366 -0.5318 -0.1116  0.2770
  158SAPE  H11R17632   1.170   3.961   7.341 -3.1768  0.3002  0.2507
  158SAPE  C21217633   1.147   3.826   7.497 -0.1378  0.5308 -0.2336
  158SAPE  H12R17634   1.155   3.913   7.564  0.7707 -0.5027  1.0624
  158SAPE  C21317635   1.127   3.682   7.546  0.4896  0.2025 -0.0100
  158SAPE  H13R17636   1.215   3.625   7.510  0.4824  1.8807 -2.9160
  158SAPE  H13S17637   1.036   3.644   7.496 -0.5981 -1.2591  2.8385
  158SAPE  C21417638   1.123   3.666   7.697  0.4792  0.7580 -0.2643
  158SAPE  H14R17639   1.204   3.711   7.757  0.5115  0.4888 -0.1022
  158SAPE  C21517640   1.037   3.592   7.767 -0.2526 -0.0996 -0.7598
  158SAPE  H15R17641   1.058   3.588   7.875 -0.6902 -0.9782 -0.6980
  158SAPE  C21617642   0.927   3.504   7.719  0.1530 -0.1454  0.0833
  158SAPE  H16R17643   0.854   3.553   7.651 -2.8889 -1.9744  1.8000
  158SAPE  H16S17644   0.880   3.466   7.812 -0.9404 -1.3142 -0.9000
  158SAPE  C21717645   0.970   3.374   7.633 -0.5647 -0.3645 -0.1171
  158SAPE  H17R17646   1.037   3.306   7.689 -0.0810  0.6778  0.6191
  158SAPE  H17S17647   1.026   3.404   7.542  1.5615 -0.8238  0.9639
  158SAPE  C21817648   0.849   3.304   7.586 -0.3119  1.0979 -0.7274
  158SAPE  H18R17649   0.802   3.365   7.506  0.3195 -0.4881 -2.3943
  158SAPE  H18S17650   0.775   3.300   7.669 -0.0150  3.9630 -0.2212
  158SAPE  C21917651   0.875   3.168   7.518 -0.1621 -0.2811 -0.2696
  158SAPE  H19R17652   0.954   3.183   7.440 -1.1463  1.7101 -0.9587
  158SAPE  H19S17653   0.778   3.143   7.472 -0.4715  0.2049  0.1090
  158SAPE  C22017654   0.921   3.056   7.608 -0.1667 -0.1434  0.0263
  158SAPE  H20R17655   0.880   2.954   7.598 -0.7401 -0.0042  0.8415
  158SAPE  H20S17656   0.906   3.089   7.713  0.4249  0.0985  0.0399
  158SAPE  H20T17657   1.032   3.052   7.619 -0.2152  1.5650  1.7910
  158SAPE   C3317658   1.321   4.848   6.767  0.3110  0.2622  0.2566
  158SAPE   H3X17659   1.342   4.916   6.852 -0.5150 -0.0288  0.7177
  158SAPE   H3Y17660   1.330   4.741   6.796  2.1694  0.2705 -0.1748
  158SAPE   C3417661   1.173   4.881   6.743 -0.3195 -0.1228 -0.4885
  158SAPE   H4X17662   1.116   4.809   6.681  0.6652 -1.4544  0.0996
  158SAPE   H4Y17663   1.177   4.975   6.683  1.9317  0.7231  0.8487
  158SAPE   C3517664   1.098   4.893   6.873 -0.0728  0.6499  0.2064
  158SAPE   H5X17665   1.133   4.973   6.942 -2.2400  2.1983 -0.3800
  158SAPE   H5Y17666   1.121   4.794   6.918 -0.3146 -0.4858 -2.0366
  158SAPE   C3617667   0.947   4.908   6.868 -1.2681 -0.4618  0.8362
  158SAPE   H6X17668   0.906   4.826   6.804 -0.1426  0.5990 -1.3542
  158SAPE   H6Y17669   0.932   4.997   6.803 -1.6687 -2.2622 -1.6907
  158SAPE   C3717670   0.878   4.913   7.003 -0.0204 -0.3480  0.0976
  158SAPE   H7X17671   0.774   4.875   6.994 -0.2579  0.4883 -0.9424
  158SAPE   H7Y17672   0.939   4.846   7.067  0.4304  1.5523  1.7558
  158SAPE   C3817673   0.884   5.051   7.063 -0.4286  0.0525 -1.0981
  158SAPE   H8X17674   0.832   5.119   6.994 -0.5799 -1.6905 -2.7943
  158SAPE   H8Y17675   0.985   5.088   7.093 -2.1696  3.2584  1.4040
  158SAPE   C3917676   0.821   5.055   7.209 -0.3466  0.0458  0.3073
  158SAPE   H9X17677   0.863   4.970   7.267  0.7009  0.0904 -0.3608
  158SAPE   H9Y17678   0.719   5.012   7.197  0.6963 -2.3805 -0.5564
  158SAPE  C31017679   0.831   5.188   7.280 -0.5818  0.4005 -1.5035
  158SAPE  H10X17680   0.808   5.269   7.207  0.3815  1.9498 -0.1461
  158SAPE  H10Y17681   0.932   5.208   7.321 -1.7105  1.8015  0.7890
  158SAPE  C31117682   0.729   5.189   7.399  0.2049  0.6096  0.4004
  158SAPE  H11X17683   0.626   5.163   7.366  0.3324  0.6629 -0.0458
  158SAPE  H11Y17684   0.718   5.291   7.443 -1.4648  0.3574  0.6345
  158SAPE  C31217685   0.766   5.091   7.516 -0.2841 -0.5761 -0.3913
  158SAPE  H12X17686   0.796   4.992   7.476 -2.1938 -0.9255 -1.0593
  158SAPE  H12Y17687   0.672   5.070   7.570  0.6016 -3.7830  0.0580
  158SAPE  C31317688   0.862   5.158   7.614  0.0781  0.2619  0.2355
  158SAPE  H13X17689   0.823   5.255   7.652 -2.5746 -0.9816  0.9177
  158SAPE  H13Y17690   0.950   5.182   7.551 -0.9759 -0.1920 -1.5023
  158SAPE  C31417691   0.913   5.058   7.718  0.6905 -0.2538 -0.4915
  158SAPE  H14X17692   1.011   5.093   7.758 -0.0924 -1.4976  2.8173
  158SAPE  H14Y17693   0.936   4.959   7.674  1.9101  0.0460 -0.5646
  158SAPE  C31517694   0.827   5.036   7.843  0.3373  0.5867  0.1587
  158SAPE  H15X17695   0.844   4.944   7.903  1.2417  1.2740  0.9811
  158SAPE  H15Y17696   0.723   5.027   7.805  0.4288  0.3079 -0.0333
  158SAPE  C31617697   0.822   5.157   7.930  0.4782 -0.4292  0.7294
  158SAPE  H16X17698   0.826   5.250   7.869 -0.2298 -1.2501 -0.6030
  158SAPE  H16Y17699   0.906   5.164   8.003  0.1002  2.5696  1.0046
  158SAPE  C31717700   0.697   5.163   8.024  0.9427  0.4703  0.4870
  158SAPE  H17X17701   0.697   5.068   8.082  0.1923 -0.7764 -1.4818
  158SAPE  H17Y17702   0.611   5.168   7.954  0.4916  0.8632  1.0540
  158SAPE  C31817703   0.701   5.277   8.125  0.0801  0.4963  0.2530
  158SAPE  H18X17704   0.790   5.254   8.188  1.2364  0.0635 -1.4817
  158SAPE  H18Y17705   0.608   5.267   8.185  1.2803 -2.9704  1.7776
  158SAPE  H18Z17706   0.705   5.376   8.076  1.2209  1.3892  2.0311
  159SAPE     N17707   0.845   1.378   6.054 -0.6582 -0.3132 -0.2495
  159SAPE   HN117708   0.910   1.388   5.974 -1.7991 -0.1783 -1.1934
  159SAPE   HN217709   0.789   1.295   6.024 -2.3159  1.2870 -1.8657
  159SAPE   HN317710   0.781   1.458   6.072 -0.7954 -0.2686 -0.9190
  159SAPE   C1217711   0.922   1.360   6.188 -0.4272 -0.3569 -0.0235
  159SAPE  H12A17712   0.853   1.407   6.262 -1.0361 -2.4307  0.8141
  159SAPE  H12B17713   1.015   1.420   6.178 -2.1074  2.6232  1.1075
  159SAPE   C1117714   0.952   1.213   6.209 -0.2043  0.1608  0.6898
  159SAPE  H11A17715   0.991   1.211   6.313 -0.2010  2.4241  0.7742
  159SAPE  H11B17716   1.025   1.186   6.130  0.3832  1.6282  0.7167
  159SAPE     P17717   0.812   0.983   6.209 -0.1908  0.3110  0.0942
  159SAPE   O1317718   0.669   0.942   6.188  0.5862 -0.4099  0.1198
  159SAPE   O1417719   0.907   0.919   6.122 -0.8613  0.3929  0.2867
  159SAPE   O1217720   0.827   1.140   6.203  0.2233 -0.7809 -0.4896
  159SAPE   O1117721   0.853   0.951   6.359 -0.5550  0.1614 -0.3144
  159SAPE    C117722   0.770   0.997   6.463  0.1080 -0.2821  0.7709
  159SAPE    HA17723   0.666   1.021   6.432  0.2585  0.4700  0.8136
  159SAPE    HB17724   0.757   0.907   6.527  2.3404 -1.5331 -0.4079
  159SAPE    C217725   0.826   1.114   6.549  0.0713  0.0341  0.7471
  159SAPE    HS17726   0.829   1.207   6.489 -1.6290 -0.0365  0.5226
  159SAPE   O2117727   0.960   1.078   6.597  0.1614  0.5345  0.7032
  159SAPE   C2117728   1.021   1.188   6.656  0.0729 -0.2261 -0.1111
  159SAPE   O2217729   0.977   1.302   6.635  0.3247 -0.2117 -0.3930
  159SAPE   C2217730   1.149   1.152   6.732  0.6802  0.0206  0.1148
  159SAPE   H2R17731   1.135   1.057   6.788 -0.4417  0.1965  0.1382
  159SAPE   H2S17732   1.231   1.141   6.658  0.1833  0.2153 -0.4668
  159SAPE    C317733   0.721   1.136   6.663  0.0806 -0.1235 -0.8496
  159SAPE    HX17734   0.626   1.168   6.614 -0.5196 -1.2872 -0.4997
  159SAPE    HY17735   0.752   1.221   6.726 -1.7261 -1.8382  2.6765
  159SAPE   O3117736   0.692   1.017   6.744 -0.4592  0.0051 -0.6451
  159SAPE   C3117737   0.766   1.009   6.860  0.0592 -0.9804 -0.0178
  159SAPE   O3217738   0.837   1.101   6.906  0.4451 -0.4797  0.0615
  159SAPE   C3217739   0.729   0.874   6.926  0.6259  0.2245  0.5633
  159SAPE   H2X17740   0.740   0.797   6.847 -0.3314  1.4582 -0.8279
  159SAPE   H2Y17741   0.621   0.886   6.951  0.8231  3.5962  0.2598
  159SAPE   C2317742   1.182   1.262   6.830  0.3396 -0.7593 -0.0376
  159SAPE   H3R17743   1.200   1.355   6.772  0.5746 -2.1933 -2.3665
  159SAPE   H3S17744   1.272   1.229   6.886  1.7176  1.0181 -1.1007
  159SAPE   C2417745   1.073   1.298   6.934 -0.1813  0.2875  0.6738
  159SAPE   H4R17746   1.063   1.213   7.005 -0.9081 -0.1758  0.0336
  159SAPE   H4S17747   0.978   1.322   6.882 -0.4081  1.4966  1.5932
  159SAPE   C2517748   1.130   1.419   7.011  0.1571  0.3789 -0.0134
  159SAPE   H5R17749   1.188   1.489   6.950  0.2108 -0.0061 -0.4110
  159SAPE   C2617750   1.133   1.437   7.140  0.0867 -0.0766  0.5699
  159SAPE   H6R17751   1.186   1.521   7.189 -1.6230  0.3950  1.6994
  159SAPE   C2717752   1.062   1.342   7.239 -1.0656  0.3153  0.3555
  159SAPE   H7R17753   0.975   1.296   7.187 -1.4125  1.3051  0.0257
  159SAPE   H7S17754   1.012   1.408   7.312 -1.0060  1.0722 -0.2730
  159SAPE   C2817755   1.153   1.232   7.292 -0.7989 -1.0103  0.7724
  159SAPE   H8R17756   1.198   1.185   7.203 -1.2268 -1.3779  0.7451
  159SAPE   C2917757   1.176   1.186   7.418  0.1794 -0.3687 -0.7119
  159SAPE   H9R17758   1.257   1.112   7.433 -0.6020 -0.8218  1.6917
  159SAPE  C21017759   1.108   1.244   7.544  0.0889  0.4203 -0.3602
  159SAPE  H10R17760   1.014   1.299   7.522 -0.8707  0.3068  2.9018
  159SAPE  H10S17761   1.185   1.302   7.599  0.6785  1.5064 -2.2523
  159SAPE  C21117762   1.069   1.126   7.633  0.4900 -0.4036 -0.4015
  159SAPE  H11R17763   0.985   1.071   7.588  0.3305 -0.0151 -0.5825
  159SAPE  C21217764   1.112   1.085   7.755  0.2858  0.8586 -0.1297
  159SAPE  H12R17765   1.058   0.994   7.785 -0.0528  0.9001 -0.5940
  159SAPE  C21317766   1.225   1.139   7.837  0.1813  0.4916 -0.1487
  159SAPE  H13R17767   1.201   1.173   7.940  0.9768  0.7774 -0.0460
  159SAPE  H13S17768   1.261   1.233   7.789 -0.1249  1.1663  0.9257
  159SAPE  C21417769   1.340   1.039   7.826 -0.5547  0.4270 -0.7776
  159SAPE  H14R17770   1.383   1.035   7.724 -2.4249  0.5621 -1.6176
  159SAPE  C21517771   1.377   0.958   7.929  0.0082  0.1782 -0.4056
  159SAPE  H15R17772   1.471   0.903   7.911 -0.2978  0.5985 -4.2995
  159SAPE  C21617773   1.314   0.947   8.065 -0.7669 -0.5771  0.8256
  159SAPE  H16R17774   1.272   0.844   8.063  1.0502 -1.3727  1.7725
  159SAPE  H16S17775   1.226   1.014   8.079 -2.0371 -1.7004 -1.2857
  159SAPE  C21717776   1.413   0.941   8.188 -0.1985  0.8534  0.2621
  159SAPE  H17R17777   1.347   0.945   8.277 -1.5527 -2.6022 -0.4422
  159SAPE  H17S17778   1.475   1.034   8.183  0.9173  0.0895 -0.6932
  159SAPE  C21817779   1.490   0.809   8.208 -0.3721 -0.1215  0.6577
  159SAPE  H18R17780   1.546   0.783   8.115  2.1796 -0.0965  2.1049
  159SAPE  H18S17781   1.415   0.728   8.222 -0.6939  0.2261  0.9604
  159SAPE  C21917782   1.589   0.811   8.321  0.0233 -0.6824  0.0692
  159SAPE  H19R17783   1.679   0.866   8.287  1.2515 -2.7135 -0.1650
  159SAPE  H19S17784   1.625   0.706   8.328  0.6347 -0.9643 -4.2571
  159SAPE  C22017785   1.561   0.871   8.457  0.3810  0.3952 -0.0133
  159SAPE  H20R17786   1.653   0.889   8.516  0.1794 -1.4708  0.9296
  159SAPE  H20S17787   1.500   0.802   8.518 -2.2545 -0.5241 -3.3579
  159SAPE  H20T17788   1.509   0.969   8.448 -1.4048 -0.5947 -0.9928
  159SAPE   C3317789   0.814   0.836   7.055 -0.7057 -0.1034  0.0460
  159SAPE   H3X17790   0.775   0.741   7.098 -3.7213 -0.0177 -2.1185
  159SAPE   H3Y17791   0.808   0.917   7.131 -0.2998  0.5765 -0.6293
  159SAPE   C3417792   0.955   0.826   7.011 -0.8714  0.0639  0.5323
  159SAPE   H4X17793   1.009   0.923   7.024  0.4348 -0.8131  2.1593
  159SAPE   H4Y17794   0.976   0.802   6.905 -1.4030 -0.7352  0.6049
  159SAPE   C3517795   1.052   0.747   7.098  0.0874 -0.3590  0.7674
  159SAPE   H5X17796   1.150   0.744   7.046  1.3190 -1.4260  2.9907
  159SAPE   H5Y17797   1.013   0.644   7.095  0.7611 -0.6000 -2.1194
  159SAPE   C3617798   1.058   0.792   7.246  0.5004  0.0368  0.9403
  159SAPE   H6X17799   0.953   0.778   7.279 -0.4877 -0.7402 -2.2296
  159SAPE   H6Y17800   1.072   0.903   7.251 -1.2309  0.3063  0.4438
  159SAPE   C3717801   1.155   0.715   7.335 -0.0548  0.2725 -0.3397
  159SAPE   H7X17802   1.254   0.736   7.289  0.4200  0.2096  0.6470
  159SAPE   H7Y17803   1.128   0.608   7.323 -2.0374  0.7684 -0.6181
  159SAPE   C3817804   1.180   0.771   7.474  0.1682 -0.6907 -0.4496
  159SAPE   H8X17805   1.081   0.799   7.516  0.4996 -3.8904  3.0151
  159SAPE   H8Y17806   1.250   0.857   7.470  0.5975 -0.9499  0.9208
  159SAPE   C3917807   1.231   0.664   7.569  0.4817 -0.1045 -0.0194
  159SAPE   H9X17808   1.318   0.609   7.526  3.2215  1.4793  3.0826
  159SAPE   H9Y17809   1.152   0.589   7.590 -0.6004  1.3102  1.1402
  159SAPE  C31017810   1.262   0.730   7.707  0.4731 -0.0587  0.5822
  159SAPE  H10X17811   1.194   0.803   7.755 -1.9039 -1.7064 -0.1209
  159SAPE  H10Y17812   1.358   0.783   7.687 -0.0900  0.1866 -1.7038
  159SAPE  C31117813   1.297   0.618   7.810 -0.6703 -0.1527  0.7086
  159SAPE  H11X17814   1.238   0.527   7.791 -0.1600  0.1914 -3.3052
  159SAPE  H11Y17815   1.277   0.649   7.915  1.9310  0.8222  1.0020
  159SAPE  C31217816   1.454   0.594   7.812  0.1373  0.2227  0.1981
  159SAPE  H12X17817   1.499   0.684   7.859 -2.1460  1.7859 -0.4972
  159SAPE  H12Y17818   1.492   0.580   7.709 -0.1699  1.4430 -0.0945
  159SAPE  C31317819   1.494   0.470   7.891  0.0459  0.2840  0.9206
  159SAPE  H13X17820   1.603   0.450   7.890 -0.4191 -2.6615 -0.7209
  159SAPE  H13Y17821   1.452   0.379   7.844  1.4941  0.4815 -0.8531
  159SAPE  C31417822   1.452   0.490   8.039 -0.4270 -0.0068  0.8988
  159SAPE  H14X17823   1.344   0.468   8.051 -0.9186  1.1562 -0.9450
  159SAPE  H14Y17824   1.475   0.596   8.061 -0.6309  0.2470 -0.0320
  159SAPE  C31517825   1.533   0.410   8.135 -0.2374  0.6829  0.2106
  159SAPE  H15X17826   1.640   0.439   8.121  0.0410 -0.1131  0.5935
  159SAPE  H15Y17827   1.538   0.301   8.113  0.8077  1.1615 -2.3187
  159SAPE  C31617828   1.486   0.430   8.276 -0.5287 -0.1696  0.1789
  159SAPE  H16X17829   1.493   0.535   8.311  3.4358  0.5879 -2.2004
  159SAPE  H16Y17830   1.555   0.375   8.344 -1.1420 -1.7602 -0.4348
  159SAPE  C31717831   1.345   0.372   8.300 -0.2791 -0.5351 -0.0482
  159SAPE  H17X17832   1.360   0.267   8.335 -2.5058 -0.3443  1.7263
  159SAPE  H17Y17833   1.292   0.359   8.204 -1.0677  0.2575  0.2637
  159SAPE  C31817834   1.263   0.452   8.399  0.1557 -0.0824 -0.1266
  159SAPE  H18X17835   1.165   0.401   8.407 -0.3300  0.9658  0.9906
  159SAPE  H18Y17836   1.235   0.555   8.369 -2.9602 -1.1335 -1.1601
  159SAPE  H18Z17837   1.301   0.466   8.503 -4.6949  1.9721  1.6616
  160SAPE     N17838   1.147   0.877   6.269 -0.3904 -0.3685 -0.1793
  160SAPE   HN117839   1.206   0.963   6.269 -1.1637  0.1888 -1.4677
  160SAPE   HN217840   1.185   0.794   6.220  0.6919 -0.4447  0.7487
  160SAPE   HN317841   1.056   0.904   6.226  0.7027  1.0061 -1.7372
  160SAPE   C1217842   1.122   0.852   6.413 -0.0535  0.4110 -0.0864
  160SAPE  H12A17843   1.051   0.767   6.424 -0.6898  0.9218 -0.2486
  160SAPE  H12B17844   1.078   0.942   6.459  0.4579  0.5316  0.1783
  160SAPE   C1117845   1.249   0.803   6.486 -0.7206 -0.0842 -0.4281
  160SAPE  H11A17846   1.235   0.781   6.594 -2.2606  2.1523 -0.1018
  160SAPE  H11B17847   1.324   0.884   6.487  0.4522 -1.1238  0.7630
  160SAPE     P17848   1.459   0.666   6.418  0.3344 -0.2343  0.1077
  160SAPE   O1317849   1.492   0.531   6.373  0.5190  0.1142  0.6540
  160SAPE   O1417850   1.533   0.771   6.336  0.3063  0.2720  0.0145
  160SAPE   O1217851   1.302   0.688   6.416 -0.6584  0.4241 -0.3087
  160SAPE   O1117852   1.501   0.684   6.574  0.1734 -0.0884 -1.0710
  160SAPE    C117853   1.466   0.597   6.682  0.4241 -0.3777 -0.2722
  160SAPE    HA17854   1.356   0.587   6.682  0.3221  0.3528  1.6594
  160SAPE    HB17855   1.509   0.495   6.673  0.4856 -0.4523  0.7300
  160SAPE    C217856   1.509   0.665   6.822  0.8042  0.3691 -0.0098
  160SAPE    HS17857   1.592   0.736   6.804  2.2095 -1.0618  0.6047
  160SAPE   O2117858   1.567   0.567   6.911  0.7799 -0.0508 -0.0612
  160SAPE   C2117859   1.692   0.530   6.881  0.9849 -0.0407  0.0938
  160SAPE   O2217860   1.754   0.561   6.779 -0.0897  0.2845  0.1862
  160SAPE   C2217861   1.734   0.417   6.980 -0.1505  0.0330 -0.0135
  160SAPE   H2R17862   1.675   0.405   7.074  2.2319 -2.8681  1.2541
  160SAPE   H2S17863   1.738   0.323   6.923  1.2109  1.0060 -1.6148
  160SAPE    C317864   1.387   0.735   6.881 -0.4688  0.0626  0.4047
  160SAPE    HX17865   1.305   0.669   6.917  0.1237 -0.7111  0.3365
  160SAPE    HY17866   1.343   0.803   6.804 -1.9202  1.5597  2.4326
  160SAPE   O3117867   1.429   0.804   7.001  0.1800 -0.5407 -0.2036
  160SAPE   C3117868   1.471   0.934   6.972 -0.3494 -0.7161  0.3560
  160SAPE   O3217869   1.490   0.984   6.863 -0.4320  0.2476  0.1901
  160SAPE   C3217870   1.488   1.009   7.105 -0.3058  0.3821  0.6400
  160SAPE   H2X17871   1.419   1.094   7.122 -0.9209 -0.4087  2.3674
  160SAPE   H2Y17872   1.590   1.054   7.098 -0.7437  1.1841 -1.1514
  160SAPE   C2317873   1.883   0.447   7.025 -0.7253 -0.2080 -0.1427
  160SAPE   H3R17874   1.951   0.459   6.939  0.3858 -0.3310  0.6995
  160SAPE   H3S17875   1.912   0.353   7.077 -1.6751 -0.2483  0.3372
  160SAPE   C2417876   1.908   0.577   7.115  0.2922  0.7868  0.3885
  160SAPE   H4R17877   1.843   0.573   7.206 -1.7344  1.2839 -0.9659
  160SAPE   H4S17878   1.867   0.663   7.058 -2.0180  0.7238  1.8107
  160SAPE   C2517879   2.056   0.605   7.138  0.3606 -0.1392 -0.3376
  160SAPE   H5R17880   2.113   0.619   7.045 -0.2851 -0.6316 -0.8183
  160SAPE   C2617881   2.120   0.612   7.258 -0.3495  0.6528  0.0812
  160SAPE   H6R17882   2.229   0.626   7.250 -0.1369 -1.6095 -2.9694
  160SAPE   C2717883   2.069   0.586   7.395 -0.7239 -0.4414 -0.3760
  160SAPE   H7R17884   2.096   0.485   7.432 -1.7407 -0.4838  0.2912
  160SAPE   H7S17885   1.959   0.601   7.388 -0.2406  3.3922 -2.0183
  160SAPE   C2817886   2.119   0.693   7.485 -0.5386 -0.7871  0.2897
  160SAPE   H8R17887   2.135   0.792   7.440 -0.9971 -1.4301 -1.3637
  160SAPE   C2917888   2.146   0.688   7.614  0.1305 -0.9759  0.2007
  160SAPE   H9R17889   2.163   0.787   7.660 -1.3932 -1.4066  1.7667
  160SAPE  C21017890   2.125   0.570   7.708  0.1952  0.4263  0.0885
  160SAPE  H10R17891   2.173   0.594   7.806  0.2482  0.7562 -0.0153
  160SAPE  H10S17892   2.187   0.490   7.664 -1.9034 -0.5324 -1.2413
  160SAPE  C21117893   1.982   0.520   7.718 -0.4501  0.3549 -0.0664
  160SAPE  H11R17894   1.919   0.563   7.638 -0.3605  0.4101 -0.1076
  160SAPE  C21217895   1.923   0.443   7.814  0.2862 -0.1461 -0.2741
  160SAPE  H12R17896   1.819   0.409   7.802 -0.1785  0.9906  0.4081
  160SAPE  C21317897   1.975   0.382   7.939 -0.1859  0.4386 -0.2456
  160SAPE  H13R17898   1.928   0.415   8.034  1.0033 -0.5230  0.7198
  160SAPE  H13S17899   2.084   0.402   7.951 -0.0939  2.2994 -3.2256
  160SAPE  C21417900   1.969   0.229   7.941  0.5567  0.2144  0.1120
  160SAPE  H14R17901   1.896   0.191   7.869  0.5243  1.7952 -0.7450
  160SAPE  C21517902   2.042   0.150   8.015 -0.4184  0.0450  0.6221
  160SAPE  H15R17903   2.022   0.042   8.007  0.0306  0.0463 -0.5922
  160SAPE  C21617904   2.139   0.189   8.128  0.4750 -0.0493  0.2296
  160SAPE  H16R17905   2.139   0.114   8.210 -1.9525  0.0186  0.3572
  160SAPE  H16S17906   2.092   0.275   8.181  0.5247  0.8617 -1.1513
  160SAPE  C21717907   2.288   0.214   8.090 -0.9103  0.3151 -0.0673
  160SAPE  H17R17908   2.296   0.295   8.015 -0.6271  0.0866 -0.2859
  160SAPE  H17S17909   2.331   0.121   8.048 -1.3192 -0.9668  2.1425
  160SAPE  C21817910   2.372   0.277   8.212 -0.2791  0.9002  0.0928
  160SAPE  H18R17911   2.316   0.363   8.254  0.7861  1.2483  0.8549
  160SAPE  H18S17912   2.468   0.313   8.168  2.1592 -1.8946  2.7352
  160SAPE  C21917913   2.408   0.170   8.317  0.3887  0.4186 -1.0213
  160SAPE  H19R17914   2.464   0.091   8.263  1.3595  0.1974  0.2587
  160SAPE  H19S17915   2.312   0.129   8.355  2.2140 -1.2316  2.2720
  160SAPE  C22017916   2.490   0.221   8.433  0.4587 -0.7513  0.5504
  160SAPE  H20R17917   2.592   0.252   8.403  0.2702  1.7043  2.1037
  160SAPE  H20S17918   2.489   0.146   8.515  1.7294 -1.0497  0.3144
  160SAPE  H20T17919   2.449   0.318   8.470  1.1610  0.1417 -0.9287
  160SAPE   C3317920   1.499   0.925   7.242  0.3472 -0.6987  0.2032
  160SAPE   H3X17921   1.560   0.837   7.213  2.2905  0.6757 -0.0544
  160SAPE   H3Y17922   1.401   0.880   7.269 -0.7629  1.7443  0.5496
  160SAPE   C3417923   1.578   0.993   7.352 -0.3342 -0.2058 -0.1263
  160SAPE   H4X17924   1.519   1.080   7.388  2.1980  0.2664  3.2846
  160SAPE   H4Y17925   1.678   1.027   7.317  0.1992  0.7011  2.0932
  160SAPE   C3517926   1.606   0.908   7.480 -0.6443  0.0293  0.1031
  160SAPE   H5X17927   1.658   0.820   7.436  2.4151  1.4527  0.6171
  160SAPE   H5Y17928   1.514   0.870   7.530 -1.2877  0.4676 -0.7186
  160SAPE   C3617929   1.697   0.984   7.582  0.4856  0.4813 -0.3519
  160SAPE   H6X17930   1.626   1.045   7.642  0.9986  1.0256 -0.2881
  160SAPE   H6Y17931   1.773   1.054   7.540 -0.7915  0.9260 -2.0065
  160SAPE   C3717932   1.758   0.876   7.668 -0.4158  0.2494  0.0288
  160SAPE   H7X17933   1.854   0.846   7.622 -0.0695 -0.5431  1.2209
  160SAPE   H7Y17934   1.693   0.788   7.687  0.4188 -0.6887 -1.3273
  160SAPE   C3817935   1.800   0.922   7.804 -0.9002 -0.4655 -0.2128
  160SAPE   H8X17936   1.710   0.932   7.868 -0.6135 -0.3448  0.1743
  160SAPE   H8Y17937   1.851   1.021   7.798 -3.5729  0.9767 -1.3181
  160SAPE   C3917938   1.888   0.833   7.888 -0.8645 -0.2942  0.2028
  160SAPE   H9X17939   1.993   0.833   7.851 -1.2015 -0.9773 -0.7864
  160SAPE   H9Y17940   1.850   0.732   7.863 -1.1528  0.3869 -2.3457
  160SAPE  C31017941   1.875   0.851   8.039  0.2196 -0.1208  0.0705
  160SAPE  H10X17942   1.902   0.758   8.094 -0.6504  0.4526  1.5306
  160SAPE  H10Y17943   1.767   0.874   8.053 -0.3419 -2.4381  0.0941
  160SAPE  C31117944   1.956   0.964   8.106 -0.0172  0.1991 -0.1837
  160SAPE  H11X17945   1.922   1.063   8.070 -0.4376  1.2188  2.7798
  160SAPE  H11Y17946   2.060   0.952   8.070  0.9130  2.1074  1.6818
  160SAPE  C31217947   1.930   0.964   8.260 -0.0391 -0.3264  0.5328
  160SAPE  H12X17948   1.940   0.859   8.294  0.5995 -0.6163 -0.4971
  160SAPE  H12Y17949   1.827   1.002   8.273  1.0690  2.3085  2.5394
  160SAPE  C31317950   2.032   1.051   8.342 -0.0572 -0.1519  0.2996
  160SAPE  H13X17951   2.005   1.047   8.449 -5.1431 -0.9192 -0.7388
  160SAPE  H13Y17952   2.007   1.155   8.309 -0.3359 -0.3553 -0.1432
  160SAPE  C31417953   2.174   1.026   8.313 -0.2867  0.2472 -0.3287
  160SAPE  H14X17954   2.193   1.073   8.214 -1.1410  0.7537 -0.2583
  160SAPE  H14Y17955   2.192   0.916   8.309  0.7593  0.3375  1.1288
  160SAPE  C31517956   2.264   1.090   8.423 -0.4911 -0.0694  0.1798
  160SAPE  H15X17957   2.239   1.037   8.517  1.3620 -1.0397  0.1683
  160SAPE  H15Y17958   2.227   1.193   8.442  1.2891  0.7275 -0.4264
  160SAPE  C31617959   2.419   1.088   8.401 -0.1713  0.9725  0.3173
  160SAPE  H16X17960   2.433   1.129   8.299 -0.6012 -0.2637 -0.2669
  160SAPE  H16Y17961   2.465   0.987   8.406  2.3550  2.1051  1.8930
  160SAPE  C31717962   2.485   1.182   8.502 -0.3180 -0.3269 -0.0402
  160SAPE  H17X17963   2.471   1.143   8.605  0.3830  1.3774  0.7472
  160SAPE  H17Y17964   2.435   1.281   8.490  0.6620  0.4337  1.6787
  160SAPE  C31817965   2.637   1.192   8.484  0.4793 -0.4458  0.1326
  160SAPE  H18X17966   2.677   1.092   8.457 -0.5625 -0.4037 -1.7230
  160SAPE  H18Y17967   2.689   1.225   8.577 -1.9545  1.8465  0.8097
  160SAPE  H18Z17968   2.673   1.259   8.402  0.3700 -0.5821 -0.0278
  161SOPE     N17969   0.264   1.851  11.039  0.2627  0.3515  0.5609
  161SOPE   HN117970   0.270   1.831  11.141 -0.2252  1.0922  0.7448
  161SOPE   HN217971   0.345   1.915  11.024  0.1156  0.2178 -1.0571
  161SOPE   HN317972   0.178   1.902  11.008  0.3116 -0.2518 -0.6366
  161SOPE   C1217973   0.292   1.735  10.943  0.1782 -0.4620 -0.2955
  161SOPE  H12A17974   0.200   1.674  10.947 -0.1962  0.1525  0.7952
  161SOPE  H12B17975   0.384   1.684  10.980  0.3171 -0.5830 -0.8022
  161SOPE   C1117976   0.323   1.793  10.802 -1.3736 -0.3901  0.3999
  161SOPE  H11A17977   0.234   1.832  10.747  0.1949  0.4982 -1.6483
  161SOPE  H11B17978   0.356   1.700  10.749 -0.6023 -0.7375  1.4700
  161SOPE     P17979   0.569   1.876  10.727 -0.1621  0.3175 -0.4023
  161SOPE   O1317980   0.609   1.733  10.724  0.0482  0.1839  0.3133
  161SOPE   O1417981   0.662   1.969  10.796 -0.4441  0.1884 -1.0000
  161SOPE   O1217982   0.422   1.897  10.789  0.8927 -0.2332  0.7213
  161SOPE   O1117983   0.539   1.928  10.582  0.9959 -0.1218 -0.4034
  161SOPE    C117984   0.468   2.050  10.557 -0.3662 -0.1010  0.3184
  161SOPE    HA17985   0.538   2.127  10.516 -1.0791  0.0234 -0.7150
  161SOPE    HB17986   0.437   2.103  10.649 -0.3395  0.9763 -0.2648
  161SOPE    C217987   0.348   2.034  10.464  0.0212 -0.5283  0.2621
  161SOPE    HS17988   0.269   1.962  10.495 -1.3705  0.1268 -1.5748
  161SOPE   O2117989   0.390   2.006  10.329 -0.2257 -0.3965  0.2221
  161SOPE   C2117990   0.409   1.882  10.300 -0.2164 -0.2862 -0.4424
  161SOPE   O2217991   0.404   1.793  10.380  0.1016  0.6603 -0.5138
  161SOPE   C2217992   0.464   1.854  10.160  0.3280 -0.3909 -0.1395
  161SOPE   H2R17993   0.574   1.869  10.174 -0.0562  1.4998  1.1924
  161SOPE   H2S17994   0.440   1.944  10.101 -1.3133  1.0256  2.4903
  161SOPE    C317995   0.260   2.169  10.445  0.0274 -0.0482  0.0348
  161SOPE    HX17996   0.331   2.255  10.452  0.4893 -0.2188 -1.9407
  161SOPE    HY17997   0.190   2.180  10.530  0.1131 -2.9833  0.5894
  161SOPE   O3117998   0.195   2.191  10.322  0.0852 -0.1840 -0.2830
  161SOPE   C3117999   0.097   2.104  10.289 -1.0694 -0.2526  0.3390
  161SOPE   O3218000   0.048   2.027  10.370  0.0405 -0.2982  0.2639
  161SOPE   C3218001   0.049   2.136  10.145  0.3590 -0.0499  0.3949
  161SOPE   H2X18002   0.018   2.242  10.150  1.0219  0.2433 -1.2302
  161SOPE   H2Y18003  -0.041   2.074  10.125 -0.3978  0.5249  1.8083
  161SOPE   C2318004   0.394   1.737  10.094 -0.4275  0.3880  0.5025
  161SOPE   H3R18005   0.286   1.753  10.075 -0.2802  0.1274 -0.6578
  161SOPE   H3S18006   0.400   1.648  10.159  1.5584 -0.0143 -0.1604
  161SOPE   C2418007   0.444   1.709   9.951  0.5714  0.3804 -0.2327
  161SOPE   H4R18008   0.541   1.655   9.962 -2.5319 -5.7253  1.6662
  161SOPE   H4S18009   0.372   1.639   9.902 -1.1800  0.8803  1.5136
  161SOPE   C2518010   0.436   1.822   9.848 -0.6690  0.0748  0.7113
  161SOPE   H5R18011   0.329   1.850   9.834 -0.0625  2.3014  0.1740
  161SOPE   H5S18012   0.484   1.920   9.869  0.5423  0.5252 -3.2608
  161SOPE   C2618013   0.492   1.782   9.707 -0.5907  0.0839 -0.3474
  161SOPE   H6R18014   0.444   1.684   9.688 -1.6500  0.4537  0.3273
  161SOPE   H6S18015   0.463   1.860   9.633 -1.2942  0.5301  0.3819
  161SOPE   C2718016   0.644   1.761   9.716  0.2508 -0.9134 -0.0861
  161SOPE   H7R18017   0.705   1.848   9.750  2.6618 -1.6430 -2.2083
  161SOPE   H7S18018   0.657   1.682   9.793  3.1180 -0.3945  0.0720
  161SOPE   C2818019   0.710   1.721   9.584 -0.0420  0.1778 -0.5568
  161SOPE   H8R18020   0.672   1.629   9.536  0.3365 -0.6370  0.6644
  161SOPE   H8S18021   0.702   1.809   9.517  0.0316 -0.8046 -1.8912
  161SOPE   C2918022   0.857   1.696   9.604  0.3191  0.2023  0.1381
  161SOPE   H9118023   0.876   1.600   9.655  0.6452 -1.2295 -2.5315
  161SOPE  C21018024   0.957   1.781   9.583  0.2042  0.2486  0.1023
  161SOPE  H10118025   1.062   1.752   9.601  0.4814  0.9892 -0.2898
  161SOPE  C21118026   0.949   1.926   9.531  0.0258  0.1618 -0.3296
  161SOPE  H11R18027   0.924   1.978   9.627 -0.6028  0.5577 -0.6958
  161SOPE  H11S18028   0.854   1.928   9.474  0.8078  0.6397 -1.6641
  161SOPE  C21218029   1.073   1.985   9.467 -0.2376 -0.8880  0.2284
  161SOPE  H12R18030   1.155   1.987   9.542 -0.4661  1.0867  0.4727
  161SOPE  H12S18031   1.040   2.088   9.440 -0.3719 -0.9335  0.2175
  161SOPE  C21318032   1.123   1.907   9.339  0.8529  0.0554 -0.2659
  161SOPE  H13R18033   1.029   1.892   9.282  0.1118 -0.6079  1.0691
  161SOPE  H13S18034   1.160   1.806   9.368 -5.1492 -2.6125 -0.3922
  161SOPE  C21418035   1.215   1.978   9.237  0.1703  0.5122  0.5550
  161SOPE  H14R18036   1.301   2.032   9.283  1.1397  0.0058 -0.6235
  161SOPE  H14S18037   1.146   2.054   9.194  0.5284  0.1635 -0.6647
  161SOPE  C21518038   1.248   1.885   9.119 -0.0685 -0.3552 -0.1504
  161SOPE  H15R18039   1.160   1.827   9.085  0.6497 -0.2958 -2.2747
  161SOPE  H15S18040   1.326   1.809   9.145  0.3886  0.5002  1.0508
  161SOPE  C21618041   1.292   1.959   8.997  0.7444  0.5988 -0.0611
  161SOPE  H16R18042   1.371   2.027   9.036 -1.2230  2.1147  1.5401
  161SOPE  H16S18043   1.211   2.017   8.948 -0.8941 -1.5897 -0.0661
  161SOPE  C21718044   1.331   1.850   8.894  0.2356  0.1555 -0.6644
  161SOPE  H17R18045   1.233   1.816   8.852 -1.6432  2.4113  1.5743
  161SOPE  H17S18046   1.389   1.765   8.936 -1.3954 -0.8663 -0.3650
  161SOPE  C21818047   1.414   1.899   8.778  0.6211  0.2120 -0.1037
  161SOPE  H18R18048   1.363   1.970   8.710  0.2982 -0.8313 -0.9878
  161SOPE  H18S18049   1.436   1.818   8.705  0.1039  0.2493 -0.3042
  161SOPE  H18T18050   1.515   1.929   8.812 -0.5576  2.5757  1.5476
  161SOPE   C3318051   0.157   2.127  10.037  0.0974  0.1180 -0.1434
  161SOPE   H3X18052   0.178   2.020  10.015  0.8280 -0.4303  2.8486
  161SOPE   H3Y18053   0.250   2.172  10.078  0.3331 -2.0806  1.9320
  161SOPE   C3418054   0.098   2.188   9.903 -0.1615 -0.1639 -0.1451
  161SOPE   H4X18055   0.116   2.296   9.921  1.1259 -0.5660  1.1959
  161SOPE   H4Y18056  -0.008   2.166   9.881 -0.5951  1.3801  0.2940
  161SOPE   C3518057   0.185   2.150   9.783 -0.9075 -0.0891 -0.0677
  161SOPE   H5X18058   0.185   2.040   9.766 -0.8707 -0.3488  1.5015
  161SOPE   H5Y18059   0.287   2.182   9.813 -1.9968  1.9021  1.7714
  161SOPE   C3618060   0.143   2.213   9.652  0.6608 -0.0236 -1.0663
  161SOPE   H6X18061   0.144   2.324   9.660  1.1655 -0.0531 -0.6812
  161SOPE   H6Y18062   0.038   2.183   9.635 -0.4018  3.0783 -0.6215
  161SOPE   C3718063   0.201   2.167   9.520 -0.0172  0.7398  0.1793
  161SOPE   H7X18064   0.234   2.061   9.532 -0.8955  0.4785  0.3450
  161SOPE   H7Y18065   0.296   2.220   9.500  0.2587  0.2840  0.2668
  161SOPE   C3818066   0.097   2.175   9.404 -0.2734 -0.3477  0.3203
  161SOPE   H8X18067   0.055   2.278   9.403 -0.5285 -0.4511 -0.3148
  161SOPE   H8Y18068   0.024   2.093   9.422  1.1812 -2.1251 -1.3585
  161SOPE   C3918069   0.165   2.154   9.268 -0.0764 -0.3504  0.2315
  161SOPE   H9X18070   0.231   2.067   9.287  0.8197  0.2884  0.0971
  161SOPE   H9Y18071   0.220   2.248   9.249  0.2271 -0.2874  1.3531
  161SOPE  C31018072   0.052   2.119   9.161 -0.0465  0.0413 -0.3187
  161SOPE  H10X18073  -0.003   2.209   9.125 -0.1233  0.7486  1.4832
  161SOPE  H10Y18074  -0.030   2.061   9.207 -0.0493  1.1409  1.1230
  161SOPE  C31118075   0.104   2.034   9.044 -0.6004  0.9405 -0.4285
  161SOPE  H11X18076   0.181   1.963   9.079  1.0896  2.8009 -0.1458
  161SOPE  H11Y18077   0.162   2.099   8.974  0.6635 -1.1515 -1.4142
  161SOPE  C31218078  -0.017   1.959   8.982 -0.4340 -0.8689 -0.0899
  161SOPE  H12X18079  -0.105   2.027   8.979 -0.4598 -0.6638  2.4705
  161SOPE  H12Y18080  -0.056   1.880   9.050 -1.7885  0.3053  0.5604
  161SOPE  C31318081   0.020   1.901   8.849  0.4593 -0.6681  0.3969
  161SOPE  H13X18082   0.032   1.791   8.865 -0.7397 -1.5084 -3.4292
  161SOPE  H13Y18083   0.114   1.946   8.810 -1.5684  0.3365 -3.8803
  161SOPE  C31418084  -0.090   1.929   8.743 -0.0362  0.1966  0.0871
  161SOPE  H14X18085  -0.119   2.036   8.738  1.4027  0.5626 -0.9423
  161SOPE  H14Y18086  -0.180   1.868   8.768  0.7969 -0.8051  0.7053
  161SOPE  C31518087  -0.039   1.894   8.601  0.1623  0.1258  0.6809
  161SOPE  H15X18088   0.058   1.943   8.573  0.4242 -0.0525  1.2573
  161SOPE  H15Y18089  -0.113   1.918   8.523 -0.6653 -2.0684  0.7332
  161SOPE  C31618090  -0.011   1.743   8.601 -0.2194  0.6932  0.2967
  161SOPE  H16X18091  -0.092   1.686   8.651 -0.7460  1.2197  0.0567
  161SOPE  H16Y18092   0.090   1.722   8.643 -0.3138 -0.8442 -0.1812
  161SOPE  C31718093   0.000   1.678   8.462 -0.3079  0.3554  0.1996
  161SOPE  H17X18094   0.070   1.742   8.403  0.1364 -0.8833 -0.6532
  161SOPE  H17Y18095  -0.093   1.673   8.401  0.4040  1.7094 -1.0901
  161SOPE  C31818096   0.055   1.533   8.459 -0.8252 -0.4661  0.2548
  161SOPE  H18X18097   0.160   1.522   8.493 -1.3391 -0.9740  1.7490
  161SOPE  H18Y18098   0.052   1.484   8.359  0.3806  1.6822 -0.8961
  161SOPE  H18Z18099  -0.007   1.472   8.528 -0.8423 -0.6105  0.1131
  162SOPE     N18100   5.228   1.765  10.665  0.5706  0.6593  0.2540
  162SOPE   HN118101   5.307   1.738  10.727  0.1639 -0.2445  0.3969
  162SOPE   HN218102   5.230   1.711  10.576 -0.4211 -0.1046  0.6698
  162SOPE   HN318103   5.230   1.864  10.633 -1.2541  0.6361 -0.0116
  162SOPE   C1218104   5.097   1.711  10.733  0.6064 -0.2735 -0.4000
  162SOPE  H12A18105   5.081   1.607  10.699 -0.6395  0.3719 -1.9044
  162SOPE  H12B18106   5.012   1.766  10.688  0.7096 -0.2275 -0.5422
  162SOPE   C1118107   5.098   1.740  10.888 -0.0288 -0.3403 -0.5203
  162SOPE  H11A18108   5.169   1.671  10.938 -2.8355 -3.0430  0.0294
  162SOPE  H11B18109   5.006   1.711  10.944  1.8220 -1.4586  2.1497
  162SOPE     P18110   5.047   1.992  10.869 -0.1875 -0.2263  0.2144
  162SOPE   O1318111   5.085   2.107  10.946 -0.5794 -0.5018  0.4418
  162SOPE   O1418112   4.907   1.951  10.875 -0.5372 -0.2516 -0.4330
  162SOPE   O1218113   5.141   1.874  10.914  0.4579 -0.0189 -0.1242
  162SOPE   O1118114   5.085   2.004  10.716  0.7217 -0.1566 -0.4751
  162SOPE    C118115   5.161   2.111  10.674 -0.3841 -0.0218  0.9763
  162SOPE    HA18116   5.267   2.078  10.665  0.5003  2.3428  2.0289
  162SOPE    HB18117   5.152   2.205  10.732  0.6557  1.3606 -0.9707
  162SOPE    C218118   5.121   2.134  10.527 -0.1121  0.4239  0.4741
  162SOPE    HS18119   5.017   2.170  10.518  0.1690  1.0562 -0.3626
  162SOPE   O2118120   5.151   2.006  10.468 -0.2028 -0.0095  0.4760
  162SOPE   C2118121   5.076   1.970  10.358 -0.1129  0.5561 -0.7563
  162SOPE   O2218122   4.965   2.016  10.342  0.6970  0.0096 -0.1134
  162SOPE   C2218123   5.142   1.856  10.280  0.0914 -0.0114 -0.1953
  162SOPE   H2R18124   5.058   1.785  10.263 -1.6929  1.7209  0.8691
  162SOPE   H2S18125   5.216   1.802  10.343  0.5074  0.3271 -0.3942
  162SOPE    C318126   5.196   2.242  10.451 -0.0081  0.1270 -0.3760
  162SOPE    HX18127   5.303   2.212  10.461 -0.7217 -1.7568  2.8209
  162SOPE    HY18128   5.195   2.338  10.507  0.4531 -0.0955  0.0199
  162SOPE   O3118129   5.153   2.260  10.314 -0.0295  0.1039 -0.5935
  162SOPE   C3118130   5.048   2.334  10.300 -0.6923  0.4607  0.4345
  162SOPE   O3218131   4.984   2.390  10.387  0.8693  0.1937  0.3536
  162SOPE   C3218132   5.011   2.359  10.157 -0.2254 -0.3516 -0.8976
  162SOPE   H2X18133   5.032   2.467  10.145  1.0106 -0.3563  0.8384
  162SOPE   H2Y18134   4.905   2.332  10.135 -0.6164 -0.7994  1.2851
  162SOPE   C2318135   5.203   1.895  10.144 -0.0972 -0.2003 -0.5803
  162SOPE   H3R18136   5.135   1.957  10.082 -2.2957 -1.4760  0.4471
  162SOPE   H3S18137   5.223   1.806  10.080 -1.1900 -1.4543  0.7542
  162SOPE   C2418138   5.346   1.951  10.167 -0.7802  0.4500 -0.0675
  162SOPE   H4R18139   5.354   2.014  10.257 -0.7487  1.1714 -0.5697
  162SOPE   H4S18140   5.425   1.873  10.175 -0.1547  1.1722  1.0905
  162SOPE   C2518141   5.383   2.034  10.039  0.4697  0.1764  0.2602
  162SOPE   H5R18142   5.291   2.094  10.020  0.4245 -0.0832 -0.3486
  162SOPE   H5S18143   5.474   2.090  10.067 -0.5191  1.3007  1.3433
  162SOPE   C2618144   5.411   1.944   9.915 -0.2324  0.2086 -0.0765
  162SOPE   H6R18145   5.461   1.851   9.949  2.8524  1.1598 -1.6479
  162SOPE   H6S18146   5.315   1.923   9.863 -0.3598  1.2846 -0.3037
  162SOPE   C2718147   5.506   2.017   9.807  0.1963 -0.5277  0.3320
  162SOPE   H7R18148   5.498   1.968   9.707 -2.1142  0.5130 -0.0690
  162SOPE   H7S18149   5.468   2.119   9.788 -0.2344 -0.5837  0.8566
  162SOPE   C2818150   5.653   2.031   9.835 -0.7240 -0.2625  1.2023
  162SOPE   H8R18151   5.684   2.086   9.744 -1.7163 -2.9135 -0.8922
  162SOPE   H8S18152   5.676   2.083   9.930 -0.6426  2.9108 -0.4380
  162SOPE   C2918153   5.726   1.899   9.828  0.6018  0.0957 -0.9906
  162SOPE   H9118154   5.686   1.819   9.892 -0.1991  0.2445 -1.2937
  162SOPE  C21018155   5.844   1.872   9.768  0.6602  0.0430  0.8202
  162SOPE  H10118156   5.874   1.767   9.764  0.8279  0.0964 -2.3548
  162SOPE  C21118157   5.940   1.962   9.698  0.1914 -0.2905 -0.6232
  162SOPE  H11R18158   6.045   1.948   9.732  0.7391  1.7985 -1.3238
  162SOPE  H11S18159   5.916   2.066   9.727  2.0876  0.3358 -1.1709
  162SOPE  C21218160   5.927   1.952   9.540  0.0773 -0.6004 -0.2648
  162SOPE  H12R18161   5.991   2.037   9.507  0.4709 -1.1176 -0.8525
  162SOPE  H12S18162   5.829   1.988   9.502 -0.2511 -0.7612  0.4242
  162SOPE  C21318163   5.977   1.822   9.476 -0.1524  0.5925 -0.1107
  162SOPE  H13R18164   5.917   1.737   9.514 -0.1605  0.4585 -0.4184
  162SOPE  H13S18165   6.081   1.808   9.510 -1.2178  0.7494  3.5871
  162SOPE  C21418166   5.978   1.831   9.321 -0.1416  0.1036  0.4172
  162SOPE  H14R18167   5.877   1.846   9.277  0.2419  1.2348 -0.1016
  162SOPE  H14S18168   6.024   1.742   9.271 -3.4906 -1.1143 -0.7622
  162SOPE  C21518169   6.069   1.942   9.259 -0.1940  0.1552  0.7377
  162SOPE  H15R18170   6.173   1.927   9.294  1.3780  0.1388 -3.3623
  162SOPE  H15S18171   6.028   2.038   9.296  0.0402  0.1063  1.1369
  162SOPE  C21618172   6.053   1.945   9.102  0.0525  0.0889 -0.0680
  162SOPE  H16R18173   6.109   2.037   9.077 -1.0435  0.7667 -0.1127
  162SOPE  H16S18174   5.946   1.966   9.077  0.5947  0.8565 -1.9040
  162SOPE  C21718175   6.109   1.819   9.022 -0.5971 -0.2711 -0.3021
  162SOPE  H17R18176   6.088   1.828   8.913 -2.7226 -0.7831  0.0065
  162SOPE  H17S18177   6.058   1.731   9.068  2.3485 -1.0517  1.7146
  162SOPE  C21818178   6.265   1.810   9.046 -0.3317 -0.2982 -0.4503
  162SOPE  H18R18179   6.311   1.745   8.968 -1.0729  0.2328 -1.3553
  162SOPE  H18S18180   6.288   1.777   9.149  0.5468  1.2662 -0.1321
  162SOPE  H18T18181   6.311   1.909   9.030  3.5418 -2.0189 -1.2071
  162SOPE   C3318182   5.094   2.286  10.052 -0.6875 -1.1114 -0.3392
  162SOPE   H3X18183   5.098   2.181  10.089  0.5213 -0.2879  2.0182
  162SOPE   H3Y18184   5.195   2.329  10.068 -0.0156 -2.4520 -0.8161
  162SOPE   C3418185   5.050   2.294   9.904 -0.5524  0.3880 -0.6878
  162SOPE   H4X18186   5.043   2.401   9.877  1.6722  0.9741  0.7454
  162SOPE   H4Y18187   4.953   2.242   9.888 -0.6785 -0.1517  1.5281
  162SOPE   C3518188   5.155   2.233   9.811 -0.1110 -0.4731 -0.2892
  162SOPE   H5X18189   5.143   2.123   9.824  0.8740 -0.5133  0.3666
  162SOPE   H5Y18190   5.258   2.268   9.834 -0.8895  1.6413  0.1607
  162SOPE   C3618191   5.119   2.248   9.664 -0.9869  0.6401 -0.0514
  162SOPE   H6X18192   5.010   2.243   9.642 -0.5061  1.2648 -2.9448
  162SOPE   H6Y18193   5.174   2.176   9.601  0.8474 -0.0682  2.1997
  162SOPE   C3718194   5.179   2.373   9.595  0.0341  0.3133  0.6831
  162SOPE   H7X18195   5.286   2.353   9.575 -0.8015 -1.8365 -2.3334
  162SOPE   H7Y18196   5.165   2.447   9.678  0.0681 -0.2089  1.1559
  162SOPE   C3818197   5.094   2.428   9.474 -0.0387 -0.1725 -0.2580
  162SOPE   H8X18198   5.148   2.521   9.444  0.5119 -0.0265  1.0751
  162SOPE   H8Y18199   4.993   2.452   9.513  0.0667 -0.6610  0.3264
  162SOPE   C3918200   5.086   2.339   9.349 -0.4983  0.2244  0.2236
  162SOPE   H9X18201   5.046   2.238   9.371  0.4032  0.2606  2.1991
  162SOPE   H9Y18202   5.193   2.321   9.324 -0.8846 -0.4240 -1.0697
  162SOPE  C31018203   5.017   2.401   9.223  0.0124 -0.0259  0.0430
  162SOPE  H10X18204   5.041   2.332   9.139 -2.3596 -0.9476  0.0543
  162SOPE  H10Y18205   5.045   2.507   9.205 -0.1709  0.2876  1.5436
  162SOPE  C31118206   4.864   2.408   9.221  0.4684 -0.3450  0.0766
  162SOPE  H11X18207   4.828   2.466   9.309 -3.6296  0.2362 -1.7123
  162SOPE  H11Y18208   4.827   2.305   9.244  0.8586 -0.1334  1.7940
  162SOPE  C31218209   4.816   2.456   9.080 -0.0913 -0.2698 -0.0613
  162SOPE  H12X18210   4.872   2.410   8.995  0.7951 -2.0921  1.4234
  162SOPE  H12Y18211   4.842   2.564   9.075 -1.1428 -0.0137 -0.0765
  162SOPE  C31318212   4.666   2.453   9.058  0.2432  0.0277 -0.5556
  162SOPE  H13X18213   4.639   2.532   8.985 -1.0665 -3.0309 -3.6864
  162SOPE  H13Y18214   4.610   2.475   9.151  0.3747 -0.7866 -0.2776
  162SOPE  C31418215   4.622   2.315   8.997 -0.3350  0.3186  0.1878
  162SOPE  H14X18216   4.671   2.246   9.068 -1.3050  1.6102  2.1962
  162SOPE  H14Y18217   4.674   2.289   8.902  1.8706  0.4136  1.2931
  162SOPE  C31518218   4.474   2.298   8.993  0.0966 -0.6603 -0.4248
  162SOPE  H15X18219   4.433   2.397   8.964 -0.6975 -1.1231 -0.9119
  162SOPE  H15Y18220   4.452   2.276   9.100  1.3880 -1.5680 -0.3133
  162SOPE  C31618221   4.426   2.168   8.917  0.4423  0.2560  0.1717
  162SOPE  H16X18222   4.481   2.075   8.940 -1.4043 -0.8365  0.3570
  162SOPE  H16Y18223   4.445   2.184   8.809 -1.4018 -0.6405 -0.3300
  162SOPE  C31718224   4.276   2.130   8.940 -0.2723 -0.2079 -0.1078
  162SOPE  H17X18225   4.229   2.229   8.958  0.1962 -0.0105  0.0212
  162SOPE  H17Y18226   4.259   2.071   9.032  0.1478  3.1432  2.2866
  162SOPE  C31818227   4.198   2.077   8.816 -0.4510 -0.4176 -0.2019
  162SOPE  H18X18228   4.091   2.107   8.823 -0.3595 -0.1980  0.2974
  162SOPE  H18Y18229   4.197   1.966   8.810  0.6616 -0.4368 -0.1988
  162SOPE  H18Z18230   4.240   2.116   8.722  0.7822 -0.9677  0.0969
  163SOPE     N18231   5.670   4.701  10.867  0.3232 -0.0457 -0.2524
  163SOPE   HN118232   5.616   4.669  10.950  1.2108 -1.7495 -0.2943
  163SOPE   HN218233   5.753   4.640  10.854  1.0654  1.0147 -0.6514
  163SOPE   HN318234   5.702   4.799  10.883 -0.7452  0.4048 -0.7942
  163SOPE   C1218235   5.580   4.696  10.755  0.3976 -0.3569 -0.2809
  163SOPE  H12A18236   5.520   4.603  10.763  1.2803 -0.8197  1.3368
  163SOPE  H12B18237   5.638   4.696  10.660  1.2673 -1.4862  0.2181
  163SOPE   C1118238   5.472   4.815  10.764 -0.1683  1.4281  0.2927
  163SOPE  H11A18239   5.405   4.805  10.852  1.5294  1.9270  1.7018
  163SOPE  H11B18240   5.420   4.799  10.667  1.8715  2.0980 -0.9768
  163SOPE     P18241   5.472   5.072  10.783  0.1393  0.2338 -0.1834
  163SOPE   O1318242   5.443   5.089  10.929  0.4755 -0.0462 -0.0422
  163SOPE   O1418243   5.361   5.083  10.688 -0.4774  0.0651  0.3151
  163SOPE   O1218244   5.545   4.932  10.759  0.0514 -0.4192 -0.6750
  163SOPE   O1118245   5.584   5.181  10.745 -0.1737  0.3374 -0.1023
  163SOPE    C118246   5.703   5.140  10.678 -0.1142 -0.3473  0.0460
  163SOPE    HA18247   5.744   5.039  10.702  0.8391  0.1744  0.7112
  163SOPE    HB18248   5.778   5.217  10.708 -0.2469  0.2795 -1.1915
  163SOPE    C218249   5.680   5.155  10.525 -0.7996  0.0837  1.1670
  163SOPE    HS18250   5.618   5.247  10.510 -0.0457  0.5133  0.6328
  163SOPE   O2118251   5.604   5.041  10.474 -0.2435  0.0216 -0.0577
  163SOPE   C2118252   5.490   5.066  10.405  0.0521  0.1636 -0.5943
  163SOPE   O2218253   5.451   5.177  10.381  0.3686  0.1510  0.9398
  163SOPE   C2218254   5.424   4.929  10.364 -0.1643 -0.1907  0.3527
  163SOPE   H2R18255   5.356   4.894  10.444 -0.6094 -0.4977 -0.1523
  163SOPE   H2S18256   5.507   4.855  10.361  0.2151  0.2280  0.4216
  163SOPE    C318257   5.815   5.179  10.448 -0.6390 -0.0439  0.1146
  163SOPE    HX18258   5.873   5.084  10.451 -2.2287 -1.0163  1.4424
  163SOPE    HY18259   5.875   5.257  10.499  0.3490  0.2637 -1.4453
  163SOPE   O3118260   5.784   5.212  10.310 -0.0940 -0.0859 -0.0158
  163SOPE   C3118261   5.856   5.312  10.262  0.2619 -0.0237 -0.3654
  163SOPE   O3218262   5.932   5.383  10.329 -0.5154  0.1066  0.3320
  163SOPE   C3218263   5.826   5.327  10.114  0.9320 -0.8569 -0.3899
  163SOPE   H2X18264   5.754   5.412  10.101  0.8623 -1.0349 -1.1658
  163SOPE   H2Y18265   5.779   5.237  10.069  0.5140 -0.0110 -1.7074
  163SOPE   C2318266   5.345   4.943  10.233  0.0057 -0.3056  0.1900
  163SOPE   H3R18267   5.402   4.977  10.144 -0.8375  2.3169  0.5380
  163SOPE   H3S18268   5.273   5.025  10.257 -1.3282 -0.6097 -2.4484
  163SOPE   C2418269   5.260   4.817  10.197 -0.2866  0.4095  0.7420
  163SOPE   H4R18270   5.206   4.782  10.287  0.2502 -2.5441  0.0122
  163SOPE   H4S18271   5.178   4.845  10.127 -0.9507  0.2203  1.4362
  163SOPE   C2518272   5.353   4.711  10.128  0.0819  0.3307 -0.5657
  163SOPE   H5R18273   5.450   4.714  10.182 -0.6738 -1.3021  0.9662
  163SOPE   H5S18274   5.308   4.610  10.139  0.3863  0.2436 -0.1125
  163SOPE   C2618275   5.384   4.739   9.975 -0.1747  0.2261  0.3202
  163SOPE   H6R18276   5.415   4.845   9.964  0.4643 -0.2268 -3.6522
  163SOPE   H6S18277   5.466   4.672   9.939  0.8506  1.9265 -0.6274
  163SOPE   C2718278   5.268   4.721   9.880 -0.5122  0.2074  0.7538
  163SOPE   H7R18279   5.237   4.616   9.901 -1.8197  0.2274 -0.8266
  163SOPE   H7S18280   5.178   4.783   9.900  0.2553  1.3385  0.7944
  163SOPE   C2818281   5.313   4.728   9.740  0.3943  0.0337 -0.6961
  163SOPE   H8R18282   5.354   4.829   9.719 -0.5372  0.6854  0.5095
  163SOPE   H8S18283   5.405   4.668   9.728  0.7907  0.1298  1.4634
  163SOPE   C2918284   5.207   4.686   9.646 -0.1194  0.0488  0.4182
  163SOPE   H9118285   5.181   4.580   9.645  1.6274 -0.4149  0.7036
  163SOPE  C21018286   5.124   4.763   9.582  0.8072 -0.1171  0.6479
  163SOPE  H10118287   5.066   4.726   9.497  1.5011 -2.2337  1.0351
  163SOPE  C21118288   5.119   4.917   9.597 -0.3527  0.1888  0.4237
  163SOPE  H11R18289   5.163   4.941   9.696  0.4019 -0.2362  0.2065
  163SOPE  H11S18290   5.018   4.962   9.586  0.4444  1.7972 -0.6963
  163SOPE  C21218291   5.207   4.981   9.483 -0.5155 -0.6360  0.6552
  163SOPE  H12R18292   5.317   4.988   9.499 -0.2756  0.5692 -1.2331
  163SOPE  H12S18293   5.183   5.090   9.476  1.3578 -0.2467 -0.4143
  163SOPE  C21318294   5.182   4.932   9.336  0.1619  0.1632  0.3977
  163SOPE  H13R18295   5.079   4.900   9.310  0.1986  0.9673 -0.7766
  163SOPE  H13S18296   5.235   4.834   9.327 -1.6672 -0.7016 -1.9683
  163SOPE  C21418297   5.215   5.039   9.232 -0.5770  0.0575 -0.2707
  163SOPE  H14R18298   5.322   5.067   9.231 -0.7791  1.4028  3.0325
  163SOPE  H14S18299   5.147   5.120   9.267  1.1859  2.0375 -1.2239
  163SOPE  C21518300   5.172   4.994   9.086  0.8429  0.0623 -0.0420
  163SOPE  H15R18301   5.065   4.963   9.087  0.8680 -0.0238  0.2897
  163SOPE  H15S18302   5.236   4.907   9.060  1.8096  1.0647 -1.1217
  163SOPE  C21618303   5.190   5.100   8.976 -0.1017 -0.4465  0.2092
  163SOPE  H16R18304   5.300   5.116   8.970 -0.0649 -1.1346 -2.2348
  163SOPE  H16S18305   5.141   5.195   9.007 -0.2753  0.3499 -2.2867
  163SOPE  C21718306   5.148   5.052   8.832  0.2458  0.2286  0.0021
  163SOPE  H17R18307   5.203   5.124   8.769 -0.8740  2.6770  1.6861
  163SOPE  H17S18308   5.044   5.086   8.811  0.9765  2.6021 -0.0189
  163SOPE  C21818309   5.186   4.912   8.791  0.5451 -0.5468  0.5840
  163SOPE  H18R18310   5.294   4.894   8.811  0.5729 -0.9115  0.1323
  163SOPE  H18S18311   5.174   4.894   8.682 -0.0246  0.5993  0.4435
  163SOPE  H18T18312   5.130   4.834   8.847 -2.0824 -0.2638 -1.4873
  163SOPE   C3318313   5.954   5.344  10.031  0.1642 -0.6217 -0.5719
  163SOPE   H3X18314   6.025   5.259  10.045 -1.7191 -2.0364  1.0229
  163SOPE   H3Y18315   6.010   5.431  10.073 -1.6016  2.6058 -4.2404
  163SOPE   C3418316   5.919   5.379   9.889 -0.4656  0.2205  0.5872
  163SOPE   H4X18317   5.855   5.469   9.877  0.4380  0.8982  0.7810
  163SOPE   H4Y18318   5.866   5.289   9.850 -0.7369  1.3240 -1.7474
  163SOPE   C3518319   6.039   5.389   9.794 -0.0493 -0.5053  0.0318
  163SOPE   H5X18320   6.105   5.301   9.808  0.1645  0.0011  2.8963
  163SOPE   H5Y18321   6.094   5.475   9.838  0.5094 -0.6942 -0.2878
  163SOPE   C3618322   6.007   5.424   9.654  0.7711 -0.5194 -0.4818
  163SOPE   H6X18323   5.921   5.494   9.656  0.3140 -1.0512 -0.9837
  163SOPE   H6Y18324   5.965   5.329   9.613  0.5542 -1.0866  0.9971
  163SOPE   C3718325   6.123   5.476   9.585  0.2508 -0.4644 -0.2492
  163SOPE   H7X18326   6.206   5.407   9.612  0.2144  0.3183  2.0654
  163SOPE   H7Y18327   6.144   5.578   9.622 -0.7144 -0.9881  1.8844
  163SOPE   C3818328   6.092   5.483   9.430 -0.5957 -0.7565  1.1851
  163SOPE   H8X18329   6.024   5.399   9.406  1.6248 -1.4520 -3.7835
  163SOPE   H8Y18330   6.171   5.483   9.352  0.6135 -1.6713  2.3641
  163SOPE   C3918331   6.003   5.607   9.407 -0.1065 -0.1517  0.0647
  163SOPE   H9X18332   6.054   5.695   9.451 -1.6347  2.0578 -2.3060
  163SOPE   H9Y18333   5.910   5.590   9.465  0.1464  0.0204  0.5197
  163SOPE  C31018334   5.968   5.631   9.263 -0.3906 -0.4498  0.9769
  163SOPE  H10X18335   5.870   5.681   9.244 -0.0449 -0.4155 -0.9090
  163SOPE  H10Y18336   5.939   5.535   9.215 -0.0561 -0.2379  0.3474
  163SOPE  C31118337   6.076   5.710   9.185  0.1522  0.0138 -0.2883
  163SOPE  H11X18338   6.165   5.705   9.252 -0.1417  0.8753  0.1779
  163SOPE  H11Y18339   6.048   5.815   9.163  0.1129  0.3253  1.1531
  163SOPE  C31218340   6.110   5.645   9.049 -0.0784 -0.2104 -0.5023
  163SOPE  H12X18341   6.088   5.538   9.067  2.2617 -0.4562  1.4515
  163SOPE  H12Y18342   6.219   5.655   9.030  0.0831  0.0827  0.5159
  163SOPE  C31318343   6.034   5.702   8.927  0.4535  0.1816 -0.1189
  163SOPE  H13X18344   5.933   5.720   8.968  0.5956 -2.0140  1.3237
  163SOPE  H13Y18345   6.027   5.623   8.850 -2.1502 -0.9054  1.1262
  163SOPE  C31418346   6.097   5.830   8.869 -0.0735  0.2831 -0.2516
  163SOPE  H14X18347   6.198   5.805   8.829 -1.3255 -2.5967 -1.9233
  163SOPE  H14Y18348   6.101   5.911   8.946  0.8915  0.7857 -0.8083
  163SOPE  C31518349   6.017   5.888   8.758 -0.5966  0.2494 -0.4430
  163SOPE  H15X18350   5.920   5.933   8.789 -0.4162 -0.5476  1.3837
  163SOPE  H15Y18351   5.997   5.805   8.686 -0.3400  1.5541 -2.0879
  163SOPE  C31618352   6.088   6.003   8.678 -0.1002 -0.4546  0.5375
  163SOPE  H16X18353   6.188   5.967   8.646 -0.1890 -0.7507  0.5938
  163SOPE  H16Y18354   6.108   6.088   8.747  1.6885 -0.4644  0.0734
  163SOPE  C31718355   6.000   6.063   8.565 -0.0243 -0.6671 -0.4127
  163SOPE  H17X18356   6.052   6.152   8.525 -0.2283 -0.1970  0.3441
  163SOPE  H17Y18357   5.911   6.109   8.611  1.3664  1.7514  0.0227
  163SOPE  C31818358   5.963   5.972   8.448 -0.8934  0.6055 -0.5352
  163SOPE  H18X18359   6.051   5.944   8.386 -1.2535 -0.2172 -0.6938
  163SOPE  H18Y18360   5.911   6.034   8.372 -0.9597  1.0398 -0.1338
  163SOPE  H18Z18361   5.890   5.895   8.483  1.3245 -1.4162 -0.0401
  164SOPE     N18362   1.678   3.089  10.674  0.3630  0.0062 -0.0446
  164SOPE   HN118363   1.579   3.096  10.642 -0.3802 -0.9145  1.9209
  164SOPE   HN218364   1.743   3.079  10.593  0.2116 -1.1199 -0.0391
  164SOPE   HN318365   1.689   3.009  10.739 -0.1509  0.1170  0.1762
  164SOPE   C1218366   1.737   3.193  10.756  0.0717  0.0639 -0.0964
  164SOPE  H12A18367   1.808   3.140  10.822  0.7335 -0.9993 -1.6016
  164SOPE  H12B18368   1.664   3.236  10.827 -0.1251  1.0191 -0.8466
  164SOPE   C1118369   1.797   3.314  10.680 -0.0064 -0.6764  0.2913
  164SOPE  H11A18370   1.807   3.394  10.756  0.2218  0.1173 -0.5562
  164SOPE  H11B18371   1.740   3.355  10.594  2.9918  1.0309 -1.0276
  164SOPE     P18372   1.960   3.230  10.490 -0.4003  0.2998  0.2247
  164SOPE   O1318373   1.855   3.129  10.467  0.2413  0.2089 -0.5207
  164SOPE   O1418374   2.104   3.189  10.483  0.0540 -0.0279 -0.3014
  164SOPE   O1218375   1.933   3.285  10.637 -0.2167  0.5384  0.8384
  164SOPE   O1118376   1.935   3.350  10.394 -0.4423  0.2421  0.6944
  164SOPE    C118377   1.985   3.483  10.421  0.5419 -0.9435  0.1010
  164SOPE    HA18378   2.030   3.494  10.522 -1.2645 -0.9201  0.9404
  164SOPE    HB18379   1.907   3.562  10.417  3.0688  1.6886  0.0826
  164SOPE    C218380   2.108   3.531  10.331 -0.2115 -0.8995  0.8233
  164SOPE    HS18381   2.119   3.639  10.353 -0.4399 -0.3582 -1.4984
  164SOPE   O2118382   2.087   3.517  10.184  0.6505  0.0362  0.9189
  164SOPE   C2118383   1.986   3.571  10.138 -0.2692 -0.0744  0.1907
  164SOPE   O2218384   1.921   3.663  10.194 -0.9945 -0.0622  0.4486
  164SOPE   C2218385   1.960   3.506  10.005  0.2802 -0.1644  0.4134
  164SOPE   H2R18386   1.867   3.447  10.021  0.7878 -1.8905 -2.3098
  164SOPE   H2S18387   2.040   3.438   9.971 -0.1720 -0.5674  0.1369
  164SOPE    C318388   2.248   3.459  10.366  0.3188 -0.5818 -0.1447
  164SOPE    HX18389   2.244   3.351  10.340 -0.1901 -0.5821 -0.0817
  164SOPE    HY18390   2.255   3.465  10.476  1.7144  2.2607 -0.2992
  164SOPE   O3118391   2.358   3.517  10.293  0.0740 -0.0127 -0.3008
  164SOPE   C3118392   2.395   3.633  10.347 -0.1275 -0.1573 -0.6080
  164SOPE   O3218393   2.342   3.689  10.442 -0.1591  0.1744  0.4880
  164SOPE   C3218394   2.517   3.689  10.277  0.2038  0.6993  0.3986
  164SOPE   H2X18395   2.575   3.616  10.216 -0.5234  0.1612  0.3407
  164SOPE   H2Y18396   2.574   3.725  10.366  1.8536 -1.0205  0.0996
  164SOPE   C2318397   1.941   3.609   9.896 -0.7557 -0.2958  0.4349
  164SOPE   H3R18398   2.015   3.692   9.902 -0.9702 -0.1763  1.6339
  164SOPE   H3S18399   1.841   3.657   9.903 -0.2016  1.6203 -2.7539
  164SOPE   C2418400   1.935   3.549   9.755 -0.6606  0.4622  0.4245
  164SOPE   H4R18401   2.027   3.489   9.742 -1.0668 -0.8223  2.7869
  164SOPE   H4S18402   1.846   3.482   9.749  0.0643 -0.4559 -0.3628
  164SOPE   C2518403   1.926   3.637   9.630  0.1685 -0.1426 -1.3430
  164SOPE   H5R18404   1.828   3.689   9.625  0.9708  2.0555  2.2824
  164SOPE   H5S18405   2.003   3.715   9.648  0.9706 -1.5059  2.0352
  164SOPE   C2618406   1.956   3.567   9.497 -0.7569  0.4682  0.0828
  164SOPE   H6R18407   2.051   3.510   9.497 -0.6931  0.5220  1.4874
  164SOPE   H6S18408   1.877   3.490   9.485  0.2399 -0.2765 -2.1478
  164SOPE   C2718409   1.954   3.653   9.372  0.0156 -0.3354  0.4012
  164SOPE   H7R18410   1.851   3.691   9.359  0.6461  1.4184  0.3430
  164SOPE   H7S18411   2.019   3.742   9.379  0.8278 -0.9611  1.2357
  164SOPE   C2818412   1.985   3.578   9.246 -0.0799  0.4744  0.3177
  164SOPE   H8R18413   1.991   3.647   9.160 -0.4637 -1.0640 -0.9805
  164SOPE   H8S18414   2.090   3.542   9.252 -0.4772 -1.3151 -1.9299
  164SOPE   C2918415   1.893   3.462   9.199  1.3318 -0.6020 -0.0515
  164SOPE   H9118416   1.853   3.400   9.282  1.8917  0.1000  0.7627
  164SOPE  C21018417   1.862   3.432   9.073 -0.1059 -0.1011 -0.4394
  164SOPE  H10118418   1.801   3.341   9.063 -3.4121  1.8621  0.2453
  164SOPE  C21118419   1.915   3.500   8.954  0.4302  1.5790  0.1701
  164SOPE  H11R18420   2.011   3.554   8.969  0.2079  2.2890 -0.8479
  164SOPE  H11S18421   1.835   3.571   8.924  2.4445  4.5028  1.3083
  164SOPE  C21218422   1.946   3.398   8.841  0.9219  0.0624 -0.5632
  164SOPE  H12R18423   1.966   3.468   8.757  1.3034 -1.9128 -2.1773
  164SOPE  H12S18424   1.856   3.334   8.824  1.2918 -0.3742 -0.8891
  164SOPE  C21318425   2.065   3.314   8.873  0.4259 -0.0772  0.1004
  164SOPE  H13R18426   2.045   3.248   8.960 -0.5320 -2.9953 -2.1859
  164SOPE  H13S18427   2.153   3.380   8.893  2.4413 -2.6638  0.3512
  164SOPE  C21418428   2.108   3.222   8.759  0.0930  1.3548 -0.4955
  164SOPE  H14R18429   2.136   3.287   8.673  0.6173  1.1492 -0.4844
  164SOPE  H14S18430   2.026   3.159   8.718  1.5684 -0.7140 -0.3680
  164SOPE  C21518431   2.235   3.128   8.780  0.2501 -0.3152  0.3519
  164SOPE  H15R18432   2.302   3.176   8.854  0.7158 -2.1246  1.1550
  164SOPE  H15S18433   2.293   3.119   8.685  0.7166  0.6205  0.5393
  164SOPE  C21618434   2.202   2.980   8.814 -0.1374 -0.2367  0.2609
  164SOPE  H16R18435   2.117   2.982   8.887  0.6895 -1.9976  1.3284
  164SOPE  H16S18436   2.290   2.930   8.858 -0.7593  0.6360  2.7029
  164SOPE  C21718437   2.158   2.902   8.691  1.2337  0.6491 -0.2445
  164SOPE  H17R18438   2.234   2.916   8.611  1.2968 -1.0234 -0.5145
  164SOPE  H17S18439   2.063   2.949   8.659  1.0139  0.7815  0.5731
  164SOPE  C21818440   2.147   2.755   8.723 -0.0943 -0.6741 -0.2493
  164SOPE  H18R18441   2.101   2.696   8.640 -1.1457  0.2590 -0.3530
  164SOPE  H18S18442   2.080   2.734   8.809 -0.2158  0.0599 -0.1607
  164SOPE  H18T18443   2.249   2.715   8.742  2.1857  3.7602 -1.6879
  164SOPE   C3318444   2.468   3.804  10.193 -0.2466 -0.1347 -0.8105
  164SOPE   H3X18445   2.551   3.864  10.150 -1.2525  0.7237 -1.6215
  164SOPE   H3Y18446   2.403   3.876  10.247 -1.4546  0.0929 -2.4798
  164SOPE   C3418447   2.372   3.773  10.082  0.9136  0.3764  0.8160
  164SOPE   H4X18448   2.268   3.784  10.119  1.3641 -2.3136  3.2344
  164SOPE   H4Y18449   2.385   3.668  10.049  0.5842 -0.3969  2.9874
  164SOPE   C3518450   2.386   3.867   9.959 -0.0016  0.1409 -0.0522
  164SOPE   H5X18451   2.495   3.865   9.937 -0.3148 -0.7188 -1.7463
  164SOPE   H5Y18452   2.357   3.966   9.998 -0.3228 -0.3839  1.0845
  164SOPE   C3618453   2.301   3.831   9.836 -0.2699  0.2118 -0.3921
  164SOPE   H6X18454   2.197   3.832   9.873  0.9540  1.9380  3.5341
  164SOPE   H6Y18455   2.320   3.733   9.787 -0.1294 -0.0784  0.2376
  164SOPE   C3718456   2.324   3.942   9.731 -0.2357 -0.1045  0.0228
  164SOPE   H7X18457   2.432   3.933   9.707 -0.0336 -0.4314  1.0027
  164SOPE   H7Y18458   2.300   4.035   9.785 -0.5000 -1.8664  3.1793
  164SOPE   C3818459   2.223   3.927   9.613  0.1288  0.0164 -0.3319
  164SOPE   H8X18460   2.127   3.916   9.669  0.8084 -0.2219  0.8250
  164SOPE   H8Y18461   2.244   3.834   9.557 -0.5505  0.6345 -1.6506
  164SOPE   C3918462   2.237   4.038   9.512  0.1802  0.0998  0.2866
  164SOPE   H9X18463   2.347   4.057   9.515  0.2854  0.4968 -2.8025
  164SOPE   H9Y18464   2.182   4.124   9.556 -1.2697 -0.9576  0.6113
  164SOPE  C31018465   2.198   3.994   9.371 -0.0033 -0.2259  0.2748
  164SOPE  H10X18466   2.088   3.987   9.365 -0.0023 -0.2826  0.3267
  164SOPE  H10Y18467   2.250   3.902   9.336  2.1352  0.6175  1.0397
  164SOPE  C31118468   2.248   4.077   9.259 -0.7016 -0.2045  0.3579
  164SOPE  H11X18469   2.358   4.088   9.251 -0.8768  0.7440 -0.9346
  164SOPE  H11Y18470   2.207   4.180   9.272  0.9012  0.3238  1.6328
  164SOPE  C31218471   2.207   4.014   9.124 -0.1020  0.5499  0.1354
  164SOPE  H12X18472   2.097   4.013   9.111 -0.2064 -1.4285  0.9095
  164SOPE  H12Y18473   2.238   3.907   9.119 -3.3816 -0.5139  0.2342
  164SOPE  C31318474   2.269   4.086   9.004  0.1869 -0.4524 -1.2613
  164SOPE  H13X18475   2.379   4.094   8.995  0.0740  1.7063 -1.4230
  164SOPE  H13Y18476   2.241   4.194   8.999  2.3222  0.1167 -1.5982
  164SOPE  C31418477   2.219   4.037   8.867  0.1431 -0.6792 -0.7341
  164SOPE  H14X18478   2.221   4.120   8.794 -0.0551  1.0032  1.0699
  164SOPE  H14Y18479   2.112   4.006   8.873 -0.6156  1.9076  2.8457
  164SOPE  C31518480   2.312   3.926   8.813  0.9694  0.4374  0.3637
  164SOPE  H15X18481   2.345   3.856   8.892 -1.8834 -2.3241 -0.6659
  164SOPE  H15Y18482   2.405   3.975   8.777 -0.1381  0.4590 -2.7727
  164SOPE  C31618483   2.239   3.846   8.698 -0.3668  0.2311  0.1195
  164SOPE  H16X18484   2.202   3.911   8.616  2.1138  0.1094 -1.2002
  164SOPE  H16Y18485   2.147   3.807   8.747 -1.8031  1.0199 -1.8074
  164SOPE  C31718486   2.325   3.742   8.639  0.1356  0.7457  0.3234
  164SOPE  H17X18487   2.271   3.685   8.561  2.5065  1.3540 -1.9169
  164SOPE  H17Y18488   2.352   3.659   8.707  0.2484 -1.4508 -2.2380
  164SOPE  C31818489   2.452   3.787   8.572  0.7289 -0.4360 -0.3169
  164SOPE  H18X18490   2.451   3.877   8.507  1.9699 -0.8022 -0.8836
  164SOPE  H18Y18491   2.494   3.711   8.502 -0.0603  0.1084 -1.4020
  164SOPE  H18Z18492   2.531   3.801   8.649  1.1492  1.7083 -1.0635
  165SOPE     N18493   1.093   5.514  11.040 -1.1151 -0.1214  0.7718
  165SOPE   HN118494   1.102   5.454  11.124 -0.7101  0.7674  1.3827
  165SOPE   HN218495   1.191   5.514  11.003 -0.5743 -1.6127  2.1137
  165SOPE   HN318496   1.072   5.612  11.069  2.9575  0.6376  1.8450
  165SOPE   C1218497   1.002   5.452  10.943 -0.0445 -0.3145 -0.0970
  165SOPE  H12A18498   1.030   5.345  10.929 -1.2676 -0.5341 -1.0538
  165SOPE  H12B18499   1.031   5.504  10.849 -2.9520  3.3724  0.7955
  165SOPE   C1118500   0.856   5.474  10.971  0.4674  0.4066  0.6176
  165SOPE  H11A18501   0.838   5.579  11.002 -0.2052  0.5009 -0.0645
  165SOPE  H11B18502   0.828   5.414  11.061 -0.4073 -1.4364 -0.8268
  165SOPE     P18503   0.742   5.299  10.822 -0.0086 -0.2259  0.1892
  165SOPE   O1318504   0.622   5.265  10.897 -0.2202 -0.2497 -0.2387
  165SOPE   O1418505   0.859   5.204  10.833  0.2125  0.4547  0.7189
  165SOPE   O1218506   0.781   5.454  10.850  0.3109 -0.0708 -0.6938
  165SOPE   O1118507   0.706   5.296  10.663  0.0029  0.5866 -0.1830
  165SOPE    C118508   0.801   5.350  10.567  0.6365  0.5401 -0.3107
  165SOPE    HA18509   0.909   5.351  10.593  0.1283 -0.1150  2.0884
  165SOPE    HB18510   0.769   5.455  10.549  0.3753  0.4776 -0.2159
  165SOPE    C218511   0.792   5.267  10.431 -0.5444 -0.4380 -0.0083
  165SOPE    HS18512   0.819   5.337  10.349 -0.0576  1.2752  1.5175
  165SOPE   O2118513   0.656   5.223  10.406  0.6910  0.3771 -0.3833
  165SOPE   C2118514   0.579   5.315  10.363 -0.3277  0.7395  0.2502
  165SOPE   O2218515   0.615   5.429  10.332  0.5029 -0.1157  0.4976
  165SOPE   C2218516   0.430   5.258  10.337 -1.0298 -0.1119 -1.0047
  165SOPE   H2R18517   0.367   5.336  10.290 -0.5927 -0.8962 -2.9678
  165SOPE   H2S18518   0.378   5.237  10.433 -0.2885 -1.0133 -0.7812
  165SOPE    C318519   0.872   5.138  10.434 -0.0755 -0.8033 -0.7019
  165SOPE    HX18520   0.831   5.085  10.522  1.4630 -1.5473 -0.3949
  165SOPE    HY18521   0.974   5.173  10.461  0.4555 -0.4899 -2.9035
  165SOPE   O3118522   0.865   5.067  10.314  0.4516 -0.1814 -0.1962
  165SOPE   C3118523   0.848   4.931  10.329 -0.0824  0.1630 -0.1334
  165SOPE   O3218524   0.849   4.869  10.433  0.4574 -0.2820  0.0537
  165SOPE   C3218525   0.855   4.876  10.187  0.0850 -0.0858  0.0110
  165SOPE   H2X18526   0.935   4.937  10.138 -0.2745 -0.7926 -1.5101
  165SOPE   H2Y18527   0.759   4.917  10.149 -0.9231 -1.9369  0.4659
  165SOPE   C2318528   0.429   5.137  10.246  0.2711 -0.4749  0.1837
  165SOPE   H3R18529   0.329   5.090  10.255 -0.9938  2.1381  1.0302
  165SOPE   H3S18530   0.499   5.056  10.276  1.4260 -0.3760 -2.0551
  165SOPE   C2418531   0.446   5.158  10.095 -0.1680 -0.2502  0.5585
  165SOPE   H4R18532   0.383   5.239  10.053 -0.1989  0.7030  2.3319
  165SOPE   H4S18533   0.549   5.189  10.069 -0.3329 -0.8061 -0.8487
  165SOPE   C2518534   0.433   5.028  10.013  0.3387 -0.0336 -0.6356
  165SOPE   H5R18535   0.504   4.957  10.061  0.4685  1.3665  1.3745
  165SOPE   H5S18536   0.333   4.981  10.025  1.3717 -1.9806  1.0254
  165SOPE   C2618537   0.461   5.058   9.868  0.2065 -0.2724  0.7602
  165SOPE   H6R18538   0.380   5.125   9.829  0.1271  0.2188  1.7370
  165SOPE   H6S18539   0.557   5.109   9.847 -0.9712  0.9770 -2.2543
  165SOPE   C2718540   0.457   4.928   9.778 -0.0334 -0.0061  0.2188
  165SOPE   H7R18541   0.528   4.853   9.818  2.0610  2.8353  2.2792
  165SOPE   H7S18542   0.351   4.893   9.779  0.4135 -1.4077  1.0955
  165SOPE   C2818543   0.469   4.959   9.633 -0.1841 -0.0947  0.2933
  165SOPE   H8R18544   0.396   5.041   9.619  0.5962  0.6237  0.3707
  165SOPE   H8S18545   0.563   5.014   9.607 -1.5759  2.0859 -0.3770
  165SOPE   C2918546   0.460   4.834   9.542  0.0718 -0.4697 -0.4359
  165SOPE   H9118547   0.515   4.744   9.574 -0.8014 -0.0253  2.5793
  165SOPE  C21018548   0.403   4.825   9.421 -0.0227 -0.3014 -0.4318
  165SOPE  H10118549   0.378   4.723   9.388  2.8005 -0.8763 -1.0428
  165SOPE  C21118550   0.335   4.926   9.338  0.1026 -0.3158  0.1085
  165SOPE  H11R18551   0.348   5.024   9.390  1.9606 -0.8394  0.7011
  165SOPE  H11S18552   0.226   4.904   9.328 -0.0999  0.2030  1.0289
  165SOPE  C21218553   0.415   4.922   9.203 -0.4948  0.3252  0.5790
  165SOPE  H12R18554   0.523   4.938   9.226 -0.2990 -1.6565  1.1622
  165SOPE  H12S18555   0.379   5.007   9.140 -2.2828 -0.8851 -0.1078
  165SOPE  C21318556   0.405   4.797   9.113  0.2570  0.3937 -0.1662
  165SOPE  H13R18557   0.302   4.758   9.126  0.0825  0.2697 -1.6980
  165SOPE  H13S18558   0.481   4.719   9.137 -0.4882 -0.9024 -1.7634
  165SOPE  C21418559   0.425   4.834   8.962  0.7334  0.5616 -0.1054
  165SOPE  H14R18560   0.528   4.869   8.939  0.2585  2.0906 -0.0534
  165SOPE  H14S18561   0.349   4.913   8.943 -0.6543 -0.9375 -1.1007
  165SOPE  C21518562   0.389   4.712   8.879  0.0091  0.4920  0.4334
  165SOPE  H15R18563   0.298   4.665   8.921 -0.1103  0.5171  0.1997
  165SOPE  H15S18564   0.472   4.638   8.881 -0.6564 -0.4302 -2.1552
  165SOPE  C21618565   0.365   4.747   8.735  1.4902  1.0000 -0.1311
  165SOPE  H16R18566   0.452   4.802   8.692  1.2180  0.3022 -1.6323
  165SOPE  H16S18567   0.284   4.823   8.733  0.9507  0.4400  0.1848
  165SOPE  C21718568   0.312   4.633   8.640 -0.1556  0.7159  0.2457
  165SOPE  H17R18569   0.230   4.578   8.691  1.2744 -0.8161  0.9962
  165SOPE  H17S18570   0.386   4.553   8.619 -0.6939  0.3946 -0.4865
  165SOPE  C21818571   0.262   4.685   8.503  0.9388  0.0330 -0.1602
  165SOPE  H18R18572   0.178   4.754   8.523  0.3234 -1.0052  0.9675
  165SOPE  H18S18573   0.217   4.601   8.445 -0.1182  0.2509  0.3254
  165SOPE  H18T18574   0.333   4.735   8.434  0.9938  0.6371  0.3330
  165SOPE   C3318575   0.868   4.727  10.185  0.2042  0.1466 -0.2058
  165SOPE   H3X18576   0.764   4.695  10.207 -0.6594  2.0554 -1.3431
  165SOPE   H3Y18577   0.944   4.688  10.257  1.4015  1.8508 -0.4845
  165SOPE   C3418578   0.901   4.674  10.047 -0.0450 -0.4480 -0.0068
  165SOPE   H4X18579   0.884   4.565  10.034 -0.6870 -0.4379  0.7286
  165SOPE   H4Y18580   1.009   4.702  10.037 -0.4339  1.1738  0.0207
  165SOPE   C3518581   0.827   4.745   9.932  0.8569 -1.6406  0.2717
  165SOPE   H5X18582   0.840   4.854   9.945  1.6442 -1.8759  1.6105
  165SOPE   H5Y18583   0.718   4.723   9.926 -0.2888  3.2593 -1.3524
  165SOPE   C3618584   0.898   4.714   9.793  0.6678  0.2057  0.2255
  165SOPE   H6X18585   0.894   4.603   9.786 -1.1642  0.3458 -2.1829
  165SOPE   H6Y18586   1.004   4.749   9.798  0.3748  1.0523  0.6388
  165SOPE   C3718587   0.830   4.786   9.673 -1.2007 -0.3324 -0.5691
  165SOPE   H7X18588   0.818   4.895   9.690  0.5941 -0.4478  2.1266
  165SOPE   H7Y18589   0.726   4.747   9.665 -1.1947 -0.0883 -2.0150
  165SOPE   C3818590   0.903   4.765   9.545 -0.3152  0.5432 -0.1288
  165SOPE   H8X18591   0.908   4.655   9.528 -0.7628  0.7102 -1.4822
  165SOPE   H8Y18592   1.003   4.808   9.562 -0.1742  0.4543 -0.7062
  165SOPE   C3918593   0.821   4.819   9.420  0.6304 -0.7315 -0.1703
  165SOPE   H9X18594   0.820   4.929   9.435 -0.8600 -0.7879  0.2978
  165SOPE   H9Y18595   0.718   4.778   9.431  0.0749  0.7963  0.4843
  165SOPE  C31018596   0.879   4.777   9.290  0.4739 -0.5713  0.5444
  165SOPE  H10X18597   0.882   4.667   9.283 -0.6658 -0.7045  1.7563
  165SOPE  H10Y18598   0.977   4.827   9.271  0.3657 -1.0059 -1.3365
  165SOPE  C31118599   0.802   4.821   9.166  0.1930 -0.4294 -0.3046
  165SOPE  H11X18600   0.778   4.929   9.151 -3.6751 -1.3655 -2.1261
  165SOPE  H11Y18601   0.710   4.758   9.160 -1.0061  1.3013 -1.0824
  165SOPE  C31218602   0.884   4.784   9.036  0.3010  0.1506 -0.4699
  165SOPE  H12X18603   0.912   4.676   9.034 -0.9465 -0.3466  2.7151
  165SOPE  H12Y18604   0.980   4.839   9.041  3.1427 -4.3798  1.5038
  165SOPE  C31318605   0.801   4.817   8.910 -0.3599  0.1792 -0.5949
  165SOPE  H13X18606   0.781   4.925   8.930 -0.4374  0.0729 -0.1022
  165SOPE  H13Y18607   0.698   4.775   8.909 -0.5078  0.5374 -0.8023
  165SOPE  C31418608   0.872   4.800   8.776 -0.2364 -0.2309 -0.0931
  165SOPE  H14X18609   0.933   4.707   8.772  0.2760  0.1439 -2.5050
  165SOPE  H14Y18610   0.937   4.889   8.766 -0.8257  0.0967 -1.1803
  165SOPE  C31518611   0.774   4.811   8.654  0.0025 -0.1144 -0.4785
  165SOPE  H15X18612   0.753   4.917   8.629 -1.8519  0.2112  2.1302
  165SOPE  H15Y18613   0.675   4.764   8.672 -0.4156  0.9864  0.1274
  165SOPE  C31618614   0.825   4.756   8.519 -0.0019  0.1450 -0.7992
  165SOPE  H16X18615   0.812   4.646   8.527 -0.2507  0.2972  1.6607
  165SOPE  H16Y18616   0.935   4.771   8.513  0.1431 -0.9462 -0.9980
  165SOPE  C31718617   0.758   4.817   8.395  0.1239  0.2569  0.2734
  165SOPE  H17X18618   0.824   4.780   8.314  0.6328 -2.6412  1.8467
  165SOPE  H17Y18619   0.760   4.927   8.404  0.8374  0.1650  1.4880
  165SOPE  C31818620   0.615   4.771   8.363 -0.0564 -0.8802 -0.4431
  165SOPE  H18X18621   0.628   4.661   8.372  0.9233 -0.7600 -0.2833
  165SOPE  H18Y18622   0.604   4.792   8.254  1.5726 -2.8531 -1.0534
  165SOPE  H18Z18623   0.555   4.818   8.443  3.2928  1.6895  0.8357
  166SOPE     N18624   3.921   5.851  11.138  0.2928 -0.4119 -0.1286
  166SOPE   HN118625   3.868   5.929  11.181  0.0100 -1.2863  1.1822
  166SOPE   HN218626   4.005   5.818  11.191  0.1878 -1.7262 -0.7414
  166SOPE   HN318627   3.959   5.898  11.054 -3.3383  1.1867 -1.0481
  166SOPE   C1218628   3.819   5.746  11.096 -0.1323  0.7514 -0.5035
  166SOPE  H12A18629   3.759   5.804  11.023 -0.5241  1.5784  0.4437
  166SOPE  H12B18630   3.754   5.720  11.183 -0.6679 -0.4236 -1.2265
  166SOPE   C1118631   3.885   5.628  11.024  0.4981  0.0587 -0.7576
  166SOPE  H11A18632   3.792   5.579  10.987 -0.5694  2.3066 -1.2334
  166SOPE  H11B18633   3.926   5.567  11.107  0.2154 -1.1094 -1.4543
  166SOPE     P18634   4.072   5.561  10.868 -0.0442 -0.3478  0.0931
  166SOPE   O1318635   4.072   5.451  10.964  0.8284 -0.1370 -0.1264
  166SOPE   O1418636   4.199   5.640  10.838  0.2371  0.2315  0.0986
  166SOPE   O1218637   3.973   5.665  10.919  0.3690 -0.5995 -0.2234
  166SOPE   O1118638   4.014   5.499  10.729 -0.4737 -0.4782  0.4590
  166SOPE    C118639   3.987   5.589  10.622  0.0752 -0.6348  0.1269
  166SOPE    HA18640   4.082   5.627  10.577 -0.4722  0.5779 -0.0372
  166SOPE    HB18641   3.939   5.681  10.662  0.2519 -0.0282 -1.0108
  166SOPE    C218642   3.883   5.527  10.516 -0.5912 -0.9626 -0.6310
  166SOPE    HS18643   3.847   5.609  10.450 -1.4522 -0.1373  0.8283
  166SOPE   O2118644   3.771   5.472  10.578 -0.1167  0.0323  0.3239
  166SOPE   C2118645   3.680   5.552  10.630 -0.0849  0.0080  0.6041
  166SOPE   O2218646   3.688   5.678  10.621 -0.0992 -0.1226  0.3229
  166SOPE   C2218647   3.565   5.475  10.696  0.0762 -0.0201  0.5486
  166SOPE   H2R18648   3.593   5.476  10.804  0.3507 -0.7953  0.4951
  166SOPE   H2S18649   3.565   5.370  10.657 -0.3861 -0.4341  1.6276
  166SOPE    C318650   3.952   5.416  10.425 -0.5516 -0.3754  0.3508
  166SOPE    HX18651   3.969   5.331  10.495 -2.3819 -2.8133 -1.9553
  166SOPE    HY18652   4.051   5.457  10.395 -0.7160  0.6154  1.0997
  166SOPE   O3118653   3.864   5.367  10.319 -0.0830  0.3673  0.2963
  166SOPE   C3118654   3.886   5.236  10.275 -0.2756 -0.1018 -0.6404
  166SOPE   O3218655   3.983   5.176  10.311 -0.7192 -0.6522 -0.0790
  166SOPE   C3218656   3.767   5.186  10.198  0.3199 -0.1984  0.8664
  166SOPE   H2X18657   3.683   5.157  10.264 -0.5926  1.4051  0.4607
  166SOPE   H2Y18658   3.804   5.102  10.135  0.5286  1.4168 -1.3029
  166SOPE   C2318659   3.425   5.539  10.654  0.1515  0.4169  0.9199
  166SOPE   H3R18660   3.430   5.648  10.676  1.8733  0.5924 -0.1495
  166SOPE   H3S18661   3.354   5.492  10.726  0.4187 -1.8815 -0.2056
  166SOPE   C2418662   3.384   5.516  10.508  0.1645  0.2514  0.5092
  166SOPE   H4R18663   3.474   5.523  10.442 -0.5773  3.3363 -0.3094
  166SOPE   H4S18664   3.339   5.416  10.489  2.5076 -0.8104  0.0611
  166SOPE   C2518665   3.273   5.615  10.461 -0.7724 -0.0829  0.1005
  166SOPE   H5R18666   3.171   5.579  10.486 -1.6467 -0.0025 -2.9333
  166SOPE   H5S18667   3.286   5.717  10.503 -0.4791  0.1972 -0.6568
  166SOPE   C2618668   3.266   5.637  10.302 -0.7114  0.0222  0.1595
  166SOPE   H6R18669   3.176   5.702  10.293 -1.2099 -0.8976 -1.8317
  166SOPE   H6S18670   3.356   5.696  10.272 -0.9095 -0.0346 -0.5502
  166SOPE   C2718671   3.248   5.508  10.232 -0.5549  0.5676 -0.0552
  166SOPE   H7R18672   3.331   5.435  10.246 -2.1303 -2.2005 -3.3652
  166SOPE   H7S18673   3.156   5.452  10.263 -0.3846  0.8874  1.0659
  166SOPE   C2818674   3.220   5.530  10.077 -0.3539 -0.2945 -0.5770
  166SOPE   H8R18675   3.201   5.436  10.021  0.4103  0.0163 -1.3786
  166SOPE   H8S18676   3.130   5.590  10.051  0.3821  0.7951 -0.6592
  166SOPE   C2918677   3.342   5.579  10.014  0.1916 -0.2763 -0.2425
  166SOPE   H9118678   3.433   5.577  10.077 -1.0734 -1.2389  1.6677
  166SOPE  C21018679   3.347   5.644   9.894  0.1757 -0.3862  1.1102
  166SOPE  H10118680   3.438   5.691   9.854 -0.3039 -0.6356 -0.3406
  166SOPE  C21118681   3.232   5.676   9.796 -0.1477 -0.1476 -0.3302
  166SOPE  H11R18682   3.248   5.783   9.770 -3.4162  0.7804  0.9085
  166SOPE  H11S18683   3.132   5.671   9.845 -1.3982  2.8267 -2.2874
  166SOPE  C21218684   3.227   5.583   9.676  0.1082  0.8009  0.0136
  166SOPE  H12R18685   3.165   5.496   9.707  1.2391 -0.0284  0.0020
  166SOPE  H12S18686   3.325   5.543   9.643  0.2061  0.9524  0.1166
  166SOPE  C21318687   3.163   5.641   9.550 -0.0200 -0.0860 -0.6389
  166SOPE  H13R18688   3.071   5.700   9.573  0.7496  0.4460  1.2292
  166SOPE  H13S18689   3.130   5.568   9.472  0.2646 -0.9071  0.0016
  166SOPE  C21418690   3.269   5.719   9.479 -0.3449 -0.6753  0.9481
  166SOPE  H14R18691   3.363   5.660   9.471  0.8055  1.1397  0.4500
  166SOPE  H14S18692   3.281   5.817   9.529 -0.4625  0.1399 -0.5640
  166SOPE  C21518693   3.221   5.757   9.338 -0.5000  0.4561 -0.3088
  166SOPE  H15R18694   3.134   5.825   9.331 -0.9719 -0.3312 -3.5604
  166SOPE  H15S18695   3.173   5.667   9.295 -1.9582  1.3757 -0.6569
  166SOPE  C21618696   3.337   5.790   9.245 -0.2364 -0.2197  0.0003
  166SOPE  H16R18697   3.429   5.729   9.260  1.8138  2.3177 -1.4575
  166SOPE  H16S18698   3.362   5.891   9.287 -0.0652  0.2949 -1.3057
  166SOPE  C21718699   3.311   5.801   9.090  0.0330 -0.3503 -0.0534
  166SOPE  H17R18700   3.281   5.708   9.038  1.8697 -0.8197 -0.3398
  166SOPE  H17S18701   3.412   5.818   9.047  0.6150  0.0166  1.3844
  166SOPE  C21818702   3.225   5.921   9.040 -0.3262  0.5469 -0.5372
  166SOPE  H18R18703   3.266   6.019   9.072 -0.3502  0.4002 -0.0477
  166SOPE  H18S18704   3.121   5.906   9.076  0.6086 -3.5275  1.0274
  166SOPE  H18T18705   3.228   5.921   8.929  0.1225  2.9371 -0.5806
  166SOPE   C3318706   3.710   5.286  10.085 -0.3002 -0.2259  0.2818
  166SOPE   H3X18707   3.723   5.388  10.126 -0.7225  0.3173 -0.9221
  166SOPE   H3Y18708   3.604   5.259  10.065 -1.1896  2.2337  1.3331
  166SOPE   C3418709   3.788   5.277   9.956 -0.3646  0.0185  0.2809
  166SOPE   H4X18710   3.778   5.167   9.939 -0.9763 -0.0285  0.9200
  166SOPE   H4Y18711   3.891   5.310   9.981  0.2883 -1.3957 -0.4054
  166SOPE   C3518712   3.738   5.359   9.846  0.3189 -0.0174  0.3775
  166SOPE   H5X18713   3.746   5.467   9.868  1.4179  0.0793 -0.3913
  166SOPE   H5Y18714   3.628   5.344   9.838  0.5269 -1.1860 -0.7324
  166SOPE   C3618715   3.807   5.352   9.711  0.3215  0.8673  0.1183
  166SOPE   H6X18716   3.830   5.244   9.696  0.0008  0.6864  0.8419
  166SOPE   H6Y18717   3.901   5.412   9.715  0.5305  0.6258 -0.9536
  166SOPE   C3718718   3.714   5.406   9.600  0.8550  0.0514 -0.6588
  166SOPE   H7X18719   3.662   5.494   9.643 -0.3468 -2.0318  2.4054
  166SOPE   H7Y18720   3.632   5.337   9.573  0.8045  0.3286 -1.2232
  166SOPE   C3818721   3.793   5.430   9.472  0.2077  0.2003 -0.1157
  166SOPE   H8X18722   3.847   5.339   9.439 -0.2211 -0.7641  1.6665
  166SOPE   H8Y18723   3.867   5.512   9.473  0.9589 -0.4341 -1.4163
  166SOPE   C3918724   3.692   5.453   9.357 -0.4005  0.2147  0.3981
  166SOPE   H9X18725   3.619   5.530   9.390  0.5420  1.5620 -0.6111
  166SOPE   H9Y18726   3.644   5.354   9.341  4.1674 -2.2067  0.0521
  166SOPE  C31018727   3.757   5.502   9.232  0.2945  0.1199  0.4939
  166SOPE  H10X18728   3.827   5.424   9.194 -1.2727  0.6322 -4.0769
  166SOPE  H10Y18729   3.809   5.598   9.251 -1.7433  1.4478 -0.2260
  166SOPE  C31118730   3.659   5.531   9.114  0.1330  0.7130  0.6038
  166SOPE  H11X18731   3.584   5.608   9.141 -0.3247  0.3336  0.4248
  166SOPE  H11Y18732   3.602   5.437   9.095  0.1950  0.6274  0.8370
  166SOPE  C31218733   3.727   5.570   8.972 -0.8599  0.6073  0.1371
  166SOPE  H12X18734   3.809   5.497   8.957 -0.1503  1.4539 -0.2172
  166SOPE  H12Y18735   3.776   5.670   8.967  1.2729 -0.4429 -1.2285
  166SOPE  C31318736   3.625   5.567   8.852  0.2805  0.1887 -0.1619
  166SOPE  H13X18737   3.671   5.617   8.764  0.4110  0.1194 -0.1346
  166SOPE  H13Y18738   3.533   5.615   8.891 -0.1744 -0.5562 -0.2825
  166SOPE  C31418739   3.600   5.419   8.807  1.2192 -0.1389  0.1620
  166SOPE  H14X18740   3.534   5.370   8.883 -0.5944 -0.7371 -1.7115
  166SOPE  H14Y18741   3.692   5.357   8.799  0.4754 -1.0497 -1.7364
  166SOPE  C31518742   3.516   5.421   8.677  0.3318  0.7232 -0.2243
  166SOPE  H15X18743   3.587   5.437   8.592 -0.6698  2.9691 -0.7148
  166SOPE  H15Y18744   3.437   5.499   8.682 -0.0849  0.2213  1.6608
  166SOPE  C31618745   3.435   5.295   8.665  0.3432  0.1143 -0.8700
  166SOPE  H16X18746   3.356   5.278   8.741  0.5644  0.8864 -0.4578
  166SOPE  H16Y18747   3.512   5.216   8.682 -0.9869 -0.9102  0.7425
  166SOPE  C31718748   3.371   5.278   8.528  0.0131  0.0686 -0.2666
  166SOPE  H17X18749   3.449   5.287   8.449 -0.1472  0.5265 -0.3775
  166SOPE  H17Y18750   3.299   5.360   8.507  1.8864  2.1641  0.9673
  166SOPE  C31818751   3.310   5.143   8.518  0.3719  0.2156  0.1918
  166SOPE  H18X18752   3.232   5.126   8.596 -0.3252 -0.7322 -0.6843
  166SOPE  H18Y18753   3.389   5.065   8.521 -2.1970 -2.6466 -1.3619
  166SOPE  H18Z18754   3.263   5.126   8.418 -0.0148  0.3260  0.3515
  167SOPE     N18755   5.797   2.603   6.539  0.1791  0.2002  0.4456
  167SOPE   HN118756   5.881   2.581   6.596 -1.0129 -1.9913  1.4850
  167SOPE   HN218757   5.739   2.638   6.619  1.0247 -0.0357  1.1740
  167SOPE   HN318758   5.752   2.518   6.499  0.8496 -0.5133  1.1847
  167SOPE   C1218759   5.820   2.711   6.438 -0.0359  0.0675  0.2853
  167SOPE  H12A18760   5.902   2.780   6.466  0.9437 -0.2104 -1.7077
  167SOPE  H12B18761   5.726   2.768   6.428  0.9030  1.4124 -1.3944
  167SOPE   C1118762   5.869   2.653   6.304 -0.0999  0.0400 -0.0519
  167SOPE  H11A18763   5.895   2.731   6.229 -0.4586 -1.0501 -1.3512
  167SOPE  H11B18764   5.785   2.596   6.259 -0.0852  0.4086 -0.5580
  167SOPE     P18765   6.071   2.524   6.204  0.1788  0.0111  0.0938
  167SOPE   O1318766   6.144   2.647   6.169 -0.0680 -0.2681 -0.2392
  167SOPE   O1418767   5.988   2.449   6.102  0.4681 -0.3103 -0.5865
  167SOPE   O1218768   5.981   2.562   6.323 -0.1362  0.2892 -0.5253
  167SOPE   O1118769   6.166   2.419   6.271 -0.8290 -0.0544 -0.0300
  167SOPE    C118770   6.135   2.304   6.341 -0.0504 -0.5532  0.3453
  167SOPE    HA18771   6.220   2.234   6.327  0.7816  0.6601 -0.8396
  167SOPE    HB18772   6.038   2.262   6.306  0.5295 -1.6927  0.0433
  167SOPE    C218773   6.111   2.342   6.492 -1.0192 -0.0504 -0.6647
  167SOPE    HS18774   6.014   2.395   6.500 -1.4558 -0.9056 -0.2062
  167SOPE   O2118775   6.222   2.427   6.541 -0.2675 -0.0422  0.0148
  167SOPE   C2118776   6.174   2.524   6.628 -0.2210 -0.0048 -0.2223
  167SOPE   O2218777   6.061   2.562   6.635 -0.1057  0.0428 -0.6400
  167SOPE   C2218778   6.296   2.566   6.705 -0.8609 -0.1222  0.2793
  167SOPE   H2R18779   6.366   2.627   6.644  0.4108  1.3815  3.0224
  167SOPE   H2S18780   6.351   2.475   6.736  1.5003  0.4354 -1.9555
  167SOPE    C318781   6.086   2.220   6.581 -0.3325  0.4479  0.2548
  167SOPE    HX18782   6.179   2.161   6.592 -0.1952  0.7112  0.5340
  167SOPE    HY18783   6.025   2.138   6.538  2.4361 -2.0013  0.6715
  167SOPE   O3118784   6.060   2.252   6.720 -0.2351 -0.7081 -0.0698
  167SOPE   C3118785   5.937   2.281   6.751  1.2415  0.0986  0.3769
  167SOPE   O3218786   5.845   2.301   6.672  0.3215  0.8765  0.5838
  167SOPE   C3218787   5.923   2.288   6.902 -0.6502 -0.1290  0.0011
  167SOPE   H2X18788   5.951   2.187   6.940  2.8553  0.9941  0.8333
  167SOPE   H2Y18789   5.822   2.328   6.922 -0.1004  1.4556 -0.1865
  167SOPE   C2318790   6.280   2.662   6.831  0.4056  0.5224 -0.0538
  167SOPE   H3R18791   6.202   2.626   6.901  3.3814  1.0320  3.9276
  167SOPE   H3S18792   6.271   2.768   6.801  2.2385  1.2028  1.5561
  167SOPE   C2418793   6.402   2.648   6.916  0.4234 -0.0126  0.5162
  167SOPE   H4R18794   6.430   2.542   6.930 -1.6874 -0.5834  0.7941
  167SOPE   H4S18795   6.483   2.683   6.849 -0.2130 -0.4192 -0.4766
  167SOPE   C2518796   6.401   2.718   7.045  0.1514  0.1158  0.4571
  167SOPE   H5R18797   6.375   2.821   7.014  0.7720  0.0171 -0.4165
  167SOPE   H5S18798   6.330   2.671   7.117  1.2599  0.1561  1.6218
  167SOPE   C2618799   6.531   2.707   7.121  0.2693 -0.4745 -0.0060
  167SOPE   H6R18800   6.615   2.715   7.049  0.0160 -1.8612 -0.4792
  167SOPE   H6S18801   6.550   2.800   7.179 -2.3900  0.1632 -0.0344
  167SOPE   C2718802   6.559   2.577   7.202 -0.2052  0.6413  0.6262
  167SOPE   H7R18803   6.579   2.504   7.122  1.7234  0.3102  1.3476
  167SOPE   H7S18804   6.657   2.600   7.251 -1.0215  1.2692  2.0500
  167SOPE   C2818805   6.459   2.539   7.317 -0.3978  0.0409  0.0347
  167SOPE   H8R18806   6.426   2.628   7.374 -1.8582 -0.1768 -0.4309
  167SOPE   H8S18807   6.372   2.494   7.265 -0.3025 -1.8120  1.4065
  167SOPE   C2918808   6.525   2.441   7.412  0.3354 -0.2423  0.1827
  167SOPE   H9118809   6.617   2.385   7.390 -0.1442 -1.2106  0.5914
  167SOPE  C21018810   6.478   2.436   7.539 -0.8088  0.7776 -0.1773
  167SOPE  H10118811   6.538   2.380   7.612  2.6392  1.4831 -2.2263
  167SOPE  C21118812   6.363   2.508   7.606 -0.2557 -0.0287 -0.2101
  167SOPE  H11R18813   6.275   2.514   7.537 -0.8931  0.2744  0.6077
  167SOPE  H11S18814   6.390   2.611   7.638 -2.2805  0.9301 -1.3516
  167SOPE  C21218815   6.314   2.433   7.728  0.9787  0.0553 -0.2323
  167SOPE  H12R18816   6.392   2.440   7.807 -0.0032  0.9862  0.7031
  167SOPE  H12S18817   6.284   2.331   7.699 -3.2206  1.7033 -2.5509
  167SOPE  C21318818   6.190   2.503   7.790  0.4588  0.3571  0.4368
  167SOPE  H13R18819   6.100   2.485   7.728  0.0144 -1.4844  1.5471
  167SOPE  H13S18820   6.214   2.611   7.794  0.2022  0.3883  1.2210
  167SOPE  C21418821   6.157   2.453   7.931 -0.4250  0.0453 -0.1655
  167SOPE  H14R18822   6.223   2.497   8.009  1.8019  1.0465 -2.4814
  167SOPE  H14S18823   6.186   2.347   7.944  1.5051  0.7514  1.9242
  167SOPE  C21518824   6.013   2.479   7.966  0.1020  0.2796  0.0582
  167SOPE  H15R18825   5.981   2.427   8.058  1.2411  0.0021  0.3095
  167SOPE  H15S18826   5.944   2.426   7.897  0.7383 -2.7738  1.5998
  167SOPE  C21618827   5.983   2.632   7.986 -0.3677  0.1285  0.4143
  167SOPE  H16R18828   5.982   2.673   7.883 -1.8750 -0.4735  0.1565
  167SOPE  H16S18829   6.066   2.678   8.043 -0.8064  0.0360  1.1513
  167SOPE  C21718830   5.849   2.654   8.071 -0.8632 -0.1512  0.0963
  167SOPE  H17R18831   5.856   2.586   8.159  2.4963 -0.0362  0.0280
  167SOPE  H17S18832   5.763   2.626   8.006  0.1438  1.6142 -2.1339
  167SOPE  C21818833   5.835   2.801   8.117 -0.2544  0.1093 -0.2759
  167SOPE  H18R18834   5.785   2.810   8.216 -1.2088 -0.3336 -0.7042
  167SOPE  H18S18835   5.783   2.862   8.040 -1.4115 -0.5558 -0.0422
  167SOPE  H18T18836   5.941   2.832   8.129  0.2760 -1.4787 -0.6302
  167SOPE   C3318837   6.026   2.391   6.959 -0.1287 -0.1969 -0.4332
  167SOPE   H3X18838   6.018   2.492   6.912 -0.1500 -0.1384 -0.3035
  167SOPE   H3Y18839   6.128   2.361   6.929  0.2736  0.4662  0.2413
  167SOPE   C3418840   6.025   2.415   7.116 -0.2270  0.3251  0.8447
  167SOPE   H4X18841   5.932   2.473   7.131 -0.5381 -0.0502  0.3591
  167SOPE   H4Y18842   6.108   2.474   7.161 -1.0949  0.9953  1.5901
  167SOPE   C3518843   6.019   2.290   7.207  0.7213 -1.6032  0.5159
  167SOPE   H5X18844   6.086   2.210   7.169  0.1567 -2.2013  0.7684
  167SOPE   H5Y18845   5.917   2.250   7.225  0.1902 -0.4586  0.1199
  167SOPE   C3618846   6.064   2.320   7.354 -0.0213 -0.0210 -0.3435
  167SOPE   H6X18847   6.002   2.401   7.398 -1.6082 -1.8707  1.0113
  167SOPE   H6Y18848   6.163   2.369   7.354 -0.4352  0.8313 -0.4740
  167SOPE   C3718849   6.045   2.205   7.459  0.3066  0.2616  0.2839
  167SOPE   H7X18850   6.087   2.246   7.554 -0.1763 -0.4991  0.8328
  167SOPE   H7Y18851   6.118   2.123   7.443 -1.3144 -0.7906 -2.3319
  167SOPE   C3818852   5.916   2.130   7.483 -0.4484 -0.4590 -0.5548
  167SOPE   H8X18853   5.888   2.084   7.386 -0.6092  1.1196 -1.2896
  167SOPE   H8Y18854   5.836   2.199   7.517  0.3692 -0.6665  2.0153
  167SOPE   C3918855   5.925   2.017   7.584 -0.2161 -0.4066 -0.9765
  167SOPE   H9X18856   6.024   1.968   7.578 -0.4271 -0.9206 -0.4371
  167SOPE   H9Y18857   5.852   1.934   7.581 -0.7451 -0.0071  0.1883
  167SOPE  C31018858   5.913   2.060   7.734 -0.6727 -0.2194 -0.5925
  167SOPE  H10X18859   5.810   2.100   7.745 -0.4730  0.4133 -0.9878
  167SOPE  H10Y18860   5.986   2.143   7.746  1.8783 -2.2450 -1.0805
  167SOPE  C31118861   5.940   1.941   7.826  0.1948  0.8141 -0.0925
  167SOPE  H11X18862   6.044   1.909   7.802 -1.1194 -2.2776 -2.4723
  167SOPE  H11Y18863   5.874   1.856   7.797  2.0470 -0.5398 -0.5735
  167SOPE  C31218864   5.927   1.965   7.980  0.3507  0.3819  1.0396
  167SOPE  H12X18865   5.989   1.888   8.030 -0.7206 -0.7285  0.7102
  167SOPE  H12Y18866   5.821   1.938   8.003 -0.1128 -0.9867 -2.1746
  167SOPE  C31318867   5.976   2.095   8.025 -0.7251  0.0439  0.2520
  167SOPE  H13X18868   5.914   2.176   7.980  2.3610  0.4964 -3.7065
  167SOPE  H13Y18869   6.076   2.112   7.979 -1.3925  3.4529 -0.2421
  167SOPE  C31418870   5.985   2.097   8.177  0.0004  0.9430 -0.0402
  167SOPE  H14X18871   5.972   1.997   8.222  2.7663 -0.7801 -2.6443
  167SOPE  H14Y18872   5.895   2.155   8.206 -0.3398  0.5325 -0.2670
  167SOPE  C31518873   6.108   2.169   8.227  0.1860 -0.5680 -0.2606
  167SOPE  H15X18874   6.091   2.276   8.203  0.7831  0.0855  2.0328
  167SOPE  H15Y18875   6.203   2.132   8.181  1.1728 -1.3753  2.2890
  167SOPE  C31618876   6.126   2.156   8.384  0.0977  0.7723  0.2946
  167SOPE  H16X18877   6.226   2.198   8.411  0.8292  0.5260 -1.8709
  167SOPE  H16Y18878   6.131   2.046   8.397  0.7212  0.3682 -2.5940
  167SOPE  C31718879   6.008   2.211   8.454  0.1716  0.5068  0.6605
  167SOPE  H17X18880   6.040   2.190   8.559 -3.0230 -2.1482  1.2792
  167SOPE  H17Y18881   5.916   2.155   8.429  0.6814  0.4858 -1.3068
  167SOPE  C31818882   5.970   2.362   8.435  0.4608  0.0599 -0.7510
  167SOPE  H18X18883   5.909   2.395   8.522  1.4531 -2.3274  0.9499
  167SOPE  H18Y18884   5.909   2.378   8.343  1.2109  0.2439 -1.2261
  167SOPE  H18Z18885   6.062   2.424   8.433  0.4304  0.2188  1.1587
  168SOPE     N18886   4.496   6.348   6.390 -0.3939 -0.3151  0.3951
  168SOPE   HN118887   4.450   6.324   6.299  1.0229  2.3740 -1.1678
  168SOPE   HN218888   4.469   6.272   6.455  1.2731 -1.6447 -0.3832
  168SOPE   HN318889   4.454   6.439   6.416 -1.5952 -0.2914 -1.4177
  168SOPE   C1218890   4.647   6.340   6.367  0.2798 -0.3169  0.1053
  168SOPE  H12A18891   4.701   6.418   6.424 -0.6486 -0.9239  1.8850
  168SOPE  H12B18892   4.665   6.348   6.258  1.8222 -1.6012  0.2355
  168SOPE   C1118893   4.708   6.210   6.419  0.5155 -0.4175  0.3163
  168SOPE  H11A18894   4.674   6.198   6.524  0.4240  2.6970  0.7469
  168SOPE  H11B18895   4.818   6.229   6.417  0.1944  2.4086  2.8103
  168SOPE     P18896   4.722   5.958   6.366  0.1114 -0.1465 -0.2344
  168SOPE   O1318897   4.838   5.913   6.282 -0.1987 -0.0639 -0.1883
  168SOPE   O1418898   4.602   5.868   6.363  0.2214  0.0533 -0.0175
  168SOPE   O1218899   4.685   6.108   6.322 -0.7858 -0.4088 -0.0517
  168SOPE   O1118900   4.781   5.955   6.513  0.9784 -0.2649 -0.0446
  168SOPE    C118901   4.769   5.851   6.614 -0.3387  0.1367  0.3179
  168SOPE    HA18902   4.860   5.867   6.675  0.7963 -0.6434 -1.0986
  168SOPE    HB18903   4.768   5.749   6.570  2.2125  0.6256 -1.0665
  168SOPE    C218904   4.635   5.861   6.695 -0.8467  0.1343 -0.3264
  168SOPE    HS18905   4.546   5.858   6.630 -0.6288  1.5293 -0.7039
  168SOPE   O2118906   4.644   5.981   6.770  0.1083 -0.4238 -0.0818
  168SOPE   C2118907   4.523   6.028   6.819 -0.2598  0.2989 -0.3371
  168SOPE   O2218908   4.419   5.961   6.816  0.3527 -0.2837 -0.1271
  168SOPE   C2218909   4.535   6.163   6.864 -0.0605  0.2475  1.0623
  168SOPE   H2R18910   4.471   6.223   6.795 -0.4260 -1.4233 -0.1205
  168SOPE   H2S18911   4.632   6.218   6.863 -0.4915  1.0314  0.9100
  168SOPE    C318912   4.637   5.735   6.789 -0.4105  0.1226  0.5128
  168SOPE    HX18913   4.642   5.646   6.723 -0.1243  1.2035 -0.9611
  168SOPE    HY18914   4.534   5.722   6.831 -0.6367  0.3461  0.0369
  168SOPE   O3118915   4.750   5.731   6.877  0.0542  0.7356 -0.1164
  168SOPE   C3118916   4.743   5.790   6.992  0.7771 -0.0692  0.2545
  168SOPE   O3218917   4.643   5.843   7.039  0.3155  0.0188  0.5416
  168SOPE   C3218918   4.877   5.772   7.062  0.0265  0.0689  0.3210
  168SOPE   H2X18919   4.961   5.809   6.999  0.0373 -0.6207 -0.0733
  168SOPE   H2Y18920   4.895   5.663   7.079 -0.7292 -0.2026 -0.5723
  168SOPE   C2318921   4.472   6.189   7.004 -0.0011  0.0724 -0.4909
  168SOPE   H3R18922   4.375   6.139   7.023 -0.0743  0.2985 -0.2582
  168SOPE   H3S18923   4.461   6.299   7.011  2.2529  0.3133  0.1441
  168SOPE   C2418924   4.569   6.165   7.120  0.4061  0.0621  0.2078
  168SOPE   H4R18925   4.565   6.055   7.139  2.3659 -0.2241 -0.8277
  168SOPE   H4S18926   4.672   6.198   7.097  0.5403  0.0325  0.7744
  168SOPE   C2518927   4.518   6.230   7.254 -0.3286  0.1056  0.2765
  168SOPE   H5R18928   4.407   6.222   7.256 -0.1935 -2.6873  1.5341
  168SOPE   H5S18929   4.552   6.156   7.330  0.6424 -0.2449 -0.4770
  168SOPE   C2618930   4.569   6.363   7.295  0.4013 -0.0847  0.5706
  168SOPE   H6R18931   4.670   6.388   7.256  0.4807  0.5764  1.1870
  168SOPE   H6S18932   4.500   6.437   7.249 -1.5408 -0.7069  2.3283
  168SOPE   C2718933   4.581   6.374   7.443 -0.0146 -0.3609 -0.1179
  168SOPE   H7R18934   4.639   6.284   7.472 -1.1880 -0.4533  2.1345
  168SOPE   H7S18935   4.641   6.459   7.481  0.8676 -0.7786 -0.5438
  168SOPE   C2818936   4.446   6.363   7.518 -0.7711 -0.3187  0.4194
  168SOPE   H8R18937   4.385   6.280   7.476  2.7230 -2.0187 -1.7853
  168SOPE   H8S18938   4.472   6.318   7.616 -0.3561 -3.2987 -0.9498
  168SOPE   C2918939   4.362   6.484   7.511  0.4369  0.5359  0.5294
  168SOPE   H9118940   4.322   6.515   7.414  0.7020  1.2727  0.6490
  168SOPE  C21018941   4.343   6.566   7.611  0.7954 -0.7718 -0.7398
  168SOPE  H10118942   4.273   6.650   7.593  0.8960 -0.5013  0.1047
  168SOPE  C21118943   4.397   6.555   7.756 -0.9102 -0.1015  0.1175
  168SOPE  H11R18944   4.477   6.631   7.768 -0.7980 -0.4340  1.6140
  168SOPE  H11S18945   4.444   6.458   7.784  1.6304  0.7797 -0.8410
  168SOPE  C21218946   4.284   6.575   7.860 -0.3975  0.0438 -0.9159
  168SOPE  H12R18947   4.191   6.521   7.834 -0.5383  0.5804 -1.5357
  168SOPE  H12S18948   4.253   6.681   7.852  0.0041  0.1461 -1.1410
  168SOPE  C21318949   4.333   6.541   7.999  0.2725  0.5187  0.1866
  168SOPE  H13R18950   4.338   6.430   8.007 -1.7404  0.5260  2.4946
  168SOPE  H13S18951   4.255   6.576   8.069  0.7839 -1.4868  1.8826
  168SOPE  C21418952   4.460   6.605   8.061  0.0927 -0.1475  0.8739
  168SOPE  H14R18953   4.462   6.715   8.044 -0.3158 -0.2266  0.3183
  168SOPE  H14S18954   4.548   6.559   8.010  0.6869  0.5737  1.2289
  168SOPE  C21518955   4.450   6.588   8.211  0.2777  0.1509 -0.1942
  168SOPE  H15R18956   4.429   6.479   8.219  0.6765 -0.0636 -1.7928
  168SOPE  H15S18957   4.361   6.633   8.260 -1.1715 -5.1048  2.8203
  168SOPE  C21618958   4.578   6.626   8.276 -0.3420 -0.3501 -0.5064
  168SOPE  H16R18959   4.579   6.734   8.247 -0.5330 -0.4539 -0.9070
  168SOPE  H16S18960   4.665   6.569   8.237 -0.1901 -1.1968  0.9965
  168SOPE  C21718961   4.569   6.603   8.424 -0.3842 -0.4411 -0.3746
  168SOPE  H17R18962   4.675   6.600   8.457 -0.1570 -2.8236 -1.1309
  168SOPE  H17S18963   4.526   6.504   8.449  0.2256 -0.2591  1.5364
  168SOPE  C21818964   4.494   6.706   8.508  0.1515 -0.0324  0.0119
  168SOPE  H18R18965   4.497   6.682   8.616 -2.4957  1.4838  0.4858
  168SOPE  H18S18966   4.385   6.714   8.489 -0.2622 -0.6599  1.9776
  168SOPE  H18T18967   4.532   6.808   8.488  0.0255 -0.4645 -2.9291
  168SOPE   C3318968   4.880   5.840   7.201  0.2301 -0.2741 -0.6254
  168SOPE   H3X18969   4.965   5.790   7.253 -0.6686 -0.1971  0.9801
  168SOPE   H3Y18970   4.791   5.823   7.265  1.1956 -0.6707  0.6734
  168SOPE   C3418971   4.925   5.986   7.178 -0.2706  0.4468 -0.0931
  168SOPE   H4X18972   4.850   6.051   7.129  0.9728  0.7584 -1.6858
  168SOPE   H4Y18973   5.014   5.994   7.112 -0.4446  0.2011 -0.3605
  168SOPE   C3518974   4.959   6.058   7.312 -0.0518  0.3760 -0.6164
  168SOPE   H5X18975   5.053   6.028   7.362  0.7246  0.7818 -1.7980
  168SOPE   H5Y18976   4.875   6.032   7.381  0.7256 -1.0618 -0.1607
  168SOPE   C3618977   4.977   6.210   7.293  0.3057 -0.1652  0.3677
  168SOPE   H6X18978   4.907   6.253   7.219 -0.1243 -1.4150  0.0191
  168SOPE   H6Y18979   5.074   6.222   7.241 -0.2467  0.0808 -0.6198
  168SOPE   C3718980   4.983   6.301   7.421 -0.3230 -0.1920  0.1595
  168SOPE   H7X18981   4.881   6.317   7.461 -0.8109  1.6742 -1.6054
  168SOPE   H7Y18982   5.016   6.403   7.390  3.1306 -1.8131 -2.1898
  168SOPE   C3818983   5.081   6.246   7.523 -0.0024 -0.2471 -0.7172
  168SOPE   H8X18984   5.173   6.203   7.477  0.1055 -0.1831 -0.5621
  168SOPE   H8Y18985   5.027   6.156   7.560  0.6127 -0.7985 -1.1311
  168SOPE   C3918986   5.110   6.344   7.640 -0.0616  0.0564  0.4628
  168SOPE   H9X18987   5.017   6.388   7.681 -0.6316  0.0068 -0.7315
  168SOPE   H9Y18988   5.167   6.430   7.599 -2.0479 -0.1684 -3.2943
  168SOPE  C31018989   5.199   6.278   7.747 -0.1579 -0.1463  0.5177
  168SOPE  H10X18990   5.293   6.253   7.695 -0.7254 -0.0042 -0.5964
  168SOPE  H10Y18991   5.156   6.183   7.784  0.3254  0.5293  3.0256
  168SOPE  C31118992   5.219   6.384   7.859  0.0539 -1.1177  0.1986
  168SOPE  H11X18993   5.118   6.414   7.894  0.4541  0.2798  0.2425
  168SOPE  H11Y18994   5.247   6.475   7.802 -1.7831 -1.3933 -1.2366
  168SOPE  C31218995   5.299   6.336   7.978  0.0414 -0.3332  0.0685
  168SOPE  H12X18996   5.401   6.303   7.949 -0.0128  0.1447 -0.6887
  168SOPE  H12Y18997   5.240   6.250   8.017 -0.7627 -0.8413 -2.0708
  168SOPE  C31318998   5.321   6.449   8.083  0.7399 -0.5678  0.4279
  168SOPE  H13X18999   5.224   6.503   8.083  0.0805 -1.5854 -2.5133
  168SOPE  H13Y19000   5.390   6.524   8.039 -0.1146  2.7219  4.1047
  168SOPE  C31419001   5.353   6.401   8.222 -0.3877 -0.3511  0.3336
  168SOPE  H14X19002   5.432   6.324   8.216  0.1725  0.3216 -1.1469
  168SOPE  H14Y19003   5.257   6.362   8.264  0.0050 -1.3038  0.3557
  168SOPE  C31519004   5.397   6.514   8.315 -0.5610 -0.4983  1.0944
  168SOPE  H15X19005   5.454   6.595   8.265 -1.0347 -0.2692  0.9165
  168SOPE  H15Y19006   5.472   6.470   8.385  1.5237 -1.1250 -1.4110
  168SOPE  C31619007   5.281   6.579   8.391  0.1024  0.5253  0.4391
  168SOPE  H16X19008   5.228   6.502   8.451  1.0732  0.2465  0.9579
  168SOPE  H16Y19009   5.201   6.620   8.325  0.1302 -1.7572 -1.1266
  168SOPE  C31719010   5.334   6.690   8.478  0.1936  0.2332 -0.0414
  168SOPE  H17X19011   5.242   6.740   8.517 -1.1787 -2.2018  0.0968
  168SOPE  H17Y19012   5.397   6.762   8.422  0.0934  1.7787  1.7283
  168SOPE  C31819013   5.409   6.640   8.605  0.2772  0.2955 -0.1655
  168SOPE  H18X19014   5.391   6.532   8.621  1.6290  0.2284  1.1702
  168SOPE  H18Y19015   5.387   6.706   8.692 -1.9973 -1.5908  0.7747
  168SOPE  H18Z19016   5.515   6.653   8.572  0.3632 -1.3395 -0.6027
  169SOPE     N19017   1.578   0.972   6.188 -0.1726 -0.0649 -0.1585
  169SOPE   HN119018   1.556   0.891   6.249  1.7090 -0.3004  0.2749
  169SOPE   HN219019   1.498   1.010   6.134  1.2536  1.3308 -1.4133
  169SOPE   HN319020   1.649   0.926   6.128  0.3810 -0.7081  0.9498
  169SOPE   C1219021   1.644   1.088   6.249  0.0161 -0.1556 -0.9914
  169SOPE  H12A19022   1.700   1.143   6.171 -0.4771  0.7087 -0.7393
  169SOPE  H12B19023   1.710   1.049   6.329 -1.4882  1.1050  0.9629
  169SOPE   C1119024   1.543   1.182   6.313  0.1698 -0.5365 -0.2296
  169SOPE  H11A19025   1.603   1.268   6.352  2.7993 -0.9779 -2.9619
  169SOPE  H11B19026   1.481   1.123   6.384 -0.8164 -2.4022 -2.4898
  169SOPE     P19027   1.295   1.260   6.257  0.4072 -0.1863 -0.1022
  169SOPE   O1319028   1.249   1.121   6.289 -0.1441  0.1304  0.1267
  169SOPE   O1419029   1.223   1.323   6.143  0.0729 -0.3554  0.1953
  169SOPE   O1219030   1.446   1.245   6.217  0.0339  0.6474 -0.7468
  169SOPE   O1119031   1.299   1.342   6.386 -0.1758  0.2168 -0.1863
  169SOPE    C119032   1.322   1.478   6.392 -0.0585 -0.0357 -0.4197
  169SOPE    HA19033   1.242   1.540   6.346  0.4091  1.2069  0.3669
  169SOPE    HB19034   1.416   1.505   6.339 -0.1043  1.0673  0.0182
  169SOPE    C219035   1.366   1.524   6.533  0.0866 -0.7870  0.0908
  169SOPE    HS19036   1.443   1.603   6.516 -0.2940 -0.9297 -2.6093
  169SOPE   O2119037   1.416   1.409   6.606 -0.6884 -0.4209 -0.0003
  169SOPE   C2119038   1.544   1.395   6.603  0.2912 -0.1644 -0.7236
  169SOPE   O2219039   1.626   1.463   6.540 -0.2139 -0.1518  0.1419
  169SOPE   C2219040   1.592   1.277   6.696 -0.0191  0.5796 -1.0241
  169SOPE   H2R19041   1.660   1.210   6.638 -1.3059 -0.7718 -1.0411
  169SOPE   H2S19042   1.499   1.230   6.734  1.6615  0.7637  3.9843
  169SOPE    C319043   1.252   1.599   6.616 -0.2475  0.5857 -0.6430
  169SOPE    HX19044   1.166   1.532   6.636 -0.4673  1.1987  0.5591
  169SOPE    HY19045   1.206   1.688   6.568 -0.3829  2.5667  2.8158
  169SOPE   O3119046   1.303   1.645   6.747  0.0576  0.1529  0.0624
  169SOPE   C3119047   1.397   1.743   6.741 -0.2744  1.0370 -0.3566
  169SOPE   O3219048   1.416   1.814   6.644  0.1580  0.2245 -0.1158
  169SOPE   C3219049   1.463   1.764   6.886 -0.2685  0.3941 -0.1768
  169SOPE   H2X19050   1.555   1.818   6.856 -0.5938  0.5411 -0.9203
  169SOPE   H2Y19051   1.477   1.658   6.918  0.6635  0.1500 -1.3114
  169SOPE   C2319052   1.658   1.313   6.837 -1.0191  0.1533  0.3271
  169SOPE   H3R19053   1.732   1.396   6.833  0.4284 -1.1411 -1.8025
  169SOPE   H3S19054   1.721   1.232   6.877 -0.8173  0.9214  1.6195
  169SOPE   C2419055   1.540   1.355   6.936 -0.1998 -0.4421 -0.3854
  169SOPE   H4R19056   1.493   1.449   6.901  2.0960  1.4313  1.2882
  169SOPE   H4S19057   1.465   1.274   6.949 -0.1968 -0.3362  0.3374
  169SOPE   C2519058   1.597   1.387   7.075  0.3801 -0.6103  0.4112
  169SOPE   H5R19059   1.677   1.314   7.099  2.6559  1.1228 -1.3906
  169SOPE   H5S19060   1.642   1.488   7.072  0.3981 -0.6130  0.6001
  169SOPE   C2619061   1.493   1.401   7.188 -0.3323  0.3647 -0.1364
  169SOPE   H6R19062   1.415   1.465   7.142 -0.4795 -0.3505 -0.9107
  169SOPE   H6S19063   1.442   1.307   7.216 -0.2192  0.7385  1.4392
  169SOPE   C2719064   1.548   1.477   7.315  0.0320  0.5275 -0.0766
  169SOPE   H7R19065   1.573   1.577   7.274 -0.1283 -0.2138 -2.0982
  169SOPE   H7S19066   1.460   1.496   7.380 -0.8586 -0.1343 -1.0411
  169SOPE   C2819067   1.660   1.410   7.398  0.2429 -0.2628 -0.2796
  169SOPE   H8R19068   1.629   1.308   7.430 -1.2572  0.5818  1.0903
  169SOPE   H8S19069   1.750   1.396   7.334  1.2808  1.2389  0.7899
  169SOPE   C2919070   1.712   1.488   7.515 -0.3183  0.5893  0.6740
  169SOPE   H9119071   1.739   1.594   7.502 -1.4459  0.7464 -0.5936
  169SOPE  C21019072   1.725   1.440   7.644 -0.0392  0.8008 -0.4955
  169SOPE  H10119073   1.772   1.488   7.731 -0.1688 -0.7284  0.4483
  169SOPE  C21119074   1.698   1.301   7.690  0.8338  0.0920  1.1681
  169SOPE  H11R19075   1.791   1.242   7.702 -0.6419 -2.4147  0.8989
  169SOPE  H11S19076   1.624   1.251   7.624 -1.1705  2.7725  1.1724
  169SOPE  C21219077   1.619   1.305   7.822  0.4069  0.7532  0.2670
  169SOPE  H12R19078   1.561   1.211   7.813  1.0633  0.5117 -2.9579
  169SOPE  H12S19079   1.551   1.392   7.830  0.5932  0.7792  1.8031
  169SOPE  C21319080   1.704   1.301   7.950 -0.4480 -0.1316 -0.6747
  169SOPE  H13R19081   1.725   1.408   7.972  0.0780 -0.4619  0.4774
  169SOPE  H13S19082   1.792   1.237   7.929 -1.5169 -1.7619 -0.3309
  169SOPE  C21419083   1.624   1.239   8.069  0.7060 -0.5495 -0.5066
  169SOPE  H14R19084   1.592   1.135   8.045  0.8612 -0.2846 -1.9227
  169SOPE  H14S19085   1.537   1.305   8.085  3.1844  2.5382  1.6005
  169SOPE  C21519086   1.704   1.248   8.200  0.4921  0.0756  0.4244
  169SOPE  H15R19087   1.763   1.341   8.184 -1.3099  1.0613 -0.7772
  169SOPE  H15S19088   1.777   1.165   8.209  1.3315  0.3899 -2.5445
  169SOPE  C21619089   1.615   1.266   8.323  0.2980  0.6174 -0.1753
  169SOPE  H16R19090   1.549   1.178   8.340  1.0674  0.5822  3.2811
  169SOPE  H16S19091   1.552   1.355   8.303  1.6186  1.5182 -0.4487
  169SOPE  C21719092   1.702   1.281   8.451  0.1259  0.0893  0.3200
  169SOPE  H17R19093   1.758   1.375   8.433 -0.8064  1.0534  2.1571
  169SOPE  H17S19094   1.772   1.195   8.444  1.6243  1.3490 -0.9469
  169SOPE  C21819095   1.632   1.285   8.585  0.7325 -0.2584  0.4145
  169SOPE  H18R19096   1.688   1.261   8.678  1.7494  1.4660  0.2977
  169SOPE  H18S19097   1.538   1.227   8.572 -2.3476  4.6779 -3.4001
  169SOPE  H18T19098   1.589   1.384   8.611 -1.3826 -0.9996 -0.0762
  169SOPE   C3319099   1.362   1.849   6.973  0.5268  0.1957  0.8310
  169SOPE   H3X19100   1.256   1.821   6.953  0.7463 -1.0169  1.2513
  169SOPE   H3Y19101   1.374   1.954   6.940 -2.4131 -0.5824 -3.7723
  169SOPE   C3419102   1.366   1.824   7.118 -0.3645 -0.3587  0.2021
  169SOPE   H4X19103   1.466   1.858   7.153  1.1155 -3.9407 -0.1069
  169SOPE   H4Y19104   1.379   1.716   7.138  0.6165 -0.5343 -1.2227
  169SOPE   C3519105   1.259   1.893   7.193 -0.1127  0.4486 -0.2829
  169SOPE   H5X19106   1.158   1.851   7.169  0.2607  0.8893 -2.8924
  169SOPE   H5Y19107   1.265   2.001   7.170  0.6622  0.3321 -0.6392
  169SOPE   C3619108   1.264   1.870   7.348 -0.3268 -0.0029  0.1147
  169SOPE   H6X19109   1.194   1.942   7.395 -0.9375 -0.9227  0.6332
  169SOPE   H6Y19110   1.359   1.900   7.397 -0.5972  0.9677  0.0507
  169SOPE   C3719111   1.249   1.727   7.394 -0.2498  0.6096  0.4493
  169SOPE   H7X19112   1.311   1.654   7.337  0.9526  1.5643  0.4973
  169SOPE   H7Y19113   1.144   1.706   7.367  0.5865 -2.4679 -0.9132
  169SOPE   C3819114   1.283   1.694   7.544 -0.0588 -0.4834 -0.2930
  169SOPE   H8X19115   1.390   1.714   7.566 -0.0243 -0.5641 -0.3875
  169SOPE   H8Y19116   1.224   1.760   7.610  0.6003 -1.8440  1.7455
  169SOPE   C3919117   1.270   1.548   7.584  0.3031 -0.4251  0.4508
  169SOPE   H9X19118   1.292   1.469   7.509  1.0457 -3.4673  3.6191
  169SOPE   H9Y19119   1.164   1.542   7.619  0.5038 -1.5899  0.8915
  169SOPE  C31019120   1.351   1.521   7.712 -0.3394 -0.1012 -0.5710
  169SOPE  H10X19121   1.439   1.586   7.736 -1.5004  0.7784  1.6273
  169SOPE  H10Y19122   1.389   1.417   7.708 -1.9803 -0.6827 -2.0810
  169SOPE  C31119123   1.252   1.533   7.833 -0.5884  0.5873  0.9171
  169SOPE  H11X19124   1.158   1.478   7.810  0.4078 -1.9718  2.4888
  169SOPE  H11Y19125   1.220   1.638   7.848  1.3097  1.3412  0.0642
  169SOPE  C31219126   1.311   1.482   7.962  0.0779  0.6232 -0.0755
  169SOPE  H12X19127   1.392   1.548   7.998  0.3699 -0.8201  2.1300
  169SOPE  H12Y19128   1.341   1.376   7.946 -0.8907  0.1548  1.0451
  169SOPE  C31319129   1.214   1.471   8.087  0.4553  0.0972  0.4367
  169SOPE  H13X19130   1.125   1.418   8.047  0.4953  0.0066  0.4684
  169SOPE  H13Y19131   1.188   1.573   8.124 -0.1001  0.1307 -0.0318
  169SOPE  C31419132   1.271   1.391   8.213  0.4400  0.0460  0.0379
  169SOPE  H14X19133   1.361   1.441   8.253  0.3248 -1.1495  1.9053
  169SOPE  H14Y19134   1.292   1.285   8.189 -2.1971 -0.5806  0.2017
  169SOPE  C31519135   1.174   1.388   8.339 -0.1891  0.1681  0.2263
  169SOPE  H15X19136   1.096   1.311   8.319  0.3927 -0.5642  0.7507
  169SOPE  H15Y19137   1.124   1.487   8.353 -1.1167 -0.7070  4.0997
  169SOPE  C31619138   1.264   1.361   8.464 -0.4341  0.7588  0.1939
  169SOPE  H16X19139   1.353   1.428   8.467  1.8065 -1.8016 -2.8364
  169SOPE  H16Y19140   1.293   1.254   8.463 -1.4723  0.4662 -0.0517
  169SOPE  C31719141   1.190   1.386   8.599 -0.4219  0.5747  0.6802
  169SOPE  H17X19142   1.244   1.355   8.692 -0.1383  1.4202  0.8056
  169SOPE  H17Y19143   1.092   1.334   8.607  0.5109 -1.3784  0.1393
  169SOPE  C31819144   1.155   1.533   8.627 -0.2092 -0.4141  0.3102
  169SOPE  H18X19145   1.229   1.614   8.608 -0.6519 -0.1780 -0.4963
  169SOPE  H18Y19146   1.132   1.541   8.735  1.3893 -3.4094  0.9642
  169SOPE  H18Z19147   1.055   1.552   8.581 -0.1188 -0.6907 -0.0010
  170SOPE     N19148   1.354   0.310   6.348 -0.7369  0.5203  0.3186
  170SOPE   HN119149   1.276   0.304   6.280 -0.2865  1.6299 -0.3225
  170SOPE   HN219150   1.393   0.406   6.339  0.1714  0.1550  0.1958
  170SOPE   HN319151   1.426   0.242   6.317  1.2069  2.9195 -0.7287
  170SOPE   C1219152   1.317   0.285   6.491  0.6189  0.2430  0.7208
  170SOPE  H12A19153   1.271   0.380   6.526  1.2561  1.8774 -2.5585
  170SOPE  H12B19154   1.408   0.266   6.552  2.0317 -0.3068 -1.4662
  170SOPE   C1119155   1.223   0.156   6.490 -0.6174 -0.1370  0.1064
  170SOPE  H11A19156   1.184   0.144   6.594  0.2105 -0.9581  0.3358
  170SOPE  H11B19157   1.285   0.065   6.473 -1.6937 -1.4803  2.7637
  170SOPE     P19158   1.041   0.042   6.358 -0.7565 -0.0701 -0.2181
  170SOPE   O1319159   1.136  -0.074   6.359 -0.2853  0.2242 -0.1840
  170SOPE   O1419160   0.960   0.066   6.238 -0.4503  0.2163  0.0105
  170SOPE   O1219161   1.124   0.166   6.391 -0.1029  0.1735  0.0448
  170SOPE   O1119162   0.947   0.034   6.484  0.2996 -0.0812 -0.3022
  170SOPE    C119163   0.857   0.143   6.508  0.7613 -0.2628  0.5964
  170SOPE    HA19164   0.832   0.202   6.417 -1.2435 -2.1447 -0.1600
  170SOPE    HB19165   0.898   0.219   6.578  0.9400  0.5103 -0.3300
  170SOPE    C219166   0.713   0.097   6.552  0.4942  0.4249 -0.4977
  170SOPE    HS19167   0.650   0.188   6.540 -2.7395 -1.7527 -1.3263
  170SOPE   O2119168   0.721   0.049   6.690 -0.7164  0.9276  0.1060
  170SOPE   C2119169   0.726   0.151   6.775  0.3944  0.9612  0.0164
  170SOPE   O2219170   0.736   0.271   6.751  0.5223  0.1713  0.6725
  170SOPE   C2219171   0.717   0.092   6.918 -0.2727 -0.5162 -0.0095
  170SOPE   H2R19172   0.742  -0.015   6.903  2.1047 -0.2027  1.2669
  170SOPE   H2S19173   0.608   0.110   6.929 -0.2780  0.1476 -0.9522
  170SOPE    C319174   0.644  -0.006   6.457 -0.3038  0.2796  0.1721
  170SOPE    HX19175   0.710  -0.094   6.466  0.4703  0.8854  0.6023
  170SOPE    HY19176   0.641   0.022   6.350 -0.1906 -1.9100 -0.4413
  170SOPE   O3119177   0.512  -0.052   6.505  0.0017  0.2721  0.8070
  170SOPE   C3119178   0.410   0.014   6.443 -0.0136  0.4210 -0.1941
  170SOPE   O3219179   0.419   0.111   6.368 -1.0697 -0.1945  0.0756
  170SOPE   C3219180   0.270  -0.043   6.485  0.1718  0.3445  0.5063
  170SOPE   H2X19181   0.297  -0.126   6.555 -0.5264  0.8226  1.3651
  170SOPE   H2Y19182   0.225  -0.073   6.388 -1.0414  1.0890  0.8168
  170SOPE   C2319183   0.822   0.145   7.016  0.6142  0.4834 -0.1755
  170SOPE   H3R19184   0.817   0.256   7.025 -2.1769  0.4787 -0.5305
  170SOPE   H3S19185   0.916   0.100   6.978 -0.4609 -3.0645  0.9658
  170SOPE   C2419186   0.804   0.089   7.156 -0.5896  0.1249 -0.0129
  170SOPE   H4R19187   0.725   0.134   7.220  0.3176  0.1369  1.1500
  170SOPE   H4S19188   0.794  -0.022   7.154  1.4006 -0.0829 -0.6395
  170SOPE   C2519189   0.933   0.116   7.241 -0.3398  0.2087  0.2484
  170SOPE   H5R19190   1.009   0.040   7.215  1.1690  1.6930  0.0877
  170SOPE   H5S19191   0.973   0.220   7.242 -0.6662  0.3546  2.5331
  170SOPE   C2619192   0.905   0.103   7.392 -0.8906 -0.0560 -0.2371
  170SOPE   H6R19193   0.818   0.164   7.424 -0.2089  0.6184  0.3627
  170SOPE   H6S19194   0.890  -0.003   7.423  0.4511  0.2061  1.4158
  170SOPE   C2719195   1.019   0.148   7.483 -0.0595  0.1595  0.6900
  170SOPE   H7R19196   1.102   0.078   7.460  0.0952  0.7618 -0.7395
  170SOPE   H7S19197   1.034   0.254   7.451 -0.6190  0.7368  2.2567
  170SOPE   C2819198   0.972   0.160   7.628  0.7604 -0.4479 -0.1873
  170SOPE   H8R19199   0.873   0.211   7.632  1.8146  1.8871 -1.4609
  170SOPE   H8S19200   0.951   0.058   7.666 -1.2977  0.2943  0.7973
  170SOPE   C2919201   1.072   0.211   7.722  0.5651 -0.8765  0.4406
  170SOPE   H9119202   1.165   0.231   7.666 -1.3408  1.2653 -2.2144
  170SOPE  C21019203   1.066   0.232   7.853 -0.0623  0.4386 -0.0675
  170SOPE  H10119204   1.150   0.280   7.905 -1.6940  2.4408  0.8536
  170SOPE  C21119205   0.948   0.203   7.937  0.3498  0.8458 -0.7599
  170SOPE  H11R19206   0.994   0.157   8.027  0.3895  2.0054 -0.1589
  170SOPE  H11S19207   0.884   0.122   7.896  0.0370 -0.4975  2.1868
  170SOPE  C21219208   0.848   0.315   7.976 -0.7317 -0.4775  0.0328
  170SOPE  H12R19209   0.785   0.337   7.888 -2.4776  1.0604  1.5682
  170SOPE  H12S19210   0.901   0.412   7.990  0.0703 -0.8233 -0.5019
  170SOPE  C21319211   0.767   0.281   8.100 -0.0117 -0.0441 -0.2304
  170SOPE  H13R19212   0.731   0.177   8.086 -1.2729 -0.1524  2.9813
  170SOPE  H13S19213   0.678   0.343   8.123 -0.5211 -1.3866  1.7231
  170SOPE  C21419214   0.860   0.295   8.222 -0.2017  0.5112 -0.3773
  170SOPE  H14R19215   0.867   0.404   8.241  1.0399  0.4882 -0.5588
  170SOPE  H14S19216   0.965   0.266   8.196 -0.0661 -0.8951  1.4599
  170SOPE  C21519217   0.807   0.211   8.340 -0.1672  0.5318  0.0532
  170SOPE  H15R19218   0.805   0.104   8.309  1.9696  1.1279 -2.5143
  170SOPE  H15S19219   0.699   0.233   8.357 -0.8616 -2.8468  0.8982
  170SOPE  C21619220   0.889   0.224   8.474 -0.7122 -0.2575  0.3756
  170SOPE  H16R19221   0.885   0.328   8.512  1.0044  1.0971 -2.7060
  170SOPE  H16S19222   0.997   0.201   8.459 -0.7066  0.6062 -1.1346
  170SOPE  C21719223   0.843   0.122   8.584 -0.0766 -0.6363 -0.7569
  170SOPE  H17R19224   0.925   0.104   8.656 -1.9847 -0.0806  1.6780
  170SOPE  H17S19225   0.816   0.023   8.542 -2.3847 -2.7420  4.7356
  170SOPE  C21819226   0.723   0.174   8.659  0.5929 -0.1688 -0.2259
  170SOPE  H18R19227   0.723   0.284   8.672 -0.9810  0.0421 -1.6153
  170SOPE  H18S19228   0.708   0.117   8.753  1.7017  2.4064  1.5978
  170SOPE  H18T19229   0.638   0.156   8.589  0.8809 -3.3910  0.0657
  170SOPE   C3319230   0.174   0.058   6.559 -0.1885  0.7161 -0.7317
  170SOPE   H3X19231   0.084   0.011   6.606  1.3904  0.0275  1.8407
  170SOPE   H3Y19232   0.135   0.131   6.486 -0.9714  0.6303 -0.4174
  170SOPE   C3419233   0.242   0.128   6.675  0.9743 -0.4171  0.8601
  170SOPE   H4X19234   0.174   0.195   6.732  1.6198 -0.2638  1.4674
  170SOPE   H4Y19235   0.326   0.194   6.646  0.8986 -0.4182  0.6364
  170SOPE   C3519236   0.288   0.033   6.785  0.2502  0.1023 -1.2174
  170SOPE   H5X19237   0.393   0.009   6.757  0.5956  1.1328 -0.8268
  170SOPE   H5Y19238   0.229  -0.060   6.805  3.1052 -1.6144 -0.2097
  170SOPE   C3619239   0.293   0.099   6.926 -0.7883 -0.0323  0.4961
  170SOPE   H6X19240   0.192   0.137   6.952 -1.3736  0.5525 -2.3934
  170SOPE   H6Y19241   0.351   0.194   6.919 -2.8838  1.3056  0.6734
  170SOPE   C3719242   0.361   0.015   7.040 -0.2682  0.4750 -0.3358
  170SOPE   H7X19243   0.458  -0.029   7.008 -2.0597 -2.6616 -1.9619
  170SOPE   H7Y19244   0.285  -0.061   7.069 -2.9765  2.3280 -2.0090
  170SOPE   C3819245   0.404   0.106   7.159  0.2810 -0.2816 -0.0484
  170SOPE   H8X19246   0.336   0.194   7.166  2.3577  1.6524 -2.4955
  170SOPE   H8Y19247   0.506   0.140   7.132  0.6609  1.2049  2.8764
  170SOPE   C3919248   0.409   0.041   7.296  0.2607 -0.2042 -0.1705
  170SOPE   H9X19249   0.491  -0.035   7.302 -1.3465 -1.9459  0.7713
  170SOPE   H9Y19250   0.314  -0.014   7.313 -0.0778  0.6625  0.8330
  170SOPE  C31019251   0.421   0.136   7.419 -0.2101 -0.4806 -0.9687
  170SOPE  H10X19252   0.321   0.180   7.440 -0.3790 -1.5347  0.6542
  170SOPE  H10Y19253   0.495   0.216   7.396  1.4314 -2.1230 -1.5873
  170SOPE  C31119254   0.476   0.062   7.546  0.1053  0.2879  0.9680
  170SOPE  H11X19255   0.576   0.023   7.518  0.0740 -1.1042  2.6579
  170SOPE  H11Y19256   0.407  -0.023   7.564  1.0931 -0.9442 -0.7855
  170SOPE  C31219257   0.482   0.150   7.664  0.0189  0.2445  0.0722
  170SOPE  H12X19258   0.388   0.208   7.677 -1.9815 -2.8547  0.5499
  170SOPE  H12Y19259   0.570   0.216   7.650 -0.8414  1.1329 -1.5931
  170SOPE  C31319260   0.492   0.069   7.795 -0.0421 -0.1505 -0.2714
  170SOPE  H13X19261   0.406  -0.001   7.803 -0.6271  0.2629 -2.4420
  170SOPE  H13Y19262   0.487   0.138   7.882  2.5458 -0.7482  0.4334
  170SOPE  C31419263   0.613  -0.028   7.810  0.0677  0.4472 -0.6772
  170SOPE  H14X19264   0.702   0.038   7.818 -0.8671  1.6922 -0.2946
  170SOPE  H14Y19265   0.619  -0.087   7.717 -0.9617  0.5936 -0.8458
  170SOPE  C31519266   0.587  -0.126   7.933 -0.3946 -0.2960  0.4507
  170SOPE  H15X19267   0.673  -0.197   7.932 -1.9323 -2.3291  2.0227
  170SOPE  H15Y19268   0.499  -0.192   7.916  0.3667 -2.1132  2.8778
  170SOPE  C31619269   0.567  -0.062   8.064  0.4288 -0.1808 -0.1225
  170SOPE  H16X19270   0.490   0.017   8.051 -0.6035 -1.4515 -2.1739
  170SOPE  H16Y19271   0.659  -0.024   8.114 -0.7393  3.5942 -0.5321
  170SOPE  C31719272   0.508  -0.162   8.163  0.7785  0.3058 -0.3522
  170SOPE  H17X19273   0.585  -0.231   8.201 -0.1604  1.3185  3.8846
  170SOPE  H17Y19274   0.433  -0.224   8.107  2.5892 -0.5010 -2.0060
  170SOPE  C31819275   0.435  -0.103   8.282  0.1872 -0.6173  0.3261
  170SOPE  H18X19276   0.501  -0.034   8.340 -0.5528  2.5313 -2.2459
  170SOPE  H18Y19277   0.393  -0.184   8.344 -0.2467 -1.3355 -0.8785
  170SOPE  H18Z19278   0.350  -0.041   8.244 -1.3748 -2.4615  0.6704
  171SOPE     N19279   2.444   3.132   6.050 -0.4794 -0.1371  0.2488
  171SOPE   HN119280   2.355   3.179   6.078 -0.6048 -0.1463 -0.1285
  171SOPE   HN219281   2.428   3.064   5.974  0.6046 -0.9603  0.7451
  171SOPE   HN319282   2.460   3.067   6.130 -3.4741 -0.2214  0.9095
  171SOPE   C1219283   2.545   3.239   6.012  0.7575 -0.3766 -0.1762
  171SOPE  H12A19284   2.535   3.283   5.910  3.8463 -2.6841 -1.6222
  171SOPE  H12B19285   2.644   3.189   6.008  1.2617  0.6944 -1.7605
  171SOPE   C1119286   2.553   3.351   6.123  0.1472 -0.2845  0.7035
  171SOPE  H11A19287   2.463   3.416   6.115  0.9051  0.7683  0.5053
  171SOPE  H11B19288   2.639   3.416   6.097  0.6149 -0.3924  1.9506
  171SOPE     P19289   2.611   3.380   6.372  0.1376  0.0939 -0.4678
  171SOPE   O1319290   2.530   3.505   6.360 -0.0258 -0.7664  0.0138
  171SOPE   O1419291   2.753   3.398   6.376 -0.2588 -0.4034  0.3958
  171SOPE   O1219292   2.571   3.291   6.250  0.3609  0.5251  0.4388
  171SOPE   O1119293   2.556   3.293   6.491  0.0081 -0.4482 -0.4536
  171SOPE    C119294   2.585   3.151   6.511 -0.7339 -0.1354 -0.0731
  171SOPE    HA19295   2.674   3.118   6.454  0.4716 -0.7037  2.0437
  171SOPE    HB19296   2.501   3.086   6.480 -0.4674 -0.1678 -0.7423
  171SOPE    C219297   2.632   3.123   6.662 -0.1282  0.6855  0.8094
  171SOPE    HS19298   2.673   3.020   6.668  2.0186  1.4423  0.0931
  171SOPE   O2119299   2.524   3.141   6.757 -0.0656 -0.0019 -0.4579
  171SOPE   C2119300   2.438   3.040   6.749  0.0072  0.0438 -0.0260
  171SOPE   O2219301   2.442   2.946   6.674  0.6708  0.0402  0.1054
  171SOPE   C2219302   2.330   3.070   6.855  0.2924 -0.2793 -0.1726
  171SOPE   H2R19303   2.246   3.001   6.833  1.8311 -1.2112 -3.9457
  171SOPE   H2S19304   2.304   3.173   6.820  0.2103 -1.0681 -2.6746
  171SOPE    C319305   2.741   3.211   6.706  0.5859 -0.7903  0.0325
  171SOPE    HX19306   2.704   3.315   6.697 -1.1100 -1.3892 -0.2745
  171SOPE    HY19307   2.825   3.211   6.633  1.8862 -0.1847  1.4606
  171SOPE   O3119308   2.785   3.164   6.841  0.0567 -0.0689  0.3851
  171SOPE   C3119309   2.806   3.249   6.928 -0.4147 -0.2031 -0.0528
  171SOPE   O3219310   2.823   3.367   6.909 -0.4216  0.0265  0.1188
  171SOPE   C3219311   2.818   3.179   7.062  0.1330 -0.2875 -0.6503
  171SOPE   H2X19312   2.926   3.156   7.072 -0.4177 -2.8722  0.0397
  171SOPE   H2Y19313   2.751   3.091   7.066 -0.2845 -0.0390 -1.6686
  171SOPE   C2319314   2.383   3.060   7.001 -0.0419  0.3722  0.8346
  171SOPE   H3R19315   2.310   3.117   7.062  0.1964  0.5729  0.9394
  171SOPE   H3S19316   2.484   3.104   7.016  0.4263 -1.1476  2.4732
  171SOPE   C2419317   2.372   2.916   7.057 -0.1360 -0.5840  0.4275
  171SOPE   H4R19318   2.265   2.888   7.071  0.0061 -0.3002  2.3925
  171SOPE   H4S19319   2.411   2.854   6.973  1.7202  0.3340  0.5623
  171SOPE   C2519320   2.456   2.902   7.183 -0.1639  0.2466  0.9539
  171SOPE   H5R19321   2.467   2.795   7.213  1.8227 -0.3089 -1.4124
  171SOPE   H5S19322   2.558   2.941   7.164 -0.1515  0.6504  1.7819
  171SOPE   C2619323   2.403   2.984   7.299 -0.3049 -0.6999  0.0672
  171SOPE   H6R19324   2.401   3.090   7.265  2.0285 -0.8018 -0.5191
  171SOPE   H6S19325   2.298   2.954   7.323 -0.0465 -0.6752  1.3138
  171SOPE   C2719326   2.498   2.981   7.420  0.1997 -0.2400 -0.5083
  171SOPE   H7R19327   2.517   2.879   7.459 -0.4908  0.8901  3.1739
  171SOPE   H7S19328   2.595   3.017   7.379 -1.1080  1.4259 -2.3179
  171SOPE   C2819329   2.453   3.058   7.536  0.6075  0.3531 -0.5802
  171SOPE   H8R19330   2.539   3.058   7.606  1.0794 -0.7139 -1.1388
  171SOPE   H8S19331   2.448   3.166   7.511  0.2431  1.0901  2.2624
  171SOPE   C2919332   2.329   3.007   7.603  0.4950 -0.6203 -0.4952
  171SOPE   H9119333   2.242   3.010   7.536 -0.2581 -1.8669  0.3867
  171SOPE  C21019334   2.299   2.982   7.733 -0.1803  0.4325  0.5663
  171SOPE  H10119335   2.213   2.915   7.746 -0.9600  1.2236 -0.3477
  171SOPE  C21119336   2.390   2.988   7.854  0.0642 -0.9244 -0.4058
  171SOPE  H11R19337   2.357   3.074   7.916 -0.4487 -1.4871  0.1194
  171SOPE  H11S19338   2.495   3.009   7.824  0.3185  0.0078  1.0547
  171SOPE  C21219339   2.409   2.868   7.945  0.1682  0.4583 -0.4638
  171SOPE  H12R19340   2.464   2.893   8.038  1.2871  1.2425 -1.3051
  171SOPE  H12S19341   2.480   2.792   7.906  1.3254  0.2499  1.9203
  171SOPE  C21319342   2.279   2.807   7.985 -0.3337  0.4414  0.2164
  171SOPE  H13R19343   2.240   2.723   7.923 -2.1978  0.2829  1.5313
  171SOPE  H13S19344   2.201   2.885   7.975  0.5831  1.4422  0.7135
  171SOPE  C21419345   2.266   2.767   8.131 -0.0726  0.1452 -0.4766
  171SOPE  H14R19346   2.310   2.838   8.204 -0.8362 -0.2838  0.4051
  171SOPE  H14S19347   2.319   2.671   8.142 -1.9133 -0.8046  0.5533
  171SOPE  C21519348   2.118   2.733   8.168  0.6297  0.4948  0.9005
  171SOPE  H15R19349   2.069   2.655   8.107 -0.4960  0.2416  2.1004
  171SOPE  H15S19350   2.050   2.821   8.164  0.8497  0.6168 -0.8908
  171SOPE  C21619351   2.118   2.690   8.313 -0.1666 -0.8030 -0.4922
  171SOPE  H16R19352   2.169   2.776   8.362 -1.2214  1.2686 -2.8242
  171SOPE  H16S19353   2.190   2.607   8.330 -1.6938 -2.0415  0.1770
  171SOPE  C21719354   1.992   2.640   8.389  0.4003 -0.3126  0.0837
  171SOPE  H17R19355   1.928   2.731   8.394 -1.3354 -1.5105  0.6395
  171SOPE  H17S19356   2.020   2.611   8.492  0.3957  1.3236  0.5695
  171SOPE  C21819357   1.913   2.530   8.312  1.1975  0.4011  0.1772
  171SOPE  H18R19358   1.977   2.443   8.285 -0.9192 -0.7157 -1.5234
  171SOPE  H18S19359   1.861   2.570   8.223 -3.9037 -0.8046  2.2690
  171SOPE  H18T19360   1.828   2.500   8.376 -0.1336  1.6966 -0.9051
  171SOPE   C3319361   2.782   3.281   7.169  0.1741  0.2104  0.7160
  171SOPE   H3X19362   2.672   3.297   7.159 -0.3790 -3.2952 -0.3906
  171SOPE   H3Y19363   2.842   3.373   7.157  0.9682 -0.4330 -0.4982
  171SOPE   C3419364   2.792   3.230   7.317 -0.0049 -0.1194  0.2704
  171SOPE   H4X19365   2.902   3.229   7.331 -0.1211  1.5403  1.6392
  171SOPE   H4Y19366   2.760   3.124   7.309 -0.5098  0.1394 -1.6320
  171SOPE   C3519367   2.712   3.305   7.429  0.2192 -0.1095 -0.0431
  171SOPE   H5X19368   2.604   3.302   7.402 -0.2004  0.5200  1.4449
  171SOPE   H5Y19369   2.740   3.412   7.415 -0.8690  0.0252 -1.3955
  171SOPE   C3619370   2.752   3.252   7.570  0.4570 -0.0922  0.6444
  171SOPE   H6X19371   2.863   3.255   7.572  0.5691  0.1174 -2.2009
  171SOPE   H6Y19372   2.732   3.143   7.585 -1.5436  0.2635  0.8293
  171SOPE   C3719373   2.691   3.338   7.678  0.2086  0.1920 -0.6538
  171SOPE   H7X19374   2.580   3.333   7.679  0.0957  0.6564  3.6196
  171SOPE   H7Y19375   2.721   3.444   7.679 -1.7330  0.7845 -0.7331
  171SOPE   C3819376   2.712   3.270   7.815 -0.0462  0.5757  0.0225
  171SOPE   H8X19377   2.822   3.254   7.823 -0.3792 -1.6065  0.9707
  171SOPE   H8Y19378   2.661   3.171   7.806  0.7673  0.3123 -2.4164
  171SOPE   C3919379   2.654   3.356   7.931 -0.0368  0.2523  1.2450
  171SOPE   H9X19380   2.543   3.353   7.926 -0.1697  3.6228 -1.0336
  171SOPE   H9Y19381   2.671   3.465   7.915  1.3227  0.1343  1.8190
  171SOPE  C31019382   2.706   3.318   8.072 -1.0121 -0.2578  0.2572
  171SOPE  H10X19383   2.815   3.333   8.084 -0.6631  1.7164 -3.7132
  171SOPE  H10Y19384   2.687   3.209   8.086 -2.1971 -0.0463  0.4104
  171SOPE  C31119385   2.629   3.390   8.185 -0.5315 -0.8439 -0.3287
  171SOPE  H11X19386   2.522   3.363   8.171 -1.2889  0.4121  2.3840
  171SOPE  H11Y19387   2.630   3.500   8.172 -1.8247 -0.4415  2.2822
  171SOPE  C31219388   2.668   3.355   8.327  0.7174 -0.0687 -0.1385
  171SOPE  H12X19389   2.753   3.417   8.363 -1.8535  2.8411  1.4547
  171SOPE  H12Y19390   2.713   3.255   8.339  1.7518  0.3070 -0.7596
  171SOPE  C31319391   2.553   3.381   8.417  0.0050  0.3665 -1.0454
  171SOPE  H13X19392   2.464   3.324   8.383 -0.8406  1.6721 -1.0662
  171SOPE  H13Y19393   2.523   3.488   8.411 -2.8633 -0.2962  0.0488
  171SOPE  C31419394   2.591   3.354   8.566  0.4788 -0.0329  0.1737
  171SOPE  H14X19395   2.507   3.398   8.623 -0.2634 -2.5710  1.1616
  171SOPE  H14Y19396   2.681   3.408   8.601 -1.5824  2.2341  2.3106
  171SOPE  C31519397   2.607   3.206   8.596  0.4423  0.3549  0.8067
  171SOPE  H15X19398   2.690   3.165   8.534 -0.1080  0.0125  0.2878
  171SOPE  H15Y19399   2.518   3.153   8.556 -1.1792  2.3647  1.5538
  171SOPE  C31619400   2.622   3.177   8.746 -0.3443  0.2974 -0.3424
  171SOPE  H16X19401   2.540   3.233   8.796  2.1132  1.6817  2.3658
  171SOPE  H16Y19402   2.717   3.219   8.784 -1.0323  1.9718 -0.3959
  171SOPE  C31719403   2.597   3.026   8.786 -0.3092  0.4067 -0.2422
  171SOPE  H17X19404   2.657   2.954   8.725 -0.7704  1.3340 -1.8718
  171SOPE  H17Y19405   2.491   3.009   8.759 -0.8688 -2.5466  3.1483
  171SOPE  C31819406   2.618   3.004   8.931  0.0747  0.0283  0.3507
  171SOPE  H18X19407   2.724   3.018   8.962  0.5157  0.6736 -1.2937
  171SOPE  H18Y19408   2.589   2.902   8.962  1.8509 -0.7110 -0.2614
  171SOPE  H18Z19409   2.560   3.083   8.983  0.0514  1.4616 -1.7206
  172SOPE     N19410   1.386   5.905   6.418  0.0825 -0.1727  0.7748
  172SOPE   HN119411   1.346   5.874   6.327  2.1129 -3.2670  0.7763
  172SOPE   HN219412   1.308   5.934   6.481 -0.1101  1.9340 -0.3330
  172SOPE   HN319413   1.457   5.981   6.410 -0.2351  0.1278  0.7557
  172SOPE   C1219414   1.442   5.778   6.476 -0.1038 -0.2805 -0.1665
  172SOPE  H12A19415   1.352   5.720   6.505  0.0343 -0.5661 -0.3029
  172SOPE  H12B19416   1.499   5.801   6.569 -2.0800  0.3015  0.9626
  172SOPE   C1119417   1.527   5.717   6.363 -0.5947  0.5066  0.5016
  172SOPE  H11A19418   1.456   5.682   6.285 -1.1960  0.2978  1.1320
  172SOPE  H11B19419   1.569   5.617   6.388  0.3872  0.9175  0.5401
  172SOPE     P19420   1.766   5.800   6.390 -0.0155  0.0771 -0.0898
  172SOPE   O1319421   1.830   5.933   6.381 -0.0620 -0.1306  0.1854
  172SOPE   O1419422   1.838   5.682   6.335  0.6761  0.3481  0.1820
  172SOPE   O1219423   1.627   5.808   6.315  0.3508  0.2551 -0.4426
  172SOPE   O1119424   1.722   5.777   6.537  0.2004  0.6970  0.4296
  172SOPE    C119425   1.784   5.674   6.623  0.1712 -0.1755 -0.3177
  172SOPE    HA19426   1.895   5.680   6.621  0.1442  0.2829 -0.7401
  172SOPE    HB19427   1.758   5.571   6.592 -0.2053 -0.4069  0.7426
  172SOPE    C219428   1.739   5.688   6.763  0.2906 -0.4926  0.0103
  172SOPE    HS19429   1.806   5.643   6.839  0.7995  1.1152  0.5555
  172SOPE   O2119430   1.605   5.631   6.771 -0.0989 -0.4410  0.0536
  172SOPE   C2119431   1.550   5.604   6.886  0.5383  0.3352 -0.4241
  172SOPE   O2219432   1.597   5.615   6.997 -0.5765 -0.3270 -0.4843
  172SOPE   C2219433   1.404   5.548   6.864 -0.2097 -0.1470  0.3872
  172SOPE   H2R19434   1.368   5.594   6.770  1.8711 -1.1554 -0.9652
  172SOPE   H2S19435   1.340   5.570   6.953 -0.3004 -0.9305  0.5222
  172SOPE    C319436   1.727   5.842   6.791  0.2219  0.2455 -0.1270
  172SOPE    HX19437   1.631   5.857   6.737  0.7581 -0.0171 -1.1814
  172SOPE    HY19438   1.794   5.908   6.732  0.3100 -0.7148 -1.1251
  172SOPE   O3119439   1.733   5.876   6.930 -0.5347 -0.3751  0.5977
  172SOPE   C3119440   1.854   5.895   6.984  0.4083  0.0147 -0.0965
  172SOPE   O3219441   1.959   5.892   6.926  0.6322 -0.2611 -0.1862
  172SOPE   C3219442   1.841   5.928   7.129 -0.0235 -0.3390 -0.0124
  172SOPE   H2X19443   1.846   6.039   7.140 -0.0120 -0.5057  2.0860
  172SOPE   H2Y19444   1.926   5.895   7.192  2.8565  2.7713 -1.8890
  172SOPE   C2319445   1.383   5.394   6.847 -0.4469 -0.2716 -0.0577
  172SOPE   H3R19446   1.447   5.342   6.771 -1.2123 -1.4947  0.1073
  172SOPE   H3S19447   1.282   5.360   6.816  0.5845 -3.4496 -0.3523
  172SOPE   C2419448   1.409   5.328   6.989  0.4445 -0.2835 -0.1818
  172SOPE   H4R19449   1.498   5.367   7.043 -1.7471  0.9730  2.8247
  172SOPE   H4S19450   1.320   5.344   7.053  0.3828 -1.7205  0.1241
  172SOPE   C2519451   1.439   5.176   6.979 -0.0957 -0.2151  0.2484
  172SOPE   H5R19452   1.351   5.120   6.940 -2.8439  3.3659  0.8391
  172SOPE   H5S19453   1.529   5.174   6.913 -0.6988 -1.5202 -0.5823
  172SOPE   C2619454   1.472   5.114   7.115  0.5623  0.2836 -0.4139
  172SOPE   H6R19455   1.505   5.009   7.101  0.3529  0.4145 -1.9964
  172SOPE   H6S19456   1.542   5.174   7.178  0.0211 -0.2519  0.7386
  172SOPE   C2719457   1.346   5.101   7.206  0.4129 -0.2019 -0.2836
  172SOPE   H7R19458   1.305   5.200   7.233  1.5249 -0.4403  2.6423
  172SOPE   H7S19459   1.261   5.048   7.157 -1.7343 -0.0384  2.9172
  172SOPE   C2819460   1.374   5.032   7.337 -0.0715  0.4208 -0.1312
  172SOPE   H8R19461   1.410   4.928   7.322 -1.4851 -0.6361  2.8996
  172SOPE   H8S19462   1.462   5.081   7.382 -0.7875 -0.7220  2.7137
  172SOPE   C2919463   1.265   5.023   7.443 -0.0333 -0.4790  0.5919
  172SOPE   H9119464   1.198   4.936   7.435 -0.2880 -0.1569 -1.0008
  172SOPE  C21019465   1.232   5.129   7.526  0.4168  0.5663  0.2755
  172SOPE  H10119466   1.153   5.113   7.601  1.1336 -0.3805  0.8439
  172SOPE  C21119467   1.300   5.262   7.533  0.2427 -0.5917 -0.1768
  172SOPE  H11R19468   1.404   5.256   7.496 -0.1556 -2.0863 -1.1784
  172SOPE  H11S19469   1.307   5.287   7.641  2.8438 -2.2640  0.1329
  172SOPE  C21219470   1.221   5.374   7.460  0.0094  0.1822 -0.2996
  172SOPE  H12R19471   1.118   5.361   7.499 -1.6716  1.4274 -3.9037
  172SOPE  H12S19472   1.204   5.352   7.352  1.5484 -0.6919 -0.3980
  172SOPE  C21319473   1.288   5.509   7.458  0.1933 -0.2302 -0.3110
  172SOPE  H13R19474   1.243   5.585   7.391 -0.4470  0.7423  1.1481
  172SOPE  H13S19475   1.384   5.491   7.406  1.0681 -0.4442  1.3093
  172SOPE  C21419476   1.310   5.574   7.591 -0.9426 -0.0274 -1.1900
  172SOPE  H14R19477   1.370   5.507   7.656  0.2708  2.1345  0.0144
  172SOPE  H14S19478   1.215   5.599   7.642 -1.1685 -2.1755 -0.4625
  172SOPE  C21519479   1.392   5.697   7.569 -0.1895 -0.0645 -0.3991
  172SOPE  H15R19480   1.327   5.773   7.519 -0.4351  1.4935  2.1067
  172SOPE  H15S19481   1.471   5.668   7.498 -1.5586 -3.7541 -0.6246
  172SOPE  C21619482   1.466   5.766   7.685  0.2066 -0.0706 -0.3540
  172SOPE  H16R19483   1.525   5.854   7.652 -0.2846 -0.1603 -1.5328
  172SOPE  H16S19484   1.531   5.697   7.743  1.6014  1.6055  0.1790
  172SOPE  C21719485   1.367   5.836   7.785  0.4302  0.0103 -0.6257
  172SOPE  H17R19486   1.331   5.761   7.859  1.9086  0.0534  0.1705
  172SOPE  H17S19487   1.280   5.882   7.733 -0.5906 -0.6375  0.4431
  172SOPE  C21819488   1.441   5.939   7.868  0.5752 -0.1314  0.3629
  172SOPE  H18R19489   1.486   6.013   7.799  1.4222 -1.1849 -0.2454
  172SOPE  H18S19490   1.521   5.885   7.923 -0.5836 -1.8555  0.4505
  172SOPE  H18T19491   1.380   5.995   7.942  0.1862  1.3068 -0.9894
  172SOPE   C3319492   1.714   5.883   7.205 -0.4824 -0.2592 -0.3638
  172SOPE   H3X19493   1.732   5.775   7.218 -1.3334 -0.5280 -1.2463
  172SOPE   H3Y19494   1.619   5.898   7.149 -0.1918  0.1978 -0.7498
  172SOPE   C3419495   1.702   5.946   7.342  0.2198 -0.9809 -0.7023
  172SOPE   H4X19496   1.609   5.904   7.385 -0.0366  1.0511  0.8857
  172SOPE   H4Y19497   1.690   6.056   7.333  0.7876 -0.8506  0.0345
  172SOPE   C3519498   1.814   5.906   7.439  0.0255 -0.5792 -0.5419
  172SOPE   H5X19499   1.913   5.939   7.401 -0.6032 -0.1771 -1.9008
  172SOPE   H5Y19500   1.808   5.798   7.463 -0.6644 -0.3147  0.5401
  172SOPE   C3619501   1.795   5.979   7.570 -0.2519 -0.1943 -0.3726
  172SOPE   H6X19502   1.701   5.939   7.614  0.0782  0.3014  0.8412
  172SOPE   H6Y19503   1.794   6.087   7.547  0.9121  0.2823  1.5337
  172SOPE   C3719504   1.903   5.937   7.671  0.1524  1.0634  0.8056
  172SOPE   H7X19505   2.005   5.954   7.628 -0.0905  0.3669 -0.0737
  172SOPE   H7Y19506   1.898   5.827   7.684 -0.2219  1.0220  0.3400
  172SOPE   C3819507   1.880   6.004   7.802  0.0857  0.5987 -0.8942
  172SOPE   H8X19508   1.779   5.981   7.844  1.1742  0.0124  1.5885
  172SOPE   H8Y19509   1.894   6.113   7.787 -0.3493  0.8436  0.3251
  172SOPE   C3919510   1.986   5.963   7.908 -0.5094  0.0401 -0.2189
  172SOPE   H9X19511   2.078   6.025   7.901 -0.4432  0.5288  3.1756
  172SOPE   H9Y19512   2.010   5.854   7.908 -2.3523 -0.4003 -1.4469
  172SOPE  C31019513   1.931   5.994   8.050 -0.1223  0.4560  0.0146
  172SOPE  H10X19514   1.837   5.937   8.067 -0.1402  1.5074  5.0052
  172SOPE  H10Y19515   1.891   6.098   8.056 -0.6717  0.2300  0.3217
  172SOPE  C31119516   2.023   5.967   8.169 -0.2020  0.2107 -0.2531
  172SOPE  H11X19517   2.108   6.037   8.154 -1.3875  1.6986 -0.1902
  172SOPE  H11Y19518   2.068   5.868   8.147  0.3456  0.1801  0.8931
  172SOPE  C31219519   1.959   5.978   8.314  1.0781  0.1580 -0.4483
  172SOPE  H12X19520   1.900   6.071   8.329  0.7336 -0.3940  1.9772
  172SOPE  H12Y19521   2.029   5.976   8.400 -1.8788 -1.0090  2.1590
  172SOPE  C31319522   1.867   5.856   8.330  0.6702  0.2719 -0.4776
  172SOPE  H13X19523   1.937   5.770   8.318  0.0033 -0.6326  1.5461
  172SOPE  H13Y19524   1.797   5.857   8.244  1.1521  1.1250 -0.8629
  172SOPE  C31419525   1.790   5.867   8.461 -0.7338 -0.0775  0.6009
  172SOPE  H14X19526   1.852   5.907   8.544 -0.6362 -0.6938  0.8268
  172SOPE  H14Y19527   1.759   5.766   8.494  1.5505 -0.6688  1.1049
  172SOPE  C31519528   1.659   5.948   8.441  0.0645 -0.4020 -0.2802
  172SOPE  H15X19529   1.612   5.923   8.343 -2.4478  4.2068 -0.5080
  172SOPE  H15Y19530   1.693   6.052   8.422 -1.0479  0.1032  0.4045
  172SOPE  C31619531   1.567   5.927   8.561 -0.2977  0.1967  0.3460
  172SOPE  H16X19532   1.560   5.820   8.592  0.1561 -0.0795 -0.4771
  172SOPE  H16Y19533   1.468   5.958   8.522 -0.1774 -0.6015 -0.6395
  172SOPE  C31719534   1.600   6.016   8.682 -0.4041 -0.2050 -0.1003
  172SOPE  H17X19535   1.573   6.118   8.649 -2.2005 -1.4344 -2.8138
  172SOPE  H17Y19536   1.709   6.004   8.701 -1.1330 -1.9764  4.0754
  172SOPE  C31819537   1.529   5.984   8.808  0.5837 -0.1918 -0.1320
  172SOPE  H18X19538   1.595   6.011   8.893 -0.0039  1.6636 -0.2109
  172SOPE  H18Y19539   1.489   5.881   8.814 -1.0261  0.3609 -1.0076
  172SOPE  H18Z19540   1.446   6.057   8.820 -0.3703 -1.2190 -0.3317
  173SAPI   C1219541   4.215   2.237  10.598 -0.1710  0.1134 -0.1011
  173SAPI    H219542   4.135   2.296  10.548  0.0387 -0.4514 -1.1398
  173SAPI    O219543   4.245   2.122  10.525 -0.1092 -0.5871 -0.4243
  173SAPI   HO219544   4.281   2.153  10.442  0.4941  0.5071  0.2376
  173SAPI   C1319545   4.330   2.332  10.604 -0.3773 -0.4704 -0.0253
  173SAPI    H319546   4.310   2.418  10.671  3.1729 -0.9976  1.9864
  173SAPI    O319547   4.366   2.369  10.474  0.4513  0.1185 -0.1639
  173SAPI   HO319548   4.439   2.431  10.475  0.1493  0.4871  0.7922
  173SAPI   C1419549   4.445   2.260  10.676  0.1397  0.8712 -1.0323
  173SAPI    H419550   4.465   2.166  10.620 -1.3037  1.1504 -2.0642
  173SAPI    O419551   4.567   2.332  10.681  0.4351  0.0080  0.2209
  173SAPI   HO419552   4.612   2.336  10.596  0.4773  2.3300  0.2756
  173SAPI   C1519553   4.390   2.218  10.810  0.9140  0.2330 -0.3654
  173SAPI    H519554   4.356   2.309  10.863 -1.2698 -0.2025 -0.9071
  173SAPI    O519555   4.502   2.170  10.886 -0.0219  0.9454 -0.0288
  173SAPI   HO519556   4.519   2.245  10.943  0.5565 -1.5837  3.4337
  173SAPI   C1619557   4.269   2.122  10.810  0.0142 -0.0405  0.1423
  173SAPI    H619558   4.281   2.025  10.757 -0.4741 -0.6729  1.1598
  173SAPI    O619559   4.234   2.104  10.939  0.3445 -0.3869  0.4963
  173SAPI   HO619560   4.138   2.107  10.933  0.1949 -1.5346  1.8619
  173SAPI   C1119561   4.160   2.196  10.735 -0.1279  0.1525 -0.2513
  173SAPI    H119562   4.145   2.284  10.800 -0.7871 -0.3399  0.2786
  173SAPI     P19563   3.895   2.174  10.709 -0.4018 -0.2420 -0.0793
  173SAPI   O1319564   3.885   2.284  10.805  0.0137 -0.3242 -0.0879
  173SAPI   O1419565   3.800   2.061  10.719  0.2871  0.3690  0.1882
  173SAPI   O1219566   4.044   2.113  10.733  0.3824  0.2211  0.1624
  173SAPI   O1119567   3.894   2.217  10.557 -0.5780 -0.2168 -0.3462
  173SAPI    C119568   3.844   2.348  10.511 -0.4052  0.5379  0.3285
  173SAPI    HA19569   3.749   2.387  10.553 -2.0060 -0.1723 -2.3849
  173SAPI    HB19570   3.919   2.424  10.541 -0.4020  0.9352 -0.6555
  173SAPI    C219571   3.831   2.349  10.355  0.6235  0.4136  0.3584
  173SAPI    HS19572   3.783   2.259  10.312 -1.3473  2.0006 -0.9880
  173SAPI   O2119573   3.963   2.367  10.301  0.4234  0.4181 -0.1729
  173SAPI   C2119574   4.031   2.255  10.274 -0.4542 -0.0811  0.1748
  173SAPI   O2219575   3.997   2.144  10.291 -0.2970  0.2340  0.0108
  173SAPI   C2219576   4.162   2.288  10.197  0.6712  0.6669  0.8593
  173SAPI   H2R19577   4.137   2.364  10.120 -2.4973  1.2338  2.2813
  173SAPI   H2S19578   4.227   2.333  10.275  1.9363  0.8680 -0.2754
  173SAPI    C319579   3.736   2.472  10.315  0.2608 -0.0283  0.5639
  173SAPI    HX19580   3.766   2.556  10.381  0.1441  0.4668  0.0072
  173SAPI    HY19581   3.630   2.447  10.337  0.3879  0.2078  1.4726
  173SAPI   O3119582   3.768   2.503  10.171 -0.0418  0.2450 -0.2222
  173SAPI   C3119583   3.816   2.620  10.147  0.7997 -0.2440  0.0285
  173SAPI   O3219584   3.808   2.715  10.221 -0.0136  0.2469 -0.2342
  173SAPI   C3219585   3.885   2.608  10.011  0.4508  0.2321 -0.4613
  173SAPI   H2X19586   3.993   2.631  10.023  0.5349 -0.9019  1.3219
  173SAPI   H2Y19587   3.848   2.685   9.940  0.7739 -1.6267 -2.7369
  173SAPI   C2319588   4.223   2.158  10.131  0.1219  0.5015 -0.0790
  173SAPI   H3R19589   4.154   2.123  10.052  1.9160  1.2192 -2.0645
  173SAPI   H3S19590   4.244   2.071  10.196  0.7522  0.9674  0.3610
  173SAPI   C2419591   4.351   2.198  10.057  0.3664  0.1981 -0.7108
  173SAPI   H4R19592   4.399   2.111  10.007 -0.3133 -0.8522  0.3972
  173SAPI   H4S19593   4.426   2.227  10.134 -0.5438  0.5154  0.0820
  173SAPI   C2519594   4.346   2.319   9.969  0.5045  0.6227  0.1267
  173SAPI   H5R19595   4.319   2.415  10.013 -0.1716  1.9034 -2.8499
  173SAPI   C2619596   4.377   2.316   9.838  0.4041 -0.4191 -0.3329
  173SAPI   H6R19597   4.371   2.409   9.779 -0.7510  0.6797  1.4270
  173SAPI   C2719598   4.424   2.203   9.756 -0.1607  0.2363 -0.2207
  173SAPI   H7R19599   4.376   2.111   9.796 -0.1327  0.4221  0.2497
  173SAPI   H7S19600   4.532   2.188   9.777 -0.0766  0.2095 -0.6592
  173SAPI   C2819601   4.387   2.210   9.607 -0.1397 -0.3629 -0.0826
  173SAPI   H8R19602   4.279   2.205   9.591 -0.4186  2.3006  0.5347
  173SAPI   C2919603   4.471   2.225   9.502  0.2375  0.3016 -0.4327
  173SAPI   H9R19604   4.424   2.216   9.403 -0.7869 -0.4865  0.1104
  173SAPI  C21019605   4.618   2.242   9.511 -0.2291  0.5232  0.0818
  173SAPI  H10R19606   4.644   2.272   9.615  0.1114  1.5517 -0.2797
  173SAPI  H10S19607   4.649   2.313   9.431 -1.0178 -0.0575 -0.7528
  173SAPI  C21119608   4.670   2.100   9.476  0.4458 -0.1880 -0.0988
  173SAPI  H11R19609   4.623   2.060   9.385 -2.5596 -1.2667  1.7802
  173SAPI  C21219610   4.738   2.021   9.560 -0.6317  0.2525 -0.2563
  173SAPI  H12R19611   4.779   1.923   9.532  0.6858  1.0638 -1.2508
  173SAPI  C21319612   4.786   2.059   9.699 -0.3519 -0.0702 -0.0529
  173SAPI  H13R19613   4.707   2.046   9.776  0.3835  0.9923  0.9033
  173SAPI  H13S19614   4.807   2.168   9.705 -1.9204  0.2536 -0.0934
  173SAPI  C21419615   4.911   1.978   9.739  0.2326  0.1032  0.0896
  173SAPI  H14R19616   4.997   1.998   9.672  1.3988 -0.0445  1.4934
  173SAPI  C21519617   4.916   1.867   9.814  0.3367  0.5698 -0.2634
  173SAPI  H15R19618   5.015   1.820   9.809  0.4586  0.9571 -3.3133
  173SAPI  C21619619   4.807   1.794   9.893  0.4863  0.1207  0.6048
  173SAPI  H16R19620   4.814   1.685   9.874 -0.7418  0.3241 -1.3144
  173SAPI  H16S19621   4.709   1.820   9.848  1.1657 -1.6063 -2.0775
  173SAPI  C21719622   4.791   1.815  10.043 -0.7089  0.4189 -0.1585
  173SAPI  H17R19623   4.886   1.806  10.099 -0.9918 -0.5916  0.1820
  173SAPI  H17S19624   4.729   1.731  10.081 -2.4950  1.3415 -0.9371
  173SAPI  C21819625   4.717   1.942  10.088 -0.0839  0.0589  0.5917
  173SAPI  H18R19626   4.650   1.982  10.008 -0.8381 -0.6235  0.8695
  173SAPI  H18S19627   4.804   2.008  10.108  1.8617 -1.5103 -1.9748
  173SAPI  C21919628   4.620   1.922  10.211  0.1703  0.3261 -0.6269
  173SAPI  H19R19629   4.602   2.022  10.256 -1.6415  0.3926 -1.4022
  173SAPI  H19S19630   4.676   1.860  10.284 -2.6554 -1.1345  0.4578
  173SAPI  C22019631   4.481   1.855  10.176  0.1704 -0.0732 -0.1095
  173SAPI  H20R19632   4.424   1.820  10.265  1.6533 -1.9950  0.1682
  173SAPI  H20S19633   4.488   1.756  10.126 -0.6990 -0.5509  0.6797
  173SAPI  H20T19634   4.418   1.917  10.109  1.9423 -0.7188 -2.5066
  173SAPI   C3319635   3.865   2.469   9.937  0.0339  0.1837  0.3127
  173SAPI   H3X19636   3.756   2.453   9.926 -0.1729  0.7471  1.4575
  173SAPI   H3Y19637   3.923   2.390   9.989  0.9374  1.1282  0.7546
  173SAPI   C3419638   3.913   2.478   9.789  1.1460 -0.2482  0.1264
  173SAPI   H4X19639   3.891   2.584   9.762 -0.4518 -0.1638  1.6205
  173SAPI   H4Y19640   3.848   2.425   9.716  0.4092  3.1854 -1.9386
  173SAPI   C3519641   4.066   2.464   9.760 -0.0579  0.3624 -0.3412
  173SAPI   H5X19642   4.102   2.359   9.765 -0.0405  0.2289 -2.2549
  173SAPI   H5Y19643   4.115   2.538   9.826 -0.1984  0.0911  0.0678
  173SAPI   C3619644   4.093   2.505   9.615  0.1789  0.2508 -0.2410
  173SAPI   H6X19645   4.203   2.493   9.605  0.1658  0.7087 -1.0461
  173SAPI   H6Y19646   4.085   2.614   9.591  0.7479  0.3504  0.0073
  173SAPI   C3719647   4.032   2.413   9.502 -0.4600 -0.2066 -1.1001
  173SAPI   H7X19648   3.922   2.426   9.506 -0.1910  3.3573 -1.9353
  173SAPI   H7Y19649   4.057   2.308   9.530 -0.0313 -0.0604 -0.9273
  173SAPI   C3819650   4.082   2.462   9.359 -0.0222 -0.1808  0.0966
  173SAPI   H8X19651   4.193   2.463   9.356  0.2235 -0.5692  3.8912
  173SAPI   H8Y19652   4.059   2.571   9.358  0.6512 -0.0280  0.5687
  173SAPI   C3919653   4.036   2.379   9.242  0.2153  0.1714  1.0122
  173SAPI   H9X19654   3.925   2.376   9.239  0.1977  1.1866  0.3625
  173SAPI   H9Y19655   4.066   2.272   9.249 -1.4363 -0.3944 -0.0009
  173SAPI  C31019656   4.086   2.425   9.103  0.5565  0.2531 -0.7968
  173SAPI  H10X19657   4.028   2.372   9.025 -1.4752  1.7798 -0.3806
  173SAPI  H10Y19658   4.196   2.404   9.107  0.1035 -2.3886  1.1753
  173SAPI  C31119659   4.055   2.574   9.071  0.3366 -0.6850  0.1214
  173SAPI  H11X19660   4.094   2.641   9.151 -0.3008  1.3328 -1.1674
  173SAPI  H11Y19661   3.945   2.576   9.084 -0.6219  0.0927 -5.5250
  173SAPI  C31219662   4.098   2.628   8.935 -0.4872  0.6604  0.6615
  173SAPI  H12X19663   4.044   2.725   8.930 -0.0229  1.0144  2.1354
  173SAPI  H12Y19664   4.049   2.583   8.846 -2.3903  1.4310  1.2671
  173SAPI  C31319665   4.249   2.630   8.899  0.2928  0.7796 -0.3603
  173SAPI  H13X19666   4.269   2.521   8.892 -3.3816 -0.1244  0.7713
  173SAPI  H13Y19667   4.311   2.688   8.970  0.7897  0.9091 -0.8934
  173SAPI  C31419668   4.273   2.704   8.767  0.3000  0.2826 -0.4078
  173SAPI  H14X19669   4.226   2.804   8.777 -1.4977 -0.6399  1.3044
  173SAPI  H14Y19670   4.214   2.664   8.681  3.0637 -0.9935 -1.8294
  173SAPI  C31519671   4.418   2.710   8.719  0.5049  0.0419 -0.0494
  173SAPI  H15X19672   4.486   2.731   8.805  0.4890  0.8540 -0.2321
  173SAPI  H15Y19673   4.429   2.777   8.632  0.6644 -0.3878 -0.3646
  173SAPI  C31619674   4.457   2.575   8.652  0.1233 -0.4579 -0.5038
  173SAPI  H16X19675   4.375   2.546   8.584 -0.7063  2.6832 -0.9927
  173SAPI  H16Y19676   4.442   2.496   8.730 -2.0024  1.0158  0.6871
  173SAPI  C31719677   4.605   2.567   8.610 -0.0512  0.1875  0.6555
  173SAPI  H17X19678   4.673   2.616   8.682  0.6096 -0.9584  0.8385
  173SAPI  H17Y19679   4.621   2.628   8.518 -1.0054  1.9486  1.5963
  173SAPI  C31819680   4.634   2.422   8.576 -0.3578 -0.2316 -0.0115
  173SAPI  H18X19681   4.616   2.362   8.668  1.6946 -0.6303  0.1750
  173SAPI  H18Y19682   4.741   2.406   8.553  0.0743 -0.4324  1.9525
  173SAPI  H18Z19683   4.565   2.389   8.495  0.0391  0.3957 -0.6099
  174SAPI   C1219684   1.368   3.762  10.812  0.2105 -0.3408 -0.2879
  174SAPI    H219685   1.454   3.700  10.843  0.4433 -0.8881 -1.9329
  174SAPI    O219686   1.402   3.795  10.676  0.6240  0.0278  0.3064
  174SAPI   HO219687   1.493   3.824  10.686  0.4537  0.0894  1.8421
  174SAPI   C1319688   1.229   3.685  10.819 -0.3362  0.8019 -0.0740
  174SAPI    H319689   1.222   3.659  10.927 -1.1970 -0.7354 -0.4682
  174SAPI    O319690   1.239   3.562  10.749 -0.0280 -0.4707  0.9451
  174SAPI   HO319691   1.195   3.579  10.666  0.3391  0.7275  0.9756
  174SAPI   C1419692   1.116   3.774  10.769  0.3362 -0.4862  0.0179
  174SAPI    H419693   1.138   3.811  10.667  0.6261 -0.5242  0.0641
  174SAPI    O419694   1.000   3.692  10.755 -0.1521  0.0685 -0.5840
  174SAPI   HO419695   0.997   3.665  10.662  1.5596  2.8691 -1.5635
  174SAPI   C1519696   1.109   3.898  10.856  0.8437  0.2664 -0.2085
  174SAPI    H519697   1.086   3.865  10.959 -1.2237 -0.1476 -0.7599
  174SAPI    O519698   1.004   3.976  10.804  0.2276  0.0840 -0.3393
  174SAPI   HO519699   1.034   4.000  10.716  0.0219 -0.2159 -0.4919
  174SAPI   C1619700   1.236   3.979  10.848 -0.1218  0.2672 -0.0087
  174SAPI    H619701   1.261   4.009  10.744  0.3499 -0.3350 -0.0764
  174SAPI    O619702   1.230   4.095  10.929  0.0662  0.5850 -0.2868
  174SAPI   HO619703   1.309   4.146  10.913  1.5128 -1.2686  0.5854
  174SAPI   C1119704   1.354   3.888  10.891 -0.1256  0.4693 -0.1924
  174SAPI    H119705   1.344   3.855  10.997  0.9566 -1.8839 -0.7506
  174SAPI     P19706   1.636   3.924  10.901  0.4398 -0.0726 -0.0238
  174SAPI   O1319707   1.630   3.800  10.983  0.4485  0.5883  0.0514
  174SAPI   O1419708   1.721   4.036  10.944  0.5507 -0.3954 -0.2015
  174SAPI   O1219709   1.475   3.975  10.888  0.1627  0.3471 -0.0802
  174SAPI   O1119710   1.684   3.885  10.746  0.0518  0.0578 -0.3657
  174SAPI    C119711   1.720   3.987  10.652  0.2352 -0.4987  0.2220
  174SAPI    HA19712   1.781   4.066  10.701  1.0116 -1.2033  0.4095
  174SAPI    HB19713   1.792   3.950  10.577 -0.2015  0.4931 -0.7081
  174SAPI    C219714   1.605   4.050  10.578  0.6923  0.0703 -0.1453
  174SAPI    HS19715   1.522   4.088  10.641 -0.5055 -1.1891 -0.9289
  174SAPI   O2119716   1.562   3.951  10.485 -0.3864 -0.1058 -0.0559
  174SAPI   C2119717   1.450   3.970  10.432  0.2180  0.0737 -0.2562
  174SAPI   O2219718   1.366   4.049  10.477 -0.1893 -0.1563  0.0668
  174SAPI   C2219719   1.427   3.878  10.311  0.8584 -0.2626 -0.7581
  174SAPI   H2R19720   1.512   3.880  10.240  1.4029 -0.0604 -0.1141
  174SAPI   H2S19721   1.429   3.775  10.351 -0.9882  0.2852  0.8713
  174SAPI    C319722   1.657   4.175  10.506  0.1197 -0.7731  0.9984
  174SAPI    HX19723   1.761   4.164  10.470 -1.0084 -1.9473 -2.2087
  174SAPI    HY19724   1.669   4.256  10.581 -0.6875 -0.3724  0.7093
  174SAPI   O3119725   1.575   4.224  10.400 -0.0262 -0.1712  0.4648
  174SAPI   C3119726   1.490   4.320  10.414 -0.1067 -0.8766 -0.3651
  174SAPI   O3219727   1.481   4.390  10.517 -0.1502  0.0769 -0.3817
  174SAPI   C3219728   1.383   4.324  10.301  0.9194  0.2771 -0.1231
  174SAPI   H2X19729   1.283   4.279  10.322  0.5368  0.6557 -1.0910
  174SAPI   H2Y19730   1.425   4.287  10.206  0.8774  0.0915 -0.0700
  174SAPI   C2319731   1.280   3.894  10.248  0.1828  0.0971 -0.1891
  174SAPI   H3R19732   1.208   3.914  10.330 -0.9099 -0.9706 -0.8461
  174SAPI   H3S19733   1.244   3.800  10.202 -0.2550  0.5268 -0.7515
  174SAPI   C2419734   1.272   4.005  10.138 -0.7210  0.3405  0.7389
  174SAPI   H4R19735   1.318   4.104  10.158 -1.9009  1.5712 -2.0851
  174SAPI   H4S19736   1.166   4.022  10.109 -0.2921 -1.9450 -2.9438
  174SAPI   C2519737   1.344   3.951  10.019  0.3658  0.2254  0.2650
  174SAPI   H5R19738   1.453   3.938  10.033  0.3989  0.4462  0.2251
  174SAPI   C2619739   1.296   3.927   9.896  0.1061  0.6399  0.9559
  174SAPI   H6R19740   1.377   3.911   9.823 -0.6783 -3.1891  0.7147
  174SAPI   C2719741   1.153   3.945   9.832  0.2914 -0.5901 -0.5085
  174SAPI   H7R19742   1.154   4.032   9.763 -1.1178 -0.4686 -0.3942
  174SAPI   H7S19743   1.070   3.973   9.900 -0.2974 -0.6278 -1.2026
  174SAPI   C2819744   1.122   3.819   9.755 -0.3341 -0.2399  0.9450
  174SAPI   H8R19745   1.090   3.737   9.820 -0.4823 -0.2001  0.9227
  174SAPI   C2919746   1.135   3.800   9.620 -0.3172 -0.3517  0.2101
  174SAPI   H9R19747   1.116   3.702   9.573 -1.3680 -0.9076  1.6980
  174SAPI  C21019748   1.182   3.902   9.521 -0.3503 -0.1115  0.2035
  174SAPI  H10R19749   1.263   3.873   9.451 -0.8246  3.2738 -1.9862
  174SAPI  H10S19750   1.234   3.987   9.569  0.9134 -0.8390  0.1415
  174SAPI  C21119751   1.060   3.956   9.456 -0.0436  0.4432  0.5983
  174SAPI  H11R19752   0.996   4.022   9.517 -0.8681  2.1792 -1.9669
  174SAPI  C21219753   1.010   3.917   9.337 -0.2112 -0.6194  0.8082
  174SAPI  H12R19754   0.914   3.961   9.306 -1.4453 -4.2549 -1.0900
  174SAPI  C21319755   1.064   3.826   9.233 -0.4924  0.1008 -0.1002
  174SAPI  H13R19756   0.985   3.778   9.172  2.1137 -1.6282 -2.3886
  174SAPI  H13S19757   1.116   3.734   9.269 -1.1365 -1.2455 -2.3666
  174SAPI  C21419758   1.163   3.902   9.150 -0.1133 -0.6023  0.2494
  174SAPI  H14R19759   1.241   3.966   9.194 -0.1865 -0.5964  0.3724
  174SAPI  C21519760   1.164   3.900   9.017 -0.7948 -0.0523 -0.2099
  174SAPI  H15R19761   1.243   3.949   8.957  0.3575 -0.2312  1.1181
  174SAPI  C21619762   1.058   3.829   8.934  0.0872  0.6922 -0.2518
  174SAPI  H16R19763   1.025   3.726   8.957 -1.2284  1.2151  0.2799
  174SAPI  H16S19764   1.103   3.821   8.833  1.2224  0.6917  0.2392
  174SAPI  C21719765   0.942   3.932   8.929 -0.6919 -0.1571  0.0738
  174SAPI  H17R19766   0.965   4.029   8.881  0.3809  0.1969  1.2478
  174SAPI  H17S19767   0.909   3.950   9.033  1.9612 -1.6301  1.2881
  174SAPI  C21819768   0.838   3.864   8.841 -0.3034 -0.6626  0.1213
  174SAPI  H18R19769   0.738   3.912   8.850 -0.2970 -0.5172 -0.5217
  174SAPI  H18S19770   0.838   3.765   8.891 -0.9506  0.1916  1.9032
  174SAPI  C21919771   0.865   3.851   8.688  0.2998  0.3497 -0.2161
  174SAPI  H19R19772   0.773   3.799   8.652  0.3014  1.2766 -1.6651
  174SAPI  H19S19773   0.945   3.776   8.673  0.8012  0.6454  0.9278
  174SAPI  C22019774   0.884   3.976   8.599 -0.9642 -0.5327 -0.5821
  174SAPI  H20R19775   0.988   4.012   8.618 -1.4106  0.2566  0.5355
  174SAPI  H20S19776   0.817   4.061   8.625 -1.7864 -1.4495  0.4075
  174SAPI  H20T19777   0.870   3.940   8.495  2.3528 -0.2463 -1.2354
  174SAPI   C3319778   1.352   4.474  10.259 -0.2926  0.2630 -0.4044
  174SAPI   H3X19779   1.456   4.509  10.240  0.2760 -0.9631  0.3196
  174SAPI   H3Y19780   1.314   4.519  10.353 -1.4499 -0.1543 -0.6608
  174SAPI   C3419781   1.249   4.494  10.144  0.6646 -0.4979 -0.9163
  174SAPI   H4X19782   1.229   4.601  10.119  1.5249 -0.3906 -1.2044
  174SAPI   H4Y19783   1.154   4.449  10.179  0.9399 -0.5790 -0.2575
  174SAPI   C3519784   1.286   4.432  10.009  0.3775 -0.2583  0.5155
  174SAPI   H5X19785   1.309   4.323  10.011  0.0073 -0.3275  2.3851
  174SAPI   H5Y19786   1.381   4.475   9.972  1.1681 -2.3861 -0.0766
  174SAPI   C3619787   1.176   4.470   9.897  0.6440 -0.1908 -0.0452
  174SAPI   H6X19788   1.165   4.580   9.887 -1.0393 -0.5358 -4.5404
  174SAPI   H6Y19789   1.083   4.419   9.930  1.0561 -1.3269 -0.5710
  174SAPI   C3719790   1.221   4.400   9.763 -0.4660  0.5238  0.3694
  174SAPI   H7X19791   1.216   4.289   9.769 -0.1245  0.5635  1.5569
  174SAPI   H7Y19792   1.322   4.441   9.743 -0.1336  0.3918  1.6917
  174SAPI   C3819793   1.139   4.460   9.651 -0.0048 -0.6801 -0.1242
  174SAPI   H8X19794   1.153   4.569   9.665 -0.1115 -0.6964  0.1022
  174SAPI   H8Y19795   1.036   4.420   9.666  0.2695 -0.7719  1.6106
  174SAPI   C3919796   1.186   4.408   9.522 -0.2913 -0.0735  0.3524
  174SAPI   H9X19797   1.171   4.298   9.531 -0.6464  0.0792  1.8970
  174SAPI   H9Y19798   1.292   4.428   9.497 -0.5680 -0.9144 -1.8082
  174SAPI  C31019799   1.106   4.452   9.393 -0.7726 -0.1145 -0.1327
  174SAPI  H10X19800   1.136   4.555   9.366  1.8627 -0.7939 -0.0959
  174SAPI  H10Y19801   1.000   4.445   9.425 -1.3264  2.2916 -1.2014
  174SAPI  C31119802   1.138   4.361   9.269 -0.1782  0.2628 -0.1796
  174SAPI  H11X19803   1.112   4.254   9.283 -1.7210  0.4775 -1.1979
  174SAPI  H11Y19804   1.245   4.361   9.239 -0.2230  0.2511 -0.3376
  174SAPI  C31219805   1.065   4.412   9.144 -0.2596  0.2699 -0.2433
  174SAPI  H12X19806   1.088   4.520   9.126  1.3260 -0.1460 -0.8648
  174SAPI  H12Y19807   0.956   4.401   9.163  0.1343  1.4669  3.3626
  174SAPI  C31319808   1.106   4.339   9.021 -0.0585 -0.8642  0.1803
  174SAPI  H13X19809   1.099   4.228   9.028  2.5175 -1.2539 -2.0324
  174SAPI  H13Y19810   1.213   4.367   9.012 -0.1443 -0.6980 -0.3776
  174SAPI  C31419811   1.033   4.392   8.891 -0.1901 -0.2857 -0.5234
  174SAPI  H14X19812   1.031   4.503   8.897 -1.6546 -0.3384  0.4917
  174SAPI  H14Y19813   0.924   4.369   8.885 -0.0533 -0.9160 -0.6525
  174SAPI  C31519814   1.107   4.341   8.768 -0.1716 -0.6148  0.2035
  174SAPI  H15X19815   1.076   4.236   8.751 -0.7064 -0.4551  0.1702
  174SAPI  H15Y19816   1.218   4.347   8.772 -0.0367  0.9551 -2.8280
  174SAPI  C31619817   1.056   4.422   8.645  0.1009 -0.6120  0.9991
  174SAPI  H16X19818   1.094   4.526   8.642 -0.4763 -0.3965  1.0817
  174SAPI  H16Y19819   0.946   4.415   8.635  0.1692  0.2586 -0.7407
  174SAPI  C31719820   1.116   4.373   8.509  0.3849  0.2205 -0.3071
  174SAPI  H17X19821   1.077   4.270   8.488  2.5746 -0.6126 -0.5031
  174SAPI  H17Y19822   1.227   4.375   8.509  0.3722  2.0464 -0.0673
  174SAPI  C31819823   1.094   4.453   8.388 -0.0460 -0.1245 -0.3087
  174SAPI  H18X19824   0.985   4.462   8.367 -0.3289  0.9523  1.4658
  174SAPI  H18Y19825   1.158   4.412   8.307 -1.1238  1.0691 -1.8266
  174SAPI  H18Z19826   1.129   4.557   8.405  1.4398 -0.2711 -2.1156
  175SAPI   C1219827   4.392   3.662   6.072 -0.6974 -0.1651  0.0890
  175SAPI    H219828   4.285   3.690   6.081 -0.5466  0.1207  1.0830
  175SAPI    O219829   4.416   3.580   5.955 -0.5156 -0.0431 -0.1854
  175SAPI   HO219830   4.363   3.500   5.959  0.7101 -0.8636  0.4110
  175SAPI   C1319831   4.477   3.786   6.068  0.0034 -0.2470 -0.3039
  175SAPI    H319832   4.450   3.834   6.164  0.3119 -0.3464 -0.1669
  175SAPI    O319833   4.438   3.858   5.954  0.2543  0.0733  0.2620
  175SAPI   HO319834   4.439   3.798   5.879  1.5591 -1.0465  1.1215
  175SAPI   C1419835   4.632   3.764   6.083  0.2648  0.4243 -0.1205
  175SAPI    H419836   4.668   3.708   5.993  0.7005  0.5717 -0.0377
  175SAPI    O419837   4.697   3.891   6.078 -0.4643 -0.1586 -0.1287
  175SAPI   HO419838   4.680   3.948   6.154 -1.2637  0.2190 -0.5702
  175SAPI   C1519839   4.666   3.677   6.204  0.7410  0.3348  0.4044
  175SAPI    H519840   4.638   3.730   6.297  0.5177  1.1049 -0.0973
  175SAPI    O519841   4.807   3.648   6.214 -0.1376  0.7325  0.0329
  175SAPI   HO519842   4.839   3.697   6.291 -2.2069  1.3629  0.5535
  175SAPI   C1619843   4.577   3.554   6.196 -0.5502 -0.6081  0.7938
  175SAPI    H619844   4.597   3.496   6.104  1.0591  2.2091 -0.7592
  175SAPI    O619845   4.620   3.474   6.298 -0.4003  0.7359 -0.1407
  175SAPI   HO619846   4.586   3.510   6.381 -0.1955  2.8126 -0.9026
  175SAPI   C1119847   4.433   3.586   6.202 -0.1401  0.0920 -0.0098
  175SAPI    H119848   4.410   3.658   6.283  3.3786 -0.2804  1.5108
  175SAPI     P19849   4.207   3.466   6.291 -0.1683 -0.3582  0.2309
  175SAPI   O1319850   4.140   3.332   6.261  0.3187 -0.3655 -0.1762
  175SAPI   O1419851   4.128   3.592   6.272 -0.3719  0.0261 -0.0414
  175SAPI   O1219852   4.351   3.476   6.210  0.3333 -0.0631  0.2149
  175SAPI   O1119853   4.243   3.452   6.442  0.4846  0.0342  0.7970
  175SAPI    C119854   4.357   3.397   6.502 -0.9773  0.3981 -0.2864
  175SAPI    HA19855   4.413   3.344   6.421 -1.2925  0.6773 -0.6877
  175SAPI    HB19856   4.426   3.472   6.546 -0.7103 -0.4734  0.8572
  175SAPI    C219857   4.328   3.307   6.625 -0.3739 -0.1272 -0.1202
  175SAPI    HS19858   4.248   3.234   6.602  0.0478 -0.8951  0.7881
  175SAPI   O2119859   4.291   3.380   6.743 -1.0964 -0.5606 -0.0935
  175SAPI   C2119860   4.175   3.440   6.749  0.1022 -0.7090 -0.2839
  175SAPI   O2219861   4.079   3.422   6.675 -0.5992 -0.1218 -0.3231
  175SAPI   C2219862   4.176   3.536   6.872  0.1962  0.2615 -0.2111
  175SAPI   H2R19863   4.245   3.616   6.836  0.6762 -0.2021 -0.3338
  175SAPI   H2S19864   4.077   3.586   6.880 -0.0888 -0.5928  2.3015
  175SAPI    C319865   4.455   3.221   6.663  0.2087 -0.5160  0.0036
  175SAPI    HX19866   4.544   3.284   6.643 -2.4092  3.8493  0.6204
  175SAPI    HY19867   4.464   3.136   6.593  0.2891  0.9666 -1.8726
  175SAPI   O3119868   4.462   3.171   6.804 -0.1063  0.6384 -0.1124
  175SAPI   C3119869   4.363   3.077   6.837  0.2416 -0.1870  0.0237
  175SAPI   O3219870   4.285   3.032   6.751 -1.0611  0.1587  0.1287
  175SAPI   C3219871   4.377   3.042   6.990 -0.2660  0.7671  0.5562
  175SAPI   H2X19872   4.462   3.092   7.041  1.1061 -1.0499  0.1540
  175SAPI   H2Y19873   4.398   2.933   6.998 -0.6936  0.5636 -0.8513
  175SAPI   C2319874   4.229   3.478   7.007 -0.3428 -0.2432 -0.1209
  175SAPI   H3R19875   4.304   3.540   7.060  0.2238 -1.9144  1.1497
  175SAPI   H3S19876   4.280   3.383   6.981 -1.5508 -1.0102  0.2161
  175SAPI   C2419877   4.109   3.434   7.107 -0.3053  0.0348 -0.2552
  175SAPI   H4R19878   4.143   3.346   7.166  1.2960 -0.4910 -1.8736
  175SAPI   H4S19879   4.025   3.398   7.044 -0.8154  0.1262  0.3611
  175SAPI   C2519880   4.061   3.554   7.178 -0.6888 -0.5845  0.3468
  175SAPI   H5R19881   4.046   3.641   7.112  1.8752  0.0831  0.5422
  175SAPI   C2619882   4.028   3.547   7.309 -0.2530  0.3782 -0.0052
  175SAPI   H6R19883   3.983   3.639   7.348  0.6031  0.3831  1.0043
  175SAPI   C2719884   4.025   3.434   7.405 -0.5545  0.2780  0.0740
  175SAPI   H7R19885   3.987   3.342   7.356 -2.1773  0.4929  0.8592
  175SAPI   H7S19886   3.951   3.451   7.486 -0.6829 -2.5403  0.6787
  175SAPI   C2819887   4.166   3.404   7.457  0.2980  0.3613  0.0961
  175SAPI   H8R19888   4.244   3.437   7.387 -0.4839  3.2316  0.4683
  175SAPI   C2919889   4.192   3.336   7.571  0.9311 -0.1012 -0.4159
  175SAPI   H9R19890   4.294   3.326   7.612  0.6389 -0.2734  0.2893
  175SAPI  C21019891   4.089   3.277   7.669 -0.1000 -0.1369 -0.1178
  175SAPI  H10R19892   3.987   3.278   7.625 -0.3200 -1.7915  0.2774
  175SAPI  H10S19893   4.092   3.353   7.750 -0.4340 -0.3027  0.0552
  175SAPI  C21119894   4.137   3.147   7.740  0.1258 -0.5194  0.9692
  175SAPI  H11R19895   4.245   3.127   7.746  0.4093  0.1117 -1.2670
  175SAPI  C21219896   4.051   3.066   7.800 -0.4227  0.5722  0.4144
  175SAPI  H12R19897   4.098   2.974   7.839  1.3972  0.9620 -0.7291
  175SAPI  C21319898   3.903   3.090   7.817 -0.1413  0.4355 -0.4197
  175SAPI  H13R19899   3.858   3.132   7.724 -0.8014 -0.1147 -0.3616
  175SAPI  H13S19900   3.881   3.155   7.904  1.4273  0.0073  0.3269
  175SAPI  C21419901   3.837   2.957   7.837  0.3219 -0.3708 -0.3143
  175SAPI  H14R19902   3.836   2.889   7.751  0.2095 -0.3620 -0.3197
  175SAPI  C21519903   3.765   2.926   7.947  0.2357  0.4135  0.2285
  175SAPI  H15R19904   3.728   2.822   7.940  0.6556  0.1956  1.1190
  175SAPI  C21619905   3.742   3.006   8.074  0.0964 -0.2676  0.8130
  175SAPI  H16R19906   3.649   3.064   8.054  0.4735 -0.2295 -0.9753
  175SAPI  H16S19907   3.824   3.081   8.086  0.8144 -1.1266  1.3656
  175SAPI  C21719908   3.722   2.932   8.211  0.8181 -0.3682  0.2883
  175SAPI  H17R19909   3.815   2.876   8.236  0.6231 -0.1802  1.5208
  175SAPI  H17S19910   3.632   2.868   8.207  0.6767 -0.1728  0.3551
  175SAPI  C21819911   3.676   3.038   8.318 -0.0982  0.9066  0.2131
  175SAPI  H18R19912   3.657   2.981   8.412  0.8821  2.1878  1.2179
  175SAPI  H18S19913   3.588   3.095   8.282 -0.9334 -0.5014 -0.0443
  175SAPI  C21919914   3.791   3.127   8.354 -0.9294 -0.9814  0.1105
  175SAPI  H19R19915   3.794   3.199   8.269  2.4012  0.1252  1.0207
  175SAPI  H19S19916   3.896   3.093   8.367  0.3659  2.4977 -0.0194
  175SAPI  C22019917   3.764   3.210   8.473  0.1279 -0.2371 -0.8251
  175SAPI  H20R19918   3.773   3.153   8.568  1.8630 -0.2037 -0.9415
  175SAPI  H20S19919   3.660   3.250   8.475 -0.4884 -1.8101  0.5898
  175SAPI  H20T19920   3.838   3.291   8.491  0.9114 -0.4474 -2.8218
  175SAPI   C3319921   4.237   3.070   7.055 -0.6409  0.0156 -0.0133
  175SAPI   H3X19922   4.171   3.002   6.997 -0.0914 -0.4938 -0.0512
  175SAPI   H3Y19923   4.201   3.175   7.055 -0.9844 -0.0920  0.8620
  175SAPI   C3419924   4.231   3.019   7.197  0.2689 -0.5523 -0.3039
  175SAPI   H4X19925   4.308   3.065   7.263  0.3551 -1.7685  0.4892
  175SAPI   H4Y19926   4.255   2.910   7.196 -0.4021 -0.7026 -0.6652
  175SAPI   C3519927   4.096   3.045   7.247 -0.1768 -0.4860 -0.0448
  175SAPI   H5X19928   4.030   3.002   7.169  0.3193 -0.0259 -0.7221
  175SAPI   H5Y19929   4.079   3.154   7.246  0.7812 -0.3266 -1.4389
  175SAPI   C3619930   4.080   2.992   7.391 -0.5947  0.6156  0.1468
  175SAPI   H6X19931   4.012   3.068   7.435 -0.0293  0.3257  1.5914
  175SAPI   H6Y19932   4.181   2.991   7.439  0.3368 -1.9238 -1.6935
  175SAPI   C3719933   4.015   2.858   7.384 -0.4809  0.9200  0.3959
  175SAPI   H7X19934   4.061   2.790   7.460  0.5973 -1.0753 -1.9188
  175SAPI   H7Y19935   4.053   2.803   7.296  0.3083 -1.0884  1.8966
  175SAPI   C3819936   3.863   2.851   7.385  0.9410  0.4599  0.2355
  175SAPI   H8X19937   3.819   2.939   7.333 -1.8236  1.2753  3.6160
  175SAPI   H8Y19938   3.834   2.871   7.490  2.2286 -0.6317  0.8321
  175SAPI   C3919939   3.809   2.720   7.320 -0.3682 -0.4330 -0.6872
  175SAPI   H9X19940   3.886   2.641   7.330 -1.1638 -1.2423 -0.8400
  175SAPI   H9Y19941   3.799   2.742   7.211 -0.0778  2.1862 -0.2605
  175SAPI  C31019942   3.675   2.664   7.378 -0.3491 -0.3526  0.6907
  175SAPI  H10X19943   3.631   2.575   7.328  2.6893 -1.0093 -1.1220
  175SAPI  H10Y19944   3.602   2.748   7.376 -0.9123 -0.7842  1.9362
  175SAPI  C31119945   3.681   2.631   7.526 -0.2773 -0.2458  0.6494
  175SAPI  H11X19946   3.710   2.715   7.593 -0.7817 -0.0978  0.6817
  175SAPI  H11Y19947   3.760   2.552   7.535 -1.7071 -1.7331  0.6102
  175SAPI  C31219948   3.549   2.567   7.579  0.6120  0.0011  0.1709
  175SAPI  H12X19949   3.530   2.472   7.524  1.2203  0.2889 -0.5577
  175SAPI  H12Y19950   3.471   2.643   7.558 -0.1985 -0.3066  1.9596
  175SAPI  C31319951   3.556   2.518   7.725 -0.3728  0.7444  0.1023
  175SAPI  H13X19952   3.653   2.482   7.765 -1.1745  0.3253  1.7620
  175SAPI  H13Y19953   3.497   2.425   7.730 -0.5075  0.9053  2.4139
  175SAPI  C31419954   3.486   2.620   7.812 -0.8774 -0.0702 -0.1896
  175SAPI  H14X19955   3.376   2.601   7.808 -0.6440 -1.8593  0.6180
  175SAPI  H14Y19956   3.487   2.729   7.789 -1.6205  0.4676  2.0783
  175SAPI  C31519957   3.540   2.598   7.950  0.0904 -0.4802 -0.1812
  175SAPI  H15X19958   3.647   2.624   7.961 -0.0293  0.8841 -1.7338
  175SAPI  H15Y19959   3.526   2.493   7.983 -0.4305 -0.2096  0.4819
  175SAPI  C31619960   3.468   2.697   8.044 -0.0806  0.1083 -0.1391
  175SAPI  H16X19961   3.364   2.697   8.004 -0.9981  1.1479  2.0591
  175SAPI  H16Y19962   3.511   2.799   8.037 -0.8183  0.3874 -0.6900
  175SAPI  C31719963   3.479   2.635   8.186  0.5049  0.0498 -0.7735
  175SAPI  H17X19964   3.585   2.633   8.218  0.3113 -0.2139 -0.1238
  175SAPI  H17Y19965   3.444   2.530   8.192  1.6921 -0.3616 -0.8029
  175SAPI  C31819966   3.398   2.728   8.275 -0.7597  0.1381  0.1501
  175SAPI  H18X19967   3.287   2.726   8.260 -1.2815  1.4710  3.1342
  175SAPI  H18Y19968   3.427   2.833   8.258 -0.7445 -0.0300 -0.9210
  175SAPI  H18Z19969   3.426   2.704   8.380 -0.1574  0.7088  0.1224
  176SAPI   C1219970   4.264   1.989   6.532  0.1937 -0.4310 -0.9412
  176SAPI    H219971   4.211   2.008   6.628  2.0511 -0.4574  0.1235
  176SAPI    O219972   4.181   2.057   6.439  0.3267  0.2766 -0.1905
  176SAPI   HO219973   4.091   2.052   6.473 -0.5493 -0.0012 -2.3765
  176SAPI   C1319974   4.389   2.063   6.540 -0.1971 -0.2990 -0.0476
  176SAPI    H319975   4.446   2.009   6.619 -0.3528 -1.7730 -0.9121
  176SAPI    O319976   4.383   2.200   6.587  0.2108  0.1904  0.3101
  176SAPI   HO319977   4.443   2.261   6.542  0.1686  0.2078  0.2772
  176SAPI   C1419978   4.474   2.050   6.408  0.3808  0.3280 -0.2328
  176SAPI    H419979   4.407   2.078   6.324 -0.5719 -0.8278  0.1108
  176SAPI    O419980   4.592   2.125   6.397  0.3599  0.9116  0.9979
  176SAPI   HO419981   4.648   2.111   6.474  1.5697  1.2786  0.2274
  176SAPI   C1519982   4.502   1.899   6.384  0.7014  0.0409 -0.5070
  176SAPI    H519983   4.574   1.866   6.462  0.7867 -0.6812 -0.8850
  176SAPI    O519984   4.576   1.885   6.269  0.0382  0.2650 -0.3550
  176SAPI   HO519985   4.643   1.818   6.288 -1.1246 -1.2829 -1.4027
  176SAPI   C1619986   4.365   1.819   6.384 -0.7397  0.2417  0.7584
  176SAPI    H619987   4.304   1.829   6.292  0.2246  0.0090  0.0885
  176SAPI    O619988   4.397   1.685   6.378 -0.4994 -0.3705 -0.2458
  176SAPI   HO619989   4.352   1.634   6.445 -0.7382 -0.6055 -0.5807
  176SAPI   C1119990   4.285   1.850   6.509 -0.8162  0.0469  0.2997
  176SAPI    H119991   4.339   1.820   6.601  0.6562  1.8402  0.0801
  176SAPI     P19992   4.127   1.644   6.580  0.1003  0.3229  0.0410
  176SAPI   O1319993   4.254   1.568   6.561  0.1833 -0.8436  0.4795
  176SAPI   O1419994   4.013   1.582   6.518 -0.2684 -0.3029  0.3291
  176SAPI   O1219995   4.151   1.787   6.506 -0.5317  0.5910  0.0919
  176SAPI   O1119996   4.106   1.689   6.731 -0.1643  0.1259 -0.4912
  176SAPI    C119997   3.970   1.740   6.765 -0.2978 -0.1856 -0.5473
  176SAPI    HA19998   3.917   1.789   6.680 -1.7969 -1.4164 -0.3670
  176SAPI    HB19999   3.909   1.651   6.790  1.3914 -0.5792  2.7453
  176SAPI    C220000   3.979   1.826   6.897  0.5150  0.5305  0.4692
  176SAPI    HS20001   4.042   1.913   6.870  1.8007 -0.0712  1.4350
  176SAPI   O2120002   4.046   1.750   7.004 -0.0357  0.2023 -0.0402
  176SAPI   C2120003   4.114   1.835   7.085 -0.1337  0.7360 -0.2537
  176SAPI   O2220004   4.082   1.952   7.094  0.4597 -0.4205 -0.0650
  176SAPI   C2220005   4.227   1.757   7.159  0.1435 -0.8510 -0.0395
  176SAPI   H2R20006   4.171   1.677   7.211  0.1243 -1.1042 -0.4471
  176SAPI   H2S20007   4.307   1.726   7.089  0.3081 -3.2274  1.1122
  176SAPI    C320008   3.843   1.871   6.943 -0.3054  0.6549 -0.2319
  176SAPI    HX20009   3.795   1.920   6.856 -0.5166  2.0371  0.6309
  176SAPI    HY20010   3.849   1.944   7.026  0.5857  0.2279  0.0904
  176SAPI   O3120011   3.771   1.756   6.986  0.0769  0.5507  0.1255
  176SAPI   C3120012   3.779   1.719   7.113  0.7593 -0.2097  0.1272
  176SAPI   O3220013   3.829   1.780   7.201  0.0744 -0.3008 -0.5403
  176SAPI   C3220014   3.701   1.589   7.134 -0.3669  0.2229 -0.8479
  176SAPI   H2X20015   3.611   1.574   7.071 -1.6486  1.9868  0.4760
  176SAPI   H2Y20016   3.665   1.592   7.239  0.7606 -1.8716 -0.3370
  176SAPI   C2320017   4.301   1.846   7.264  0.2582 -0.7031 -0.0814
  176SAPI   H3R20018   4.241   1.908   7.334  2.2670 -0.3691  1.4205
  176SAPI   H3S20019   4.352   1.924   7.203 -0.1345 -2.5519 -2.9369
  176SAPI   C2420020   4.396   1.764   7.349  0.3023 -0.3715  0.3013
  176SAPI   H4R20021   4.464   1.835   7.401 -1.8741  0.6150  1.9150
  176SAPI   H4S20022   4.456   1.700   7.279 -1.6319  0.8462 -2.6637
  176SAPI   C2520023   4.328   1.687   7.455  0.1067  0.3776  0.0642
  176SAPI   H5R20024   4.273   1.606   7.405  0.8611 -1.5057  2.1375
  176SAPI   C2620025   4.328   1.702   7.591 -0.4286  0.2899  0.1441
  176SAPI   H6R20026   4.301   1.615   7.652  0.1149  0.3572  0.4881
  176SAPI   C2720027   4.405   1.808   7.672 -0.2956 -0.2572  0.2596
  176SAPI   H7R20028   4.396   1.910   7.630  0.9083 -0.4571 -0.5416
  176SAPI   H7S20029   4.514   1.789   7.667 -0.1267  0.8396 -0.5832
  176SAPI   C2820030   4.367   1.804   7.820  0.0893  0.4217  0.2464
  176SAPI   H8R20031   4.290   1.880   7.842  0.8985  1.7272 -1.2630
  176SAPI   C2920032   4.410   1.718   7.916 -0.0864 -0.3799 -0.7708
  176SAPI   H9R20033   4.362   1.733   8.014 -0.7154 -1.1800 -0.9444
  176SAPI  C21020034   4.503   1.604   7.903 -0.0903 -0.1490 -0.5544
  176SAPI  H10R20035   4.571   1.615   7.990 -0.5671  1.2300 -0.3272
  176SAPI  H10S20036   4.564   1.622   7.812  1.8686  2.4499  1.1303
  176SAPI  C21120037   4.459   1.459   7.912  0.2470 -0.0858 -0.4871
  176SAPI  H11R20038   4.491   1.398   7.826 -0.4058  0.3220 -1.0328
  176SAPI  C21220039   4.397   1.393   8.013 -0.2622  0.5902  0.2099
  176SAPI  H12R20040   4.375   1.286   7.997 -2.3944  1.0991 -0.5987
  176SAPI  C21320041   4.359   1.450   8.150 -0.0230  0.2380 -0.4216
  176SAPI  H13R20042   4.251   1.432   8.163 -0.3113 -0.2380 -2.9298
  176SAPI  H13S20043   4.392   1.556   8.162  1.5709 -0.1914 -0.7565
  176SAPI  C21420044   4.440   1.381   8.253  0.0920  0.0162 -0.5049
  176SAPI  H14R20045   4.530   1.332   8.214  0.7860  1.0575 -0.2545
  176SAPI  C21520046   4.396   1.356   8.382 -0.3374 -0.1059  0.5024
  176SAPI  H15R20047   4.465   1.304   8.450 -0.6478  1.1555  1.8123
  176SAPI  C21620048   4.267   1.393   8.449  0.6905 -0.4401  0.4599
  176SAPI  H16R20049   4.209   1.304   8.481 -1.0865  1.2516  2.2049
  176SAPI  H16S20050   4.207   1.456   8.380  1.4316 -0.0693  0.1463
  176SAPI  C21720051   4.304   1.473   8.567 -0.2444  0.2561  0.2109
  176SAPI  H17R20052   4.379   1.550   8.539  0.1209 -1.2908 -3.7455
  176SAPI  H17S20053   4.348   1.405   8.643 -0.0629 -1.4104 -1.3245
  176SAPI  C21820054   4.182   1.532   8.640 -0.1937 -0.4970 -0.8988
  176SAPI  H18R20055   4.098   1.464   8.613 -1.5221  0.3474  0.9506
  176SAPI  H18S20056   4.170   1.635   8.600  0.7770  0.5534  1.3298
  176SAPI  C21920057   4.205   1.537   8.795 -0.3782 -0.1928 -0.4233
  176SAPI  H19R20058   4.295   1.597   8.819 -0.3378 -0.0869 -0.8240
  176SAPI  H19S20059   4.225   1.439   8.845 -1.4961  0.7376  1.9794
  176SAPI  C22020060   4.093   1.615   8.864 -0.3579 -0.2507  0.0015
  176SAPI  H20R20061   4.098   1.625   8.975 -0.6075  0.2728 -0.0294
  176SAPI  H20S20062   3.997   1.563   8.844 -0.7133  0.0962  0.7423
  176SAPI  H20T20063   4.089   1.712   8.811  2.3674 -0.0670 -0.0192
  176SAPI   C3320064   3.795   1.469   7.118 -0.7556 -0.2191  0.1134
  176SAPI   H3X20065   3.847   1.482   7.020 -0.8898 -2.0915 -0.2472
  176SAPI   H3Y20066   3.736   1.377   7.102  0.3026 -0.8417 -0.2959
  176SAPI   C3420067   3.905   1.449   7.227 -0.1060 -0.4017 -0.0423
  176SAPI   H4X20068   3.862   1.419   7.325  2.1605 -2.7402  0.3431
  176SAPI   H4Y20069   3.973   1.536   7.236 -1.7731  0.9967 -0.4006
  176SAPI   C3520070   3.999   1.337   7.202 -0.3466 -0.2329  0.0334
  176SAPI   H5X20071   4.032   1.346   7.096 -3.6084 -1.2988 -1.1909
  176SAPI   H5Y20072   3.941   1.242   7.200 -0.0034 -0.4681 -2.6557
  176SAPI   C3620073   4.126   1.358   7.286  0.3297 -0.1779  0.4827
  176SAPI   H6X20074   4.099   1.383   7.392 -1.7687  0.6826 -0.2007
  176SAPI   H6Y20075   4.188   1.445   7.256  2.2864 -0.9827  1.9625
  176SAPI   C3720076   4.217   1.240   7.292 -0.5850 -0.4686  0.4747
  176SAPI   H7X20077   4.317   1.276   7.324 -0.9793  0.4432  0.7127
  176SAPI   H7Y20078   4.243   1.201   7.192  0.0048 -0.1595  0.5050
  176SAPI   C3820079   4.172   1.119   7.373 -0.1460  0.0708  0.7798
  176SAPI   H8X20080   4.241   1.032   7.365 -1.4214 -0.8497 -0.9060
  176SAPI   H8Y20081   4.078   1.079   7.329 -0.0641  1.2332 -0.4997
  176SAPI   C3920082   4.149   1.142   7.525  0.1315 -0.3339  0.5768
  176SAPI   H9X20083   4.046   1.184   7.531  1.0980  2.8602 -2.3578
  176SAPI   H9Y20084   4.220   1.216   7.567  1.8231  0.7884 -3.7710
  176SAPI  C31020085   4.159   1.014   7.607 -0.2816 -0.2491 -0.5730
  176SAPI  H10X20086   4.255   0.968   7.576  0.2204 -0.2849  0.9486
  176SAPI  H10Y20087   4.070   0.949   7.592  0.1269 -1.3867  1.4701
  176SAPI  C31120088   4.186   1.046   7.767 -0.3300 -0.0309 -0.3430
  176SAPI  H11X20089   4.274   1.114   7.775  1.1291 -1.8680 -0.2391
  176SAPI  H11Y20090   4.214   0.950   7.815  1.9822  0.5997 -0.3189
  176SAPI  C31220091   4.070   1.119   7.836 -0.1147  0.2183 -0.1854
  176SAPI  H12X20092   3.973   1.083   7.796  0.8190 -1.4590 -1.0376
  176SAPI  H12Y20093   4.072   1.228   7.813  2.2308  0.6194  1.5312
  176SAPI  C31320094   4.062   1.076   7.983  0.3304 -0.8542  0.4254
  176SAPI  H13X20095   4.161   1.082   8.032  0.4838  2.5066 -0.0356
  176SAPI  H13Y20096   4.029   0.970   7.983 -0.6291 -0.5620  0.5989
  176SAPI  C31420097   3.957   1.149   8.058 -0.3272  0.0706 -1.3482
  176SAPI  H14X20098   3.990   1.253   8.078  1.4161 -0.2026 -2.6103
  176SAPI  H14Y20099   3.935   1.103   8.157 -0.5749  1.9533 -0.4847
  176SAPI  C31520100   3.820   1.169   7.984  0.3228 -0.0498  0.2835
  176SAPI  H15X20101   3.782   1.070   7.951  0.8714 -0.9838  2.2846
  176SAPI  H15Y20102   3.831   1.227   7.890  2.5426  1.9298  1.6281
  176SAPI  C31620103   3.713   1.236   8.063 -0.6720  0.2099 -0.4169
  176SAPI  H16X20104   3.759   1.335   8.086  1.2876 -0.7980  0.2297
  176SAPI  H16Y20105   3.684   1.184   8.157  1.7241 -0.9865 -0.2689
  176SAPI  C31720106   3.584   1.256   7.983  0.6049  0.4090  0.0812
  176SAPI  H17X20107   3.526   1.332   8.040 -2.8580 -2.7004  1.1359
  176SAPI  H17Y20108   3.524   1.162   7.980 -0.0908  0.8638 -1.6408
  176SAPI  C31820109   3.600   1.305   7.834 -0.0851 -1.0627 -0.2684
  176SAPI  H18X20110   3.633   1.220   7.770  3.7736  0.1643 -0.2029
  176SAPI  H18Y20111   3.681   1.380   7.816 -0.1211 -1.3331 -1.7368
  176SAPI  H18Z20112   3.500   1.340   7.801 -0.5010 -1.2008  0.8215
  177SLPC     N20113   4.042   3.582  11.138  0.6614  0.2998 -0.6981
  177SLPC   C1320114   4.143   3.502  11.060 -0.8630 -0.5309 -0.1917
  177SLPC  H13A20115   4.097   3.464  10.970 -2.1442 -3.5442  1.5672
  177SLPC  H13B20116   4.239   3.549  11.047  0.0962 -2.2546  0.3036
  177SLPC  H13C20117   4.164   3.416  11.122 -1.2783 -0.4602  0.0499
  177SLPC   C1420118   4.079   3.574  11.282 -0.0565  0.2278 -1.1869
  177SLPC  H14A20119   4.008   3.613  11.354  0.5351  0.4075 -0.6821
  177SLPC  H14B20120   4.088   3.477  11.329 -1.9934  1.5117  2.1508
  177SLPC  H14C20121   4.170   3.628  11.304 -1.3207  1.9061  0.2427
  177SLPC   C1520122   3.912   3.516  11.116  0.2632  0.8880 -0.3451
  177SLPC  H15A20123   3.834   3.536  11.188 -0.6746 -0.9882 -0.7718
  177SLPC  H15B20124   3.868   3.544  11.021 -2.3423 -0.5861  0.3379
  177SLPC  H15C20125   3.915   3.408  11.125  0.3292  0.9793  0.9006
  177SLPC   C1220126   4.039   3.725  11.085 -0.6221  0.2284 -1.1702
  177SLPC  H12A20127   4.143   3.753  11.076  0.7484 -3.4433  0.9530
  177SLPC  H12B20128   3.985   3.785  11.157  0.2528 -1.0545  0.6242
  177SLPC   C1120129   3.969   3.743  10.949  0.2037 -0.0139 -0.4299
  177SLPC  H11A20130   4.002   3.665  10.877  3.0560  1.7849 -1.2439
  177SLPC  H11B20131   4.008   3.843  10.921  1.7502 -0.3276  0.4954
  177SLPC     P20132   3.737   3.714  10.843 -0.5929  0.1268 -0.2506
  177SLPC   O1320133   3.742   3.566  10.807  0.7386 -0.1796  0.2069
  177SLPC   O1420134   3.606   3.772  10.870 -0.0809 -0.4241  0.5451
  177SLPC   O1220135   3.828   3.741  10.974  0.0493  0.1858 -0.4531
  177SLPC   O1120136   3.809   3.797  10.726 -0.5962 -0.0363 -0.3288
  177SLPC    C120137   3.773   3.937  10.707 -0.0552 -0.1165 -0.6282
  177SLPC    HA20138   3.729   3.982  10.798  0.4640  2.9781 -1.8028
  177SLPC    HB20139   3.865   3.997  10.690  0.1980  0.0940  1.3293
  177SLPC    C220140   3.674   3.975  10.591 -0.6523  1.0990 -0.2161
  177SLPC    HS20141   3.584   3.916  10.618  0.6756 -0.3849  1.1137
  177SLPC   O2120142   3.732   3.938  10.465 -0.2840 -0.3458  0.2019
  177SLPC   C2120143   3.713   3.816  10.416 -0.6804  0.2716  0.0532
  177SLPC   O2220144   3.653   3.726  10.470 -0.2777 -0.4670 -0.1095
  177SLPC   C2220145   3.786   3.792  10.286  0.4601 -0.0609  0.2361
  177SLPC   H2R20146   3.884   3.843  10.292  0.5193  0.0278 -1.2011
  177SLPC   H2S20147   3.808   3.684  10.271  2.1540  0.2252  0.4757
  177SLPC    C320148   3.637   4.123  10.594  0.0362 -0.3632 -0.1846
  177SLPC    HX20149   3.732   4.177  10.573  0.5954 -1.1791  0.1744
  177SLPC    HY20150   3.602   4.153  10.695  0.4587 -0.3320 -0.0443
  177SLPC   O3120151   3.538   4.166  10.504  0.5019 -0.2385 -0.1296
  177SLPC   C3120152   3.574   4.207  10.388 -1.0228 -0.7654 -0.1681
  177SLPC   O3220153   3.690   4.239  10.356  0.0891  0.0527  0.3900
  177SLPC   C3220154   3.460   4.219  10.285 -0.4890  0.0806 -0.9502
  177SLPC   H2X20155   3.372   4.167  10.329  0.9409 -1.7778 -0.1468
  177SLPC   H2Y20156   3.481   4.150  10.200  0.9599 -2.1931  1.1273
  177SLPC   C2320157   3.717   3.869  10.167 -0.4620 -0.3375 -0.3381
  177SLPC   H3R20158   3.721   3.973  10.203  0.1113  0.2214 -1.9202
  177SLPC   H3S20159   3.611   3.843  10.149 -0.1427 -2.0357  0.0427
  177SLPC   C2420160   3.792   3.839  10.030  0.2040 -0.0410  0.1430
  177SLPC   H4R20161   3.777   3.730  10.014 -0.1691 -0.3969  2.5449
  177SLPC   H4S20162   3.900   3.853  10.047  0.6511 -2.1005 -0.6725
  177SLPC   C2520163   3.741   3.923   9.908 -0.2680 -0.5979 -0.1967
  177SLPC   H5R20164   3.749   4.029   9.939  0.5754 -1.1517  1.6488
  177SLPC   H5S20165   3.637   3.892   9.882 -1.5740  3.2612 -0.1656
  177SLPC   C2620166   3.829   3.915   9.780  0.3618  0.0680  0.2427
  177SLPC   H6R20167   3.838   3.810   9.745 -0.6134 -0.2332  0.8320
  177SLPC   H6S20168   3.924   3.971   9.785  0.8152 -0.5883 -0.7349
  177SLPC   C2720169   3.749   3.988   9.669 -0.2177  0.4753  0.1386
  177SLPC   H7R20170   3.764   4.098   9.673  2.9232  0.0988  0.6221
  177SLPC   H7S20171   3.640   3.964   9.674 -0.0217 -0.5794 -0.2244
  177SLPC   C2820172   3.790   3.947   9.526  0.5948 -0.2845 -0.4105
  177SLPC   H8R20173   3.715   3.989   9.457  0.5873  1.6719  0.7019
  177SLPC   H8S20174   3.787   3.836   9.516 -0.0452 -0.3722  0.6062
  177SLPC   C2920175   3.928   3.997   9.484  0.4365  0.8981 -0.0800
  177SLPC   H9R20176   4.010   3.982   9.556  1.1662 -0.7782 -1.2194
  177SLPC  C21020177   3.960   4.058   9.373  0.3111 -0.2238  0.0887
  177SLPC  H10R20178   4.067   4.082   9.366  0.5713 -1.2005  0.4469
  177SLPC  C21120179   3.863   4.104   9.256  0.2680  0.6409  0.2156
  177SLPC  H11R20180   3.771   4.150   9.297 -2.6081 -1.1429 -3.6147
  177SLPC  H11S20181   3.909   4.181   9.190  0.1808  0.9713  0.5348
  177SLPC  C21220182   3.815   3.983   9.172  0.2823  0.0691  0.2836
  177SLPC  H12R20183   3.762   3.908   9.234 -0.8049  0.4128 -0.2052
  177SLPC  C21320184   3.828   3.955   9.043 -0.1296  0.6758  0.2464
  177SLPC  H13R20185   3.793   3.860   8.999  0.5482  0.3020  0.5081
  177SLPC  C21420186   3.900   4.041   8.944 -0.0490  0.5518  0.1424
  177SLPC  H14R20187   4.008   4.051   8.968  0.1847  1.9068 -1.3385
  177SLPC  H14S20188   3.863   4.146   8.946  2.2127  1.4232  2.6851
  177SLPC  C21520189   3.880   3.978   8.803  0.1061  0.0367 -0.3351
  177SLPC  H15R20190   3.775   3.997   8.771  1.1255  4.8077 -1.6456
  177SLPC  H15S20191   3.889   3.867   8.802 -1.5061 -0.1841  1.4879
  177SLPC  C21620192   3.963   4.043   8.695 -0.5550 -0.5342  0.2654
  177SLPC  H16R20193   4.067   4.056   8.732 -0.0277  1.5261 -1.7244
  177SLPC  H16S20194   3.922   4.144   8.673  1.4640  0.0156 -1.1702
  177SLPC  C21720195   3.960   3.955   8.570  0.3852 -0.0716 -0.9356
  177SLPC  H17R20196   3.856   3.922   8.549  0.4262 -1.6283  0.9964
  177SLPC  H17S20197   4.034   3.874   8.590  0.9230  0.7491  0.6080
  177SLPC  C21820198   4.016   4.035   8.449  0.0974 -0.0510 -0.3551
  177SLPC  H18R20199   3.995   3.983   8.353 -0.7480 -1.1283  0.3904
  177SLPC  H18S20200   4.127   4.035   8.456  0.1466  0.0785 -1.1136
  177SLPC  H18T20201   3.974   4.137   8.445  2.0191  0.7327 -2.8234
  177SLPC   C3320202   3.442   4.368  10.231 -0.4209 -0.0313 -0.0247
  177SLPC   H3X20203   3.540   4.421  10.225 -1.4095  1.7458 -1.4262
  177SLPC   H3Y20204   3.385   4.408  10.318 -0.7011 -0.3780 -0.0486
  177SLPC   C3420205   3.388   4.379  10.088 -0.2732 -0.8243  0.2763
  177SLPC   H4X20206   3.407   4.486  10.065 -0.1981 -0.2544  2.7466
  177SLPC   H4Y20207   3.278   4.366  10.089 -0.5537  0.6584 -2.3529
  177SLPC   C3520208   3.453   4.298   9.978  0.4550  0.0316  0.4141
  177SLPC   H5X20209   3.420   4.192   9.971  1.4303 -0.3884  1.7345
  177SLPC   H5Y20210   3.561   4.285  10.002  0.4604 -0.5500  0.0933
  177SLPC   C3620211   3.438   4.376   9.848  0.7850  0.3358  0.0395
  177SLPC   H6X20212   3.518   4.452   9.836  0.0510  1.8818  3.6698
  177SLPC   H6Y20213   3.334   4.416   9.843 -0.7309 -3.2022  0.3467
  177SLPC   C3720214   3.458   4.287   9.727 -0.5262 -0.1055 -0.5886
  177SLPC   H7X20215   3.383   4.205   9.731 -1.5410  0.8073 -0.4024
  177SLPC   H7Y20216   3.558   4.238   9.721  0.4150  1.7588 -0.9690
  177SLPC   C3820217   3.429   4.360   9.599 -0.5094 -0.2890  0.1250
  177SLPC   H8X20218   3.505   4.438   9.577  0.7496 -1.2244  0.9735
  177SLPC   H8Y20219   3.327   4.402   9.611 -0.1329  0.1059  2.4766
  177SLPC   C3920220   3.431   4.267   9.473 -0.1748 -0.0195 -0.5213
  177SLPC   H9X20221   3.379   4.169   9.475  1.9808 -1.2165  1.3684
  177SLPC   H9Y20222   3.538   4.248   9.450 -0.2735 -1.1546 -0.0739
  177SLPC  C31020223   3.388   4.345   9.346 -0.0388  0.3868  0.6576
  177SLPC  H10X20224   3.441   4.440   9.326  1.4518 -0.8582 -1.8745
  177SLPC  H10Y20225   3.278   4.362   9.350  0.1714  1.5421  2.0441
  177SLPC  C31120226   3.408   4.259   9.216  0.5498 -0.7692 -0.0746
  177SLPC  H11X20227   3.340   4.172   9.218 -1.0080  0.4222  1.9598
  177SLPC  H11Y20228   3.515   4.228   9.216  0.9101  0.2095  2.7179
  177SLPC  C31220229   3.376   4.349   9.097  0.3278 -0.1848  0.6006
  177SLPC  H12X20230   3.424   4.448   9.109  0.6733 -0.2088 -0.4511
  177SLPC  H12Y20231   3.269   4.369   9.080  0.7888  1.3769 -0.6873
  177SLPC  C31320232   3.426   4.272   8.969 -0.0282 -0.0191  0.2369
  177SLPC  H13X20233   3.524   4.221   8.980 -0.9815 -2.5660 -1.9972
  177SLPC  H13Y20234   3.425   4.345   8.886  1.7971 -0.7134 -0.4416
  177SLPC  C31420235   3.334   4.158   8.918 -0.3213 -0.1170  0.1028
  177SLPC  H14X20236   3.316   4.077   8.992 -0.2671 -0.4522 -0.2472
  177SLPC  H14Y20237   3.386   4.121   8.827  0.5980  3.4967 -1.0457
  177SLPC  C31520238   3.186   4.200   8.890  0.0798 -0.2368  0.3500
  177SLPC  H15X20239   3.124   4.218   8.980 -0.8264 -2.7141  0.2887
  177SLPC  H15Y20240   3.135   4.111   8.849 -0.6793 -0.9055  2.6046
  177SLPC  C31620241   3.174   4.314   8.792 -0.1147 -1.0043  0.4507
  177SLPC  H16X20242   3.251   4.321   8.712 -0.0818 -0.6541  0.5132
  177SLPC  H16Y20243   3.173   4.408   8.850 -0.4497 -0.8312  0.1636
  177SLPC  C31720244   3.035   4.319   8.719  0.0923 -0.3815 -0.4361
  177SLPC  H17X20245   3.013   4.425   8.693 -1.0927 -0.5435 -0.1434
  177SLPC  H17Y20246   2.952   4.282   8.784 -0.4110 -1.2236 -1.5151
  177SLPC  C31820247   3.035   4.258   8.582 -0.2410 -0.1665 -0.4197
  177SLPC  H18X20248   2.945   4.272   8.518 -0.7119  0.9736  0.4537
  177SLPC  H18Y20249   3.047   4.148   8.590 -1.1329 -0.6367 -3.9025
  177SLPC  H18Z20250   3.117   4.295   8.517 -1.7315  2.4623 -0.9451
  178SLPC     N20251   4.930   6.674  11.101 -0.4800 -0.4948  0.4517
  178SLPC   C1320252   5.038   6.768  11.130 -0.0266  0.2542  0.0433
  178SLPC  H13A20253   5.132   6.725  11.098  1.2191  1.3747  2.0104
  178SLPC  H13B20254   5.022   6.865  11.087 -2.2865 -1.4687 -3.4319
  178SLPC  H13C20255   5.053   6.781  11.236 -2.4615  1.1090  0.3352
  178SLPC   C1420256   4.801   6.739  11.144 -0.6779 -0.1842  0.7663
  178SLPC  H14A20257   4.816   6.781  11.242 -1.4908 -0.9037  1.2125
  178SLPC  H14B20258   4.766   6.808  11.069  1.8299 -0.9678 -1.2639
  178SLPC  H14C20259   4.724   6.666  11.164 -0.1797 -1.0559 -0.4306
  178SLPC   C1520260   4.949   6.563  11.201 -0.8547  0.4574  0.7385
  178SLPC  H15A20261   5.021   6.492  11.164 -0.8732  1.3872 -1.1818
  178SLPC  H15B20262   4.982   6.594  11.299  0.5945 -0.0366  0.4294
  178SLPC  H15C20263   4.861   6.503  11.216  0.0329 -1.4589 -1.1567
  178SLPC   C1220264   4.935   6.627  10.954 -0.2027  0.3796  0.0043
  178SLPC  H12A20265   4.935   6.717  10.894  0.8183 -1.3985 -2.8413
  178SLPC  H12B20266   4.844   6.575  10.927 -1.1941  0.3040  3.0855
  178SLPC   C1120267   5.042   6.533  10.913 -0.5213 -0.5226  0.3980
  178SLPC  H11A20268   5.129   6.586  10.958 -2.5764  2.9880  0.6180
  178SLPC  H11B20269   5.046   6.526  10.802 -2.6003  0.7816  0.1862
  178SLPC     P20270   4.933   6.299  10.932  0.0164  0.3694 -0.4698
  178SLPC   O1320271   4.999   6.180  10.881 -0.0333  0.2202  0.2213
  178SLPC   O1420272   4.830   6.276  11.039 -0.2816 -0.4973  0.3781
  178SLPC   O1220273   5.034   6.405  10.970  0.1248  0.8587 -0.2629
  178SLPC   O1120274   4.861   6.360  10.815  0.1955 -1.1673  0.5833
  178SLPC    C120275   4.770   6.297  10.728 -0.7446  0.3376  0.1190
  178SLPC    HA20276   4.716   6.212  10.774 -3.4859  1.0457 -1.5999
  178SLPC    HB20277   4.683   6.359  10.699  0.7276  1.7842 -1.4398
  178SLPC    C220278   4.835   6.253  10.588 -0.2039  0.9784 -0.1403
  178SLPC    HS20279   4.758   6.234  10.510  0.0969 -2.2878  0.2116
  178SLPC   O2120280   4.907   6.131  10.598 -0.0514  0.0171  0.3266
  178SLPC   C2120281   4.838   6.028  10.625  0.9179  0.0013  0.8996
  178SLPC   O2220282   4.716   6.017  10.627 -0.2308 -0.9775  0.3142
  178SLPC   C2220283   4.935   5.909  10.623  0.2996 -0.1036 -0.7811
  178SLPC   H2R20284   4.956   5.888  10.730 -1.6615  0.6043 -0.2290
  178SLPC   H2S20285   4.894   5.813  10.583 -0.4198 -0.3832  0.5584
  178SLPC    C320286   4.934   6.364  10.531  0.1668 -0.1326  0.5245
  178SLPC    HX20287   5.013   6.352  10.608 -0.5984 -0.5461  1.2524
  178SLPC    HY20288   4.889   6.462  10.558  0.3103  0.0945 -0.0423
  178SLPC   O3120289   4.968   6.339  10.387  0.0492  0.5040 -0.4423
  178SLPC   C3120290   4.873   6.378  10.305  0.4901  0.4937 -0.1957
  178SLPC   O3220291   4.758   6.401  10.330  0.3973 -0.4917  0.1407
  178SLPC   C3220292   4.923   6.363  10.156  0.1215 -0.3157 -0.1140
  178SLPC   H2X20293   4.938   6.254  10.135 -0.9960 -0.2533 -1.3327
  178SLPC   H2Y20294   5.019   6.419  10.149 -1.2990  2.0603 -1.9133
  178SLPC   C2320295   5.064   5.925  10.536  0.4326  1.0623 -0.6446
  178SLPC   H3R20296   5.108   5.824  10.545 -1.5408  0.0352 -1.9525
  178SLPC   H3S20297   5.122   6.000  10.594 -1.4335  1.5617  0.7061
  178SLPC   C2420298   5.032   5.953  10.391  0.1950  0.6264  0.2701
  178SLPC   H4R20299   5.050   6.059  10.366 -0.4467  0.5189 -0.6729
  178SLPC   H4S20300   4.924   5.931  10.378  0.5891 -0.6905 -1.0484
  178SLPC   C2520301   5.106   5.851  10.306 -0.2980  0.0566 -0.8028
  178SLPC   H5R20302   5.055   5.753  10.315 -1.3959  0.7998  2.0897
  178SLPC   H5S20303   5.207   5.838  10.351 -1.0434 -0.4618  0.7530
  178SLPC   C2620304   5.120   5.902  10.160  0.2773  0.2285 -0.4154
  178SLPC   H6R20305   5.198   5.980  10.167 -0.6973  1.3445 -1.5301
  178SLPC   H6S20306   5.026   5.952  10.127  0.7237  1.7857  0.5810
  178SLPC   C2720307   5.166   5.787  10.066  0.3720 -0.4902 -0.2380
  178SLPC   H7R20308   5.080   5.717  10.054 -0.3081  0.5621 -1.8196
  178SLPC   H7S20309   5.246   5.723  10.110  0.1701 -1.2935 -1.0177
  178SLPC   C2820310   5.231   5.836   9.937  0.3397  0.1823 -0.1536
  178SLPC   H8R20311   5.266   5.739   9.896 -2.7648 -1.7537  1.4385
  178SLPC   H8S20312   5.324   5.898   9.942  1.3465 -1.3437  1.0749
  178SLPC   C2920313   5.112   5.891   9.861  0.9488 -0.2378  0.1560
  178SLPC   H9R20314   5.012   5.864   9.898  0.7364 -0.8785 -0.8543
  178SLPC  C21020315   5.120   5.962   9.748  0.5785  1.1558  0.4216
  178SLPC  H10R20316   5.027   6.010   9.714  0.8024  2.7303  1.8457
  178SLPC  C21120317   5.237   6.001   9.671 -0.3297  0.4103  0.0396
  178SLPC  H11R20318   5.322   6.031   9.736 -1.2193 -0.4463  1.6690
  178SLPC  H11S20319   5.213   6.101   9.627  0.2989  0.7938  0.5462
  178SLPC  C21220320   5.273   5.896   9.573 -0.1887  0.0457 -0.3016
  178SLPC  H12R20321   5.323   5.807   9.616  0.3452  0.8478  0.7825
  178SLPC  C21320322   5.251   5.885   9.442 -0.0112 -0.1418  0.2386
  178SLPC  H13R20323   5.255   5.788   9.389 -1.5186  1.4517 -3.1343
  178SLPC  C21420324   5.172   5.987   9.366 -0.2962  0.2116 -0.3580
  178SLPC  H14R20325   5.193   6.083   9.418 -0.7755  1.5326 -2.4810
  178SLPC  H14S20326   5.064   5.965   9.379 -0.3684  1.3204  1.3343
  178SLPC  C21520327   5.203   5.982   9.218 -0.4026 -0.2475  0.0696
  178SLPC  H15R20328   5.175   5.884   9.175 -0.6813  0.8672 -2.4630
  178SLPC  H15S20329   5.313   5.972   9.217 -0.4622 -1.1586  1.1518
  178SLPC  C21620330   5.153   6.109   9.149  0.7973  0.1561 -0.0712
  178SLPC  H16R20331   5.217   6.193   9.184  1.3216  0.5938 -1.9560
  178SLPC  H16S20332   5.051   6.136   9.185  1.2638  0.0054  1.4552
  178SLPC  C21720333   5.148   6.100   8.996  0.3707  0.0897  0.0634
  178SLPC  H17R20334   5.253   6.087   8.962  1.2210  1.3637  2.0403
  178SLPC  H17S20335   5.106   6.194   8.955 -1.6876 -0.3093  1.1507
  178SLPC  C21820336   5.071   5.978   8.929 -0.5488 -0.3786 -0.1515
  178SLPC  H18R20337   4.967   5.997   8.896 -1.0794  0.8768  2.0407
  178SLPC  H18S20338   5.069   5.896   9.003  2.9114 -0.4715 -0.0106
  178SLPC  H18T20339   5.124   5.943   8.838 -2.1278  0.2688 -1.3706
  178SLPC   C3320340   4.814   6.426  10.068 -0.3861 -0.5888 -0.8507
  178SLPC   H3X20341   4.831   6.534  10.050  0.5461 -0.4816  0.4999
  178SLPC   H3Y20342   4.710   6.411  10.104 -0.0021  0.2782  0.7416
  178SLPC   C3420343   4.808   6.375   9.923 -1.0471  0.5221 -0.2036
  178SLPC   H4X20344   4.734   6.442   9.876  0.5670  0.4700 -3.0349
  178SLPC   H4Y20345   4.778   6.268   9.917  0.8556  0.0212 -2.1522
  178SLPC   C3520346   4.946   6.396   9.853 -0.2238  0.3088 -0.4755
  178SLPC   H5X20347   5.025   6.344   9.912  0.7219 -1.3377 -2.9949
  178SLPC   H5Y20348   4.962   6.506   9.857  1.1045  0.1062  0.9634
  178SLPC   C3620349   4.962   6.334   9.717  0.0860  0.1659 -0.3247
  178SLPC   H6X20350   4.933   6.227   9.727 -1.2948  0.6592  1.6631
  178SLPC   H6Y20351   5.069   6.342   9.689 -0.2834  1.3922 -1.4877
  178SLPC   C3720352   4.875   6.400   9.607  0.1923  0.4344 -0.3610
  178SLPC   H7X20353   4.891   6.509   9.622  1.9376  0.1253  0.3592
  178SLPC   H7Y20354   4.766   6.379   9.603  0.5674 -1.4776 -1.9354
  178SLPC   C3820355   4.924   6.373   9.457 -0.8487  0.6376  0.2672
  178SLPC   H8X20356   4.925   6.263   9.442  1.1775  0.7942 -1.2788
  178SLPC   H8Y20357   5.027   6.413   9.447  0.1375 -1.6916  0.3320
  178SLPC   C3920358   4.836   6.439   9.350  0.5085 -0.0314  0.4295
  178SLPC   H9X20359   4.844   6.548   9.367 -1.4307  0.1553  0.3762
  178SLPC   H9Y20360   4.731   6.410   9.370  0.6942 -1.9735 -1.1244
  178SLPC  C31020361   4.867   6.392   9.206 -0.0866 -0.6551  0.2315
  178SLPC  H10X20362   4.863   6.282   9.216 -1.2725 -0.5642  0.9912
  178SLPC  H10Y20363   4.968   6.436   9.194 -1.2994  2.5167  0.7662
  178SLPC  C31120364   4.763   6.433   9.094  0.9053  0.2709 -0.2397
  178SLPC  H11X20365   4.731   6.539   9.100 -3.7483 -0.9540  0.2545
  178SLPC  H11Y20366   4.674   6.367   9.097  0.2220  1.0567 -2.0089
  178SLPC  C31220367   4.803   6.403   8.951 -0.3758  0.2409 -0.4995
  178SLPC  H12X20368   4.838   6.297   8.955  0.5155  0.5140 -0.8341
  178SLPC  H12Y20369   4.890   6.464   8.918  0.2013  1.1315  2.3961
  178SLPC  C31320370   4.688   6.425   8.849 -0.0849 -0.9177 -0.3679
  178SLPC  H13X20371   4.659   6.532   8.853  1.1427 -0.5691  3.3819
  178SLPC  H13Y20372   4.601   6.367   8.886 -1.3606  0.1116 -1.6890
  178SLPC  C31420373   4.722   6.381   8.708  0.3526 -0.0282 -0.2951
  178SLPC  H14X20374   4.816   6.431   8.677 -0.9708  1.9398 -1.3163
  178SLPC  H14Y20375   4.644   6.425   8.643 -0.8787  0.5001  1.4573
  178SLPC  C31520376   4.726   6.230   8.685 -0.3331 -0.0956 -0.2155
  178SLPC  H15X20377   4.809   6.189   8.746  0.2907 -2.8390 -2.7027
  178SLPC  H15Y20378   4.627   6.188   8.713  0.1493 -0.4981  0.9575
  178SLPC  C31620379   4.743   6.192   8.540 -0.1663  0.1245 -0.4030
  178SLPC  H16X20380   4.846   6.223   8.513 -0.2339 -0.0875 -0.9075
  178SLPC  H16Y20381   4.679   6.260   8.482 -0.8995  1.5006  1.8796
  178SLPC  C31720382   4.754   6.047   8.503 -0.0481 -1.0578  0.0806
  178SLPC  H17X20383   4.736   6.040   8.393  2.1836  1.9342 -0.6127
  178SLPC  H17Y20384   4.664   6.004   8.552 -0.4923  0.6404  0.8135
  178SLPC  C31820385   4.887   5.981   8.551 -0.3387  0.2393 -0.2547
  178SLPC  H18X20386   4.899   5.877   8.514 -3.1909 -0.0304 -0.6630
  178SLPC  H18Y20387   4.879   5.990   8.662 -1.0428 -0.4990 -0.2380
  178SLPC  H18Z20388   4.969   6.047   8.517 -2.0353  3.1952  0.9558
  179SLPC     N20389   6.769   3.082  10.662 -0.9126  0.0401  0.2824
  179SLPC   C1320390   6.656   3.120  10.571 -0.4678  0.3172  0.4952
  179SLPC  H13A20391   6.631   3.225  10.581 -0.5195  0.4281 -0.6328
  179SLPC  H13B20392   6.695   3.097  10.473 -2.2215 -3.5051  0.5134
  179SLPC  H13C20393   6.566   3.062  10.582 -1.0699  1.2181  0.4690
  179SLPC   C1420394   6.711   3.073  10.794  0.0188 -0.1675 -0.3773
  179SLPC  H14A20395   6.639   2.992  10.794  1.2703 -1.3605  1.3405
  179SLPC  H14B20396   6.779   3.056  10.876 -1.5460 -1.6229  0.6717
  179SLPC  H14C20397   6.668   3.167  10.823  0.0002  0.2235 -1.6121
  179SLPC   C1520398   6.877   3.189  10.678 -0.4961  0.2649 -0.6699
  179SLPC  H15A20399   6.939   3.147  10.755 -2.4899  0.5202  1.1937
  179SLPC  H15B20400   6.934   3.195  10.586  0.6644  1.6238  0.1073
  179SLPC  H15C20401   6.835   3.283  10.710 -0.7314  0.2295 -0.8640
  179SLPC   C1220402   6.829   2.947  10.627  0.2057  0.2444 -0.3858
  179SLPC  H12A20403   6.749   2.876  10.648  0.7885 -0.4589 -0.5019
  179SLPC  H12B20404   6.905   2.919  10.698  0.6632  3.4909  0.5775
  179SLPC   C1120405   6.861   2.928  10.482 -0.2100  0.6223 -0.3608
  179SLPC  H11A20406   6.932   2.843  10.472 -0.5554  0.4714 -1.6339
  179SLPC  H11B20407   6.915   3.016  10.443  2.9654 -0.8842  0.3190
  179SLPC     P20408   6.746   2.923  10.238  0.1682 -0.2897  0.4006
  179SLPC   O1320409   6.710   2.789  10.181  0.3755  0.3450 -0.5711
  179SLPC   O1420410   6.668   3.043  10.183  0.3679 -0.1668 -0.3650
  179SLPC   O1220411   6.742   2.920  10.401 -0.0278 -0.3559  0.1112
  179SLPC   O1120412   6.900   2.945  10.207 -0.8760  0.1866 -0.3579
  179SLPC    C120413   6.989   2.860  10.131  0.0510  0.4563  0.2063
  179SLPC    HA20414   7.094   2.891  10.147  0.7834 -1.2887 -0.9020
  179SLPC    HB20415   6.999   2.753  10.162  2.3357  0.2994 -0.8496
  179SLPC    C220416   6.971   2.864   9.975 -0.9103 -0.0505 -0.5129
  179SLPC    HS20417   6.875   2.814   9.950 -1.5465  1.0204 -0.2896
  179SLPC   O2120418   7.091   2.800   9.915 -0.1164 -0.2324  0.2550
  179SLPC   C2120419   7.085   2.671   9.924  0.0928  0.1067 -0.1111
  179SLPC   O2220420   6.985   2.600   9.946 -0.2412 -0.6235  0.1660
  179SLPC   C2220421   7.230   2.615   9.902  0.5440  0.0491 -0.8913
  179SLPC   H2R20422   7.298   2.703   9.898 -1.7920  1.9233 -2.0992
  179SLPC   H2S20423   7.247   2.562   9.999 -2.0348 -0.0275 -0.4069
  179SLPC    C320424   6.941   3.010   9.924  0.3406  0.2415  0.1018
  179SLPC    HX20425   7.016   3.081   9.966  0.8311 -0.0750 -0.2184
  179SLPC    HY20426   6.856   3.061   9.974  1.5788  2.3968  0.1339
  179SLPC   O3120427   6.937   3.021   9.776 -0.4443 -0.1109 -0.2711
  179SLPC   C3120428   6.829   2.971   9.725 -0.2526 -0.1844  0.0736
  179SLPC   O3220429   6.732   2.939   9.794 -1.0094 -0.5056  0.4601
  179SLPC   C3220430   6.840   2.971   9.572  0.2398  0.2288  0.1211
  179SLPC   H2X20431   6.915   2.893   9.543 -0.8139 -1.5154  1.8349
  179SLPC   H2Y20432   6.881   3.073   9.560  2.9473 -0.7296  0.4713
  179SLPC   C2320433   7.227   2.533   9.777  0.6354 -0.9613  0.0818
  179SLPC   H3R20434   7.154   2.451   9.791 -2.1483  0.8055 -2.7975
  179SLPC   H3S20435   7.324   2.482   9.755  0.5723 -0.7062 -0.8150
  179SLPC   C2420436   7.179   2.607   9.656  0.4107  0.3182  0.2498
  179SLPC   H4R20437   7.245   2.697   9.656 -0.7029  1.1534 -0.7381
  179SLPC   H4S20438   7.076   2.645   9.674  0.0412 -0.9218  0.8668
  179SLPC   C2520439   7.177   2.519   9.528  0.2965 -0.3009  0.4157
  179SLPC   H5R20440   7.080   2.467   9.517 -0.8693  1.3956  2.0119
  179SLPC   H5S20441   7.258   2.445   9.544 -0.7174 -1.4430  0.3367
  179SLPC   C2620442   7.199   2.598   9.402 -0.2437  1.2241  0.0471
  179SLPC   H6R20443   7.301   2.644   9.400  0.0954  0.5307  0.8779
  179SLPC   H6S20444   7.135   2.688   9.397  0.2541  1.5323 -1.2405
  179SLPC   C2720445   7.180   2.512   9.272 -0.5360 -0.2434  0.6815
  179SLPC   H7R20446   7.080   2.464   9.270 -1.1643  1.0615 -0.4488
  179SLPC   H7S20447   7.258   2.435   9.295  1.3523  1.8511  1.7316
  179SLPC   C2820448   7.217   2.568   9.132 -0.2314  0.8376 -0.0756
  179SLPC   H8R20449   7.226   2.480   9.064 -0.6987 -1.2502  2.3883
  179SLPC   H8S20450   7.318   2.614   9.140 -0.2483  1.4748 -2.6566
  179SLPC   C2920451   7.113   2.662   9.088  0.0086 -0.0942 -0.0412
  179SLPC   H9R20452   7.096   2.744   9.159 -2.5109  0.7285 -1.4533
  179SLPC  C21020453   7.054   2.671   8.970  0.9275  0.5625 -0.3732
  179SLPC  H10R20454   6.977   2.749   8.961  1.2405  1.0022  0.6672
  179SLPC  C21120455   7.082   2.571   8.854 -0.3271  0.4225 -0.1959
  179SLPC  H11R20456   7.105   2.469   8.891  0.4842  0.0823 -1.5895
  179SLPC  H11S20457   7.161   2.609   8.786 -0.2773  0.7410  0.0332
  179SLPC  C21220458   6.947   2.555   8.790  0.3698 -0.2539 -0.7421
  179SLPC  H12R20459   6.884   2.475   8.833 -1.1675  2.7488  3.1272
  179SLPC  C21320460   6.891   2.621   8.687 -0.1064 -0.2213  1.0962
  179SLPC  H13R20461   6.796   2.584   8.647 -0.6120  1.2664  0.8759
  179SLPC  C21420462   6.953   2.739   8.604  0.5138  0.2905 -0.5779
  179SLPC  H14R20463   7.055   2.758   8.643  0.4001 -1.7824  0.8424
  179SLPC  H14S20464   6.880   2.823   8.615  1.2619  0.8174  0.4405
  179SLPC  C21520465   6.962   2.712   8.450  0.4169 -0.4427 -0.3184
  179SLPC  H15R20466   6.856   2.689   8.425 -0.4721  3.0095 -0.2633
  179SLPC  H15S20467   7.037   2.631   8.439  2.0556  0.8606  0.7891
  179SLPC  C21620468   7.003   2.834   8.358  0.7540 -0.3184  0.7512
  179SLPC  H16R20469   7.107   2.863   8.382  0.5997  2.5564 -1.5136
  179SLPC  H16S20470   6.940   2.921   8.386  0.4389 -0.0593 -0.6978
  179SLPC  C21720471   6.988   2.791   8.213  0.2611 -0.3630  0.5388
  179SLPC  H17R20472   7.044   2.696   8.197  3.8764  1.6027  0.5242
  179SLPC  H17S20473   7.038   2.862   8.144 -2.3878 -0.4372 -1.6385
  179SLPC  C21820474   6.847   2.795   8.162 -0.0237  0.1836  0.3979
  179SLPC  H18R20475   6.765   2.740   8.214 -0.6819 -1.3414 -2.0451
  179SLPC  H18S20476   6.837   2.746   8.062 -2.5817 -1.8980  1.5402
  179SLPC  H18T20477   6.809   2.899   8.156 -3.0803 -0.5454  3.5069
  179SLPC   C3320478   6.707   2.959   9.497 -0.4961  0.9159 -0.5400
  179SLPC   H3X20479   6.638   3.036   9.538 -1.1717 -0.3717  0.8383
  179SLPC   H3Y20480   6.661   2.858   9.511  0.0683  0.6656 -0.4724
  179SLPC   C3420481   6.727   2.983   9.347 -0.2568  0.4833 -0.3236
  179SLPC   H4X20482   6.805   2.914   9.309  0.1985  0.6951  0.2049
  179SLPC   H4Y20483   6.778   3.082   9.341  3.5803 -1.2321  0.7491
  179SLPC   C3520484   6.597   2.969   9.264  0.4013 -0.4032 -0.0731
  179SLPC   H5X20485   6.521   3.033   9.314  1.0944 -0.2463  0.8069
  179SLPC   H5Y20486   6.540   2.874   9.262 -1.0737  0.4681 -0.9537
  179SLPC   C3620487   6.616   3.015   9.119 -0.0646  0.2250  0.0819
  179SLPC   H6X20488   6.670   3.112   9.127  2.5092 -1.1127  0.0445
  179SLPC   H6Y20489   6.520   3.039   9.068 -0.7224 -0.5012  0.9279
  179SLPC   C3720490   6.695   2.923   9.021 -0.0575 -0.3839 -0.0156
  179SLPC   H7X20491   6.646   2.825   9.007 -0.2102 -0.2664 -0.2955
  179SLPC   H7Y20492   6.800   2.917   9.057  0.0662  2.7667  0.4854
  179SLPC   C3820493   6.704   2.985   8.879  0.4865  0.0940 -1.1017
  179SLPC   H8X20494   6.778   2.928   8.819 -0.1195 -2.0317  0.0744
  179SLPC   H8Y20495   6.728   3.093   8.887 -0.4449  0.3573 -1.6447
  179SLPC   C3920496   6.573   2.960   8.792  0.4503  0.4048  0.3822
  179SLPC   H9X20497   6.501   3.026   8.845 -0.4529 -0.3424  0.1103
  179SLPC   H9Y20498   6.549   2.851   8.796 -0.0307  0.4495 -0.9832
  179SLPC  C31020499   6.592   2.995   8.645  0.9144 -0.3500 -0.3894
  179SLPC  H10X20500   6.675   2.934   8.602  2.2514 -0.0462  1.6400
  179SLPC  H10Y20501   6.620   3.102   8.636 -1.8766  0.4692 -0.1989
  179SLPC  C31120502   6.461   2.965   8.566 -0.7633 -0.2244  0.3207
  179SLPC  H11X20503   6.458   3.015   8.467 -2.4657 -1.3605 -0.2465
  179SLPC  H11Y20504   6.383   3.008   8.634  0.5862 -0.5871  2.1720
  179SLPC  C31220505   6.438   2.811   8.550  0.5948  0.0012 -0.4719
  179SLPC  H12X20506   6.390   2.776   8.644  0.9605  0.5288 -0.0782
  179SLPC  H12Y20507   6.537   2.762   8.553  0.4200 -0.2998  0.8531
  179SLPC  C31320508   6.368   2.771   8.419  0.3499  0.3168 -0.0932
  179SLPC  H13X20509   6.274   2.830   8.409  0.0745 -0.3019 -1.5166
  179SLPC  H13Y20510   6.334   2.665   8.416  0.8127  0.1695 -0.3371
  179SLPC  C31420511   6.436   2.796   8.277 -0.2719 -0.5915 -0.2649
  179SLPC  H14X20512   6.527   2.734   8.286  0.0907 -0.0660 -0.3089
  179SLPC  H14Y20513   6.483   2.895   8.264  0.6833 -1.1287 -0.9967
  179SLPC  C31520514   6.337   2.755   8.170 -0.5954 -0.9492  0.6914
  179SLPC  H15X20515   6.241   2.806   8.196 -0.8489 -1.1209  0.0975
  179SLPC  H15Y20516   6.323   2.645   8.167 -1.5380 -0.8462  0.9985
  179SLPC  C31620517   6.362   2.806   8.031  0.2334 -1.0108  0.1602
  179SLPC  H16X20518   6.388   2.914   8.031  2.2104 -1.4491 -0.6315
  179SLPC  H16Y20519   6.271   2.795   7.967 -0.0452 -2.3527  0.7559
  179SLPC  C31720520   6.476   2.736   7.957 -0.2704 -0.1457 -0.0569
  179SLPC  H17X20521   6.444   2.644   7.902  1.1447 -0.8040  0.1561
  179SLPC  H17Y20522   6.554   2.704   8.030  0.3574  0.3115 -0.5180
  179SLPC  C31820523   6.539   2.827   7.857  0.2174 -0.2376 -0.1464
  179SLPC  H18X20524   6.461   2.873   7.792  1.0092  0.2153 -0.7985
  179SLPC  H18Y20525   6.615   2.780   7.791  1.1515 -1.0687  1.4711
  179SLPC  H18Z20526   6.600   2.913   7.893  0.7813 -0.5085 -0.4423
  180SLPC     N20527   6.433   1.287  10.794 -0.3458  0.3023  0.7306
  180SLPC   C1320528   6.529   1.293  10.912  0.6247  0.5003  0.4393
  180SLPC  H13A20529   6.633   1.302  10.884  0.3403 -1.7303 -1.6938
  180SLPC  H13B20530   6.506   1.381  10.970 -0.4686 -0.6945  1.8975
  180SLPC  H13C20531   6.515   1.203  10.971  0.0917 -1.2299 -2.1459
  180SLPC   C1420532   6.295   1.308  10.841 -0.3548  0.5040  0.2703
  180SLPC  H14A20533   6.275   1.250  10.930 -0.8828 -1.3726 -0.9998
  180SLPC  H14B20534   6.267   1.411  10.858  1.0189  1.1911 -1.2809
  180SLPC  H14C20535   6.231   1.289  10.757 -0.9985 -1.0781  1.0792
  180SLPC   C1520536   6.448   1.144  10.740  0.2707  0.1834  0.7297
  180SLPC  H15A20537   6.549   1.127  10.707 -0.4424 -1.1755 -0.9569
  180SLPC  H15B20538   6.423   1.073  10.817  0.8153 -0.3426  0.4230
  180SLPC  H15C20539   6.386   1.123  10.653  0.0356  2.3997  0.2848
  180SLPC   C1220540   6.475   1.389  10.699 -0.9131  0.2362  0.4751
  180SLPC  H12A20541   6.475   1.484  10.752 -1.8632  0.4215  0.1682
  180SLPC  H12B20542   6.410   1.411  10.615  0.0876 -2.2958 -1.0887
  180SLPC   C1120543   6.617   1.384  10.614  0.6612  0.2157 -0.3110
  180SLPC  H11A20544   6.609   1.468  10.542 -2.7491  1.1659  0.9765
  180SLPC  H11B20545   6.620   1.292  10.551 -0.4993  1.2230 -1.8960
  180SLPC     P20546   6.827   1.513  10.738 -0.0128  0.0784  0.1604
  180SLPC   O1320547   6.745   1.598  10.832  0.0567  0.2076  0.1167
  180SLPC   O1420548   6.957   1.473  10.795 -0.3973  0.0370 -0.2447
  180SLPC   O1220549   6.735   1.390  10.697  0.3805 -0.4749 -0.3090
  180SLPC   O1120550   6.845   1.590  10.605  0.4492  0.6189 -0.5859
  180SLPC    C120551   6.957   1.607  10.523 -0.9713  0.7253 -0.1565
  180SLPC    HA20552   6.959   1.714  10.493 -1.8855  0.4139 -1.4028
  180SLPC    HB20553   7.056   1.589  10.571 -0.8459  1.1422 -0.2612
  180SLPC    C220554   6.960   1.515  10.395  0.0728 -0.1643  0.7057
  180SLPC    HS20555   7.038   1.547  10.324 -2.3629  1.2614 -1.5292
  180SLPC   O2120556   6.828   1.535  10.329  0.1360 -0.1584 -0.5841
  180SLPC   C2120557   6.827   1.657  10.270 -0.3617 -0.1544 -0.5487
  180SLPC   O2220558   6.927   1.724  10.250  0.2936 -0.0225  0.0804
  180SLPC   C2220559   6.689   1.682  10.216  0.7226  0.3887 -0.1017
  180SLPC   H2R20560   6.639   1.600  10.161 -0.6886  1.9015 -1.2128
  180SLPC   H2S20561   6.623   1.696  10.305 -0.1533 -0.9338 -0.5263
  180SLPC    C320562   6.983   1.371  10.430 -0.1403 -0.7223  0.3002
  180SLPC    HX20563   6.898   1.340  10.495 -0.6543 -2.8675 -1.2595
  180SLPC    HY20564   7.081   1.382  10.482 -0.0733  0.1330  0.0084
  180SLPC   O3120565   6.999   1.287  10.313 -0.4522 -0.4372  0.2875
  180SLPC   C3120566   7.056   1.178  10.344 -1.2292  0.2972 -0.2952
  180SLPC   O3220567   7.093   1.141  10.455 -0.1951  0.4192 -0.0916
  180SLPC   C3220568   7.080   1.093  10.221  0.5322  0.7673 -0.5304
  180SLPC   H2X20569   7.182   1.095  10.178  0.9723 -3.3150 -0.0449
  180SLPC   H2Y20570   7.008   1.124  10.142 -1.1208 -3.8990 -1.1375
  180SLPC   C2320571   6.686   1.798  10.110 -0.5755  0.2559 -0.1486
  180SLPC   H3R20572   6.724   1.892  10.153 -1.6473  0.0736  1.2737
  180SLPC   H3S20573   6.577   1.804  10.090 -0.1940  0.7915 -2.4249
  180SLPC   C2420574   6.755   1.765   9.978  0.0772 -0.0853 -0.8514
  180SLPC   H4R20575   6.866   1.752   9.984  0.2129  1.5795  1.5938
  180SLPC   H4S20576   6.731   1.852   9.914 -0.1262  0.0379 -0.6064
  180SLPC   C2520577   6.705   1.653   9.891 -0.0798  0.0347  0.1383
  180SLPC   H5R20578   6.594   1.656   9.895 -0.1430  3.4221 -0.9731
  180SLPC   H5S20579   6.738   1.558   9.939  0.8872  0.5224  0.4556
  180SLPC   C2620580   6.762   1.664   9.747  0.0172  0.2713 -0.4179
  180SLPC   H6R20581   6.719   1.757   9.704  1.2984  0.7668 -0.6614
  180SLPC   H6S20582   6.722   1.578   9.689  0.3385  0.7461 -1.3584
  180SLPC   C2720583   6.918   1.650   9.732 -0.6770 -0.6894  0.5495
  180SLPC   H7R20584   6.955   1.548   9.757  0.7605 -0.5463 -0.8200
  180SLPC   H7S20585   6.973   1.733   9.781  1.2737  0.1315 -2.6845
  180SLPC   C2820586   6.973   1.663   9.587 -0.1541  0.0280  0.3764
  180SLPC   H8R20587   6.928   1.572   9.543  0.7425 -1.7390  2.8613
  180SLPC   H8S20588   7.083   1.646   9.590 -0.2386 -0.4951  0.5437
  180SLPC   C2920589   6.932   1.777   9.502 -0.4342 -0.4531 -0.1209
  180SLPC   H9R20590   6.854   1.833   9.557  0.8331  0.1664  1.1006
  180SLPC  C21020591   6.970   1.818   9.382 -0.0484  0.2703  0.7305
  180SLPC  H10R20592   6.917   1.902   9.335  0.4226  0.2533  0.1644
  180SLPC  C21120593   7.078   1.760   9.299  0.6968  0.0316  0.6224
  180SLPC  H11R20594   7.054   1.790   9.195 -1.8809 -0.3794  1.0275
  180SLPC  H11S20595   7.056   1.652   9.287  0.6492  0.3245 -3.1718
  180SLPC  C21220596   7.213   1.817   9.343 -0.2858 -0.2996  0.1212
  180SLPC  H12R20597   7.224   1.885   9.430  0.8192  0.5311 -0.6474
  180SLPC  C21320598   7.325   1.774   9.282  0.3594  0.4362 -0.2272
  180SLPC  H13R20599   7.428   1.806   9.303  0.7862 -0.9052 -0.1970
  180SLPC  C21420600   7.326   1.669   9.169  0.4381 -0.3245 -0.1683
  180SLPC  H14R20601   7.245   1.594   9.184 -0.9996  1.1868 -0.1783
  180SLPC  H14S20602   7.418   1.608   9.183  0.2227 -0.7375 -0.5367
  180SLPC  C21520603   7.313   1.734   9.022 -0.0121 -0.5905 -0.0576
  180SLPC  H15R20604   7.403   1.799   9.008  0.4066 -1.0822  0.3089
  180SLPC  H15S20605   7.225   1.801   9.022  0.6983  0.3760 -0.3080
  180SLPC  C21620606   7.318   1.647   8.905 -0.3221  0.6962 -0.5662
  180SLPC  H16R20607   7.255   1.558   8.928 -1.3606  1.6437  0.3200
  180SLPC  H16S20608   7.415   1.595   8.888 -0.6508 -0.1382  0.0582
  180SLPC  C21720609   7.261   1.705   8.779  0.1123  0.5921 -0.4099
  180SLPC  H17R20610   7.280   1.813   8.760  0.3832  0.4556 -0.9416
  180SLPC  H17S20611   7.151   1.697   8.788  0.0338 -1.6941 -2.2269
  180SLPC  C21820612   7.307   1.621   8.667  0.7731 -0.1503 -0.5947
  180SLPC  H18R20613   7.284   1.514   8.681  0.7668 -0.1655 -0.7183
  180SLPC  H18S20614   7.416   1.615   8.645  0.4663 -1.5503 -1.8827
  180SLPC  H18T20615   7.257   1.640   8.569  2.0384 -2.6720 -1.8322
  180SLPC   C3320616   7.044   0.947  10.249  0.2156  0.9266  0.4996
  180SLPC   H3X20617   6.935   0.939  10.270 -0.2967  1.8709 -1.5293
  180SLPC   H3Y20618   7.086   0.911  10.345  2.0088  2.2671  0.2634
  180SLPC   C3420619   7.081   0.854  10.141 -0.1670  0.3377  0.1734
  180SLPC   H4X20620   7.189   0.829  10.139 -0.0233  0.9909 -0.2779
  180SLPC   H4Y20621   7.052   0.901  10.045  0.8932  0.0536 -0.2934
  180SLPC   C3520622   7.001   0.723  10.144 -0.2283 -0.3382  0.6905
  180SLPC   H5X20623   6.893   0.744  10.131 -0.4012 -2.3218 -1.8389
  180SLPC   H5Y20624   7.015   0.679  10.245  3.5406 -0.8680  0.0840
  180SLPC   C3620625   7.041   0.613  10.045  0.0227  0.6528  0.3654
  180SLPC   H6X20626   7.020   0.509  10.081  1.1939  0.8237  1.6289
  180SLPC   H6Y20627   7.152   0.615  10.035  0.0266  1.6810  0.5647
  180SLPC   C3720628   6.977   0.632   9.903  0.0080  0.5007 -0.5246
  180SLPC   H7X20629   6.997   0.729   9.854 -0.4679  1.2961  0.7980
  180SLPC   H7Y20630   6.868   0.648   9.920  0.4649  1.2019  2.3705
  180SLPC   C3820631   6.998   0.518   9.800 -0.6102 -0.4141  0.0534
  180SLPC   H8X20632   6.961   0.421   9.840 -0.5494  0.0810  1.3814
  180SLPC   H8Y20633   7.107   0.500   9.795 -0.6519 -0.9988  0.9341
  180SLPC   C3920634   6.933   0.549   9.670  0.1479  0.2520 -0.5468
  180SLPC   H9X20635   6.981   0.643   9.633  0.5599  0.6157  0.8572
  180SLPC   H9Y20636   6.831   0.581   9.699  1.4491  3.0775  1.4158
  180SLPC  C31020637   6.948   0.445   9.562  0.0822 -0.1152 -0.1763
  180SLPC  H10X20638   6.890   0.355   9.592  0.3116 -0.4413 -0.6835
  180SLPC  H10Y20639   7.055   0.417   9.556  0.0464 -0.3152  0.0949
  180SLPC  C31120640   6.909   0.493   9.421  1.0159 -0.4980  1.3045
  180SLPC  H11X20641   6.944   0.596   9.400 -3.2252  0.7416 -0.6883
  180SLPC  H11Y20642   6.799   0.502   9.417  1.2384  2.6578 -0.2112
  180SLPC  C31220643   6.979   0.397   9.320  0.3107  0.0068  0.5537
  180SLPC  H12X20644   6.946   0.292   9.339 -0.9244 -0.1910 -2.1235
  180SLPC  H12Y20645   7.089   0.400   9.329  0.2750  0.6097  0.8465
  180SLPC  C31320646   6.931   0.424   9.179  0.0460  0.1269  0.7253
  180SLPC  H13X20647   6.966   0.338   9.117  0.9824 -1.4057  3.2563
  180SLPC  H13Y20648   6.971   0.519   9.138  0.0858 -0.7505 -1.4200
  180SLPC  C31420649   6.778   0.424   9.173  0.1801 -0.2700 -0.1740
  180SLPC  H14X20650   6.733   0.515   9.219  0.9145  0.7472 -1.4204
  180SLPC  H14Y20651   6.750   0.330   9.224  0.9343 -1.6827 -2.2510
  180SLPC  C31520652   6.726   0.414   9.033 -0.0721  0.0351  0.0731
  180SLPC  H15X20653   6.617   0.433   9.035  0.2936  2.3807 -0.1358
  180SLPC  H15Y20654   6.742   0.309   8.998  3.0182  0.1880  0.7385
  180SLPC  C31620655   6.804   0.488   8.922 -0.5915 -0.1411 -0.2650
  180SLPC  H16X20656   6.904   0.440   8.929 -0.9025 -0.5521  2.5102
  180SLPC  H16Y20657   6.821   0.594   8.949 -0.9420 -0.4872  1.4196
  180SLPC  C31720658   6.726   0.476   8.791 -0.9320  0.6785  0.5055
  180SLPC  H17X20659   6.619   0.497   8.812 -1.0756 -1.1665  1.8597
  180SLPC  H17Y20660   6.749   0.375   8.751 -0.1728  0.9013  0.3565
  180SLPC  C31820661   6.770   0.589   8.697 -0.3990  0.5147  0.1697
  180SLPC  H18X20662   6.846   0.563   8.620 -0.8330  3.4151 -1.3632
  180SLPC  H18Y20663   6.798   0.682   8.751  1.1708  1.0273 -1.4124
  180SLPC  H18Z20664   6.681   0.610   8.636 -0.6981 -0.3629  0.2849
  181SLPC     N20665   4.441   5.220  10.867 -0.1589 -0.0677  0.2986
  181SLPC   C1320666   4.326   5.288  10.931  0.6524 -0.1541  0.2912
  181SLPC  H13A20667   4.247   5.305  10.859 -0.8529 -1.3658  1.5846
  181SLPC  H13B20668   4.288   5.242  11.021  1.1049 -0.6685  0.2293
  181SLPC  H13C20669   4.368   5.375  10.978  0.9817 -0.7047  1.0445
  181SLPC   C1420670   4.557   5.218  10.955  0.8045  0.1574 -0.3102
  181SLPC  H14A20671   4.523   5.164  11.043  0.7589 -1.7150 -1.4129
  181SLPC  H14B20672   4.636   5.155  10.918  0.0387 -0.7384 -0.4655
  181SLPC  H14C20673   4.586   5.317  10.985  1.0116  0.1193 -0.3831
  181SLPC   C1520674   4.475   5.305  10.739  0.0700 -0.1573  0.2246
  181SLPC  H15A20675   4.460   5.407  10.770  0.9283 -0.2308  0.9218
  181SLPC  H15B20676   4.581   5.309  10.717 -0.1018  1.0594 -0.5074
  181SLPC  H15C20677   4.404   5.283  10.661  0.4648  1.4290 -0.6160
  181SLPC   C1220678   4.415   5.079  10.822  0.4798  0.1012 -0.3440
  181SLPC  H12A20679   4.493   5.031  10.764 -1.4117 -1.6119 -1.6402
  181SLPC  H12B20680   4.336   5.078  10.748 -0.5979  0.0954  0.7795
  181SLPC   C1120681   4.384   4.973  10.938 -0.0894 -0.3431  0.2950
  181SLPC  H11A20682   4.476   4.958  10.998  0.6556 -0.7137 -0.8968
  181SLPC  H11B20683   4.374   4.874  10.888 -1.3869 -0.2679  0.3622
  181SLPC     P20684   4.125   4.974  10.965 -0.0245  0.2000 -0.3237
  181SLPC   O1320685   4.086   4.832  10.988 -0.8622 -0.6850  0.2759
  181SLPC   O1420686   4.044   5.069  11.035  0.3866 -0.1754 -0.7085
  181SLPC   O1220687   4.272   4.995  11.020  0.1056 -0.1696  0.2241
  181SLPC   O1120688   4.126   5.013  10.809  0.3615 -0.2923  0.0378
  181SLPC    C120689   4.021   5.083  10.742  0.0594  0.1542  0.4195
  181SLPC    HA20690   3.996   5.174  10.801  0.8749  2.6871 -2.8020
  181SLPC    HB20691   4.061   5.131  10.650  1.0764 -0.9019  0.2865
  181SLPC    C220692   3.889   5.003  10.718  0.6328 -0.6927  0.5740
  181SLPC    HS20693   3.863   4.950  10.813 -1.4721 -2.1634 -0.7542
  181SLPC   O2120694   3.922   4.910  10.610  1.0684  0.4274 -0.2084
  181SLPC   C2120695   3.893   4.784  10.638  0.0051  0.4322 -0.0953
  181SLPC   O2220696   3.836   4.740  10.738 -0.1698  0.3190  0.4245
  181SLPC   C2220697   3.950   4.689  10.537 -0.4744 -0.8677  0.9252
  181SLPC   H2R20698   4.016   4.754  10.474 -0.6203  1.2981  2.8833
  181SLPC   H2S20699   4.027   4.623  10.584  0.6431 -0.5370 -0.3684
  181SLPC    C320700   3.785   5.100  10.660 -0.2453 -0.0747 -0.5171
  181SLPC    HX20701   3.827   5.157  10.574  1.0709 -2.3029 -1.4612
  181SLPC    HY20702   3.758   5.169  10.742 -2.0865  0.2704 -1.3815
  181SLPC   O3120703   3.683   5.020  10.601 -0.0439 -0.0788  0.1331
  181SLPC   C3120704   3.568   5.012  10.659 -0.1875  0.4664  0.1219
  181SLPC   O3220705   3.539   5.076  10.758 -0.5936  0.1143 -0.3439
  181SLPC   C3220706   3.464   4.941  10.571 -0.6379  0.4407 -0.0396
  181SLPC   H2X20707   3.424   4.855  10.628 -1.8121  0.4280 -0.8442
  181SLPC   H2Y20708   3.496   4.888  10.479 -0.2086 -1.7281  1.3158
  181SLPC   C2320709   3.860   4.592  10.458 -0.2328 -0.6733 -0.0527
  181SLPC   H3R20710   3.796   4.533  10.528 -0.0681  0.1362  0.7952
  181SLPC   H3S20711   3.927   4.523  10.403  0.5759  0.8098 -1.0038
  181SLPC   C2420712   3.785   4.674  10.350 -0.8982 -0.4444  0.1274
  181SLPC   H4R20713   3.829   4.775  10.348 -0.8120 -0.4396 -3.1157
  181SLPC   H4S20714   3.677   4.687  10.375 -0.5836  1.0827  0.7854
  181SLPC   C2520715   3.798   4.627  10.198  0.2507 -0.3225  0.3127
  181SLPC   H5R20716   3.772   4.519  10.201 -0.8870 -0.1102  4.4724
  181SLPC   H5S20717   3.904   4.628  10.165  0.1220 -1.0498 -0.1681
  181SLPC   C2620718   3.711   4.717  10.108  0.4267 -0.2829 -0.1676
  181SLPC   H6R20719   3.728   4.826  10.117  2.9389 -0.3869 -2.5167
  181SLPC   H6S20720   3.605   4.715  10.141  0.2542  2.8884 -0.2849
  181SLPC   C2720721   3.701   4.671   9.953 -0.2276 -0.8067 -0.1751
  181SLPC   H7R20722   3.673   4.564   9.961 -1.5247 -0.3246  2.6608
  181SLPC   H7S20723   3.800   4.692   9.907  0.8915 -1.2658  1.9063
  181SLPC   C2820724   3.599   4.747   9.871  0.5511 -0.3613 -0.3560
  181SLPC   H8R20725   3.503   4.750   9.926 -1.1925 -0.4431 -3.1692
  181SLPC   H8S20726   3.578   4.692   9.776  0.6294 -0.1291 -0.5075
  181SLPC   C2920727   3.633   4.890   9.837 -0.1511  0.7794 -0.4730
  181SLPC   H9R20728   3.655   4.955   9.923 -0.1077  0.9776 -0.6336
  181SLPC  C21020729   3.644   4.937   9.710  0.1452 -0.7643  0.0130
  181SLPC  H10R20730   3.660   5.046   9.705 -0.5471 -0.6180  0.8632
  181SLPC  C21120731   3.626   4.867   9.570 -0.9622 -0.3895 -0.0874
  181SLPC  H11R20732   3.552   4.917   9.505  0.2453  2.2765  0.4575
  181SLPC  H11S20733   3.606   4.758   9.579  0.2301 -0.6239 -0.0718
  181SLPC  C21220734   3.758   4.868   9.495  0.2529  0.3336 -0.8946
  181SLPC  H12R20735   3.831   4.792   9.523  1.9134  1.8484 -0.9455
  181SLPC  C21320736   3.790   4.942   9.390  0.4159  0.6720 -0.4660
  181SLPC  H13R20737   3.892   4.924   9.356  0.7156  0.6832  0.3927
  181SLPC  C21420738   3.707   5.051   9.326 -0.2740 -0.0507 -0.4352
  181SLPC  H14R20739   3.774   5.139   9.313  2.2723 -1.2905  2.8528
  181SLPC  H14S20740   3.633   5.101   9.393 -0.7601 -0.1613 -0.8777
  181SLPC  C21520741   3.635   5.043   9.190 -0.2891  0.7526 -0.2975
  181SLPC  H15R20742   3.555   5.120   9.186  1.5423  2.9795  2.6335
  181SLPC  H15S20743   3.591   4.941   9.191 -2.5839  1.6606  1.7550
  181SLPC  C21620744   3.717   5.044   9.057  0.1934 -0.2035  0.2968
  181SLPC  H16R20745   3.782   4.953   9.058  0.9967  0.3541 -0.4380
  181SLPC  H16S20746   3.783   5.132   9.055 -0.0167  0.0414  2.1487
  181SLPC  C21720747   3.629   5.046   8.930 -0.2834 -0.3829  0.6639
  181SLPC  H17R20748   3.586   5.148   8.922  0.3970 -0.0279  1.3501
  181SLPC  H17S20749   3.544   4.976   8.943 -1.2767  0.6432 -0.1425
  181SLPC  C21820750   3.707   5.005   8.801  0.4327  1.0631 -0.5298
  181SLPC  H18R20751   3.635   4.975   8.721  0.6007  0.9132 -0.6269
  181SLPC  H18S20752   3.767   4.912   8.810 -1.3723 -0.3494 -2.2151
  181SLPC  H18T20753   3.778   5.083   8.765  2.0116 -0.8632 -1.8243
  181SLPC   C3320754   3.338   5.028  10.548  0.3762 -0.5167  0.6906
  181SLPC   H3X20755   3.326   5.096  10.634 -0.4229 -2.0434  1.8463
  181SLPC   H3Y20756   3.246   4.965  10.545  0.9443 -1.3889  1.1253
  181SLPC   C3420757   3.343   5.123  10.423  0.0600 -0.0365 -0.3832
  181SLPC   H4X20758   3.433   5.188  10.418  1.1053 -1.5130 -2.1387
  181SLPC   H4Y20759   3.257   5.192  10.416  0.7455  0.7580 -1.1375
  181SLPC   C3520760   3.341   5.044  10.292 -0.6113  0.5013  0.2957
  181SLPC   H5X20761   3.246   4.989  10.277  0.1502 -0.8626  0.3051
  181SLPC   H5Y20762   3.416   4.962  10.291 -0.3293  0.6347  3.0248
  181SLPC   C3620763   3.352   5.134  10.170  0.1385 -0.5165 -0.4501
  181SLPC   H6X20764   3.427   5.215  10.176 -0.2610 -0.2583  2.5045
  181SLPC   H6Y20765   3.253   5.186  10.168  0.1112 -0.5433  0.2072
  181SLPC   C3720766   3.348   5.066  10.032  0.1155  0.2211 -0.7461
  181SLPC   H7X20767   3.246   5.026  10.015  0.5061 -0.4087 -1.6896
  181SLPC   H7Y20768   3.427   4.987  10.038  0.1603  0.3586  1.7103
  181SLPC   C3820769   3.376   5.166   9.922  0.1857 -0.3868 -0.0114
  181SLPC   H8X20770   3.485   5.175   9.904  0.4704 -0.8703  1.3773
  181SLPC   H8Y20771   3.347   5.271   9.940  1.5775 -0.0684  0.4668
  181SLPC   C3920772   3.300   5.131   9.786  0.2267 -1.1149  0.1511
  181SLPC   H9X20773   3.190   5.141   9.798  0.1585 -1.8956  0.2612
  181SLPC   H9Y20774   3.325   5.025   9.762  1.1637 -0.9749  0.4666
  181SLPC  C31020775   3.361   5.205   9.664  0.0648 -0.6387  0.1499
  181SLPC  H10X20776   3.464   5.164   9.666  0.0282 -0.7118  0.6988
  181SLPC  H10Y20777   3.367   5.312   9.693 -2.5481 -0.5065  0.4128
  181SLPC  C31120778   3.278   5.204   9.534  0.3935 -0.0966  0.7694
  181SLPC  H11X20779   3.191   5.262   9.570  0.0545 -0.6642  0.8801
  181SLPC  H11Y20780   3.239   5.103   9.509 -0.2088  0.4036 -0.3468
  181SLPC  C31220781   3.331   5.277   9.414  0.1207 -0.1070 -0.5922
  181SLPC  H12X20782   3.428   5.230   9.386 -1.2490 -1.7702 -2.9700
  181SLPC  H12Y20783   3.360   5.379   9.446  0.2496 -0.9239  2.1185
  181SLPC  C31320784   3.248   5.269   9.284  0.0035 -0.4150  0.9945
  181SLPC  H13X20785   3.144   5.303   9.301  0.4044  0.8509  1.0601
  181SLPC  H13Y20786   3.236   5.165   9.248 -1.3529  0.5121 -1.5257
  181SLPC  C31420787   3.321   5.352   9.175  0.6430  0.2336 -0.5506
  181SLPC  H14X20788   3.429   5.326   9.174  0.5811 -0.0127 -1.4208
  181SLPC  H14Y20789   3.327   5.457   9.212 -0.7225 -0.0806  0.6384
  181SLPC  C31520790   3.260   5.342   9.030 -0.3250  0.0896 -0.1955
  181SLPC  H15X20791   3.270   5.236   8.998 -1.7287 -0.1773  0.1838
  181SLPC  H15Y20792   3.343   5.394   8.976  1.7881 -1.2661  1.5581
  181SLPC  C31620793   3.120   5.390   8.995  0.1293 -0.4543 -0.0798
  181SLPC  H16X20794   3.113   5.500   9.004  0.8911 -0.4777  1.0325
  181SLPC  H16Y20795   3.040   5.344   9.056 -2.4963  0.3332 -2.7116
  181SLPC  C31720796   3.087   5.350   8.848  0.7672  0.1395 -0.0479
  181SLPC  H17X20797   3.178   5.351   8.784  0.6359 -1.3303 -0.3029
  181SLPC  H17Y20798   3.017   5.426   8.807  0.1598  0.2006  1.0468
  181SLPC  C31820799   3.017   5.214   8.848  0.4155  0.4351  0.4309
  181SLPC  H18X20800   3.086   5.156   8.913 -0.0758  0.3746  0.9023
  181SLPC  H18Y20801   3.032   5.168   8.748  2.2297  3.3958 -0.7871
  181SLPC  H18Z20802   2.911   5.218   8.882 -0.1969  0.6165 -1.3776
  182SLPC     N20803   1.426   6.821  10.924  0.6976  0.0623  0.1465
  182SLPC   C1320804   1.475   6.758  11.053  0.8445 -0.2140 -0.5022
  182SLPC  H13A20805   1.407   6.767  11.136  1.0539  3.1903 -0.5519
  182SLPC  H13B20806   1.481   6.653  11.028 -0.6131 -0.7162  1.0633
  182SLPC  H13C20807   1.569   6.798  11.086  1.5999 -0.7910 -1.8565
  182SLPC   C1420808   1.375   6.952  10.967  0.3692 -0.0018 -0.6715
  182SLPC  H14A20809   1.297   6.933  11.039 -0.0225  1.5993 -0.6376
  182SLPC  H14B20810   1.440   7.034  10.995  0.9461 -0.4457 -0.6831
  182SLPC  H14C20811   1.324   6.999  10.884 -1.7849  0.5269  0.8525
  182SLPC   C1520812   1.321   6.728  10.871 -0.0668  0.3412  0.2167
  182SLPC  H15A20813   1.360   6.637  10.828 -0.4605 -0.1044  0.7810
  182SLPC  H15B20814   1.248   6.700  10.946  1.6408 -0.4244  1.6564
  182SLPC  H15C20815   1.265   6.788  10.800  0.8472  1.9102  0.7808
  182SLPC   C1220816   1.524   6.847  10.811  0.3031 -0.9930 -0.3801
  182SLPC  H12A20817   1.566   6.752  10.781  0.1188 -1.2771  0.2378
  182SLPC  H12B20818   1.613   6.904  10.835 -0.4200  1.0921 -2.3150
  182SLPC   C1120819   1.464   6.919  10.680  0.0439  0.1735  0.4975
  182SLPC  H11A20820   1.375   6.868  10.637  1.1017 -2.8393  1.6485
  182SLPC  H11B20821   1.542   6.919  10.601 -0.0767  2.3956  0.3289
  182SLPC     P20822   1.522   7.190  10.690 -0.5120  0.1729 -0.3649
  182SLPC   O1320823   1.453   7.300  10.759 -0.1270  0.0319  0.6677
  182SLPC   O1420824   1.665   7.168  10.729  0.4772  1.1258  0.8493
  182SLPC   O1220825   1.429   7.057  10.702 -0.5176 -0.0889 -0.2502
  182SLPC   O1120826   1.525   7.223  10.531 -0.1194  0.3624 -0.1327
  182SLPC    C120827   1.394   7.242  10.472  0.0791  0.7056 -0.6318
  182SLPC    HA20828   1.310   7.252  10.544  0.8980 -0.2510  0.4979
  182SLPC    HB20829   1.389   7.338  10.416 -3.1164  0.8983 -0.1973
  182SLPC    C220830   1.360   7.136  10.367 -0.5519 -0.4598  0.0771
  182SLPC    HS20831   1.314   7.044  10.408  0.0293 -1.0750 -0.6177
  182SLPC   O2120832   1.474   7.107  10.288 -0.2036 -0.4291 -0.2575
  182SLPC   C2120833   1.496   6.980  10.239  0.0635 -0.5318  0.8205
  182SLPC   O2220834   1.415   6.890  10.242  0.3542  0.0831  0.1069
  182SLPC   C2220835   1.634   6.961  10.166  0.0347  0.5460 -1.0724
  182SLPC   H2R20836   1.684   7.059  10.156  0.1429  0.6393  0.2665
  182SLPC   H2S20837   1.699   6.901  10.233  0.8087  1.6854 -0.7813
  182SLPC    C320838   1.239   7.184  10.280  0.0841 -0.0633 -0.4621
  182SLPC    HX20839   1.250   7.289  10.247  0.2841  0.2075  0.4426
  182SLPC    HY20840   1.148   7.182  10.345 -2.2634 -1.0312 -3.5188
  182SLPC   O3120841   1.220   7.102  10.169  0.3515  0.0295  0.2539
  182SLPC   C3120842   1.140   6.993  10.180 -0.0438 -0.2175  0.7258
  182SLPC   O3220843   1.087   6.963  10.283 -0.8499  0.2308  0.1632
  182SLPC   C3220844   1.115   6.924  10.046  1.2471 -0.3165 -0.4667
  182SLPC   H2X20845   1.027   6.970   9.995  0.0135  0.3544  2.1088
  182SLPC   H2Y20846   1.104   6.816  10.071 -3.3997  0.1454  0.3748
  182SLPC   C2320847   1.635   6.866  10.046 -0.6564  0.1878 -1.0511
  182SLPC   H3R20848   1.559   6.883   9.967 -0.0479 -1.0319 -1.9210
  182SLPC   H3S20849   1.623   6.759  10.072 -0.2292 -0.6619 -4.0179
  182SLPC   C2420850   1.778   6.868   9.977  0.6808 -0.5649 -0.9923
  182SLPC   H4R20851   1.848   6.826  10.052  1.5927 -0.1907 -1.6136
  182SLPC   H4S20852   1.804   6.975   9.962 -1.1202  0.0585 -0.0142
  182SLPC   C2520853   1.783   6.784   9.856  0.3515  0.0308 -0.0859
  182SLPC   H5R20854   1.716   6.696   9.865 -0.8084  0.9061 -0.0132
  182SLPC   H5S20855   1.891   6.764   9.841  0.1900  0.2513 -1.7608
  182SLPC   C2620856   1.747   6.859   9.725 -0.4212 -0.2890  0.1229
  182SLPC   H6R20857   1.785   6.963   9.736  2.0787 -1.0355 -0.6791
  182SLPC   H6S20858   1.637   6.862   9.713 -0.2741 -0.9060 -1.7394
  182SLPC   C2720859   1.799   6.782   9.608  0.5164  0.3787 -0.3942
  182SLPC   H7R20860   1.767   6.678   9.627  1.8323 -0.1113 -0.7186
  182SLPC   H7S20861   1.909   6.772   9.616  0.9487  3.6545 -0.7953
  182SLPC   C2820862   1.749   6.820   9.467 -0.7535  0.0932  0.3350
  182SLPC   H8R20863   1.796   6.917   9.440  0.2702 -0.6868 -0.7749
  182SLPC   H8S20864   1.639   6.834   9.477 -0.8457 -1.5291  2.2295
  182SLPC   C2920865   1.773   6.711   9.372 -0.2845 -0.6671 -0.3998
  182SLPC   H9R20866   1.718   6.617   9.389 -0.1200 -0.5626  0.7601
  182SLPC  C21020867   1.862   6.711   9.272 -0.7651  0.0561  0.0560
  182SLPC  H10R20868   1.872   6.639   9.189 -0.0827  2.3229 -1.9630
  182SLPC  C21120869   1.956   6.829   9.240  0.0066  0.7162 -0.1709
  182SLPC  H11R20870   2.047   6.781   9.199 -1.3555 -0.8059 -1.5118
  182SLPC  H11S20871   1.978   6.884   9.334 -1.9584 -0.0639  0.7987
  182SLPC  C21220872   1.900   6.924   9.143  0.9729 -0.5833  0.7414
  182SLPC  H12R20873   1.792   6.939   9.155  0.5928 -1.6508 -1.0436
  182SLPC  C21320874   1.959   6.993   9.049  0.1638  0.2196 -0.0968
  182SLPC  H13R20875   1.892   7.046   8.980 -2.0576 -0.4006  1.4999
  182SLPC  C21420876   2.104   7.001   9.024 -0.7367 -0.0740  0.1873
  182SLPC  H14R20877   2.157   6.941   9.101 -3.2726 -1.7130  0.7905
  182SLPC  H14S20878   2.138   7.106   9.027  1.6227 -0.7616 -0.6467
  182SLPC  C21520879   2.142   6.953   8.884 -0.3446  0.7717  0.3942
  182SLPC  H15R20880   2.116   6.847   8.865 -0.3855  0.8795 -0.1566
  182SLPC  H15S20881   2.252   6.965   8.873 -0.3267 -0.0214 -0.3321
  182SLPC  C21620882   2.082   7.036   8.763  0.4545 -0.0519 -1.0386
  182SLPC  H16R20883   2.115   7.139   8.786 -2.1755  1.2410 -2.5191
  182SLPC  H16S20884   1.972   7.038   8.779  0.6265  1.0250  0.0949
  182SLPC  C21720885   2.143   6.994   8.624 -0.3409  0.3767 -0.4219
  182SLPC  H17R20886   2.129   6.885   8.604 -0.4819  0.1173  0.9841
  182SLPC  H17S20887   2.251   7.016   8.630 -0.6851  2.0053  0.3212
  182SLPC  C21820888   2.100   7.067   8.496 -0.7878  0.3489 -0.2018
  182SLPC  H18R20889   2.109   7.004   8.405 -0.6159  0.0964 -0.0122
  182SLPC  H18S20890   2.157   7.161   8.479  0.5976 -0.2279  0.9493
  182SLPC  H18T20891   1.990   7.075   8.507 -0.9207 -0.4779 -0.8649
  182SLPC   C3320892   1.227   6.941   9.945 -0.0804  0.4904 -0.5590
  182SLPC   H3X20893   1.319   6.900   9.993 -0.9570  0.5519  1.2849
  182SLPC   H3Y20894   1.246   7.049   9.927  2.1445  0.4488  1.1347
  182SLPC   C3420895   1.188   6.874   9.811  0.5252 -0.0217 -1.3623
  182SLPC   H4X20896   1.103   6.937   9.777  0.2098 -0.1952 -0.9054
  182SLPC   H4Y20897   1.152   6.770   9.828 -0.6571  0.8777  2.4183
  182SLPC   C3520898   1.283   6.890   9.700  0.7302 -0.3479 -0.5293
  182SLPC   H5X20899   1.388   6.860   9.717  1.0500  0.6990 -0.5474
  182SLPC   H5Y20900   1.300   6.999   9.688  0.1338 -0.4339 -2.4332
  182SLPC   C3620901   1.228   6.840   9.564 -0.3033  0.1756  0.7699
  182SLPC   H6X20902   1.119   6.857   9.545  0.2594  2.5272 -0.8185
  182SLPC   H6Y20903   1.241   6.730   9.560 -2.6310 -0.1590  0.5760
  182SLPC   C3720904   1.312   6.900   9.454 -0.5734 -0.4545 -0.1546
  182SLPC   H7X20905   1.416   6.876   9.486 -0.6967 -1.2921 -0.3573
  182SLPC   H7Y20906   1.301   7.010   9.443  3.7053  0.0664 -1.3028
  182SLPC   C3820907   1.280   6.837   9.315  0.3676  0.1613  0.0023
  182SLPC   H8X20908   1.175   6.849   9.279  0.6693 -0.8772 -1.2982
  182SLPC   H8Y20909   1.304   6.728   9.316 -0.8205 -0.1180  0.6565
  182SLPC   C3920910   1.365   6.900   9.210 -0.0460 -0.0194 -0.1118
  182SLPC   H9X20911   1.460   6.929   9.258 -0.5465  2.7093 -0.6022
  182SLPC   H9Y20912   1.319   7.000   9.193 -2.9637 -1.2065  0.1928
  182SLPC  C31020913   1.362   6.829   9.081 -0.5904  0.5786  0.5169
  182SLPC  H10X20914   1.255   6.815   9.052 -0.9035  1.5928  1.1214
  182SLPC  H10Y20915   1.410   6.732   9.102  0.0102  1.1351  1.7976
  182SLPC  C31120916   1.458   6.897   8.978 -0.2173  0.7792  0.0402
  182SLPC  H11X20917   1.475   6.817   8.902 -1.6247 -0.0819  0.5942
  182SLPC  H11Y20918   1.554   6.916   9.031  0.3828  0.6968 -0.9860
  182SLPC  C31220919   1.405   7.029   8.911 -0.6333 -0.0864  0.0287
  182SLPC  H12X20920   1.413   7.102   8.995  0.2891  1.2148 -1.1451
  182SLPC  H12Y20921   1.295   7.017   8.897 -0.0745 -3.7908 -2.5457
  182SLPC  C31320922   1.466   7.086   8.776  0.0735  0.4029 -0.0754
  182SLPC  H13X20923   1.573   7.057   8.767  0.2647  0.9162  0.4938
  182SLPC  H13Y20924   1.458   7.196   8.792 -0.4616  0.2144  1.0634
  182SLPC  C31420925   1.378   7.041   8.653 -0.4030 -0.2378 -0.0554
  182SLPC  H14X20926   1.440   7.082   8.571  0.6681  1.8437  1.6758
  182SLPC  H14Y20927   1.282   7.098   8.657  0.2828  0.9005  1.3573
  182SLPC  C31520928   1.346   6.891   8.634 -0.4289 -0.0082 -0.3343
  182SLPC  H15X20929   1.302   6.858   8.731  1.5443  1.3262  1.0866
  182SLPC  H15Y20930   1.438   6.829   8.621  0.7440  1.6625 -0.3220
  182SLPC  C31620931   1.238   6.850   8.537 -0.3205 -0.4340 -0.1592
  182SLPC  H16X20932   1.244   6.935   8.465  3.7004 -1.9497 -1.8568
  182SLPC  H16Y20933   1.142   6.865   8.592 -0.1884  0.1337 -0.0721
  182SLPC  C31720934   1.257   6.717   8.470  0.2901  0.3729  0.2510
  182SLPC  H17X20935   1.243   6.638   8.547  1.0583  0.1089  0.1225
  182SLPC  H17Y20936   1.354   6.708   8.418  1.1141  1.9865  1.4211
  182SLPC  C31820937   1.147   6.697   8.365  0.2418  0.0358  0.1902
  182SLPC  H18X20938   1.042   6.694   8.404 -0.7163 -1.4208 -2.2324
  182SLPC  H18Y20939   1.171   6.608   8.303 -3.0177 -0.9048  0.0620
  182SLPC  H18Z20940   1.158   6.784   8.297 -0.7329  0.6867  0.8255
  183SLPC     N20941   2.462   0.029  10.740  0.0108  0.2011  0.3679
  183SLPC   C1320942   2.453   0.132  10.638 -0.0724  0.2565 -0.1512
  183SLPC  H13A20943   2.552   0.163  10.606  0.5692 -0.7154  0.8178
  183SLPC  H13B20944   2.405   0.094  10.549  1.6280 -0.2571 -0.8909
  183SLPC  H13C20945   2.400   0.222  10.665  0.4190  0.8682 -1.1418
  183SLPC   C1420946   2.320  -0.008  10.791 -0.0669 -0.1789  0.3532
  183SLPC  H14A20947   2.265   0.084  10.802  1.3828  1.0104 -1.6831
  183SLPC  H14B20948   2.258  -0.063  10.721 -1.3993  1.5219  0.1222
  183SLPC  H14C20949   2.323  -0.057  10.887 -3.6599  1.7923  1.6739
  183SLPC   C1520950   2.541   0.093  10.850  0.7524  0.6441  0.2092
  183SLPC  H15A20951   2.640   0.120  10.819  1.0729 -2.0748 -1.5133
  183SLPC  H15B20952   2.495   0.185  10.883 -0.4282  0.5390 -1.0312
  183SLPC  H15C20953   2.544   0.027  10.936  0.6315  2.0437  1.3242
  183SLPC   C1220954   2.527  -0.096  10.690 -0.5919  0.1067  0.2351
  183SLPC  H12A20955   2.471  -0.141  10.609  1.4712  0.5079 -1.5315
  183SLPC  H12B20956   2.523  -0.167  10.770 -2.9526  0.5486  0.5658
  183SLPC   C1120957   2.672  -0.094  10.632  0.6092 -0.5896  0.0702
  183SLPC  H11A20958   2.666  -0.033  10.540  4.2189 -0.1165  0.0159
  183SLPC  H11B20959   2.689  -0.196  10.592 -0.6028 -0.5684 -0.5520
  183SLPC     P20960   2.887  -0.123  10.776 -0.1626 -0.4408  0.3565
  183SLPC   O1320961   2.980  -0.021  10.830  0.2689  0.0574 -0.1795
  183SLPC   O1420962   2.822  -0.207  10.881  0.6118  0.0989 -0.1261
  183SLPC   O1220963   2.775  -0.036  10.711 -0.4012  0.2191 -0.1306
  183SLPC   O1120964   2.954  -0.210  10.664 -0.9445 -0.4932 -0.0604
  183SLPC    C120965   3.076  -0.171  10.607 -0.3471  0.0672 -0.2351
  183SLPC    HA20966   3.093  -0.061  10.607 -0.9648  0.1939 -1.9291
  183SLPC    HB20967   3.166  -0.217  10.653 -1.9182 -0.1764  2.8879
  183SLPC    C220968   3.081  -0.198  10.452 -0.4615 -0.1915 -0.2527
  183SLPC    HS20969   3.178  -0.158  10.416 -0.1729 -0.5919  0.0727
  183SLPC   O2120970   2.973  -0.141  10.382  0.4133 -1.2425  0.2137
  183SLPC   C2120971   2.971  -0.010  10.378  0.3680  0.9555  0.3889
  183SLPC   O2220972   3.050   0.064  10.429  0.1775 -0.0331  0.1487
  183SLPC   C2220973   2.852   0.034  10.304 -0.4486  0.2203 -0.3047
  183SLPC   H2R20974   2.780  -0.048  10.282 -0.4090  0.1523 -0.1838
  183SLPC   H2S20975   2.803   0.119  10.355 -0.8140  0.9190 -1.7736
  183SLPC    C320976   3.079  -0.349  10.416 -0.0144 -0.2909  0.3952
  183SLPC    HX20977   2.977  -0.391  10.423 -1.0287  1.9007 -0.4143
  183SLPC    HY20978   3.144  -0.399  10.491  2.6870  2.0130 -0.2158
  183SLPC   O3120979   3.145  -0.380  10.287 -0.3694 -0.4841  0.1006
  183SLPC   C3120980   3.061  -0.377  10.181  0.1339  0.0264  0.2601
  183SLPC   O3220981   2.938  -0.363  10.185  0.3292 -0.2452  0.2394
  183SLPC   C3220982   3.139  -0.432  10.063  0.6170  0.4250  0.3006
  183SLPC   H2X20983   3.162  -0.537  10.093  1.2118  0.3047 -0.5679
  183SLPC   H2Y20984   3.233  -0.373  10.065  1.3807 -0.7607  2.4568
  183SLPC   C2320985   2.900   0.091  10.162 -0.3248 -0.3395  0.3863
  183SLPC   H3R20986   2.995   0.148  10.169  0.1496 -0.8180 -1.6279
  183SLPC   H3S20987   2.814   0.160  10.151 -1.4987 -1.2968  2.7482
  183SLPC   C2420988   2.898  -0.007  10.045  0.1404 -1.2073  0.2579
  183SLPC   H4R20989   2.801  -0.061  10.038 -0.3620 -0.3331  0.3076
  183SLPC   H4S20990   2.968  -0.091  10.064 -0.0554 -1.7563 -1.3413
  183SLPC   C2520991   2.939   0.050   9.898  0.1061  0.0096  0.4779
  183SLPC   H5R20992   2.889   0.147   9.878 -0.6536 -0.1019  1.7154
  183SLPC   H5S20993   2.894  -0.021   9.825 -0.4464 -0.4126  1.2203
  183SLPC   C2620994   3.088   0.048   9.850  0.2107  0.2712 -0.2168
  183SLPC   H6R20995   3.121  -0.054   9.876 -2.5603 -0.3306  1.2939
  183SLPC   H6S20996   3.138   0.121   9.917 -0.5638 -0.7515  1.5390
  183SLPC   C2720997   3.115   0.087   9.707  0.2336  0.2522 -0.4656
  183SLPC   H7R20998   3.226   0.095   9.708  0.2494  0.2221 -1.2057
  183SLPC   H7S20999   3.057   0.180   9.689 -1.4947 -0.4841  1.0348
  183SLPC   C2821000   3.094  -0.008   9.593 -0.1363 -0.2424 -0.1787
  183SLPC   H8R21001   3.128  -0.111   9.613  4.9669  0.6685 -2.6116
  183SLPC   H8S21002   3.156   0.022   9.505  0.1854 -1.8417 -0.5211
  183SLPC   C2921003   2.957  -0.001   9.543  0.4987  0.1893 -0.2324
  183SLPC   H9R21004   2.879  -0.006   9.621 -0.0689 -0.1756 -0.8141
  183SLPC  C21021005   2.913   0.016   9.415  0.0911  0.0259 -0.2292
  183SLPC  H10R21006   2.807   0.008   9.387 -0.1060  4.6101 -1.5529
  183SLPC  C21121007   2.989   0.049   9.295 -0.4827 -0.5270  0.2945
  183SLPC  H11R21008   3.051   0.140   9.308 -0.7605  0.0034 -1.6925
  183SLPC  H11S21009   2.912   0.089   9.225  0.8704 -0.6751 -1.3400
  183SLPC  C21221010   3.070  -0.065   9.244 -0.8185  0.6915 -0.1792
  183SLPC  H12R21011   3.129  -0.122   9.317 -1.0231 -1.1415 -1.3811
  183SLPC  C21321012   3.073  -0.107   9.117 -0.0227 -0.0114 -0.1073
  183SLPC  H13R21013   3.131  -0.195   9.083  0.9350  0.7255 -0.4268
  183SLPC  C21421014   3.003  -0.042   8.997  0.0404 -0.0844 -0.0906
  183SLPC  H14R21015   3.064  -0.061   8.906  0.6946 -0.2771  0.3892
  183SLPC  H14S21016   2.983   0.066   9.012 -1.9738 -0.0545 -2.3998
  183SLPC  C21521017   2.868  -0.103   8.972 -0.3646  0.1614 -0.1841
  183SLPC  H15R21018   2.795  -0.098   9.055  0.5293 -3.0114  0.9039
  183SLPC  H15S21019   2.880  -0.212   8.954 -1.5746 -0.6826  3.2928
  183SLPC  C21621020   2.813  -0.051   8.838  0.1157 -0.8093 -0.4861
  183SLPC  H16R21021   2.715  -0.100   8.823 -0.4763 -0.1228  1.0034
  183SLPC  H16S21022   2.875  -0.082   8.751  1.5071  1.0357 -0.2184
  183SLPC  C21721023   2.793   0.098   8.832  0.1455  0.1272  0.1397
  183SLPC  H17R21024   2.802   0.140   8.935  1.5941 -0.7793  0.3993
  183SLPC  H17S21025   2.693   0.126   8.792 -0.2561 -0.3366  0.7995
  183SLPC  C21821026   2.904   0.157   8.728  0.4243 -0.8499 -0.4230
  183SLPC  H18R21027   2.892   0.115   8.626  0.9636  1.2920 -1.4078
  183SLPC  H18S21028   3.010   0.154   8.761  0.1713  0.6444  0.6240
  183SLPC  H18T21029   2.884   0.265   8.718  3.4432 -0.1610 -0.1182
  183SLPC   C3321030   3.069  -0.422   9.924 -0.3787 -0.2811 -0.2950
  183SLPC   H3X21031   3.030  -0.321   9.900 -1.6776 -0.8531 -0.7089
  183SLPC   H3Y21032   2.976  -0.484   9.927 -1.5847  1.4074 -1.1042
  183SLPC   C3421033   3.155  -0.475   9.810 -0.4213 -0.3281 -0.6237
  183SLPC   H4X21034   3.089  -0.475   9.721 -1.5116 -0.3005  0.1564
  183SLPC   H4Y21035   3.185  -0.581   9.824 -0.9818 -0.2649  1.4305
  183SLPC   C3521036   3.273  -0.379   9.781 -0.0646 -0.2300 -1.3230
  183SLPC   H5X21037   3.370  -0.398   9.833 -0.4252  0.3010 -0.4384
  183SLPC   H5Y21038   3.233  -0.278   9.804 -0.7065 -0.4606 -1.4307
  183SLPC   C3621039   3.324  -0.376   9.638  0.1593  0.0029  0.1443
  183SLPC   H6X21040   3.228  -0.367   9.582 -0.7266  0.4079  1.6706
  183SLPC   H6Y21041   3.383  -0.468   9.619 -0.1960  0.1773 -2.1499
  183SLPC   C3721042   3.397  -0.249   9.590  0.4705 -0.1716  0.0660
  183SLPC   H7X21043   3.502  -0.250   9.624  1.4723  0.3005 -2.7276
  183SLPC   H7Y21044   3.361  -0.155   9.637  2.8041  1.5330 -1.3777
  183SLPC   C3821045   3.416  -0.235   9.443  0.7538 -0.1727  0.9390
  183SLPC   H8X21046   3.481  -0.151   9.410  0.2652 -1.0153 -2.5570
  183SLPC   H8Y21047   3.322  -0.216   9.388  0.4977 -0.5894  1.2294
  183SLPC   C3921048   3.477  -0.363   9.374 -0.3545  0.2075 -0.8924
  183SLPC   H9X21049   3.405  -0.447   9.365 -1.1150  0.3507  2.5278
  183SLPC   H9Y21050   3.566  -0.393   9.434 -0.3920 -1.8183 -1.7519
  183SLPC  C31021051   3.533  -0.342   9.238 -0.4742  0.0663 -0.5223
  183SLPC  H10X21052   3.605  -0.424   9.221  0.0571 -0.1045  2.0321
  183SLPC  H10Y21053   3.598  -0.251   9.242  0.1458 -0.3583 -0.7296
  183SLPC  C31121054   3.435  -0.344   9.125  0.0583 -0.3198  0.3819
  183SLPC  H11X21055   3.343  -0.294   9.164  2.5066  2.8863  2.5262
  183SLPC  H11Y21056   3.419  -0.452   9.105  0.3424 -0.1991 -0.5918
  183SLPC  C31221057   3.489  -0.286   9.001 -0.3356  0.3888  0.8222
  183SLPC  H12X21058   3.573  -0.353   8.974 -0.3790 -0.8312  3.4118
  183SLPC  H12Y21059   3.532  -0.191   9.038 -0.9831 -0.5643  4.3626
  183SLPC  C31321060   3.385  -0.277   8.898  0.0931  0.0098  0.4951
  183SLPC  H13X21061   3.309  -0.208   8.939 -0.4607 -0.9834  1.1713
  183SLPC  H13Y21062   3.340  -0.376   8.876  0.1732  0.3602 -1.5043
  183SLPC  C31421063   3.439  -0.233   8.759 -0.1232 -0.4125  0.2124
  183SLPC  H14X21064   3.499  -0.317   8.717 -0.3932 -0.4164 -0.1734
  183SLPC  H14Y21065   3.508  -0.154   8.793  1.7222 -2.2366  0.9141
  183SLPC  C31521066   3.331  -0.183   8.670 -0.0012  0.0291  0.6482
  183SLPC  H15X21067   3.375  -0.180   8.569 -0.4101 -0.8521  0.4338
  183SLPC  H15Y21068   3.295  -0.084   8.705  2.0794  1.1805 -0.3361
  183SLPC  C31621069   3.223  -0.287   8.649 -0.3214 -0.4432 -0.2460
  183SLPC  H16X21070   3.171  -0.292   8.747  1.6833  0.8860  0.9446
  183SLPC  H16Y21071   3.272  -0.384   8.629  0.3926 -0.4982  1.5870
  183SLPC  C31721072   3.129  -0.261   8.536  0.1534  0.2136 -0.0465
  183SLPC  H17X21073   3.179  -0.238   8.440  0.1170  0.4921 -0.0011
  183SLPC  H17Y21074   3.077  -0.167   8.568  1.2490  0.8354 -0.0582
  183SLPC  C31821075   3.033  -0.381   8.512 -0.4918  0.2766 -0.7929
  183SLPC  H18X21076   2.977  -0.371   8.417 -0.9265  0.8810 -0.4839
  183SLPC  H18Y21077   2.942  -0.382   8.576  0.8035  2.6450  1.2683
  183SLPC  H18Z21078   3.088  -0.477   8.516 -2.1606 -0.7007  2.3929
  184SLPC     N21079   6.453   4.038  10.392  0.4284  0.3411 -0.7556
  184SLPC   C1321080   6.427   3.990  10.256 -0.0473 -0.1222  0.5400
  184SLPC  H13A21081   6.323   3.977  10.231  0.5890 -2.0003 -1.4661
  184SLPC  H13B21082   6.450   4.068  10.185 -0.0362 -0.3001  0.3471
  184SLPC  H13C21083   6.493   3.905  10.242  1.2200  0.9279 -0.1017
  184SLPC   C1421084   6.451   4.184  10.400 -0.2673  0.0803  0.3424
  184SLPC  H14A21085   6.451   4.217  10.503  1.0607 -2.4384  1.2415
  184SLPC  H14B21086   6.534   4.233  10.352  1.0546 -3.3837 -1.2695
  184SLPC  H14C21087   6.361   4.229  10.362 -0.7258 -1.0455  0.0382
  184SLPC   C1521088   6.590   3.989  10.433  0.3200  0.2069 -0.0711
  184SLPC  H15A21089   6.596   3.996  10.540 -2.4866 -2.1485  0.3751
  184SLPC  H15B21090   6.615   3.889  10.404  0.8691  0.1951  0.4258
  184SLPC  H15C21091   6.659   4.053  10.380  2.3200 -0.6255  1.4005
  184SLPC   C1221092   6.349   3.976  10.489 -0.0801 -0.2772  0.5987
  184SLPC  H12A21093   6.369   4.003  10.592  0.6959 -1.4012  0.7685
  184SLPC  H12B21094   6.360   3.868  10.489 -1.7609 -0.5086 -1.5060
  184SLPC   C1121095   6.199   3.995  10.447  0.0742 -0.2198 -0.2268
  184SLPC  H11A21096   6.134   3.915  10.487  0.2262 -0.0975  0.2765
  184SLPC  H11B21097   6.194   3.979  10.337 -1.8090 -0.2411 -0.1590
  184SLPC     P21098   6.104   4.167  10.635 -0.5025  0.3214 -0.4287
  184SLPC   O1321099   6.202   4.110  10.733 -0.3781  0.5665  0.1473
  184SLPC   O1421100   6.093   4.315  10.649  0.1786 -0.0154  0.0348
  184SLPC   O1221101   6.155   4.124  10.490  0.5695 -0.2529 -0.8553
  184SLPC   O1121102   5.963   4.098  10.655  0.2877 -0.0527 -0.4856
  184SLPC    C121103   5.839   4.136  10.598  0.1966  0.0651 -0.0132
  184SLPC    HA21104   5.758   4.120  10.673  1.9360 -2.0112  1.5413
  184SLPC    HB21105   5.838   4.247  10.586  1.0425  0.3558  2.1522
  184SLPC    C221106   5.805   4.081  10.456  0.1042 -0.0309  0.3982
  184SLPC    HS21107   5.848   3.978  10.457  0.6284  0.1716 -0.5584
  184SLPC   O2121108   5.877   4.172  10.370  0.4734 -0.0475 -1.3431
  184SLPC   C2121109   5.930   4.118  10.268 -0.4540 -0.6514  0.3076
  184SLPC   O2221110   5.910   4.005  10.227  0.0215  0.3865 -0.4093
  184SLPC   C2221111   6.020   4.223  10.196  0.7445  0.5488  0.0340
  184SLPC   H2R21112   5.954   4.308  10.169  0.2183 -0.3028 -1.5303
  184SLPC   H2S21113   6.093   4.251  10.275  1.4158 -2.6733  0.7202
  184SLPC    C321114   5.657   4.070  10.425 -0.1209 -0.4139 -0.2990
  184SLPC    HX21115   5.616   4.173  10.431 -0.1164 -0.4241 -0.0970
  184SLPC    HY21116   5.609   4.016  10.510 -1.4569  0.1123 -0.6844
  184SLPC   O3121117   5.624   4.012  10.298 -0.5012  0.5696 -0.4997
  184SLPC   C3121118   5.613   3.882  10.285 -0.3077 -0.0668 -0.3202
  184SLPC   O3221119   5.655   3.810  10.377 -0.0064 -0.3808  0.2392
  184SLPC   C3221120   5.556   3.840  10.155 -0.1314  0.1290 -0.7648
  184SLPC   H2X21121   5.453   3.879  10.140  0.2077  0.1744 -3.4596
  184SLPC   H2Y21122   5.545   3.730  10.147 -0.2463  0.1577 -1.0297
  184SLPC   C2321123   6.107   4.175  10.074 -0.7552  0.3792  0.3728
  184SLPC   H3R21124   6.053   4.108  10.004  0.5379 -0.2643 -0.0446
  184SLPC   H3S21125   6.184   4.105  10.112 -1.4188  0.7180  2.4733
  184SLPC   C2421126   6.194   4.289  10.014 -0.3478  0.0813 -0.2536
  184SLPC   H4R21127   6.257   4.241   9.936 -3.1346 -2.1985 -1.2667
  184SLPC   H4S21128   6.249   4.334  10.099 -0.5617 -1.5337  0.7918
  184SLPC   C2521129   6.111   4.396   9.950  0.1883 -0.0326 -0.3640
  184SLPC   H5R21130   6.194   4.452   9.901  1.5013 -2.1931 -0.7386
  184SLPC   H5S21131   6.055   4.459  10.022  0.0700 -1.8473  1.1966
  184SLPC   C2621132   6.032   4.353   9.833 -0.0904 -0.0142 -0.3493
  184SLPC   H6R21133   5.950   4.288   9.871  1.2339 -1.2393  0.4848
  184SLPC   H6S21134   6.085   4.284   9.764  3.3110 -0.1658  2.1892
  184SLPC   C2721135   5.985   4.483   9.763  0.4016  0.2699  0.4036
  184SLPC   H7R21136   6.076   4.540   9.737  0.6027 -0.7462 -1.2772
  184SLPC   H7S21137   5.932   4.542   9.842 -1.2579  2.2937 -2.0581
  184SLPC   C2821138   5.904   4.476   9.634 -0.5357  0.1717  0.3506
  184SLPC   H8R21139   5.952   4.404   9.564 -0.8284 -0.4261  0.7606
  184SLPC   H8S21140   5.919   4.564   9.569  3.7375 -1.5974 -1.4419
  184SLPC   C2921141   5.757   4.447   9.664 -0.3408 -0.1922 -0.4992
  184SLPC   H9R21142   5.731   4.397   9.758  1.0207  0.2221  0.1263
  184SLPC  C21021143   5.659   4.499   9.589  0.3502  0.1315  0.3776
  184SLPC  H10R21144   5.561   4.459   9.620  0.3745  0.8240  1.3787
  184SLPC  C21121145   5.658   4.571   9.456  0.2966 -0.1832 -1.1284
  184SLPC  H11R21146   5.765   4.594   9.439  0.6088  1.1152  1.8325
  184SLPC  H11S21147   5.616   4.673   9.465 -1.6869 -1.0594  0.5937
  184SLPC  C21221148   5.597   4.485   9.352  0.1812  0.3138 -0.4456
  184SLPC  H12R21149   5.627   4.379   9.359 -0.7446  0.0914  0.2693
  184SLPC  C21321150   5.506   4.514   9.261  0.2641 -0.1052 -0.4966
  184SLPC  H13R21151   5.454   4.432   9.209 -0.6784  1.3009 -1.8590
  184SLPC  C21421152   5.438   4.648   9.231 -0.3876 -0.4919 -0.1015
  184SLPC  H14R21153   5.443   4.707   9.325 -0.4320  0.7171 -0.8395
  184SLPC  H14S21154   5.333   4.619   9.209  0.0208 -4.0310  1.7770
  184SLPC  C21521155   5.509   4.715   9.115 -0.1723 -0.0707 -0.6581
  184SLPC  H15R21156   5.617   4.690   9.113 -0.0649  0.2489  0.4753
  184SLPC  H15S21157   5.514   4.825   9.127 -0.7286 -0.1135  0.0140
  184SLPC  C21621158   5.440   4.689   8.975  0.5048  0.1285 -0.8142
  184SLPC  H16R21159   5.466   4.768   8.902 -0.0227  1.9525  0.8731
  184SLPC  H16S21160   5.332   4.703   8.997  0.4501  0.3759 -1.2371
  184SLPC  C21721161   5.455   4.544   8.918 -0.4477 -0.6025 -0.6751
  184SLPC  H17R21162   5.417   4.466   8.988  0.2118 -1.6881 -1.4933
  184SLPC  H17S21163   5.563   4.526   8.903  0.4003  3.8306 -1.1636
  184SLPC  C21821164   5.371   4.536   8.788 -0.1326  0.2829  0.9629
  184SLPC  H18R21165   5.420   4.612   8.724 -0.3405  0.5442  1.1122
  184SLPC  H18S21166   5.265   4.559   8.812 -0.9273 -1.2388 -0.8247
  184SLPC  H18T21167   5.383   4.437   8.740 -0.2298  1.2144 -1.0962
  184SLPC   C3321168   5.643   3.871  10.030  0.6668 -0.0105 -0.5026
  184SLPC   H3X21169   5.750   3.860  10.059  0.7456  0.4388 -0.6120
  184SLPC   H3Y21170   5.620   3.976   9.999 -2.6161 -0.5048 -0.0521
  184SLPC   C3421171   5.615   3.778   9.918 -0.1143  0.3457 -0.4259
  184SLPC   H4X21172   5.566   3.681   9.939 -1.7698  1.4018  0.8844
  184SLPC   H4Y21173   5.703   3.762   9.852 -0.2954 -0.2495 -0.5227
  184SLPC   C3521174   5.520   3.843   9.811 -0.1700  0.0890 -0.6099
  184SLPC   H5X21175   5.576   3.932   9.775  0.7033  0.2986  1.2084
  184SLPC   H5Y21176   5.432   3.873   9.872  1.8523  0.9293  2.0516
  184SLPC   C3621177   5.483   3.754   9.691  0.0742  0.0674 -0.0652
  184SLPC   H6X21178   5.393   3.796   9.641 -1.4101  1.2850  3.3412
  184SLPC   H6Y21179   5.450   3.656   9.730  2.1191 -1.3484 -1.6472
  184SLPC   C3721180   5.597   3.730   9.601  0.4083 -0.1147 -0.3886
  184SLPC   H7X21181   5.677   3.667   9.645  0.4627 -1.2986 -2.1038
  184SLPC   H7Y21182   5.641   3.828   9.572 -0.9451  0.6573  0.0745
  184SLPC   C3821183   5.550   3.647   9.483 -0.2035 -0.4737  0.2181
  184SLPC   H8X21184   5.441   3.661   9.463  0.4612  0.8717 -3.1362
  184SLPC   H8Y21185   5.560   3.541   9.515 -0.6797 -0.3179  0.8947
  184SLPC   C3921186   5.637   3.677   9.353  0.5041 -0.1856 -0.4390
  184SLPC   H9X21187   5.738   3.634   9.368  0.8684  1.2966  1.8100
  184SLPC   H9Y21188   5.655   3.787   9.347 -2.6603  0.4460 -0.1990
  184SLPC  C31021189   5.561   3.622   9.238  0.0661 -0.1298  0.0781
  184SLPC  H10X21190   5.464   3.676   9.228 -0.3830 -0.8273  0.5412
  184SLPC  H10Y21191   5.526   3.520   9.264 -0.4860 -0.0476 -0.3110
  184SLPC  C31121192   5.635   3.607   9.098 -0.0392 -0.1358 -0.4579
  184SLPC  H11X21193   5.735   3.559   9.106 -0.1500 -0.3046 -0.1009
  184SLPC  H11Y21194   5.674   3.707   9.066  3.1364 -1.2902 -0.5333
  184SLPC  C31221195   5.551   3.534   8.987  0.5205 -0.0576 -0.0493
  184SLPC  H12X21196   5.445   3.570   8.986 -1.3056 -4.6643  1.0249
  184SLPC  H12Y21197   5.545   3.424   9.005  2.9175 -0.3462 -0.7624
  184SLPC  C31321198   5.608   3.546   8.841  0.5604  0.1360 -0.1649
  184SLPC  H13X21199   5.716   3.519   8.842  0.4798 -0.3934  2.7441
  184SLPC  H13Y21200   5.593   3.648   8.798 -0.2702  0.0489 -0.0930
  184SLPC  C31421201   5.541   3.439   8.750 -0.2593 -0.6805  0.4630
  184SLPC  H14X21202   5.434   3.426   8.778 -1.1822  1.5170 -1.6157
  184SLPC  H14Y21203   5.607   3.351   8.763  2.4315  1.4082  2.1715
  184SLPC  C31521204   5.539   3.485   8.599 -0.2863 -0.1071  0.1938
  184SLPC  H15X21205   5.530   3.396   8.532  0.7991 -0.4042  0.4195
  184SLPC  H15Y21206   5.636   3.535   8.578  1.2443 -1.6471  3.0647
  184SLPC  C31621207   5.426   3.589   8.566 -0.8331  0.4270 -0.6046
  184SLPC  H16X21208   5.429   3.677   8.633 -1.3270  1.6059 -2.0674
  184SLPC  H16Y21209   5.332   3.532   8.579 -0.4300 -0.4972 -1.5623
  184SLPC  C31721210   5.430   3.632   8.423  0.2958  0.2031  0.0574
  184SLPC  H17X21211   5.445   3.541   8.361  2.1231 -0.0011  0.7138
  184SLPC  H17Y21212   5.524   3.690   8.413 -0.4401  1.8168  1.9244
  184SLPC  C31821213   5.311   3.727   8.388 -0.0490  0.4932  0.3038
  184SLPC  H18X21214   5.299   3.790   8.479 -1.1901 -1.5105  1.5970
  184SLPC  H18Y21215   5.220   3.669   8.362  1.0379 -1.3972  0.5917
  184SLPC  H18Z21216   5.340   3.783   8.296  2.3643 -0.1356  0.6150
  185SLPC     N21217   3.166   1.716   6.154 -0.4898 -0.7120  0.2670
  185SLPC   C1321218   3.050   1.783   6.101  0.5286 -0.3680  0.1311
  185SLPC  H13A21219   2.962   1.723   6.083 -0.3423  0.8688  0.1471
  185SLPC  H13B21220   3.023   1.866   6.165  0.5373 -0.8308  0.7447
  185SLPC  H13C21221   3.081   1.833   6.011  0.5273  2.0944  1.4058
  185SLPC   C1421222   3.275   1.817   6.178 -0.7374  0.5067 -0.3479
  185SLPC  H14A21223   3.248   1.875   6.264  2.6817  1.1236  0.4513
  185SLPC  H14B21224   3.372   1.776   6.204 -0.1741  2.0679  0.1356
  185SLPC  H14C21225   3.290   1.888   6.098 -0.5729 -0.3181 -1.0724
  185SLPC   C1521226   3.218   1.625   6.046 -0.0517 -0.1227  0.0429
  185SLPC  H15A21227   3.245   1.676   5.955 -0.6816  0.7466  0.3314
  185SLPC  H15B21228   3.308   1.581   6.087 -0.9034 -0.4968  1.5891
  185SLPC  H15C21229   3.145   1.548   6.025 -0.6238  0.5394 -0.4422
  185SLPC   C1221230   3.131   1.639   6.281  0.6474  0.1822 -0.4677
  185SLPC  H12A21231   3.206   1.573   6.320 -1.3787 -1.8214  0.2678
  185SLPC  H12B21232   3.054   1.569   6.253  0.0309  0.2371  1.0365
  185SLPC   C1121233   3.082   1.718   6.409  0.9300  0.1667  0.2061
  185SLPC  H11A21234   3.031   1.648   6.478  0.0234  1.0621  0.4852
  185SLPC  H11B21235   2.997   1.783   6.379 -1.4155 -2.0116  1.6644
  185SLPC     P21236   3.304   1.719   6.549 -0.0352  0.0368  0.2855
  185SLPC   O1321237   3.316   1.582   6.493  0.5364 -0.6721 -0.4760
  185SLPC   O1421238   3.421   1.804   6.540 -0.1040 -0.3092  0.3643
  185SLPC   O1221239   3.177   1.798   6.478 -0.1416 -0.0305 -0.2482
  185SLPC   O1121240   3.256   1.706   6.694 -0.1533 -0.1012 -0.0808
  185SLPC    C121241   3.197   1.818   6.758 -0.0204  0.3043 -0.0506
  185SLPC    HA21242   3.201   1.911   6.697  1.2230  0.9864  1.0013
  185SLPC    HB21243   3.090   1.804   6.785  0.0769  3.0933  2.2785
  185SLPC    C221244   3.289   1.850   6.884 -0.2144 -0.1648  0.3927
  185SLPC    HS21245   3.389   1.812   6.854 -0.4590 -1.3798  1.0400
  185SLPC   O2121246   3.228   1.779   6.992  0.3927 -0.0532 -0.2786
  185SLPC   C2121247   3.312   1.722   7.069  0.0888  0.0987 -0.3119
  185SLPC   O2221248   3.435   1.739   7.061 -0.3729 -0.3123  0.3881
  185SLPC   C2221249   3.237   1.628   7.165  0.5904 -0.2162 -0.1658
  185SLPC   H2R21250   3.161   1.688   7.221 -1.1107 -2.6224  0.2671
  185SLPC   H2S21251   3.172   1.564   7.101  2.5119 -0.4600 -1.9616
  185SLPC    C321252   3.292   2.003   6.913 -0.3227 -0.2187 -0.0020
  185SLPC    HX21253   3.191   2.038   6.946  0.5695  0.1951  2.5573
  185SLPC    HY21254   3.328   2.057   6.823  3.3725 -1.0449  0.8052
  185SLPC   O3121255   3.375   2.031   7.025 -0.0426  0.3479 -0.6065
  185SLPC   C3121256   3.510   2.021   7.023 -0.2400  0.3319  0.1510
  185SLPC   O3221257   3.569   2.022   6.911 -0.2236 -0.8425 -0.6506
  185SLPC   C3221258   3.572   2.022   7.163 -0.1272 -1.0424 -0.6873
  185SLPC   H2X21259   3.634   2.115   7.159 -2.2354  0.4518 -0.2249
  185SLPC   H2Y21260   3.638   1.935   7.182  2.6500  1.4708  2.5188
  185SLPC   C2321261   3.323   1.559   7.270  0.3106 -0.2019 -0.1257
  185SLPC   H3R21262   3.391   1.484   7.225  0.1810 -1.3836  1.5396
  185SLPC   H3S21263   3.241   1.503   7.320 -2.2055  1.1401 -2.4813
  185SLPC   C2421264   3.392   1.665   7.363 -0.9831  0.7410  0.5356
  185SLPC   H4R21265   3.320   1.724   7.423 -1.2784 -0.6892  1.6296
  185SLPC   H4S21266   3.459   1.732   7.305 -1.2698  0.9902  0.4965
  185SLPC   C2521267   3.498   1.579   7.456  0.6501 -1.2831  0.3340
  185SLPC   H5R21268   3.523   1.491   7.394 -1.5513 -0.5403 -1.7177
  185SLPC   H5S21269   3.448   1.538   7.546 -0.6664  1.5829  1.0406
  185SLPC   C2621270   3.621   1.663   7.508 -0.8932 -0.3261  0.1954
  185SLPC   H6R21271   3.577   1.750   7.563 -1.0777  0.2533 -0.8461
  185SLPC   H6S21272   3.677   1.713   7.426 -2.6780 -0.9599 -1.4801
  185SLPC   C2721273   3.729   1.585   7.593  0.4744 -0.0550  0.3627
  185SLPC   H7R21274   3.743   1.494   7.532  0.1301  0.3308 -0.2966
  185SLPC   H7S21275   3.690   1.561   7.694  0.3222 -0.6075  0.1737
  185SLPC   C2821276   3.862   1.653   7.619  0.3560  0.8406  0.3514
  185SLPC   H8R21277   3.845   1.709   7.713 -0.0336  0.3939  0.5437
  185SLPC   H8S21278   3.884   1.725   7.537  0.8279  0.8941  0.5238
  185SLPC   C2921279   3.979   1.560   7.643 -0.6322 -0.2061  0.1306
  185SLPC   H9R21280   4.032   1.528   7.552 -2.1623  0.6647 -1.1169
  185SLPC  C21021281   4.029   1.507   7.750 -0.0958  0.3026  0.1886
  185SLPC  H10R21282   4.097   1.421   7.737 -3.6401 -2.6120 -0.6505
  185SLPC  C21121283   3.979   1.525   7.892 -0.0550 -0.0901  0.6043
  185SLPC  H11R21284   3.990   1.431   7.951  2.0112 -0.6401 -0.5371
  185SLPC  H11S21285   3.868   1.531   7.887 -0.0622  0.5529  1.4078
  185SLPC  C21221286   4.040   1.647   7.950 -0.4160 -0.4744  0.6029
  185SLPC  H12R21287   4.063   1.717   7.869 -0.1267 -0.2761  0.8525
  185SLPC  C21321288   4.054   1.672   8.083 -0.3314 -0.0495 -0.7381
  185SLPC  H13R21289   4.110   1.763   8.109 -0.0057  0.2377 -2.3126
  185SLPC  C21421290   4.002   1.589   8.197  0.0439 -0.6520 -0.3794
  185SLPC  H14R21291   4.080   1.587   8.276  0.8707  0.4108 -1.1420
  185SLPC  H14S21292   3.997   1.481   8.170  1.9079 -1.3927  1.9074
  185SLPC  C21521293   3.881   1.655   8.270  0.5723 -0.8046 -0.0577
  185SLPC  H15R21294   3.842   1.602   8.359 -1.8802  0.8372 -0.0359
  185SLPC  H15S21295   3.795   1.665   8.200  0.4501 -1.1649  0.0396
  185SLPC  C21621296   3.907   1.800   8.329 -0.0033  0.6903  0.6562
  185SLPC  H16R21297   3.820   1.851   8.376 -0.5713  0.2955  0.0494
  185SLPC  H16S21298   3.936   1.873   8.250  0.1012  0.0346  0.0839
  185SLPC  C21721299   4.031   1.809   8.425 -0.2714  0.2095 -0.1675
  185SLPC  H17R21300   4.122   1.779   8.369 -0.6601 -0.1408 -0.6252
  185SLPC  H17S21301   4.013   1.727   8.499  1.0406 -2.5978 -2.7198
  185SLPC  C21821302   4.049   1.949   8.488  0.3689  0.5052 -0.5326
  185SLPC  H18R21303   4.065   2.033   8.417  2.3434  0.6727  0.0535
  185SLPC  H18S21304   4.146   1.950   8.541  0.8192  0.3580 -1.3427
  185SLPC  H18T21305   3.966   1.974   8.558  1.5358  2.1761  0.2842
  185SLPC   C3321306   3.478   2.035   7.287 -0.2812  0.1503  0.5230
  185SLPC   H3X21307   3.413   1.945   7.298  1.5960 -1.4845 -1.1710
  185SLPC   H3Y21308   3.408   2.120   7.274  0.6766  1.3290  2.5680
  185SLPC   C3421309   3.552   2.038   7.424  0.3779 -0.2414  0.4600
  185SLPC   H4X21310   3.645   2.099   7.416  0.4387 -0.4494 -0.5778
  185SLPC   H4Y21311   3.574   1.935   7.458  0.6010 -0.0807  0.8020
  185SLPC   C3521312   3.472   2.101   7.540 -0.7171  0.7246  1.0778
  185SLPC   H5X21313   3.379   2.040   7.551 -0.7570  0.4583 -0.5612
  185SLPC   H5Y21314   3.440   2.201   7.506  1.1301  0.8151 -0.5314
  185SLPC   C3621315   3.535   2.113   7.677 -0.2869  1.0434  0.6709
  185SLPC   H6X21316   3.610   2.195   7.666 -0.3664  0.9237 -0.9709
  185SLPC   H6Y21317   3.581   2.014   7.696 -0.8004  0.5989 -0.3529
  185SLPC   C3721318   3.434   2.142   7.787 -0.0275  0.5769 -0.4787
  185SLPC   H7X21319   3.371   2.050   7.788 -0.4820  0.8806 -0.6067
  185SLPC   H7Y21320   3.373   2.226   7.747  0.6798  1.1802 -0.3241
  185SLPC   C3821321   3.500   2.155   7.921 -0.1982  0.4784 -0.0298
  185SLPC   H8X21322   3.571   2.240   7.922  1.5833 -0.9246  2.0121
  185SLPC   H8Y21323   3.551   2.058   7.939  3.4326  2.5715  1.9696
  185SLPC   C3921324   3.391   2.185   8.022 -0.2929 -0.0554 -0.4118
  185SLPC   H9X21325   3.313   2.106   8.022 -0.4177  0.0479  0.6532
  185SLPC   H9Y21326   3.358   2.290   8.007  0.6064  0.6873  2.1670
  185SLPC  C31021327   3.440   2.202   8.175 -0.4801  0.5599  0.4630
  185SLPC  H10X21328   3.522   2.277   8.178 -1.4702  1.6520  0.6447
  185SLPC  H10Y21329   3.487   2.103   8.196 -0.3939  0.1362 -1.4831
  185SLPC  C31121330   3.329   2.234   8.269  1.2852  0.0146  0.3777
  185SLPC  H11X21331   3.239   2.172   8.249  2.3607 -1.0568 -1.5187
  185SLPC  H11Y21332   3.294   2.338   8.255 -0.9549 -0.6473  0.6344
  185SLPC  C31221333   3.355   2.226   8.423  0.2051  0.6541 -0.4913
  185SLPC  H12X21334   3.421   2.139   8.446  1.7307  0.9595 -3.2577
  185SLPC  H12Y21335   3.259   2.211   8.477 -0.7071  1.5654 -1.8086
  185SLPC  C31321336   3.414   2.356   8.483  0.3566  0.2009  0.2340
  185SLPC  H13X21337   3.339   2.438   8.477  2.1647  2.0487  1.4430
  185SLPC  H13Y21338   3.493   2.387   8.411 -1.4670  1.0833 -1.4828
  185SLPC  C31421339   3.458   2.342   8.629  0.0533 -0.3283  0.7018
  185SLPC  H14X21340   3.372   2.311   8.692 -0.6821 -1.1493 -0.6511
  185SLPC  H14Y21341   3.479   2.445   8.663  1.2891  0.3159 -1.7790
  185SLPC  C31521342   3.581   2.255   8.656  0.1358 -0.2643  0.2390
  185SLPC  H15X21343   3.657   2.276   8.578  0.8408  0.3067  1.0618
  185SLPC  H15Y21344   3.561   2.149   8.631  0.5143  0.1258 -1.9806
  185SLPC  C31621345   3.638   2.271   8.794  0.4031 -0.0723  0.5622
  185SLPC  H16X21346   3.653   2.381   8.805 -1.7004  0.6078 -2.2904
  185SLPC  H16Y21347   3.738   2.224   8.784 -0.1773 -0.8414 -4.6979
  185SLPC  C31721348   3.559   2.202   8.903 -0.5275 -0.5487 -0.4690
  185SLPC  H17X21349   3.540   2.095   8.880 -0.8175 -1.1952  2.3862
  185SLPC  H17Y21350   3.468   2.264   8.917  0.5191  0.8040  0.6979
  185SLPC  C31821351   3.629   2.201   9.039 -0.1699  0.7853 -0.0734
  185SLPC  H18X21352   3.563   2.136   9.100 -1.6939  0.2251 -2.2085
  185SLPC  H18Y21353   3.629   2.299   9.092 -0.5258  1.0953 -0.6374
  185SLPC  H18Z21354   3.735   2.166   9.036 -1.0449 -2.0716 -0.0511
  186SLPC     N21355   5.590   3.541   6.104 -0.0174  0.3716  0.3004
  186SLPC   C1321356   5.686   3.525   6.213 -0.7115 -0.2243 -0.5878
  186SLPC  H13A21357   5.738   3.616   6.238 -0.0878 -0.2728 -1.6593
  186SLPC  H13B21358   5.645   3.489   6.307  0.3068  0.6451  0.2102
  186SLPC  H13C21359   5.762   3.452   6.191 -0.5429 -0.6035  1.1162
  186SLPC   C1421360   5.516   3.418   6.076  0.4900  0.0365 -0.0619
  186SLPC  H14A21361   5.442   3.426   5.998  1.3763  0.4347 -0.8774
  186SLPC  H14B21362   5.583   3.339   6.046  2.3196  0.9291  1.4625
  186SLPC  H14C21363   5.459   3.392   6.164 -1.0946  1.0110 -0.7567
  186SLPC   C1521364   5.681   3.569   5.985 -0.2084  0.4413 -0.1036
  186SLPC  H15A21365   5.700   3.675   5.971 -0.8409  0.6998  0.8618
  186SLPC  H15B21366   5.774   3.518   6.006 -1.6458 -1.9937  0.7783
  186SLPC  H15C21367   5.643   3.537   5.889  0.8678  0.0614 -0.4119
  186SLPC   C1221368   5.506   3.657   6.126  0.0476 -0.6278 -0.3275
  186SLPC  H12A21369   5.443   3.687   6.043 -0.2781  2.1903  0.8294
  186SLPC  H12B21370   5.578   3.737   6.120 -1.9312  1.2380 -0.6144
  186SLPC   C1121371   5.421   3.672   6.255  0.9358  0.1971 -0.2939
  186SLPC  H11A21372   5.372   3.772   6.262 -2.2244 -1.2219 -0.3929
  186SLPC  H11B21373   5.478   3.677   6.350 -0.2260 -0.7370  0.4839
  186SLPC     P21374   5.176   3.574   6.224  0.1810 -0.0504 -0.2597
  186SLPC   O1321375   5.165   3.698   6.145 -0.2417 -0.4073  0.1138
  186SLPC   O1421376   5.151   3.448   6.154  0.0983 -0.0213  0.0672
  186SLPC   O1221377   5.325   3.566   6.277  0.0695 -0.3443 -0.1366
  186SLPC   O1121378   5.099   3.578   6.358  0.1959 -0.3947  0.3956
  186SLPC    C121379   5.125   3.675   6.455 -0.4872 -0.1299 -1.6575
  186SLPC    HA21380   5.235   3.687   6.464 -0.6479  0.5022 -0.3287
  186SLPC    HB21381   5.089   3.774   6.419 -2.1867 -0.1914 -0.2861
  186SLPC    C221382   5.052   3.637   6.588 -0.3103  0.2786 -0.1048
  186SLPC    HS21383   5.034   3.731   6.645  0.7279 -0.0148  0.7376
  186SLPC   O2121384   5.140   3.538   6.661  0.0197  0.4516 -0.2267
  186SLPC   C2121385   5.246   3.597   6.722 -0.3246  0.6722 -1.1905
  186SLPC   O2221386   5.255   3.718   6.751  0.4367 -0.0263 -0.1933
  186SLPC   C2221387   5.354   3.496   6.760  0.0494  0.3579 -0.1287
  186SLPC   H2R21388   5.308   3.395   6.763 -0.2690  0.5125  0.4018
  186SLPC   H2S21389   5.425   3.494   6.675  0.9590 -2.2791  0.5787
  186SLPC    C321390   4.911   3.580   6.552  0.6183 -0.3079  0.2344
  186SLPC    HX21391   4.922   3.475   6.520  1.1147  0.0360 -0.7596
  186SLPC    HY21392   4.857   3.626   6.467 -1.1000 -1.0138  0.9064
  186SLPC   O3121393   4.830   3.594   6.673  0.2596  0.1877  0.2813
  186SLPC   C3121394   4.701   3.595   6.655  0.8354  0.5987 -0.3725
  186SLPC   O3221395   4.633   3.591   6.550 -0.7088  0.1420 -0.2242
  186SLPC   C3221396   4.637   3.614   6.796  0.2562  0.7330 -0.4980
  186SLPC   H2X21397   4.526   3.621   6.794  0.1811  0.1778  0.8954
  186SLPC   H2Y21398   4.686   3.697   6.850 -3.0026  1.3318  1.8294
  186SLPC   C2321399   5.442   3.530   6.883 -0.2482  0.0600  0.4550
  186SLPC   H3R21400   5.490   3.630   6.872 -0.7476  0.1595 -1.1398
  186SLPC   H3S21401   5.513   3.445   6.887 -1.2477 -0.8549 -0.6780
  186SLPC   C2421402   5.375   3.532   7.027  0.7771 -0.0271 -0.2610
  186SLPC   H4R21403   5.355   3.426   7.052 -0.2527  0.2328  0.0628
  186SLPC   H4S21404   5.282   3.593   7.028  1.8379  1.6584  1.2370
  186SLPC   C2521405   5.474   3.593   7.130  0.1544  0.0190 -0.1443
  186SLPC   H5R21406   5.518   3.684   7.084 -3.8367  0.7626 -3.0084
  186SLPC   H5S21407   5.546   3.513   7.160 -0.1848 -0.4841 -0.6404
  186SLPC   C2621408   5.403   3.645   7.260  0.0342  0.2327 -1.0433
  186SLPC   H6R21409   5.316   3.712   7.243 -1.0251  0.6325  4.3344
  186SLPC   H6S21410   5.475   3.712   7.313  1.4606 -2.7404  1.1033
  186SLPC   C2721411   5.358   3.531   7.345  0.3590 -0.2357 -0.3154
  186SLPC   H7R21412   5.444   3.468   7.378  0.1469 -2.4467 -3.5285
  186SLPC   H7S21413   5.300   3.460   7.283 -1.6423 -0.8296  2.0610
  186SLPC   C2821414   5.258   3.560   7.458 -0.4245 -0.0927  0.2999
  186SLPC   H8R21415   5.206   3.466   7.485  2.6858 -1.5874  1.6326
  186SLPC   H8S21416   5.172   3.615   7.414 -0.4633 -0.3448  0.0608
  186SLPC   C2921417   5.322   3.636   7.575 -0.0867 -0.5840  0.4052
  186SLPC   H9R21418   5.404   3.704   7.549 -0.0897 -0.5382  0.5167
  186SLPC  C21021419   5.310   3.617   7.707 -0.1343 -0.9071 -0.9048
  186SLPC  H10R21420   5.359   3.683   7.780  0.9350 -1.1898 -1.3561
  186SLPC  C21121421   5.217   3.521   7.775 -0.6005 -0.7691 -0.4035
  186SLPC  H11R21422   5.258   3.417   7.773 -1.2470 -1.0190 -1.0514
  186SLPC  H11S21423   5.123   3.501   7.720 -2.0959 -0.0742  1.7632
  186SLPC  C21221424   5.180   3.566   7.920 -0.2750  0.5954  0.1461
  186SLPC  H12R21425   5.146   3.671   7.924  0.2497  0.8030 -0.5252
  186SLPC  C21321426   5.162   3.486   8.028  0.3408 -0.0458 -0.6907
  186SLPC  H13R21427   5.138   3.527   8.127  1.5878 -2.5644  0.7367
  186SLPC  C21421428   5.186   3.334   8.023 -0.0904  0.0466 -0.2383
  186SLPC  H14R21429   5.260   3.307   8.101 -2.1705 -0.0168  1.7922
  186SLPC  H14S21430   5.226   3.296   7.926 -1.2010 -0.8628 -0.3661
  186SLPC  C21521431   5.054   3.265   8.058 -0.4229  0.1922 -0.5694
  186SLPC  H15R21432   4.982   3.266   7.974 -1.3025  1.6657  0.1619
  186SLPC  H15S21433   5.010   3.309   8.150  0.5488  2.4240 -1.1080
  186SLPC  C21621434   5.075   3.112   8.075 -0.4953  0.1822  0.4045
  186SLPC  H16R21435   5.152   3.079   8.148  0.0125 -1.7008 -0.9014
  186SLPC  H16S21436   5.126   3.084   7.981  1.3263  1.3557  1.0007
  186SLPC  C21721437   4.951   3.026   8.089  0.1126 -0.1509  0.8797
  186SLPC  H17R21438   4.978   2.919   8.097  0.1744 -0.3323 -1.3655
  186SLPC  H17S21439   4.891   3.036   7.997  0.0417 -0.7064  0.8645
  186SLPC  C21821440   4.873   3.064   8.213 -0.1692 -0.6022 -0.3379
  186SLPC  H18R21441   4.941   3.049   8.299 -0.6453  1.2948  0.4312
  186SLPC  H18S21442   4.787   3.000   8.244  0.3781 -1.7203 -1.0925
  186SLPC  H18T21443   4.844   3.171   8.203 -0.1374 -0.6417 -0.8769
  186SLPC   C3321444   4.649   3.490   6.889 -0.8177  0.5747  0.2720
  186SLPC   H3X21445   4.754   3.457   6.904 -1.0007  1.0917  3.6176
  186SLPC   H3Y21446   4.592   3.407   6.841 -0.0663 -0.4308  1.0642
  186SLPC   C3421447   4.597   3.526   7.022  1.1443 -0.0290  0.3434
  186SLPC   H4X21448   4.504   3.588   7.025  0.6456 -0.7069 -0.6952
  186SLPC   H4Y21449   4.683   3.575   7.073  1.7374  1.1105 -1.6156
  186SLPC   C3521450   4.571   3.398   7.103  0.6145 -0.3419  0.2288
  186SLPC   H5X21451   4.655   3.331   7.073  1.6083  0.8133  0.3575
  186SLPC   H5Y21452   4.477   3.342   7.089 -0.3538  0.3263  3.1947
  186SLPC   C3621453   4.582   3.409   7.256  0.1129 -0.2084 -0.0746
  186SLPC   H6X21454   4.494   3.464   7.295 -0.0675 -0.2765 -0.3814
  186SLPC   H6Y21455   4.674   3.469   7.270  0.6822 -0.9415 -0.6069
  186SLPC   C3721456   4.605   3.265   7.312  0.3363  0.0547 -0.7614
  186SLPC   H7X21457   4.710   3.241   7.286 -0.0749 -2.2784 -0.4498
  186SLPC   H7Y21458   4.526   3.194   7.279  0.5147 -0.7768  0.5191
  186SLPC   C3821459   4.600   3.255   7.464 -0.0733  0.2812 -0.4974
  186SLPC   H8X21460   4.499   3.283   7.502 -0.2102  1.8852 -1.9326
  186SLPC   H8Y21461   4.671   3.332   7.501 -0.4106 -0.6982  2.4824
  186SLPC   C3921462   4.640   3.115   7.509  0.3008  0.0431 -0.1583
  186SLPC   H9X21463   4.751   3.113   7.517  0.4031  1.9436 -0.5236
  186SLPC   H9Y21464   4.606   3.050   7.426 -1.0454  0.9871 -0.3881
  186SLPC  C31021465   4.573   3.071   7.636  0.5723  1.0185 -1.1153
  186SLPC  H10X21466   4.600   2.969   7.669  0.5009  1.2087 -0.4665
  186SLPC  H10Y21467   4.463   3.066   7.620  0.6266  0.2606 -1.2703
  186SLPC  C31121468   4.598   3.172   7.741  0.2383 -0.6763  0.0657
  186SLPC  H11X21469   4.536   3.264   7.733  1.4948  0.5283  2.7750
  186SLPC  H11Y21470   4.706   3.197   7.750 -0.1079  1.1080 -0.3758
  186SLPC  C31221471   4.574   3.128   7.884 -0.2901  0.3114  0.5546
  186SLPC  H12X21472   4.639   3.039   7.902  0.6971  1.0976  0.9659
  186SLPC  H12Y21473   4.469   3.097   7.898 -0.2963 -0.4335 -0.9571
  186SLPC  C31321474   4.634   3.223   7.989  0.2987 -0.3306  0.3115
  186SLPC  H13X21475   4.737   3.257   7.961  1.6598 -4.2367  0.0175
  186SLPC  H13Y21476   4.645   3.159   8.079  2.7750  0.4185  0.6276
  186SLPC  C31421477   4.544   3.344   8.016 -0.1152  0.2054 -0.4169
  186SLPC  H14X21478   4.555   3.410   7.928 -1.1246 -0.9472 -1.4380
  186SLPC  H14Y21479   4.593   3.410   8.092  1.7438 -1.0744 -0.4385
  186SLPC  C31521480   4.390   3.322   8.048 -0.0249 -0.6745 -0.0143
  186SLPC  H15X21481   4.343   3.295   7.950 -0.1969 -0.5346  0.0293
  186SLPC  H15Y21482   4.355   3.425   8.070  1.5496  0.6438 -3.0133
  186SLPC  C31621483   4.364   3.234   8.164  0.0026 -0.2417 -0.5518
  186SLPC  H16X21484   4.422   3.278   8.248 -0.5431  1.1027 -0.8527
  186SLPC  H16Y21485   4.395   3.127   8.159 -1.6200 -1.0323  2.8730
  186SLPC  C31721486   4.211   3.235   8.204  0.1201  0.1983  0.3511
  186SLPC  H17X21487   4.180   3.341   8.213  0.4348  0.1437  3.1045
  186SLPC  H17Y21488   4.202   3.191   8.306 -0.3680 -1.3075 -0.3178
  186SLPC  C31821489   4.122   3.156   8.107  0.5427  0.4023  0.6711
  186SLPC  H18X21490   4.028   3.149   8.166 -0.8493  1.3105 -1.3498
  186SLPC  H18Y21491   4.155   3.053   8.085 -0.4841  0.4217 -1.0696
  186SLPC  H18Z21492   4.103   3.218   8.017 -0.2506 -1.0701 -0.1954
  187SLPC     N21493   3.108   6.244   6.500  0.5798  0.2732 -0.0660
  187SLPC   C1321494   3.072   6.193   6.640  0.5226 -0.0798  0.1432
  187SLPC  H13A21495   3.163   6.183   6.698 -0.1742 -0.4692  1.1998
  187SLPC  H13B21496   3.009   6.265   6.689  1.6461  0.2124  1.2190
  187SLPC  H13C21497   3.024   6.096   6.643 -1.1218  0.7313  1.1299
  187SLPC   C1421498   2.985   6.250   6.413 -0.0663 -0.7320  0.8610
  187SLPC  H14A21499   3.010   6.258   6.308 -1.5453 -1.4809  0.4192
  187SLPC  H14B21500   2.940   6.152   6.414 -0.4831 -0.5565 -0.0573
  187SLPC  H14C21501   2.920   6.332   6.438 -1.4216 -0.7159 -2.2916
  187SLPC   C1521502   3.201   6.147   6.442 -0.5189  0.4707 -0.6472
  187SLPC  H15A21503   3.224   6.173   6.339  1.4333 -2.5633 -1.1178
  187SLPC  H15B21504   3.293   6.157   6.498  0.0176 -2.5191 -0.7930
  187SLPC  H15C21505   3.175   6.042   6.445 -1.2226  0.6663  1.0518
  187SLPC   C1221506   3.171   6.385   6.509 -0.0103  0.3115  0.0260
  187SLPC  H12A21507   3.247   6.382   6.585 -0.5548  2.3249  0.7114
  187SLPC  H12B21508   3.100   6.451   6.558  1.3538  0.1260  2.3701
  187SLPC   C1121509   3.233   6.449   6.382  0.0698  0.8407 -0.0964
  187SLPC  H11A21510   3.242   6.558   6.400  0.3198  1.1616 -1.9914
  187SLPC  H11B21511   3.160   6.434   6.300  1.5576 -0.3054 -1.2625
  187SLPC     P21512   3.488   6.371   6.431  0.1024 -0.0203  0.6791
  187SLPC   O1321513   3.517   6.231   6.472  0.6620  0.9533 -0.0063
  187SLPC   O1421514   3.602   6.424   6.356  1.0119  0.3395 -0.0268
  187SLPC   O1221515   3.360   6.389   6.343 -0.1758  0.4554  0.2734
  187SLPC   O1121516   3.446   6.452   6.553 -0.2023 -0.1373 -0.0637
  187SLPC    C121517   3.501   6.575   6.599 -0.2627 -0.8657  0.4550
  187SLPC    HA21518   3.611   6.574   6.613 -0.0458  0.5700 -0.9165
  187SLPC    HB21519   3.491   6.647   6.515 -0.4111  0.5120  1.6155
  187SLPC    C221520   3.442   6.615   6.735 -0.2879 -0.3202 -0.6872
  187SLPC    HS21521   3.494   6.710   6.763  0.6925 -1.1760  0.5034
  187SLPC   O2121522   3.454   6.510   6.825 -0.1480 -0.2999  0.1734
  187SLPC   C2121523   3.573   6.498   6.882  0.2253  0.5627 -0.6390
  187SLPC   O2221524   3.670   6.562   6.866  0.1400 -0.3304  0.4737
  187SLPC   C2221525   3.559   6.383   6.990  0.1590  0.0937  0.7462
  187SLPC   H2R21526   3.574   6.286   6.937  0.2336  0.4371  0.1286
  187SLPC   H2S21527   3.650   6.391   7.053  0.1395 -2.0634  1.1350
  187SLPC    C321528   3.294   6.659   6.727 -0.2098  0.8502 -0.3254
  187SLPC    HX21529   3.244   6.586   6.659  0.9602 -0.1978 -0.0967
  187SLPC    HY21530   3.280   6.753   6.670 -2.2821 -0.0165 -1.3670
  187SLPC   O3121531   3.235   6.665   6.857  0.0456 -0.2818  0.3631
  187SLPC   C3121532   3.145   6.573   6.886 -0.6792  0.2671 -0.1453
  187SLPC   O3221533   3.086   6.498   6.812 -0.7850  0.4024 -0.4062
  187SLPC   C3221534   3.107   6.586   7.029 -0.1286  0.2023 -0.1322
  187SLPC   H2X21535   3.073   6.686   7.062  2.3229  0.6223  1.4029
  187SLPC   H2Y21536   3.203   6.568   7.082 -0.0931 -1.1844 -0.6156
  187SLPC   C2321537   3.429   6.387   7.066 -0.2964  0.5650  0.2770
  187SLPC   H3R21538   3.341   6.355   7.007  1.1171  0.4975 -1.8947
  187SLPC   H3S21539   3.415   6.492   7.100 -0.1807  0.9043 -0.7114
  187SLPC   C2421540   3.442   6.311   7.201 -0.2200  0.2632 -0.4105
  187SLPC   H4R21541   3.538   6.347   7.243 -0.7171  4.2202 -2.1847
  187SLPC   H4S21542   3.458   6.201   7.193  3.5276  0.7258 -0.7618
  187SLPC   C2521543   3.335   6.338   7.307 -0.4099  0.2162  0.0645
  187SLPC   H5R21544   3.235   6.299   7.278 -1.0842  1.6470  0.3740
  187SLPC   H5S21545   3.326   6.445   7.334  2.9999  0.6120 -0.0180
  187SLPC   C2621546   3.380   6.276   7.440  0.1277 -0.2289 -0.1784
  187SLPC   H6R21547   3.481   6.318   7.460  0.2043 -0.4075 -0.1786
  187SLPC   H6S21548   3.391   6.165   7.433 -2.1065 -0.5704  0.7677
  187SLPC   C2721549   3.291   6.312   7.557 -0.5375  0.0804 -0.0036
  187SLPC   H7R21550   3.189   6.275   7.532 -0.4734  0.0579 -0.2328
  187SLPC   H7S21551   3.292   6.422   7.567  3.3961  0.2864 -1.0015
  187SLPC   C2821552   3.337   6.257   7.698  0.7095 -0.2202 -0.4158
  187SLPC   H8R21553   3.419   6.311   7.749 -1.1622 -0.6251  3.4166
  187SLPC   H8S21554   3.369   6.151   7.691 -0.9799 -0.7641 -0.3842
  187SLPC   C2921555   3.217   6.263   7.789 -0.2359 -0.0664 -0.1513
  187SLPC   H9R21556   3.118   6.258   7.744 -1.1067 -0.6840  1.7151
  187SLPC  C21021557   3.214   6.279   7.924  0.3075  1.3652 -0.2520
  187SLPC  H10R21558   3.118   6.262   7.974  1.9810 -0.4882  2.6409
  187SLPC  C21121559   3.332   6.310   8.013 -0.5842 -0.3033 -0.8568
  187SLPC  H11R21560   3.403   6.385   7.974  1.5681 -1.2857  0.9890
  187SLPC  H11S21561   3.399   6.226   8.038 -0.2077  0.1568 -0.3071
  187SLPC  C21221562   3.281   6.362   8.144  0.5872 -0.1717  0.1677
  187SLPC  H12R21563   3.195   6.430   8.138 -1.2735 -2.5019 -0.8116
  187SLPC  C21321564   3.325   6.343   8.263  0.6837  0.8210 -0.6961
  187SLPC  H13R21565   3.261   6.377   8.346 -0.7713 -1.7985 -0.6323
  187SLPC  C21421566   3.441   6.262   8.308  0.1013 -0.0349  0.3533
  187SLPC  H14R21567   3.503   6.314   8.384  1.0114  0.0950 -0.4591
  187SLPC  H14S21568   3.512   6.248   8.224 -0.4541  0.2988 -0.1770
  187SLPC  C21521569   3.410   6.123   8.366 -0.2894  0.3239 -0.4624
  187SLPC  H15R21570   3.512   6.086   8.389 -0.6531  0.3626  1.3196
  187SLPC  H15S21571   3.376   6.059   8.282 -0.0488 -1.9627  1.0914
  187SLPC  C21621572   3.317   6.112   8.492 -0.6092  0.6445 -0.3383
  187SLPC  H16R21573   3.310   6.002   8.507  1.7824  0.4750 -0.0373
  187SLPC  H16S21574   3.216   6.152   8.470 -0.8059 -0.3309 -1.2958
  187SLPC  C21721575   3.378   6.183   8.610 -0.3577  0.1963 -0.4385
  187SLPC  H17R21576   3.381   6.292   8.589  0.8285  0.2226 -0.2331
  187SLPC  H17S21577   3.479   6.142   8.633  0.3480  1.6926 -0.7970
  187SLPC  C21821578   3.297   6.156   8.739  0.0314 -0.0614 -1.1657
  187SLPC  H18R21579   3.197   6.202   8.724 -0.1077 -0.4594 -1.4405
  187SLPC  H18S21580   3.359   6.203   8.819 -2.9276 -0.5403  1.5956
  187SLPC  H18T21581   3.294   6.049   8.767  1.7860  0.4216  1.2718
  187SLPC   C3321582   2.996   6.486   7.070 -0.0146  0.0946  0.1642
  187SLPC   H3X21583   2.992   6.392   7.011 -1.1474  0.0015  0.3632
  187SLPC   H3Y21584   2.904   6.542   7.043  2.2751  3.4409 -1.4132
  187SLPC   C3421585   2.998   6.450   7.218  0.1463  0.3196  0.4938
  187SLPC   H4X21586   3.083   6.504   7.264 -0.7433  1.1311  1.2199
  187SLPC   H4Y21587   3.029   6.344   7.234  0.0979  0.2886  0.3852
  187SLPC   C3521588   2.865   6.487   7.285 -0.2299 -0.2041  0.0267
  187SLPC   H5X21589   2.785   6.421   7.244 -0.2045  0.6747 -1.5469
  187SLPC   H5Y21590   2.822   6.586   7.257  1.1276  1.3589  3.0083
  187SLPC   C3621591   2.893   6.498   7.435 -0.1275 -0.4291 -0.6257
  187SLPC   H6X21592   2.995   6.537   7.452 -1.4463  2.4874  1.7022
  187SLPC   H6Y21593   2.890   6.395   7.475  0.2856  0.1669  1.0538
  187SLPC   C3721594   2.791   6.573   7.517  0.1033 -0.0656 -0.8528
  187SLPC   H7X21595   2.788   6.680   7.486  0.6169  0.5212  1.0260
  187SLPC   H7Y21596   2.691   6.530   7.496  0.1386 -1.9816  2.3025
  187SLPC   C3821597   2.826   6.569   7.667 -0.5797  0.6858  0.3691
  187SLPC   H8X21598   2.768   6.646   7.723  0.5065  1.2485  0.7425
  187SLPC   H8Y21599   2.933   6.597   7.673 -0.6559  1.8453 -2.3145
  187SLPC   C3921600   2.798   6.434   7.745 -0.4870 -0.5552 -0.2212
  187SLPC   H9X21601   2.854   6.356   7.690  2.5663  0.9767  0.4536
  187SLPC   H9Y21602   2.689   6.417   7.732 -0.5867  0.1772 -0.4250
  187SLPC  C31021603   2.852   6.448   7.890  0.3888  0.4230 -0.5757
  187SLPC  H10X21604   2.785   6.513   7.950  1.2955  0.6911  0.1703
  187SLPC  H10Y21605   2.957   6.484   7.887  0.7925 -0.6887 -4.0475
  187SLPC  C31121606   2.830   6.316   7.969  0.3291  0.2001 -0.2241
  187SLPC  H11X21607   2.881   6.231   7.918 -0.0254  0.4165 -0.9463
  187SLPC  H11Y21608   2.723   6.289   7.956  0.4271 -1.6464  2.0599
  187SLPC  C31221609   2.865   6.313   8.120 -0.4895  0.0415 -0.2843
  187SLPC  H12X21610   2.792   6.379   8.171 -3.0909 -1.2719 -2.0862
  187SLPC  H12Y21611   2.965   6.356   8.141  0.2326 -1.3397 -0.7965
  187SLPC  C31321612   2.834   6.172   8.173 -0.0896  0.2031 -0.4700
  187SLPC  H13X21613   2.916   6.114   8.127  0.0848  1.5072 -1.8628
  187SLPC  H13Y21614   2.735   6.131   8.142  0.8729 -0.5228 -2.8089
  187SLPC  C31421615   2.852   6.162   8.323 -0.1797  0.2858  0.4941
  187SLPC  H14X21616   2.757   6.199   8.367  0.4610  1.7192  0.7063
  187SLPC  H14Y21617   2.939   6.220   8.360  0.6882 -0.2474 -0.6368
  187SLPC  C31521618   2.877   6.010   8.359  0.1460  0.0557  0.3164
  187SLPC  H15X21619   2.944   5.963   8.284  1.8282  0.8843  1.2552
  187SLPC  H15Y21620   2.780   5.956   8.349  0.6708 -0.6114 -1.8847
  187SLPC  C31621621   2.932   5.999   8.498  0.7682 -0.4844 -0.7841
  187SLPC  H16X21622   2.848   6.024   8.566  1.7066 -0.0450  0.2422
  187SLPC  H16Y21623   3.013   6.072   8.517 -1.1636  1.7167 -0.5974
  187SLPC  C31721624   2.985   5.862   8.540  0.0657 -0.8849  0.0345
  187SLPC  H17X21625   3.066   5.838   8.468 -1.8418 -0.5330 -2.3917
  187SLPC  H17Y21626   2.899   5.798   8.510  1.1790 -2.5018  0.2025
  187SLPC  C31821627   3.039   5.851   8.685  0.0205 -0.0073  0.0432
  187SLPC  H18X21628   3.119   5.926   8.700 -0.8531  0.7330  1.2790
  187SLPC  H18Y21629   3.090   5.753   8.692  1.3369  0.7116  0.8457
  187SLPC  H18Z21630   2.957   5.866   8.759 -0.4468  0.2794 -0.5188
  188SLPC     N21631   6.552   2.001   6.121  0.1675  0.3714  0.0753
  188SLPC   C1321632   6.593   2.133   6.176  0.1715  0.2818 -0.6813
  188SLPC  H13A21633   6.586   2.113   6.282  1.1060  3.4789  0.1018
  188SLPC  H13B21634   6.697   2.152   6.153  0.2263 -0.4199 -1.0363
  188SLPC  H13C21635   6.522   2.208   6.144  0.1758 -0.1532 -1.7496
  188SLPC   C1421636   6.635   1.892   6.177  0.5811 -0.6582 -0.0789
  188SLPC  H14A21637   6.613   1.889   6.283 -0.5634 -0.5241 -0.2969
  188SLPC  H14B21638   6.605   1.797   6.135 -2.2512 -0.0835  0.4150
  188SLPC  H14C21639   6.736   1.914   6.145  0.3499  2.0903  0.8291
  188SLPC   C1521640   6.583   1.989   5.969 -0.1101  0.6187 -0.0462
  188SLPC  H15A21641   6.689   2.001   5.952  0.0317 -0.8835 -0.3562
  188SLPC  H15B21642   6.556   1.890   5.936 -2.2614  1.0120  0.4190
  188SLPC  H15C21643   6.523   2.054   5.908 -0.0336 -0.5412 -1.3855
  188SLPC   C1221644   6.399   1.980   6.137 -0.0895 -0.2928  0.3847
  188SLPC  H12A21645   6.363   1.890   6.090 -0.2560 -0.2963  0.5155
  188SLPC  H12B21646   6.354   2.061   6.081 -0.8533  0.2588  1.7358
  188SLPC   C1121647   6.332   1.994   6.270  0.6777  0.4503 -0.1755
  188SLPC  H11A21648   6.224   2.012   6.247 -0.1872 -0.6699  2.5397
  188SLPC  H11B21649   6.361   2.089   6.320 -3.2766  2.2116 -0.8017
  188SLPC     P21650   6.262   1.755   6.349  0.0096  0.1239 -0.1129
  188SLPC   O1321651   6.197   1.746   6.218  0.2494 -0.4350  0.4129
  188SLPC   O1421652   6.351   1.643   6.388 -0.7049  0.1607  0.1876
  188SLPC   O1221653   6.352   1.890   6.355  0.4058 -0.5222 -0.0359
  188SLPC   O1121654   6.150   1.783   6.454  0.5640 -0.5344 -0.1089
  188SLPC    C121655   6.178   1.784   6.590 -0.2145  0.0343 -0.8991
  188SLPC    HA21656   6.283   1.811   6.615  0.5094 -1.3069 -2.2840
  188SLPC    HB21657   6.119   1.861   6.645  1.0708 -0.0647  0.6936
  188SLPC    C221658   6.137   1.645   6.659  0.2100 -0.1688  0.5006
  188SLPC    HS21659   6.200   1.568   6.609 -0.3825 -0.7673  0.6589
  188SLPC   O2121660   5.996   1.608   6.633  0.4012  0.1730 -0.0592
  188SLPC   C2121661   5.955   1.488   6.652  0.1792 -0.4050  0.4306
  188SLPC   O2221662   6.028   1.392   6.677  0.2790 -0.0095  0.4950
  188SLPC   C2221663   5.800   1.475   6.643 -0.1194  0.8530 -0.7220
  188SLPC   H2R21664   5.773   1.495   6.538  0.1196 -1.4346 -1.2699
  188SLPC   H2S21665   5.775   1.368   6.659  0.1922  1.2291  3.3326
  188SLPC    C321666   6.181   1.639   6.811  0.3264  0.5156  0.9892
  188SLPC    HX21667   6.291   1.654   6.818  0.2879  1.5254 -0.2666
  188SLPC    HY21668   6.151   1.544   6.860 -0.5468  0.6383  0.7032
  188SLPC   O3121669   6.112   1.739   6.883  0.6958 -0.3670 -0.1907
  188SLPC   C3121670   6.182   1.845   6.916 -0.3255 -0.8051  0.0551
  188SLPC   O3221671   6.296   1.879   6.898  0.5509  0.4425  0.4472
  188SLPC   C3221672   6.077   1.927   6.996  1.1998  0.0573 -0.4942
  188SLPC   H2X21673   6.015   1.968   6.913  1.1012  2.1140  0.5339
  188SLPC   H2Y21674   6.125   2.008   7.055  0.7644 -0.5943  0.7846
  188SLPC   C2321675   5.726   1.551   6.752 -0.2314  0.0310 -0.6447
  188SLPC   H3R21676   5.622   1.565   6.718 -1.0349 -0.0609  1.6205
  188SLPC   H3S21677   5.768   1.654   6.762 -0.8956  0.5347 -2.6446
  188SLPC   C2421678   5.733   1.475   6.887  0.3906  0.1077 -0.5444
  188SLPC   H4R21679   5.840   1.470   6.918  0.5051 -3.1270 -1.1789
  188SLPC   H4S21680   5.690   1.376   6.861  0.3362  0.5767 -2.3658
  188SLPC   C2521681   5.650   1.532   7.001  0.0749 -0.2677 -0.3213
  188SLPC   H5R21682   5.541   1.531   6.976  0.4672 -0.9733 -2.1600
  188SLPC   H5S21683   5.677   1.639   7.005  1.4406 -0.6224  2.0586
  188SLPC   C2621684   5.682   1.479   7.137  0.1238 -0.0397 -0.5911
  188SLPC   H6R21685   5.636   1.525   7.227 -1.2075 -1.3649 -0.5424
  188SLPC   H6S21686   5.792   1.480   7.153  0.5018 -0.6663 -2.8346
  188SLPC   C2721687   5.652   1.334   7.159  0.2833  0.6992  0.2495
  188SLPC   H7R21688   5.702   1.264   7.088 -3.0194 -1.4530 -0.1649
  188SLPC   H7S21689   5.542   1.330   7.143  0.3418  0.6821 -0.1668
  188SLPC   C2821690   5.681   1.291   7.306 -0.2022  0.0379  0.1913
  188SLPC   H8R21691   5.777   1.336   7.338 -1.3323  0.8371  2.6465
  188SLPC   H8S21692   5.687   1.180   7.301 -2.4093 -0.1304 -0.0869
  188SLPC   C2921693   5.567   1.307   7.394  0.5480 -0.4198 -0.2621
  188SLPC   H9R21694   5.471   1.258   7.369 -0.5947  2.3758 -1.7584
  188SLPC  C21021695   5.566   1.384   7.507 -0.1374 -0.4292  0.2127
  188SLPC  H10R21696   5.471   1.387   7.562 -0.2518 -0.9034  0.0434
  188SLPC  C21121697   5.678   1.474   7.561 -0.5567 -0.3656  0.5298
  188SLPC  H11R21698   5.675   1.565   7.498 -1.9331 -1.5333 -1.1754
  188SLPC  H11S21699   5.772   1.415   7.551  0.7421  1.8992 -2.0748
  188SLPC  C21221700   5.674   1.538   7.695 -0.2105 -0.8360 -0.2362
  188SLPC  H12R21701   5.665   1.648   7.700 -1.8911 -0.8988 -1.1649
  188SLPC  C21321702   5.700   1.474   7.812  0.3310  0.2877  0.5028
  188SLPC  H13R21703   5.688   1.525   7.909 -0.4419  0.5703  0.2732
  188SLPC  C21421704   5.729   1.331   7.830  0.7453 -0.1691 -0.0554
  188SLPC  H14R21705   5.738   1.285   7.730  1.1806 -0.9059  0.3109
  188SLPC  H14S21706   5.635   1.288   7.871  1.0549 -1.3924 -0.5882
  188SLPC  C21521707   5.857   1.307   7.908  0.5368 -0.2071  0.2835
  188SLPC  H15R21708   5.887   1.392   7.972 -0.5162  1.0082 -0.7895
  188SLPC  H15S21709   5.942   1.308   7.836 -1.4303 -2.5616 -2.2976
  188SLPC  C21621710   5.862   1.173   7.977  0.3928  0.3757 -0.4507
  188SLPC  H16R21711   5.969   1.155   7.999  0.1182 -2.2314 -0.9233
  188SLPC  H16S21712   5.830   1.084   7.919  2.4060 -0.9669  0.4275
  188SLPC  C21721713   5.779   1.182   8.106 -0.2604 -0.2945  0.0748
  188SLPC  H17R21714   5.675   1.213   8.082 -0.0136 -0.7861 -1.7105
  188SLPC  H17S21715   5.819   1.258   8.177  0.6947 -1.7384  1.1537
  188SLPC  C21821716   5.772   1.052   8.194 -0.5638  0.1099  0.6851
  188SLPC  H18R21717   5.695   0.980   8.157 -0.2227 -0.5883  1.2962
  188SLPC  H18S21718   5.742   1.071   8.300 -2.1659 -0.2799  0.3365
  188SLPC  H18T21719   5.870   1.000   8.204  1.0084  2.2956 -2.0802
  188SLPC   C3321720   5.988   1.853   7.103  0.1073 -0.6049  0.4623
  188SLPC   H3X21721   5.929   1.768   7.064 -0.7773 -0.1648  0.8225
  188SLPC   H3Y21722   5.911   1.921   7.144  0.5284  0.1838 -0.0293
  188SLPC   C3421723   6.071   1.800   7.220  0.3564 -0.1153 -0.5092
  188SLPC   H4X21724   6.098   1.882   7.290 -0.6945  1.6803 -2.1069
  188SLPC   H4Y21725   6.166   1.756   7.181  0.9293 -0.2954  1.0230
  188SLPC   C3521726   6.011   1.692   7.298 -0.1623  0.7323 -0.1647
  188SLPC   H5X21727   5.982   1.603   7.239  0.1390 -0.4795  1.4364
  188SLPC   H5Y21728   5.914   1.729   7.337 -0.5013 -1.4475  1.2414
  188SLPC   C3621729   6.096   1.649   7.412 -0.5273  0.3328 -0.1714
  188SLPC   H6X21730   6.153   1.737   7.449 -1.5814  1.0147 -0.1437
  188SLPC   H6Y21731   6.175   1.580   7.374 -0.8242 -0.1369  0.0540
  188SLPC   C3721732   6.023   1.572   7.520  0.8067 -0.4255  0.3327
  188SLPC   H7X21733   5.961   1.494   7.470 -0.4594 -0.2420  1.5356
  188SLPC   H7Y21734   5.957   1.643   7.575  0.1608 -0.1982 -0.7091
  188SLPC   C3821735   6.106   1.505   7.628 -0.9272 -0.5161 -0.8159
  188SLPC   H8X21736   6.187   1.448   7.578 -1.5790 -0.9385 -1.4078
  188SLPC   H8Y21737   6.054   1.425   7.685  0.9432 -1.1774  0.0421
  188SLPC   C3921738   6.156   1.606   7.738  0.9076  0.8189  0.6744
  188SLPC   H9X21739   6.085   1.692   7.746 -0.5838 -0.1000 -1.5391
  188SLPC   H9Y21740   6.250   1.647   7.694 -0.0678  2.3696 -0.0656
  188SLPC  C31021741   6.185   1.538   7.866  0.4467  0.3113  0.2236
  188SLPC  H10X21742   6.245   1.445   7.857 -0.4157 -0.1500 -1.2641
  188SLPC  H10Y21743   6.091   1.527   7.925 -0.8183 -0.5527 -1.8099
  188SLPC  C31121744   6.275   1.616   7.961 -0.3729 -0.5788 -0.3652
  188SLPC  H11X21745   6.243   1.722   7.963 -0.4046 -0.5459 -1.6824
  188SLPC  H11Y21746   6.378   1.612   7.918 -0.6778 -0.6850 -1.0828
  188SLPC  C31221747   6.261   1.559   8.104  0.5430  0.1949 -0.5036
  188SLPC  H12X21748   6.315   1.462   8.113  1.7909  0.8999 -0.0818
  188SLPC  H12Y21749   6.155   1.546   8.136  0.6702  2.6524  1.2133
  188SLPC  C31321750   6.316   1.656   8.208  0.0312 -0.2181 -1.2271
  188SLPC  H13X21751   6.254   1.748   8.220 -1.2024 -1.0297 -1.2031
  188SLPC  H13Y21752   6.408   1.705   8.168  0.7735 -0.9343 -0.4376
  188SLPC  C31421753   6.324   1.593   8.340 -0.0202  0.4678 -0.6926
  188SLPC  H14X21754   6.391   1.504   8.338  1.0437  1.2466 -0.9414
  188SLPC  H14Y21755   6.228   1.546   8.369  0.8478  0.0999  1.8972
  188SLPC  C31521756   6.377   1.682   8.457  0.6203  0.4479 -0.2367
  188SLPC  H15X21757   6.461   1.737   8.410  2.3039 -2.4254 -0.8362
  188SLPC  H15Y21758   6.421   1.612   8.532 -2.0190 -1.0217  0.0889
  188SLPC  C31621759   6.267   1.772   8.519  0.1406 -0.9167  0.3487
  188SLPC  H16X21760   6.188   1.712   8.570 -2.4917  1.3668 -0.7857
  188SLPC  H16Y21761   6.214   1.829   8.441  1.9278  2.3631  1.3587
  188SLPC  C31721762   6.328   1.868   8.624 -0.3125 -0.7211  0.4622
  188SLPC  H17X21763   6.406   1.927   8.572 -1.2996 -0.3928 -0.7022
  188SLPC  H17Y21764   6.380   1.810   8.703  0.4772 -0.1165  0.3949
  188SLPC  C31821765   6.235   1.977   8.690  0.1383 -0.4936 -0.1498
  188SLPC  H18X21766   6.159   1.922   8.750  0.2762  0.6391  1.1130
  188SLPC  H18Y21767   6.178   2.036   8.616  0.5784  0.6109  0.3653
  188SLPC  H18Z21768   6.299   2.039   8.756  0.9100 -1.1498 -0.2571
  189SLPC     N21769   1.052   3.806   5.966 -0.2050 -0.9333 -0.3074
  189SLPC   C1321770   1.046   3.947   5.914  0.7039 -0.1966  0.6554
  189SLPC  H13A21771   1.037   3.945   5.807 -0.7929 -0.9981  0.7734
  189SLPC  H13B21772   0.960   3.995   5.959  0.9296 -0.7421  1.7122
  189SLPC  H13C21773   1.131   4.003   5.951 -1.2361  3.3621  0.0761
  189SLPC   C1421774   1.190   3.751   5.927 -0.0202  0.5966  0.3104
  189SLPC  H14A21775   1.214   3.770   5.823  0.1899  0.9305  0.4164
  189SLPC  H14B21776   1.260   3.800   5.993 -2.2893  1.7979  1.9755
  189SLPC  H14C21777   1.201   3.646   5.947  0.3582  0.6002  0.1289
  189SLPC   C1521778   0.939   3.732   5.902 -0.0545  0.3524  0.4162
  189SLPC  H15A21779   0.842   3.765   5.934 -0.9416  1.6509 -3.1188
  189SLPC  H15B21780   0.933   3.754   5.796  0.0721  1.8979  0.7051
  189SLPC  H15C21781   0.960   3.627   5.916  2.4708  0.7883  0.5099
  189SLPC   C1221782   1.027   3.803   6.114  0.3572 -0.0280  0.0477
  189SLPC  H12A21783   1.034   3.701   6.150 -1.3779 -0.6977 -1.3524
  189SLPC  H12B21784   0.926   3.834   6.138 -0.5428 -1.8880 -1.0823
  189SLPC   C1121785   1.115   3.899   6.205  0.0679 -0.2556  0.0282
  189SLPC  H11A21786   1.081   3.903   6.310 -1.2929  1.1085 -0.4254
  189SLPC  H11B21787   1.112   4.005   6.172  2.4677 -0.2692 -0.3853
  189SLPC     P21788   1.301   3.729   6.284  0.0827 -0.6439 -0.0388
  189SLPC   O1321789   1.297   3.619   6.190  0.1247 -0.1303 -0.3912
  189SLPC   O1421790   1.430   3.757   6.351  0.1603 -0.5202 -0.0298
  189SLPC   O1221791   1.253   3.859   6.204  0.2130  0.5802 -0.2517
  189SLPC   O1121792   1.187   3.706   6.392 -0.1140 -0.3001  0.1640
  189SLPC    C121793   1.214   3.639   6.516  0.1627 -0.0133 -0.6769
  189SLPC    HA21794   1.281   3.554   6.493  0.8509  0.5011 -0.6311
  189SLPC    HB21795   1.265   3.710   6.585  1.2692 -0.5167 -0.9475
  189SLPC    C221796   1.095   3.577   6.584 -0.9535  0.4299 -0.3051
  189SLPC    HS21797   1.071   3.475   6.546 -2.0670  0.8727 -0.8461
  189SLPC   O2121798   0.976   3.663   6.572 -0.3723  0.5953  0.5324
  189SLPC   C2121799   0.914   3.650   6.461 -0.0027  0.4234  0.4133
  189SLPC   O2221800   0.921   3.554   6.383 -0.6652  0.4946 -0.1437
  189SLPC   C2221801   0.836   3.775   6.428  0.5614 -0.1850  0.3233
  189SLPC   H2R21802   0.906   3.861   6.421 -1.1135  1.1950 -0.1741
  189SLPC   H2S21803   0.785   3.764   6.330  0.7647  2.1998 -0.1177
  189SLPC    C321804   1.122   3.563   6.734  0.9203  0.5944 -0.0392
  189SLPC    HX21805   1.131   3.662   6.783 -0.0581  0.9038 -0.4762
  189SLPC    HY21806   1.219   3.507   6.733  0.8885  0.3866 -4.0183
  189SLPC   O3121807   1.016   3.481   6.792  0.0901 -0.5252 -0.7095
  189SLPC   C3121808   1.059   3.442   6.905 -0.2681 -0.5041 -0.6998
  189SLPC   O3221809   1.154   3.494   6.965  0.7590  0.0772  0.0343
  189SLPC   C3221810   0.969   3.323   6.942  0.2216 -0.5544  0.1446
  189SLPC   H2X21811   1.002   3.227   6.898 -0.9644 -1.6449  1.5222
  189SLPC   H2Y21812   0.866   3.348   6.910  0.5437  1.5409  0.6080
  189SLPC   C2321813   0.714   3.804   6.523  0.1245  0.2798 -0.6155
  189SLPC   H3R21814   0.675   3.906   6.503 -1.2304 -0.2523 -0.7769
  189SLPC   H3S21815   0.754   3.797   6.627 -0.9647 -1.2787 -0.2672
  189SLPC   C2421816   0.603   3.698   6.507 -0.3821  0.4357 -0.1551
  189SLPC   H4R21817   0.635   3.599   6.545  1.6795  1.2912  0.4552
  189SLPC   H4S21818   0.577   3.674   6.402 -3.3639 -1.8257  0.9610
  189SLPC   C2521819   0.464   3.735   6.568 -0.2331 -0.4651  0.0987
  189SLPC   H5R21820   0.393   3.650   6.564 -2.2839  1.0367  1.8162
  189SLPC   H5S21821   0.419   3.811   6.499  0.3815 -0.4708 -0.3139
  189SLPC   C2621822   0.470   3.783   6.714  0.1954  0.4636 -0.2872
  189SLPC   H6R21823   0.370   3.818   6.746 -0.0009  0.4337 -0.8635
  189SLPC   H6S21824   0.543   3.867   6.721 -1.1082  1.5570  0.7851
  189SLPC   C2721825   0.512   3.680   6.826 -0.2815  0.5099  1.0122
  189SLPC   H7R21826   0.614   3.638   6.808  0.3679  2.5631 -0.4797
  189SLPC   H7S21827   0.442   3.596   6.804 -0.1157  1.1128 -2.2104
  189SLPC   C2821828   0.508   3.731   6.970  0.4138  0.0085 -0.0802
  189SLPC   H8R21829   0.501   3.649   7.045  0.4860 -0.3784 -0.4938
  189SLPC   H8S21830   0.413   3.789   6.976  0.4654  0.4175 -2.3286
  189SLPC   C2921831   0.624   3.824   7.003 -0.2068 -0.4770  0.4391
  189SLPC   H9R21832   0.638   3.894   6.920 -1.9591 -1.2970 -0.6135
  189SLPC  C21021833   0.698   3.826   7.111  0.0543  0.0159 -0.3339
  189SLPC  H10R21834   0.779   3.898   7.128  1.1286 -1.3836  0.6800
  189SLPC  C21121835   0.679   3.731   7.224  0.0856  0.4199 -0.4140
  189SLPC  H11R21836   0.705   3.625   7.203 -1.7122 -0.4978  1.5623
  189SLPC  H11S21837   0.569   3.719   7.236  0.0989  0.0887 -0.6164
  189SLPC  C21221838   0.752   3.773   7.357  0.4054  0.3126 -0.7176
  189SLPC  H12R21839   0.854   3.809   7.342 -0.3760  2.2034 -1.9296
  189SLPC  C21321840   0.697   3.762   7.486  0.0874  0.5387  0.7175
  189SLPC  H13R21841   0.769   3.774   7.568 -0.6459  0.0560  1.4410
  189SLPC  C21421842   0.557   3.718   7.516  0.0317  0.1623  0.0802
  189SLPC  H14R21843   0.530   3.648   7.434 -0.0231  2.0896 -1.6323
  189SLPC  H14S21844   0.487   3.804   7.509 -0.5219 -0.2185  0.8426
  189SLPC  C21521845   0.547   3.646   7.650 -0.4240 -1.1073 -0.4259
  189SLPC  H15R21846   0.622   3.565   7.662  1.7742  1.0470  1.4167
  189SLPC  H15S21847   0.448   3.598   7.666 -0.1829 -1.0736  1.2954
  189SLPC  C21621848   0.554   3.752   7.763 -1.4662  0.5790  0.3103
  189SLPC  H16R21849   0.466   3.819   7.754 -2.0932  0.1803  2.6280
  189SLPC  H16S21850   0.648   3.810   7.755 -0.3276 -1.0983  0.8674
  189SLPC  C21721851   0.552   3.695   7.905  0.2280  0.6753 -0.3757
  189SLPC  H17R21852   0.458   3.637   7.904 -0.6172  1.9902 -1.7909
  189SLPC  H17S21853   0.537   3.770   7.985 -0.3008 -0.6198  0.7680
  189SLPC  C21821854   0.683   3.620   7.931 -0.1376 -0.2088 -0.0569
  189SLPC  H18R21855   0.681   3.523   7.876  0.2106  0.7028 -1.7372
  189SLPC  H18S21856   0.695   3.601   8.040  0.6321 -1.7602 -0.3684
  189SLPC  H18T21857   0.777   3.668   7.896 -0.2703  0.9151  1.0394
  189SLPC   C3321858   0.973   3.285   7.092  0.0430  0.1308 -0.1225
  189SLPC   H3X21859   1.076   3.292   7.131 -0.3687 -2.9587  1.8386
  189SLPC   H3Y21860   0.941   3.181   7.114 -0.1085 -0.0492 -1.1413
  189SLPC   C3421861   0.887   3.371   7.179 -0.3942  0.7930 -0.4281
  189SLPC   H4X21862   0.910   3.479   7.164 -1.0206  0.9523 -0.2914
  189SLPC   H4Y21863   0.893   3.355   7.289  0.8953 -0.4377 -0.6574
  189SLPC   C3521864   0.737   3.373   7.137 -0.1151 -0.2226 -0.2902
  189SLPC   H5X21865   0.725   3.424   7.039 -0.5636 -0.7267 -0.4980
  189SLPC   H5Y21866   0.678   3.436   7.208 -0.5596 -0.1383 -0.7340
  189SLPC   C3621867   0.680   3.233   7.136 -0.5919 -0.8813  0.3203
  189SLPC   H6X21868   0.694   3.178   7.231  0.4652 -1.7887 -0.3261
  189SLPC   H6Y21869   0.719   3.171   7.052  0.4258 -0.6076  0.5818
  189SLPC   C3721870   0.525   3.255   7.123  1.1440 -0.1578 -0.6606
  189SLPC   H7X21871   0.470   3.160   7.108  2.2718 -0.8777 -0.3814
  189SLPC   H7Y21872   0.514   3.322   7.036 -0.8639 -0.4167 -0.6489
  189SLPC   C3821873   0.441   3.315   7.240 -0.1014  0.0952  0.5066
  189SLPC   H8X21874   0.339   3.343   7.207  0.1171  2.9690  1.9365
  189SLPC   H8Y21875   0.480   3.414   7.273  0.2855 -0.3152  1.3063
  189SLPC   C3921876   0.420   3.224   7.356 -0.5538  0.6102  0.0667
  189SLPC   H9X21877   0.517   3.179   7.386  1.0263  2.1340 -2.3796
  189SLPC   H9Y21878   0.362   3.136   7.322  0.6946  0.0304 -0.6373
  189SLPC  C31021879   0.367   3.294   7.484 -0.2617 -0.1164  0.0998
  189SLPC  H10X21880   0.264   3.329   7.461 -1.0467 -1.2803  1.6855
  189SLPC  H10Y21881   0.437   3.369   7.526 -2.9992  3.1277 -0.7868
  189SLPC  C31121882   0.343   3.180   7.593 -0.0224 -0.2216  0.1435
  189SLPC  H11X21883   0.304   3.088   7.544 -1.9609  0.4381  0.3818
  189SLPC  H11Y21884   0.273   3.224   7.668  0.9740  0.2146  0.8486
  189SLPC  C31221885   0.479   3.151   7.662 -0.1372  0.2973 -0.0402
  189SLPC  H12X21886   0.508   3.242   7.720 -0.4763  1.1350 -1.1398
  189SLPC  H12Y21887   0.555   3.125   7.585 -0.9273 -2.4901  0.0167
  189SLPC  C31321888   0.457   3.039   7.771 -0.5945 -0.1629  0.7758
  189SLPC  H13X21889   0.450   2.938   7.726  1.6969  0.2572 -0.7222
  189SLPC  H13Y21890   0.360   3.053   7.823 -1.5696  0.7617 -1.1920
  189SLPC  C31421891   0.563   3.036   7.887 -0.3874 -0.5268  0.4304
  189SLPC  H14X21892   0.571   3.140   7.926  0.2759  0.1514 -1.3900
  189SLPC  H14Y21893   0.661   3.001   7.850 -0.5786  1.9278 -2.8401
  189SLPC  C31521894   0.527   2.932   8.002 -0.4853  0.5800 -0.4874
  189SLPC  H15X21895   0.476   2.844   7.956 -0.1951  0.1617 -0.0168
  189SLPC  H15Y21896   0.442   2.977   8.057 -1.8775 -1.2692 -0.9976
  189SLPC  C31621897   0.649   2.885   8.072 -0.1606  0.3225 -0.3810
  189SLPC  H16X21898   0.696   2.968   8.129 -2.7236  1.4164  0.3000
  189SLPC  H16Y21899   0.720   2.834   8.004  0.4268  1.2125 -0.4620
  189SLPC  C31721900   0.616   2.783   8.182  0.3838 -0.0867 -0.8026
  189SLPC  H17X21901   0.562   2.698   8.134  1.0086 -0.0193 -1.6552
  189SLPC  H17Y21902   0.536   2.819   8.249  1.7112  1.6985 -0.0863
  189SLPC  C31821903   0.738   2.731   8.263 -0.9904  0.4441 -0.1509
  189SLPC  H18X21904   0.714   2.649   8.334 -0.0784 -0.0207 -0.3663
  189SLPC  H18Y21905   0.776   2.816   8.324  0.9127 -0.5657  0.1278
  189SLPC  H18Z21906   0.820   2.686   8.203 -0.0105  0.7392  0.9439
  190SLPC     N21907   1.488   1.461   5.882 -0.9886 -0.3540  0.8670
  190SLPC   C1321908   1.366   1.545   5.899 -0.2026 -0.2793  0.1799
  190SLPC  H13A21909   1.313   1.578   5.811 -0.1122  1.0436  0.6074
  190SLPC  H13B21910   1.301   1.493   5.967 -0.3050  0.5673  0.7339
  190SLPC  H13C21911   1.388   1.636   5.952 -1.3991 -0.0384  0.2874
  190SLPC   C1421912   1.596   1.539   5.806  0.0234  0.0419  0.9118
  190SLPC  H14A21913   1.688   1.482   5.794  1.0442  1.6333  0.8607
  190SLPC  H14B21914   1.561   1.566   5.708 -1.4028 -1.2504  1.0281
  190SLPC  H14C21915   1.619   1.628   5.863 -2.3717  0.6780  0.9879
  190SLPC   C1521916   1.448   1.339   5.801 -0.5092 -0.5170  0.7739
  190SLPC  H15A21917   1.526   1.270   5.775 -0.7176 -0.5403  0.1882
  190SLPC  H15B21918   1.371   1.286   5.854 -0.6756 -1.4321 -0.3439
  190SLPC  H15C21919   1.412   1.364   5.702  0.3493 -0.4561  0.4689
  190SLPC   C1221920   1.545   1.415   6.008  0.5049  0.2130  0.5130
  190SLPC  H12A21921   1.640   1.368   5.987  1.1886  2.4772 -1.9750
  190SLPC  H12B21922   1.482   1.340   6.054 -0.4134  0.1396 -0.8289
  190SLPC   C1121923   1.557   1.515   6.128 -0.4852 -0.3120 -0.5275
  190SLPC  H11A21924   1.587   1.459   6.219  0.1483 -1.7871 -1.6120
  190SLPC  H11B21925   1.464   1.568   6.157  0.6861  0.6740  1.7191
  190SLPC     P21926   1.804   1.602   6.101 -0.6188 -0.5353  0.3969
  190SLPC   O1321927   1.845   1.472   6.053  0.3392 -0.0186  0.4812
  190SLPC   O1421928   1.858   1.729   6.034  0.6323 -0.1060  0.0567
  190SLPC   O1221929   1.649   1.611   6.091 -0.1484  0.3496 -0.5652
  190SLPC   O1121930   1.833   1.600   6.254 -0.3118 -0.3812 -0.9535
  190SLPC    C121931   1.756   1.687   6.339 -0.7827  0.9238 -0.4144
  190SLPC    HA21932   1.742   1.783   6.283  1.0412  0.5400 -1.6172
  190SLPC    HB21933   1.658   1.647   6.370  0.2295 -1.3555  0.0034
  190SLPC    C221934   1.837   1.730   6.465 -0.0113 -0.6889  0.0855
  190SLPC    HS21935   1.848   1.639   6.526 -0.7089 -0.1652  1.0116
  190SLPC   O2121936   1.759   1.826   6.537  0.2752  0.3934  0.3815
  190SLPC   C2121937   1.798   1.838   6.661 -0.0348 -0.5225 -0.1515
  190SLPC   O2221938   1.870   1.765   6.722  0.1714  0.4222 -0.0709
  190SLPC   C2221939   1.736   1.958   6.721  0.2280 -0.3906 -0.4904
  190SLPC   H2R21940   1.775   2.034   6.649  2.8923 -0.1944  1.0240
  190SLPC   H2S21941   1.625   1.954   6.720  0.2669 -1.7242 -1.4368
  190SLPC    C321942   1.977   1.791   6.424 -0.2227  0.3014  0.3983
  190SLPC    HX21943   1.948   1.865   6.347 -0.3845  0.9151  1.0393
  190SLPC    HY21944   2.035   1.711   6.372 -0.2937 -1.3171  2.6423
  190SLPC   O3121945   2.054   1.845   6.534 -0.4622  0.5957  0.8919
  190SLPC   C3121946   2.075   1.977   6.534  0.3812  0.2432  0.4211
  190SLPC   O3221947   2.027   2.058   6.456  0.0310 -0.0001 -0.1534
  190SLPC   C3221948   2.181   2.010   6.646  0.4182  0.1442  0.4545
  190SLPC   H2X21949   2.273   2.043   6.592  1.4708  0.8362  2.5397
  190SLPC   H2Y21950   2.193   1.908   6.690  1.0914  0.4555  1.0079
  190SLPC   C2321951   1.776   1.988   6.864 -0.0705  0.0522  0.5943
  190SLPC   H3R21952   1.886   1.976   6.877 -0.0290 -0.7180 -0.3129
  190SLPC   H3S21953   1.747   1.902   6.929 -1.1577 -0.9024 -1.0701
  190SLPC   C2421954   1.731   2.125   6.902 -1.0160 -1.2769 -0.2553
  190SLPC   H4R21955   1.620   2.130   6.900 -0.9801 -0.5313 -1.3515
  190SLPC   H4S21956   1.755   2.206   6.830 -4.0490 -0.7254 -0.7973
  190SLPC   C2521957   1.794   2.162   7.040 -0.0490  0.9358  0.5644
  190SLPC   H5R21958   1.774   2.267   7.072  0.8436  3.0103 -4.6659
  190SLPC   H5S21959   1.905   2.153   7.035 -0.0266 -0.3843  2.3891
  190SLPC   C2621960   1.742   2.071   7.153  0.4953  0.6254  0.4252
  190SLPC   H6R21961   1.786   1.971   7.137  0.0006  0.0097  2.6089
  190SLPC   H6S21962   1.631   2.072   7.157  0.4951  3.3813  2.8265
  190SLPC   C2721963   1.794   2.118   7.288 -0.1986  0.6812 -0.9477
  190SLPC   H7R21964   1.751   2.215   7.319  1.8594  0.8010  1.8797
  190SLPC   H7S21965   1.904   2.123   7.275 -0.2773 -1.1786 -3.0869
  190SLPC   C2821966   1.757   2.023   7.407  0.7425 -0.1949  0.2233
  190SLPC   H8R21967   1.777   1.915   7.393  0.2931 -0.2052 -0.3462
  190SLPC   H8S21968   1.647   2.030   7.416  0.8946  1.1108  1.4638
  190SLPC   C2921969   1.837   2.068   7.528  0.1625  0.1032 -0.0562
  190SLPC   H9R21970   1.936   2.113   7.506  1.4574 -2.6165 -0.1298
  190SLPC  C21021971   1.809   2.047   7.661  0.5450 -0.2261  0.2282
  190SLPC  H10R21972   1.883   2.084   7.733 -0.1627  0.4873  0.6052
  190SLPC  C21121973   1.680   1.978   7.705  0.2783 -0.2092 -0.5281
  190SLPC  H11R21974   1.597   1.995   7.633 -0.0220 -1.7985 -0.6024
  190SLPC  H11S21975   1.635   2.028   7.794 -0.7026 -0.3262 -0.9467
  190SLPC  C21221976   1.701   1.833   7.729 -0.3765  0.4633  0.2529
  190SLPC  H12R21977   1.740   1.779   7.641  0.6195  0.7583  0.4945
  190SLPC  C21321978   1.677   1.768   7.842  0.0071 -0.2089 -0.3068
  190SLPC  H13R21979   1.698   1.660   7.845 -0.0363 -0.2070  0.1286
  190SLPC  C21421980   1.626   1.818   7.972  0.3671 -0.3791 -0.3340
  190SLPC  H14R21981   1.533   1.760   7.993  1.3487 -1.6234  0.7189
  190SLPC  H14S21982   1.597   1.925   7.966 -2.5434 -0.9337  1.6015
  190SLPC  C21521983   1.703   1.799   8.101  0.0520 -1.2654  0.1549
  190SLPC  H15R21984   1.650   1.873   8.164  0.3236  0.2145 -1.2819
  190SLPC  H15S21985   1.807   1.836   8.092 -0.1686  0.1210  2.5681
  190SLPC  C21621986   1.697   1.662   8.160 -0.2117 -0.1250  0.1352
  190SLPC  H16R21987   1.742   1.587   8.092 -0.0631  0.9152 -0.9362
  190SLPC  H16S21988   1.594   1.626   8.178 -0.8430  1.3404 -0.4208
  190SLPC  C21721989   1.764   1.649   8.294  0.3550 -0.1125  0.3584
  190SLPC  H17R21990   1.860   1.705   8.295  1.0711 -1.2527 -0.8967
  190SLPC  H17S21991   1.768   1.539   8.309  1.5039  0.1368  2.2129
  190SLPC  C21821992   1.679   1.711   8.419 -0.3653  0.0923  0.2657
  190SLPC  H18R21993   1.715   1.814   8.438 -1.5644  0.5674  0.0863
  190SLPC  H18S21994   1.679   1.654   8.514 -0.5325  0.7730  0.6840
  190SLPC  H18T21995   1.572   1.719   8.389 -1.1393 -0.6527  2.6287
  190SLPC   C3321996   2.140   2.121   6.748  0.1814  0.6102  0.4648
  190SLPC   H3X21997   2.029   2.124   6.753  0.1133 -0.6291  0.2027
  190SLPC   H3Y21998   2.186   2.219   6.726  3.2230 -0.3228  2.1357
  190SLPC   C3421999   2.184   2.091   6.900  0.6387  0.6694  0.4239
  190SLPC   H4X22000   2.138   1.996   6.934  3.3099 -1.8216 -2.3717
  190SLPC   H4Y22001   2.144   2.176   6.960 -0.7720  0.1823  0.2179
  190SLPC   C3522002   2.339   2.072   6.911  0.2022  0.7024 -0.4803
  190SLPC   H5X22003   2.397   2.132   6.837 -0.6554 -0.7094 -2.4123
  190SLPC   H5Y22004   2.360   1.964   6.895 -2.1262 -0.2946  2.4091
  190SLPC   C3622005   2.390   2.101   7.051 -0.5618  0.4216 -0.3662
  190SLPC   H6X22006   2.407   2.211   7.057  1.1455  0.1692  0.1461
  190SLPC   H6Y22007   2.494   2.064   7.068 -1.1874 -0.6911  1.2719
  190SLPC   C3722008   2.309   2.033   7.166  0.1705 -0.3262  0.4613
  190SLPC   H7X22009   2.298   1.927   7.133 -0.6950 -0.4091  0.9952
  190SLPC   H7Y22010   2.205   2.071   7.176 -0.2942 -1.0747 -1.1028
  190SLPC   C3822011   2.370   2.041   7.302  0.4686  0.2231 -0.4139
  190SLPC   H8X22012   2.374   2.147   7.337  0.2344  0.0748  0.0761
  190SLPC   H8Y22013   2.471   1.994   7.300  0.6628  0.4793  1.4763
  190SLPC   C3922014   2.286   1.973   7.413 -0.2169 -0.3647  0.4063
  190SLPC   H9X22015   2.278   1.864   7.392 -1.8032 -0.5197  1.6152
  190SLPC   H9Y22016   2.180   2.008   7.417 -0.1808 -0.1302 -0.5116
  190SLPC  C31022017   2.342   2.008   7.558  0.2845  0.2683  0.1685
  190SLPC  H10X22018   2.347   2.118   7.575  0.7792  0.4763 -1.1935
  190SLPC  H10Y22019   2.446   1.972   7.566  1.0721  2.0885 -1.1965
  190SLPC  C31122020   2.259   1.925   7.662 -0.0858  0.9422  0.0363
  190SLPC  H11X22021   2.273   1.822   7.624 -0.2644  0.6468  0.7562
  190SLPC  H11Y22022   2.154   1.961   7.660 -0.2307  0.5815  0.6039
  190SLPC  C31222023   2.300   1.944   7.807 -0.0635 -0.2974  1.0237
  190SLPC  H12X22024   2.259   1.855   7.859  0.3503 -0.8626  0.3922
  190SLPC  H12Y22025   2.255   2.038   7.846  1.7070  1.2245 -0.4323
  190SLPC  C31322026   2.453   1.947   7.828  0.0033 -0.2117  0.4182
  190SLPC  H13X22027   2.499   2.017   7.754 -2.0132  0.7956  0.0458
  190SLPC  H13Y22028   2.493   1.845   7.811  0.4033  0.1115 -0.7014
  190SLPC  C31422029   2.503   1.973   7.968 -0.1924  0.2126  0.5298
  190SLPC  H14X22030   2.455   1.904   8.041 -0.0617 -1.0117 -0.5268
  190SLPC  H14Y22031   2.463   2.073   7.996 -3.2163 -0.4513 -1.0072
  190SLPC  C31522032   2.657   1.952   7.969  0.2234  0.0775 -0.3565
  190SLPC  H15X22033   2.724   2.015   7.906  3.7040 -0.9730  1.9817
  190SLPC  H15Y22034   2.675   1.850   7.929  1.2245  1.2830 -3.3045
  190SLPC  C31622035   2.699   1.965   8.118  0.2799  0.3802 -0.1644
  190SLPC  H16X22036   2.680   1.874   8.179 -0.2221  0.6577  0.1046
  190SLPC  H16Y22037   2.640   2.048   8.163  0.2696 -0.4758  1.4938
  190SLPC  C31722038   2.836   2.016   8.147 -0.2703  0.2814 -0.1849
  190SLPC  H17X22039   2.845   2.032   8.257 -0.2048 -1.1575  0.0347
  190SLPC  H17Y22040   2.839   2.116   8.099  0.5893  0.4350  0.1804
  190SLPC  C31822041   2.947   1.932   8.085  0.5476 -0.3522 -0.1541
  190SLPC  H18X22042   2.954   1.826   8.116  0.8960 -0.7919 -1.6863
  190SLPC  H18Y22043   3.043   1.985   8.105  0.2942 -0.0508  0.2994
  190SLPC  H18Z22044   2.935   1.921   7.975 -1.4163  0.8586 -0.1170
  191SLPC     N22045   0.183   5.598   5.696  0.0397  0.1103  1.2617
  191SLPC   C1322046   0.257   5.646   5.565 -0.0553 -0.1576 -0.4517
  191SLPC  H13A22047   0.360   5.619   5.581 -0.2543  0.8824  3.8078
  191SLPC  H13B22048   0.205   5.612   5.477 -0.6619  3.3724 -1.6395
  191SLPC  H13C22049   0.250   5.753   5.551 -1.2545 -0.1791 -0.1165
  191SLPC   C1422050   0.038   5.620   5.684 -0.5514 -0.4280  0.6253
  191SLPC  H14A22051   0.007   5.565   5.597 -0.4702  2.5400 -1.4310
  191SLPC  H14B22052  -0.027   5.598   5.768 -1.2234  1.6207  0.6962
  191SLPC  H14C22053   0.011   5.724   5.674  0.9178 -0.0629  0.2064
  191SLPC   C1522054   0.230   5.679   5.811  0.1612  0.0449 -0.1396
  191SLPC  H15A22055   0.184   5.646   5.902  0.8164  0.5206  0.3779
  191SLPC  H15B22056   0.337   5.669   5.823  0.3425  2.1760  0.4872
  191SLPC  H15C22057   0.202   5.782   5.793  0.2565  0.0044 -0.5251
  191SLPC   C1222058   0.228   5.451   5.699  0.0374  0.3297  0.0120
  191SLPC  H12A22059   0.336   5.445   5.697  0.0234 -0.0218  0.1331
  191SLPC  H12B22060   0.209   5.396   5.608 -2.8267  0.8150  0.2290
  191SLPC   C1122061   0.182   5.373   5.819 -0.1540  0.2527  0.0502
  191SLPC  H11A22062   0.219   5.424   5.911 -0.1386  1.4238 -0.5844
  191SLPC  H11B22063   0.230   5.274   5.803 -1.7123 -0.7309  1.1342
  191SLPC     P22064  -0.035   5.277   5.727  0.3789 -0.4663  0.0612
  191SLPC   O1322065  -0.162   5.352   5.698  0.0965  0.4749 -0.6211
  191SLPC   O1422066   0.050   5.242   5.610  0.1743  0.4816  0.1048
  191SLPC   O1222067   0.042   5.355   5.829  0.5132  0.0795 -0.1701
  191SLPC   O1122068  -0.072   5.142   5.800 -0.7419  0.9032  0.5316
  191SLPC    C122069   0.035   5.076   5.873  0.0069  0.1357  0.6953
  191SLPC    HA22070   0.017   4.967   5.863 -0.6503  0.1384  1.7535
  191SLPC    HB22071   0.134   5.099   5.826 -0.8447 -0.0169 -1.2807
  191SLPC    C222072   0.036   5.112   6.022  0.2918 -0.1153  0.9226
  191SLPC    HS22073  -0.056   5.168   6.049  0.2803  0.4077 -0.1506
  191SLPC   O2122074   0.156   5.189   6.052  0.1293 -0.0908  0.4416
  191SLPC   C2122075   0.134   5.276   6.147  0.1995 -0.4147  0.2450
  191SLPC   O2222076   0.029   5.300   6.205 -0.1880  0.2184 -0.3194
  191SLPC   C2222077   0.253   5.359   6.190 -0.1761  0.3197  0.3304
  191SLPC   H2R22078   0.335   5.366   6.116 -2.2455  0.2336 -2.1072
  191SLPC   H2S22079   0.200   5.456   6.189  0.3737  0.6425 -1.7563
  191SLPC    C322080   0.042   4.992   6.103 -0.5322  0.0148 -0.2322
  191SLPC    HX22081   0.131   4.930   6.077 -1.3501 -0.4550 -2.0520
  191SLPC    HY22082  -0.040   4.919   6.082  0.0698 -0.3253 -1.5271
  191SLPC   O3122083   0.051   5.032   6.246  0.0834 -0.4566 -0.0508
  191SLPC   C3122084  -0.068   5.028   6.311  0.0851 -1.0381  0.0668
  191SLPC   O3222085  -0.173   4.982   6.267  0.3925  0.3634 -0.3946
  191SLPC   C3222086  -0.046   5.096   6.444 -0.5052  0.0148  0.0169
  191SLPC   H2X22087  -0.087   5.199   6.446  1.8634  1.1597 -3.1809
  191SLPC   H2Y22088   0.064   5.108   6.457 -0.0480 -2.7858 -0.4700
  191SLPC   C2322089   0.299   5.336   6.334 -0.0911 -0.1099 -0.0721
  191SLPC   H3R22090   0.212   5.341   6.404  0.2606 -1.2913  0.4779
  191SLPC   H3S22091   0.371   5.414   6.368  0.1622 -0.9011  1.2812
  191SLPC   C2422092   0.369   5.194   6.355 -0.2887  0.0891 -0.3479
  191SLPC   H4R22093   0.419   5.171   6.259  2.3486  0.7696  0.7763
  191SLPC   H4S22094   0.292   5.114   6.358 -0.0637 -0.1371 -0.5445
  191SLPC   C2522095   0.472   5.177   6.464 -0.2108  0.0680  0.6728
  191SLPC   H5R22096   0.562   5.243   6.457 -0.1613  0.0488  1.0969
  191SLPC   H5S22097   0.511   5.074   6.458 -2.0176 -0.7603  2.1150
  191SLPC   C2622098   0.423   5.182   6.604  0.1217  0.5302 -0.2873
  191SLPC   H6R22099   0.355   5.269   6.614 -0.1873  0.5691 -2.2742
  191SLPC   H6S22100   0.501   5.185   6.683 -1.8389  0.0385  1.7591
  191SLPC   C2722101   0.338   5.060   6.640 -0.5199 -0.2562  0.4109
  191SLPC   H7R22102   0.403   4.975   6.610  0.1167  0.5839 -0.6671
  191SLPC   H7S22103   0.257   5.080   6.566 -0.8297 -1.8448  0.2672
  191SLPC   C2822104   0.292   5.059   6.786 -0.1232 -0.4703 -0.0756
  191SLPC   H8R22105   0.208   4.989   6.806 -0.5050  0.1136  0.3945
  191SLPC   H8S22106   0.251   5.162   6.800  1.9919  0.2875  1.0477
  191SLPC   C2922107   0.406   5.050   6.887 -0.6094  0.6780  0.0352
  191SLPC   H9R22108   0.463   4.956   6.891 -0.4256  0.8412  2.5966
  191SLPC  C21022109   0.456   5.142   6.966  0.0139 -0.4498  0.2197
  191SLPC  H10R22110   0.542   5.123   7.032  1.0429  3.4030  0.2097
  191SLPC  C21122111   0.412   5.285   6.989  0.5437 -0.1658  0.6101
  191SLPC  H11R22112   0.400   5.316   7.096 -1.2072  0.8030  0.1778
  191SLPC  H11S22113   0.310   5.286   6.945  0.8378  1.1338 -0.0928
  191SLPC  C21222114   0.496   5.387   6.917 -0.1612  0.1144 -0.1840
  191SLPC  H12R22115   0.556   5.349   6.832 -0.8286  1.0618 -1.1000
  191SLPC  C21322116   0.509   5.520   6.944  0.0700 -0.4788 -0.3700
  191SLPC  H13R22117   0.577   5.587   6.891 -0.6095 -0.7872 -1.6711
  191SLPC  C21422118   0.425   5.590   7.052 -0.0668 -0.6027 -0.0353
  191SLPC  H14R22119   0.357   5.517   7.099 -2.3485 -0.4510 -2.8237
  191SLPC  H14S22120   0.371   5.674   7.003  0.8515  0.8964  1.4297
  191SLPC  C21522121   0.534   5.657   7.138  0.2815 -0.2144  0.6956
  191SLPC  H15R22122   0.479   5.725   7.206  1.4210  1.3234  0.1386
  191SLPC  H15S22123   0.614   5.704   7.077  0.5629  0.2811  1.4264
  191SLPC  C21622124   0.611   5.568   7.237  0.6316  0.1377 -0.3322
  191SLPC  H16R22125   0.655   5.487   7.175  2.3282  0.3353  0.5355
  191SLPC  H16S22126   0.548   5.523   7.317 -2.3637  3.1644 -0.7754
  191SLPC  C21722127   0.717   5.645   7.315 -0.4608  0.0095 -0.5188
  191SLPC  H17R22128   0.668   5.718   7.383 -2.3235 -2.5584  1.0850
  191SLPC  H17S22129   0.779   5.707   7.246 -0.0914  1.1816  0.8197
  191SLPC  C21822130   0.816   5.564   7.406  0.1354  0.0006  0.7031
  191SLPC  H18R22131   0.856   5.487   7.338 -2.2448  0.5544 -1.4865
  191SLPC  H18S22132   0.768   5.525   7.499  1.8382 -0.9454  1.2164
  191SLPC  H18T22133   0.898   5.627   7.446  0.1771 -0.2923  1.0831
  191SLPC   C3322134  -0.108   5.014   6.567  0.5833  0.1374  0.5905
  191SLPC   H3X22135  -0.077   4.908   6.571 -0.7754 -0.2887  0.5065
  191SLPC   H3Y22136  -0.219   5.019   6.559  0.5051 -0.7640  1.0252
  191SLPC   C3422137  -0.074   5.076   6.704 -0.8093  0.3805  0.1137
  191SLPC   H4X22138  -0.083   5.186   6.710  2.5804  0.7070  1.6060
  191SLPC   H4Y22139   0.027   5.045   6.739 -2.2243 -1.9639  2.5144
  191SLPC   C3522140  -0.173   5.021   6.806  0.0108 -0.2118 -0.2927
  191SLPC   H5X22141  -0.172   4.911   6.789  0.3978  0.2415 -4.1271
  191SLPC   H5Y22142  -0.276   5.047   6.771 -0.1526 -0.7001 -0.1844
  191SLPC   C3622143  -0.156   5.073   6.958 -0.2767 -0.6662 -0.2535
  191SLPC   H6X22144  -0.238   5.042   7.026  0.2045  1.5025  1.4493
  191SLPC   H6Y22145  -0.156   5.184   6.957 -0.5788 -0.6576  0.2647
  191SLPC   C3722146  -0.015   5.034   7.023  0.1913  0.1176 -0.7511
  191SLPC   H7X22147   0.074   5.086   6.982  0.8475 -1.1632 -1.0320
  191SLPC   H7Y22148  -0.004   4.924   7.009 -4.2493 -0.4638 -0.9519
  191SLPC   C3822149  -0.004   5.055   7.173  0.6672 -0.2270  0.5551
  191SLPC   H8X22150  -0.077   4.990   7.225 -2.6066  1.9228 -0.9954
  191SLPC   H8Y22151  -0.053   5.153   7.191 -1.3266 -0.6665 -1.8948
  191SLPC   C3922152   0.137   5.066   7.223  0.0511 -0.4553  0.0625
  191SLPC   H9X22153   0.191   5.148   7.171 -1.2074  0.1999 -0.2565
  191SLPC   H9Y22154   0.188   4.973   7.189 -1.6303 -1.7919  1.0184
  191SLPC  C31022155   0.139   5.082   7.372 -0.5078  0.2887 -0.3292
  191SLPC  H10X22156   0.100   4.999   7.434 -0.9690 -0.3071 -1.4044
  191SLPC  H10Y22157   0.071   5.164   7.403 -2.4545 -1.7158  1.0007
  191SLPC  C31122158   0.281   5.113   7.424 -0.3526 -0.1132 -0.2221
  191SLPC  H11X22159   0.338   5.177   7.354  0.6262 -1.9420 -1.1819
  191SLPC  H11Y22160   0.343   5.023   7.448 -0.0125 -0.1027 -1.0316
  191SLPC  C31222161   0.270   5.188   7.559 -0.1623  0.5520  0.1833
  191SLPC  H12X22162   0.218   5.119   7.629 -1.2149  1.7292  0.5925
  191SLPC  H12Y22163   0.203   5.276   7.550  1.3683  1.8658  1.2325
  191SLPC  C31322164   0.396   5.237   7.610 -0.3689 -0.7067 -0.0942
  191SLPC  H13X22165   0.437   5.320   7.548 -0.0738 -0.0826  0.9123
  191SLPC  H13Y22166   0.482   5.166   7.613 -0.2725 -0.7045 -1.7009
  191SLPC  C31422167   0.376   5.300   7.751 -0.3448  0.5968  0.1124
  191SLPC  H14X22168   0.299   5.378   7.731 -0.1569  0.6654 -0.3457
  191SLPC  H14Y22169   0.469   5.356   7.773 -0.9783  1.2738  1.1545
  191SLPC  C31522170   0.346   5.203   7.867  0.4609  0.5860  0.1729
  191SLPC  H15X22171   0.431   5.133   7.858 -0.7058 -0.7368 -0.8170
  191SLPC  H15Y22172   0.257   5.143   7.840  1.6157 -1.4660  0.7461
  191SLPC  C31622173   0.324   5.276   8.006 -0.6704 -0.5944 -0.3977
  191SLPC  H16X22174   0.261   5.360   7.972  1.5135  1.1805 -0.2877
  191SLPC  H16Y22175   0.423   5.315   8.037 -0.3752 -3.5360  2.9853
  191SLPC  C31722176   0.264   5.199   8.113  0.0345 -0.2976 -1.0959
  191SLPC  H17X22177   0.331   5.118   8.149 -2.7788 -1.5517  1.7980
  191SLPC  H17Y22178   0.178   5.134   8.089  0.2378 -0.9535 -0.1198
  191SLPC  C31822179   0.218   5.301   8.224  0.2681 -0.1163  0.4894
  191SLPC  H18X22180   0.153   5.372   8.170  1.5644 -0.2515 -1.3342
  191SLPC  H18Y22181   0.298   5.369   8.261 -1.7363  3.2719 -0.8922
  191SLPC  H18Z22182   0.159   5.247   8.302 -1.3125  0.4645 -0.2615
  192SLPC     N22183   0.659   5.975   6.082  0.3151  0.6352 -0.4360
  192SLPC   C1322184   0.521   6.017   6.058  0.6245 -0.0660 -0.0174
  192SLPC  H13A22185   0.457   6.049   6.139 -0.9785 -1.5199 -0.6303
  192SLPC  H13B22186   0.528   6.099   5.988  1.1910  0.7524  0.9760
  192SLPC  H13C22187   0.457   5.945   6.008  1.7424 -1.0904 -0.0346
  192SLPC   C1422188   0.721   5.920   5.954 -0.5278 -0.2511  0.1450
  192SLPC  H14A22189   0.725   5.991   5.872  1.2252 -0.9200 -0.4045
  192SLPC  H14B22190   0.820   5.879   5.963 -0.5491 -0.1260  1.0695
  192SLPC  H14C22191   0.654   5.844   5.917 -0.6365 -0.4765  0.8029
  192SLPC   C1522192   0.660   5.865   6.182 -0.0927 -0.0861  0.5917
  192SLPC  H15A22193   0.627   5.904   6.276 -2.8909  1.2416 -0.8091
  192SLPC  H15B22194   0.589   5.786   6.161  1.5766 -1.7701  1.0029
  192SLPC  H15C22195   0.760   5.828   6.198  1.0701  3.1594  1.6186
  192SLPC   C1222196   0.733   6.087   6.139  0.4092  0.0745  0.4204
  192SLPC  H12A22197   0.762   6.157   6.063 -1.0365 -1.0328 -1.2221
  192SLPC  H12B22198   0.829   6.048   6.171  0.1151 -1.1007 -0.0841
  192SLPC   C1122199   0.665   6.171   6.251  0.0289  0.2325  0.1119
  192SLPC  H11A22200   0.736   6.241   6.301 -1.5267  2.0381 -0.0900
  192SLPC  H11B22201   0.647   6.094   6.329 -1.3577 -0.4604 -0.8637
  192SLPC     P22202   0.450   6.291   6.326 -0.0179  0.0883  0.2129
  192SLPC   O1322203   0.374   6.398   6.259 -0.2340  0.4142  0.0314
  192SLPC   O1422204   0.375   6.182   6.389  0.8038 -0.0985  0.0747
  192SLPC   O1222205   0.553   6.243   6.210 -0.8026  0.4723 -0.3612
  192SLPC   O1122206   0.553   6.341   6.432 -0.3855  0.1748 -0.2169
  192SLPC    C122207   0.525   6.460   6.512 -0.4734 -0.3561  0.4587
  192SLPC    HA22208   0.557   6.554   6.463 -1.7480  0.3511  0.9232
  192SLPC    HB22209   0.415   6.475   6.520 -0.2750  1.2159  0.4936
  192SLPC    C222210   0.560   6.448   6.659 -0.3438  0.4822  0.2178
  192SLPC    HS22211   0.669   6.441   6.678 -0.3423  1.5768  0.6975
  192SLPC   O2122212   0.491   6.332   6.711 -0.1607  0.1999  0.0730
  192SLPC   C2122213   0.549   6.214   6.689 -0.5349 -0.0668  0.6048
  192SLPC   O2222214   0.668   6.198   6.651 -0.2913 -0.0715  0.2450
  192SLPC   C2222215   0.450   6.104   6.720  0.4419 -0.2752  0.2232
  192SLPC   H2R22216   0.353   6.155   6.738  0.4035  0.0314 -0.7596
  192SLPC   H2S22217   0.441   6.036   6.632 -2.8644 -0.3385  0.4880
  192SLPC    C322218   0.530   6.565   6.746  0.6967 -0.0862  0.4731
  192SLPC    HX22219   0.425   6.600   6.735  0.6184 -0.0377  1.2754
  192SLPC    HY22220   0.589   6.653   6.715 -0.2332 -0.2727 -2.0467
  192SLPC   O3122221   0.540   6.539   6.881 -0.1863 -0.2025 -0.1855
  192SLPC   C3122222   0.657   6.547   6.948  0.2625 -0.2542 -1.1026
  192SLPC   O3222223   0.762   6.559   6.899  0.1353 -0.8858  0.4981
  192SLPC   C3222224   0.626   6.526   7.099 -0.1965 -0.3382  0.0199
  192SLPC   H2X22225   0.573   6.433   7.126 -1.8429  1.0287  1.8196
  192SLPC   H2Y22226   0.560   6.609   7.134  0.3305 -0.3911  1.1744
  192SLPC   C2322227   0.495   6.038   6.848 -0.0523  1.1501 -0.1352
  192SLPC   H3R22228   0.507   6.108   6.933  1.3406 -1.6333  2.1273
  192SLPC   H3S22229   0.599   5.999   6.844 -0.8098 -1.0170 -0.3442
  192SLPC   C2422230   0.407   5.923   6.905 -0.7180  0.0589 -0.2112
  192SLPC   H4R22231   0.447   5.879   6.999  0.2131  1.1274 -0.0858
  192SLPC   H4S22232   0.415   5.846   6.825 -0.0928  1.0008 -1.0869
  192SLPC   C2522233   0.259   5.963   6.930  0.0098 -0.0406  0.2606
  192SLPC   H5R22234   0.208   5.997   6.838 -1.7101  2.5659  2.0366
  192SLPC   H5S22235   0.273   6.050   6.998 -1.1184 -0.4655  1.0602
  192SLPC   C2622236   0.165   5.860   7.003 -0.4188  0.6651  0.4588
  192SLPC   H6R22237   0.210   5.825   7.099 -0.6203 -2.4638 -0.4927
  192SLPC   H6S22238   0.153   5.765   6.947 -0.0341 -1.6743  4.0304
  192SLPC   C2722239   0.021   5.904   7.020  0.0275  1.2544 -0.5020
  192SLPC   H7R22240  -0.020   5.915   6.917  0.1767  0.4961 -0.6432
  192SLPC   H7S22241   0.015   6.008   7.060  0.7596  1.7351 -1.5821
  192SLPC   C2822242  -0.064   5.798   7.108  0.3609  0.5054  0.4052
  192SLPC   H8R22243  -0.062   5.706   7.047 -0.4486  1.2262 -0.7517
  192SLPC   H8S22244  -0.171   5.827   7.102  0.4145  0.7569  0.6130
  192SLPC   C2922245  -0.025   5.796   7.253  0.0717  0.1873  0.3187
  192SLPC   H9R22246  -0.014   5.898   7.292  0.2551  0.9807 -1.6455
  192SLPC  C21022247   0.019   5.683   7.309  0.7391  0.1269  0.0916
  192SLPC  H10R22248   0.062   5.691   7.410  2.4018 -0.7148 -0.5159
  192SLPC  C21122249   0.038   5.546   7.248 -0.6664  0.1809  0.2525
  192SLPC  H11R22250   0.098   5.498   7.328 -0.4142  1.4529  0.8630
  192SLPC  H11S22251   0.109   5.552   7.163  0.9197 -0.0396  1.4995
  192SLPC  C21222252  -0.088   5.475   7.220  0.6843  0.5611  0.3676
  192SLPC  H12R22253  -0.120   5.476   7.114  1.3132  2.0660  0.1743
  192SLPC  C21322254  -0.163   5.403   7.301 -0.1163  0.2584  0.3556
  192SLPC  H13R22255  -0.243   5.349   7.246  1.6975 -0.5929 -1.6058
  192SLPC  C21422256  -0.139   5.370   7.450 -0.6687 -0.4228 -0.5864
  192SLPC  H14R22257  -0.144   5.465   7.507  1.3660 -0.2883 -0.5623
  192SLPC  H14S22258  -0.034   5.334   7.459 -0.8699 -0.6612  0.9998
  192SLPC  C21522259  -0.246   5.279   7.504 -0.6313  0.4218 -0.7816
  192SLPC  H15R22260  -0.236   5.182   7.452  1.6843  0.1207  0.0573
  192SLPC  H15S22261  -0.338   5.340   7.497  0.3692  1.9555 -1.1694
  192SLPC  C21622262  -0.223   5.237   7.649  0.5584  0.0311 -0.5456
  192SLPC  H16R22263  -0.219   5.330   7.710 -0.7707  0.1187 -0.5550
  192SLPC  H16S22264  -0.125   5.186   7.659  0.0919 -0.5946  1.0271
  192SLPC  C21722265  -0.331   5.156   7.709  1.0928  0.3764 -0.1602
  192SLPC  H17R22266  -0.299   5.121   7.809  0.4934  0.4203  0.0482
  192SLPC  H17S22267  -0.420   5.222   7.716  0.9062  0.1899 -0.7522
  192SLPC  C21822268  -0.369   5.035   7.625  0.3316  1.0013 -0.1884
  192SLPC  H18R22269  -0.277   4.997   7.576 -0.6935 -0.7343 -0.8787
  192SLPC  H18S22270  -0.448   5.055   7.549 -0.0574  2.6259  0.6070
  192SLPC  H18T22271  -0.393   4.949   7.692 -4.3786  1.5336 -0.7982
  192SLPC   C3322272   0.748   6.523   7.199  0.1137  0.2097 -0.1302
  192SLPC   H3X22273   0.806   6.618   7.192 -0.1850  0.4177  0.1470
  192SLPC   H3Y22274   0.809   6.436   7.169 -1.0445 -0.4172 -0.7241
  192SLPC   C3422275   0.719   6.511   7.347  0.3623  0.4517 -0.2103
  192SLPC   H4X22276   0.657   6.422   7.370 -0.8466  1.4059  0.3531
  192SLPC   H4Y22277   0.658   6.599   7.377 -1.0980 -0.3572 -0.6567
  192SLPC   C3522278   0.845   6.509   7.433 -0.0278 -0.0511  0.3385
  192SLPC   H5X22279   0.890   6.608   7.410  0.2154 -0.3742 -0.5921
  192SLPC   H5Y22280   0.914   6.424   7.417 -0.2495 -0.1053 -0.3433
  192SLPC   C3622281   0.819   6.518   7.586  0.3320 -0.5194 -0.3941
  192SLPC   H6X22282   0.785   6.422   7.629 -1.3907  0.5950  0.8907
  192SLPC   H6Y22283   0.731   6.582   7.610  0.1919 -0.7740 -0.2209
  192SLPC   C3722284   0.949   6.559   7.657  0.0792 -0.4111  0.4860
  192SLPC   H7X22285   0.981   6.660   7.625 -1.4597  0.2128  0.8117
  192SLPC   H7Y22286   1.031   6.492   7.623  0.1516  0.1630 -0.5033
  192SLPC   C3822287   0.940   6.580   7.812  0.2348 -0.5311  0.1838
  192SLPC   H8X22288   0.864   6.659   7.832 -0.4836 -0.7867 -1.3605
  192SLPC   H8Y22289   1.032   6.634   7.844  1.8602 -2.4709 -0.9745
  192SLPC   C3922290   0.937   6.456   7.888  0.2152  0.0754  0.5057
  192SLPC   H9X22291   1.039   6.413   7.894  1.2082  2.2024 -0.4159
  192SLPC   H9Y22292   0.864   6.386   7.842  1.1448  0.6085 -1.9380
  192SLPC  C31022293   0.898   6.489   8.040  0.1857  0.1887 -0.2996
  192SLPC  H10X22294   0.787   6.499   8.045 -0.2148 -2.1414 -2.5117
  192SLPC  H10Y22295   0.933   6.585   8.085 -0.8263  0.2672  0.3455
  192SLPC  C31122296   0.941   6.373   8.136  0.3169 -0.9095 -0.4305
  192SLPC  H11X22297   1.050   6.361   8.120  0.2714  1.3744 -3.4942
  192SLPC  H11Y22298   0.892   6.285   8.090  1.4544 -1.2828 -0.9497
  192SLPC  C31222299   0.900   6.405   8.277 -0.7572  0.5555 -0.4305
  192SLPC  H12X22300   0.805   6.460   8.294 -0.1910  1.0437  1.4649
  192SLPC  H12Y22301   0.978   6.472   8.319 -1.8062  4.2679 -3.8340
  192SLPC  C31322302   0.881   6.281   8.373 -0.7107 -0.6046  0.4112
  192SLPC  H13X22303   0.796   6.221   8.333 -0.5692 -0.0325 -0.7877
  192SLPC  H13Y22304   0.845   6.321   8.470 -1.2308  2.7178 -1.0379
  192SLPC  C31422305   0.990   6.165   8.357  0.4801 -0.5783  0.1115
  192SLPC  H14X22306   1.009   6.155   8.248 -0.2873  0.0910 -0.0893
  192SLPC  H14Y22307   0.950   6.070   8.400 -1.0211  0.0735  0.2329
  192SLPC  C31522308   1.121   6.194   8.435 -0.5368 -0.4902  0.5958
  192SLPC  H15X22309   1.185   6.272   8.388 -1.6505 -0.5347 -1.0606
  192SLPC  H15Y22310   1.178   6.098   8.427  1.0196  0.4437 -0.0308
  192SLPC  C31622311   1.094   6.228   8.580  0.9650 -0.2377 -0.2266
  192SLPC  H16X22312   1.018   6.159   8.622  1.8223 -0.7458  0.5390
  192SLPC  H16Y22313   1.045   6.328   8.587 -1.1710 -1.0274 -2.4634
  192SLPC  C31722314   1.207   6.216   8.684  0.1195  0.1738 -0.3114
  192SLPC  H17X22315   1.287   6.266   8.625 -0.5191  0.5499 -0.8728
  192SLPC  H17Y22316   1.240   6.111   8.702 -1.3260  0.1115  2.7437
  192SLPC  C31822317   1.174   6.270   8.819 -0.1204 -0.1646  0.2263
  192SLPC  H18X22318   1.089   6.218   8.868  0.0373  0.8140  1.6011
  192SLPC  H18Y22319   1.150   6.377   8.805 -0.4186 -0.5419 -2.8309
  192SLPC  H18Z22320   1.259   6.270   8.891 -0.2989  0.5590  0.4422
  193SOD    SOD22321   4.243   6.471  11.655  0.0953 -0.2560  0.0614
  194SOD    SOD22322   6.386   2.037  13.790  0.1848 -0.2494  0.4761
  195SOD    SOD22323   0.055   4.158  16.537  0.3020 -0.1401  0.5405
  196SOD    SOD22324   4.439   3.790  15.152 -0.6981 -0.0784 -0.0376
  197SOD    SOD22325   4.055   2.831  11.188 -0.2637 -0.3355 -0.0307
  198SOD    SOD22326   2.533   4.795  15.738 -0.1028 -0.2831 -0.0235
  199SOD    SOD22327   1.992   2.150  13.182  0.1669  0.2523  0.1276
  200SOD    SOD22328   3.404   0.753   0.172 -0.3328 -0.0110  0.1128
  201SOD    SOD22329   4.032   5.876   6.436 -0.2338  0.4932 -0.0366
  202SOD    SOD22330   6.351   6.469  15.729  0.2577  0.4659  0.0111
  203SOD    SOD22331   4.928   2.004  14.278 -0.5022 -0.0045 -0.0079
  204SOD    SOD22332   4.995   4.357  16.511  0.0409 -0.3885  0.2813
  205SOD    SOD22333   4.315   2.578  13.363 -0.4712  0.7026 -0.1811
  206SOD    SOD22334   6.658   0.036   1.499 -0.3009  0.0004 -0.0718
  207SOD    SOD22335   6.464   4.996   6.145  0.3253 -0.4399  0.0801
  208SOD    SOD22336   6.813   3.246   3.824  0.3307 -0.2988 -0.0254
  209SOD    SOD22337   4.216   2.211   4.187 -0.2423  0.2691  0.3653
  210SOD    SOD22338   5.639   0.897   2.570  0.0633  0.3564 -0.4110
  211SOD    SOD22339   1.907   5.190   0.276 -0.5001  0.2032  0.0861
  212SOD    SOD22340   2.192   1.158  12.343 -0.0595 -0.7391  0.0947
  213SOD    SOD22341   3.906   3.825   5.390 -0.2805 -0.2396  0.1432
  214SOD    SOD22342   1.112   5.039   5.791  0.2005  0.4539 -0.1047
  215SOD    SOD22343   6.747   2.407  14.319 -0.3495 -0.1700 -0.1422
  216SOD    SOD22344   4.253   2.526   5.869 -0.5119 -0.2763  0.2230
  217SOD    SOD22345   1.535   1.308  14.797 -0.3811  0.0326 -0.2058
  218SOD    SOD22346   0.973   0.361  12.991 -0.6323  0.1877  0.1933
  219SOD    SOD22347   2.118   5.429  15.269  0.4610  0.0843 -0.5062
  220SOD    SOD22348   6.446   6.063   2.789 -0.0200 -0.4898  0.6225
  221SOD    SOD22349   1.726   0.330   5.170 -0.1708 -0.5367 -0.0085
  222SOD    SOD22350   3.633   4.739  11.020  0.2011 -0.4031  0.0197
  223SOD    SOD22351   3.227   0.924  15.300 -0.0791 -0.0045  0.5283
  224SOD    SOD22352   4.435   5.830   4.402  0.0472 -0.2651 -0.3487
  225SOD    SOD22353   3.051   1.777   2.632  0.6434 -0.3141  0.2672
  226SOD    SOD22354   6.308   2.022   5.342 -0.1342 -0.1819  0.3721
  227SOD    SOD22355   1.452   5.960   5.825 -0.0663 -0.0760  0.3430
  228SOD    SOD22356   5.885   2.149   5.620 -0.2648  0.0620 -0.5244
  229SOD    SOD22357   4.502   3.776   0.728 -0.0039  0.3201  0.1060
  230SOD    SOD22358   1.990   6.592   3.025  0.1432  0.1326  0.0030
  231SOD    SOD22359   0.166   4.946  16.414  0.7746 -0.2051 -0.2654
  232SOD    SOD22360   4.143   2.973   6.567  0.1390 -0.0449  0.3868
  233SOD    SOD22361   2.325   3.841   3.111 -0.1156  0.2747 -0.0097
  234SOD    SOD22362   6.106   3.753   3.182  0.2853 -0.0851  0.2912
  235SOD    SOD22363   0.707   0.691  14.520  0.4526 -0.6664 -0.0286
  236SOD    SOD22364   3.935   0.652  14.778  0.2310  0.3946  0.5608
  237SOD    SOD22365   3.227   1.032   6.636 -0.0416  0.1140  0.1543
  238SOD    SOD22366   3.596   3.914  12.363  0.0248  0.1007 -0.4101
  239SOD    SOD22367   3.381   3.376  10.659  0.0944  0.1493  0.0551
  240SOD    SOD22368   4.482   0.960  16.586  0.0393  0.1706 -0.1726
  241SOD    SOD22369   6.522   2.251  16.353  0.1379  0.3241  0.4795
  242SOD    SOD22370   0.842   0.848  14.980 -0.7422  0.2622  0.0188
  243SOD    SOD22371   4.938   3.665  13.581 -0.0348  0.5018 -0.3489
  244SOD    SOD22372   6.582   5.220   2.478 -0.3178 -0.5385 -0.0837
  245SOD    SOD22373   5.266   3.906   5.175 -0.0089 -0.4499 -0.2011
  246SOD    SOD22374   6.544   1.285   4.731 -0.3994  0.5204  0.4243
  247SOD    SOD22375   5.011   5.266   2.053  0.1077  0.3431  0.5309
  248SOD    SOD22376   4.872   2.516  17.026 -0.1075 -0.0268 -0.4499
  249SOD    SOD22377   0.005   3.803  13.301  0.0941 -0.5044 -0.7453
  250SOD    SOD22378   1.354   5.101  11.079 -0.5154 -0.1371 -0.0362
  251SOD    SOD22379   2.455   5.071  13.768  0.0058  0.0041 -0.4130
  252SOD    SOD22380   3.590   5.749  11.889  0.0848  0.1355  0.1417
  253SOD    SOD22381   5.225   3.926  11.270  0.3778 -0.1120  0.7366
  254SOD    SOD22382   1.351   2.889  12.058  0.0007 -0.1948 -0.1942
  255SOD    SOD22383   2.467   1.855  10.810  0.5865  0.3042 -0.0124
  256SOD    SOD22384   3.801   1.572   5.593  0.7463  0.7227  0.1569
  257SOD    SOD22385   6.290   4.684   4.169  0.2550  0.2448 -0.1011
  258SOD    SOD22386   5.476   2.370   2.510  0.3662  0.0035 -0.2199
  259SOD    SOD22387   1.434   1.721  11.023 -0.3729 -0.0506  0.3129
  260SOD    SOD22388   6.524   5.712   1.640 -0.0854  0.1658  0.0455
  261SOD    SOD22389   6.490   5.940  15.800  0.2855  0.3401  0.1816
  262SOD    SOD22390   1.964   1.465   3.292  0.3416  0.4064  0.2187
  263SOD    SOD22391   1.307   5.787  11.721  0.1391  0.4820  1.0989
  264SOD    SOD22392   1.238   3.389  12.046 -0.3735 -0.1920  0.3327
  265SOD    SOD22393   5.458   5.599   4.706  0.4704 -0.1289 -0.2208
  266CLA    CLA22394   5.170   4.501  14.549  0.3430 -0.2115 -0.1360
  267CLA    CLA22395   5.080   5.841   4.626 -0.1925 -0.1381 -0.3399
  268CLA    CLA22396   0.190   2.796   4.347 -0.0057 -0.2806  0.2576
  269CLA    CLA22397   6.215   6.824  16.010  0.3557  0.0340  0.1764
  270CLA    CLA22398   0.988   5.476  11.432  0.1047 -0.0992 -0.0374
  271CLA    CLA22399   5.153   1.936  14.420  0.0164  0.2639 -0.2309
  272CLA    CLA22400   4.091   1.577   5.007  0.4138  0.1855 -0.0814
  273CLA    CLA22401   6.483   3.203   5.134  0.2066 -0.1211 -0.1713
  274CLA    CLA22402   6.703   2.681  16.066  0.0723  0.0572  0.3627
  275CLA    CLA22403   4.543   4.083   4.170 -0.4923 -0.4762 -0.4123
  276CLA    CLA22404   2.795   2.173   2.509  0.3071 -0.7788  0.1712
  277CLA    CLA22405   6.195   2.606   2.726 -0.1672 -0.4029 -0.4144
  278CLA    CLA22406   6.655   1.335  15.695 -0.0435 -0.1335 -0.2634
  279CLA    CLA22407   4.776   0.506   3.336  0.0725  0.2652  0.3379
  280CLA    CLA22408   1.694   5.674   1.221  0.4223 -0.4515 -0.0862
  281CLA    CLA22409   5.070   0.791   1.763  0.1458  0.1491 -0.2809
  282CLA    CLA22410   4.320   6.458  17.169  0.1204  0.2964  0.1209
  283CLA    CLA22411   5.315   1.560   1.650  0.0111  0.0829  0.2958
  284CLA    CLA22412   1.200   5.150  11.722  0.1316  0.3472  0.1245
  285CLA    CLA22413   3.767   0.522  11.715  0.1751 -0.3570 -0.3503
  286CLA    CLA22414   5.312   1.038   4.518 -0.4328  0.3930  0.5894
  287CLA    CLA22415   0.527   4.596  16.317  0.2397  0.5377 -0.2297
  288CLA    CLA22416   1.371   0.894   4.322 -0.4140 -0.5827 -0.1357
  289CLA    CLA22417   6.779   3.698  13.820  0.3009  0.6415  0.0900
  290CLA    CLA22418   6.248   2.317  14.166  0.3899 -0.2739 -0.1991
  291CLA    CLA22419   5.074   6.453  14.602 -0.0003  0.3360  0.5787
  292CLA    CLA22420   3.593   2.870   4.080 -0.1638  0.1989  0.0166
  293CLA    CLA22421   3.934   4.824  12.580  0.7137  0.0617  0.1308
  294CLA    CLA22422   3.225   3.403  15.733 -0.3512 -0.3597  0.0655
  295CLA    CLA22423   5.613   2.963   2.919  0.1975  0.1245  0.1698
  296CLA    CLA22424   2.819   6.091  12.837  0.0779 -0.0898 -0.4106
  297CLA    CLA22425   4.707   1.086  16.493 -0.0360 -0.0245  0.0016
  298CLA    CLA22426   1.248   0.013   0.292 -0.0987  0.1794  0.1572
  299CLA    CLA22427   5.222   1.534   5.492 -0.0793  0.0003 -0.5270
  300CLA    CLA22428   1.115   4.782   3.669 -0.1330 -0.0726 -0.3008
  301CLA    CLA22429   0.625   2.533   2.001  0.1991 -0.0248 -0.5770
  302CLA    CLA22430   6.241   1.304  14.260  0.2073  0.3381  0.1333
  303CLA    CLA22431   4.255   2.291  16.932  0.1813 -0.1804  0.3993
  304CLA    CLA22432   5.737   3.399   3.243  0.4183  0.3952 -0.1474
  305CLA    CLA22433   1.667   3.138  14.685 -0.3739  0.1215 -0.5510
  306CLA    CLA22434   5.795   3.021  14.062  0.0552 -0.2855  0.1062
  307CLA    CLA22435   1.066   6.613  14.035  0.4523 -0.3478 -0.5061
  308CLA    CLA22436   5.611   3.226   0.537 -0.1834 -0.1180 -0.3030
  309CLA    CLA22437   3.072   0.933   4.994 -0.4851 -0.0473 -0.0867
  310CLA    CLA22438   5.716   4.219  15.445 -0.4661 -0.4594 -0.5666
  311CLA    CLA22439   6.443   6.252   2.287 -0.0328  0.2309  0.2228
  312CLA    CLA22440   1.525   4.249  12.252  0.2326  0.2750 -0.3239
  313CLA    CLA22441   1.714   0.822  14.709  0.0493 -0.2953  0.0197
  314CLA    CLA22442   0.965   0.877  13.077  0.3865  0.4867 -0.0896
  315CLA    CLA22443   1.359   0.729   0.739  0.1254  0.2854 -0.5116
  316CLA    CLA22444   0.476   5.808  14.841 -0.0450 -0.1667 -0.6404
  317CLA    CLA22445   5.786   1.664  12.000 -0.3627 -0.0974 -0.2563
  318CLA    CLA22446   1.799   1.966  13.740 -0.0929  0.4607  0.3145
  319TIP3   OH222447   3.997   6.335   2.775  0.2945 -0.5963  0.6301
  319TIP3    H122448   4.026   6.248   2.751 -0.3663 -0.8544  0.7392
  319TIP3    H222449   3.903   6.325   2.794 -0.0520  0.3465 -0.4666
  320TIP3   OH222450   4.205   4.260  12.040  0.1030  0.2279  0.0511
  320TIP3    H122451   4.223   4.198  12.111 -0.8567 -0.8863 -0.6723
  320TIP3    H222452   4.110   4.260  12.030  0.1775  0.8661 -0.8144
  321TIP3   OH222453   1.738   1.882   3.449  0.5865  0.0297  0.0772
  321TIP3    H122454   1.660   1.876   3.503  1.2851 -0.5110  1.0625
  321TIP3    H222455   1.728   1.964   3.400 -0.4850  0.0675  0.3468
  322TIP3   OH222456   1.827   3.270  15.262 -0.4933  0.0133  0.1168
  322TIP3    H122457   1.770   3.219  15.204 -0.3342 -0.6991  0.5769
  322TIP3    H222458   1.766   3.309  15.325 -0.6926  0.9863 -0.6613
  323TIP3   OH222459   4.925   3.933   2.722  0.0745  0.4113  0.7213
  323TIP3    H122460   4.891   4.019   2.744  1.4699  1.3528 -0.6524
  323TIP3    H222461   4.922   3.885   2.805  1.1454  2.4252  2.0091
  324TIP3   OH222462   3.427   5.877   5.819  0.2982  0.2010  0.0802
  324TIP3    H122463   3.491   5.904   5.885  1.1760  0.2808 -0.7791
  324TIP3    H222464   3.469   5.898   5.735 -0.7463  0.0019 -0.5101
  325TIP3   OH222465   3.540   1.425   6.510 -0.1996  0.4870 -0.2313
  325TIP3    H122466   3.452   1.462   6.518 -0.7933 -0.9013  0.0589
  325TIP3    H222467   3.598   1.493   6.544 -1.3725  0.5624  1.7788
  326TIP3   OH222468   2.773   6.417  12.897 -0.4511  0.3344  0.2202
  326TIP3    H122469   2.729   6.469  12.830  0.3263  0.6818 -0.0270
  326TIP3    H222470   2.760   6.326  12.868 -1.4758  0.3912  0.4484
  327TIP3   OH222471   3.337   4.345   5.327  0.8509  0.1889 -0.3507
  327TIP3    H122472   3.322   4.424   5.379 -0.2253 -0.9812  1.2308
  327TIP3    H222473   3.254   4.329   5.284 -0.1289 -1.8846  2.0499
  328TIP3   OH222474   1.426   2.182   1.584  0.9285 -0.1535  0.3087
  328TIP3    H122475   1.419   2.187   1.679 -1.1803  1.8679  0.1302
  328TIP3    H222476   1.369   2.110   1.559  3.0828 -2.0991  0.6026
  329TIP3   OH222477   0.186   5.783  15.241  0.4731 -0.0337  0.3522
  329TIP3    H122478   0.207   5.869  15.276 -2.4539  1.0495 -0.2858
  329TIP3    H222479   0.138   5.801  15.160  0.8330 -2.3077 -0.4299
  330TIP3   OH222480   3.555   1.827  12.172 -0.2101  0.3560 -0.7491
  330TIP3    H122481   3.606   1.814  12.252 -1.2311  1.3348  0.0946
  330TIP3    H222482   3.616   1.868  12.111  0.8459 -1.2651 -0.8191
  331TIP3   OH222483   4.431   1.884  10.987  0.0477  0.0006  0.5618
  331TIP3    H122484   4.413   1.952  10.922 -1.3248 -1.3537 -0.5518
  331TIP3    H222485   4.504   1.834  10.949  0.3542  0.2237  0.8618
  332TIP3   OH222486   6.049   4.582   3.291  0.0008  0.2602  0.4748
  332TIP3    H122487   6.060   4.676   3.304 -1.5918  0.0191  6.0315
  332TIP3    H222488   6.102   4.542   3.359 -1.2069 -2.7552 -0.1981
  333TIP3   OH222489   5.686   2.372   2.569 -0.0047 -0.4102 -0.6583
  333TIP3    H122490   5.732   2.350   2.650 -0.9653 -0.4726 -0.1154
  333TIP3    H222491   5.756   2.390   2.506  0.8326 -3.6634 -0.8053
  334TIP3   OH222492   1.157   4.299  10.608  0.2360 -0.3041 -0.0681
  334TIP3    H122493   1.166   4.205  10.592  1.9281 -0.5897  2.1247
  334TIP3    H222494   1.097   4.329  10.539 -1.1017 -3.1233 -0.2986
  335TIP3   OH222495   2.155   1.859  11.153 -0.9518 -0.1810  0.4892
  335TIP3    H122496   2.151   1.930  11.089  1.9041  0.2009  0.5798
  335TIP3    H222497   2.196   1.898  11.230 -1.4383 -1.4036  1.3995
  336TIP3   OH222498   1.720   2.313   5.924 -0.1517 -0.2565 -0.0236
  336TIP3    H122499   1.741   2.335   6.015  0.8939 -0.4896 -0.1897
  336TIP3    H222500   1.637   2.358   5.906  0.4990  1.2379  0.5117
  337TIP3   OH222501   3.723   0.163   5.098  0.0436 -0.5107 -0.4166
  337TIP3    H122502   3.647   0.124   5.142  0.6385  0.5091  1.6285
  337TIP3    H222503   3.692   0.247   5.066  0.3818  0.1356  0.8688
  338TIP3   OH222504   5.506   5.484   3.726  0.2673 -0.4900 -0.0344
  338TIP3    H122505   5.550   5.543   3.665  0.5688 -0.1219  0.5257
  338TIP3    H222506   5.553   5.496   3.809 -0.6652 -0.3477  0.4903
  339TIP3   OH222507   6.142   2.817  13.700 -0.3538 -0.3165 -0.0364
  339TIP3    H122508   6.229   2.845  13.674 -0.5318  1.1436  0.8763
  339TIP3    H222509   6.083   2.862  13.640 -0.6865  2.0330  1.9108
  340TIP3   OH222510   5.266   6.032  14.046  0.4179 -0.0379 -0.1417
  340TIP3    H122511   5.285   5.980  13.968  1.3648 -0.1598  0.1559
  340TIP3    H222512   5.268   5.969  14.118 -0.5491  0.0565 -0.0190
  341TIP3   OH222513   4.271   0.349   0.036 -0.0424 -0.3200 -0.0187
  341TIP3    H122514   4.249   0.270  -0.014  0.1400  0.3393 -1.1595
  341TIP3    H222515   4.206   0.414   0.009  0.3633  0.2018  0.2327
  342TIP3   OH222516   3.127   3.008  12.672 -0.3315 -0.1528  0.1946
  342TIP3    H122517   3.112   2.951  12.597 -0.9344  0.0403  0.1672
  342TIP3    H222518   3.137   3.096  12.634 -2.1540  0.1986  0.4342
  343TIP3   OH222519   5.713   3.218   4.192 -0.0748 -0.5536 -0.7051
  343TIP3    H122520   5.794   3.167   4.202 -0.9444 -1.6597  1.2827
  343TIP3    H222521   5.658   3.165   4.135  0.6990  0.4179 -2.4487
  344TIP3   OH222522   3.812   0.890   4.943  0.0596  0.3410  0.6566
  344TIP3    H122523   3.813   0.950   5.017  1.0100 -2.3775  3.0565
  344TIP3    H222524   3.750   0.821   4.968  1.6933 -1.5663 -0.2242
  345TIP3   OH222525   4.992   2.788  13.077  0.1870  0.5607  0.1831
  345TIP3    H122526   5.031   2.772  13.163  1.2612 -1.8133 -0.6744
  345TIP3    H222527   4.902   2.816  13.097  0.8186  1.4538  2.0760
  346TIP3   OH222528   3.291   2.856   4.148 -0.2091 -0.4967 -0.1900
  346TIP3    H122529   3.263   2.882   4.060 -0.4062 -1.3910 -0.3967
  346TIP3    H222530   3.384   2.835   4.138 -0.1841 -0.4068 -0.1439
  347TIP3   OH222531   5.952   4.267  11.486  0.4081 -0.1524 -0.1228
  347TIP3    H122532   5.981   4.206  11.553  0.2507  1.9037  1.9589
  347TIP3    H222533   5.857   4.256  11.484  0.3278  0.3040  0.6029
  348TIP3   OH222534   1.431   6.024  13.702 -0.5167 -0.5510 -0.1108
  348TIP3    H122535   1.387   5.961  13.645 -0.8315 -0.4348 -0.0012
  348TIP3    H222536   1.378   6.104  13.694  1.0852  0.4000 -1.9281
  349TIP3   OH222537   3.282   3.802  16.120  0.2447  0.6578 -0.5323
  349TIP3    H122538   3.307   3.786  16.211 -3.9070 -0.0734  0.6680
  349TIP3    H222539   3.310   3.723  16.074  2.6473  1.1569 -0.0485
  350TIP3   OH222540   0.425   2.097  14.444  0.3540 -0.1377 -0.1185
  350TIP3    H122541   0.438   2.096  14.539 -0.4102 -0.5875 -0.0043
  350TIP3    H222542   0.491   2.037  14.411 -1.1919 -2.2769  0.4280
  351TIP3   OH222543   6.167   5.876   1.678  0.3637 -0.0879  0.1523
  351TIP3    H122544   6.201   5.966   1.676 -0.0258  0.0796 -2.9092
  351TIP3    H222545   6.082   5.884   1.721  0.2157  1.0700 -0.3184
  352TIP3   OH222546   3.625   4.073  16.244 -0.1655 -0.5400 -0.2770
  352TIP3    H122547   3.599   4.046  16.156 -0.3088 -0.9845 -0.0961
  352TIP3    H222548   3.714   4.039  16.254  0.1125  0.0911 -0.5020
  353TIP3   OH222549   1.801   4.440   5.662 -0.1737  0.0897  0.0195
  353TIP3    H122550   1.715   4.414   5.696 -0.5411 -0.0889 -1.0060
  353TIP3    H222551   1.816   4.526   5.700 -0.9604  0.2649 -0.0391
  354TIP3   OH222552   4.181   0.167  14.402  0.4869 -0.8903  0.2424
  354TIP3    H122553   4.115   0.153  14.334  1.8415 -0.9166 -1.1264
  354TIP3    H222554   4.179   0.087  14.454 -1.0105 -0.6152  0.6695
  355TIP3   OH222555   3.503   4.547   3.675 -0.1579 -0.2272  0.1149
  355TIP3    H122556   3.591   4.573   3.645 -0.5189  0.3505 -0.4675
  355TIP3    H222557   3.516   4.461   3.714  0.7678  0.0825  0.5245
  356TIP3   OH222558   5.780   1.093  16.316 -0.5689 -0.0215  0.2653
  356TIP3    H122559   5.771   1.056  16.403  0.2895  0.8248  0.7344
  356TIP3    H222560   5.732   1.176  16.320 -0.8801 -0.1772 -0.1918
  357TIP3   OH222561   2.672   4.389  16.079  0.2135  0.3049  0.3984
  357TIP3    H122562   2.720   4.469  16.056 -0.7340  0.6846 -0.3076
  357TIP3    H222563   2.672   4.336  16.000  1.9504 -1.0208  1.2169
  358TIP3   OH222564   5.466   3.010  12.648 -0.2004  0.0560  0.1897
  358TIP3    H122565   5.402   3.077  12.672  0.8304  2.3127 -2.7189
  358TIP3    H222566   5.416   2.945  12.600 -0.5752  1.1751 -0.9962
  359TIP3   OH222567   1.359   1.412  12.874 -0.0959  0.0677 -0.1730
  359TIP3    H122568   1.274   1.378  12.902 -1.3921  1.9609 -1.5756
  359TIP3    H222569   1.377   1.365  12.792  0.1482 -0.2308  0.0510
  360TIP3   OH222570   6.574   1.908  13.862 -0.5364  0.5090 -0.0050
  360TIP3    H122571   6.599   1.827  13.818  2.0628  1.3809 -0.2855
  360TIP3    H222572   6.558   1.882  13.952 -0.4670 -0.4307 -0.2521
  361TIP3   OH222573   4.842   0.031   5.337 -0.3808  0.3928  0.2103
  361TIP3    H122574   4.784   0.017   5.411  0.8920  0.3252  1.2245
  361TIP3    H222575   4.857   0.126   5.335 -0.9173  0.4729 -0.3701
  362TIP3   OH222576   0.238   3.045  15.562 -0.5569  0.1923 -0.3316
  362TIP3    H122577   0.226   3.038  15.657 -0.3929  1.5386 -0.1908
  362TIP3    H222578   0.270   2.959  15.535 -0.3376 -0.1154  0.8711
  363TIP3   OH222579   0.628   0.138  11.116 -0.2046 -0.0516 -0.7201
  363TIP3    H122580   0.590   0.143  11.028 -0.4823  1.3640 -0.5577
  363TIP3    H222581   0.721   0.157  11.103 -0.4019  1.0406 -0.6322
  364TIP3   OH222582   1.688   1.335   2.242 -0.3189 -0.2316  0.4423
  364TIP3    H122583   1.764   1.392   2.231  0.3132 -0.8678  1.3057
  364TIP3    H222584   1.613   1.394   2.246  0.2802  0.5185  0.9821
  365TIP3   OH222585   6.242   1.046   1.627 -0.1168 -1.2244  0.0556
  365TIP3    H122586   6.298   0.989   1.575 -1.0518 -1.7305 -0.4080
  365TIP3    H222587   6.286   1.131   1.624  0.8796 -1.7153  0.1091
  366TIP3   OH222588   2.625   3.701   3.808 -0.0934  0.3456 -0.3398
  366TIP3    H122589   2.619   3.608   3.830 -0.3364  0.5825  0.6338
  366TIP3    H222590   2.719   3.718   3.799  0.1236  0.4948  1.7488
  367TIP3   OH222591   2.907   2.145  12.194  0.7123 -0.2805 -0.4155
  367TIP3    H122592   2.853   2.122  12.119 -0.9915  0.4715  0.5343
  367TIP3    H222593   2.858   2.214  12.239  2.0570 -0.1703  0.9692
  368TIP3   OH222594   2.619   5.742   3.611 -0.3530 -0.1937  0.0617
  368TIP3    H122595   2.581   5.701   3.689 -0.7361 -1.2069 -0.6234
  368TIP3    H222596   2.601   5.679   3.541  0.8868  0.2236 -0.6482
  369TIP3   OH222597   5.366   2.407  13.281  0.3549 -0.1501 -0.3928
  369TIP3    H122598   5.292   2.382  13.226  0.1626  0.2741 -0.3379
  369TIP3    H222599   5.441   2.359  13.246  0.9370  2.3786 -3.0428
  370TIP3   OH222600   4.027   4.479   5.895  0.4863  0.0267 -0.2807
  370TIP3    H122601   4.024   4.480   5.991  3.0169  0.1729 -0.1482
  370TIP3    H222602   3.958   4.418   5.870 -0.3198  0.0773  1.6191
  371TIP3   OH222603   6.625   2.773   3.131 -0.3382  0.0082  0.0368
  371TIP3    H122604   6.541   2.812   3.109  0.7440  1.1029 -2.4749
  371TIP3    H222605   6.633   2.698   3.073  0.8089  0.4638 -0.4145
  372TIP3   OH222606   2.999   6.555   5.142 -0.1059 -0.1098 -0.0566
  372TIP3    H122607   2.910   6.535   5.172 -0.8051  0.3383 -1.7125
  372TIP3    H222608   3.052   6.553   5.222 -1.2853 -2.0138  0.7499
  373TIP3   OH222609   0.325   4.985  12.193  0.2085  0.0895 -0.9025
  373TIP3    H122610   0.302   4.994  12.101  1.9386 -2.2470 -1.6536
  373TIP3    H222611   0.302   4.894  12.215  0.0637  0.5193  0.9076
  374TIP3   OH222612   6.636   3.521  12.966 -0.3587 -0.0996 -0.8293
  374TIP3    H122613   6.629   3.599  12.911 -1.3427  0.2830 -0.1987
  374TIP3    H222614   6.596   3.451  12.915  0.4992 -0.1922 -1.3861
  375TIP3   OH222615   4.338   6.257   2.006 -0.5126 -0.2927  0.0783
  375TIP3    H122616   4.278   6.317   2.051  0.3408 -0.1605  1.0873
  375TIP3    H222617   4.319   6.172   2.045  0.6851 -0.0709  1.2357
  376TIP3   OH222618   6.343   3.042  15.117 -0.2906 -0.4021  0.4611
  376TIP3    H122619   6.417   2.983  15.132 -0.2082 -0.1195  1.2428
  376TIP3    H222620   6.266   2.985  15.119 -0.1134 -0.6663 -0.1293
  377TIP3   OH222621   0.671   1.048  16.302  0.4732 -0.0053 -0.2556
  377TIP3    H122622   0.700   0.983  16.238  0.3757 -1.1149  0.7905
  377TIP3    H222623   0.624   0.997  16.368  0.3813  1.1366  0.5851
  378TIP3   OH222624   6.258   5.892  13.978  0.2162 -0.9042  0.3422
  378TIP3    H122625   6.293   5.858  13.896 -0.1388 -0.2965 -0.0739
  378TIP3    H222626   6.234   5.983  13.957  1.7573 -0.1575  1.5736
  379TIP3   OH222627   6.721   5.354  16.042 -0.0533  0.0389  0.2152
  379TIP3    H122628   6.807   5.348  16.083 -2.0816 -1.4074  4.9806
  379TIP3    H222629   6.698   5.263  16.021 -0.6069  0.3732 -0.6890
  380TIP3   OH222630   4.174   3.402   5.965 -0.2444 -0.2795 -0.6896
  380TIP3    H122631   4.152   3.483   6.011 -1.6448 -0.0674 -1.6855
  380TIP3    H222632   4.090   3.360   5.948  0.4330 -1.6705 -0.6967
  381TIP3   OH222633   3.800   6.342   5.294  0.0198 -0.2025  0.7564
  381TIP3    H122634   3.865   6.394   5.247 -0.2046 -0.5881 -0.0010
  381TIP3    H222635   3.789   6.387   5.377  2.0446 -0.7240  1.3696
  382TIP3   OH222636   5.691   6.396   1.890 -0.2031 -0.0855  0.2530
  382TIP3    H122637   5.647   6.388   1.975 -1.7375  1.3506 -0.3486
  382TIP3    H222638   5.669   6.485   1.860  0.3654 -0.5270 -1.6082
  383TIP3   OH222639   1.072   1.212   3.024 -0.1743  0.5889  0.4951
  383TIP3    H122640   1.162   1.182   3.007 -0.2730  1.6242 -2.3995
  383TIP3    H222641   1.030   1.137   3.066  1.3872 -0.8210 -0.3050
  384TIP3   OH222642   6.438   2.978  11.084 -0.4647  0.3013  0.0400
  384TIP3    H122643   6.374   2.918  11.047  0.5233 -0.1264 -1.0279
  384TIP3    H222644   6.512   2.923  11.109  0.2046  0.9779 -0.3866
  385TIP3   OH222645   5.095   6.477   1.011  0.5675 -0.2787  0.3905
  385TIP3    H122646   5.190   6.467   1.001  0.6426  0.0751  0.7417
  385TIP3    H222647   5.072   6.548   0.951  0.4128 -0.8249 -0.2154
  386TIP3   OH222648   5.958   0.953  15.578 -0.1015 -0.7637  0.3811
  386TIP3    H122649   5.974   0.924  15.668 -0.9673 -1.5557  0.2895
  386TIP3    H222650   6.045   0.951  15.537  0.3354 -0.2208  1.2308
  387TIP3   OH222651   4.661   4.887   5.355 -0.1539 -0.2036  0.4515
  387TIP3    H122652   4.642   4.794   5.344 -2.7507  0.4283 -1.3764
  387TIP3    H222653   4.604   4.915   5.427 -0.5456  0.2584 -0.0303
  388TIP3   OH222654   2.465   3.529  14.137  0.0590 -0.1938  0.1324
  388TIP3    H122655   2.484   3.469  14.209  0.9928 -0.3359 -0.2185
  388TIP3    H222656   2.546   3.579  14.125  0.4158 -1.1156 -1.6972
  389TIP3   OH222657   3.808   2.082   2.857 -0.3059 -0.3849  0.5500
  389TIP3    H122658   3.841   2.038   2.936 -1.1282 -0.6153  0.7743
  389TIP3    H222659   3.885   2.094   2.803  0.0561 -1.4524  0.8025
  390TIP3   OH222660   4.096   5.454  16.991 -0.5029 -0.2928 -0.0930
  390TIP3    H122661   4.151   5.459  16.913 -0.1103 -1.1920  0.1103
  390TIP3    H222662   4.024   5.516  16.974 -0.8759 -1.0726 -1.5168
  391TIP3   OH222663   0.034   4.118   6.247  0.1118  0.0174 -0.3095
  391TIP3    H122664  -0.013   4.165   6.316  3.4515  0.5924  1.7995
  391TIP3    H222665   0.067   4.188   6.190  0.3991 -0.1717 -0.3759
  392TIP3   OH222666   3.035   0.948   4.017 -0.4386 -0.1660  0.3857
  392TIP3    H122667   2.988   0.927   3.936 -0.6076  1.0953  0.1428
  392TIP3    H222668   3.011   1.039   4.036  2.1013  0.6262  0.1247
  393TIP3   OH222669   0.233   5.409  12.651 -0.0901  0.2195 -0.7835
  393TIP3    H122670   0.163   5.433  12.589 -1.3062  1.0365  0.8426
  393TIP3    H222671   0.278   5.336  12.608 -1.6720 -0.0601 -2.0726
  394TIP3   OH222672   0.918   4.662  14.455 -0.0721 -0.1220 -0.0678
  394TIP3    H122673   0.835   4.709  14.448 -0.2966 -0.0063  2.3623
  394TIP3    H222674   0.979   4.713  14.402 -0.5786  2.3510  1.5668
  395TIP3   OH222675   2.995   3.232  13.405  0.1050  0.0923 -0.3601
  395TIP3    H122676   3.042   3.157  13.441  0.6091 -0.0261 -1.2433
  395TIP3    H222677   2.952   3.199  13.326  1.8469  1.1149 -1.8306
  396TIP3   OH222678   3.448   0.904   1.836  0.2347 -0.3353 -0.2768
  396TIP3    H122679   3.421   0.903   1.744 -2.1648  0.0778  0.3719
  396TIP3    H222680   3.525   0.960   1.837 -0.4617  0.7204 -1.8484
  397TIP3   OH222681   3.372   2.992  17.161  0.1116  0.7605  0.5532
  397TIP3    H122682   3.416   3.076  17.173  0.3724  0.6590  0.3081
  397TIP3    H222683   3.440   2.927  17.177  0.1873  0.6089 -0.3455
  398TIP3   OH222684   4.744   0.411  15.648  0.4110  0.4266  0.0390
  398TIP3    H122685   4.769   0.350  15.717 -0.2365  0.8674  0.6800
  398TIP3    H222686   4.826   0.454  15.623  0.7369 -0.1228  0.1503
  399TIP3   OH222687   2.780   3.662   5.316  0.1068  0.1126 -0.3446
  399TIP3    H122688   2.785   3.632   5.225  1.1147  0.4728 -0.4255
  399TIP3    H222689   2.856   3.622   5.359 -0.0547  0.3796  0.1948
  400TIP3   OH222690   6.466   0.743   4.228  0.4622  0.5146 -0.1431
  400TIP3    H122691   6.552   0.742   4.271  0.1458 -0.6260  0.4984
  400TIP3    H222692   6.443   0.651   4.219 -0.1609  0.7758 -1.4288
  401TIP3   OH222693   5.270   4.943  13.614  0.0046 -0.3932 -0.2767
  401TIP3    H122694   5.262   5.010  13.681 -0.1702  1.0792 -1.7133
  401TIP3    H222695   5.225   4.979  13.537  0.4218 -1.8912 -1.2830
  402TIP3   OH222696   2.824   0.777  14.291 -0.1162  0.0183 -0.1385
  402TIP3    H122697   2.912   0.748  14.269 -0.2223 -0.6195  0.2400
  402TIP3    H222698   2.778   0.697  14.317 -0.1282  0.6248  1.9234
  403TIP3   OH222699   3.745   2.573   3.407 -0.2621 -0.8972 -0.2435
  403TIP3    H122700   3.708   2.618   3.483 -0.3242  0.5426 -1.0990
  403TIP3    H222701   3.682   2.505   3.386 -1.0518 -0.2626  0.0207
  404TIP3   OH222702   4.214   5.684  12.716 -0.3903 -0.2165 -0.4499
  404TIP3    H122703   4.232   5.717  12.804  0.9706 -0.3875 -0.6424
  404TIP3    H222704   4.123   5.653  12.720  0.1535 -1.7278  1.3595
  405TIP3   OH222705   0.401   3.235   4.193  0.6392 -0.4534  0.4596
  405TIP3    H122706   0.356   3.280   4.121  0.8696 -1.0971 -0.1034
  405TIP3    H222707   0.335   3.226   4.261 -1.2599 -4.3306 -1.5466
  406TIP3   OH222708   4.515   0.097  12.650  0.3118 -0.1816  0.0670
  406TIP3    H122709   4.583   0.162  12.667 -1.5727  1.3389  2.4939
  406TIP3    H222710   4.446   0.145  12.604  0.7834 -1.7099 -2.4345
  407TIP3   OH222711   6.449   2.791  12.484 -0.1892 -0.0282  0.4384
  407TIP3    H122712   6.482   2.766  12.571 -1.9656 -2.1575  0.6094
  407TIP3    H222713   6.525   2.787  12.427  0.5775 -1.0143  1.4778
  408TIP3   OH222714   4.472   2.795  14.811 -0.7607  0.2871  0.0226
  408TIP3    H122715   4.422   2.790  14.730 -1.2770 -1.3872  0.4067
  408TIP3    H222716   4.434   2.869  14.859  0.3284  2.0629 -1.7096
  409TIP3   OH222717   3.581   0.297  17.046  0.1273  0.0148  0.2895
  409TIP3    H122718   3.587   0.271  17.138 -0.7766  1.7405  0.8763
  409TIP3    H222719   3.635   0.233  17.000  0.0540 -1.3089  1.9231
  410TIP3   OH222720   5.035   1.136  13.728 -0.5253 -0.2324  0.0905
  410TIP3    H122721   4.981   1.183  13.665  0.1117 -0.8899 -0.9689
  410TIP3    H222722   4.994   1.155  13.813 -1.6370  0.3321 -0.5456
  411TIP3   OH222723   3.857   2.870   4.226  0.1175  0.1237  0.5702
  411TIP3    H122724   3.778   2.887   4.175 -0.2929 -0.8263  0.8624
  411TIP3    H222725   3.826   2.823   4.304  0.7259  1.5029  1.6999
  412TIP3   OH222726   1.495   1.374   4.308 -0.7122 -0.0736 -0.2766
  412TIP3    H122727   1.484   1.422   4.225 -2.3525  2.2094  1.1451
  412TIP3    H222728   1.561   1.425   4.356 -1.2622 -0.2027  0.6261
  413TIP3   OH222729   6.113   0.761   6.691 -0.1882  0.1606 -0.5012
  413TIP3    H122730   6.199   0.769   6.733  0.3765 -0.4298 -1.4970
  413TIP3    H222731   6.082   0.675   6.717 -0.5314  0.4190 -0.0525
  414TIP3   OH222732   2.319   1.677  15.265  0.4054 -0.3690  0.0906
  414TIP3    H122733   2.384   1.740  15.296  1.0801 -0.6055 -0.8108
  414TIP3    H222734   2.370   1.608  15.223 -0.3850 -0.9738  0.1022
  415TIP3   OH222735   1.190   0.938  12.483  0.0836 -0.1417 -0.4072
  415TIP3    H122736   1.192   0.845  12.505  0.5354 -0.1545 -0.5014
  415TIP3    H222737   1.124   0.945  12.415 -0.8295 -0.2078  0.4442
  416TIP3   OH222738   1.936   2.417   1.453  0.4103  0.2383 -0.1043
  416TIP3    H122739   1.985   2.352   1.404 -0.7744  0.4124 -1.5918
  416TIP3    H222740   1.853   2.426   1.405  0.3389  2.4625  0.3170
  417TIP3   OH222741   2.337   2.548  15.338  0.2526 -0.4589  0.2710
  417TIP3    H122742   2.309   2.457  15.349  1.5455 -0.7930  0.9650
  417TIP3    H222743   2.286   2.596  15.403  0.4732 -0.8964  0.7816
  418TIP3   OH222744   2.248   2.740   3.387  0.3744  0.0769 -0.0208
  418TIP3    H122745   2.202   2.658   3.369 -0.3267  0.6211 -0.7345
  418TIP3    H222746   2.271   2.774   3.301  1.6429  0.0931  0.3056
  419TIP3   OH222747   0.810   4.726  16.668 -0.3645  0.1492 -0.1453
  419TIP3    H122748   0.816   4.632  16.686 -1.6143  0.0380 -0.2602
  419TIP3    H222749   0.858   4.767  16.740  0.5387 -0.5824 -0.3092
  420TIP3   OH222750   1.593   3.308   3.246 -0.2766  0.1194 -0.1595
  420TIP3    H122751   1.639   3.233   3.283 -0.2684  1.4502  2.7472
  420TIP3    H222752   1.651   3.340   3.176  1.2182 -0.6933  0.6665
  421TIP3   OH222753   0.626   2.924   2.378  0.2013  0.0999  0.0542
  421TIP3    H122754   0.577   2.844   2.358  0.3888  0.0624 -0.2617
  421TIP3    H222755   0.718   2.899   2.366  0.3402 -0.0074  1.2644
  422TIP3   OH222756   0.140   0.645  15.826 -0.1551  0.2987  0.8088
  422TIP3    H122757   0.063   0.644  15.770 -1.2833  1.4016  2.2356
  422TIP3    H222758   0.146   0.736  15.857  2.2234  0.4510  0.1078
  423TIP3   OH222759   5.236   1.115  13.508  0.1419 -0.0518  0.3427
  423TIP3    H122760   5.182   1.036  13.502  0.1589 -0.0891  0.6770
  423TIP3    H222761   5.199   1.164  13.582  0.9077 -0.3349  0.9173
  424TIP3   OH222762   5.798   4.408  13.128  0.3503  0.3627  0.3050
  424TIP3    H122763   5.782   4.322  13.090  0.7030  0.5416 -0.2547
  424TIP3    H222764   5.748   4.468  13.073 -0.8676  0.4011  1.4046
  425TIP3   OH222765   3.529   2.895  11.934 -0.5505 -0.3083  0.2431
  425TIP3    H122766   3.524   2.920  12.027  0.2881 -2.9988  1.0909
  425TIP3    H222767   3.455   2.941  11.893 -1.6541  0.0547  2.4723
  426TIP3   OH222768   1.155   4.327  14.991 -0.1503 -0.0704  0.0464
  426TIP3    H122769   1.160   4.283  14.906 -0.6927  0.6900 -0.3932
  426TIP3    H222770   1.177   4.419  14.972  1.6780 -0.2452  1.0607
  427TIP3   OH222771   6.618   0.500  17.193  0.4784  0.1143  0.6232
  427TIP3    H122772   6.543   0.558  17.182  0.2993  0.1062  1.7248
  427TIP3    H222773   6.614   0.473  17.285  0.6119 -1.5549  0.1789
  428TIP3   OH222774   1.320   3.549  11.232 -0.5754 -0.1468  0.7657
  428TIP3    H122775   1.347   3.478  11.174  1.1845 -0.2743  1.6742
  428TIP3    H222776   1.227   3.533  11.248 -0.6747 -1.1019 -0.5991
  429TIP3   OH222777   5.155   4.116   4.515  0.0660 -0.5437 -0.8408
  429TIP3    H122778   5.108   4.092   4.435 -0.3435 -1.4445 -0.3423
  429TIP3    H222779   5.087   4.149   4.574  0.2882 -0.4137 -0.6565
  430TIP3   OH222780   6.038   2.919  13.180  0.1294 -0.3254 -0.3640
  430TIP3    H122781   6.102   2.910  13.250 -1.7198 -0.6634  1.3682
  430TIP3    H222782   5.963   2.867  13.209 -0.4296 -1.1635 -2.9815
  431TIP3   OH222783   6.739   6.149   5.677 -0.2881 -0.1113  0.1974
  431TIP3    H122784   6.736   6.095   5.756 -1.1375 -1.9434 -1.0173
  431TIP3    H222785   6.673   6.111   5.619  1.9504 -0.4118 -2.3639
  432TIP3   OH222786   5.865   1.654  14.386  0.4959  0.0322  0.6956
  432TIP3    H122787   5.871   1.622  14.296 -0.7132  0.0010  0.6009
  432TIP3    H222788   5.910   1.738  14.384  1.0694 -0.2785  0.2256
  433TIP3   OH222789   4.195   3.557   0.940  0.4799  0.4996  0.5655
  433TIP3    H122790   4.207   3.473   0.895  0.6558 -0.0386  1.5935
  433TIP3    H222791   4.208   3.537   1.032  2.1418  1.9660  0.7063
  434TIP3   OH222792   2.940   1.206  15.217  0.2970 -0.0035 -0.0130
  434TIP3    H122793   2.874   1.136  15.208 -0.3089  0.4618  0.6632
  434TIP3    H222794   3.018   1.172  15.173 -0.6602 -0.2034 -1.6080
  435TIP3   OH222795   0.402   2.012   2.546 -0.0474  0.5376 -0.4600
  435TIP3    H122796   0.306   2.013   2.555  0.1005 -0.5520  1.9446
  435TIP3    H222797   0.434   2.044   2.630  1.6784 -1.5957 -0.2186
  436TIP3   OH222798   0.129   6.660  10.852 -0.3219 -0.2135 -0.1654
  436TIP3    H122799   0.218   6.648  10.884  0.1663 -0.3805 -1.5041
  436TIP3    H222800   0.098   6.572  10.832  0.7794  0.0197 -3.5867
  437TIP3   OH222801   6.307   5.323  11.818  0.0074  0.7303 -0.1752
  437TIP3    H122802   6.233   5.311  11.759 -0.4834  1.1533  0.3445
  437TIP3    H222803   6.291   5.408  11.859  1.9879  1.9600 -1.7848
  438TIP3   OH222804   5.301   2.806   4.323 -1.4558  0.1165 -0.0925
  438TIP3    H122805   5.278   2.783   4.413 -0.9979  1.0963  0.2907
  438TIP3    H222806   5.375   2.749   4.301 -2.1869 -0.8026 -0.1985
  439TIP3   OH222807   0.532   0.260  14.256 -0.0102 -0.6838 -0.5024
  439TIP3    H122808   0.462   0.220  14.204  0.6204 -0.1419 -1.7990
  439TIP3    H222809   0.591   0.187  14.276  0.8546 -0.5481 -2.3989
  440TIP3   OH222810   2.846   5.368  13.589 -0.1127  0.7506 -0.5319
  440TIP3    H122811   2.836   5.320  13.671  0.3417  1.2721 -0.1621
  440TIP3    H222812   2.763   5.413  13.576 -0.7596 -0.5888 -1.1877
  441TIP3   OH222813   4.470   6.461   1.075  0.2189  0.0313 -0.4445
  441TIP3    H122814   4.387   6.489   1.037 -0.2511 -1.0907 -0.2860
  441TIP3    H222815   4.533   6.470   1.004  0.0961  1.4273 -0.4088
  442TIP3   OH222816   5.709   1.496  12.262 -0.0570 -0.2850 -0.2269
  442TIP3    H122817   5.779   1.472  12.322 -0.8117 -0.5649  0.5642
  442TIP3    H222818   5.754   1.530  12.185  0.9673 -1.3385 -0.1240
  443TIP3   OH222819   1.114   2.177  14.038  1.1378 -0.4611  0.1045
  443TIP3    H122820   1.084   2.240  13.973 -1.5437 -0.4054  1.2864
  443TIP3    H222821   1.166   2.230  14.100  2.6852 -0.3046 -1.2692
  444TIP3   OH222822   6.197   5.888   3.491  0.2858 -0.7271 -0.0411
  444TIP3    H122823   6.117   5.928   3.526 -0.4681 -1.0116 -1.3681
  444TIP3    H222824   6.211   5.811   3.547 -0.5987 -0.8902 -0.0199
  445TIP3   OH222825   3.228   5.998  15.859  0.3243  0.3846 -0.8693
  445TIP3    H122826   3.265   6.006  15.947 -1.6802 -1.6655  0.2624
  445TIP3    H222827   3.153   6.057  15.860  0.9932  1.2768 -1.6694
  446TIP3   OH222828   0.201   0.683   2.718  0.2994 -0.6761  0.0260
  446TIP3    H122829   0.173   0.599   2.754  0.4104 -0.2349  1.2242
  446TIP3    H222830   0.296   0.679   2.719  0.3498 -1.5149 -2.4133
  447TIP3   OH222831   6.239   2.565  16.290  0.5706 -0.6995 -0.8357
  447TIP3    H122832   6.316   2.615  16.316  0.3061  0.2518 -1.7986
  447TIP3    H222833   6.166   2.609  16.333  0.5237 -1.4334 -0.1438
  448TIP3   OH222834   6.241   0.980   6.535  0.9310 -0.2148 -0.2473
  448TIP3    H122835   6.247   1.041   6.608 -1.3496  0.5318 -0.6055
  448TIP3    H222836   6.244   0.893   6.576  1.7406  0.1540  0.4985
  449TIP3   OH222837   3.415   4.795  11.069 -0.7594 -0.5057 -0.2841
  449TIP3    H122838   3.405   4.743  11.148  1.6633  0.3114  0.6401
  449TIP3    H222839   3.403   4.886  11.098 -0.0130 -0.2108 -0.8642
  450TIP3   OH222840   0.637   0.918  11.046 -0.1011 -0.2568 -0.2709
  450TIP3    H122841   0.612   1.000  11.087 -1.4294 -0.5472 -0.4759
  450TIP3    H222842   0.658   0.941  10.956 -1.2320 -0.2434 -0.5451
  451TIP3   OH222843   4.085   6.688   2.071 -0.4694 -0.1294  0.0334
  451TIP3    H122844   4.081   6.746   1.995 -0.1308 -1.1147 -0.7556
  451TIP3    H222845   4.169   6.644   2.064 -1.0832 -1.3781  0.1146
  452TIP3   OH222846   0.002   4.101   1.039 -0.2439  0.3077 -0.1770
  452TIP3    H122847  -0.005   4.175   1.099 -0.7906  0.6968 -0.7074
  452TIP3    H222848   0.018   4.026   1.096 -0.0055  0.7832  0.3928
  453TIP3   OH222849   5.734   3.679  14.352  0.1107  0.7179 -0.0835
  453TIP3    H122850   5.776   3.707  14.271  1.0187  1.9825  0.7751
  453TIP3    H222851   5.644   3.710  14.344 -0.1286 -0.1925 -1.0801
  454TIP3   OH222852   3.944   6.207   0.980 -0.0882 -0.5857 -0.5715
  454TIP3    H122853   4.040   6.211   0.971  0.0785 -0.9690  0.7507
  454TIP3    H222854   3.928   6.231   1.071 -1.3505  0.5016 -1.0526
  455TIP3   OH222855   4.381   4.046   5.390  0.4875 -0.0159  0.0365
  455TIP3    H122856   4.361   3.956   5.362 -0.3999  0.0412  0.4280
  455TIP3    H222857   4.471   4.042   5.421  1.5451 -0.0750 -2.7862
  456TIP3   OH222858   6.739   2.792   4.689 -0.4091 -0.0210  0.0813
  456TIP3    H122859   6.756   2.722   4.752 -0.2009 -0.3551 -0.3497
  456TIP3    H222860   6.759   2.872   4.737 -0.7136 -0.2480  0.5979
  457TIP3   OH222861   1.785   4.390   2.808 -0.7051 -0.2991  0.4086
  457TIP3    H122862   1.733   4.450   2.861 -1.0622  0.6309 -0.9417
  457TIP3    H222863   1.811   4.442   2.731 -0.4157 -1.6552 -0.4533
  458TIP3   OH222864   0.485   5.888   3.129 -0.2164 -1.1510  0.7504
  458TIP3    H122865   0.418   5.955   3.142 -1.5650 -2.3124  0.0169
  458TIP3    H222866   0.558   5.935   3.089 -1.3558 -0.2156 -0.3131
  459TIP3   OH222867   4.115   0.542   6.167 -0.3839 -0.2154 -0.1302
  459TIP3    H122868   4.145   0.561   6.256 -2.7615  1.2450  0.4518
  459TIP3    H222869   4.157   0.608   6.113 -0.0305 -0.2317  0.1197
  460TIP3   OH222870   3.824   1.254  14.638 -0.0853  0.3320  0.1332
  460TIP3    H122871   3.914   1.284  14.650 -0.3190  1.3803 -0.6065
  460TIP3    H222872   3.801   1.215  14.722  1.5126 -1.2081 -0.0779
  461TIP3   OH222873   5.450   4.180  13.943  0.2888 -0.4119  0.4245
  461TIP3    H122874   5.516   4.243  13.914  0.9000 -1.7504 -1.2781
  461TIP3    H222875   5.376   4.233  13.971  0.8810  1.0618 -0.6882
  462TIP3   OH222876   6.402   2.906   4.781  0.1094 -0.4346  0.1258
  462TIP3    H122877   6.326   2.899   4.839  0.8011 -0.7494  1.0284
  462TIP3    H222878   6.388   2.987   4.732 -0.6416 -0.3180  0.5277
  463TIP3   OH222879   6.547   0.102   5.869 -0.9385  0.2816  0.2356
  463TIP3    H122880   6.536   0.008   5.856 -1.3316  0.4187 -0.4678
  463TIP3    H222881   6.588   0.109   5.956 -0.3106 -0.5648  0.0277
  464TIP3   OH222882   2.076   1.434  11.635  0.3572 -0.3766  0.1383
  464TIP3    H122883   2.027   1.513  11.612 -0.4935 -1.0047 -0.2349
  464TIP3    H222884   2.167   1.455  11.612 -0.2505 -0.5277 -2.7692
  465TIP3   OH222885   4.002   4.716  14.261 -0.1512 -0.4177 -0.3447
  465TIP3    H122886   3.998   4.622  14.242  0.0750 -0.5175  0.0944
  465TIP3    H222887   3.911   4.741  14.277 -0.0090 -0.9729  1.4688
  466TIP3   OH222888   6.698   4.677   6.262  0.0748  0.0923 -0.1123
  466TIP3    H122889   6.665   4.762   6.292  2.3250  0.7212  0.7699
  466TIP3    H222890   6.720   4.690   6.170  0.0516  0.3498 -0.0807
  467TIP3   OH222891   5.086   1.470  12.078 -0.2809 -0.5615 -0.1621
  467TIP3    H122892   5.030   1.524  12.023  1.3121 -0.4252 -1.7173
  467TIP3    H222893   5.061   1.380  12.057 -0.6488 -0.4860 -0.0489
  468TIP3   OH222894   1.869   2.285  14.929 -0.1469  0.1782 -0.3390
  468TIP3    H122895   1.803   2.218  14.945  0.4257 -0.1327  0.8819
  468TIP3    H222896   1.827   2.347  14.870 -0.1706 -1.9918 -2.7359
  469TIP3   OH222897   1.018   3.497  10.541  0.0994  0.0980  0.2563
  469TIP3    H122898   0.976   3.479  10.458  0.2907  0.6112  0.0409
  469TIP3    H222899   1.072   3.420  10.559 -2.2363 -1.3775  1.4030
  470TIP3   OH222900   0.028   0.986  13.677 -0.4318  0.2357 -0.4934
  470TIP3    H122901   0.117   0.965  13.704  0.0760  2.3796 -0.3441
  470TIP3    H222902  -0.023   0.983  13.757  0.1699  2.0956  0.0046
  471TIP3   OH222903   5.514   1.534  17.033  0.2007  0.0583  0.0232
  471TIP3    H122904   5.474   1.529  16.946 -1.9276  2.4890  0.7326
  471TIP3    H222905   5.607   1.544  17.016 -0.2227  1.1122 -2.0631
  472TIP3   OH222906   1.952   5.972  16.164  0.1233  0.4283 -0.2146
  472TIP3    H122907   1.858   5.984  16.149 -0.6320 -1.5049  2.2984
  472TIP3    H222908   1.966   6.002  16.254  1.1600 -2.3079  0.6406
  473TIP3   OH222909   6.454   0.450  14.357  0.2139 -0.1720 -0.0063
  473TIP3    H122910   6.365   0.438  14.392  0.2107  1.3583  0.5808
  473TIP3    H222911   6.441   0.500  14.276  0.5671  0.8816  0.5590
  474TIP3   OH222912   5.713   4.045   2.550  0.3762 -0.2080  1.4412
  474TIP3    H122913   5.737   3.953   2.538 -0.7763 -0.4560  0.9139
  474TIP3    H222914   5.775   4.093   2.495 -0.6147 -0.8813 -0.3698
  475TIP3   OH222915   6.212   5.443  10.651 -0.4948  0.4164  0.5615
  475TIP3    H122916   6.120   5.469  10.657 -0.7163 -0.5197  1.4709
  475TIP3    H222917   6.210   5.348  10.639  0.3629  0.3444  0.9038
  476TIP3   OH222918   1.530   2.855   1.419 -0.3496  0.2324  0.1025
  476TIP3    H122919   1.620   2.836   1.390  0.5103  1.9676  1.4323
  476TIP3    H222920   1.511   2.940   1.380 -0.5986  0.8416  1.5037
  477TIP3   OH222921   1.350   0.088   5.166 -0.4364 -0.1198 -0.4664
  477TIP3    H122922   1.325   0.032   5.239  1.3427 -0.7438 -0.2773
  477TIP3    H222923   1.279   0.080   5.103 -2.0862  0.5363  1.2138
  478TIP3   OH222924   0.455   2.606  12.388 -0.2002  0.1043 -0.6153
  478TIP3    H122925   0.547   2.580  12.382  0.0586  1.0758 -0.9875
  478TIP3    H222926   0.423   2.560  12.466  0.4548 -0.6516 -0.7756
  479TIP3   OH222927   5.020   4.120  15.841  0.8320 -0.3594  0.2836
  479TIP3    H122928   5.071   4.183  15.891  0.8534  0.3215 -0.5736
  479TIP3    H222929   5.003   4.164  15.757 -0.8660 -0.6950  0.4190
  480TIP3   OH222930   0.343   4.291   0.799  0.3885  0.2653 -0.0538
  480TIP3    H122931   0.428   4.247   0.788 -0.3937 -1.6048  0.9684
  480TIP3    H222932   0.318   4.273   0.889 -1.6482 -0.2673 -0.6683
  481TIP3   OH222933   6.420   4.752  12.464 -0.4004  0.2079 -0.2934
  481TIP3    H122934   6.508   4.753  12.503 -0.3648  0.7944 -0.3877
  481TIP3    H222935   6.372   4.689  12.517  0.0838 -0.1411 -0.2557
  482TIP3   OH222936   5.398   5.477  13.313 -0.3418  0.6470 -0.3349
  482TIP3    H122937   5.391   5.527  13.394  2.1404  0.1757  0.2630
  482TIP3    H222938   5.445   5.535  13.253 -0.2147  0.1863 -0.6899
  483TIP3   OH222939   2.412   1.642   1.849 -0.3258 -0.4416 -0.0774
  483TIP3    H122940   2.507   1.644   1.840 -0.4699 -1.1220 -2.5021
  483TIP3    H222941   2.389   1.550   1.837 -1.2508 -0.4583  1.5379
  484TIP3   OH222942   6.784   3.857  12.615  0.0888 -0.5582  0.2233
  484TIP3    H122943   6.711   3.831  12.558 -1.2914  3.8221 -0.4313
  484TIP3    H222944   6.856   3.875  12.555 -0.4179  1.1722  0.0672
  485TIP3   OH222945   0.586   3.336   2.780  0.1606 -0.2468  0.3743
  485TIP3    H122946   0.588   3.264   2.718  0.0932 -1.2557  1.4936
  485TIP3    H222947   0.585   3.415   2.726 -1.0995 -1.0935 -0.8929
  486TIP3   OH222948   3.218   1.689   4.121 -0.2888  0.5612 -0.3728
  486TIP3    H122949   3.210   1.594   4.114 -0.5882  0.5109  0.5528
  486TIP3    H222950   3.147   1.723   4.066 -1.0396  0.2214  0.3641
  487TIP3   OH222951   5.098   5.258  16.209  0.5300 -0.5707  0.5537
  487TIP3    H122952   5.106   5.177  16.159  0.1539  0.1264 -0.6654
  487TIP3    H222953   5.092   5.229  16.300  0.1183 -1.9223  0.1216
  488TIP3   OH222954   2.930   2.274   2.761  0.6407 -0.5705 -0.6584
  488TIP3    H122955   2.946   2.358   2.718 -2.5065 -0.0320 -1.0226
  488TIP3    H222956   2.899   2.216   2.691 -0.2317 -1.0423  0.0889
  489TIP3   OH222957   1.920   0.647   6.090  0.6466 -0.7839 -0.0736
  489TIP3    H122958   2.001   0.690   6.117 -0.5910  1.3391  0.4849
  489TIP3    H222959   1.877   0.622   6.172 -1.4373  2.4427 -0.0268
  490TIP3   OH222960   0.735   3.671  15.259  0.1708  0.3207  0.4217
  490TIP3    H122961   0.823   3.706  15.272  0.2769  0.5301 -0.7869
  490TIP3    H222962   0.687   3.742  15.218 -0.2787 -0.1436  0.1327
  491TIP3   OH222963   1.916   0.325   2.938  0.0223  0.1473  0.0844
  491TIP3    H122964   1.924   0.407   2.986 -1.5151 -0.2953  1.1879
  491TIP3    H222965   1.835   0.286   2.971 -2.2477  0.6409 -4.1885
  492TIP3   OH222966   0.099   4.685  10.728 -0.3064 -0.4944 -0.4672
  492TIP3    H122967   0.182   4.723  10.700  0.7294 -1.4497  1.1463
  492TIP3    H222968   0.090   4.606  10.673  0.3000 -0.8514 -0.0692
  493TIP3   OH222969   2.197   3.222   6.609 -0.1514  0.8236  0.0242
  493TIP3    H122970   2.220   3.306   6.570 -3.8885  1.7185 -0.7028
  493TIP3    H222971   2.179   3.165   6.534 -0.2880  0.2403  0.4919
  494TIP3   OH222972   3.163   4.972  16.402  0.3668 -0.5822 -0.2005
  494TIP3    H122973   3.150   4.979  16.497  0.6777 -0.0204 -0.1988
  494TIP3    H222974   3.078   4.998  16.365  1.2481  2.8536 -0.1741
  495TIP3   OH222975   1.354   4.133   5.446 -0.1523  0.0523 -0.1892
  495TIP3    H122976   1.443   4.135   5.481 -0.4918  0.9734  0.6650
  495TIP3    H222977   1.363   4.166   5.357  0.5238 -1.0161 -0.5323
  496TIP3   OH222978   5.698   0.291  16.454 -0.3401 -0.2890  0.2994
  496TIP3    H122979   5.660   0.207  16.428 -1.2784  0.0347  0.5747
  496TIP3    H222980   5.752   0.317  16.379 -1.1242 -0.4951 -0.3533
  497TIP3   OH222981   1.592   4.850   1.026  0.4591 -0.2022  0.6679
  497TIP3    H122982   1.649   4.816   1.095  1.2184 -1.0824 -0.3493
  497TIP3    H222983   1.616   4.799   0.948 -0.7239  0.4097 -0.1282
  498TIP3   OH222984   5.133   3.067  16.208 -0.0899 -0.1523 -0.0114
  498TIP3    H122985   5.137   2.973  16.193 -1.5992  0.0273 -1.9310
  498TIP3    H222986   5.041   3.090  16.196  0.5731  1.8696 -2.1341
  499TIP3   OH222987   1.752   3.174   2.836  0.1170  0.1276 -0.2118
  499TIP3    H122988   1.679   3.224   2.799 -2.0910 -3.0385 -0.4923
  499TIP3    H222989   1.804   3.148   2.760  1.2527  1.7705 -0.0679
  500TIP3   OH222990   3.316   0.570   3.932 -1.0651 -0.6056 -0.0427
  500TIP3    H122991   3.266   0.587   4.013 -1.0224  0.3716 -0.2078
  500TIP3    H222992   3.377   0.643   3.926 -1.7626 -0.1140 -1.4982
  501TIP3   OH222993   3.897   1.378   3.854  0.1851 -1.1391  0.7943
  501TIP3    H122994   3.947   1.459   3.865  0.5851 -1.3622  0.6586
  501TIP3    H222995   3.830   1.400   3.790 -1.6878 -0.0445  3.0123
  502TIP3   OH222996   6.418   2.166   5.207 -0.3813 -0.8858 -0.4186
  502TIP3    H122997   6.388   2.157   5.116 -0.6132  1.0439 -0.5879
  502TIP3    H222998   6.457   2.254   5.210 -0.9382 -0.6629  1.5087
  503TIP3   OH222999   5.272   1.694   3.010 -0.4469 -0.2431  0.6256
  503TIP3    H123000   5.357   1.651   3.015 -1.0554 -1.8274 -1.4466
  503TIP3    H223001   5.288   1.772   2.957  0.0978  0.6143  2.0119
  504TIP3   OH223002   4.888   4.214   2.715 -0.0710 -0.1059 -0.0087
  504TIP3    H123003   4.887   4.251   2.804  0.1737  0.3149 -0.1786
  504TIP3    H223004   4.955   4.264   2.669  1.1574 -1.5990  0.1084
  505TIP3   OH223005   4.389   1.715   5.930 -0.0887 -0.6879 -0.2216
  505TIP3    H123006   4.365   1.657   5.858  0.7118 -0.3558 -0.7701
  505TIP3    H223007   4.417   1.796   5.888 -1.2295  0.1337  0.5416
  506TIP3   OH223008   4.114   1.176   5.312  0.3316  0.2425  0.7768
  506TIP3    H123009   4.189   1.196   5.367  2.2459 -2.1824 -0.7401
  506TIP3    H223010   4.096   1.084   5.328 -1.9891  0.6030  0.6428
  507TIP3   OH223011   1.359   4.874  14.250  0.2906 -0.2663 -1.2156
  507TIP3    H123012   1.352   4.927  14.329  0.5227  1.3327 -2.2197
  507TIP3    H223013   1.449   4.840  14.252  0.8706  1.1634 -1.5949
  508TIP3   OH223014   0.147   6.319  11.348 -0.1673 -0.3329  0.6243
  508TIP3    H123015   0.225   6.263  11.350 -0.4004 -0.9176 -2.0212
  508TIP3    H223016   0.078   6.265  11.387  0.3735 -0.4891  1.3851
  509TIP3   OH223017   6.628   5.311  11.790  0.3196  0.3354  0.1897
  509TIP3    H123018   6.541   5.350  11.777  0.0813 -0.6542 -1.5372
  509TIP3    H223019   6.689   5.377  11.757  0.1341  0.4884  0.1474
  510TIP3   OH223020   6.523   1.290  15.169 -0.2458  0.3022 -0.2105
  510TIP3    H123021   6.607   1.297  15.215 -0.4939 -0.4217  0.3815
  510TIP3    H223022   6.544   1.310  15.078  0.6218 -0.0990 -0.1147
  511TIP3   OH223023   6.226   5.508   3.882 -0.4187  0.3087 -0.3981
  511TIP3    H123024   6.147   5.510   3.936 -1.4015 -0.1865 -1.7416
  511TIP3    H223025   6.242   5.415   3.867  0.3683  0.4132 -0.2291
  512TIP3   OH223026   3.975   0.053   2.376  0.5608 -0.1390  0.1732
  512TIP3    H123027   4.019   0.078   2.458 -0.6031 -2.4791  1.6275
  512TIP3    H223028   3.981  -0.042   2.374 -3.0722 -0.5055 -0.2270
  513TIP3   OH223029   5.985   3.991  13.565  0.1855  0.2400 -0.0911
  513TIP3    H123030   5.991   4.080  13.531  0.5946  0.7098  1.1498
  513TIP3    H223031   6.076   3.962  13.573  0.1781  0.5989  1.6838
  514TIP3   OH223032   4.370   3.321   0.879 -0.1468  0.3876  0.4805
  514TIP3    H123033   4.306   3.255   0.904  1.0433 -0.4496  1.3894
  514TIP3    H223034   4.442   3.272   0.838  0.2308  1.2417  0.0739
  515TIP3   OH223035   4.914   2.941   1.414  0.0447  0.3240  0.5434
  515TIP3    H123036   5.001   2.942   1.373 -0.2966 -0.6903 -0.2469
  515TIP3    H223037   4.914   3.019   1.470  0.6336  1.6763 -1.2036
  516TIP3   OH223038   1.581   0.224  12.153 -0.1035  0.1814 -0.2149
  516TIP3    H123039   1.526   0.184  12.220  1.3389 -2.2859 -0.4084
  516TIP3    H223040   1.535   0.205  12.071  0.0610 -0.1802 -0.2242
  517TIP3   OH223041   1.543   6.674   3.884  0.2503 -0.0631 -0.1581
  517TIP3    H123042   1.578   6.594   3.923  0.5101  0.4810  0.7377
  517TIP3    H223043   1.516   6.647   3.796 -2.2226 -1.8131  1.0174
  518TIP3   OH223044   4.699   0.784  16.219 -0.7497  0.2907 -0.0821
  518TIP3    H123045   4.683   0.856  16.158  0.0443  1.2189  0.7665
  518TIP3    H223046   4.755   0.723  16.171  0.9849  1.6527  0.1105
  519TIP3   OH223047   6.013   4.564  14.408  0.4194 -0.4422 -0.1004
  519TIP3    H123048   5.975   4.631  14.351 -0.8169 -1.4587 -0.5406
  519TIP3    H223049   6.071   4.513  14.351  0.9700 -0.0657  0.1145
  520TIP3   OH223050   5.085   3.984  12.663  0.7961  0.1941  0.2396
  520TIP3    H123051   5.061   4.040  12.736  2.1822  1.3166 -0.1215
  520TIP3    H223052   5.059   4.033  12.585  1.1522 -0.0866 -0.0668
  521TIP3   OH223053   3.511   2.335  11.056 -0.1605  0.0349  0.0259
  521TIP3    H123054   3.569   2.324  11.131  0.0905  0.2643 -0.1332
  521TIP3    H223055   3.478   2.246  11.038 -1.2399  0.1719  1.2065
  522TIP3   OH223056   6.770   3.030  14.103  0.0518  0.1366 -0.3185
  522TIP3    H123057   6.692   3.056  14.054 -1.9752 -1.4902  1.7529
  522TIP3    H223058   6.815   3.112  14.123 -0.9726  1.1034 -1.8120
  523TIP3   OH223059   4.410   1.393   0.210  0.1965  0.0911 -0.2302
  523TIP3    H123060   4.401   1.488   0.208  0.4387  0.1347  0.6013
  523TIP3    H223061   4.452   1.371   0.127 -0.4232  0.6432 -0.7018
  524TIP3   OH223062   2.372   1.593  13.852  0.6055  0.5158 -0.1826
  524TIP3    H123063   2.379   1.505  13.814  1.1495  0.0041  1.0721
  524TIP3    H223064   2.456   1.634  13.834 -0.1599  1.4020 -2.1461
  525TIP3   OH223065   2.121   2.644  13.496  0.4301 -0.1172  0.1144
  525TIP3    H123066   2.165   2.722  13.529  1.0466 -0.0025 -0.9292
  525TIP3    H223067   2.184   2.605  13.436 -0.7495 -0.1357 -1.1507
  526TIP3   OH223068   0.761   1.076   0.060 -0.7374 -0.1715 -0.6965
  526TIP3    H123069   0.765   1.083   0.155 -1.1454  1.0753 -0.7463
  526TIP3    H223070   0.789   0.987   0.040  0.1846 -0.1651  0.5308
  527TIP3   OH223071   3.925   4.618  15.793  0.2840  0.4987 -0.0303
  527TIP3    H123072   4.013   4.639  15.824  0.5891 -0.9331  0.1440
  527TIP3    H223073   3.932   4.529  15.759 -1.0413  0.4564 -0.2500
  528TIP3   OH223074   5.076   5.276   0.984 -0.2588 -0.2040  0.4533
  528TIP3    H123075   5.084   5.327   1.064  1.0188 -2.0479  1.5726
  528TIP3    H223076   5.159   5.289   0.939 -1.3169  1.5994 -1.1532
  529TIP3   OH223077   6.312   5.195  15.572  0.1285  0.2058  0.0800
  529TIP3    H123078   6.386   5.148  15.611  0.1577  0.5722  0.4768
  529TIP3    H223079   6.351   5.253  15.507  0.3512  1.4194  1.2555
  530TIP3   OH223080   3.798   3.720   0.611  0.2559  0.2237  0.0661
  530TIP3    H123081   3.749   3.765   0.541 -0.7567  0.2565  0.7691
  530TIP3    H223082   3.764   3.631   0.610 -0.7616  0.5658  1.3799
  531TIP3   OH223083   2.355   2.630  11.940  0.8183  0.2804 -0.1763
  531TIP3    H123084   2.363   2.536  11.959  1.0389  0.0124 -1.5131
  531TIP3    H223085   2.445   2.663  11.945  0.6985  0.5130  0.6545
  532TIP3   OH223086   1.543   1.183   2.723 -0.1358 -0.4491 -0.0343
  532TIP3    H123087   1.475   1.175   2.791  1.3272 -0.2318  1.5267
  532TIP3    H223088   1.608   1.242   2.761  2.1457 -2.5537 -0.3695
  533TIP3   OH223089   2.450   1.998   6.094 -0.6620  0.0390 -0.3980
  533TIP3    H123090   2.490   1.919   6.131 -0.9098 -0.2450 -0.7280
  533TIP3    H223091   2.524   2.054   6.071 -0.4339 -0.6151 -1.2972
  534TIP3   OH223092   1.505   2.604   1.501  0.1723  0.0726  0.0625
  534TIP3    H123093   1.507   2.690   1.457  1.1331 -0.7276 -1.5445
  534TIP3    H223094   1.487   2.625   1.593 -2.0135  1.8195 -0.6756
  535TIP3   OH223095   2.303   5.330  15.928  0.7356 -0.2883  0.3608
  535TIP3    H123096   2.367   5.388  15.887  0.4363  0.9255  1.5246
  535TIP3    H223097   2.241   5.309  15.857  0.8793  0.7801 -0.0978
  536TIP3   OH223098   6.766   3.841  11.070 -0.2720  0.3770 -0.4972
  536TIP3    H123099   6.726   3.754  11.066 -0.5011  0.4109  0.6572
  536TIP3    H223100   6.743   3.882  10.987 -0.5158 -0.5113 -0.8849
  537TIP3   OH223101   4.108   4.393  11.376  0.0792 -0.3336 -0.1052
  537TIP3    H123102   4.174   4.426  11.316 -1.5065 -1.5138 -2.7143
  537TIP3    H223103   4.043   4.463  11.381  0.3606 -0.1122  0.5219
  538TIP3   OH223104   1.132   3.982   2.024 -0.2392 -0.2132 -0.5113
  538TIP3    H123105   1.041   3.964   2.045  0.3143 -0.4788  1.9737
  538TIP3    H223106   1.148   3.934   1.943 -1.7882 -1.8369  0.0847
  539TIP3   OH223107   5.960   4.205   4.132 -0.3507  0.4853  0.0940
  539TIP3    H123108   6.024   4.228   4.199 -0.0184  1.1462 -0.4261
  539TIP3    H223109   5.934   4.116   4.152 -1.6924  1.2703  2.2183
  540TIP3   OH223110   3.302   2.321   1.023 -0.8198 -0.3047 -0.1527
  540TIP3    H123111   3.217   2.332   0.982 -0.6940 -0.7262 -0.5331
  540TIP3    H223112   3.362   2.371   0.967 -0.8650  0.2706  0.3016
  541TIP3   OH223113   4.353   3.263  13.479  0.4907  0.4584 -0.0358
  541TIP3    H123114   4.341   3.337  13.419  0.1274  0.2696 -0.2047
  541TIP3    H223115   4.435   3.222  13.451  1.3069  1.4704  0.7972
  542TIP3   OH223116   6.151   0.414   1.643 -0.1957  0.0360 -0.4102
  542TIP3    H123117   6.245   0.423   1.627 -0.1273 -1.7006 -1.2470
  542TIP3    H223118   6.111   0.422   1.556 -0.9516  1.7535  0.0551
  543TIP3   OH223119   4.816   2.781  12.060 -0.3544  0.1570 -0.2923
  543TIP3    H123120   4.788   2.733  11.982  0.2855  0.4420 -0.7074
  543TIP3    H223121   4.881   2.723  12.102  2.0776  1.4768 -1.9564
  544TIP3   OH223122   2.469   6.213   2.034  0.3089 -0.6526 -0.6036
  544TIP3    H123123   2.560   6.214   2.004  0.6493  0.0378  0.3712
  544TIP3    H223124   2.438   6.125   2.014  1.4340 -1.1406 -0.3040
  545TIP3   OH223125   4.999   0.235   0.484  0.4741 -1.0133 -0.0563
  545TIP3    H123126   5.018   0.281   0.565 -3.8307  1.9486 -0.4562
  545TIP3    H223127   5.070   0.261   0.425 -0.0631  2.7329  0.7260
  546TIP3   OH223128   1.392   4.773  14.548 -0.2996  0.0802 -0.0261
  546TIP3    H123129   1.358   4.701  14.495 -1.9887  1.5755 -1.0837
  546TIP3    H223130   1.342   4.849  14.520  0.0950  1.3271  2.3936
  547TIP3   OH223131   6.060   3.685  16.769 -0.2440 -0.2065  0.1455
  547TIP3    H123132   6.045   3.596  16.802 -1.2592 -0.0456  0.1512
  547TIP3    H223133   5.988   3.736  16.805  1.5984  1.1859  2.1188
  548TIP3   OH223134   1.285   5.956   4.551  0.2050  0.1642 -0.1855
  548TIP3    H123135   1.373   5.962   4.513 -0.1382 -1.7574 -1.3953
  548TIP3    H223136   1.247   5.877   4.512 -1.3986 -0.0771  1.7199
  549TIP3   OH223137   4.350   0.700  13.211 -0.3654 -0.4568  0.4522
  549TIP3    H123138   4.431   0.712  13.162  0.8632  0.9565  2.6308
  549TIP3    H223139   4.347   0.607  13.230 -0.0977 -0.7791 -0.9818
  550TIP3   OH223140   6.417   0.399  12.784  0.0170 -0.4480 -0.4437
  550TIP3    H123141   6.452   0.487  12.771  1.5347 -1.0124 -0.4307
  550TIP3    H223142   6.397   0.394  12.878 -1.9308  0.4879 -0.7571
  551TIP3   OH223143   0.398   0.322   5.220  0.0028 -0.1336  0.0578
  551TIP3    H123144   0.438   0.368   5.146 -0.3074 -0.0906 -0.0829
  551TIP3    H223145   0.305   0.346   5.216  0.0003 -0.0559  0.5152
  552TIP3   OH223146   1.959   2.737  11.400 -0.0780  0.0886 -0.1620
  552TIP3    H123147   1.876   2.751  11.353 -1.0315 -2.4196  0.6310
  552TIP3    H223148   2.012   2.813  11.376 -2.6156  1.8764 -0.6154
  553TIP3   OH223149   6.258   2.218   0.624 -0.1788  0.1634 -0.5431
  553TIP3    H123150   6.189   2.160   0.656  1.0276  0.0878  2.1404
  553TIP3    H223151   6.308   2.164   0.563  0.3491 -1.3933  1.1754
  554TIP3   OH223152   6.313   5.417  15.185  0.1686  0.3603 -0.7878
  554TIP3    H123153   6.377   5.408  15.256 -1.1041  3.0312  0.8875
  554TIP3    H223154   6.231   5.440  15.230 -1.4331 -0.6527 -3.0003
  555TIP3   OH223155   4.676   4.472   1.383 -0.7523 -0.5611  0.0220
  555TIP3    H123156   4.728   4.467   1.463 -1.6963 -1.3100  0.6140
  555TIP3    H223157   4.735   4.508   1.318  0.3238 -0.8284  0.8265
  556TIP3   OH223158   0.715   0.757   5.163 -0.3002  0.2106 -0.4510
  556TIP3    H123159   0.668   0.677   5.184  0.7854 -0.3985 -0.2605
  556TIP3    H223160   0.650   0.827   5.172 -0.8831 -0.4738  0.9383
  557TIP3   OH223161   1.200   3.993  14.079  0.7675  0.3625  0.5508
  557TIP3    H123162   1.186   3.930  14.150  1.6929 -2.8251 -1.8668
  557TIP3    H223163   1.285   4.031  14.097  0.6872  0.1298  1.4938
  558TIP3   OH223164   1.579   2.357  13.162 -0.3175 -0.4178 -0.7087
  558TIP3    H123165   1.615   2.292  13.102  1.2719 -0.2257 -0.0091
  558TIP3    H223166   1.646   2.369  13.228 -1.4049  0.4924  0.2851
  559TIP3   OH223167   0.525   2.784   3.533  0.0501 -0.0139  0.0467
  559TIP3    H123168   0.469   2.803   3.608  1.7362 -2.4852  2.1298
  559TIP3    H223169   0.478   2.714   3.487  1.5040 -2.6644  2.2417
  560TIP3   OH223170   1.110   1.250  12.437 -0.6015  0.4025 -0.0730
  560TIP3    H123171   1.106   1.156  12.422 -2.5501  0.3820  0.3881
  560TIP3    H223172   1.031   1.285  12.397 -0.3849  1.7302  0.5812
  561TIP3   OH223173   4.674   5.056   5.045 -0.2442  0.2271 -0.1909
  561TIP3    H123174   4.681   5.063   5.141 -0.1912 -1.7688 -0.0088
  561TIP3    H223175   4.579   5.058   5.029 -0.2893 -0.2158 -0.0065
  562TIP3   OH223176   4.044   3.914  12.103  0.2587  0.0924 -0.3575
  562TIP3    H123177   4.107   3.874  12.043  2.3730  1.9953  0.4297
  562TIP3    H223178   4.016   3.994  12.059 -0.5352 -0.0156 -0.0725
  563TIP3   OH223179   4.653   3.493  14.909 -0.0985  0.1939 -0.1473
  563TIP3    H123180   4.650   3.554  14.836  0.7002  1.0477  0.5143
  563TIP3    H223181   4.742   3.457  14.908 -0.3223 -0.3874 -0.0676
  564TIP3   OH223182   5.203   4.564  11.889  0.5959 -0.0746  0.0744
  564TIP3    H123183   5.179   4.657  11.882 -1.8594 -0.6410  0.0592
  564TIP3    H223184   5.185   4.528  11.802 -0.2696 -0.9027  0.5753
  565TIP3   OH223185   3.907   3.367   4.355  0.0498 -0.2403 -0.2082
  565TIP3    H123186   3.927   3.274   4.356  1.5948  0.0645  0.7368
  565TIP3    H223187   3.850   3.381   4.431 -1.8371 -0.6970 -1.4729
  566TIP3   OH223188   6.107   4.660  10.237  0.1208  0.4977  0.6761
  566TIP3    H123189   6.106   4.615  10.321  1.1719 -1.4344 -0.2944
  566TIP3    H223190   6.198   4.655  10.208  0.1351  2.6497  0.1615
  567TIP3   OH223191   5.726   0.864   1.362  0.2605  0.1830 -0.0689
  567TIP3    H123192   5.720   0.810   1.441  0.3266  1.4124  0.8227
  567TIP3    H223193   5.712   0.953   1.394 -1.7938  0.5504 -1.7340
  568TIP3   OH223194   2.234   2.253   3.297  0.2298  0.3655  0.1065
  568TIP3    H123195   2.318   2.265   3.341 -0.1360 -2.3238  1.7383
  568TIP3    H223196   2.209   2.163   3.317 -2.7911  0.8945 -0.7952
  569TIP3   OH223197   6.236   6.015   2.932 -0.8095 -1.1024 -0.1637
  569TIP3    H123198   6.280   5.947   2.983  0.0269 -1.2485 -1.0369
  569TIP3    H223199   6.187   6.066   2.996  0.4562 -1.0836  0.8267
  570TIP3   OH223200   3.405   5.212  16.146  0.0086 -0.2121 -0.2043
  570TIP3    H123201   3.458   5.134  16.161  0.8615  0.4590  0.3895
  570TIP3    H223202   3.392   5.249  16.234 -0.5566  0.1976 -0.4579
  571TIP3   OH223203   0.437   1.368  15.924  0.0981  0.6568 -0.5206
  571TIP3    H123204   0.512   1.321  15.888  1.7138  2.9227 -0.3359
  571TIP3    H223205   0.458   1.377  16.017 -1.1262  0.1173 -0.1662
  572TIP3   OH223206   4.881   6.142  11.255 -0.3283  0.3783 -0.1095
  572TIP3    H123207   4.869   6.193  11.175 -1.6264  1.9562  1.0291
  572TIP3    H223208   4.954   6.184  11.300 -0.8321  0.7050  0.4175
  573TIP3   OH223209   3.129   6.134   4.545  0.0557  0.1575 -0.4925
  573TIP3    H123210   3.148   6.042   4.525  0.7707 -0.1724  1.4087
  573TIP3    H223211   3.205   6.163   4.596 -0.4084  1.6473 -0.6130
  574TIP3   OH223212   5.002   2.254  12.783 -0.7807 -0.4155 -0.0540
  574TIP3    H123213   4.994   2.245  12.878 -2.2622  2.6525  0.2049
  574TIP3    H223214   5.070   2.320  12.771 -1.5079  0.1511 -1.0800
  575TIP3   OH223215   0.714   3.078  14.316  0.4252  0.0925 -0.0252
  575TIP3    H123216   0.754   3.152  14.271  0.6869  0.7843  1.3067
  575TIP3    H223217   0.777   3.054  14.384  0.5070 -1.5918 -0.6442
  576TIP3   OH223218   4.650   4.187   4.454 -0.0132 -0.0170  0.2032
  576TIP3    H123219   4.602   4.172   4.372  0.5081  1.5720 -0.4396
  576TIP3    H223220   4.584   4.177   4.523 -1.0163  0.8733 -0.5784
  577TIP3   OH223221   4.098   1.458   4.641  0.0982 -0.3909 -0.0005
  577TIP3    H123222   4.151   1.525   4.684  0.6675 -1.1590  0.5137
  577TIP3    H223223   4.027   1.507   4.599  0.6938  0.5612  0.0789
  578TIP3   OH223224   5.456   2.348  16.325 -0.7493 -0.5827  0.4880
  578TIP3    H123225   5.371   2.375  16.358 -0.0085  2.3557  0.2874
  578TIP3    H223226   5.457   2.374  16.233  0.1344 -1.2049  0.2953
  579TIP3   OH223227   0.513   4.254  13.510  0.3857  0.7905 -0.4536
  579TIP3    H123228   0.605   4.238  13.487  0.9230  1.9377  0.8071
  579TIP3    H223229   0.478   4.305  13.437  0.4371 -0.5247 -1.4320
  580TIP3   OH223230   4.617   5.824   4.229 -0.1182  0.0262 -0.1118
  580TIP3    H123231   4.712   5.830   4.242  0.0406  1.8020 -1.6496
  580TIP3    H223232   4.594   5.906   4.185 -2.4324 -0.2341  0.5006
  581TIP3   OH223233   0.835   2.235   2.612 -0.2694 -0.3641  0.1054
  581TIP3    H123234   0.783   2.155   2.616 -2.0376  0.7478  0.6534
  581TIP3    H223235   0.836   2.259   2.519  0.2889 -1.0103 -0.0637
  582TIP3   OH223236   4.090   5.109   2.087  0.0292 -0.0538 -0.7022
  582TIP3    H123237   4.027   5.039   2.108  0.4782 -0.0982  0.6003
  582TIP3    H223238   4.040   5.190   2.098 -0.5251 -0.1390 -2.3293
  583TIP3   OH223239   6.280   1.997   2.765 -0.3619  0.5396  0.0890
  583TIP3    H123240   6.223   1.920   2.763 -0.0644  0.2741 -2.5349
  583TIP3    H223241   6.237   2.060   2.707  0.9595  1.0930 -0.3458
  584TIP3   OH223242   0.651   1.988   3.271 -0.1151  0.3843  0.0221
  584TIP3    H123243   0.590   2.035   3.214 -1.3655 -0.1617  0.8657
  584TIP3    H223244   0.630   1.896   3.258  0.3137  0.2018  0.5664
  585TIP3   OH223245   3.106   4.883   3.573 -0.2174 -0.1382  0.2858
  585TIP3    H123246   3.073   4.802   3.612 -2.2793  0.3510 -0.3146
  585TIP3    H223247   3.135   4.856   3.485 -0.1054 -0.3798  0.3961
  586TIP3   OH223248   0.248   5.440  11.933 -0.1901 -0.0204 -0.6423
  586TIP3    H123249   0.282   5.434  11.844  1.2980  0.7625 -0.1704
  586TIP3    H223250   0.268   5.530  11.960  3.7355 -1.4255  2.0749
  587TIP3   OH223251   4.826   0.417  17.115 -0.1232 -0.0201 -0.0440
  587TIP3    H123252   4.749   0.463  17.148 -0.0371  0.0327  0.0836
  587TIP3    H223253   4.897   0.440  17.176 -0.1866 -0.7010  0.3049
  588TIP3   OH223254   3.671   6.748   5.308  0.5143 -0.1275 -0.3619
  588TIP3    H123255   3.589   6.741   5.356 -0.3278  0.1025 -1.7283
  588TIP3    H223256   3.735   6.774   5.374 -0.4258 -0.6629  0.7969
  589TIP3   OH223257   2.549   3.028  14.088 -0.1173  0.0873  0.1609
  589TIP3    H123258   2.477   3.091  14.092 -0.8818 -0.8112  1.4639
  589TIP3    H223259   2.510   2.946  14.119  0.9948 -0.8914 -0.9417
  590TIP3   OH223260   5.224   3.951  13.760 -0.5472  0.1583 -0.3959
  590TIP3    H123261   5.154   4.017  13.762  0.0606  0.8582 -1.2490
  590TIP3    H223262   5.207   3.901  13.680 -0.0013  0.4155 -0.6756
  591TIP3   OH223263   0.823   3.289  14.166 -0.5540 -0.4631  0.6238
  591TIP3    H123264   0.772   3.369  14.160  1.5735  0.9431 -0.1291
  591TIP3    H223265   0.838   3.263  14.074 -0.1201 -0.9547  0.8262
  592TIP3   OH223266   3.623   1.050  16.646 -0.0534 -0.4113 -0.4391
  592TIP3    H123267   3.681   1.125  16.635  1.2458 -0.8071  2.6615
  592TIP3    H223268   3.535   1.088  16.649  0.4086  0.7355 -0.8968
  593TIP3   OH223269   2.674   3.384   5.148 -0.2378 -0.0568  0.4726
  593TIP3    H123270   2.642   3.386   5.058 -0.6364  0.0575  0.6168
  593TIP3    H223271   2.615   3.325   5.194  0.3700 -0.6473  0.5094
  594TIP3   OH223272   6.026   4.667  13.923  0.8849 -0.0042 -0.0742
  594TIP3    H123273   5.965   4.709  13.983 -0.2280 -0.1524 -1.0738
  594TIP3    H223274   6.018   4.574  13.942 -0.4891 -0.1804 -1.3256
  595TIP3   OH223275   6.043   2.461  16.748 -0.1861 -1.0550 -0.2914
  595TIP3    H123276   5.949   2.473  16.736 -0.3380 -2.0754 -0.1644
  595TIP3    H223277   6.068   2.533  16.806 -0.6334  0.0098 -1.3731
  596TIP3   OH223278   3.142   3.321  13.625 -0.3120 -0.0620  0.2303
  596TIP3    H123279   3.214   3.264  13.599 -0.5550 -1.0667  1.6195
  596TIP3    H223280   3.096   3.341  13.543  0.3881 -1.0321 -0.4224
  597TIP3   OH223281   2.857   0.875   3.810  0.2353  0.2158 -0.7218
  597TIP3    H123282   2.950   0.860   3.789  0.4052  0.9560 -0.5213
  597TIP3    H223283   2.823   0.921   3.733  0.3455  1.0649 -0.2689
  598TIP3   OH223284   4.942   3.249  14.620 -0.1576 -0.0760 -0.3985
  598TIP3    H123285   5.007   3.316  14.637 -1.6755  1.5096 -0.5716
  598TIP3    H223286   4.993   3.172  14.594  1.6370  0.9692 -0.1199
  599TIP3   OH223287   0.483   3.884   0.706  0.1481 -0.1252 -0.5359
  599TIP3    H123288   0.398   3.856   0.739  0.3652  0.2712  0.4052
  599TIP3    H223289   0.524   3.804   0.674 -1.4855 -0.0188 -3.2420
  600TIP3   OH223290   5.940   1.486  12.412 -0.8097  0.2943 -0.0422
  600TIP3    H123291   6.014   1.542  12.387 -2.6302  2.5851 -0.7405
  600TIP3    H223292   5.914   1.518  12.498 -2.8695  1.7919 -1.1193
  601TIP3   OH223293   4.133   2.901   4.162  0.0581 -0.3639  0.2161
  601TIP3    H123294   4.040   2.906   4.185 -0.1944  1.4718 -0.9999
  601TIP3    H223295   4.156   2.990   4.137  2.0594 -0.8777  0.0806
  602TIP3   OH223296   0.812   5.045   0.077  0.8251  0.6592 -0.0557
  602TIP3    H123297   0.726   5.048   0.118 -0.2592 -2.7392 -1.6942
  602TIP3    H223298   0.819   5.126   0.027 -2.4756  0.1020 -1.6797
  603TIP3   OH223299   1.012   5.538   2.142  0.3888  0.3147 -0.1247
  603TIP3    H123300   0.967   5.577   2.217 -1.5282 -1.0705 -0.5001
  603TIP3    H223301   0.971   5.580   2.065  0.2658 -0.4024 -0.4554
  604TIP3   OH223302   0.106   0.878  16.891 -0.0010  0.6036  0.6090
  604TIP3    H123303   0.052   0.894  16.813  0.0615  1.6526  0.7687
  604TIP3    H223304   0.063   0.803  16.934  0.4476 -0.5422 -0.8444
  605TIP3   OH223305   3.282   4.472  12.026  0.3570 -0.4539 -0.2320
  605TIP3    H123306   3.211   4.408  12.014  1.9181 -2.3179 -0.0264
  605TIP3    H223307   3.303   4.467  12.119  0.0175  0.9496 -0.0607
  606TIP3   OH223308   0.760   5.242   0.689 -0.4762  0.0177 -0.9806
  606TIP3    H123309   0.786   5.194   0.767  0.4123  0.7004 -0.8374
  606TIP3    H223310   0.671   5.213   0.671  0.1752 -2.0388 -1.1901
  607TIP3   OH223311   6.556   5.799   5.222 -0.0211  0.3048 -0.1620
  607TIP3    H123312   6.506   5.763   5.149 -0.8043  1.5845 -0.2789
  607TIP3    H223313   6.565   5.892   5.202 -1.0455  0.8777  1.7929
  608TIP3   OH223314   4.393   2.345   1.389 -0.1652 -0.1009  0.3416
  608TIP3    H123315   4.386   2.377   1.299 -0.1173  1.0470  0.7322
  608TIP3    H223316   4.400   2.424   1.443  0.1595 -0.7752  1.3289
  609TIP3   OH223317   0.420   2.946  15.165  0.2606 -0.0546  0.1986
  609TIP3    H123318   0.402   3.016  15.102  0.7212  0.3556  0.5190
  609TIP3    H223319   0.442   2.991  15.246 -0.1376 -0.5823  0.6068
  610TIP3   OH223320   5.116   6.546  11.920 -1.3769 -0.3100  0.3761
  610TIP3    H123321   5.089   6.635  11.900 -1.6119 -0.2048  1.1245
  610TIP3    H223322   5.195   6.556  11.974  0.9768 -0.6164 -2.6927
  611TIP3   OH223323   4.737   3.727   4.774  0.6348 -0.4524  0.3913
  611TIP3    H123324   4.805   3.697   4.834  1.8397  1.2699 -0.0356
  611TIP3    H223325   4.766   3.697   4.688  2.3468  2.4223 -0.1854
  612TIP3   OH223326   6.376   6.684   2.516 -0.1642 -0.0872 -0.1603
  612TIP3    H123327   6.359   6.591   2.533  0.5531 -0.0538  0.8388
  612TIP3    H223328   6.310   6.730   2.569 -0.1825 -0.0250 -0.2374
  613TIP3   OH223329   6.468   6.490  14.711 -0.3368 -0.4527 -0.0787
  613TIP3    H123330   6.406   6.559  14.689  0.3801  0.6869  1.2585
  613TIP3    H223331   6.494   6.453  14.627 -2.5076 -0.7285 -0.6890
  614TIP3   OH223332   3.771   4.999  16.354  0.0608 -0.3205 -0.0669
  614TIP3    H123333   3.686   4.983  16.314 -0.0740 -0.8614  0.4116
  614TIP3    H223334   3.825   4.926  16.324 -0.2249 -1.0929  1.2169
  615TIP3   OH223335   4.780   3.283  11.341  0.3852  0.0721 -0.3880
  615TIP3    H123336   4.750   3.303  11.252  1.4867  0.9270 -0.5863
  615TIP3    H223337   4.791   3.187  11.340 -2.7955 -0.3986 -0.1029
  616TIP3   OH223338   5.422   6.450   5.395 -0.0115 -0.3395 -0.2358
  616TIP3    H123339   5.436   6.510   5.468 -0.8811 -0.7863  0.3095
  616TIP3    H223340   5.339   6.408   5.414  1.0357 -2.4854 -0.0590
  617TIP3   OH223341   3.210   4.844   2.650 -0.4372 -0.3447  0.1840
  617TIP3    H123342   3.287   4.846   2.593 -0.1441  0.2963  0.5979
  617TIP3    H223343   3.215   4.758   2.693 -0.4534 -0.6746 -0.4684
  618TIP3   OH223344   5.581   3.294   1.989  0.0445  0.3275 -0.3579
  618TIP3    H123345   5.554   3.202   1.987 -0.5038  0.4704  0.0746
  618TIP3    H223346   5.666   3.295   1.945 -0.1652 -0.3088 -0.8029
  619TIP3   OH223347   4.901   1.381  14.810 -0.5823 -0.4394  0.1470
  619TIP3    H123348   4.921   1.365  14.718  0.7898 -3.5328  0.8295
  619TIP3    H223349   4.976   1.432  14.841 -0.0649 -1.0322 -0.0834
  620TIP3   OH223350   2.997   2.545   3.022  0.0713  0.0345  0.2797
  620TIP3    H123351   2.947   2.626   3.027  0.5322  0.3635 -0.3653
  620TIP3    H223352   3.018   2.535   2.929  0.5699 -0.4855  0.4415
  621TIP3   OH223353   5.285   2.153  14.042  0.2827  0.1479 -0.1731
  621TIP3    H123354   5.293   2.128  13.950  2.4158  1.6618 -0.4784
  621TIP3    H223355   5.354   2.105  14.087  0.8138  1.2053  0.1884
  622TIP3   OH223356   6.101   1.601   3.364  0.0889  0.6170 -0.2391
  622TIP3    H123357   6.079   1.571   3.452  1.2159  1.0448  0.2138
  622TIP3    H223358   6.196   1.590   3.358  0.3143  2.4090 -0.6799
  623TIP3   OH223359   4.140   3.085  14.651  0.0874 -0.3780  0.6526
  623TIP3    H123360   4.081   3.102  14.577 -0.3598 -0.0755  1.0703
  623TIP3    H223361   4.108   3.142  14.720  2.0407  1.2265  0.3154
  624TIP3   OH223362   3.711   0.047   4.783  0.1994  0.5402 -0.2489
  624TIP3    H123363   3.679   0.137   4.778 -1.2769 -0.0136 -1.5123
  624TIP3    H223364   3.636  -0.003   4.814  0.6114 -0.4463 -0.8263
  625TIP3   OH223365   4.155   5.731  11.821 -0.4375 -0.1830  0.5473
  625TIP3    H123366   4.191   5.654  11.866  2.4109  2.1150  2.6357
  625TIP3    H223367   4.075   5.752  11.869 -1.3454 -1.8545 -0.1543
  626TIP3   OH223368   2.378   4.754   6.202  0.7644 -0.2346  0.2099
  626TIP3    H123369   2.467   4.722   6.191 -0.0378 -2.3166 -0.6780
  626TIP3    H223370   2.352   4.724   6.289  0.7461 -0.0453  0.2716
  627TIP3   OH223371   0.183   3.936   0.923 -0.0355  0.4988  0.0787
  627TIP3    H123372   0.106   3.992   0.912 -0.7405 -0.7901 -2.0344
  627TIP3    H223373   0.176   3.870   0.854  2.9157  0.2297 -0.1137
  628TIP3   OH223374   3.899   4.656   3.281 -0.8841  0.1575 -0.0899
  628TIP3    H123375   3.827   4.702   3.323 -1.4814 -0.1627 -0.7563
  628TIP3    H223376   3.976   4.710   3.300 -1.3704  0.7431  0.2343
  629TIP3   OH223377   1.307   2.464  13.244  0.5523 -0.5107 -0.6179
  629TIP3    H123378   1.397   2.489  13.226  0.0798  0.7844 -1.3020
  629TIP3    H223379   1.299   2.375  13.209  1.9080 -1.1791  0.6625
  630TIP3   OH223380   4.360   4.167   4.439  0.2607  0.0860  0.1390
  630TIP3    H123381   4.392   4.116   4.365 -1.6547  0.6692 -1.1596
  630TIP3    H223382   4.332   4.101   4.503  1.2699 -0.4270  0.0711
  631TIP3   OH223383   0.414   5.084   4.313  0.4821 -0.3499  0.1985
  631TIP3    H123384   0.478   5.018   4.337 -1.2169 -1.9914  0.3969
  631TIP3    H223385   0.334   5.035   4.293 -0.6459  1.5858 -0.3283
  632TIP3   OH223386   5.901   5.797  17.064  0.3850  0.2262 -0.7951
  632TIP3    H123387   5.892   5.871  17.123 -1.1876 -0.4740 -0.0964
  632TIP3    H223388   5.940   5.728  17.117 -1.0225 -0.4029 -0.5226
  633TIP3   OH223389   6.052   6.448   0.529 -0.3494  1.4928  0.0416
  633TIP3    H123390   5.996   6.426   0.603  1.0036 -2.2727  0.1516
  633TIP3    H223391   6.001   6.423   0.452 -0.6288  2.7242 -0.2092
  634TIP3   OH223392   3.262   2.075   5.183  0.2659  1.1553  0.2646
  634TIP3    H123393   3.327   2.069   5.113  0.4407  3.3603  0.1727
  634TIP3    H223394   3.185   2.030   5.147  1.4774 -1.0009  0.1692
  635TIP3   OH223395   5.164   5.418  11.095  0.4282 -0.4432 -0.1434
  635TIP3    H123396   5.200   5.331  11.079  2.1569  0.2717 -0.4152
  635TIP3    H223397   5.121   5.442  11.013  0.0446 -0.9722 -0.1049
  636TIP3   OH223398   0.300   0.602  13.575  0.2079  0.4609  0.1408
  636TIP3    H123399   0.245   0.524  13.590 -0.9520  1.3990  0.9566
  636TIP3    H223400   0.381   0.583  13.621 -0.0489 -0.2749  0.3156
  637TIP3   OH223401   0.869   2.364  16.953 -0.0863 -0.2062 -0.1991
  637TIP3    H123402   0.894   2.286  16.903  1.6552 -0.2303  0.6700
  637TIP3    H223403   0.948   2.417  16.956 -0.2445 -0.0209  2.1806
  638TIP3   OH223404   5.334   3.264  14.573 -0.0700 -0.3153 -0.1211
  638TIP3    H123405   5.274   3.338  14.582 -0.9369 -1.1190  0.9221
  638TIP3    H223406   5.420   3.301  14.591 -0.5077  0.4127  0.5528
  639TIP3   OH223407   5.850   5.721  16.110 -0.8051  0.2969  0.1207
  639TIP3    H123408   5.864   5.709  16.016  1.8660 -1.0578  0.6023
  639TIP3    H223409   5.756   5.737  16.118 -1.7808 -2.9371 -2.4991
  640TIP3   OH223410   5.748   0.327   5.892 -0.1549  0.0130 -0.3389
  640TIP3    H123411   5.770   0.412   5.854 -0.2789  0.8511  1.3471
  640TIP3    H223412   5.708   0.349   5.977 -0.3209 -1.7285  0.0663
  641TIP3   OH223413   6.020   5.535   2.199 -0.4670  0.7971 -0.2475
  641TIP3    H123414   6.081   5.517   2.127  0.9041  0.6006  0.9289
  641TIP3    H223415   5.975   5.615   2.171  3.0824  3.3109  0.4370
  642TIP3   OH223416   6.188   3.362   3.849 -0.1509 -0.6494 -0.1757
  642TIP3    H123417   6.231   3.286   3.888 -1.2606  0.7471  4.4279
  642TIP3    H223418   6.256   3.430   3.847 -0.0510 -0.7666 -0.9328
  643TIP3   OH223419   1.395   0.520  15.493 -0.5107 -0.2809 -0.4107
  643TIP3    H123420   1.427   0.608  15.513 -1.2779 -0.2544  0.7954
  643TIP3    H223421   1.474   0.468  15.480 -0.0475  0.6214 -1.3747
  644TIP3   OH223422   4.733   5.808  11.846  0.6867 -0.7525 -0.2841
  644TIP3    H123423   4.745   5.722  11.885  2.2143 -0.4557 -0.0215
  644TIP3    H223424   4.821   5.835  11.820 -0.0102 -0.0641 -2.1014
  645TIP3   OH223425   4.604   6.052   3.419  0.3143  0.3333 -0.3877
  645TIP3    H123426   4.670   6.122   3.419  0.1021  0.6919  3.0101
  645TIP3    H223427   4.521   6.097   3.438 -0.0134 -0.6651  0.6999
  646TIP3   OH223428   3.510   4.970  16.182  0.3844 -0.5390  0.1792
  646TIP3    H123429   3.555   4.959  16.097 -0.1914 -1.2622 -0.0391
  646TIP3    H223430   3.434   4.912  16.177 -1.1684  1.3910  0.1560
  647TIP3   OH223431   3.675   1.107  14.431 -0.3590 -0.0681 -0.1384
  647TIP3    H123432   3.722   1.172  14.484  0.2216  0.5804 -1.3881
  647TIP3    H223433   3.727   1.101  14.351 -0.2871 -2.2471  0.0190
  648TIP3   OH223434   1.492   0.009   2.104  0.3031 -0.4727  0.3209
  648TIP3    H123435   1.424   0.073   2.080  0.8991  0.1455  0.2475
  648TIP3    H223436   1.496  -0.051   2.029  0.9576  0.4401 -0.3948
  649TIP3   OH223437   5.104   5.100   3.805 -0.1170 -0.2047  0.5018
  649TIP3    H123438   5.050   5.170   3.842  0.6329  1.1050 -0.7842
  649TIP3    H223439   5.189   5.109   3.849  0.2918  0.3530 -0.3817
  650TIP3   OH223440   1.660   4.854  12.005 -0.0571 -0.0780 -0.1520
  650TIP3    H123441   1.663   4.768  12.047 -2.0711 -0.1942 -0.1400
  650TIP3    H223442   1.717   4.846  11.929 -1.1197 -1.8512 -0.8316
  651TIP3   OH223443   6.280   3.153  11.698  0.4384  0.1745  0.2599
  651TIP3    H123444   6.205   3.097  11.678 -0.2710  1.4991 -0.9836
  651TIP3    H223445   6.340   3.140  11.624  0.5903  0.4933  0.3266
  652TIP3   OH223446   4.614   1.171  14.721  0.1480 -0.3065  0.1086
  652TIP3    H123447   4.689   1.113  14.735  1.0067  0.8797  0.5973
  652TIP3    H223448   4.556   1.155  14.795 -0.4419 -1.7247 -0.6231
  653TIP3   OH223449   0.557   4.834  11.469  0.0100  0.3322  0.0193
  653TIP3    H123450   0.465   4.855  11.489  0.1893  0.0577  1.2181
  653TIP3    H223451   0.574   4.755  11.519  1.4280  1.3758  1.2602
  654TIP3   OH223452   2.898   4.300   2.473 -0.2967 -0.3997  0.0942
  654TIP3    H123453   2.814   4.344   2.468  1.0899  2.3692 -0.6251
  654TIP3    H223454   2.907   4.275   2.565 -1.7700 -0.5663  0.2166
  655TIP3   OH223455   4.031   6.457  15.745  0.4050  0.1289 -0.0227
  655TIP3    H123456   4.064   6.517  15.678 -1.9670  1.2168 -0.3023
  655TIP3    H223457   4.058   6.370  15.715  0.3870  0.7019 -1.7831
  656TIP3   OH223458   4.227   1.379  14.935 -0.9619  0.0177 -0.1678
  656TIP3    H123459   4.281   1.330  14.997  0.0574 -0.5574 -1.4595
  656TIP3    H223460   4.176   1.312  14.890 -3.7330  0.6256  1.8235
  657TIP3   OH223461   6.404   3.564   1.756  0.2619  0.4384  0.3525
  657TIP3    H123462   6.446   3.643   1.790  1.3139 -0.1102  0.3690
  657TIP3    H223463   6.353   3.595   1.681  0.0863  1.2359  0.7893
  658TIP3   OH223464   3.198   2.529  14.044  0.0407 -0.5549  0.0209
  658TIP3    H123465   3.190   2.582  14.123 -0.3055 -0.6043  0.0202
  658TIP3    H223466   3.280   2.558  14.003  0.5440 -0.9633  0.7215
  659TIP3   OH223467   6.775   4.098  11.459 -0.1805  0.0065  0.1688
  659TIP3    H123468   6.836   4.024  11.460  1.1357  1.0451  1.4488
  659TIP3    H223469   6.758   4.114  11.366 -0.6667 -2.0055 -0.1258
  660TIP3   OH223470   2.813   1.579  10.784  0.6063  0.2287 -0.0175
  660TIP3    H123471   2.837   1.488  10.804  0.2051  0.0866 -0.1754
  660TIP3    H223472   2.855   1.630  10.853 -0.7596 -0.2585  1.2337
  661TIP3   OH223473   0.585   6.653  12.845 -0.2569 -0.1534 -0.3798
  661TIP3    H123474   0.501   6.652  12.892 -0.6584 -0.9000 -1.0880
  661TIP3    H223475   0.640   6.591  12.892  0.2801  1.1220  0.7297
  662TIP3   OH223476   6.482   1.484   4.428 -0.0414 -0.0550 -0.2381
  662TIP3    H123477   6.414   1.420   4.446 -0.6442  0.6583  0.0481
  662TIP3    H223478   6.544   1.474   4.501 -0.3810  0.0156  0.0635
  663TIP3   OH223479   0.980   3.505   5.361  0.0673  0.1382 -0.3070
  663TIP3    H123480   1.015   3.432   5.412  0.7781  0.1160 -0.8077
  663TIP3    H223481   1.013   3.491   5.273 -2.2850 -0.5980 -1.1451
  664TIP3   OH223482   5.671   6.152  15.882 -0.4009 -0.0937  0.1648
  664TIP3    H123483   5.733   6.223  15.865 -0.3536  0.2789  1.7290
  664TIP3    H223484   5.635   6.130  15.796  1.6855 -0.1342 -0.7665
  665TIP3   OH223485   2.917   2.643   0.195 -0.1905  0.0212  0.1514
  665TIP3    H123486   2.893   2.667   0.285 -0.6536  1.9181 -0.4183
  665TIP3    H223487   2.939   2.727   0.153  2.0939 -1.0140 -0.9438
  666TIP3   OH223488   4.330   0.095   2.604  0.5132 -0.5064 -0.1490
  666TIP3    H123489   4.356   0.061   2.518  0.8691  1.1404 -0.7344
  666TIP3    H223490   4.239   0.068   2.614  1.2792 -3.2131  0.2989
  667TIP3   OH223491   4.877   1.272   0.872  0.2730  0.5182  0.1094
  667TIP3    H123492   4.864   1.256   0.965 -5.8485  0.3048 -0.4033
  667TIP3    H223493   4.864   1.186   0.831 -0.3275  1.1405 -1.0511
  668TIP3   OH223494   1.459   0.494   5.488 -0.1530  0.2241  0.0216
  668TIP3    H123495   1.536   0.469   5.540  0.8278 -0.0872 -1.5275
  668TIP3    H223496   1.385   0.470   5.544  0.8434  0.9105  1.7391
  669TIP3   OH223497   2.257   3.947   2.291 -0.6204 -0.1343 -0.3456
  669TIP3    H123498   2.340   3.927   2.334 -0.3150  1.1105 -0.3070
  669TIP3    H223499   2.272   3.927   2.199 -0.1857  0.3208 -0.3770
  670TIP3   OH223500   3.670   5.250   2.003  0.6807 -0.1907  0.0095
  670TIP3    H123501   3.614   5.187   2.048 -0.7540  1.4789  0.6960
  670TIP3    H223502   3.613   5.290   1.938  1.2671  1.0335  0.2197
  671TIP3   OH223503   0.446   1.513   3.057 -0.5513  0.4965  0.1492
  671TIP3    H123504   0.414   1.602   3.069  1.4870  1.3408 -0.1795
  671TIP3    H223505   0.523   1.508   3.114  0.4898 -0.3798 -1.2644
  672TIP3   OH223506   1.259   0.273  16.888 -0.3406  0.3759 -0.1953
  672TIP3    H123507   1.259   0.340  16.820  1.2351  1.3152  0.6797
  672TIP3    H223508   1.190   0.212  16.861 -0.9255  1.6296 -1.7035
  673TIP3   OH223509   0.228   4.737  16.370 -0.2441 -0.0938  0.4306
  673TIP3    H123510   0.171   4.697  16.304  0.0843 -1.2849  0.8360
  673TIP3    H223511   0.300   4.674  16.380  0.4471  0.7521  0.8935
  674TIP3   OH223512   2.935   1.683  12.953  0.3401  0.1684  0.8542
  674TIP3    H123513   2.917   1.777  12.953  1.2965  0.4061 -1.1504
  674TIP3    H223514   2.923   1.656  13.044 -1.1489  1.9751  1.2653
  675TIP3   OH223515   2.985   3.551   3.774 -0.0094  0.0492 -0.3849
  675TIP3    H123516   3.008   3.591   3.690  0.1552  0.3589 -0.1956
  675TIP3    H223517   2.932   3.618   3.818  1.5839  0.7239  0.6002
  676TIP3   OH223518   5.903   6.613  14.145 -0.4473  0.4115 -0.1626
  676TIP3    H123519   5.964   6.539  14.149  0.2148  0.9828  0.7841
  676TIP3    H223520   5.823   6.580  14.186 -2.3344 -1.6438 -4.7642
  677TIP3   OH223521   5.318   4.352   2.131 -0.3043 -0.2447  0.0018
  677TIP3    H123522   5.319   4.437   2.175  0.5189  0.8588 -2.0258
  677TIP3    H223523   5.409   4.337   2.105 -0.6647 -1.1239 -0.8186
  678TIP3   OH223524   2.742   2.073   1.024  0.6640 -0.2194 -0.2653
  678TIP3    H123525   2.760   2.167   1.026  0.1885 -0.1386  0.8007
  678TIP3    H223526   2.722   2.054   0.932 -2.6091  1.4074 -0.0471
  679TIP3   OH223527   0.435   4.730  10.687  0.3117  0.1277  0.1550
  679TIP3    H123528   0.466   4.780  10.611  1.7298  0.0200  0.6162
  679TIP3    H223529   0.480   4.646  10.680 -3.4173 -1.9760 -1.6223
  680TIP3   OH223530   2.880   5.697  13.662  0.3805 -0.2860  0.1424
  680TIP3    H123531   2.788   5.689  13.635 -0.0771  1.1124  1.1337
  680TIP3    H223532   2.888   5.639  13.737  0.2503 -0.2688  0.1701
  681TIP3   OH223533   0.778   1.361  16.593 -0.0514  0.7580  0.3575
  681TIP3    H123534   0.814   1.273  16.605  0.7028  0.7262 -1.6025
  681TIP3    H223535   0.740   1.384  16.677 -1.6077 -2.0238  0.5200
  682TIP3   OH223536   3.841   1.955   5.434  0.0212 -0.4841  0.2343
  682TIP3    H123537   3.877   1.883   5.486 -0.8597 -0.1404  1.3514
  682TIP3    H223538   3.822   2.024   5.497  3.1752  1.8254 -1.0070
  683TIP3   OH223539   5.797   2.051   1.865 -0.0695  0.2884  0.4754
  683TIP3    H123540   5.710   2.022   1.837 -0.8703  1.5290  1.5634
  683TIP3    H223541   5.802   2.143   1.839  1.2804  0.0166 -0.3347
  684TIP3   OH223542   0.009   3.579  11.490 -0.4306  0.4873  0.2031
  684TIP3    H123543  -0.081   3.586  11.460 -0.2605 -2.0795 -1.1893
  684TIP3    H223544   0.049   3.516  11.431  2.5988  2.2687  0.1593
  685TIP3   OH223545   3.278   3.336  16.409  0.1661  0.8400 -0.5788
  685TIP3    H123546   3.357   3.368  16.366  1.5876  0.8924  1.8988
  685TIP3    H223547   3.286   3.241  16.407 -0.1287  0.8189 -1.0094
  686TIP3   OH223548   0.011   1.834   0.024  0.6046 -0.1632 -0.2854
  686TIP3    H123549  -0.045   1.858  -0.050 -0.3488 -0.6246  0.2656
  686TIP3    H223550   0.026   1.916   0.070  2.7097  0.4862 -1.9316
  687TIP3   OH223551   2.505   0.970  12.755  0.3458 -0.4644  0.8364
  687TIP3    H123552   2.450   0.897  12.730 -1.4061  0.4636  1.7587
  687TIP3    H223553   2.482   0.987  12.847 -0.5515  2.2351  0.2034
  688TIP3   OH223554   4.176   2.070   5.516  0.2617 -0.1916  0.5104
  688TIP3    H123555   4.151   2.076   5.423  0.0795 -1.2726  0.4826
  688TIP3    H223556   4.230   2.148   5.530  0.9502 -0.4077 -0.7145
  689TIP3   OH223557   6.480   5.635   4.738  0.6950 -0.0640 -0.6110
  689TIP3    H123558   6.441   5.548   4.728  0.8517  0.0101 -1.9439
  689TIP3    H223559   6.565   5.628   4.694  0.4199  0.9514 -1.3333
  690TIP3   OH223560   0.415   5.795  15.638 -0.1596  0.2855 -0.3859
  690TIP3    H123561   0.402   5.868  15.578  2.0081  0.7867 -0.3273
  690TIP3    H223562   0.416   5.718  15.582  0.2247  0.5837 -0.7977
  691TIP3   OH223563   1.195   1.946   4.092  0.4858 -0.4690 -0.3377
  691TIP3    H123564   1.198   2.038   4.064  1.9528 -0.8747 -1.6989
  691TIP3    H223565   1.266   1.939   4.156 -1.4439 -0.0616  1.9835
  692TIP3   OH223566   1.158   1.966  13.390 -0.5659 -0.1637  0.1393
  692TIP3    H123567   1.128   1.973  13.480 -0.3339  2.3769  0.1107
  692TIP3    H223568   1.189   1.876  13.382 -0.5536 -0.4587  2.5990
  693TIP3   OH223569   3.926   1.978   5.895 -0.0993  0.2002  0.0763
  693TIP3    H123570   3.969   1.935   5.969 -1.1329 -1.5276 -0.2738
  693TIP3    H223571   3.988   1.968   5.822  0.1453  0.3150  0.2653
  694TIP3   OH223572   0.197   3.632   2.684  0.3794 -0.5058  1.0116
  694TIP3    H123573   0.130   3.629   2.616 -0.2896  1.7842  1.4774
  694TIP3    H223574   0.232   3.543   2.688 -1.4759 -1.3559 -0.4015
  695TIP3   OH223575   0.062   2.675  12.304  0.0849  0.0587 -0.3587
  695TIP3    H123576   0.066   2.579  12.309 -0.0177 -0.0308 -1.6689
  695TIP3    H223577   0.112   2.697  12.225 -2.4814  0.8371 -1.8881
  696TIP3   OH223578   2.463   2.317  11.674 -0.0977  0.4042 -0.3802
  696TIP3    H123579   2.447   2.406  11.643  1.8806  0.8816 -0.1346
  696TIP3    H223580   2.481   2.327  11.768 -0.7310 -0.3729 -0.1595
  697TIP3   OH223581   1.199   3.395   4.043 -0.9840  0.0725 -0.1311
  697TIP3    H123582   1.189   3.350   4.126 -0.7963  0.0214 -0.1361
  697TIP3    H223583   1.217   3.486   4.067  2.4897 -0.5107  0.0035
  698TIP3   OH223584   1.828   4.149   3.819  0.0367  0.1113  0.0624
  698TIP3    H123585   1.829   4.149   3.724  1.7179  0.3035  0.0506
  698TIP3    H223586   1.784   4.230   3.843  0.7997  0.7266 -0.5702
  699TIP3   OH223587   2.617   1.225   1.661 -0.2921 -0.4603  0.1525
  699TIP3    H123588   2.544   1.168   1.639  0.8306 -1.5149 -0.9846
  699TIP3    H223589   2.677   1.217   1.587  2.4233 -2.0798  2.3295
  700TIP3   OH223590   2.948   3.880  10.546 -0.4248  0.1788  0.4982
  700TIP3    H123591   3.007   3.928  10.604 -0.3041  0.1160  0.4283
  700TIP3    H223592   2.881   3.844  10.604 -0.0327 -0.2996  0.6713
  701TIP3   OH223593   4.860   6.493  16.620 -0.3716  0.3679  0.6806
  701TIP3    H123594   4.922   6.496  16.547  0.3611  1.7506  1.3185
  701TIP3    H223595   4.774   6.502  16.579  0.0292  1.0538 -0.0304
  702TIP3   OH223596   2.247   0.463   5.433  0.0238 -0.7459  0.1841
  702TIP3    H123597   2.171   0.500   5.478 -0.6305 -0.5047 -1.0674
  702TIP3    H223598   2.306   0.538   5.421  0.1940 -0.8080  0.5977
  703TIP3   OH223599   6.588   3.510  15.631  0.7100  0.1863  0.2552
  703TIP3    H123600   6.587   3.486  15.538  1.7470  2.1245 -0.3124
  703TIP3    H223601   6.648   3.447  15.671  1.0602 -0.0493 -0.5985
  704TIP3   OH223602   3.235   6.189  12.984  0.3390  0.2144  0.6003
  704TIP3    H123603   3.245   6.222  12.895  2.0687 -0.9428  0.3115
  704TIP3    H223604   3.217   6.267  13.037  0.2574  1.0368 -0.6097
  705TIP3   OH223605   5.870   4.151  14.410  0.3699  0.1955  0.2190
  705TIP3    H123606   5.877   4.232  14.460 -0.8102 -1.1609  2.8005
  705TIP3    H223607   5.931   4.091  14.453 -1.4688 -1.3517  0.7979
  706TIP3   OH223608   0.626   0.857   2.812  0.4009 -0.6187 -0.2350
  706TIP3    H123609   0.667   0.840   2.897  1.7167 -0.4416 -0.8002
  706TIP3    H223610   0.613   0.952   2.811 -0.9784 -0.7819  0.3381
  707TIP3   OH223611   3.401   1.398   5.393 -0.5849 -0.4885  0.4645
  707TIP3    H123612   3.370   1.377   5.481 -2.9912  0.9653  0.0546
  707TIP3    H223613   3.350   1.341   5.335  0.3699 -0.8365 -0.0563
  708TIP3   OH223614   0.859   1.280   2.606 -0.2633  0.2669  0.1033
  708TIP3    H123615   0.951   1.254   2.601 -0.4217 -0.4616  0.7728
  708TIP3    H223616   0.833   1.295   2.515  0.9855  2.2316 -0.0065
  709TIP3   OH223617   2.560   5.048   1.667  0.1397  0.4246  0.3253
  709TIP3    H123618   2.523   5.100   1.738  1.5195  0.3319  1.1576
  709TIP3    H223619   2.593   5.112   1.605  1.4031  0.5849  1.1184
  710TIP3   OH223620   3.338   4.455   2.478 -0.0109 -0.0195  0.8978
  710TIP3    H123621   3.396   4.412   2.416 -2.2928 -0.3635 -1.1270
  710TIP3    H223622   3.309   4.384   2.537 -0.0392 -0.2859  0.5654
  711TIP3   OH223623   1.815   4.347  12.255 -0.0932 -0.4471  0.3458
  711TIP3    H123624   1.719   4.353  12.252 -0.0092  0.7996 -0.7072
  711TIP3    H223625   1.836   4.271  12.201 -0.4604 -0.0882 -0.3224
  712TIP3   OH223626   6.229   4.660   2.050  0.5981 -0.5864 -0.1855
  712TIP3    H123627   6.143   4.626   2.074 -0.4663  1.6304 -0.6383
  712TIP3    H223628   6.269   4.591   1.998 -1.0955 -1.4821 -0.3462
  713TIP3   OH223629   0.411   5.636   3.194  0.4405  0.0461 -0.5220
  713TIP3    H123630   0.335   5.598   3.149 -1.2770  1.0458  1.3989
  713TIP3    H223631   0.422   5.722   3.152 -1.0859  0.9283  0.7672
  714TIP3   OH223632   0.411   3.749   5.744  0.2304  0.3256  0.6133
  714TIP3    H123633   0.398   3.771   5.652 -1.9819 -0.2163  0.7586
  714TIP3    H223634   0.492   3.794   5.768  2.4124 -1.6695 -2.2867
  715TIP3   OH223635   6.196   0.788   3.012 -0.8493 -0.3785  0.7411
  715TIP3    H123636   6.274   0.738   3.036 -2.2827 -3.3540 -0.2793
  715TIP3    H223637   6.230   0.863   2.964  1.5267  0.7239  3.8720
  716TIP3   OH223638   4.130   4.076  12.888  0.1374  0.4241  0.2627
  716TIP3    H123639   4.105   4.167  12.906  0.3642  0.8069 -1.2823
  716TIP3    H223640   4.177   4.049  12.967 -1.3554  1.0826  1.4496
  717TIP3   OH223641   4.135   4.894   2.435  0.2000 -0.9285  0.3555
  717TIP3    H123642   4.183   4.848   2.366 -1.1104 -0.1568 -1.1215
  717TIP3    H223643   4.099   4.823   2.490  2.1651 -1.5243  0.9396
  718TIP3   OH223644   5.104   3.656  16.530  0.1585 -0.1828 -0.2086
  718TIP3    H123645   5.070   3.573  16.498  0.2135 -0.0970 -0.4961
  718TIP3    H223646   5.026   3.706  16.556  0.0970 -0.1783 -0.3966
  719TIP3   OH223647   1.213   2.489   4.980 -0.5231 -0.3349 -0.3589
  719TIP3    H123648   1.255   2.550   4.919  0.0802 -1.1530 -0.7947
  719TIP3    H223649   1.168   2.427   4.923  2.4806 -2.9053 -0.2294
  720TIP3   OH223650   1.532   6.589   1.969  0.2239 -0.0585 -0.3799
  720TIP3    H123651   1.569   6.557   1.887 -1.0631 -0.8170 -0.6894
  720TIP3    H223652   1.489   6.513   2.007 -2.4477  1.1053 -0.8581
  721TIP3   OH223653   6.759   4.906   1.565 -0.1871 -0.2168 -0.0294
  721TIP3    H123654   6.781   4.837   1.628 -0.5772 -0.9591 -0.6871
  721TIP3    H223655   6.743   4.859   1.483 -0.9478  0.6101 -0.3713
  722TIP3   OH223656   0.897   1.671  16.962 -0.1416 -0.4515  0.7044
  722TIP3    H123657   0.948   1.597  16.928 -0.9499 -1.1634  0.9974
  722TIP3    H223658   0.848   1.703  16.886  0.3244 -0.1236  0.5443
  723TIP3   OH223659   4.785   0.202   2.598 -0.2451 -0.3666  0.0651
  723TIP3    H123660   4.788   0.293   2.568  0.2269 -0.3574  0.1260
  723TIP3    H223661   4.713   0.163   2.550  1.0210 -0.5934 -1.7625
  724TIP3   OH223662   2.235   0.798  13.494 -0.0755 -0.0450 -0.2321
  724TIP3    H123663   2.174   0.778  13.565  0.6365  0.4647  0.5401
  724TIP3    H223664   2.212   0.887  13.467  0.4663  0.2320  0.2110
  725TIP3   OH223665   3.473   3.927  17.075  0.5399 -0.1848 -1.1582
  725TIP3    H123666   3.411   3.968  17.135  0.3570  0.1994 -1.6082
  725TIP3    H223667   3.423   3.855  17.035  1.3794 -2.0881  0.9779
  726TIP3   OH223668   0.068   5.665  14.350  0.3520 -0.2418 -0.1810
  726TIP3    H123669  -0.009   5.607  14.349  0.5779 -0.5436 -0.9614
  726TIP3    H223670   0.040   5.742  14.300  0.1202  0.2433  0.6806
  727TIP3   OH223671   6.548   6.577  11.420 -0.9239 -0.5093 -0.3743
  727TIP3    H123672   6.579   6.487  11.430 -0.2176 -0.2601 -0.2343
  727TIP3    H223673   6.481   6.587  11.487 -0.9858 -0.9171 -0.3708
  728TIP3   OH223674   3.501   2.323   0.442  0.4808  0.6481 -0.2948
  728TIP3    H123675   3.461   2.353   0.360  0.6066 -2.2868 -1.5603
  728TIP3    H223676   3.427   2.309   0.500 -0.0333 -0.7355 -1.2142
  729TIP3   OH223677   2.844   0.670  15.867  0.9586  0.2207  0.3691
  729TIP3    H123678   2.809   0.735  15.927 -0.7703  0.4133 -0.8020
  729TIP3    H223679   2.774   0.654  15.804  2.0941 -1.2433 -0.5956
  730TIP3   OH223680   6.545   2.045  12.014  0.1128 -0.8417 -0.1233
  730TIP3    H123681   6.613   2.045  12.081 -0.9486 -3.1748  1.0887
  730TIP3    H223682   6.494   2.123  12.032  1.8198  0.4099 -0.4223
  731TIP3   OH223683   2.230   5.994   6.597  0.4612 -0.2286  0.8287
  731TIP3    H123684   2.156   6.047   6.569  0.2883  0.1192  1.8968
  731TIP3    H223685   2.192   5.925   6.651  0.5110 -2.3646 -1.6320
  732TIP3   OH223686   4.776   3.765   3.513  0.2166 -0.0389 -0.5430
  732TIP3    H123687   4.776   3.859   3.498  2.4341  0.0679 -0.3129
  732TIP3    H223688   4.836   3.753   3.587 -2.0127 -1.4452  1.1502
  733TIP3   OH223689   6.387   0.822   6.306  0.5199  0.1072 -0.2019
  733TIP3    H123690   6.394   0.916   6.323  1.4741  0.1966 -1.0149
  733TIP3    H223691   6.469   0.800   6.262  0.7633 -1.3130  0.9040
  734TIP3   OH223692   1.669   0.015   5.546  0.0951  0.3832  0.9068
  734TIP3    H123693   1.603  -0.034   5.594  1.9317 -1.9201  1.2888
  734TIP3    H223694   1.744   0.018   5.605  1.4063  0.0534 -0.6559
  735TIP3   OH223695   5.689   1.039   6.420  0.4131  0.2260 -0.2939
  735TIP3    H123696   5.716   1.018   6.330  1.2931 -0.0208  0.0199
  735TIP3    H223697   5.754   0.996   6.475 -0.6809 -0.4614  0.4976
  736TIP3   OH223698   2.860   4.510   3.474 -0.1984  0.5441 -0.4402
  736TIP3    H123699   2.927   4.547   3.417  0.7250 -2.0725 -1.2039
  736TIP3    H223700   2.854   4.418   3.448 -1.4894 -0.1824  2.0653
  737TIP3   OH223701   5.156   1.520   5.170 -0.7635  0.4742  0.4950
  737TIP3    H123702   5.158   1.492   5.262 -0.5490 -1.6653 -0.1177
  737TIP3    H223703   5.063   1.527   5.150 -1.1189 -3.8072 -0.3608
  738TIP3   OH223704   2.175   1.916  14.823  0.0848  0.1645  0.1918
  738TIP3    H123705   2.149   2.008  14.814 -1.4454 -0.3769 -1.5800
  738TIP3    H223706   2.200   1.889  14.735 -0.5021 -1.3816  0.4668
  739TIP3   OH223707   0.902   3.785   5.009 -0.0964  0.0021 -0.7002
  739TIP3    H123708   0.943   3.841   5.074 -0.0666  1.4662 -1.9025
  739TIP3    H223709   0.808   3.791   5.027 -0.0232 -0.4866 -0.1346
  740TIP3   OH223710   2.279   2.519   2.656  0.4166  0.0272 -0.0151
  740TIP3    H123711   2.341   2.538   2.727  0.9568 -1.5358 -0.0286
  740TIP3    H223712   2.325   2.455   2.601 -0.4824  0.2791 -1.0924
  741TIP3   OH223713   3.107   1.395   0.986 -0.5847 -0.2604 -0.1578
  741TIP3    H123714   3.117   1.432   1.074  1.0532  0.0753 -0.4507
  741TIP3    H223715   3.164   1.449   0.931 -2.1025 -0.0411 -1.5703
  742TIP3   OH223716   6.631   4.989   4.910  0.5842  0.4208 -0.9256
  742TIP3    H123717   6.680   5.072   4.911 -0.6504  1.1756 -1.0988
  742TIP3    H223718   6.568   4.998   4.982  1.9925 -1.3619  0.6229
  743TIP3   OH223719   4.406   0.278  15.363 -0.0398 -0.2241  0.0501
  743TIP3    H123720   4.421   0.323  15.446 -0.8446 -0.5062  0.3587
  743TIP3    H223721   4.367   0.194  15.389  2.8811 -1.8749 -0.3780
  744TIP3   OH223722   2.738   4.688  14.179 -0.4200 -0.6824  0.0169
  744TIP3    H123723   2.677   4.727  14.116 -0.1418 -0.3359 -0.0389
  744TIP3    H223724   2.818   4.740  14.170  0.0624 -1.4676 -0.2954
  745TIP3   OH223725   2.064   6.425  15.612  0.6388 -0.0643  0.2439
  745TIP3    H123726   2.031   6.353  15.558 -0.0049 -0.1000  0.6734
  745TIP3    H223727   2.101   6.383  15.689 -0.6893  0.1050  0.9924
  746TIP3   OH223728   3.779   3.044   0.546 -0.3959  0.2269 -0.0050
  746TIP3    H123729   3.709   3.099   0.581  0.7997  1.8809 -0.0855
  746TIP3    H223730   3.805   2.988   0.620  1.4384  3.0041  1.6444
  747TIP3   OH223731   2.279   5.983  17.085 -0.6826  0.1197 -0.4279
  747TIP3    H123732   2.269   5.920  17.013 -0.4732 -1.1759  0.6534
  747TIP3    H223733   2.202   6.040  17.077 -1.0033 -0.4119 -1.2707
  748TIP3   OH223734   3.913   6.657  17.192  0.7497 -0.8580  0.1298
  748TIP3    H123735   3.935   6.737  17.144  0.7624 -0.1363  1.2871
  748TIP3    H223736   3.818   6.652  17.190  0.7276 -0.5823  0.3991
  749TIP3   OH223737   4.050   5.354   3.825  0.3019 -0.9986 -0.7807
  749TIP3    H123738   3.963   5.383   3.851  0.1707 -0.4889 -1.7467
  749TIP3    H223739   4.107   5.428   3.845  0.4226 -1.1265 -0.6531
  750TIP3   OH223740   3.786   6.172   2.599  0.3201  0.1615 -0.3425
  750TIP3    H123741   3.747   6.096   2.556  0.6345  0.2234 -0.7461
  750TIP3    H223742   3.741   6.247   2.560 -0.8785  0.1517  0.9517
  751TIP3   OH223743   0.783   3.227  13.187 -0.4497  0.1633 -0.1638
  751TIP3    H123744   0.834   3.279  13.249  1.0004  0.7104 -1.7706
  751TIP3    H223745   0.721   3.288  13.149  0.3280  0.4221 -1.0416
  752TIP3   OH223746   3.349   4.086   4.174  0.1079  0.2281 -0.4116
  752TIP3    H123747   3.350   4.047   4.261  1.5389 -0.9659 -0.9051
  752TIP3    H223748   3.256   4.091   4.150 -0.2008 -2.5430 -0.1161
  753TIP3   OH223749   1.284   2.189  11.084  0.0304  0.2306  0.1665
  753TIP3    H123750   1.231   2.216  11.008 -1.1571  0.3998  1.0243
  753TIP3    H223751   1.220   2.153  11.145  1.0102 -0.1324  0.9963
  754TIP3   OH223752   3.415   2.090  10.960  0.2375  0.1597  0.1345
  754TIP3    H123753   3.443   2.122  10.874 -1.8684  1.2009 -0.2314
  754TIP3    H223754   3.471   2.014  10.977  3.2245  2.0585 -0.4550
  755TIP3   OH223755   2.924   0.274   1.976  0.0975 -0.5798 -0.5506
  755TIP3    H123756   2.845   0.266   2.028  0.5542  1.0546  0.4905
  755TIP3    H223757   2.994   0.238   2.031  0.2854 -0.7244 -0.8777
  756TIP3   OH223758   2.445   6.572   6.437  0.0911  0.3947  0.1093
  756TIP3    H123759   2.372   6.608   6.488 -0.3650 -0.5195  0.1206
  756TIP3    H223760   2.404   6.508   6.379  0.6811  1.0468 -1.0404
  757TIP3   OH223761   4.643   6.567  14.456  0.8618  0.3267 -0.3624
  757TIP3    H123762   4.591   6.492  14.427  0.5258  0.4792 -0.1561
  757TIP3    H223763   4.603   6.642  14.413  0.8152  0.4645 -0.0822
  758TIP3   OH223764   3.359   0.954   6.796 -0.1289 -0.5975  0.6774
  758TIP3    H123765   3.350   0.898   6.873  0.7950 -3.1884 -0.9605
  758TIP3    H223766   3.442   0.927   6.756  0.5761  2.2729 -0.0549
  759TIP3   OH223767   6.081   3.673  12.912  0.2646 -0.4096 -0.3702
  759TIP3    H123768   6.038   3.614  12.850  0.1818 -0.2501 -0.4667
  759TIP3    H223769   6.075   3.759  12.870 -1.6993  0.0840  0.8279
  760TIP3   OH223770   5.264   4.204  14.594  0.8467  0.2207  0.6588
  760TIP3    H123771   5.255   4.294  14.563  0.8639  0.5380  1.5441
  760TIP3    H223772   5.176   4.181  14.624  0.7371 -0.2269  0.0139
  761TIP3   OH223773   0.338   1.905   4.042 -1.0795  0.0283 -0.4185
  761TIP3    H123774   0.423   1.889   4.082 -1.4268  0.9407  0.7844
  761TIP3    H223775   0.291   1.822   4.051 -0.5458 -0.2816 -0.4743
  762TIP3   OH223776   1.572   2.777   4.161  0.0083  0.1321 -0.1471
  762TIP3    H123777   1.491   2.769   4.110  0.1246 -1.5663 -0.1057
  762TIP3    H223778   1.632   2.714   4.121 -0.0746 -1.6817  2.3728
  763TIP3   OH223779   5.927   0.373   1.797  0.2222 -0.1984  0.1177
  763TIP3    H123780   5.946   0.301   1.857  0.4283 -0.2697 -0.0282
  763TIP3    H223781   6.008   0.383   1.746 -0.0760 -0.3911 -0.4029
  764TIP3   OH223782   5.333   3.237  14.300  0.0333 -0.0546 -0.0361
  764TIP3    H123783   5.346   3.250  14.394  0.1508  0.1341 -0.0763
  764TIP3    H223784   5.422   3.238  14.264  0.0234 -0.6422 -0.0850
  765TIP3   OH223785   3.117   5.299   0.228 -0.1259 -0.6017  0.0191
  765TIP3    H123786   3.050   5.364   0.251 -0.2002 -1.1923  1.5364
  765TIP3    H223787   3.114   5.295   0.132 -3.5332 -1.9067  0.0431
  766TIP3   OH223788   5.285   2.035   5.567 -0.1759  0.4798  0.0688
  766TIP3    H123789   5.217   2.038   5.634  0.3713  0.5544  0.6402
  766TIP3    H223790   5.238   2.025   5.484 -0.8226 -0.8757  0.5682
  767TIP3   OH223791   1.710   2.539   1.917  0.7992 -0.0980  0.4414
  767TIP3    H123792   1.787   2.502   1.874  1.7591  2.5207 -0.2907
  767TIP3    H223793   1.637   2.483   1.889  1.9227 -0.5570 -1.7546
  768TIP3   OH223794   1.492   3.428  10.822 -0.0681 -0.0588 -0.0070
  768TIP3    H123795   1.438   3.395  10.895 -1.1759 -0.0076 -0.7895
  768TIP3    H223796   1.432   3.479  10.769  1.2511  1.8380  0.2444
  769TIP3   OH223797   6.193   3.761  14.874 -0.2456  0.1929 -0.2496
  769TIP3    H123798   6.236   3.844  14.896 -1.1754  0.7936 -0.6279
  769TIP3    H223799   6.253   3.693  14.904  0.0285  0.9995  1.0655
  770TIP3   OH223800   1.176   0.420   5.603 -0.0760  0.1893 -0.3752
  770TIP3    H123801   1.175   0.410   5.698 -1.3809  2.8598 -0.0342
  770TIP3    H223802   1.144   0.336   5.570 -0.5018 -0.4614  1.5600
  771TIP3   OH223803   2.902   6.504  17.025  0.5328 -0.0438 -0.0095
  771TIP3    H123804   2.959   6.531  17.097 -0.9649  0.5524  0.9937
  771TIP3    H223805   2.813   6.525  17.055 -0.0662  1.6136 -2.5764
  772TIP3   OH223806   0.021   4.946  14.394  0.2554  0.0393  0.2403
  772TIP3    H123807  -0.037   4.891  14.342 -1.0246 -1.1067  2.7283
  772TIP3    H223808   0.041   4.894  14.471  0.7213  2.2578  1.7051
  773TIP3   OH223809   2.774   5.290  12.203 -0.1049 -0.4577 -0.4292
  773TIP3    H123810   2.832   5.366  12.214 -2.6331  2.0990 -2.8962
  773TIP3    H223811   2.700   5.308  12.260 -1.5108 -0.1012 -2.2748
  774TIP3   OH223812   1.929   2.262  16.941  0.0188 -0.1156  0.4069
  774TIP3    H123813   1.894   2.227  16.859  0.9626  2.3071 -1.1386
  774TIP3    H223814   1.879   2.342  16.956  1.0607  0.3964  1.2342
  775TIP3   OH223815   4.931   5.008   5.402 -0.6978 -0.1227  0.0264
  775TIP3    H123816   4.909   5.061   5.478 -0.3162 -0.2980  0.2661
  775TIP3    H223817   4.856   4.951   5.390 -0.9971  0.2890 -0.0693
  776TIP3   OH223818   2.278   1.269  14.514 -0.3904 -0.6700  0.1146
  776TIP3    H123819   2.352   1.212  14.534  1.7993  1.8864 -0.0967
  776TIP3    H223820   2.244   1.296  14.600  0.0335 -0.5331  0.2398
  777TIP3   OH223821   0.171   0.105  14.502  0.3753  0.2075  0.4807
  777TIP3    H123822   0.139   0.165  14.570  0.5712  1.5851 -0.5886
  777TIP3    H223823   0.266   0.115  14.504  0.4546 -0.5947  0.7527
  778TIP3   OH223824   1.665   4.438  11.577  0.2437 -0.1675  0.0072
  778TIP3    H123825   1.601   4.509  11.583  0.3670  0.2125 -2.3433
  778TIP3    H223826   1.615   4.364  11.544  1.2624  0.7107 -3.9394
  779TIP3   OH223827   3.095   4.738   3.917  0.5777  0.0279  0.2527
  779TIP3    H123828   3.174   4.684   3.921  0.6908  0.2023  0.4409
  779TIP3    H223829   3.036   4.692   3.858  0.6156 -0.3717  0.5282
  780TIP3   OH223830   3.320   5.285  11.961 -0.4831  0.0579  0.3800
  780TIP3    H123831   3.386   5.251  11.900  0.1192  1.8711 -0.0614
  780TIP3    H223832   3.297   5.371  11.925 -1.0230  0.6484  2.0519
  781TIP3   OH223833   3.626   1.433  15.245 -0.1325  0.2579 -0.4587
  781TIP3    H123834   3.594   1.519  15.270 -0.2653  0.5614 -1.5910
  781TIP3    H223835   3.634   1.438  15.149  0.1997 -0.8653 -0.5000
  782TIP3   OH223836   4.700   2.513  11.575  0.0577 -0.0122 -0.1986
  782TIP3    H123837   4.619   2.515  11.525  0.5260 -0.3804 -0.9946
  782TIP3    H223838   4.729   2.422  11.571  1.2570  0.3719 -1.1795
  783TIP3   OH223839   0.771   1.241  13.710  0.2285 -0.1611  0.2041
  783TIP3    H123840   0.778   1.324  13.663  0.4725 -0.7059 -0.7396
  783TIP3    H223841   0.792   1.263  13.801  0.7762  0.7152 -0.1259
  784TIP3   OH223842   1.406   1.504  13.681 -0.1217 -0.3145  0.0365
  784TIP3    H123843   1.442   1.457  13.606 -0.1850 -1.7556  0.8708
  784TIP3    H223844   1.460   1.583  13.688  0.4081 -0.5603 -1.0094
  785TIP3   OH223845   3.861   4.605   4.217 -0.2185  0.0086 -0.3318
  785TIP3    H123846   3.933   4.659   4.183 -0.0627 -0.6664 -1.0973
  785TIP3    H223847   3.799   4.668   4.253  0.0629  0.6841 -1.0086
  786TIP3   OH223848   1.203   5.070   4.650 -0.2779  0.1265 -0.6862
  786TIP3    H123849   1.268   5.064   4.580 -0.3491 -1.8028 -0.6260
  786TIP3    H223850   1.254   5.064   4.731 -0.3717  0.5113 -0.5943
  787TIP3   OH223851   5.464   3.633  11.709  0.4739  0.2391  0.1170
  787TIP3    H123852   5.412   3.632  11.628  1.2194  0.3744 -0.3762
  787TIP3    H223853   5.405   3.669  11.775  0.1846  1.1586 -0.6078
  788TIP3   OH223854   0.764   4.655   4.776 -0.0150  0.3842 -0.3960
  788TIP3    H123855   0.840   4.654   4.835 -2.0820 -0.6543  2.4817
  788TIP3    H223856   0.740   4.563   4.768 -0.1493  0.5715 -2.4940
  789TIP3   OH223857   3.917   6.269   5.674 -0.1808 -0.0010  0.3497
  789TIP3    H123858   3.983   6.326   5.713 -1.2305  1.0827  0.5965
  789TIP3    H223859   3.923   6.188   5.724  1.4193 -0.1943 -0.0902
  790TIP3   OH223860   0.001   2.401  12.309 -0.1317 -0.3239 -0.6690
  790TIP3    H123861   0.022   2.372  12.220  0.1978  1.0259 -1.0541
  790TIP3    H223862  -0.092   2.422  12.306 -0.0782 -0.0985 -0.7470
  791TIP3   OH223863   4.671   5.588  16.774 -0.4102 -0.4386  0.2476
  791TIP3    H123864   4.703   5.643  16.703  0.9882 -1.2183  0.2394
  791TIP3    H223865   4.618   5.646  16.828 -0.8577  0.3424 -1.0068
  792TIP3   OH223866   1.301   4.462  14.544 -0.6322  0.6273 -0.3568
  792TIP3    H123867   1.390   4.426  14.549 -0.6625  0.6094  0.1793
  792TIP3    H223868   1.270   4.436  14.458 -0.2547  0.3019 -0.4015
  793TIP3   OH223869   0.849   1.747   2.290  0.3494 -0.4086 -0.6002
  793TIP3    H123870   0.901   1.673   2.260 -0.6129 -0.4952 -2.1858
  793TIP3    H223871   0.769   1.708   2.324  0.7692 -0.2033  0.6744
  794TIP3   OH223872   3.301   6.031  12.042  0.1098  0.1061 -0.3355
  794TIP3    H123873   3.242   6.078  11.983  1.8834  0.4842 -1.9242
  794TIP3    H223874   3.255   6.029  12.126 -1.8710  0.8831 -1.3330
  795TIP3   OH223875   5.978   2.587   4.843  0.4120  0.2070 -0.1414
  795TIP3    H123876   5.993   2.617   4.753 -0.4364  0.7114 -0.1312
  795TIP3    H223877   5.994   2.493   4.840 -0.2401  0.1094 -0.9786
  796TIP3   OH223878   0.084   0.002   4.800 -0.7605 -0.1218  0.6904
  796TIP3    H123879   0.083   0.098   4.796 -1.6601 -0.1620 -0.4172
  796TIP3    H223880   0.156  -0.023   4.743  0.1323 -0.0937  1.7765
  797TIP3   OH223881   1.369   5.093   4.420  0.5404 -0.5473 -0.1554
  797TIP3    H123882   1.454   5.117   4.456 -0.7655  1.5044  1.8287
  797TIP3    H223883   1.370   4.998   4.417  1.8028 -0.7293  2.7553
  798TIP3   OH223884   2.020   2.287   3.980  0.0822  0.0149  0.1142
  798TIP3    H123885   1.981   2.329   4.056  1.4047 -1.9500  1.9902
  798TIP3    H223886   2.113   2.278   4.002  1.1322  1.8457 -2.9266
  799TIP3   OH223887   5.910   4.397   0.401 -0.1039  0.1461 -0.2402
  799TIP3    H123888   5.867   4.351   0.473 -0.5219  0.2395 -0.4293
  799TIP3    H223889   5.998   4.416   0.434 -0.2560  0.0885  0.2034
  800TIP3   OH223890   5.661   0.979   2.358 -0.3877 -0.3530  0.0111
  800TIP3    H123891   5.634   1.058   2.312 -1.4321 -0.0732  1.0534
  800TIP3    H223892   5.631   0.907   2.302 -1.1682 -0.0184 -0.0094
  801TIP3   OH223893   0.778   1.056  10.801 -1.0260  0.0411  0.7753
  801TIP3    H123894   0.794   1.132  10.856  0.1484  0.0794  0.4188
  801TIP3    H223895   0.775   1.091  10.712  0.7732 -0.4251  0.4747
  802TIP3   OH223896   5.900   2.296   3.047  0.5190 -0.1295 -0.5024
  802TIP3    H123897   5.981   2.322   3.004 -0.6641 -0.3651 -3.0872
  802TIP3    H223898   5.898   2.201   3.038 -0.0028 -0.1315 -0.3909
  803TIP3   OH223899   1.736   5.620   3.501  0.2266  0.1291  0.3084
  803TIP3    H123900   1.806   5.598   3.440 -0.5128  2.0015 -1.3378
  803TIP3    H223901   1.712   5.536   3.541  0.9699 -1.1534 -1.7393
  804TIP3   OH223902   0.833   1.343  10.842  0.0430 -0.4549 -0.1282
  804TIP3    H123903   0.853   1.391  10.761  1.0143 -0.4928  0.0770
  804TIP3    H223904   0.887   1.385  10.909 -1.4984  0.2141  0.7245
  805TIP3   OH223905   5.097   2.274  15.768 -0.1193 -0.0789 -0.5745
  805TIP3    H123906   5.104   2.194  15.820  0.5494 -0.2043 -0.8430
  805TIP3    H223907   5.021   2.258  15.711 -0.1413 -0.4240 -0.4534
  806TIP3   OH223908   2.957   5.722  16.094 -0.1147  0.3539  0.9222
  806TIP3    H123909   3.041   5.722  16.049 -1.2856 -0.4119 -1.4116
  806TIP3    H223910   2.912   5.801  16.062 -0.9565 -0.1833  0.7410
  807TIP3   OH223911   3.009   1.420   2.845 -0.1627 -0.0978  0.1485
  807TIP3    H123912   3.015   1.327   2.866  0.0839 -0.3221 -0.8325
  807TIP3    H223913   3.039   1.465   2.924  1.1744 -0.8995  0.1331
  808TIP3   OH223914   3.371   5.767  12.888  0.0991  0.4991 -0.4837
  808TIP3    H123915   3.283   5.731  12.882 -0.4473  0.5588  4.0194
  808TIP3    H223916   3.427   5.691  12.904  0.0772  0.8313  1.3868
  809TIP3   OH223917   3.181   1.320  10.519  0.6388  0.2022  0.0184
  809TIP3    H123918   3.236   1.309  10.442 -1.5682 -2.1678 -1.3693
  809TIP3    H223919   3.091   1.305  10.488 -0.4812  0.4229  2.7997
  810TIP3   OH223920   3.067   2.535   1.162 -0.0061 -0.2026 -0.1976
  810TIP3    H123921   3.021   2.615   1.189  0.3441 -0.2724  0.6375
  810TIP3    H223922   3.073   2.483   1.242  0.1636 -0.8734 -0.6419
  811TIP3   OH223923   3.788   1.605  12.970  0.0730 -0.1785  0.7685
  811TIP3    H123924   3.772   1.697  12.988 -1.3508 -0.1624 -0.3676
  811TIP3    H223925   3.729   1.584  12.897  1.8685 -1.4623 -0.3962
  812TIP3   OH223926   4.171   5.072   6.250 -0.3988 -0.1994 -0.2486
  812TIP3    H123927   4.245   5.059   6.310  0.8464 -0.0354 -1.6958
  812TIP3    H223928   4.103   5.014   6.284  0.7188 -1.0969  0.5733
  813TIP3   OH223929   5.976   5.157   4.853  0.2166 -0.4403 -0.0642
  813TIP3    H123930   6.021   5.140   4.936  0.6714  1.9265  0.2415
  813TIP3    H223931   6.026   5.108   4.788  0.4943 -1.4755  0.9034
  814TIP3   OH223932   2.150   2.218  11.939  0.5826 -0.1749  0.2256
  814TIP3    H123933   2.102   2.135  11.928 -0.7547  0.6441 -0.4701
  814TIP3    H223934   2.120   2.252  12.024 -0.1627  0.3628 -0.2331
  815TIP3   OH223935   1.083   5.253  14.895 -0.5004  0.2890  0.9739
  815TIP3    H123936   1.164   5.300  14.913  1.1414 -2.2711  0.8245
  815TIP3    H223937   1.067   5.268  14.802  0.3899  0.0211  0.7648
  816TIP3   OH223938   1.851   0.742   6.579  0.0049  0.5971 -0.2931
  816TIP3    H123939   1.853   0.673   6.646  2.6490  0.6545 -0.2015
  816TIP3    H223940   1.819   0.820   6.626 -0.6631  0.0386  0.2104
  817TIP3   OH223941   2.227   0.397   3.704  0.0015  0.4551 -0.1664
  817TIP3    H123942   2.255   0.313   3.741  0.0227 -0.4017 -2.0289
  817TIP3    H223943   2.300   0.423   3.646 -0.3607  1.3519 -0.2370
  818TIP3   OH223944   6.522   0.396   6.503 -0.4823  0.5496 -0.1553
  818TIP3    H123945   6.435   0.386   6.542  0.3291 -1.3372  1.3614
  818TIP3    H223946   6.508   0.384   6.409 -1.7471 -0.6046  0.1567
  819TIP3   OH223947   0.261   0.932  16.635  0.2413  0.4289  0.0484
  819TIP3    H123948   0.340   0.880  16.651  0.0388  0.0499 -0.1657
  819TIP3    H223949   0.191   0.884  16.679  0.3748  1.5852  1.6082
  820TIP3   OH223950   2.820   3.558  16.149 -0.0361 -0.3180 -0.3942
  820TIP3    H123951   2.790   3.649  16.148  0.7756 -0.0478 -1.9503
  820TIP3    H223952   2.895   3.559  16.208 -0.2737 -0.0691 -0.0890
  821TIP3   OH223953   4.020   2.712   1.907  0.0407  0.3586 -0.1119
  821TIP3    H123954   3.999   2.619   1.916  0.7056  0.3886  2.5231
  821TIP3    H223955   3.938   2.757   1.928 -0.0049  0.3715 -0.3194
  822TIP3   OH223956   6.585   5.271  14.751  0.3365 -0.6411  0.1402
  822TIP3    H123957   6.666   5.224  14.772 -0.0060 -2.1524 -1.6415
  822TIP3    H223958   6.576   5.260  14.656 -1.0631  0.9991  0.0464
  823TIP3   OH223959   4.460   5.252  15.383  0.4014  0.0665  0.3215
  823TIP3    H123960   4.530   5.225  15.443  2.4108  1.1829 -1.3705
  823TIP3    H223961   4.403   5.308  15.437  1.3222 -0.1177  1.5396
  824TIP3   OH223962   5.948   3.493  12.701 -0.6908 -0.4061  0.1201
  824TIP3    H123963   5.986   3.458  12.621  0.0139 -1.2494  0.7994
  824TIP3    H223964   5.885   3.426  12.729  0.4366 -1.0411  1.2583
  825TIP3   OH223965   1.666   2.453  13.679  0.1314  0.8261  0.3358
  825TIP3    H123966   1.587   2.434  13.629  0.9618 -1.7413 -0.1404
  825TIP3    H223967   1.641   2.440  13.770 -0.4349  1.9284  0.3643
  826TIP3   OH223968   1.451   6.232  11.578  0.6533 -0.1236 -0.1968
  826TIP3    H123969   1.382   6.189  11.628  0.7681  0.0215  0.0872
  826TIP3    H223970   1.507   6.159  11.549 -0.0739 -0.3230 -1.1443
  827TIP3   OH223971   2.986   4.113  12.562 -0.0409  0.1977  0.3671
  827TIP3    H123972   2.975   4.145  12.652 -0.6999  0.3036  0.2548
  827TIP3    H223973   2.912   4.053  12.549 -0.5754  1.0185 -0.4697
  828TIP3   OH223974   6.780   4.913  16.521  0.7364 -0.3974 -0.2148
  828TIP3    H123975   6.739   4.974  16.582 -0.2536 -1.4860  0.2372
  828TIP3    H223976   6.723   4.837  16.521  1.4321 -0.9503 -1.5054
  829TIP3   OH223977   4.902   0.329   4.229  0.0908  0.1393  1.0006
  829TIP3    H123978   4.962   0.363   4.295  2.0178  1.0695 -1.1103
  829TIP3    H223979   4.905   0.393   4.158  0.5720 -2.3050 -1.3397
  830TIP3   OH223980   0.938   2.247   0.076  0.4141  0.1875 -0.7284
  830TIP3    H123981   0.937   2.154   0.101  2.8318  0.3163  0.1288
  830TIP3    H223982   0.951   2.246  -0.019  1.5992 -0.3775 -0.5758
  831TIP3   OH223983   4.518   6.717   3.847  0.1319  0.3187  0.2501
  831TIP3    H123984   4.459   6.745   3.778  0.6229  0.5198 -0.0927
  831TIP3    H223985   4.508   6.783   3.916  0.9690  1.1210 -0.3765
  832TIP3   OH223986   4.827   4.400  13.638 -0.6650 -0.0219  0.5312
  832TIP3    H123987   4.774   4.479  13.635 -1.0228 -0.2823 -1.6207
  832TIP3    H223988   4.902   4.423  13.693 -1.1005  1.5766  0.5058
  833TIP3   OH223989   5.424   5.115   1.569 -0.1350  0.0429 -0.4098
  833TIP3    H123990   5.473   5.033   1.577  1.9405  1.2506 -0.1920
  833TIP3    H223991   5.436   5.141   1.478 -2.6454 -0.9482 -1.0981
  834TIP3   OH223992   1.138   0.459   3.547  0.5022 -0.2353  0.5532
  834TIP3    H123993   1.138   0.374   3.591 -1.7888  0.8107  2.9158
  834TIP3    H223994   1.047   0.470   3.518  1.1444  0.7393 -1.1820
  835TIP3   OH223995   6.458   5.524   4.042  0.1251  0.3605 -0.1283
  835TIP3    H123996   6.415   5.546   3.960  0.5735 -2.4189 -1.2389
  835TIP3    H223997   6.386   5.511   4.104 -0.3181  0.9176 -0.5215
  836TIP3   OH223998   4.632   3.613   1.203 -0.2436 -1.0834 -0.0297
  836TIP3    H123999   4.612   3.520   1.218 -2.8113 -1.2454 -3.3789
  836TIP3    H224000   4.550   3.650   1.170  0.2934  2.8147  2.3703
  837TIP3   OH224001   5.849   3.652  16.960 -0.5468  0.0160 -0.5610
  837TIP3    H124002   5.787   3.603  16.907 -0.0414 -0.5988 -0.5904
  837TIP3    H224003   5.796   3.720  17.003 -1.6182 -1.7402  1.0277
  838TIP3   OH224004   0.850   1.877  13.391 -0.3968  0.0461 -0.4318
  838TIP3    H124005   0.868   1.842  13.304 -1.7245 -1.7002 -0.0629
  838TIP3    H224006   0.906   1.954  13.398  0.7975 -0.5834 -2.2768
  839TIP3   OH224007   5.172   5.174   4.619 -0.5901 -0.1862  0.1781
  839TIP3    H124008   5.135   5.124   4.546  0.7507 -1.2040  0.1606
  839TIP3    H224009   5.264   5.148   4.622  0.3676  2.7399 -0.2010
  840TIP3   OH224010   4.841   0.825  12.119  0.3169  0.0754 -0.1353
  840TIP3    H124011   4.853   0.919  12.135  0.8202 -0.1702  1.0293
  840TIP3    H224012   4.753   0.807  12.151 -0.1657  0.3230 -1.2710
  841TIP3   OH224013   0.119   6.300  16.947 -0.4078 -0.2908  0.2249
  841TIP3    H124014   0.120   6.355  17.025 -0.9839 -0.2562  0.2147
  841TIP3    H224015   0.046   6.240  16.961  0.2019 -1.0429  0.2248
  842TIP3   OH224016   3.861   6.546  14.827 -0.4025  0.4722  0.1739
  842TIP3    H124017   3.831   6.632  14.858  0.4548  1.3091 -1.2560
  842TIP3    H224018   3.842   6.487  14.901  2.4419  2.5048  2.7629
  843TIP3   OH224019   2.177   3.975  12.494 -0.1757 -0.3304  0.0002
  843TIP3    H124020   2.166   3.946  12.404  1.8089 -0.0763 -0.3753
  843TIP3    H224021   2.104   4.034  12.510 -1.2691 -1.3742 -0.9997
  844TIP3   OH224022   3.921   2.639  11.157 -0.0997 -0.3050  0.2915
  844TIP3    H124023   3.830   2.664  11.141  0.2876  0.9397 -0.1432
  844TIP3    H224024   3.931   2.555  11.112 -0.5656  0.4267 -1.2543
  845TIP3   OH224025   0.729   5.633  13.602 -0.0758 -0.6430  0.2915
  845TIP3    H124026   0.645   5.588  13.612 -0.0206 -0.7421  0.3110
  845TIP3    H224027   0.786   5.592  13.667  0.2131 -1.1251 -0.2555
  846TIP3   OH224028   4.737   0.430   2.348 -0.4022 -0.1645 -0.2252
  846TIP3    H124029   4.794   0.478   2.287  0.1370  0.9211  1.0797
  846TIP3    H224030   4.742   0.339   2.318  0.5636  0.1958 -1.2545
  847TIP3   OH224031   3.974   1.439  14.282 -0.1728 -0.0595  0.8023
  847TIP3    H124032   4.024   1.371  14.235  1.3914  0.8203  1.0979
  847TIP3    H224033   3.941   1.496  14.213  0.6202  0.2449  0.6637
  848TIP3   OH224034   1.141   4.123   1.074  0.2648  0.6202  0.1642
  848TIP3    H124035   1.087   4.045   1.061  0.6350 -0.1260  2.6509
  848TIP3    H224036   1.152   4.130   1.169  1.9253  2.5670 -0.0872
  849TIP3   OH224037   6.158   6.130  13.915 -0.3585 -0.6050  0.1140
  849TIP3    H124038   6.092   6.173  13.969  0.6411  1.7079 -0.3616
  849TIP3    H224039   6.122   6.134  13.826 -0.5381 -1.3576  0.1497
  850TIP3   OH224040   2.888   6.113   5.478 -0.0296 -0.0705  0.2246
  850TIP3    H124041   2.873   6.032   5.430  1.3228  0.0815 -0.5257
  850TIP3    H224042   2.957   6.157   5.428 -2.7113  3.0017 -1.1583
  851TIP3   OH224043   4.414   4.707   1.474  0.7865 -0.4864 -0.3220
  851TIP3    H124044   4.495   4.739   1.434  0.1489  2.0504  0.1996
  851TIP3    H224045   4.360   4.678   1.400  0.8368  1.1698 -1.0604
  852TIP3   OH224046   3.378   5.312  11.574  0.0247 -0.3619 -0.1629
  852TIP3    H124047   3.325   5.361  11.511 -0.4840 -0.3471  0.2694
  852TIP3    H224048   3.467   5.344  11.560 -0.1906  0.1574 -0.3824
  853TIP3   OH224049   6.434   0.869   0.197  0.6142  0.4958  0.5476
  853TIP3    H124050   6.442   0.956   0.159 -2.2161  0.3397 -0.5876
  853TIP3    H224051   6.393   0.883   0.282  1.9671  0.3877  1.2453
  854TIP3   OH224052   1.256   2.122  14.796 -0.5433 -0.1034 -0.3033
  854TIP3    H124053   1.264   2.145  14.703 -1.3741 -0.1073 -0.3798
  854TIP3    H224054   1.192   2.183  14.831  0.8871  0.9092  0.6507
  855TIP3   OH224055   3.406   3.342  14.568 -0.0478  0.6660 -0.4091
  855TIP3    H124056   3.429   3.275  14.632 -1.5439  0.5472  0.0590
  855TIP3    H224057   3.387   3.292  14.488 -1.3751  0.4628 -0.0007
  856TIP3   OH224058   4.344   2.540   2.626  0.2872 -0.0885  0.3506
  856TIP3    H124059   4.391   2.459   2.647  1.0515 -0.4907 -2.4589
  856TIP3    H224060   4.252   2.519   2.642  0.2393 -2.2739 -2.0604
  857TIP3   OH224061   2.268   2.889  10.663 -0.4472  0.3063  0.3772
  857TIP3    H124062   2.296   2.957  10.601 -0.6780 -0.3185 -0.4170
  857TIP3    H224063   2.345   2.873  10.717  0.4289 -0.6102 -1.0791
  858TIP3   OH224064   2.755   2.619   0.434 -0.3561  0.2283 -0.3356
  858TIP3    H124065   2.832   2.584   0.479  1.0810  1.3975 -1.8152
  858TIP3    H224066   2.711   2.672   0.500 -0.4236 -1.1390  0.7809
  859TIP3   OH224067   3.027   6.506  11.809  0.0170  0.2984  0.7579
  859TIP3    H124068   2.986   6.564  11.873 -2.7943 -1.9861  1.2518
  859TIP3    H224069   3.058   6.431  11.860 -0.0759 -0.4520 -0.2415
  860TIP3   OH224070   4.909   1.955  11.568  0.2050 -0.0374  0.3500
  860TIP3    H124071   4.964   1.979  11.642  1.4679  1.8845 -1.1116
  860TIP3    H224072   4.827   1.925  11.607  1.3259 -0.4464  2.5181
  861TIP3   OH224073   4.596   2.301   6.825  0.0685  0.1870 -0.0904
  861TIP3    H124074   4.668   2.323   6.766  0.8451  0.2870  0.8662
  861TIP3    H224075   4.607   2.208   6.844  0.2802  0.3242  0.4869
  862TIP3   OH224076   1.665   6.436  14.139 -0.3997 -0.3381 -0.8593
  862TIP3    H124077   1.632   6.351  14.170  1.7412 -0.5155  1.1525
  862TIP3    H224078   1.592   6.496  14.154 -0.9903 -1.3077  0.3652
  863TIP3   OH224079   5.409   1.558  15.521 -0.1163  0.1982 -0.0622
  863TIP3    H124080   5.490   1.529  15.563  0.7410  1.0887 -1.0311
  863TIP3    H224081   5.385   1.486  15.462  0.4232  0.2666 -0.3675
  864TIP3   OH224082   3.990   1.263  12.972 -0.0622 -0.1335 -0.5430
  864TIP3    H124083   4.085   1.246  12.973 -0.3228 -1.8298 -1.6626
  864TIP3    H224084   3.956   1.210  13.043 -0.1414  0.8762  0.1936
  865TIP3   OH224085   1.410   4.938   0.180 -0.8549 -0.0671  0.3778
  865TIP3    H124086   1.486   4.898   0.222  0.2643  1.7860  0.2099
  865TIP3    H224087   1.446   5.007   0.125 -2.5037 -0.7537 -1.6666
  866TIP3   OH224088   1.928   3.914  14.794  0.4688  0.7473  0.3426
  866TIP3    H124089   1.883   3.976  14.852  1.6971  0.5700  1.5391
  866TIP3    H224090   1.984   3.864  14.853  3.9010  2.3902 -1.2377
  867TIP3   OH224091   6.609   0.662   6.125 -0.0164  0.4395 -0.1602
  867TIP3    H124092   6.694   0.620   6.139  0.4972  1.5465  0.2554
  867TIP3    H224093   6.553   0.594   6.089 -0.0106 -1.3664  2.8642
  868TIP3   OH224094   0.980   3.096   3.401  0.5356  0.1979 -0.1534
  868TIP3    H124095   1.002   3.003   3.402 -0.7478 -0.1252 -0.5896
  868TIP3    H224096   0.954   3.115   3.491 -0.2686 -0.1437 -0.3058
  869TIP3   OH224097   5.410   3.473   2.080 -0.2061  0.0991  0.7187
  869TIP3    H124098   5.336   3.413   2.093  0.5472 -0.5774  2.2253
  869TIP3    H224099   5.475   3.420   2.033 -0.2510  0.3334  0.3936
  870TIP3   OH224100   3.142   6.773   1.676 -0.0838 -0.0707  0.5103
  870TIP3    H124101   3.118   6.865   1.665  0.4593  0.0812  0.5547
  870TIP3    H224102   3.088   6.726   1.613  0.4042  0.3990 -0.2661
  871TIP3   OH224103   2.709   2.301  14.425 -0.2787  0.2116 -0.2011
  871TIP3    H124104   2.716   2.210  14.453  1.8870 -0.2018 -1.8275
  871TIP3    H224105   2.705   2.351  14.507  1.1710 -1.1845  0.7776
  872TIP3   OH224106   0.959   2.443  14.779 -0.7445  0.2495  0.2978
  872TIP3    H124107   0.957   2.534  14.746 -0.6951 -0.0416 -0.5447
  872TIP3    H224108   0.905   2.445  14.858  1.2685  1.5539  1.7517
  873TIP3   OH224109   2.822   2.393   4.849 -0.2548  0.2119  0.4359
  873TIP3    H124110   2.737   2.419   4.813 -0.3867 -0.5727  0.1728
  873TIP3    H224111   2.850   2.469   4.900 -0.3627  1.1018 -0.7836
  874TIP3   OH224112   2.526   4.762  15.988 -0.1631  0.4927  0.0597
  874TIP3    H124113   2.586   4.775  16.061 -0.2025 -0.6993  0.3222
  874TIP3    H224114   2.456   4.707  16.023 -0.9214  1.0652 -0.5050
  875TIP3   OH224115   4.683   3.821   5.350 -0.1998 -0.0338  0.2860
  875TIP3    H124116   4.749   3.759   5.322  0.7194  1.0993 -0.1551
  875TIP3    H224117   4.619   3.821   5.278 -1.0398 -1.5931  1.0012
  876TIP3   OH224118   4.843   0.369   0.903  0.4587 -0.2409  0.1225
  876TIP3    H124119   4.929   0.407   0.923 -0.5245  0.5399  3.5698
  876TIP3    H224120   4.798   0.367   0.987 -2.5569 -1.6342 -1.3729
  877TIP3   OH224121   2.075   0.049  10.560 -0.2547  0.4146 -0.0480
  877TIP3    H124122   2.027  -0.032  10.575  0.6700  0.0826  1.3140
  877TIP3    H224123   2.153   0.022  10.512 -0.4574  0.6649 -0.5255
  878TIP3   OH224124   1.182   4.137   4.510  0.6672 -0.2102  0.2266
  878TIP3    H124125   1.131   4.123   4.430  0.5684 -1.6721  0.5223
  878TIP3    H224126   1.127   4.102   4.580  0.5897  1.3919  1.0193
  879TIP3   OH224127   0.316   0.360   6.362  0.3660  0.0130  0.3977
  879TIP3    H124128   0.333   0.267   6.345 -2.2766 -0.5803  0.4504
  879TIP3    H224129   0.369   0.407   6.298  1.0452 -1.5808 -0.2631
  880TIP3   OH224130   4.781   3.037   0.721 -0.2835 -0.3591  0.7517
  880TIP3    H124131   4.860   3.089   0.713  0.1811 -0.8439  1.9672
  880TIP3    H224132   4.786   2.974   0.649  0.3848 -0.3146  0.7543
  881TIP3   OH224133   2.839   5.157   1.847 -0.2349 -0.1671  0.0056
  881TIP3    H124134   2.781   5.213   1.899 -0.0431  0.3932 -0.3821
  881TIP3    H224135   2.889   5.217   1.793  0.7623 -0.6372  0.3755
  882TIP3   OH224136   2.193   2.273  17.055  0.2700  0.3998 -0.4333
  882TIP3    H124137   2.105   2.270  17.016  0.2469  0.0451 -0.3552
  882TIP3    H224138   2.205   2.364  17.080 -0.3151  0.3405  0.0891
  883TIP3   OH224139   6.707   6.700   1.639 -0.1410 -0.5088 -0.0980
  883TIP3    H124140   6.697   6.614   1.597 -2.4847  0.4455 -1.7335
  883TIP3    H224141   6.676   6.686   1.729 -1.4211 -1.2252 -0.6095
  884TIP3   OH224142   1.124   3.565   2.498  0.0606  0.2436  0.4406
  884TIP3    H124143   1.094   3.545   2.587 -0.1130 -0.0139  0.3255
  884TIP3    H224144   1.163   3.483   2.467  0.6905  0.5105  0.5069
  885TIP3   OH224145   5.110   3.355  10.811 -0.2914  0.7602  0.3486
  885TIP3    H124146   5.148   3.306  10.738 -1.9847  0.1516 -0.1856
  885TIP3    H224147   5.017   3.332  10.809 -0.2295 -0.2548  3.4682
  886TIP3   OH224148   2.607   1.412   1.393  0.2588 -0.0271 -0.0641
  886TIP3    H124149   2.547   1.470   1.440 -0.2711 -1.1924  0.7298
  886TIP3    H224150   2.552   1.370   1.327  1.0300  1.7400 -1.9495
  887TIP3   OH224151   6.275   0.430   6.617 -0.6410 -0.0134 -0.3251
  887TIP3    H124152   6.230   0.467   6.541 -2.4365 -1.7406 -0.1621
  887TIP3    H224153   6.213   0.439   6.689  0.2140 -0.2908  0.4645
  888TIP3   OH224154   4.435   0.588  14.661 -0.1462  0.5560 -0.1116
  888TIP3    H124155   4.423   0.652  14.591  0.5837  1.0365  0.1928
  888TIP3    H224156   4.419   0.504  14.619 -0.4370  0.8877 -0.6829
  889TIP3   OH224157   0.318   4.329   5.460  0.0963 -0.5783  0.1875
  889TIP3    H124158   0.231   4.330   5.422 -0.2250  0.0114  0.9174
  889TIP3    H224159   0.332   4.418   5.493  1.5079 -0.2821 -1.0784
  890TIP3   OH224160   0.673   0.460  15.994 -0.4368 -0.2097  0.2194
  890TIP3    H124161   0.682   0.477  16.088 -1.2460  2.1494 -0.0606
  890TIP3    H224162   0.596   0.511  15.968 -1.2097 -2.0826 -1.4586
  891TIP3   OH224163   1.382   1.911   4.306  0.0504 -0.6879  0.7671
  891TIP3    H124164   1.465   1.863   4.307  0.3775 -0.1748 -0.2207
  891TIP3    H224165   1.361   1.925   4.398  1.0355 -0.8680  1.0292
  892TIP3   OH224166   6.040   2.685  14.701 -0.3754  0.5300  0.7409
  892TIP3    H124167   6.042   2.603  14.749 -0.6515 -0.6012 -1.0941
  892TIP3    H224168   6.000   2.748  14.762 -1.1735 -0.9390  1.7900
  893TIP3   OH224169   3.868   3.892   3.850 -0.4413 -0.1368  0.6810
  893TIP3    H124170   3.859   3.980   3.812  1.3586 -0.0691  0.3093
  893TIP3    H224171   3.833   3.900   3.938 -0.9551  0.7706  0.4054
  894TIP3   OH224172   1.757   1.408  12.029  0.2082  0.4068 -0.2242
  894TIP3    H124173   1.686   1.463  11.995  0.5539  1.1538  0.2253
  894TIP3    H224174   1.721   1.320  12.030 -0.3687  0.6228 -0.9603
  895TIP3   OH224175   1.205   4.488   3.751  0.0092  0.0755  0.3065
  895TIP3    H124176   1.115   4.459   3.769  0.4608 -2.5967 -1.0832
  895TIP3    H224177   1.196   4.578   3.722 -2.1678  0.0365  0.6801
  896TIP3   OH224178   6.032   1.044  12.462  0.4093 -0.2500  0.3910
  896TIP3    H124179   6.051   0.989  12.538  1.0843 -0.1475  0.2998
  896TIP3    H224180   6.052   1.133  12.491 -2.5104  0.2348  1.1727
  897TIP3   OH224181   6.392   2.441   5.847 -0.5949 -0.0879 -0.5338
  897TIP3    H124182   6.331   2.370   5.863 -0.1101 -0.2481  0.7371
  897TIP3    H224183   6.445   2.446   5.927 -0.9137  2.0010 -0.3934
  898TIP3   OH224184   0.380   4.913  14.645 -0.0097 -0.2496 -0.0005
  898TIP3    H124185   0.427   4.997  14.652  0.7429 -0.7144  0.8176
  898TIP3    H224186   0.347   4.911  14.555  2.5688 -0.3968 -1.0308
  899TIP3   OH224187   4.965   1.913  16.749  0.1764  0.2436  0.4987
  899TIP3    H124188   4.984   1.819  16.746  1.1304  0.4448 -0.5164
  899TIP3    H224189   4.914   1.930  16.669 -0.1316  0.5693  0.7598
  900TIP3   OH224190   1.945   2.596  14.077 -0.5842 -0.5889 -0.3065
  900TIP3    H124191   1.909   2.527  14.021 -1.4237  0.4175 -1.0449
  900TIP3    H224192   1.870   2.630  14.126 -0.4211  0.6210 -0.8611
  901TIP3   OH224193   2.270   3.449   2.641  0.6590  0.1270 -0.0465
  901TIP3    H124194   2.187   3.480   2.606  1.4504  1.0290 -1.2085
  901TIP3    H224195   2.269   3.474   2.733 -0.6051 -0.4466  0.1138
  902TIP3   OH224196   1.203   0.246  11.511  0.7701  0.2572 -0.2706
  902TIP3    H124197   1.109   0.257  11.494 -0.3232 -0.0142  4.1859
  902TIP3    H224198   1.233   0.333  11.535  1.1174  0.0094  0.2208
  903TIP3   OH224199   0.136   1.651  12.699 -0.1323 -0.2785  0.1967
  903TIP3    H124200   0.113   1.738  12.733 -0.1008 -0.0849 -0.2653
  903TIP3    H224201   0.231   1.647  12.708 -0.1665 -0.3806  0.4928
  904TIP3   OH224202   2.024   5.240  11.147  0.4740  0.0462  0.0710
  904TIP3    H124203   1.967   5.240  11.071  1.2189 -1.7835 -0.5438
  904TIP3    H224204   1.979   5.185  11.212  0.8192 -0.1603  0.1424
  905TIP3   OH224205   2.105   1.591  14.899 -0.0042 -0.2655 -0.3548
  905TIP3    H124206   2.081   1.538  14.975  1.3089 -0.9104 -0.3659
  905TIP3    H224207   2.190   1.628  14.921  0.3773 -0.4212 -1.4738
  906TIP3   OH224208   0.699   2.376  11.158  0.3207  0.9370  0.1817
  906TIP3    H124209   0.773   2.368  11.098  1.3415  1.7011  1.3007
  906TIP3    H224210   0.732   2.428  11.231 -1.1547  0.7967  0.9951
  907TIP3   OH224211   0.645   5.814  12.299 -0.2856  0.3734 -0.0737
  907TIP3    H124212   0.660   5.889  12.241 -2.7467  0.6457 -0.4767
  907TIP3    H224213   0.640   5.739  12.240  0.7189  0.0735  0.1929
  908TIP3   OH224214   6.199   1.743  10.727  0.3176  0.0974 -0.0662
  908TIP3    H124215   6.243   1.781  10.651  1.7536 -0.5512  0.4136
  908TIP3    H224216   6.125   1.694  10.690  1.4295 -0.8316 -1.1350
  909TIP3   OH224217   0.121   4.304   0.479 -0.0226 -0.0541 -0.0654
  909TIP3    H124218   0.129   4.398   0.493 -2.0349  0.1270  0.0985
  909TIP3    H224219   0.109   4.267   0.566  1.7892 -0.6395 -0.0094
  910TIP3   OH224220   1.875   0.510  10.743 -0.6100  0.0827 -0.5041
  910TIP3    H124221   1.813   0.443  10.770 -0.2654 -1.5192 -3.3208
  910TIP3    H224222   1.889   0.494  10.649  2.3952  1.7221 -0.4632
  911TIP3   OH224223   1.718   4.222  15.430 -0.3970  0.1606  0.6632
  911TIP3    H124224   1.761   4.212  15.345  0.5121  1.0933  0.9860
  911TIP3    H224225   1.634   4.179  15.420 -0.1341 -0.0939 -0.5856
  912TIP3   OH224226   6.303   1.846   3.110 -0.1075  0.0168 -0.2743
  912TIP3    H124227   6.264   1.767   3.071 -0.0633 -0.7347  1.1234
  912TIP3    H224228   6.395   1.843   3.083 -0.5633  0.7664 -2.0023
  913TIP3   OH224229   5.528   5.435   4.305  0.1412 -0.3134 -0.1732
  913TIP3    H124230   5.495   5.349   4.334  1.8397 -0.2005  2.4130
  913TIP3    H224231   5.450   5.490   4.302 -0.5523 -1.1175  1.5453
  914TIP3   OH224232   4.473   6.508  16.917  0.0078 -0.5057  0.4598
  914TIP3    H124233   4.416   6.514  16.994 -1.5647 -0.4878 -0.6388
  914TIP3    H224234   4.517   6.593  16.914 -0.1619 -0.3855  1.1523
  915TIP3   OH224235   2.530   3.329   2.600  0.2966  0.1652 -0.1753
  915TIP3    H124236   2.512   3.251   2.548  2.0663 -0.3067 -0.1460
  915TIP3    H224237   2.444   3.358   2.631 -0.3285 -2.2516  0.5002
  916TIP3   OH224238   1.826   2.633  12.361 -0.0740 -0.1463 -0.6105
  916TIP3    H124239   1.823   2.708  12.421  0.1574 -0.1360 -0.6140
  916TIP3    H224240   1.747   2.643  12.307 -0.6114 -0.5024  0.1068
  917TIP3   OH224241   5.694   3.867  14.851 -0.0511 -0.9066  0.6884
  917TIP3    H124242   5.785   3.897  14.854 -0.5057  0.4736  1.4392
  917TIP3    H224243   5.700   3.773  14.867  1.2955 -0.9781 -0.0567
  918TIP3   OH224244   3.385   5.327  11.215  0.0310  0.6191  0.3559
  918TIP3    H124245   3.373   5.399  11.276  0.6966  0.4037  0.7454
  918TIP3    H224246   3.443   5.362  11.148  0.0542  0.5597  0.3454
  919TIP3   OH224247   6.054   1.978   0.620  0.0685  0.2094  0.3035
  919TIP3    H124248   6.000   2.002   0.695 -1.6845  2.0177 -1.4277
  919TIP3    H224249   6.026   1.889   0.598 -0.9097  0.4539  0.5265
  920TIP3   OH224250   4.289   5.190   1.834  0.0846  0.3098  0.1879
  920TIP3    H124251   4.225   5.235   1.779  0.2939 -0.4026 -0.6544
  920TIP3    H224252   4.322   5.258   1.893 -1.3653  0.7140  0.5733
  921TIP3   OH224253   4.801   0.886   1.568 -0.2016 -0.1464  0.2686
  921TIP3    H124254   4.867   0.860   1.632 -0.4671 -1.2320  0.1235
  921TIP3    H224255   4.760   0.803   1.541  0.3423  0.2142 -1.7959
  922TIP3   OH224256   1.552   6.085   0.828  0.5902  0.7409  0.0838
  922TIP3    H124257   1.551   6.018   0.896  0.2424  1.7111  1.0716
  922TIP3    H224258   1.488   6.150   0.857 -0.2253  0.7580 -1.6342
  923TIP3   OH224259   3.004   1.653  14.094 -0.2979 -0.3468  0.0502
  923TIP3    H124260   3.027   1.728  14.149  1.8387 -0.0818 -1.0970
  923TIP3    H224261   2.909   1.647  14.101 -0.8431  3.7234 -1.3612
  924TIP3   OH224262   2.123   4.036  13.520  0.0602  0.0050  0.1524
  924TIP3    H124263   2.117   4.016  13.426 -2.1380 -2.4476  0.7343
  924TIP3    H224264   2.124   4.132  13.523  0.2381  0.1623 -2.3633
  925TIP3   OH224265   4.301   5.041   6.632 -0.0619  0.4087  0.0808
  925TIP3    H124266   4.258   4.958   6.612 -0.2424  0.6848 -0.6948
  925TIP3    H224267   4.394   5.020   6.639  0.0476  0.3348 -1.3122
  926TIP3   OH224268   2.180   6.536  15.212 -0.5423 -0.3676  0.0926
  926TIP3    H124269   2.148   6.525  15.123  0.7795  0.1085 -0.4690
  926TIP3    H224270   2.135   6.614  15.244 -0.3862 -0.0352 -0.4788
  927TIP3   OH224271   5.400   2.727  12.055 -0.3539 -0.3698  0.4316
  927TIP3    H124272   5.436   2.668  12.122 -0.2683  0.0762  0.7821
  927TIP3    H224273   5.337   2.672  12.007  1.0088 -1.2512 -0.4163
  928TIP3   OH224274   1.236   4.006  13.805  0.3480  0.0576  0.1855
  928TIP3    H124275   1.229   4.023  13.899  1.5101  0.3630  0.2359
  928TIP3    H224276   1.196   3.920  13.793 -1.0084  0.5883  0.7336
  929TIP3   OH224277   3.520   2.082   5.776 -0.4888 -0.5559 -0.1317
  929TIP3    H124278   3.454   2.059   5.710 -0.2489 -0.6060 -0.3589
  929TIP3    H224279   3.471   2.126   5.845 -1.0054 -1.9882  0.4445
  930TIP3   OH224280   2.567   3.923  13.654  0.0444  0.0009 -0.0762
  930TIP3    H124281   2.495   3.866  13.626 -2.6067  2.3975  1.3454
  930TIP3    H224282   2.568   3.916  13.749 -0.0243  1.8285  0.1004
  931TIP3   OH224283   4.582   1.626   2.166 -0.1550 -0.2125  0.3327
  931TIP3    H124284   4.623   1.658   2.246 -2.7665  0.9042  1.3245
  931TIP3    H224285   4.620   1.538   2.154  2.3661  0.6680  1.1520
  932TIP3   OH224286   4.893   0.559  12.367 -0.4100 -0.4337  0.4221
  932TIP3    H124287   4.980   0.596  12.357 -0.3705  0.0475  2.2416
  932TIP3    H224288   4.844   0.592  12.292  1.2455 -1.6495 -1.2738
  933TIP3   OH224289   2.596   5.479  14.411 -0.0839  0.3080 -0.2994
  933TIP3    H124290   2.589   5.384  14.421 -1.0650  0.3519 -0.4493
  933TIP3    H224291   2.664   5.492  14.345 -1.2740 -0.3749 -1.6944
  934TIP3   OH224292   3.930   3.940   0.746  0.0710 -0.3624 -0.0082
  934TIP3    H124293   3.930   3.893   0.830 -2.8613 -2.4650 -1.0020
  934TIP3    H224294   3.953   3.873   0.682 -0.2865  0.5527 -1.1223
  935TIP3   OH224295   3.322   3.650   3.140  0.1572  0.1873 -0.0365
  935TIP3    H124296   3.397   3.709   3.142 -0.5875  1.1829 -0.7010
  935TIP3    H224297   3.246   3.707   3.151 -0.5202 -0.7963  0.5870
  936TIP3   OH224298   2.654   4.272   0.485  0.3351 -0.0971 -0.0351
  936TIP3    H124299   2.666   4.182   0.455  0.2775 -0.5010  1.0829
  936TIP3    H224300   2.628   4.263   0.577  2.1119  1.1101  0.6457
  937TIP3   OH224301   5.745   6.324  12.306  0.3101 -0.8876 -0.2575
  937TIP3    H124302   5.788   6.371  12.235  0.4111 -0.0017  0.3701
  937TIP3    H224303   5.717   6.242  12.267 -0.1394 -0.1848 -1.4728
  938TIP3   OH224304   4.694   0.127   3.523 -0.6768 -0.3214 -0.4413
  938TIP3    H124305   4.768   0.185   3.541 -0.0728 -0.1810 -2.9824
  938TIP3    H224306   4.620   0.185   3.507 -0.4647 -0.3082 -1.3934
  939TIP3   OH224307   0.557   2.842  12.236 -0.7533  0.3271  0.3073
  939TIP3    H124308   0.482   2.812  12.288 -1.0312  1.5333  0.6348
  939TIP3    H224309   0.527   2.924  12.196  0.5182  1.0298  0.7556
  940TIP3   OH224310   6.311   1.484  11.948  0.6982  0.2981  0.5223
  940TIP3    H124311   6.283   1.472  11.857  0.3415 -0.8112  0.7579
  940TIP3    H224312   6.264   1.561  11.977  1.0836  0.8746 -0.3357
  941TIP3   OH224313   6.086   3.534   5.561  0.4633  0.5255  0.7816
  941TIP3    H124314   6.123   3.447   5.577  1.9401  1.2394  1.5257
  941TIP3    H224315   6.161   3.587   5.531 -1.1356  0.5986 -3.8067
  942TIP3   OH224316   2.583   5.865  16.080  0.0831 -0.1581  0.0815
  942TIP3    H124317   2.629   5.891  15.999 -0.5293  1.3560  0.1977
  942TIP3    H224318   2.518   5.801  16.051 -0.1581  0.4026 -0.6409
  943TIP3   OH224319   1.008   0.894  11.244 -0.6156 -0.3832 -0.3275
  943TIP3    H124320   1.033   0.917  11.154 -2.9015 -0.2503 -0.9859
  943TIP3    H224321   1.086   0.916  11.296 -0.1427  2.1798 -1.8854
  944TIP3   OH224322   2.045   2.424  15.784  0.4344  0.1209 -0.2469
  944TIP3    H124323   1.956   2.436  15.819  0.6672  0.7803  0.1427
  944TIP3    H224324   2.038   2.448  15.692  0.3219  0.7151 -0.0860
  945TIP3   OH224325   6.713   1.131  14.820  0.4723  0.1327  0.2014
  945TIP3    H124326   6.685   1.117  14.730 -1.3585  0.2036  0.7274
  945TIP3    H224327   6.659   1.203  14.852  0.9129 -0.0561  1.4344
  946TIP3   OH224328   2.928   3.848   5.903  0.4908 -0.5160  0.0685
  946TIP3    H124329   2.907   3.831   5.995  0.2009  0.5216  0.2032
  946TIP3    H224330   2.848   3.886   5.867  0.9429  0.0402 -0.3501
  947TIP3   OH224331   5.605   3.430  16.595 -0.1249 -0.2557  0.5736
  947TIP3    H124332   5.661   3.358  16.566 -1.4088 -0.8660 -0.4578
  947TIP3    H224333   5.647   3.509  16.560 -0.5780 -0.8136 -1.3114
  948TIP3   OH224334   5.194   6.088  13.177 -0.1410  0.4568 -0.3609
  948TIP3    H124335   5.212   6.060  13.267  1.0350 -0.2095 -0.7666
  948TIP3    H224336   5.202   6.183  13.179  1.6609  0.3494 -0.0699
  949TIP3   OH224337   3.548   6.744  16.065  0.3102 -0.2576  0.3642
  949TIP3    H124338   3.548   6.674  16.130  0.2081  0.2207  0.8829
  949TIP3    H224339   3.491   6.712  15.996 -0.6510 -0.2155  1.1196
  950TIP3   OH224340   2.047   3.103   2.337  0.3783  0.2764 -0.2997
  950TIP3    H124341   2.117   3.161   2.366 -0.2214  0.4534  0.8386
  950TIP3    H224342   1.973   3.162   2.319  0.2743  0.0171 -0.7271
  951TIP3   OH224343   1.651   2.175  17.150 -0.5519 -0.5837  0.5056
  951TIP3    H124344   1.608   2.177  17.064  0.7422 -0.8743 -0.1814
  951TIP3    H224345   1.742   2.196  17.131 -0.0722 -1.4700  1.6986
  952TIP3   OH224346   1.326   3.528  16.380 -0.4542 -0.6368 -0.6979
  952TIP3    H124347   1.300   3.573  16.461 -1.0580 -1.6004 -0.3350
  952TIP3    H224348   1.421   3.543  16.374 -0.6853  1.0272 -0.8372
  953TIP3   OH224349   1.908   2.396  15.444  0.4542 -0.2959  0.3112
  953TIP3    H124350   1.934   2.487  15.440  0.0011 -0.0663  1.8159
  953TIP3    H224351   1.918   2.363  15.355 -0.4207  1.5062 -0.4960
  954TIP3   OH224352   5.150   0.139  17.129 -0.0946 -0.1635  0.0000
  954TIP3    H124353   5.099   0.159  17.051 -1.1350 -0.0345  0.7058
  954TIP3    H224354   5.092   0.159  17.202  0.1752 -2.0984  0.7946
  955TIP3   OH224355   3.401   4.114  13.993 -0.2538  0.0547 -0.4498
  955TIP3    H124356   3.450   4.185  13.950 -1.4287  0.0870 -1.8062
  955TIP3    H224357   3.344   4.159  14.055 -0.2026  0.2118 -0.5162
  956TIP3   OH224358   5.452   2.892  16.774 -0.5594  0.1274 -0.0810
  956TIP3    H124359   5.468   2.921  16.864 -1.9205  1.5187 -0.2419
  956TIP3    H224360   5.526   2.926  16.724  1.4569 -2.6253  0.8051
  957TIP3   OH224361   2.508   6.015  14.737  0.2445 -0.2891 -0.0953
  957TIP3    H124362   2.546   6.096  14.770  0.7875 -0.5335 -0.1154
  957TIP3    H224363   2.447   5.988  14.805  0.8972 -0.4561  0.4331
  958TIP3   OH224364   5.306   4.742   5.574  0.5063 -0.6333  0.1569
  958TIP3    H124365   5.239   4.733   5.642  0.5231 -2.2403  0.0004
  958TIP3    H224366   5.369   4.805   5.610  0.9835 -2.1051  2.0529
  959TIP3   OH224367   5.355   1.836  12.638  0.2202  0.2451 -0.1214
  959TIP3    H124368   5.382   1.927  12.625  1.2375  0.3388  2.1969
  959TIP3    H224369   5.430   1.784  12.610 -0.2816  0.0678 -1.2365
  960TIP3   OH224370   6.587   1.730   4.396 -0.3479  0.0420  0.1330
  960TIP3    H124371   6.531   1.655   4.416 -0.5370  0.4778  1.2952
  960TIP3    H224372   6.556   1.760   4.311 -0.1808 -1.2691 -0.4228
  961TIP3   OH224373   4.484   5.735   3.562  0.6350  0.2910 -0.1210
  961TIP3    H124374   4.568   5.753   3.604  0.0233  0.9993  0.8490
  961TIP3    H224375   4.506   5.680   3.487  1.8923 -0.1112  0.5041
  962TIP3   OH224376   6.712   3.349  15.911  0.2573  0.3013  0.1081
  962TIP3    H124377   6.682   3.319  15.997 -1.1251  0.7358 -0.1886
  962TIP3    H224378   6.753   3.434  15.928  1.5716 -0.4053  0.5571
  963TIP3   OH224379   5.969   2.939  13.529 -0.3164  0.0098 -0.3349
  963TIP3    H124380   6.030   2.941  13.454 -0.8076  2.6811 -0.7793
  963TIP3    H224381   5.882   2.944  13.489 -0.6042  0.9527  0.3700
  964TIP3   OH224382   5.781   3.002  14.714 -0.2283  0.2645  0.2747
  964TIP3    H124383   5.801   2.935  14.649 -0.3870  0.5431 -0.0642
  964TIP3    H224384   5.787   3.085  14.666  2.7974  0.7833  1.2697
  965TIP3   OH224385   4.752   0.560   1.481 -0.8479  0.6436 -0.0399
  965TIP3    H124386   4.801   0.479   1.497  0.0135  1.2414  0.3656
  965TIP3    H224387   4.702   0.541   1.401  2.3813  1.0380 -2.3806
  966TIP3   OH224388   3.725   1.285   3.166  0.2283  0.2212  0.0405
  966TIP3    H124389   3.757   1.294   3.076  0.8915  1.8257  0.3969
  966TIP3    H224390   3.766   1.205   3.198  0.5827  0.0361 -0.8383
  967TIP3   OH224391   0.627   4.347  14.224  0.2976 -0.5868  0.1073
  967TIP3    H124392   0.577   4.347  14.306 -0.0240 -0.7440 -0.0841
  967TIP3    H224393   0.683   4.424  14.230 -0.7884  0.2586 -0.1596
  968TIP3   OH224394   2.729   1.416  15.138 -0.5411 -0.1710 -0.0855
  968TIP3    H124395   2.754   1.477  15.208 -0.5867  1.3995 -1.3862
  968TIP3    H224396   2.810   1.402  15.089 -0.7668 -0.3187 -0.4164
  969TIP3   OH224397   0.004   0.901   1.963 -0.8538  0.6986  0.5412
  969TIP3    H124398   0.062   0.830   1.991 -1.9624 -0.9276 -1.0266
  969TIP3    H224399   0.014   0.968   2.030  0.0750 -1.0388  2.2434
  970TIP3   OH224400   5.845   0.289  15.507  0.8491  0.0832 -1.2796
  970TIP3    H124401   5.773   0.349  15.489 -1.1919 -1.0775  2.0876
  970TIP3    H224402   5.831   0.215  15.448  0.9684  1.0669 -2.5802
  971TIP3   OH224403   5.376   2.388  12.103  0.2002  0.5774 -0.4008
  971TIP3    H124404   5.389   2.357  12.192 -0.2707 -2.0426 -1.1539
  971TIP3    H224405   5.465   2.403  12.069  0.6464 -1.8398 -0.5268
  972TIP3   OH224406   1.371   6.731   5.739 -0.3673 -0.0247  0.4353
  972TIP3    H124407   1.402   6.640   5.741  1.4380  0.5128 -0.5775
  972TIP3    H224408   1.359   6.754   5.831  1.0838 -0.7069  0.8264
  973TIP3   OH224409   0.301   3.408   6.018 -0.3202  0.3067  0.1908
  973TIP3    H124410   0.349   3.490   6.030  0.3004 -0.0065 -0.1179
  973TIP3    H224411   0.258   3.393   6.102  1.7076 -0.4233  1.1710
  974TIP3   OH224412   0.139   2.102   4.912  0.4658  0.4734  0.4789
  974TIP3    H124413   0.196   2.031   4.943  1.0858  0.8423  0.1946
  974TIP3    H224414   0.104   2.070   4.829  3.6443  1.9216 -1.5866
  975TIP3   OH224415   5.758   0.491  15.939 -0.7796  0.8022 -0.6811
  975TIP3    H124416   5.744   0.539  15.858 -3.2152 -0.6253 -1.1844
  975TIP3    H224417   5.711   0.541  16.006 -0.2853  1.0118 -0.4828
  976TIP3   OH224418   6.140   0.073   6.397 -0.0037 -0.3352  0.2520
  976TIP3    H124419   6.194  -0.006   6.394  0.4943 -0.0304  0.8032
  976TIP3    H224420   6.055   0.043   6.428  0.2664 -0.6242  0.7357
  977TIP3   OH224421   4.359   1.229   5.963 -0.2552 -0.2092  0.5324
  977TIP3    H124422   4.448   1.229   5.999 -0.0256 -1.8002  0.0550
  977TIP3    H224423   4.342   1.321   5.942  1.1254  0.1807  0.9696
  978TIP3   OH224424   1.694   6.037  16.169  0.3107 -0.2981  0.3517
  978TIP3    H124425   1.670   6.129  16.151  3.1558  0.7017  1.1816
  978TIP3    H224426   1.627   5.986  16.123 -0.5269  2.1667 -1.3908
  979TIP3   OH224427   6.181   4.896   2.164 -0.4090  0.0554  0.2064
  979TIP3    H124428   6.131   4.914   2.084 -0.2449 -1.1784 -0.1888
  979TIP3    H224429   6.204   4.804   2.158  3.0747  0.8217 -0.2778
  980TIP3   OH224430   1.385   0.515  13.177  0.3179 -0.1595  0.0299
  980TIP3    H124431   1.387   0.608  13.156 -1.0101  0.4188  2.1600
  980TIP3    H224432   1.461   0.479  13.132 -0.0267  1.6249 -2.1587
  981TIP3   OH224433   1.572   6.703   0.026 -0.6677 -0.0674  0.0865
  981TIP3    H124434   1.609   6.700   0.114  1.0806  0.2871 -0.5832
  981TIP3    H224435   1.558   6.611   0.002 -1.4142 -0.1507  0.8193
  982TIP3   OH224436   1.493   3.680   6.033 -0.0965 -0.1271  0.2101
  982TIP3    H124437   1.497   3.589   6.006  2.1031 -0.7927  2.3236
  982TIP3    H224438   1.413   3.687   6.084 -0.3107 -0.8861 -0.0144
  983TIP3   OH224439   2.563   3.832   2.696  0.0637  0.1545 -0.4998
  983TIP3    H124440   2.516   3.895   2.640 -0.5015 -0.6175 -0.9128
  983TIP3    H224441   2.632   3.797   2.640  1.5858  1.7368  0.2899
  984TIP3   OH224442   6.405   5.779  15.977  0.3082 -0.4331 -0.1748
  984TIP3    H124443   6.317   5.753  16.002  0.6279  0.5589  2.3508
  984TIP3    H224444   6.462   5.713  16.016  0.7350 -1.2027 -1.9891
  985TIP3   OH224445   5.027   5.099  12.337  0.1587  0.0233  0.0460
  985TIP3    H124446   5.120   5.086  12.360  0.3431  0.3817 -0.4900
  985TIP3    H224447   5.016   5.052  12.255 -0.4470 -1.0483  0.7107
  986TIP3   OH224448   0.565   3.488  13.645  0.3793  0.3113  0.3146
  986TIP3    H124449   0.531   3.411  13.690  1.5104  0.2261  1.0595
  986TIP3    H224450   0.659   3.487  13.663  0.1114  3.2653  2.5840
  987TIP3   OH224451   5.389   2.320   6.611 -0.0410 -0.4982 -0.5284
  987TIP3    H124452   5.341   2.302   6.530 -0.2654  0.2623 -0.5735
  987TIP3    H224453   5.452   2.249   6.619 -0.0032 -0.5635 -1.3865
  988TIP3   OH224454   3.599   5.191  12.856  0.0752  0.5655  0.3448
  988TIP3    H124455   3.522   5.242  12.881 -2.3039 -2.0187 -1.1811
  988TIP3    H224456   3.598   5.190  12.760 -0.0097 -2.2043  0.2854
  989TIP3   OH224457   2.698   4.686  14.686  0.0534  0.2502 -0.2780
  989TIP3    H124458   2.785   4.719  14.710  0.2339 -0.9145  0.7078
  989TIP3    H224459   2.667   4.749  14.620  1.7874  0.4749 -0.9355
  990TIP3   OH224460   3.163   1.304   4.191 -0.4008  0.1566 -0.0684
  990TIP3    H124461   3.258   1.296   4.178 -0.5531  0.3186 -1.3971
  990TIP3    H224462   3.154   1.323   4.285  0.8518 -0.2305  0.1563
  991TIP3   OH224463   1.863   2.425  11.574 -0.2881 -0.0313  0.3126
  991TIP3    H124464   1.905   2.433  11.488 -0.0086 -0.8208  0.3659
  991TIP3    H224465   1.935   2.434  11.636 -0.4718  0.4051  0.4692
  992TIP3   OH224466   2.773   3.759  12.273  0.0139 -0.1792 -0.0220
  992TIP3    H124467   2.695   3.755  12.328  1.2094 -0.1283  1.7647
  992TIP3    H224468   2.833   3.696  12.313  1.2886  0.5895 -0.6778
  993TIP3   OH224469   4.016   0.725  12.887 -0.4843 -0.1306  0.4899
  993TIP3    H124470   3.994   0.814  12.914  0.1119 -0.5160  2.4101
  993TIP3    H224471   4.110   0.717  12.904 -0.2245 -0.6616 -1.0969
  994TIP3   OH224472   1.698   4.096  13.393 -0.7288 -0.0067 -0.2586
  994TIP3    H124473   1.745   4.118  13.473 -3.5946 -0.9314  1.8358
  994TIP3    H224474   1.699   4.000  13.390 -0.7393  0.0136 -1.2827
  995TIP3   OH224475   3.634   1.784  13.956  0.2602 -0.4001  0.7148
  995TIP3    H124476   3.562   1.813  13.900 -0.1214 -0.8152  0.9889
  995TIP3    H224477   3.592   1.758  14.038  0.7050 -0.8484  0.8021
  996TIP3   OH224478   3.144   1.277   5.984  0.0991 -0.2375 -0.4565
  996TIP3    H124479   3.147   1.214   5.912 -0.2832  0.4467 -1.0841
  996TIP3    H224480   3.085   1.345   5.954  1.2289  0.9096 -0.1900
  997TIP3   OH224481   3.838   3.556  11.696 -0.3086 -0.3593  0.1599
  997TIP3    H124482   3.835   3.519  11.785 -0.0789 -1.1198 -0.1405
  997TIP3    H224483   3.920   3.522  11.659  0.5690  1.4786  0.3026
  998TIP3   OH224484   4.638   0.697   3.565  0.4925  0.1338 -0.2891
  998TIP3    H124485   4.550   0.665   3.546  0.3003 -0.1371  0.9256
  998TIP3    H224486   4.696   0.642   3.512 -0.0245 -0.1659 -0.5513
  999TIP3   OH224487   0.104   6.091  15.234 -0.5003 -0.1920 -0.2133
  999TIP3    H124488   0.185   6.081  15.185 -0.9286 -1.2331 -0.7480
  999TIP3    H224489   0.092   6.185  15.244 -0.0808  0.0180 -1.5648
 1000TIP3   OH224490   5.580   6.069   5.363  0.5485  0.4474 -0.4982
 1000TIP3    H124491   5.507   6.116   5.323 -0.0428 -0.6802 -0.7776
 1000TIP3    H224492   5.607   6.124   5.437  0.2282  1.4752 -1.1287
 1001TIP3   OH224493   4.808   3.235  11.839 -0.3381 -0.1332  0.6040
 1001TIP3    H124494   4.750   3.295  11.793 -0.4661 -0.5264  0.2402
 1001TIP3    H224495   4.877   3.290  11.876 -0.7307  0.2917  0.7040
 1002TIP3   OH224496   0.641   5.723   4.020  0.2112 -0.3969 -0.7030
 1002TIP3    H124497   0.585   5.694   3.947  1.5222 -2.4772 -0.9564
 1002TIP3    H224498   0.681   5.643   4.053  1.4228  0.7830  0.8497
 1003TIP3   OH224499   0.449   3.368   3.732 -0.2985 -0.4150  0.3041
 1003TIP3    H124500   0.507   3.299   3.764 -0.0519 -0.4808 -0.2818
 1003TIP3    H224501   0.507   3.432   3.690 -0.6305 -0.4304 -0.1939
 1004TIP3   OH224502   6.365   1.173  15.917 -0.6236  0.2193  0.0397
 1004TIP3    H124503   6.415   1.194  15.838 -1.1134  1.7479  0.1111
 1004TIP3    H224504   6.426   1.188  15.989 -0.7317  0.6035  0.0498
 1005TIP3   OH224505   3.566   2.920   5.830  0.3160 -0.2494  0.0036
 1005TIP3    H124506   3.545   3.013   5.840  2.1151  0.1130  0.8489
 1005TIP3    H224507   3.628   2.917   5.757 -0.9599 -1.0218 -1.0923
 1006TIP3   OH224508   5.118   6.152  12.146 -0.0074 -0.6880  0.6098
 1006TIP3    H124509   5.113   6.134  12.240  0.2363 -0.1378  0.7303
 1006TIP3    H224510   5.054   6.221  12.131  1.0033  0.2839  0.6404
 1007TIP3   OH224511   3.041   1.638   4.745  0.8332  0.4234  0.5622
 1007TIP3    H124512   3.060   1.649   4.839  0.8926  1.4756  0.4353
 1007TIP3    H224513   3.021   1.727   4.714  3.9710  0.6618 -1.1357
 1008TIP3   OH224514   2.484   6.409   1.686 -0.6124 -0.3859 -0.0862
 1008TIP3    H124515   2.486   6.478   1.752  0.3795 -1.0947  0.6751
 1008TIP3    H224516   2.392   6.390   1.673 -0.8312 -0.1360  1.0079
 1009TIP3   OH224517   1.312   2.413  17.056 -0.1343 -0.0606 -0.6503
 1009TIP3    H124518   1.294   2.400  17.149 -0.7150 -0.1741 -0.7742
 1009TIP3    H224519   1.336   2.505  17.049 -1.4307  0.3022 -0.5816
 1010TIP3   OH224520   6.185   0.181   4.964  0.4160 -0.2964  0.3310
 1010TIP3    H124521   6.153   0.228   4.887  3.4566  1.1063 -0.2292
 1010TIP3    H224522   6.113   0.124   4.989 -0.7424 -0.8363 -3.5693
 1011TIP3   OH224523   6.610   2.016  11.359 -0.0459  0.5040 -0.2026
 1011TIP3    H124524   6.607   2.096  11.306  0.6002 -0.2543 -1.4164
 1011TIP3    H224525   6.554   1.954  11.312 -0.5766  0.2348  0.7530
 1012TIP3   OH224526   4.436   0.235   4.840 -0.3644  0.0137 -0.6152
 1012TIP3    H124527   4.399   0.229   4.928  1.3764  0.1455  0.1758
 1012TIP3    H224528   4.402   0.159   4.794  0.5467 -1.4223  0.9444
 1013TIP3   OH224529   6.187   1.953  16.222 -0.0980 -0.0676 -0.6839
 1013TIP3    H124530   6.281   1.941  16.214 -0.0503 -0.9907  0.7858
 1013TIP3    H224531   6.176   2.034  16.271 -0.0080 -0.4900  0.0584
 1014TIP3   OH224532   0.628   1.459   3.439 -0.0730 -0.7817  0.4949
 1014TIP3    H124533   0.674   1.483   3.358 -0.5473  0.5127  0.5868
 1014TIP3    H224534   0.538   1.445   3.413 -0.1509 -0.7447  0.7409
 1015TIP3   OH224535   0.465   6.458   3.164 -0.4443  0.4067 -0.3567
 1015TIP3    H124536   0.487   6.373   3.128  1.1651  0.2648  0.8724
 1015TIP3    H224537   0.487   6.452   3.257 -0.0888  2.2269 -0.2837
 1016TIP3   OH224538   4.049   3.317  13.572 -0.2671  0.5064  0.2541
 1016TIP3    H124539   4.009   3.384  13.627 -1.3820 -1.7041  2.3493
 1016TIP3    H224540   4.129   3.292  13.619  0.4206  0.7163 -0.7775
 1017TIP3   OH224541   1.004   0.312   2.702 -0.4065 -0.2973  0.0453
 1017TIP3    H124542   0.954   0.282   2.777  0.9739  2.4281  2.2261
 1017TIP3    H224543   1.073   0.246   2.691 -1.4266 -1.4298  0.2279
 1018TIP3   OH224544   2.517   1.003   2.075  0.6321  0.9239 -0.0197
 1018TIP3    H124545   2.442   0.948   2.055  0.3650  1.8371 -1.6801
 1018TIP3    H224546   2.553   0.966   2.155 -0.2882 -0.8673 -0.3881
 1019TIP3   OH224547   5.633   1.627   4.765 -0.0641 -0.9685 -0.0659
 1019TIP3    H124548   5.686   1.702   4.792 -0.5828  0.1679 -1.9773
 1019TIP3    H224549   5.556   1.630   4.822  0.2964 -0.5363  0.4089
 1020TIP3   OH224550   0.756   4.956  11.321 -0.3273 -0.6981  0.6865
 1020TIP3    H124551   0.704   4.925  11.396 -0.7750 -0.2949  0.5469
 1020TIP3    H224552   0.824   4.890  11.310 -0.6557 -1.0997  1.0400
 1021TIP3   OH224553   2.075   4.630   3.746  0.0973  0.9317  0.3466
 1021TIP3    H124554   2.019   4.627   3.824 -0.2007  0.2152  0.1113
 1021TIP3    H224555   2.106   4.720   3.743 -0.8125  1.2707  0.6477
 1022TIP3   OH224556   3.896   4.420  12.122 -0.5444  0.2243  0.0710
 1022TIP3    H124557   3.809   4.381  12.130 -1.6172  2.4883  0.3478
 1022TIP3    H224558   3.900   4.485  12.192  0.8116  1.1711 -0.8340
 1023TIP3   OH224559   4.955   1.298  17.110 -0.0351  0.0794  0.0712
 1023TIP3    H124560   5.044   1.320  17.081 -0.6280  0.4295 -1.5768
 1023TIP3    H224561   4.937   1.362  17.180  0.3445  1.2274 -0.8424
 1024TIP3   OH224562   5.167   2.399  11.731 -0.5888  0.0960  0.7273
 1024TIP3    H124563   5.260   2.420  11.738  0.2835 -2.2490 -2.0522
 1024TIP3    H224564   5.124   2.484  11.719  1.5864  1.0313 -1.0950
 1025TIP3   OH224565   4.433   1.681  14.203  0.5652  0.3912 -0.2344
 1025TIP3    H124566   4.389   1.611  14.252 -2.2687  1.9168 -0.3403
 1025TIP3    H224567   4.364   1.746  14.189  1.8206  1.1586 -4.1541
 1026TIP3   OH224568   0.119   2.825  14.674  0.2934  0.0741 -0.1692
 1026TIP3    H124569   0.050   2.851  14.735  0.3409 -1.5598  0.6371
 1026TIP3    H224570   0.168   2.758  14.721  1.2930 -0.1094 -1.4350
 1027TIP3   OH224571   0.308   6.116  16.800  0.3713 -0.3491 -0.2975
 1027TIP3    H124572   0.260   6.177  16.744  0.0993 -0.8021 -0.5652
 1027TIP3    H224573   0.368   6.171  16.850 -0.8805  0.3316  0.5263
 1028TIP3   OH224574   6.407   0.941  15.735  0.4531  0.8153 -0.0625
 1028TIP3    H124575   6.466   1.008  15.770  0.0636  1.4513 -0.5891
 1028TIP3    H224576   6.344   0.926  15.805  2.0129 -0.8866  1.0481
 1029TIP3   OH224577   1.802   4.297   3.148 -0.0320  0.0155  0.2721
 1029TIP3    H124578   1.859   4.365   3.112 -2.0112  1.7159  0.1802
 1029TIP3    H224579   1.801   4.228   3.081 -0.2146  1.1787 -0.9619
 1030TIP3   OH224580   2.776   4.476  14.498  0.8129  0.1077  0.0251
 1030TIP3    H124581   2.738   4.555  14.536 -0.7005 -0.7278  0.3342
 1030TIP3    H224582   2.838   4.444  14.564 -0.2989 -0.2195  0.9387
 1031TIP3   OH224583   0.798   3.985   3.994 -0.0943 -0.2453  0.1184
 1031TIP3    H124584   0.855   3.908   3.997 -1.6397 -1.4912 -0.7348
 1031TIP3    H224585   0.798   4.019   4.083 -1.0427 -2.5699  1.1031
 1032TIP3   OH224586   1.012   1.738   5.036  0.2349  0.9558  0.1152
 1032TIP3    H124587   1.039   1.781   5.118 -1.2204  0.7810  0.7171
 1032TIP3    H224588   0.993   1.648   5.062  0.7296  0.6327 -0.6222
 1033TIP3   OH224589   2.743   4.524   1.215  0.0995  0.8819  0.1937
 1033TIP3    H124590   2.667   4.568   1.253  0.3280  0.9438  0.5894
 1033TIP3    H224591   2.720   4.511   1.123 -0.1787  1.3752  0.1883
 1034TIP3   OH224592   3.692   2.574   1.842 -0.4335 -0.0412  0.2929
 1034TIP3    H124593   3.753   2.582   1.915 -0.8730 -0.8521  0.7640
 1034TIP3    H224594   3.651   2.488   1.854 -1.8569  0.5772  0.1559
 1035TIP3   OH224595   5.144   6.750  16.142  0.5386 -0.1854 -0.1674
 1035TIP3    H124596   5.141   6.675  16.201  0.5348  0.6626  0.9467
 1035TIP3    H224597   5.216   6.731  16.082  0.5415 -1.0653  0.1006
 1036TIP3   OH224598   4.951   1.101   2.672 -0.0982  0.0213 -0.7249
 1036TIP3    H124599   4.879   1.157   2.643 -0.0621  1.1489  1.1921
 1036TIP3    H224600   4.908   1.023   2.708 -0.2357 -0.3572 -1.6925
 1037TIP3   OH224601   1.890   0.645  16.707 -0.4104 -0.1508 -0.2280
 1037TIP3    H124602   1.917   0.597  16.628 -0.6404 -1.3975  0.4144
 1037TIP3    H224603   1.801   0.676  16.686 -0.1496  0.2520 -0.7622
 1038TIP3   OH224604   5.053   2.875  15.021 -0.2479  0.6621 -0.3533
 1038TIP3    H124605   5.110   2.807  14.986 -1.0832 -0.5602  0.5628
 1038TIP3    H224606   5.092   2.898  15.105 -0.0656  1.1842 -0.5812
 1039TIP3   OH224607   1.997   5.983   4.416 -0.0398  0.0363  0.3126
 1039TIP3    H124608   2.076   5.962   4.466  1.4686  2.9393 -0.6027
 1039TIP3    H224609   2.029   6.037   4.343 -2.4849 -1.5900 -2.1706
 1040TIP3   OH224610   5.803   6.376  16.189 -0.2565  0.5163  0.6172
 1040TIP3    H124611   5.870   6.348  16.127  0.8255  5.6736 -1.0353
 1040TIP3    H224612   5.722   6.334  16.158  1.2444 -1.7555 -0.4974
 1041TIP3   OH224613   4.046   0.373  11.706 -0.0102  0.4529  0.7026
 1041TIP3    H124614   3.983   0.443  11.724 -0.8738 -0.2123  0.3590
 1041TIP3    H224615   4.116   0.416  11.658 -0.5231  1.0931  0.5045
 1042TIP3   OH224616   5.010   4.080  15.370  0.3998  0.2299 -0.3061
 1042TIP3    H124617   5.076   4.140  15.335  1.4086 -0.7377 -0.1090
 1042TIP3    H224618   4.941   4.080  15.303  1.2537  0.1650 -1.2186
 1043TIP3   OH224619   3.916   5.336   2.057 -0.4505 -0.2152 -0.0694
 1043TIP3    H124620   3.833   5.303   2.022 -0.5056 -1.1234  0.8812
 1043TIP3    H224621   3.895   5.368   2.144  0.3993 -1.5730  0.6750
 1044TIP3   OH224622   3.136   0.129  12.313 -0.6884  0.2358 -0.4491
 1044TIP3    H124623   3.114   0.164  12.226  0.7277  0.5581 -0.7112
 1044TIP3    H224624   3.187   0.050  12.294 -0.0270  0.5242  0.0680
 1045TIP3   OH224625   1.811   4.529   1.803  0.1050 -0.0398 -0.1952
 1045TIP3    H124626   1.794   4.619   1.774 -0.1380  0.8538  2.4975
 1045TIP3    H224627   1.726   4.494   1.825  0.3096 -0.5890 -0.2707
 1046TIP3   OH224628   2.098   4.705   0.318 -0.1373  0.0034  0.5602
 1046TIP3    H124629   2.164   4.636   0.320 -0.0858  0.0626  1.3560
 1046TIP3    H224630   2.138   4.779   0.363 -0.2528  0.5019 -0.1519
 1047TIP3   OH224631   4.018   4.461   3.912 -0.2814  0.2374 -0.1133
 1047TIP3    H124632   4.038   4.383   3.861  0.1961  0.6683 -0.5906
 1047TIP3    H224633   4.016   4.430   4.002 -1.0478 -0.5155 -0.3704
 1048TIP3   OH224634   4.758   3.313   5.694  0.6180  0.2683  0.0741
 1048TIP3    H124635   4.685   3.343   5.640  0.0641 -1.4629 -0.1813
 1048TIP3    H224636   4.818   3.271   5.633  1.1042  0.3278  0.5017
 1049TIP3   OH224637   0.975   5.430   0.653  0.5015  0.2298 -0.1545
 1049TIP3    H124638   0.930   5.346   0.658 -0.4525  0.6392 -1.4428
 1049TIP3    H224639   1.058   5.411   0.608  0.2133 -0.0004 -0.5892
 1050TIP3   OH224640   4.974   4.646   4.666  0.0739  0.4411 -0.2807
 1050TIP3    H124641   4.912   4.647   4.740  1.2262  0.2980  0.7122
 1050TIP3    H224642   5.026   4.726   4.677  1.2985 -0.3668 -0.0140
 1051TIP3   OH224643   5.567   2.355   2.147  0.3843 -0.0955  0.5054
 1051TIP3    H124644   5.545   2.270   2.186  0.7223  0.6027  2.3572
 1051TIP3    H224645   5.563   2.416   2.221  1.3582  1.2926 -0.5422
 1052TIP3   OH224646   0.170   4.189   3.035 -0.0656 -0.3039  0.5004
 1052TIP3    H124647   0.178   4.254   3.105 -1.8182 -1.0157  1.4160
 1052TIP3    H224648   0.201   4.107   3.075  3.8411  0.1095 -1.1498
 1053TIP3   OH224649   4.092   3.897   1.862 -0.2304 -0.1396 -0.7127
 1053TIP3    H124650   4.118   3.909   1.770  0.7419 -0.8696 -0.5473
 1053TIP3    H224651   4.112   3.981   1.904 -2.5260  0.9230 -1.5330
 1054TIP3   OH224652   0.321   6.695  11.707 -0.1636 -0.4169  0.0785
 1054TIP3    H124653   0.314   6.650  11.791  0.1249 -0.1248  0.2571
 1054TIP3    H224654   0.231   6.724  11.688  0.1778  1.8429  1.5685
 1055TIP3   OH224655   0.521   0.627   5.662  0.3423 -0.2269 -0.3649
 1055TIP3    H124656   0.452   0.693   5.673  0.1383 -0.5103  0.0679
 1055TIP3    H224657   0.592   0.674   5.618  0.3995  0.4109  0.4008
 1056TIP3   OH224658   5.247   4.711   4.231 -0.0354  0.0727  0.2494
 1056TIP3    H124659   5.259   4.630   4.183  0.4583  0.3750 -0.1511
 1056TIP3    H224660   5.220   4.684   4.319 -0.1359 -0.5088  0.0386
 1057TIP3   OH224661   2.547   2.577   2.735 -0.2653  0.4409  0.9118
 1057TIP3    H124662   2.511   2.547   2.819  1.1614 -0.4208  1.2441
 1057TIP3    H224663   2.633   2.612   2.756 -0.9354  2.7257  0.1648
 1058TIP3   OH224664   4.521   1.958   3.442 -1.3462  0.5018  0.7293
 1058TIP3    H124665   4.546   1.882   3.388  0.7177 -1.0126  3.5374
 1058TIP3    H224666   4.476   1.920   3.517  0.5179  1.9056  2.6567
 1059TIP3   OH224667   1.218   4.443   1.403 -0.4480  0.2372 -0.1589
 1059TIP3    H124668   1.197   4.518   1.459 -0.4850  0.5752 -0.6203
 1059TIP3    H224669   1.147   4.442   1.339 -0.5941 -0.3605  0.0059
 1060TIP3   OH224670   3.648   2.663  13.146  0.3083  0.1098 -0.3033
 1060TIP3    H124671   3.633   2.758  13.143 -1.3870 -0.1210 -0.4386
 1060TIP3    H224672   3.684   2.647  13.233  1.1032  0.9312 -0.4688
 1061TIP3   OH224673   4.879   5.270  10.960 -0.4334 -0.7089 -0.0891
 1061TIP3    H124674   4.911   5.247  11.047  1.0304 -1.5222 -0.7959
 1061TIP3    H224675   4.857   5.363  10.965 -0.9067 -0.8713  1.2735
 1062TIP3   OH224676   3.025   2.934  16.742  0.0709 -0.2531 -0.4932
 1062TIP3    H124677   3.017   3.029  16.738  2.7679  0.1415  0.8584
 1062TIP3    H224678   3.037   2.914  16.835  0.7771 -1.7506 -0.8641
 1063TIP3   OH224679   5.109   3.000   6.027 -0.4846 -0.3018  0.3801
 1063TIP3    H124680   5.061   2.978   6.107 -0.6899  0.3204  0.4331
 1063TIP3    H224681   5.170   3.069   6.054 -0.3884 -0.2576  0.0520
 1064TIP3   OH224682   1.813   2.526  11.910  0.0438  0.3113  0.6158
 1064TIP3    H124683   1.873   2.552  11.979  0.5471 -1.4399  0.8906
 1064TIP3    H224684   1.761   2.455  11.948 -0.5312  0.1609 -0.4012
 1065TIP3   OH224685   5.901   2.673   3.333  0.1149 -0.4909  0.0527
 1065TIP3    H124686   5.841   2.711   3.269 -1.2556  1.6887  2.4772
 1065TIP3    H224687   5.896   2.579   3.316  0.1903 -0.0127 -3.2775
 1066TIP3   OH224688   3.095   6.534   4.143 -0.0763 -0.0538 -0.0229
 1066TIP3    H124689   3.082   6.503   4.232  0.6527  0.2025  0.1830
 1066TIP3    H224690   3.109   6.455   4.091  0.2764 -0.1565  0.2309
 1067TIP3   OH224691   1.447   0.809  15.481 -0.5250  0.1748  0.1647
 1067TIP3    H124692   1.539   0.785  15.490 -0.9314 -0.9704  1.6136
 1067TIP3    H224693   1.447   0.904  15.474  0.7190  0.2339  0.9016
 1068TIP3   OH224694   0.388   0.638   3.753  0.5274  0.5919  0.0166
 1068TIP3    H124695   0.444   0.715   3.762 -0.9274  1.5562  1.1786
 1068TIP3    H224696   0.330   0.641   3.829  1.1225 -2.2750  0.6967
 1069TIP3   OH224697   0.356   2.831   0.167  0.0858 -0.0099  0.5550
 1069TIP3    H124698   0.373   2.904   0.227 -0.9998 -0.0220  0.9201
 1069TIP3    H224699   0.382   2.863   0.081  0.8034  0.3478  0.8970
 1070TIP3   OH224700   4.584   3.566   0.643 -0.1363  0.6442 -0.2404
 1070TIP3    H124701   4.610   3.530   0.728  1.9804  1.9041 -0.3071
 1070TIP3    H224702   4.649   3.532   0.582 -1.6605 -0.2817 -1.4276
 1071TIP3   OH224703   3.996   3.072  12.985 -0.2351  0.2427  0.2382
 1071TIP3    H124704   4.019   2.992  12.937  0.2990 -0.6064  1.8258
 1071TIP3    H224705   4.076   3.095  13.032 -1.1693  0.0909  1.9764
 1072TIP3   OH224706   4.637   6.758  11.616  0.0605 -0.3955  0.6177
 1072TIP3    H124707   4.624   6.756  11.521 -0.4907 -0.9268  0.6958
 1072TIP3    H224708   4.658   6.849  11.636 -0.3426 -0.1705  0.0485
 1073TIP3   OH224709   2.641   6.422  10.766 -0.2287 -0.2975  0.0600
 1073TIP3    H124710   2.614   6.364  10.837  0.4310 -0.0214  0.5497
 1073TIP3    H224711   2.683   6.496  10.811  1.6470 -0.8733 -0.6749
 1074TIP3   OH224712   0.655   6.187   3.299 -0.0935  0.3260  0.3758
 1074TIP3    H124713   0.641   6.150   3.212  0.2296  1.8114 -0.3368
 1074TIP3    H224714   0.568   6.214   3.328 -0.1201  0.3333  0.2878
 1075TIP3   OH224715   3.007   1.067  12.065  0.3457 -0.1537  0.5545
 1075TIP3    H124716   2.949   1.134  12.029  1.9340  0.9000 -0.1751
 1075TIP3    H224717   3.070   1.051  11.995  0.7228 -1.5536  1.1775
 1076TIP3   OH224718   2.720   1.387   1.919 -0.2075 -0.2367 -0.0313
 1076TIP3    H124719   2.721   1.471   1.872 -1.0397 -1.1314 -1.7593
 1076TIP3    H224720   2.660   1.402   1.992 -0.9706  0.4833 -0.7681
 1077TIP3   OH224721   2.282   6.254  12.230  0.0412  0.1994 -0.1257
 1077TIP3    H124722   2.336   6.221  12.158  0.0655 -0.2418  0.0924
 1077TIP3    H224723   2.215   6.307  12.187 -1.5308 -2.1422 -0.7439
 1078TIP3   OH224724   4.889   5.380   5.901 -0.4357 -0.4939  0.2158
 1078TIP3    H124725   4.950   5.420   5.962 -0.6054 -1.8456  1.3119
 1078TIP3    H224726   4.910   5.287   5.902 -1.9674 -0.8776  0.0055
 1079TIP3   OH224727   0.985   5.115  12.699  0.4592  0.2661  0.3915
 1079TIP3    H124728   0.896   5.114  12.734  0.2950  2.1078  0.1559
 1079TIP3    H224729   0.975   5.148  12.610  1.3608  0.3358  0.3041
 1080TIP3   OH224730   2.631   4.223  12.655  0.2059 -0.2616  0.1411
 1080TIP3    H124731   2.653   4.298  12.710 -0.1453  0.3420 -0.5292
 1080TIP3    H224732   2.639   4.255  12.565 -0.8588 -0.7520 -0.1468
 1081TIP3   OH224733   5.690   0.745  14.564  0.0183  0.2732  0.2839
 1081TIP3    H124734   5.724   0.713  14.480 -0.2933 -2.4953  1.1043
 1081TIP3    H224735   5.612   0.795  14.541  1.3560  1.8198 -1.2048
 1082TIP3   OH224736   3.479   5.329  16.391 -0.2440 -0.2819  0.0148
 1082TIP3    H124737   3.459   5.308  16.482  0.2858 -1.0257 -0.0342
 1082TIP3    H224738   3.574   5.318  16.384 -0.4361 -1.3935 -0.9191
 1083TIP3   OH224739   4.305   3.794   3.058  0.1640  0.2428 -0.4283
 1083TIP3    H124740   4.350   3.713   3.033  1.3728  0.8116 -0.1771
 1083TIP3    H224741   4.302   3.846   2.978  3.0920  1.6220  0.1944
 1084TIP3   OH224742   3.764   2.277   0.390 -0.1789 -0.0726  0.1242
 1084TIP3    H124743   3.794   2.335   0.320 -0.1334 -0.8107 -0.4800
 1084TIP3    H224744   3.671   2.300   0.402  0.2076  1.1512  0.9362
 1085TIP3   OH224745   2.424   4.200   4.567 -0.1740 -0.3438  0.3526
 1085TIP3    H124746   2.462   4.162   4.646 -0.8920 -1.3245  0.2429
 1085TIP3    H224747   2.362   4.265   4.599  0.0356 -0.2517  0.5751
 1086TIP3   OH224748   6.166   2.866   6.349  0.5111  0.3296 -0.7252
 1086TIP3    H124749   6.132   2.803   6.286 -0.0927  1.4367 -1.5423
 1086TIP3    H224750   6.109   2.942   6.341 -0.6716 -0.0541  2.3798
 1087TIP3   OH224751   3.805   5.311   4.125 -0.5206  1.0037 -0.3707
 1087TIP3    H124752   3.811   5.348   4.037 -0.6712  1.6171 -0.1258
 1087TIP3    H224753   3.713   5.323   4.149 -0.9042 -0.7890 -0.8311
 1088TIP3   OH224754   0.205   1.651  16.274  0.1591 -0.2957  0.2342
 1088TIP3    H124755   0.123   1.699  16.262  0.0254 -1.0008 -2.1977
 1088TIP3    H224756   0.274   1.714  16.253  0.1466 -0.2883  0.2160
 1089TIP3   OH224757   1.481   5.155  15.088  0.7854 -0.4394 -0.1607
 1089TIP3    H124758   1.442   5.111  15.163  2.0491 -0.1298  0.7106
 1089TIP3    H224759   1.523   5.085  15.038  1.6082 -0.4154  0.4803
 1090TIP3   OH224760   1.237   3.586   0.418 -0.0612  0.2122  0.2916
 1090TIP3    H124761   1.297   3.659   0.432 -0.9104  0.9461  0.1516
 1090TIP3    H224762   1.230   3.544   0.505  0.0845  0.5584  0.4718
 1091TIP3   OH224763   0.058   1.395   4.354 -0.8236  0.9414  0.4362
 1091TIP3    H124764   0.118   1.333   4.311 -1.9247 -1.4159  2.0608
 1091TIP3    H224765   0.044   1.464   4.289  0.5228 -0.4763 -1.4828
 1092TIP3   OH224766   1.509   2.048  15.608 -0.2168 -0.3680  0.8292
 1092TIP3    H124767   1.454   2.122  15.631  0.4696 -0.1668  1.9150
 1092TIP3    H224768   1.572   2.083  15.546 -3.0829 -1.2784 -2.9499
 1093TIP3   OH224769   6.285   3.816  12.199  0.4534  0.4480  0.4159
 1093TIP3    H124770   6.345   3.815  12.125  0.7192  0.3910  0.6325
 1093TIP3    H224771   6.293   3.904  12.235  3.3958 -0.6329  2.8664
 1094TIP3   OH224772   0.311   6.150  16.477  0.3154  0.7185 -0.9930
 1094TIP3    H124773   0.252   6.135  16.403 -0.2774 -1.4895 -0.1310
 1094TIP3    H224774   0.271   6.223  16.525  0.2907  1.6632 -2.3842
 1095TIP3   OH224775   0.753   2.129  14.541 -0.3021 -0.1834  0.7412
 1095TIP3    H124776   0.732   2.194  14.474 -0.5605  1.3391  2.2258
 1095TIP3    H224777   0.848   2.130  14.547 -0.3255  0.3950  1.0614
 1096TIP3   OH224778   5.343   2.756   4.605 -0.7120 -0.4031  0.1052
 1096TIP3    H124779   5.404   2.780   4.674 -2.0119 -0.7823  1.4546
 1096TIP3    H224780   5.287   2.688   4.645 -1.6553 -0.4636 -1.2339
 1097TIP3   OH224781   3.401   4.774  14.416  0.1452 -0.2435 -0.6286
 1097TIP3    H124782   3.362   4.743  14.334 -2.7140  1.3503 -0.0061
 1097TIP3    H224783   3.388   4.869  14.414  0.3332 -0.1285  1.4734
 1098TIP3   OH224784   5.549   3.476  15.204  0.1491  0.4797 -0.1912
 1098TIP3    H124785   5.547   3.570  15.186 -1.5134  0.3550 -0.8843
 1098TIP3    H224786   5.597   3.439  15.130 -1.8451  0.5310 -1.6103
 1099TIP3   OH224787   6.201   1.776  11.160  0.0352 -0.4297  0.2178
 1099TIP3    H124788   6.173   1.697  11.206 -0.0167 -0.7653 -0.3786
 1099TIP3    H224789   6.283   1.751  11.117  0.3295  0.0203  0.5130
 1100TIP3   OH224790   5.719   2.343   5.250 -0.1479  0.8035 -0.0322
 1100TIP3    H124791   5.723   2.439   5.247  1.4200  0.8649  1.9920
 1100TIP3    H224792   5.793   2.314   5.197 -0.5100  0.7037 -0.4878
 1101TIP3   OH224793   6.279   2.459   0.516  0.6555  0.2278 -0.4025
 1101TIP3    H124794   6.250   2.518   0.585 -1.8698 -1.2522 -0.0732
 1101TIP3    H224795   6.291   2.374   0.559  3.3968  0.1824 -1.0224
 1102TIP3   OH224796   0.397   4.297  15.426 -0.1186 -0.1984 -0.0138
 1102TIP3    H124797   0.417   4.203  15.430 -2.3388 -0.8233 -1.8511
 1102TIP3    H224798   0.466   4.333  15.371  0.2175 -0.9038 -0.0722
 1103TIP3   OH224799   5.440   1.018  16.296  0.3461 -0.1165 -0.2019
 1103TIP3    H124800   5.479   1.061  16.220  1.7219 -1.4668 -0.3230
 1103TIP3    H224801   5.515   0.990  16.348 -0.5665  0.5537  1.5554
 1104TIP3   OH224802   5.545   5.357   5.162 -0.3456 -0.4319 -0.3051
 1104TIP3    H124803   5.604   5.360   5.086  1.3684 -1.6131  0.8887
 1104TIP3    H224804   5.565   5.273   5.204 -1.3570  0.1120  1.3641
 1105TIP3   OH224805   3.462   2.040   5.413  0.1517 -0.4097  0.0378
 1105TIP3    H124806   3.392   1.977   5.399  0.3283 -0.9080  1.2993
 1105TIP3    H224807   3.419   2.114   5.457  0.4554 -0.8443  1.0903
 1106TIP3   OH224808   1.877   2.996   4.191 -0.2839  0.2705  0.0276
 1106TIP3    H124809   1.838   2.941   4.259 -0.1777 -0.0573 -0.1741
 1106TIP3    H224810   1.848   3.084   4.213 -0.6300  0.1103  0.2364
 1107TIP3   OH224811   6.265   4.563  15.138  0.2285 -0.3540 -0.0651
 1107TIP3    H124812   6.270   4.510  15.218  2.1192  0.6052  0.5209
 1107TIP3    H224813   6.204   4.633  15.161  0.1753 -0.5101  0.2852
 1108TIP3   OH224814   0.050   2.906   0.243  0.2061 -0.0638  0.4677
 1108TIP3    H124815   0.072   2.824   0.199  0.3503  0.7222 -1.0072
 1108TIP3    H224816   0.083   2.896   0.332  1.4345 -1.0926 -0.0741
 1109TIP3   OH224817   1.157   2.933   5.664  0.0721  0.2127  0.3732
 1109TIP3    H124818   1.211   2.891   5.597 -0.0660 -0.3412  0.6071
 1109TIP3    H224819   1.188   3.024   5.666  2.5351 -0.5460  2.0040
 1110TIP3   OH224820   3.697   3.690   6.603 -0.4118  0.3700 -0.5588
 1110TIP3    H124821   3.763   3.623   6.584 -1.3304 -0.1274 -2.0829
 1110TIP3    H224822   3.726   3.767   6.554 -0.1582  0.6414  0.0041
 1111TIP3   OH224823   1.703   4.231  14.117 -0.4808 -0.8105  0.4003
 1111TIP3    H124824   1.764   4.254  14.047  0.1190 -1.7161  0.6137
 1111TIP3    H224825   1.755   4.237  14.197 -1.4581  1.4338  0.9612
 1112TIP3   OH224826   4.818   3.498   2.496 -0.8050  0.4170  0.1693
 1112TIP3    H124827   4.879   3.496   2.570 -0.7945  1.1847  0.1806
 1112TIP3    H224828   4.835   3.416   2.450  0.4462  0.7499  0.0035
 1113TIP3   OH224829   0.396   6.151  13.217 -0.2667 -0.4574  0.2149
 1113TIP3    H124830   0.463   6.085  13.236 -0.5150 -0.7070  0.2308
 1113TIP3    H224831   0.335   6.107  13.158 -1.3808 -0.8397  1.5996
 1114TIP3   OH224832   0.145   4.761   2.807 -0.9221 -0.2779 -0.3739
 1114TIP3    H124833   0.129   4.834   2.866 -2.4158  0.2514 -1.3523
 1114TIP3    H224834   0.174   4.690   2.864 -1.1417  0.5601  0.8283
 1115TIP3   OH224835   4.568   0.030   3.108  0.7314  0.3519  0.3448
 1115TIP3    H124836   4.608   0.098   3.162 -0.8855  0.9849  0.7938
 1115TIP3    H224837   4.541  -0.037   3.171  1.4857 -0.2902 -0.0025
 1116TIP3   OH224838   1.932   2.411   4.971 -0.3921  0.1520 -0.3436
 1116TIP3    H124839   1.972   2.498   4.978  1.2201 -0.6097  0.3322
 1116TIP3    H224840   1.894   2.409   4.883  0.4705  1.1592 -0.7594
 1117TIP3   OH224841   5.183   6.768  15.065 -0.3333 -0.4147 -0.3886
 1117TIP3    H124842   5.265   6.757  15.016  0.3891 -1.8429  1.0222
 1117TIP3    H224843   5.134   6.688  15.046 -0.1629 -0.8604  0.9268
 1118TIP3   OH224844   5.164   5.910  11.294 -0.0110  0.0153  0.0653
 1118TIP3    H124845   5.120   5.951  11.221  1.5121 -0.0927 -0.9601
 1118TIP3    H224846   5.228   5.851  11.254  2.2607  1.4083  1.3998
 1119TIP3   OH224847   1.084   2.180   3.048 -0.1100  0.0297  0.0336
 1119TIP3    H124848   1.086   2.175   2.952  1.7296 -2.3313  0.1040
 1119TIP3    H224849   1.126   2.264   3.068 -0.1511  0.3768 -1.2117
 1120TIP3   OH224850   0.316   2.341  14.318  0.2221  0.0396 -0.3148
 1120TIP3    H124851   0.295   2.392  14.396  0.4325  1.9325 -1.4090
 1120TIP3    H224852   0.355   2.261  14.351  0.6292  0.9309  1.5141
 1121TIP3   OH224853   1.877   4.554  16.999  0.1962  0.1022  0.0924
 1121TIP3    H124854   1.872   4.644  16.966  2.8746  1.3148  2.4890
 1121TIP3    H224855   1.902   4.502  16.923 -2.2116  1.1625 -1.5393
 1122TIP3   OH224856   0.451   4.684   4.064 -0.6132 -0.5503 -0.1143
 1122TIP3    H124857   0.441   4.618   3.995 -1.1421 -0.4831 -0.1079
 1122TIP3    H224858   0.447   4.768   4.017 -0.8981 -0.5060 -0.0151
 1123TIP3   OH224859   2.762   0.931  12.677 -0.0226 -0.2487  0.8488
 1123TIP3    H124860   2.788   0.923  12.585  0.1689 -2.8652  1.0605
 1123TIP3    H224861   2.675   0.970  12.675  0.6706  1.3351 -0.3093
 1124TIP3   OH224862   5.834   6.441   5.680  0.4472 -0.7392 -0.1544
 1124TIP3    H124863   5.830   6.531   5.649  1.3824 -0.2794  0.9909
 1124TIP3    H224864   5.843   6.448   5.775 -0.5463 -2.0638  0.0769
 1125TIP3   OH224865   5.675   3.120  16.915  0.5903 -0.0066 -0.6239
 1125TIP3    H124866   5.684   3.116  17.010  0.8205  0.3220 -0.6332
 1125TIP3    H224867   5.585   3.149  16.901  0.1653 -1.1961 -0.5241
 1126TIP3   OH224868   1.403   5.897  14.422 -0.1662  0.2116 -0.6657
 1126TIP3    H124869   1.351   5.885  14.501 -0.0615 -0.3882 -0.6831
 1126TIP3    H224870   1.371   5.979  14.384 -1.8399 -0.6792 -1.2492
 1127TIP3   OH224871   6.394   1.518   5.498 -0.0038 -0.5019  0.0479
 1127TIP3    H124872   6.353   1.574   5.432 -0.8899 -1.4430 -0.2331
 1127TIP3    H224873   6.320   1.476   5.542  0.6023 -0.5014  1.1019
 1128TIP3   OH224874   0.513   0.246  14.787 -0.4958  0.1466  0.7664
 1128TIP3    H124875   0.477   0.280  14.705  0.7776  0.0486  0.1370
 1128TIP3    H224876   0.437   0.215  14.836 -1.3976  1.3293  0.1509
 1129TIP3   OH224877   5.308   2.791   1.311 -0.3231  0.0863  0.1752
 1129TIP3    H124878   5.273   2.872   1.348 -1.0818 -0.4011  0.5614
 1129TIP3    H224879   5.351   2.748   1.385 -0.9041 -0.3840  0.2514
 1130TIP3   OH224880   4.937   5.253   3.963 -0.4551  0.0117  0.3131
 1130TIP3    H124881   4.971   5.341   3.978  0.4623 -0.2267 -0.2499
 1130TIP3    H224882   4.866   5.264   3.900  1.6384  0.0817 -2.1943
 1131TIP3   OH224883   1.602   1.262  11.258  0.6697 -0.0430 -0.3339
 1131TIP3    H124884   1.696   1.247  11.273  0.3222 -0.3968  1.9918
 1131TIP3    H224885   1.563   1.175  11.265  0.1413  0.1407 -0.9976
 1132TIP3   OH224886   0.370   6.820  16.304 -0.4032  0.1850  0.3149
 1132TIP3    H124887   0.318   6.766  16.246 -0.1624 -0.5074  0.7358
 1132TIP3    H224888   0.344   6.910  16.283 -1.7135 -0.1408  0.4787
 1133TIP3   OH224889   5.071   4.176   1.530 -0.1095 -0.4528  0.1087
 1133TIP3    H124890   5.107   4.176   1.618 -0.0686 -0.4926  0.0921
 1133TIP3    H224891   4.991   4.228   1.537  0.8403  1.0835 -0.2190
 1134TIP3   OH224892   1.040   1.010   3.537  0.4743 -0.0480  0.1620
 1134TIP3    H124893   1.071   0.920   3.522 -0.4044 -0.1024 -1.6848
 1134TIP3    H224894   0.950   1.000   3.568  0.1751  0.1841 -0.6051
 1135TIP3   OH224895   1.407   6.225   1.019 -0.0715 -0.3210 -0.4661
 1135TIP3    H124896   1.418   6.139   1.059 -0.1635 -1.2526 -2.3577
 1135TIP3    H224897   1.344   6.270   1.076  2.0504 -0.4008  2.1304
 1136TIP3   OH224898   3.622   5.434  11.052 -0.2309 -0.1821  0.4391
 1136TIP3    H124899   3.575   5.377  10.991 -0.0659  1.4341 -1.2784
 1136TIP3    H224900   3.704   5.387  11.071 -0.1282 -0.5568 -0.8790
 1137TIP3   OH224901   1.592   2.196  11.271  0.0615 -0.0516  0.3600
 1137TIP3    H124902   1.662   2.246  11.230  0.9189 -0.2776  1.5086
 1137TIP3    H224903   1.628   2.167  11.354 -0.5201 -2.3359 -0.1169
 1138TIP3   OH224904   6.734   6.829   3.958  0.1421 -0.0878  0.3176
 1138TIP3    H124905   6.647   6.868   3.968  0.3691  0.4121  0.3692
 1138TIP3    H224906   6.776   6.881   3.890  0.3873 -0.3619  0.2564
 1139TIP3   OH224907   5.113   0.305  14.504 -0.2756  0.3849 -0.0142
 1139TIP3    H124908   5.034   0.360  14.505 -1.0382 -0.6332  2.0237
 1139TIP3    H224909   5.180   0.360  14.545  0.4289  1.6198 -2.6298
 1140TIP3   OH224910   3.672   5.508   1.419  0.3466  0.4818 -0.5214
 1140TIP3    H124911   3.710   5.427   1.385  3.1739  1.5041 -0.0964
 1140TIP3    H224912   3.578   5.489   1.427  0.8592 -2.6762 -0.5501
 1141TIP3   OH224913   2.217   1.061  14.919  0.1125  0.4072  0.0287
 1141TIP3    H124914   2.190   1.130  14.859  1.4752  0.5790 -0.4160
 1141TIP3    H224915   2.194   0.979  14.875 -1.9019  0.5277  0.7425
 1142TIP3   OH224916   5.584   1.383   0.085 -0.2561 -0.2914  0.1078
 1142TIP3    H124917   5.659   1.345   0.038 -1.6400 -1.5312 -1.1715
 1142TIP3    H224918   5.615   1.470   0.111  2.1583 -1.2979  0.9937
 1143TIP3   OH224919   0.544   2.909  11.092 -0.3046  0.0595 -0.0742
 1143TIP3    H124920   0.499   2.949  11.018 -2.0723 -1.8783 -0.1266
 1143TIP3    H224921   0.637   2.918  11.071 -0.7404  0.5267 -1.9874
 1144TIP3   OH224922   3.945   1.515   1.504 -0.1233 -0.4545  0.3859
 1144TIP3    H124923   3.988   1.521   1.418 -0.8887 -2.0627 -0.1434
 1144TIP3    H224924   3.996   1.449   1.551 -1.9894 -2.5011 -0.3000
 1145TIP3   OH224925   3.728   5.269  13.919  0.3146 -0.7606  0.2592
 1145TIP3    H124926   3.753   5.244  14.008 -1.1827 -0.6005  0.7551
 1145TIP3    H224927   3.771   5.205  13.863 -0.3302 -2.0938  1.2381
 1146TIP3   OH224928   4.174   0.496  13.039  0.0576  0.3106 -0.3903
 1146TIP3    H124929   4.213   0.581  13.017 -2.3644  1.3597 -0.8883
 1146TIP3    H224930   4.149   0.504  13.131  0.4596 -0.1576 -0.2331
 1147TIP3   OH224931   3.064   6.314   3.387 -0.1565 -0.1926 -0.1587
 1147TIP3    H124932   3.160   6.316   3.383 -0.1361 -0.8626 -0.1412
 1147TIP3    H224933   3.043   6.326   3.479 -0.1120  0.5133 -0.2359
 1148TIP3   OH224934   5.014   5.881  13.851  0.1997 -0.2677  0.6418
 1148TIP3    H124935   5.099   5.925  13.839 -0.2787  0.3581 -0.6661
 1148TIP3    H224936   5.036   5.797  13.890  1.2153  0.7893  2.5007
 1149TIP3   OH224937   5.257   2.645   0.743 -0.3504 -0.3269 -0.0957
 1149TIP3    H124938   5.244   2.683   0.830  2.1915  2.0432 -0.6190
 1149TIP3    H224939   5.323   2.577   0.755  0.8296  0.7447 -0.2501
 1150TIP3   OH224940   2.578   1.958   2.692 -0.2819  0.2799 -0.8092
 1150TIP3    H124941   2.615   2.021   2.630 -1.8855  0.1135 -1.9824
 1150TIP3    H224942   2.565   2.008   2.772  1.5240  0.5798 -0.6432
 1151TIP3   OH224943   1.191   4.911   5.167 -0.3033 -0.1104  0.5155
 1151TIP3    H124944   1.120   4.883   5.226 -0.8999  1.0079  0.3501
 1151TIP3    H224945   1.204   5.003   5.187  1.1543 -0.2978  0.5543
 1152TIP3   OH224946   4.910   1.052  16.249  0.1088 -0.0826  0.2574
 1152TIP3    H124947   4.998   1.076  16.277 -0.1743  0.9680  0.2972
 1152TIP3    H224948   4.863   1.034  16.330 -0.0055  0.4200  0.3051
 1153TIP3   OH224949   1.867   2.824   0.727 -0.2155  0.2909  0.1120
 1153TIP3    H124950   1.941   2.866   0.684 -0.1054  0.2295  0.2405
 1153TIP3    H224951   1.831   2.891   0.784  1.0623 -0.3091  1.6889
 1154TIP3   OH224952   6.707   2.665   3.597  0.2541  0.1517 -0.3738
 1154TIP3    H124953   6.664   2.700   3.675  0.3749 -0.7071  0.0854
 1154TIP3    H224954   6.639   2.667   3.529  0.4382  1.8872 -0.5589
 1155TIP3   OH224955   6.276   4.606   5.609  1.2061 -0.1564 -0.0985
 1155TIP3    H124956   6.339   4.676   5.628  2.0787 -1.3590  1.7031
 1155TIP3    H224957   6.239   4.583   5.694  0.7102 -1.6767 -0.6950
 1156TIP3   OH224958   2.094   0.883   6.497  0.6304  0.0489 -0.2183
 1156TIP3    H124959   2.067   0.974   6.484 -1.0281 -0.5136 -0.9443
 1156TIP3    H224960   2.014   0.839   6.527  1.6231 -1.0174  0.9750
 1157TIP3   OH224961   5.881   5.704   2.471 -0.5171 -0.1714 -0.0113
 1157TIP3    H124962   5.926   5.726   2.389 -0.3905 -1.0609 -0.1981
 1157TIP3    H224963   5.861   5.611   2.462 -0.1889 -0.3633  1.1291
 1158TIP3   OH224964   1.348   5.565  16.102  0.1416 -0.9160 -0.0448
 1158TIP3    H124965   1.371   5.497  16.166  1.2226 -1.4584 -0.9883
 1158TIP3    H224966   1.295   5.628  16.152  2.4506 -0.3641  1.8662
 1159TIP3   OH224967   3.189   0.503  12.990  0.4026  0.0175  0.2402
 1159TIP3    H124968   3.118   0.438  12.987  0.3456  0.1068 -0.9566
 1159TIP3    H224969   3.158   0.575  12.936  0.3144  1.2300  1.8636
 1160TIP3   OH224970   2.702   1.893  12.217  0.4540  0.1677  0.0397
 1160TIP3    H124971   2.795   1.878  12.199  0.4182 -0.7144  0.5280
 1160TIP3    H224972   2.700   1.966  12.278  0.9987 -1.3545  1.9727
 1161TIP3   OH224973   4.784   5.535  10.994 -0.3254  0.0216 -0.1750
 1161TIP3    H124974   4.816   5.625  10.993  0.5285 -0.2663  0.2996
 1161TIP3    H224975   4.745   5.522  10.907  1.1033  0.3063 -0.8816
 1162TIP3   OH224976   4.678   4.728  14.571 -0.4099 -0.3635 -0.5666
 1162TIP3    H124977   4.730   4.695  14.497 -0.6937 -0.1539 -0.8590
 1162TIP3    H224978   4.738   4.722  14.646 -0.1812 -0.7531 -0.7747
 1163TIP3   OH224979   4.848   1.304  16.176  0.4700  0.4196  0.4811
 1163TIP3    H124980   4.875   1.213  16.189  0.5243  0.1024 -1.5012
 1163TIP3    H224981   4.789   1.301  16.100 -0.9476  1.8212  1.4676
 1164TIP3   OH224982   6.498   2.704   1.814 -0.4196  0.0500  0.0625
 1164TIP3    H124983   6.468   2.613   1.815  0.0681 -0.1332 -0.8541
 1164TIP3    H224984   6.565   2.707   1.882 -2.1013  0.3529  1.8079
 1165TIP3   OH224985   3.943   4.026   6.035  0.2045  0.2569  0.5628
 1165TIP3    H124986   4.016   3.990   5.984 -0.0404 -1.3919  1.3324
 1165TIP3    H224987   3.865   4.002   5.986  0.0880  0.7902  0.4757
 1166TIP3   OH224988   6.749   5.183   2.927 -0.4579 -0.6969  0.1412
 1166TIP3    H124989   6.711   5.097   2.946  0.3127 -1.1836 -0.4636
 1166TIP3    H224990   6.673   5.241   2.915 -1.0110 -1.5421 -0.5803
 1167TIP3   OH224991   3.232   5.202   2.792  0.1558 -0.5601  0.3063
 1167TIP3    H124992   3.204   5.216   2.882 -0.1156 -0.7385  0.2524
 1167TIP3    H224993   3.186   5.269   2.741 -0.5231 -1.1239  0.1581
 1168TIP3   OH224994   6.101   0.482   4.246 -0.8677 -0.1664  0.4059
 1168TIP3    H124995   6.071   0.531   4.323 -0.3516 -0.6119  0.9080
 1168TIP3    H224996   6.028   0.425   4.224 -1.7795  1.3417 -0.6692
 1169TIP3   OH224997   4.415   1.731  12.691  0.5461  0.2390  0.5948
 1169TIP3    H124998   4.354   1.740  12.618  0.1137 -1.0836  0.7561
 1169TIP3    H224999   4.454   1.817  12.701 -0.1141  0.6947 -0.5591
 1170TIP3   OH225000   0.970   4.231  11.513  0.6704 -0.3016 -0.5135
 1170TIP3    H125001   0.906   4.245  11.583  3.3482  0.6372  1.9863
 1170TIP3    H225002   0.982   4.318  11.475  1.0897 -0.2909 -0.3582
 1171TIP3   OH225003   2.679   0.031   3.828  0.1680  0.2698  0.7312
 1171TIP3    H125004   2.766  -0.008   3.823  0.2197  0.3974  0.6145
 1171TIP3    H225005   2.683   0.090   3.903 -0.2413 -0.7525  1.5798
 1172TIP3   OH225006   5.251   1.353   5.754  0.3945 -0.5987  0.0636
 1172TIP3    H125007   5.232   1.446   5.741  2.3565 -0.0645  0.7038
 1172TIP3    H225008   5.277   1.322   5.668  0.1632 -0.4489 -0.0625
 1173TIP3   OH225009   0.228   4.227  13.193 -0.1240 -0.0028  0.2547
 1173TIP3    H125010   0.226   4.250  13.100 -1.1036 -2.7531 -0.5238
 1173TIP3    H225011   0.164   4.285  13.234  1.7056  2.5924 -0.3372
 1174TIP3   OH225012   2.519   4.787   4.422 -0.3557 -0.5822  0.2399
 1174TIP3    H125013   2.577   4.767   4.349 -0.5884  0.8104 -0.3617
 1174TIP3    H225014   2.509   4.704   4.468  0.2805 -1.3533 -0.9532
 1175TIP3   OH225015   0.917   1.523  14.573 -0.5582 -0.1329  0.0217
 1175TIP3    H125016   0.970   1.475  14.510 -2.3644 -1.7545 -0.3746
 1175TIP3    H225017   0.942   1.615  14.561  1.6352 -0.7475 -0.5573
 1176TIP3   OH225018   0.017   5.834   1.041  0.0370  0.0993  0.3675
 1176TIP3    H125019   0.110   5.851   1.029  0.2718  2.7223  4.0917
 1176TIP3    H225020   0.012   5.742   1.067  1.2072 -0.7373 -2.1151
 1177TIP3   OH225021   4.433   4.191   0.366  0.1572 -0.2730 -0.1315
 1177TIP3    H125022   4.355   4.162   0.413 -1.3246  0.9783 -1.6994
 1177TIP3    H225023   4.506   4.163   0.422 -1.4188 -0.3879  2.0166
 1178TIP3   OH225024   2.828   0.164  10.985  0.2078  0.0903  0.2875
 1178TIP3    H125025   2.863   0.095  10.928  0.1893 -0.5654  1.0447
 1178TIP3    H225026   2.896   0.231  10.986  0.4561 -0.1518 -0.0500
 1179TIP3   OH225027   3.475   4.766   0.514 -0.3643 -0.2367  0.1492
 1179TIP3    H125028   3.440   4.848   0.551 -1.0910  0.4553 -1.8904
 1179TIP3    H225029   3.519   4.724   0.587 -0.0361  1.9415  1.3145
 1180TIP3   OH225030   5.398   1.138   1.495 -0.1599  0.2846  0.5465
 1180TIP3    H125031   5.355   1.191   1.562 -0.4653  0.1750  0.4410
 1180TIP3    H225032   5.335   1.069   1.475 -0.7213  1.1784 -0.9320
 1181TIP3   OH225033   2.656   4.922   5.777 -0.0897 -0.6481 -0.1591
 1181TIP3    H125034   2.705   4.960   5.850  1.8026 -0.3314 -1.5001
 1181TIP3    H225035   2.645   4.995   5.715  1.1994 -1.6028 -1.5799
 1182TIP3   OH225036   1.106   5.226  16.997 -0.4230 -0.6981  0.0842
 1182TIP3    H125037   1.192   5.202  17.032 -0.6212 -2.0781 -0.2955
 1182TIP3    H225038   1.125   5.267  16.913 -0.1583 -2.7586 -0.9335
 1183TIP3   OH225039   2.037   5.978  12.470  0.0437 -0.1900  0.8313
 1183TIP3    H125040   2.080   6.061  12.493  0.1102  0.1040 -0.3053
 1183TIP3    H225041   1.984   5.999  12.393  1.2654 -1.5329 -0.4332
 1184TIP3   OH225042   3.412   2.790  12.965 -1.0751 -0.1071  0.2766
 1184TIP3    H125043   3.467   2.719  12.932  0.0738  0.9053 -0.0557
 1184TIP3    H225044   3.472   2.846  13.015 -2.5005 -0.9440  3.1616
 1185TIP3   OH225045   1.448   3.352   4.392 -0.4056  0.9535  0.2999
 1185TIP3    H125046   1.443   3.432   4.445  0.9670  1.7182 -0.6558
 1185TIP3    H225047   1.509   3.295   4.440  0.6941  1.5726 -0.3252
 1186TIP3   OH225048   2.615   0.452   4.171  0.6775 -0.2592  0.2511
 1186TIP3    H125049   2.638   0.453   4.264  1.5590  1.2531  0.0528
 1186TIP3    H225050   2.524   0.481   4.169  0.7926  0.1358  0.6193
 1187TIP3   OH225051   0.795   0.799  16.585 -0.3562 -0.3822 -0.2496
 1187TIP3    H125052   0.741   0.722  16.567  1.3370 -1.7090  0.1199
 1187TIP3    H225053   0.734   0.862  16.624 -2.2956 -0.5682 -2.7320
 1188TIP3   OH225054   4.397   0.029   6.144  0.0946  0.5012  0.0708
 1188TIP3    H125055   4.435   0.034   6.232  0.4707  0.1476 -0.0658
 1188TIP3    H225056   4.323  -0.031   6.153  0.1278  0.4721  0.1497
 1189TIP3   OH225057   0.131   5.174  15.022 -0.4830 -0.3404  0.1390
 1189TIP3    H125058   0.190   5.147  14.951 -0.5719  0.4546 -0.2479
 1189TIP3    H225059   0.175   5.249  15.062 -0.7409 -0.3861  0.5062
 1190TIP3   OH225060   3.348   5.899  12.371  0.1657 -0.2220  0.3073
 1190TIP3    H125061   3.263   5.882  12.331  0.0358  1.0056  0.0384
 1190TIP3    H225062   3.330   5.958  12.443  1.0118  1.9895 -1.1857
 1191TIP3   OH225063   0.904   6.183   2.039  0.4836 -0.5300 -0.3189
 1191TIP3    H125064   0.990   6.143   2.026  0.4200 -1.2598  1.3162
 1191TIP3    H225065   0.845   6.109   2.054 -0.1524  0.0415  0.0639
 1192TIP3   OH225066   6.087   5.441  10.958  0.5824 -0.3330 -0.2406
 1192TIP3    H125067   6.089   5.488  10.875  0.6100  1.4954  0.7356
 1192TIP3    H225068   6.126   5.502  11.021  0.9175 -1.8156  1.0562
 1193TIP3   OH225069   2.989   5.691  13.219  0.6124 -0.5237  0.1424
 1193TIP3    H125070   2.969   5.784  13.213  0.9943 -0.4914 -0.8035
 1193TIP3    H225071   3.080   5.684  13.191  0.4639 -1.2306 -0.1845
 1194TIP3   OH225072   6.342   3.329  16.185 -0.0663 -0.3354 -0.3440
 1194TIP3    H125073   6.291   3.340  16.105  1.4841 -0.1322 -1.3375
 1194TIP3    H225074   6.378   3.415  16.204  1.7683 -0.9133 -0.9870
 1195TIP3   OH225075   1.065   3.247   4.294  0.8838 -0.3970 -1.0236
 1195TIP3    H125076   1.041   3.338   4.312  2.4306 -0.3527  1.2845
 1195TIP3    H225077   0.991   3.212   4.244 -0.8009  1.4875 -0.0189
 1196TIP3   OH225078   6.219   6.042   4.324  0.1243 -0.0470 -0.0254
 1196TIP3    H125079   6.295   6.070   4.374 -0.2324  0.4230  0.2597
 1196TIP3    H225080   6.194   6.118   4.272  0.1804 -0.3696 -0.5408
 1197TIP3   OH225081   4.095   4.570   3.661 -0.7965  0.1915 -0.5711
 1197TIP3    H125082   4.050   4.653   3.640 -1.1537 -0.0864 -0.9269
 1197TIP3    H225083   4.080   4.557   3.754  1.4183  1.8243  0.1011
 1198TIP3   OH225084   3.197   0.797   5.776 -0.1415 -0.1653 -0.3564
 1198TIP3    H125085   3.183   0.751   5.694  0.6425 -2.0578  0.5299
 1198TIP3    H225086   3.290   0.819   5.777  0.3053 -1.8772  0.8144
 1199TIP3   OH225087   6.580   5.175  16.985 -0.3222 -0.4422  0.0744
 1199TIP3    H125088   6.596   5.269  16.994 -2.3187 -0.1953  1.7827
 1199TIP3    H225089   6.664   5.139  16.960  0.6507  1.7153 -0.0148
 1200TIP3   OH225090   1.174   4.048  13.304 -0.6230 -0.1868 -0.5046
 1200TIP3    H125091   1.101   4.011  13.354 -0.1704  1.4714  1.5143
 1200TIP3    H225092   1.148   4.139  13.287  0.9661  0.4680  0.3362
 1201TIP3   OH225093   6.166   1.214  12.074  0.4003  0.1917  0.2406
 1201TIP3    H125094   6.151   1.308  12.061 -0.3403 -0.0096 -0.4536
 1201TIP3    H225095   6.079   1.178  12.091  0.6611 -0.3935  0.3735
 1202TIP3   OH225096   3.642   3.555   3.990 -0.8487 -0.0488 -0.4307
 1202TIP3    H125097   3.547   3.543   3.996 -0.7010 -0.8973  0.6199
 1202TIP3    H225098   3.660   3.632   4.044 -0.7053 -1.3835  1.5626
 1203TIP3   OH225099   2.112   2.652   0.567  0.3195  0.4613 -0.1751
 1203TIP3    H125100   2.147   2.696   0.644 -2.8444  3.1528 -0.0399
 1203TIP3    H225101   2.081   2.568   0.600  0.7076  0.7932  1.1111
 1204TIP3   OH225102   1.497   0.414  11.163  0.1557 -0.7204 -0.5668
 1204TIP3    H125103   1.514   0.418  11.257  0.2159  1.8491 -0.6250
 1204TIP3    H225104   1.568   0.359  11.128  2.7594  1.7866  0.4164
 1205TIP3   OH225105   6.686   4.321  12.953 -0.5068 -0.3124  0.4087
 1205TIP3    H125106   6.677   4.402  13.003  2.9029  1.3695 -1.3120
 1205TIP3    H225107   6.626   4.332  12.879  1.3330  1.7470 -0.9103
 1206TIP3   OH225108   1.529   0.234  15.896  0.2408  0.3076 -0.6966
 1206TIP3    H125109   1.500   0.257  15.985  0.8467 -1.9114  0.1378
 1206TIP3    H225110   1.462   0.173  15.864  1.6235 -1.3753 -0.4859
 1207TIP3   OH225111   2.541   3.665   0.523  0.1323  0.2297  0.4962
 1207TIP3    H125112   2.576   3.666   0.612  0.4137 -1.4525  0.4274
 1207TIP3    H225113   2.612   3.631   0.469 -0.3228  0.4276 -0.2444
 1208TIP3   OH225114   6.357   1.241  15.646  0.0426  0.4752  0.2844
 1208TIP3    H125115   6.366   1.210  15.556 -1.4687  0.9316 -0.0474
 1208TIP3    H225116   6.422   1.312  15.654 -0.0920  0.6990 -0.5681
 1209TIP3   OH225117   4.334   5.343   2.720  0.1081  0.0353 -0.5006
 1209TIP3    H125118   4.392   5.283   2.672  0.0777  0.4735 -1.1027
 1209TIP3    H225119   4.391   5.387   2.783 -0.3841 -2.7501  2.1003
 1210TIP3   OH225120   5.709   4.950  12.178  0.0989 -0.2909 -0.9956
 1210TIP3    H125121   5.711   4.869  12.126  2.3475  0.4763 -2.2391
 1210TIP3    H225122   5.616   4.973  12.184 -0.4930 -2.3371 -1.5855
 1211TIP3   OH225123   4.355   1.021   4.217 -0.4620  0.2083 -0.3674
 1211TIP3    H125124   4.447   1.040   4.199  0.3302 -1.5360  1.5059
 1211TIP3    H225125   4.342   0.932   4.185 -0.5471 -0.7978  2.2939
 1212TIP3   OH225126   5.510   0.393   3.930 -0.0561 -0.4553 -0.4935
 1212TIP3    H125127   5.479   0.405   3.841 -0.5041  0.7988 -0.1902
 1212TIP3    H225128   5.445   0.438   3.984  1.3270  0.6717  0.3013
 1213TIP3   OH225129   1.689   5.575  12.299 -0.4625 -0.2543  0.1497
 1213TIP3    H125130   1.644   5.646  12.345 -0.6471  0.4941 -1.1472
 1213TIP3    H225131   1.778   5.577  12.335 -0.8177 -0.2326  1.0618
 1214TIP3   OH225132   2.827   3.593   5.054 -0.1762  0.2834 -0.1414
 1214TIP3    H125133   2.867   3.579   4.969  0.5833 -0.8419  0.3797
 1214TIP3    H225134   2.801   3.506   5.084  1.4710  0.3396  1.6726
 1215TIP3   OH225135   1.258   4.443   2.096  0.3810  0.0718  0.3403
 1215TIP3    H125136   1.173   4.453   2.053  1.4079 -2.0830 -2.5362
 1215TIP3    H225137   1.306   4.523   2.074 -1.0396  1.6904  2.6808
 1216TIP3   OH225138   1.038   3.544   2.780 -0.4320  0.3157  0.2480
 1216TIP3    H125139   0.959   3.586   2.749 -0.2637  0.5362  0.1134
 1216TIP3    H225140   1.020   3.524   2.872 -1.8048 -2.4216 -0.4952
 1217TIP3   OH225141   3.066   0.170  15.802 -0.1686  0.0878 -0.4465
 1217TIP3    H125142   3.136   0.202  15.858  0.7988 -0.6788 -1.1794
 1217TIP3    H225143   2.999   0.239  15.806  0.7210  0.9564  0.0719
 1218TIP3   OH225144   2.884   6.331   3.145 -0.0004  0.3808 -0.7855
 1218TIP3    H125145   2.939   6.342   3.223  0.8684 -2.0075 -0.9761
 1218TIP3    H225146   2.798   6.309   3.180  0.7926 -2.4809 -0.3630
 1219TIP3   OH225147   3.447   1.781   1.848 -0.3340 -0.1010  0.7303
 1219TIP3    H125148   3.434   1.797   1.754 -0.2766  1.0172  0.9090
 1219TIP3    H225149   3.359   1.774   1.884 -0.4345  2.1426  1.0301
 1220TIP3   OH225150   6.461   2.236  11.115  0.8078  0.4236  0.1909
 1220TIP3    H125151   6.425   2.172  11.177 -0.0678  0.9899  0.2736
 1220TIP3    H225152   6.507   2.182  11.050 -0.8428 -0.4022 -0.3610
 1221TIP3   OH225153   5.325   3.354  12.230 -0.2935 -0.0483 -0.7626
 1221TIP3    H125154   5.406   3.387  12.191  1.8575 -1.6232  1.9378
 1221TIP3    H225155   5.295   3.287  12.169  1.3948 -0.5760 -1.0720
 1222TIP3   OH225156   4.883   6.186   4.185 -0.3537 -0.0559  0.6077
 1222TIP3    H125157   4.895   6.227   4.270  1.9919  0.7601 -0.0599
 1222TIP3    H225158   4.836   6.251   4.133  2.3265  1.4331 -0.0899
 1223TIP3   OH225159   6.017   0.931  16.795  0.5912  0.1282  0.2294
 1223TIP3    H125160   6.057   0.845  16.787 -0.8557 -0.4704 -1.1658
 1223TIP3    H225161   5.932   0.914  16.834  0.2938  0.9174 -0.0525
 1224TIP3   OH225162   1.236   6.210  13.331 -0.1961  0.3130  0.2286
 1224TIP3    H125163   1.215   6.276  13.264  1.6514  0.4361 -0.2803
 1224TIP3    H225164   1.301   6.252  13.386  0.9694 -1.0470 -0.0574
 1225TIP3   OH225165   4.693   0.344   4.858  0.2248  0.7981  0.3877
 1225TIP3    H125166   4.748   0.280   4.812  1.8401  2.2278  0.2289
 1225TIP3    H225167   4.605   0.306   4.855  0.8329 -0.6357 -1.1234
 1226TIP3   OH225168   4.817   5.612  12.732  0.5395 -0.2789  0.6432
 1226TIP3    H125169   4.841   5.527  12.696  0.9604 -0.0741  0.4391
 1226TIP3    H225170   4.722   5.619  12.717  0.6586 -0.3248 -0.1378
 1227TIP3   OH225171   2.717   3.121   0.185  0.2200 -0.2905 -0.1370
 1227TIP3    H125172   2.748   3.195   0.134  1.1558 -0.6129 -0.0651
 1227TIP3    H225173   2.629   3.146   0.213  1.1512  1.5832  1.3893
 1228TIP3   OH225174   3.109   1.205   3.734  0.1028  0.3353  0.1810
 1228TIP3    H125175   3.102   1.219   3.639  2.1828  1.4520  0.1414
 1228TIP3    H225176   3.116   1.110   3.744  2.3845  0.3137 -1.0451
 1229TIP3   OH225177   3.819   0.686   1.330  0.0709  0.2313 -0.3295
 1229TIP3    H125178   3.862   0.771   1.328 -1.2034  0.9352 -2.9752
 1229TIP3    H225179   3.838   0.650   1.417  2.7999  2.0641 -0.0715
 1230TIP3   OH225180   5.624   1.625   0.184 -0.5643 -0.5483 -0.1294
 1230TIP3    H125181   5.552   1.651   0.241 -0.1372 -0.6711  0.4795
 1230TIP3    H225182   5.614   1.680   0.106 -1.0590 -0.2588  0.1329
 1231TIP3   OH225183   2.169   1.098  16.128  0.0530  0.1088  0.5101
 1231TIP3    H125184   2.104   1.105  16.058 -1.2871  2.4406  1.8344
 1231TIP3    H225185   2.117   1.097  16.209  1.6128  0.2695  1.5661
 1232TIP3   OH225186   6.470   4.658  12.759  0.0243 -0.2734  0.2453
 1232TIP3    H125187   6.518   4.740  12.750 -0.1818 -0.1551  0.2259
 1232TIP3    H225188   6.417   4.669  12.838  0.1570 -0.4684  0.3631
 1233TIP3   OH225189   3.502   3.299  16.739 -0.0302 -0.8417 -0.1058
 1233TIP3    H125190   3.555   3.342  16.806 -0.3582 -1.2232  0.4101
 1233TIP3    H225191   3.553   3.222  16.714 -0.2942 -1.1648  0.3319
 1234TIP3   OH225192   6.284   4.870  16.758  0.0186  0.3693  0.1519
 1234TIP3    H125193   6.334   4.833  16.685  1.6331  1.5939  0.5643
 1234TIP3    H225194   6.233   4.941  16.720  0.2212  0.4720  0.0708
 1235TIP3   OH225195   4.885   1.587   2.782  0.5584 -0.6966  0.0195
 1235TIP3    H125196   4.974   1.573   2.812  1.6083  2.7453 -0.9745
 1235TIP3    H225197   4.889   1.573   2.687  0.0782 -0.3583 -0.0576
 1236TIP3   OH225198   0.945   2.538   1.590 -0.3560 -0.1241 -0.8019
 1236TIP3    H125199   0.966   2.500   1.504 -0.5791 -0.6292 -0.6383
 1236TIP3    H225200   1.025   2.582   1.617  0.6896 -2.4037  0.0328
 1237TIP3   OH225201   5.417   5.922   5.758  0.0100 -0.5001 -0.1020
 1237TIP3    H125202   5.361   5.939   5.683  0.1379  0.0192 -0.0838
 1237TIP3    H225203   5.506   5.920   5.721  0.1145  0.2147  0.1018
 1238TIP3   OH225204   3.944   6.292   1.741 -0.2718  0.1670 -0.0051
 1238TIP3    H125205   3.957   6.358   1.810 -1.2540  0.9423 -0.5432
 1238TIP3    H225206   3.937   6.343   1.660 -0.2541 -0.6598 -0.5387
 1239TIP3   OH225207   0.542   6.279  13.586 -0.6526  0.0405 -0.1435
 1239TIP3    H125208   0.593   6.226  13.525  0.9067  1.1606  0.1063
 1239TIP3    H225209   0.456   6.238  13.589 -0.4748 -0.6039 -2.3398
 1240TIP3   OH225210   3.696   6.593   2.230  0.3006  0.1185 -0.1008
 1240TIP3    H125211   3.781   6.627   2.259 -1.0983  1.3842  2.9302
 1240TIP3    H225212   3.650   6.670   2.195  0.3081 -0.5400 -1.6537
 1241TIP3   OH225213   5.185   2.154   4.111  0.0639 -0.1603  0.6501
 1241TIP3    H125214   5.152   2.080   4.162 -1.7714  0.7613  0.8755
 1241TIP3    H225215   5.182   2.123   4.020 -0.4675 -0.4503  0.7632
 1242TIP3   OH225216   2.013   0.250  16.318  0.4256  0.5263 -0.7105
 1242TIP3    H125217   1.954   0.194  16.267 -0.7167  1.9139 -0.9739
 1242TIP3    H225218   1.975   0.251  16.406  0.1803  1.2238 -0.8194
 1243TIP3   OH225219   4.250   3.080   4.963 -0.3385 -0.2000 -0.3125
 1243TIP3    H125220   4.280   3.073   4.872  0.1167 -0.6578 -0.1292
 1243TIP3    H225221   4.220   3.170   4.971  2.2042  0.6932 -0.1171
 1244TIP3   OH225222   0.043   4.620  12.973 -0.1922  0.2362 -0.2339
 1244TIP3    H125223   0.068   4.529  12.982 -2.8084 -0.6211 -0.6821
 1244TIP3    H225224  -0.038   4.628  13.024  0.7226  2.7222  1.0520
 1245TIP3   OH225225   5.152   6.046  13.433  0.0980 -0.3981  0.1512
 1245TIP3    H125226   5.195   6.063  13.517 -1.0745  0.4488  0.6246
 1245TIP3    H225227   5.058   6.049  13.454 -0.2173  0.0112 -1.2205
 1246TIP3   OH225228   5.274   4.858  15.919  0.2258 -0.4130  0.0377
 1246TIP3    H125229   5.199   4.806  15.947 -0.1428 -0.4901 -1.0126
 1246TIP3    H225230   5.240   4.909  15.844  0.9581  0.2747  0.1589
 1247TIP3   OH225231   0.004   3.161   1.682  0.1972 -0.4656  0.6851
 1247TIP3    H125232  -0.076   3.137   1.730 -0.5519  0.3791 -0.0901
 1247TIP3    H225233   0.037   3.079   1.646 -0.2351 -0.8457  1.1400
 1248TIP3   OH225234   0.284   3.645   3.633 -0.1307 -0.3877  0.1667
 1248TIP3    H125235   0.263   3.598   3.714  1.6042  0.7530  1.3272
 1248TIP3    H225236   0.310   3.576   3.572 -1.3502 -1.2532  0.5720
 1249TIP3   OH225237   0.819   3.605   1.384 -0.1076 -0.4460 -0.2935
 1249TIP3    H125238   0.839   3.529   1.329 -2.4067 -0.9347 -0.5239
 1249TIP3    H225239   0.902   3.653   1.387  0.8852 -1.9104 -1.7669
 1250TIP3   OH225240   3.614   3.637   1.906  0.4251  0.3329  0.5158
 1250TIP3    H125241   3.599   3.719   1.860 -3.0557  0.4598  1.5680
 1250TIP3    H225242   3.597   3.657   1.998 -0.9772 -1.5606  0.7488
 1251TIP3   OH225243   1.494   4.834  13.822  0.3913 -0.1479  0.8397
 1251TIP3    H125244   1.475   4.905  13.761  1.7982  0.0938  0.6339
 1251TIP3    H225245   1.425   4.770  13.807  0.1384  0.3628 -0.2753
 1252TIP3   OH225246   4.049   1.859   3.535  0.1176  0.1273  0.0329
 1252TIP3    H125247   4.103   1.880   3.459  0.7283  0.9156  0.6568
 1252TIP3    H225248   4.080   1.774   3.565  0.7886  0.4159  0.1743
 1253TIP3   OH225249   1.979   6.056   3.022 -0.4206  0.3598  0.2226
 1253TIP3    H125250   1.889   6.047   2.991 -1.5646  1.3530  3.0082
 1253TIP3    H225251   2.010   5.965   3.030 -1.5823 -0.0430  0.3816
 1254TIP3   OH225252   6.389   0.556  15.229 -0.0891  0.2257 -0.6579
 1254TIP3    H125253   6.313   0.498  15.228 -0.0141  0.1195 -0.3127
 1254TIP3    H225254   6.355   0.640  15.200 -0.3643  0.2077 -0.3970
 1255TIP3   OH225255   6.510   6.516   5.111  0.2161 -0.0800  0.2666
 1255TIP3    H125256   6.533   6.606   5.131  1.1160 -0.4903  1.1468
 1255TIP3    H225257   6.490   6.477   5.196 -0.5303 -0.6186 -0.1455
 1256TIP3   OH225258   3.768   0.953  16.180 -0.3951  0.1735  0.2137
 1256TIP3    H125259   3.742   0.876  16.231 -0.7340  0.1284 -0.0268
 1256TIP3    H225260   3.686   1.000  16.165 -0.3091  0.1463 -0.3569
 1257TIP3   OH225261   5.996   0.308   4.781 -0.3373  0.3101  0.0115
 1257TIP3    H125262   5.937   0.286   4.708 -0.5442  1.5095 -0.1974
 1257TIP3    H225263   5.957   0.384   4.822  1.3118  1.4741 -0.4496
 1258TIP3   OH225264   6.488   4.208   2.099 -0.0668  0.7036  0.5452
 1258TIP3    H125265   6.443   4.205   2.183 -1.6738  0.3155 -0.2760
 1258TIP3    H225266   6.417   4.210   2.034  1.1171  0.6193 -0.8071
 1259TIP3   OH225267   0.625   4.460   5.230 -0.2810 -0.3374  0.0443
 1259TIP3    H125268   0.541   4.504   5.243 -0.0431  0.3088 -0.5333
 1259TIP3    H225269   0.691   4.527   5.248  0.0959 -0.6064 -0.3074
 1260TIP3   OH225270   4.239   3.672  12.816  0.5515 -0.0916  0.7348
 1260TIP3    H125271   4.317   3.637  12.857  0.0137 -2.4325 -0.1028
 1260TIP3    H225272   4.177   3.599  12.814 -0.9780  1.1470 -0.3499
 1261TIP3   OH225273   4.569   3.564   5.742  0.1209 -0.0342  0.2630
 1261TIP3    H125274   4.532   3.653   5.738  0.6143  0.1616 -0.0796
 1261TIP3    H225275   4.528   3.525   5.819 -1.9790 -0.3727 -0.9644
 1262TIP3   OH225276   1.459   6.514   5.893  0.1356 -0.2378 -0.1544
 1262TIP3    H125277   1.486   6.570   5.966  1.3733  0.8176 -1.3869
 1262TIP3    H225278   1.538   6.465   5.870  0.0425  0.2046 -1.4668
 1263TIP3   OH225279   5.226   2.370  14.206 -0.1930  0.9984  0.0979
 1263TIP3    H125280   5.276   2.326  14.275 -1.2826 -1.3268 -0.5027
 1263TIP3    H225281   5.234   2.313  14.130 -0.8420  2.3918 -1.0623
 1264TIP3   OH225282   3.645   5.774  13.363  0.4872 -0.6940  0.2421
 1264TIP3    H125283   3.706   5.770  13.289 -1.2024  1.0992 -1.3536
 1264TIP3    H225284   3.621   5.683  13.379  1.1994 -1.1651 -1.1761
 1265TIP3   OH225285   5.052   0.716   1.468  0.7576 -0.1214 -0.2020
 1265TIP3    H125286   5.078   0.737   1.557 -0.7949 -2.0014  0.7784
 1265TIP3    H225287   5.059   0.621   1.463  1.4609 -0.0180 -2.3419
 1266TIP3   OH225288   4.948   1.538  15.372  0.1196  0.2920  0.2621
 1266TIP3    H125289   4.930   1.622  15.413  0.8140  1.0834 -1.0039
 1266TIP3    H225290   4.959   1.558  15.279  0.3376 -1.1920 -0.0618
 1267TIP3   OH225291   4.310   0.128   0.567  0.1435 -0.3008  0.0481
 1267TIP3    H125292   4.229   0.107   0.613 -1.3791  1.0896 -1.8336
 1267TIP3    H225293   4.338   0.212   0.604 -1.4919  1.2045 -1.8718
 1268TIP3   OH225294   2.675   5.854  15.510  0.1584 -0.1942  0.5296
 1268TIP3    H125295   2.721   5.827  15.589  0.5908  0.6450  0.5746
 1268TIP3    H225296   2.683   5.949  15.509 -0.8284 -0.1059  0.0742
 1269TIP3   OH225297   0.767   4.784   1.837 -0.6557 -0.1657 -0.6979
 1269TIP3    H125298   0.804   4.734   1.764  1.7004 -0.5133  0.6281
 1269TIP3    H225299   0.814   4.867   1.836  1.1948 -1.0824  1.7656
 1270TIP3   OH225300   4.976   6.282   0.646 -0.4155  0.7637  0.0611
 1270TIP3    H125301   5.041   6.299   0.714  0.8108  0.9578 -1.1153
 1270TIP3    H225302   5.000   6.197   0.610 -0.1475  1.3011 -1.0851
 1271TIP3   OH225303   6.234   2.418  13.863 -0.1844  0.3088 -0.4452
 1271TIP3    H125304   6.326   2.442  13.850 -0.5259  2.0818  0.0212
 1271TIP3    H225305   6.229   2.392  13.955  0.2684 -2.1565 -1.0581
 1272TIP3   OH225306   2.436   4.900  16.809  0.0392 -0.7711  0.7767
 1272TIP3    H125307   2.354   4.934  16.775  0.6711  0.9742  0.8687
 1272TIP3    H225308   2.413   4.818  16.852 -1.6268 -0.3583  0.7220
 1273TIP3   OH225309   0.323   6.565   5.068  0.2893  0.0934 -0.1004
 1273TIP3    H125310   0.403   6.560   5.016  0.2611  1.0144 -0.2529
 1273TIP3    H225311   0.352   6.552   5.158  0.8088  1.6173 -0.0160
 1274TIP3   OH225312   3.595   2.566  14.123 -0.0030  0.3271 -0.3571
 1274TIP3    H125313   3.677   2.522  14.147 -0.4897 -0.1486  0.4864
 1274TIP3    H225314   3.622   2.652  14.090  0.8314  0.1933 -0.0447
 1275TIP3   OH225315   6.081   2.178   4.544  0.0006 -0.0033  0.0835
 1275TIP3    H125316   6.044   2.138   4.465  1.4173 -0.3374 -0.4314
 1275TIP3    H225317   6.036   2.263   4.551 -0.2546 -0.0360 -0.9985
 1276TIP3   OH225318   6.802   3.343  11.102 -0.2619  0.0650 -0.2133
 1276TIP3    H125319   6.833   3.253  11.092 -1.1003 -0.1316 -1.3386
 1276TIP3    H225320   6.706   3.336  11.097 -0.3040  1.2224 -2.7724
 1277TIP3   OH225321   0.055   5.251  12.123 -0.1720  0.3392 -0.3234
 1277TIP3    H125322   0.075   5.204  12.042  0.3143 -0.3267  0.1732
 1277TIP3    H225323   0.046   5.342  12.096  0.9381  0.2763 -0.9920
 1278TIP3   OH225324   6.664   0.029   4.385 -0.0658 -0.0455  0.1326
 1278TIP3    H125325   6.593   0.034   4.322  1.5760 -0.4874 -1.8607
 1278TIP3    H225326   6.659   0.110   4.435 -1.4363  0.2901 -0.5209
 1279TIP3   OH225327   3.286   1.683  16.745 -0.5423  0.4585 -0.2836
 1279TIP3    H125328   3.327   1.664  16.661  1.3218 -0.7198  0.8285
 1279TIP3    H225329   3.199   1.644  16.739 -0.2519 -0.0464 -1.4769
 1280TIP3   OH225330   6.130   6.033   0.460  0.2418 -0.2447  1.0279
 1280TIP3    H125331   6.119   6.089   0.384 -0.4252 -1.7359 -0.0302
 1280TIP3    H225332   6.048   5.983   0.466 -0.1332  0.5204  3.3413
 1281TIP3   OH225333   0.389   4.842  12.566 -0.7023 -0.4881 -0.0076
 1281TIP3    H125334   0.441   4.908  12.612 -1.6728  0.1861  0.1684
 1281TIP3    H225335   0.418   4.847  12.475 -1.1816  0.6376 -0.1202
 1282TIP3   OH225336   0.579   4.193   5.099  0.1748 -0.4018 -0.1965
 1282TIP3    H125337   0.580   4.269   5.158  0.2488  0.4262 -1.2370
 1282TIP3    H225338   0.665   4.153   5.110  0.1760 -0.2753  0.2790
 1283TIP3   OH225339   4.671   3.432   3.180 -0.6155 -0.0718 -0.7138
 1283TIP3    H125340   4.635   3.345   3.193 -0.4052 -0.0018  0.4291
 1283TIP3    H225341   4.672   3.471   3.267  0.2847  0.6805 -1.0442
 1284TIP3   OH225342   5.095   2.411   1.878 -0.1603 -0.0449 -0.3830
 1284TIP3    H125343   5.083   2.405   1.783 -0.0264  0.0866 -0.4096
 1284TIP3    H225344   5.086   2.321   1.909  0.4802 -0.1963 -0.6051
 1285TIP3   OH225345   1.640   5.547   3.229  0.3709 -0.6648  0.2505
 1285TIP3    H125346   1.712   5.497   3.267  0.7137 -1.0313 -0.8356
 1285TIP3    H225347   1.613   5.496   3.152 -0.5901 -0.1758  0.2409
 1286TIP3   OH225348   6.288   2.032   5.704 -0.0879  0.1643 -0.5176
 1286TIP3    H125349   6.262   1.940   5.704 -0.3317  0.2324 -0.1458
 1286TIP3    H225350   6.365   2.034   5.647  0.6458 -0.4799  0.4168
 1287TIP3   OH225351   4.091   0.286   6.533 -0.3622 -0.7268  0.1487
 1287TIP3    H125352   4.034   0.223   6.577  0.2695 -0.0988  1.9997
 1287TIP3    H225353   4.179   0.249   6.543  0.1963  0.9762  2.4717
 1288TIP3   OH225354   6.247   4.251  12.233  0.0372 -1.0834  0.2183
 1288TIP3    H125355   6.218   4.287  12.149  1.0629 -2.3525 -0.7250
 1288TIP3    H225356   6.343   4.253  12.228  0.2270  1.3891  2.5428
 1289TIP3   OH225357   4.825   1.429   0.143  0.1782 -0.1295 -0.7047
 1289TIP3    H125358   4.758   1.467   0.199  3.0926  2.2301  1.4583
 1289TIP3    H225359   4.864   1.359   0.196 -0.4229 -1.4438 -1.9213
 1290TIP3   OH225360   5.265   2.536   2.102 -0.6163 -0.0607  0.7946
 1290TIP3    H125361   5.216   2.482   2.041 -0.7143 -1.1837  1.8442
 1290TIP3    H225362   5.297   2.475   2.168 -0.1120  1.0609  1.6110
 1291TIP3   OH225363   4.061   6.328  16.571 -0.4082  0.1027  0.7145
 1291TIP3    H125364   4.051   6.238  16.602 -0.8889 -0.0468  0.1463
 1291TIP3    H225365   4.111   6.372  16.640  0.8817 -0.8962  0.4465
 1292TIP3   OH225366   2.476   3.716   4.718  0.8494 -0.0170 -0.4610
 1292TIP3    H125367   2.563   3.681   4.737  0.9848  1.1889  1.4681
 1292TIP3    H225368   2.418   3.666   4.775  0.6240  0.7472 -0.0084
 1293TIP3   OH225369   2.865   5.728   3.486  0.0587  0.1897  0.2882
 1293TIP3    H125370   2.836   5.722   3.395 -0.9634  0.7368  0.5573
 1293TIP3    H225371   2.805   5.791   3.526  2.2161  2.1685  0.6603
 1294TIP3   OH225372   2.617   3.331  12.765 -0.3143 -0.4752 -0.0357
 1294TIP3    H125373   2.678   3.266  12.731 -0.1578 -1.4867  2.0090
 1294TIP3    H225374   2.644   3.343  12.856 -0.8066  1.9386 -0.1395
 1295TIP3   OH225375   4.519   5.672   4.814 -0.4609  0.3191  0.6461
 1295TIP3    H125376   4.541   5.763   4.794 -1.0316  0.5120  0.8837
 1295TIP3    H225377   4.426   5.674   4.837 -0.7502 -0.4827 -0.3696
 1296TIP3   OH225378   0.704   1.239   2.129 -0.5684  0.2667 -0.2891
 1296TIP3    H125379   0.610   1.232   2.114 -1.0609  1.4531  1.8394
 1296TIP3    H225380   0.744   1.226   2.043 -2.4583 -3.2554 -0.8292
 1297TIP3   OH225381   3.076   5.293   1.456  0.0952  0.1016 -0.5509
 1297TIP3    H125382   3.086   5.243   1.374 -1.2573 -0.2946 -0.4971
 1297TIP3    H225383   3.006   5.249   1.503 -0.2070  1.2569  0.1285
 1298TIP3   OH225384   4.719   5.125  15.381  0.5162 -0.2938 -0.0760
 1298TIP3    H125385   4.689   5.046  15.337  0.2713 -0.1598 -0.1535
 1298TIP3    H225386   4.737   5.187  15.311 -0.0255 -0.0279  0.0112
 1299TIP3   OH225387   1.933   0.339  15.711 -0.1896 -0.3535  0.3504
 1299TIP3    H125388   1.882   0.296  15.642  2.2685 -0.7373 -1.3591
 1299TIP3    H225389   1.958   0.268  15.770  1.1030 -0.8029 -0.6732
 1300TIP3   OH225390   3.512   0.567  15.871 -0.2805  0.3140 -0.4047
 1300TIP3    H125391   3.448   0.582  15.940 -0.0840  0.1951 -0.1948
 1300TIP3    H225392   3.529   0.472  15.874 -0.9536  0.1593 -1.2174
 1301TIP3   OH225393   5.901   5.557   4.498  0.1116 -0.0330 -0.0983
 1301TIP3    H125394   5.955   5.479   4.505  1.3727  0.8005 -0.2453
 1301TIP3    H225395   5.914   5.587   4.408  0.3664  0.8446  0.2166
 1302TIP3   OH225396   3.042   3.168   1.458  0.1264 -0.6153 -0.3852
 1302TIP3    H125397   3.007   3.253   1.483 -1.6669 -0.8474 -1.9128
 1302TIP3    H225398   2.970   3.124   1.414  1.8350 -1.8094 -2.1869
 1303TIP3   OH225399   3.182   6.513   0.160 -0.0162 -0.4520  1.1040
 1303TIP3    H125400   3.276   6.501   0.152 -0.2069 -1.0383 -0.8201
 1303TIP3    H225401   3.150   6.429   0.193 -0.0134 -0.8557  0.1186
 1304TIP3   OH225402   5.981   2.326  14.020  0.3525 -0.2716 -0.2822
 1304TIP3    H125403   6.046   2.322  14.090 -1.3649 -0.1901  1.3868
 1304TIP3    H225404   6.020   2.275  13.948  0.5459 -3.9406  2.1482
 1305TIP3   OH225405   4.775   1.729   4.728 -0.2830  0.4602  0.0760
 1305TIP3    H125406   4.745   1.638   4.731 -1.1128  0.7183 -0.2612
 1305TIP3    H225407   4.782   1.749   4.635  1.6971  0.1772  0.1241
 1306TIP3   OH225408   5.430   4.716  12.871 -0.3528 -0.0568 -0.0549
 1306TIP3    H125409   5.383   4.714  12.955 -2.1906  1.0004 -0.9879
 1306TIP3    H225410   5.360   4.722  12.805  1.0747  0.1888 -1.6044
 1307TIP3   OH225411   3.094   5.746  14.117  0.1678  0.5344 -0.6395
 1307TIP3    H125412   3.097   5.772  14.209  0.1680 -1.4173 -0.0377
 1307TIP3    H225413   3.184   5.753  14.087  0.5292 -0.6734  0.0992
 1308TIP3   OH225414   0.071   6.360  15.208 -0.6304 -0.1937  0.4560
 1308TIP3    H125415   0.119   6.440  15.224  0.2810 -0.2523 -1.6906
 1308TIP3    H225416   0.026   6.375  15.124 -0.2952 -1.9433 -0.0864
 1309TIP3   OH225417   1.605   1.927  12.456  0.4619  0.6918 -0.6100
 1309TIP3    H125418   1.527   1.919  12.402  0.3611 -0.6879 -0.2913
 1309TIP3    H225419   1.604   2.018  12.485 -0.5003  0.9527 -1.3856
 1310TIP3   OH225420   1.288   1.462  12.440 -0.8371 -0.4499 -0.0517
 1310TIP3    H125421   1.350   1.433  12.507 -0.3601 -0.8127 -0.6304
 1310TIP3    H225422   1.231   1.386  12.426 -1.8300  0.0862  0.9201
 1311TIP3   OH225423   0.053   2.132  10.756  0.2133  0.0098 -0.1003
 1311TIP3    H125424   0.008   2.193  10.814 -1.0351 -1.3898  0.4918
 1311TIP3    H225425   0.109   2.080  10.814  1.2773  0.5692 -0.5940
 1312TIP3   OH225426   2.885   0.106   1.296 -0.4941 -0.5006  0.6084
 1312TIP3    H125427   2.955   0.043   1.312 -0.1164  0.2078  1.9465
 1312TIP3    H225428   2.924   0.173   1.239 -0.0817 -0.1338  1.3120
 1313TIP3   OH225429   5.527   0.080   0.036  0.1346 -0.5350 -0.0915
 1313TIP3    H125430   5.490   0.169   0.042  0.2363 -0.5704  1.5336
 1313TIP3    H225431   5.588   0.085  -0.038  1.3743  1.2518  0.9529
 1314TIP3   OH225432   3.668   4.798   3.345 -0.6364  0.8040  0.3271
 1314TIP3    H125433   3.611   4.805   3.268 -0.0227  2.7954 -0.0275
 1314TIP3    H225434   3.609   4.805   3.420 -1.5137 -3.3009  0.2239
 1315TIP3   OH225435   0.794   1.692   1.041 -0.1813 -0.7275  0.9823
 1315TIP3    H125436   0.836   1.763   1.091  0.4052 -0.1904 -0.2325
 1315TIP3    H225437   0.730   1.737   0.985  0.5397 -1.0857 -0.1516
 1316TIP3   OH225438   5.337   5.322  13.082  0.0305  1.2308 -0.0091
 1316TIP3    H125439   5.354   5.384  13.153 -1.6717  1.0601  0.5781
 1316TIP3    H225440   5.278   5.369  13.022 -0.1989  0.6483 -0.2492
 1317TIP3   OH225441   1.109   2.985   0.066  0.1580 -0.1839  0.0148
 1317TIP3    H125442   1.108   3.060   0.006  1.0072  0.4999  0.8184
 1317TIP3    H225443   1.057   2.918   0.022 -1.9567  1.4007 -0.0629
 1318TIP3   OH225444   0.156   4.017   0.050  0.1520  0.1497  0.6938
 1318TIP3    H125445   0.181   4.104   0.080 -1.0127  0.1705  1.6806
 1318TIP3    H225446   0.213   3.957   0.098  1.2100  0.3625 -0.2621
 1319TIP3   OH225447   6.175   2.369   3.462 -0.3079  0.1837 -0.3696
 1319TIP3    H125448   6.158   2.393   3.371  0.8965 -0.0611 -0.6745
 1319TIP3    H225449   6.091   2.382   3.506 -1.0331 -0.1391 -1.6028
 1320TIP3   OH225450   5.166   6.007  15.669 -0.3951 -0.2322  0.4408
 1320TIP3    H125451   5.194   5.918  15.689  0.5051  0.0803  0.6121
 1320TIP3    H225452   5.091   5.995  15.611  0.0798 -1.1034 -0.0238
 1321TIP3   OH225453   3.154   5.393   4.597  0.6978 -0.6283 -0.3869
 1321TIP3    H125454   3.198   5.371   4.515 -1.5478 -1.2908 -1.5180
 1321TIP3    H225455   3.069   5.349   4.590  0.1779 -0.1404  2.0255
 1322TIP3   OH225456   6.637   1.984  12.848  0.1397 -1.0315  0.1871
 1322TIP3    H125457   6.566   2.019  12.794  0.2899 -0.2356  0.5043
 1322TIP3    H225458   6.675   1.914  12.794  1.0457  0.5118 -1.2408
 1323TIP3   OH225459   6.766   4.147   2.081  0.2170  0.2194 -0.2164
 1323TIP3    H125460   6.673   4.167   2.087  0.4644  1.1712  0.7886
 1323TIP3    H225461   6.776   4.062   2.124  0.0047  0.7725  0.9600
 1324TIP3   OH225462   4.600   5.089   4.444  0.3223  0.2852 -0.1093
 1324TIP3    H125463   4.636   5.142   4.373  1.3783  0.0174  0.2062
 1324TIP3    H225464   4.587   5.002   4.404  1.0419  0.0983  0.0474
 1325TIP3   OH225465   2.315   5.928  11.587  0.3228 -0.6845 -0.2693
 1325TIP3    H125466   2.283   5.999  11.643 -0.3234 -1.5564  0.5065
 1325TIP3    H225467   2.405   5.913  11.616  0.6145  0.1074 -0.7459
 1326TIP3   OH225468   5.310   5.555   2.731 -0.7062  0.1376  0.8947
 1326TIP3    H125469   5.351   5.479   2.690  0.6303  1.2226  0.1119
 1326TIP3    H225470   5.351   5.560   2.817  1.4454  1.6087 -0.1337
 1327TIP3   OH225471   0.359   3.969  11.381  0.0660  0.3614  0.7551
 1327TIP3    H125472   0.356   4.055  11.339  0.3089 -0.5916 -1.3931
 1327TIP3    H225473   0.402   3.913  11.316  0.1450 -1.3297  2.2006
 1328TIP3   OH225474   1.477   4.860   5.135  0.5077  0.0068 -0.3136
 1328TIP3    H125475   1.469   4.829   5.045  1.1353 -0.5708 -0.1797
 1328TIP3    H225476   1.392   4.845   5.174  0.3931 -0.2411 -0.6581
 1329TIP3   OH225477   5.550   5.961   2.192 -0.8931  0.4267 -0.5348
 1329TIP3    H125478   5.455   5.952   2.194 -0.7235 -2.3673 -0.1167
 1329TIP3    H225479   5.578   5.946   2.282 -0.0750  2.9375 -0.2901
 1330TIP3   OH225480   4.429   4.097  15.655  0.1089 -0.2334  0.5352
 1330TIP3    H125481   4.408   4.120  15.564 -1.8295  0.1572  1.0351
 1330TIP3    H225482   4.449   4.180  15.697 -1.0369 -0.1346  0.9271
 1331TIP3   OH225483   3.535   3.169   0.595 -0.3116  0.4004  0.6007
 1331TIP3    H125484   3.519   3.250   0.644  0.1351  2.1746 -1.9813
 1331TIP3    H225485   3.449   3.128   0.588 -0.2546 -0.4849  3.6007
 1332TIP3   OH225486   4.977   5.657   4.850 -0.2436  0.0318 -0.2279
 1332TIP3    H125487   5.048   5.595   4.866 -0.3890  0.2414  1.4170
 1332TIP3    H225488   5.002   5.701   4.769  0.1506 -1.7363 -1.1285
 1333TIP3   OH225489   4.060   1.465   2.366  0.2710  0.7666  0.6580
 1333TIP3    H125490   4.087   1.394   2.309  2.3089  0.7910  1.5144
 1333TIP3    H225491   4.023   1.531   2.307 -1.5672 -0.8902 -0.1567
 1334TIP3   OH225492   6.302   2.236   4.677 -0.0618 -0.3957 -0.2072
 1334TIP3    H125493   6.215   2.210   4.648 -0.5047  0.6825  0.0992
 1334TIP3    H225494   6.322   2.314   4.625  0.4117 -0.2201  0.2324
 1335TIP3   OH225495   1.780   2.293  14.454 -0.1734  0.7751 -0.4606
 1335TIP3    H125496   1.731   2.232  14.510 -0.9660  1.0916 -0.7833
 1335TIP3    H225497   1.775   2.255  14.367  0.2104  0.7839 -0.4876
 1336TIP3   OH225498   2.743   2.492   2.532  0.0677 -0.5140 -0.1942
 1336TIP3    H125499   2.665   2.514   2.582  0.2262 -0.9927  0.2721
 1336TIP3    H225500   2.742   2.396   2.527  1.3699 -0.6284  1.0690
 1337TIP3   OH225501   5.444   1.528   6.510  0.1965 -0.1679 -0.0628
 1337TIP3    H125502   5.494   1.457   6.470  0.6294  0.1895 -0.1584
 1337TIP3    H225503   5.500   1.605   6.502 -1.2372  0.7757 -2.2617
 1338TIP3   OH225504   1.823   1.296  11.658 -0.5608  0.2633 -0.1692
 1338TIP3    H125505   1.892   1.288  11.723 -0.6509 -0.2519 -0.1316
 1338TIP3    H225506   1.867   1.331  11.580 -0.0759 -0.9032 -0.4344
 1339TIP3   OH225507   0.594   5.388  13.152 -0.2538  0.2271  0.2793
 1339TIP3    H125508   0.588   5.434  13.236  0.4141  0.8990 -0.0238
 1339TIP3    H225509   0.648   5.311  13.171  0.8719  0.9786  0.2458
 1340TIP3   OH225510   0.946   6.013  14.087  0.6782  0.2135 -0.5032
 1340TIP3    H125511   0.853   5.993  14.081  0.6629  0.6145 -1.9692
 1340TIP3    H225512   0.953   6.072  14.163 -0.1076 -0.5415  0.1776
 1341TIP3   OH225513   2.498   3.162  13.823 -0.0571  0.2754  0.0012
 1341TIP3    H125514   2.577   3.121  13.856  0.0651 -0.4267 -1.1232
 1341TIP3    H225515   2.474   3.225  13.891  2.3083  1.6138 -0.3094
 1342TIP3   OH225516   3.589   5.534  11.801 -0.3607 -0.2008 -0.3428
 1342TIP3    H125517   3.675   5.504  11.830 -1.4447 -2.0493  1.1577
 1342TIP3    H225518   3.585   5.509  11.709  0.5543 -0.4107 -0.3403
 1343TIP3   OH225519   4.544   1.962  11.215 -0.6139 -0.0496 -0.3684
 1343TIP3    H125520   4.636   1.962  11.191 -0.6487  0.5502 -0.5153
 1343TIP3    H225521   4.497   1.959  11.131 -0.7368 -1.4644 -0.2737
 1344TIP3   OH225522   2.613   0.843   3.333  0.2945 -0.2065  0.0124
 1344TIP3    H125523   2.548   0.822   3.399  1.8889  1.2880  2.1856
 1344TIP3    H225524   2.694   0.805   3.365  1.5359  2.2683  0.0385
 1345TIP3   OH225525   5.098   1.646  16.525  0.0917  0.1808  0.3124
 1345TIP3    H125526   5.126   1.710  16.459  1.2665  2.7121  3.0596
 1345TIP3    H225527   5.135   1.563  16.495  1.6697  1.4494 -1.5308
 1346TIP3   OH225528   6.224   4.580   1.529  0.0290  0.5114  0.9764
 1346TIP3    H125529   6.238   4.655   1.472 -1.2348  2.5665  3.1998
 1346TIP3    H225530   6.311   4.540   1.538  0.6076  1.3005 -0.7296
 1347TIP3   OH225531   2.825   6.439   4.255  0.2985  0.7043 -0.1968
 1347TIP3    H125532   2.770   6.469   4.182 -1.3929  0.7627  1.0224
 1347TIP3    H225533   2.879   6.370   4.218  0.6671  1.8420 -1.8759
 1348TIP3   OH225534   4.807   4.073  15.181  0.1065  0.1155 -0.5938
 1348TIP3    H125535   4.816   4.159  15.139  2.0124  1.1338  1.6598
 1348TIP3    H225536   4.752   4.090  15.257  1.0277 -0.5091  0.2221
 1349TIP3   OH225537   2.818   2.009  11.433 -0.7381 -0.4008 -0.2774
 1349TIP3    H125538   2.822   2.035  11.526 -0.9915 -0.2309 -0.3141
 1349TIP3    H225539   2.886   1.942  11.425 -1.8726 -1.6691  0.4237
 1350TIP3   OH225540   0.600   1.479   3.705  0.0817 -0.2635 -0.3582
 1350TIP3    H125541   0.601   1.485   3.609 -2.7882  1.3608 -0.3937
 1350TIP3    H225542   0.630   1.565   3.734  0.8449 -0.7195  0.2369
 1351TIP3   OH225543   0.757   1.562   4.911 -0.5652  0.0404  0.1839
 1351TIP3    H125544   0.688   1.531   4.970  0.2764  0.0624  1.2174
 1351TIP3    H225545   0.726   1.647   4.880 -1.3814 -0.3353 -0.0324
 1352TIP3   OH225546   5.373   0.232  11.927 -0.3180  0.0984  0.3480
 1352TIP3    H125547   5.298   0.259  11.980 -0.6872 -0.0506 -0.0953
 1352TIP3    H225548   5.371   0.136  11.929 -0.0132  0.0932  0.5084
 1353TIP3   OH225549   4.005   5.631   6.448 -0.0621 -0.1493  0.2616
 1353TIP3    H125550   3.943   5.558   6.446  0.3398 -0.5239 -1.9458
 1353TIP3    H225551   4.091   5.589   6.455  0.0490  0.3539  3.0650
 1354TIP3   OH225552   1.200   5.716   4.437 -0.1013  0.8595 -0.0953
 1354TIP3    H125553   1.115   5.691   4.402 -0.3177  0.5492  0.6352
 1354TIP3    H225554   1.254   5.732   4.359 -0.9090  1.3648 -0.5672
 1355TIP3   OH225555   5.735   2.270  13.887 -0.7854  0.2664 -0.1109
 1355TIP3    H125556   5.673   2.214  13.934 -0.5582  0.2587  0.1785
 1355TIP3    H225557   5.808   2.281  13.947 -1.6482  2.4617  0.6601
 1356TIP3   OH225558   6.646   5.431   3.750 -0.0108  0.1011  0.2571
 1356TIP3    H125559   6.732   5.458   3.782 -0.0037  0.8264 -0.3738
 1356TIP3    H225560   6.658   5.416   3.657 -0.4256 -0.4252  0.2812
 1357TIP3   OH225561   0.841   2.048  12.396  0.5730 -0.3715 -0.5470
 1357TIP3    H125562   0.809   2.000  12.319  0.2937  0.3984 -0.9213
 1357TIP3    H225563   0.896   1.985  12.442  0.7641 -0.8430 -1.3972
 1358TIP3   OH225564   0.305   5.691   1.285 -0.1997  0.0216  0.0392
 1358TIP3    H125565   0.383   5.637   1.274  1.0796  1.5162  1.2943
 1358TIP3    H225566   0.260   5.686   1.200  0.6619 -1.7120 -0.3655
 1359TIP3   OH225567   5.223   4.111  11.131 -0.1864 -0.0787 -0.0980
 1359TIP3    H125568   5.162   4.177  11.165 -0.2325 -0.2112  0.0768
 1359TIP3    H225569   5.231   4.131  11.038 -0.5529 -0.1090 -0.1342
 1360TIP3   OH225570   6.489   5.142  10.621  0.3640  0.4281 -0.4957
 1360TIP3    H125571   6.582   5.124  10.605  0.4562 -0.0611  0.4928
 1360TIP3    H225572   6.479   5.129  10.716 -0.5582  1.1958 -0.4804
 1361TIP3   OH225573   4.819   1.942  15.766 -0.1266 -0.6888 -0.5235
 1361TIP3    H125574   4.759   2.005  15.804 -0.7482 -0.6443 -1.5407
 1361TIP3    H225575   4.903   1.961  15.808 -0.4480  0.3658 -0.3189
 1362TIP3   OH225576   1.166   1.100  15.524 -0.5243 -0.5414 -0.1561
 1362TIP3    H125577   1.091   1.053  15.561 -1.9394  2.2567  0.8450
 1362TIP3    H225578   1.159   1.189  15.560  2.7642  0.1177 -0.8067
 1363TIP3   OH225579   5.311   0.186   3.246 -0.3083 -0.1460  0.0407
 1363TIP3    H125580   5.354   0.183   3.332  0.1068 -0.2954 -0.1665
 1363TIP3    H225581   5.383   0.198   3.184 -0.6188  0.0906 -0.2768
 1364TIP3   OH225582   0.685   4.002  13.735 -0.3873 -0.2620 -0.2669
 1364TIP3    H125583   0.724   4.089  13.734 -0.6496 -0.0917  1.4504
 1364TIP3    H225584   0.618   4.005  13.667 -1.5004  1.4358  0.8241
 1365TIP3   OH225585   3.032   2.904  16.154  0.9897 -0.6785 -0.6145
 1365TIP3    H125586   3.062   2.995  16.151  0.1714 -0.3094  1.2551
 1365TIP3    H225587   2.978   2.894  16.075 -0.5649  1.0989  0.1447
 1366TIP3   OH225588   2.305   3.795  10.700  0.2630 -0.1017 -0.1252
 1366TIP3    H125589   2.347   3.796  10.614  0.8126  0.9141  0.1354
 1366TIP3    H225590   2.285   3.887  10.717 -0.7239 -0.4068  0.4150
 1367TIP3   OH225591   3.629   4.141  16.652 -0.0202  0.1359 -0.6870
 1367TIP3    H125592   3.660   4.193  16.726 -2.7991  2.8374 -1.2138
 1367TIP3    H225593   3.679   4.060  16.657  2.0378  1.4035  2.3355
 1368TIP3   OH225594   2.392   2.370  13.511  0.2427 -0.3228 -0.2101
 1368TIP3    H125595   2.452   2.422  13.564  1.6536  0.1238 -2.1279
 1368TIP3    H225596   2.392   2.284  13.552  1.1596  0.0370  0.5788
 1369TIP3   OH225597   0.471   6.384   3.446 -0.8711  0.7638 -0.0596
 1369TIP3    H125598   0.500   6.385   3.538 -1.5430 -1.4737  0.2402
 1369TIP3    H225599   0.388   6.432   3.446 -0.0611  2.2245  0.1521
 1370TIP3   OH225600   5.784   0.445   6.423  0.4946  0.2673 -0.1777
 1370TIP3    H125601   5.727   0.473   6.495  1.1118  0.3503  0.2851
 1370TIP3    H225602   5.778   0.350   6.423 -1.6445  0.3336 -1.7798
 1371TIP3   OH225603   5.758   5.953   4.619 -0.4378  0.5792  0.7994
 1371TIP3    H125604   5.793   5.948   4.708 -0.6242  2.2613  0.9933
 1371TIP3    H225605   5.835   5.951   4.563 -0.3603 -1.4890  0.9084
 1372TIP3   OH225606   0.846   3.206   0.018  0.3150 -0.9835 -0.5586
 1372TIP3    H125607   0.908   3.189   0.088  0.9262 -2.0802 -1.3348
 1372TIP3    H225608   0.782   3.134   0.025 -1.0129  0.2182  0.3414
 1373TIP3   OH225609   0.631   0.453   4.911 -0.3433  0.4101  0.1914
 1373TIP3    H125610   0.657   0.460   4.819  0.8632  0.3179  0.5096
 1373TIP3    H225611   0.581   0.534   4.927 -3.8580 -1.1956 -1.4930
 1374TIP3   OH225612   3.366   0.499   1.608  0.1531 -0.2203 -0.1670
 1374TIP3    H125613   3.369   0.424   1.549 -1.2739  0.7847 -1.5977
 1374TIP3    H225614   3.284   0.489   1.656  1.0139 -0.7065  1.2783
 1375TIP3   OH225615   3.212   5.677  14.532  0.5004  0.2264 -0.2060
 1375TIP3    H125616   3.304   5.689  14.554  0.1611  0.5625  1.1321
 1375TIP3    H225617   3.190   5.753  14.477  1.0883 -0.0315 -0.8113
 1376TIP3   OH225618   2.574   2.798  11.876 -0.3757  0.0077  0.8196
 1376TIP3    H125619   2.668   2.811  11.871 -0.3251 -0.4234  0.6161
 1376TIP3    H225620   2.537   2.884  11.856 -0.0427 -0.0280  0.0107
 1377TIP3   OH225621   2.711   1.015  15.231 -0.3312  0.5563 -0.7106
 1377TIP3    H125622   2.676   1.016  15.320 -3.1147 -1.1325 -1.6651
 1377TIP3    H225623   2.722   0.922  15.211 -1.6553  0.8003 -2.7815
 1378TIP3   OH225624   1.831   4.837  13.481 -0.1760  0.7169 -0.0924
 1378TIP3    H125625   1.891   4.808  13.413  0.1400 -0.4301  0.6564
 1378TIP3    H225626   1.820   4.931  13.465 -0.5869  0.3673 -2.0800
 1379TIP3   OH225627   6.020   6.796  12.313 -0.3487  0.2628  0.1697
 1379TIP3    H125628   5.959   6.776  12.242  0.1864 -1.5449  0.1687
 1379TIP3    H225629   5.997   6.733  12.382  0.1282  0.9901  1.0019
 1380TIP3   OH225630   4.489   2.657  15.511  0.3658 -0.2844 -0.0787
 1380TIP3    H125631   4.408   2.685  15.554 -0.8685 -1.7131 -1.3336
 1380TIP3    H225632   4.477   2.682  15.420  1.1644 -0.8677 -0.3502
 1381TIP3   OH225633   0.078   0.850   5.138  0.4476 -0.1556 -0.0961
 1381TIP3    H125634   0.040   0.771   5.178  1.0257 -0.6931 -0.5833
 1381TIP3    H225635   0.006   0.889   5.089 -0.0089 -0.0344  0.6528
 1382TIP3   OH225636   4.709   2.240   0.844 -0.7261 -0.9458 -0.0413
 1382TIP3    H125637   4.778   2.203   0.900  0.3887  1.6984  0.4838
 1382TIP3    H225638   4.674   2.313   0.895 -1.0884  0.2915 -1.9586
 1383TIP3   OH225639   4.393   1.078  11.413  0.9327  0.1233 -0.1624
 1383TIP3    H125640   4.467   1.059  11.357 -0.7098 -0.6961 -2.1725
 1383TIP3    H225641   4.374   1.171  11.397  0.4219 -0.1263 -1.0711
 1384TIP3   OH225642   2.539   1.148  10.390  0.7102 -0.5220 -0.1822
 1384TIP3    H125643   2.565   1.123  10.479  2.3605 -0.6829 -0.6812
 1384TIP3    H225644   2.464   1.091  10.371  0.0750 -0.2116  1.2275
 1385TIP3   OH225645   0.196   3.675  13.389  0.6172  0.0469 -0.2218
 1385TIP3    H125646   0.285   3.655  13.361  0.3088 -2.7709  0.4978
 1385TIP3    H225647   0.204   3.701  13.481  0.7800  1.1703 -0.5306
 1386TIP3   OH225648   5.773   3.591   0.473 -0.0465 -0.0172  0.1720
 1386TIP3    H125649   5.702   3.631   0.423  1.4121  0.9420 -1.2423
 1386TIP3    H225650   5.758   3.497   0.465  0.3825  0.0736 -2.5965
 1387TIP3   OH225651   4.476   0.373  13.833  0.0575 -0.0424 -0.1367
 1387TIP3    H125652   4.503   0.422  13.910 -1.4014 -0.0757  0.4360
 1387TIP3    H225653   4.555   0.329  13.802  1.5521  2.9429 -0.9231
 1388TIP3   OH225654   4.894   3.038  12.083  0.2511  0.0892  0.0314
 1388TIP3    H125655   4.816   3.072  12.126  0.1445 -0.4013  0.2358
 1388TIP3    H225656   4.871   2.949  12.058  0.6272  0.0593 -0.2203
 1389TIP3   OH225657   5.366   0.192  13.296 -0.2252  0.4600 -0.0655
 1389TIP3    H125658   5.340   0.121  13.356 -2.3407  2.4962  1.6041
 1389TIP3    H225659   5.461   0.197  13.306 -0.3373 -0.3340  1.9392
 1390TIP3   OH225660   5.813   0.373   6.774 -0.1558  0.0498  0.5364
 1390TIP3    H125661   5.769   0.446   6.817  1.3919  2.7273 -2.1015
 1390TIP3    H225662   5.757   0.350   6.700  0.5039  0.1973 -0.0198
 1391TIP3   OH225663   0.055   3.735   6.272 -0.2815  0.5083 -0.3975
 1391TIP3    H125664  -0.011   3.774   6.216  0.2581  0.7530 -0.8685
 1391TIP3    H225665   0.029   3.643   6.280 -1.7386  0.9888  0.9823
 1392TIP3   OH225666   3.502   3.805  11.463 -0.4064  0.0841  0.3046
 1392TIP3    H125667   3.483   3.740  11.396  0.3954 -1.2056  1.2896
 1392TIP3    H225668   3.516   3.755  11.543  1.5575  1.3506  0.8254
 1393TIP3   OH225669   2.895   2.163  15.050  0.2204  0.0405 -0.0834
 1393TIP3    H125670   2.808   2.158  15.012 -0.3733 -1.4972  1.3610
 1393TIP3    H225671   2.940   2.231  15.000 -2.0649  1.4418 -0.3325
 1394TIP3   OH225672   1.447   2.355  11.543 -0.4316  0.0386 -0.1070
 1394TIP3    H125673   1.482   2.272  11.510  0.0947 -0.3090  1.2411
 1394TIP3    H225674   1.512   2.384  11.607 -1.4021  0.6574  0.6298
 1395TIP3   OH225675   4.033   1.874  12.741 -0.7714  0.6446  0.0399
 1395TIP3    H125676   3.965   1.926  12.699 -0.0391  1.4157 -0.2180
 1395TIP3    H225677   4.007   1.783  12.724 -0.8796  0.9228 -1.4663
 1396TIP3   OH225678   2.775   4.437   5.137 -0.0379 -0.1421 -0.7693
 1396TIP3    H125679   2.718   4.369   5.100 -0.2434 -1.4475  1.7087
 1396TIP3    H225680   2.716   4.489   5.192  1.1119 -2.1619  2.7109
 1397TIP3   OH225681   3.923   0.059  14.567  0.1132 -0.4704  0.1168
 1397TIP3    H125682   3.952   0.129  14.625 -1.3251  0.4005 -0.1615
 1397TIP3    H225683   3.846   0.023  14.609 -1.0320  0.2585 -1.2579
 1398TIP3   OH225684   5.680   3.244  13.573 -0.2799 -0.0832 -0.3911
 1398TIP3    H125685   5.590   3.270  13.553 -0.0393  0.2718 -1.0078
 1398TIP3    H225686   5.695   3.166  13.520  0.0717  0.3732 -0.9768
 1399TIP3   OH225687   3.420   4.386  12.828  0.2399 -0.4754  0.0100
 1399TIP3    H125688   3.509   4.358  12.806  0.9977  0.6948  1.4432
 1399TIP3    H225689   3.364   4.337  12.767  1.5774 -3.7339  1.1841
 1400TIP3   OH225690   2.034   3.740   4.650 -0.0694  1.0082 -0.1578
 1400TIP3    H125691   1.982   3.663   4.672 -0.9328  1.4040 -0.7629
 1400TIP3    H225692   2.077   3.764   4.732 -2.1395  1.6354  0.7959
 1401TIP3   OH225693   5.262   5.219   2.120  1.0106  0.2875 -0.2775
 1401TIP3    H125694   5.324   5.179   2.182  1.0716  0.1265 -0.4398
 1401TIP3    H225695   5.310   5.221   2.037  0.6119 -0.3188 -0.5261
 1402TIP3   OH225696   1.728   3.319   1.280 -0.7390  0.1809  0.8504
 1402TIP3    H125697   1.731   3.251   1.347 -0.5727  1.0311  1.7221
 1402TIP3    H225698   1.635   3.342   1.273 -1.3031 -2.3310 -1.7571
 1403TIP3   OH225699   5.197   1.213   4.810 -0.0298  0.0039 -0.2476
 1403TIP3    H125700   5.132   1.282   4.823  0.1063  0.1635 -0.4233
 1403TIP3    H225701   5.256   1.247   4.744 -0.2214 -0.4605 -0.6627
 1404TIP3   OH225702   3.769   5.243  11.317  0.3235 -0.2268  0.1598
 1404TIP3    H125703   3.750   5.327  11.358  1.1756 -0.2551  0.6413
 1404TIP3    H225704   3.806   5.266  11.232 -3.7594 -0.1713 -1.8385
 1405TIP3   OH225705   3.577   4.782   3.868  0.1878 -0.3032 -0.1055
 1405TIP3    H125706   3.543   4.708   3.818 -0.5862  1.1995 -1.9195
 1405TIP3    H225707   3.643   4.821   3.811 -1.3105  1.9592 -0.3940
 1406TIP3   OH225708   6.141   3.029  16.976  0.3508  0.1689 -0.7418
 1406TIP3    H125709   6.173   3.117  16.996  0.9773  0.2030 -1.8477
 1406TIP3    H225710   6.075   3.043  16.908 -0.5871 -0.0935  0.0928
 1407TIP3   OH225711   5.988   1.831   1.204  0.2612  0.2150 -0.4182
 1407TIP3    H125712   5.999   1.873   1.118  0.1344 -0.0055 -0.5460
 1407TIP3    H225713   5.895   1.809   1.208  0.4444 -0.6582 -0.6482
 1408TIP3   OH225714   2.850   3.949  11.877  0.1156 -0.3036  0.7081
 1408TIP3    H125715   2.899   4.032  11.878 -0.4273  0.0242  1.6217
 1408TIP3    H225716   2.902   3.891  11.822  0.5534  0.6194  0.1267
 1409TIP3   OH225717   4.534   0.920  12.090  0.5312 -0.5450  0.0514
 1409TIP3    H125718   4.439   0.918  12.103  0.3951  0.0343 -0.7554
 1409TIP3    H225719   4.545   0.901  11.997  1.1700  0.0168  0.0104
 1410TIP3   OH225720   4.983   0.759   3.294  0.2637 -0.0554 -0.3195
 1410TIP3    H125721   5.000   0.776   3.201 -1.4215 -1.2390 -0.9006
 1410TIP3    H225722   4.924   0.684   3.293 -1.3710  1.1251  1.6554
 1411TIP3   OH225723   5.065   3.159   1.605  0.3586 -0.0324  0.4562
 1411TIP3    H125724   5.093   3.080   1.651  2.7194  0.3028 -0.2737
 1411TIP3    H225725   5.046   3.222   1.675  0.1776 -0.6899  1.0086
 1412TIP3   OH225726   2.113   3.868   3.966 -0.1299  0.4635  0.1789
 1412TIP3    H125727   2.138   3.793   3.911  0.9926 -0.6051  2.0607
 1412TIP3    H225728   2.172   3.865   4.041 -3.2408  0.2180  2.8707
 1413TIP3   OH225729   4.749   2.226   2.192 -0.2813 -0.2037  0.3688
 1413TIP3    H125730   4.706   2.261   2.270 -1.8496  2.6499 -1.6170
 1413TIP3    H225731   4.692   2.154   2.164 -1.5114  0.8256  0.1317
 1414TIP3   OH225732   5.656   0.586  15.703 -0.7626 -0.2236 -0.4012
 1414TIP3    H125733   5.673   0.673  15.667 -0.9251 -0.3412 -0.7650
 1414TIP3    H225734   5.642   0.531  15.626  0.5824 -0.8389 -0.2315
 1415TIP3   OH225735   3.008   5.953  13.149 -0.1632 -0.0091 -0.1679
 1415TIP3    H125736   2.999   6.046  13.168 -1.6564 -0.2894  0.6837
 1415TIP3    H225737   3.043   5.950  13.060  1.3622  1.3373  0.3409
 1416TIP3   OH225738   5.862   6.032   2.957  0.4481 -0.5325  0.4871
 1416TIP3    H125739   5.894   6.028   2.867 -0.7279 -1.1062  0.0808
 1416TIP3    H225740   5.849   5.941   2.982  1.3015 -0.4071  1.4532
 1417TIP3   OH225741   3.997   0.219   0.279 -0.6752  0.2976  0.1464
 1417TIP3    H125742   4.036   0.306   0.285 -1.9298  0.8726  0.1041
 1417TIP3    H225743   3.937   0.223   0.205  0.2130 -1.0093 -0.6916
 1418TIP3   OH225744   5.336   6.589  16.633  0.5936  0.4145 -0.1618
 1418TIP3    H125745   5.371   6.635  16.557  0.2320  0.6252 -0.2021
 1418TIP3    H225746   5.325   6.657  16.700  2.5845 -0.0457  0.6982
 1419TIP3   OH225747   4.673   2.616   6.246 -0.6190 -0.0680 -0.1111
 1419TIP3    H125748   4.688   2.709   6.230  0.0513 -0.2077 -0.3563
 1419TIP3    H225749   4.687   2.575   6.161  0.9407 -0.5937  0.3671
 1420TIP3   OH225750   0.911   5.087   3.391  0.8412  0.2328  0.0706
 1420TIP3    H125751   0.936   5.164   3.342  0.6635  0.4449  0.3099
 1420TIP3    H225752   0.815   5.086   3.388  0.8616 -0.8373 -1.2467
 1421TIP3   OH225753   3.854   6.607   6.036 -0.8162  0.1878 -0.0278
 1421TIP3    H125754   3.788   6.675   6.025 -1.1518  0.1078  1.3424
 1421TIP3    H225755   3.804   6.529   6.060 -0.4749 -0.6805 -1.9589
 1422TIP3   OH225756   1.039   4.595  11.129 -0.4693 -0.1402 -0.2381
 1422TIP3    H125757   1.091   4.566  11.054 -0.2294 -0.3794  0.0163
 1422TIP3    H225758   0.950   4.568  11.109 -0.7654  1.5355 -1.3365
 1423TIP3   OH225759   2.780   1.005   4.826 -0.3079 -0.4648 -0.5367
 1423TIP3    H125760   2.738   1.044   4.903  2.1739  1.6434 -0.1219
 1423TIP3    H225761   2.860   0.965   4.861 -0.4816 -1.8707 -1.6856
 1424TIP3   OH225762   0.438   3.834  13.237  0.4409 -0.3150  0.2244
 1424TIP3    H125763   0.342   3.830  13.240  0.4165  0.5606  0.9887
 1424TIP3    H225764   0.466   3.779  13.311  0.5396 -0.7543 -0.1360
 1425TIP3   OH225765   5.316   4.691   1.608 -0.1882  0.6117 -0.0969
 1425TIP3    H125766   5.263   4.624   1.652  0.9228  1.0148  1.9705
 1425TIP3    H225767   5.303   4.674   1.515 -0.6059 -1.9425  0.3575
 1426TIP3   OH225768   2.619   6.087  16.770  0.3201  0.3640 -0.6945
 1426TIP3    H125769   2.660   6.096  16.685 -0.1927  0.6978 -0.9096
 1426TIP3    H225770   2.553   6.155  16.772  0.4901  0.5152  0.0684
 1427TIP3   OH225771   1.363   1.980  11.929  0.5482 -0.5454  0.1165
 1427TIP3    H125772   1.296   1.913  11.944  1.1703 -1.5647 -1.3853
 1427TIP3    H225773   1.358   1.998  11.835  1.8570 -0.0613  0.1208
 1428TIP3   OH225774   2.189   2.237   5.903  0.6526  0.0963  0.0089
 1428TIP3    H125775   2.212   2.320   5.944  1.3705  1.3093 -2.6347
 1428TIP3    H225776   2.093   2.238   5.899  0.6832  1.4330 -1.1100
 1429TIP3   OH225777   5.877   4.478  16.317  0.1564  0.0640  0.4214
 1429TIP3    H125778   5.912   4.468  16.406  0.1757  1.2593  0.5590
 1429TIP3    H225779   5.850   4.389  16.293  2.7288 -0.8429  0.5108
 1430TIP3   OH225780   4.278   3.210  15.385 -0.3929 -0.0987  0.6312
 1430TIP3    H125781   4.351   3.163  15.425 -0.1045  0.2314  0.4993
 1430TIP3    H225782   4.217   3.141  15.359  0.6049 -0.5188 -0.7225
 1431TIP3   OH225783   1.607   1.854  11.145  0.2934 -0.1171 -0.5488
 1431TIP3    H125784   1.688   1.889  11.108  0.5567  1.0226  1.0021
 1431TIP3    H225785   1.636   1.796  11.216 -0.2308 -0.9002 -0.9596
 1432TIP3   OH225786   3.297   1.334   5.127 -0.1847 -0.4403 -0.8621
 1432TIP3    H125787   3.383   1.306   5.098  0.3111  0.2947 -0.1402
 1432TIP3    H225788   3.304   1.429   5.137 -0.6109 -0.5357  0.6203
 1433TIP3   OH225789   0.940   4.175  13.722  0.5638 -0.8678 -0.2119
 1433TIP3    H125790   1.034   4.164  13.705  1.3496  0.7705  2.5086
 1433TIP3    H225791   0.934   4.188  13.816 -2.6008 -2.2633 -0.1005
 1434TIP3   OH225792   2.061   5.967  12.969  0.4128 -0.4053  0.8412
 1434TIP3    H125793   2.016   5.910  12.907 -1.1491  2.0337 -0.4593
 1434TIP3    H225794   2.146   5.927  12.982  0.1857 -1.9011 -1.6307
 1435TIP3   OH225795   0.937   3.300  12.324 -0.3227  0.0233  0.4640
 1435TIP3    H125796   0.892   3.229  12.369  0.6692 -0.4763  0.6768
 1435TIP3    H225797   0.934   3.276  12.232  2.1655 -1.5784  0.7334
 1436TIP3   OH225798   0.674   1.344  14.396  0.2225  0.2327  0.1305
 1436TIP3    H125799   0.588   1.334  14.437  0.6584 -1.2861  0.7437
 1436TIP3    H225800   0.677   1.435  14.368 -0.6044  1.0120  2.3712
 1437TIP3   OH225801   0.263   0.250  16.148  0.0163  0.0513  0.4450
 1437TIP3    H125802   0.192   0.185  16.151  1.8367 -2.0418  0.8059
 1437TIP3    H225803   0.238   0.309  16.077 -1.9405 -0.7926  0.3649
 1438TIP3   OH225804   0.062   3.408  13.210  0.0101  0.1803 -0.2724
 1438TIP3    H125805   0.031   3.317  13.212  0.6123 -0.0175  0.3273
 1438TIP3    H225806   0.036   3.444  13.295  1.0103  0.1431  0.0592
 1439TIP3   OH225807   3.648   5.773   4.037  0.0616 -0.2905 -0.0029
 1439TIP3    H125808   3.619   5.862   4.016 -1.2040 -0.5927  0.3769
 1439TIP3    H225809   3.597   5.717   3.978  0.2487 -0.8210  0.3317
 1440TIP3   OH225810   1.781   1.744   0.334  0.1076  0.3646  0.3433
 1440TIP3    H125811   1.707   1.699   0.376 -1.5132  1.9866 -0.6232
 1440TIP3    H225812   1.842   1.673   0.311 -1.5961 -1.1768  0.3053
 1441TIP3   OH225813   3.300   3.024  15.754  0.2870 -0.0759 -0.4242
 1441TIP3    H125814   3.300   3.111  15.793  0.9198 -0.5657  0.7106
 1441TIP3    H225815   3.262   2.967  15.820  0.7811 -0.8188 -0.7642
 1442TIP3   OH225816   0.249   1.846  17.120 -0.1387 -0.3986  0.0102
 1442TIP3    H125817   0.157   1.842  17.148 -0.3334 -1.8823 -0.7274
 1442TIP3    H225818   0.291   1.774  17.165  0.3539 -0.5558 -0.6840
 1443TIP3   OH225819   1.831   2.325   0.145  0.1113  0.4375  0.6901
 1443TIP3    H125820   1.781   2.279   0.212 -0.1520  0.4393  0.4946
 1443TIP3    H225821   1.920   2.329   0.180  0.5790 -1.8594 -0.0977
 1444TIP3   OH225822   6.418   4.480   5.895  0.0121 -0.5071 -0.6770
 1444TIP3    H125823   6.370   4.537   5.955  0.6921 -0.7842  0.1636
 1444TIP3    H225824   6.356   4.411   5.871  0.0343 -1.0002  0.5865
 1445TIP3   OH225825   4.222   6.555  14.756  0.1108  0.1316 -0.7828
 1445TIP3    H125826   4.270   6.477  14.782  0.5369  0.4387 -0.6308
 1445TIP3    H225827   4.196   6.596  14.839 -0.7996 -0.2563 -0.8600
 1446TIP3   OH225828   0.585   4.472  15.269 -0.6196  0.3695  0.4925
 1446TIP3    H125829   0.587   4.449  15.177 -0.0427  0.3179  0.5164
 1446TIP3    H225830   0.666   4.437  15.305 -0.0266  1.8526  0.6653
 1447TIP3   OH225831   5.409   3.971  11.387 -0.0777  0.2820 -0.1711
 1447TIP3    H125832   5.431   3.878  11.398  0.8107  0.7553  3.6523
 1447TIP3    H225833   5.482   4.008  11.337  0.7400 -0.7092  0.2561
 1448TIP3   OH225834   0.572   4.283   3.308 -0.6686 -0.1480  0.2085
 1448TIP3    H125835   0.508   4.254   3.243 -0.6826 -0.8711  0.5312
 1448TIP3    H225836   0.644   4.319   3.257  0.0835 -2.2420 -0.3055
 1449TIP3   OH225837   6.819   2.295   1.407  0.5769  0.3845 -0.2163
 1449TIP3    H125838   6.727   2.297   1.379 -0.2365  0.7564  2.2442
 1449TIP3    H225839   6.818   2.248   1.491  2.7828 -0.3199 -0.5065
 1450TIP3   OH225840   6.319   2.079  12.679  0.2101  0.1022 -0.0394
 1450TIP3    H125841   6.233   2.119  12.666 -1.4022 -3.1801 -0.3719
 1450TIP3    H225842   6.303   2.006  12.739  2.9466 -0.1332  0.5195
 1451TIP3   OH225843   6.506   1.377   0.711 -0.5679 -0.0631 -0.0301
 1451TIP3    H125844   6.536   1.369   0.801 -0.6112  1.4289  0.1409
 1451TIP3    H225845   6.412   1.389   0.717 -0.7433 -1.1643 -0.3618
 1452TIP3   OH225846   4.382   4.503  13.878  0.0939 -0.3969  0.3200
 1452TIP3    H125847   4.440   4.504  13.954  1.3912 -1.3855 -0.6004
 1452TIP3    H225848   4.302   4.462  13.910  1.1762 -2.2314  0.8258
 1453TIP3   OH225849   4.388   6.729   3.341  0.3952  0.0316  0.5737
 1453TIP3    H125850   4.310   6.686   3.375 -0.9365  2.0569  0.2797
 1453TIP3    H225851   4.460   6.670   3.364 -1.2881 -2.5037 -0.1811
 1454TIP3   OH225852   4.597   2.427   1.008 -0.1241 -0.0366 -0.2208
 1454TIP3    H125853   4.570   2.519   1.015 -0.3133 -0.1389  0.4917
 1454TIP3    H225854   4.518   2.377   1.029  0.8021 -0.3458  3.0923
 1455TIP3   OH225855   2.703   4.629  12.648  0.6505  0.3318  0.0021
 1455TIP3    H125856   2.682   4.549  12.698  0.9919  1.7227  2.5668
 1455TIP3    H225857   2.626   4.685  12.659  0.9420  0.8721 -0.6449
 1456TIP3   OH225858   2.297   0.693   0.046  1.3302  0.0991  0.5471
 1456TIP3    H125859   2.316   0.753   0.118 -0.0465 -0.2412  1.2180
 1456TIP3    H225860   2.262   0.750  -0.023  0.9676  0.2137  0.8179
 1457TIP3   OH225861   0.233   5.379   0.305  0.3027  0.4910  0.7216
 1457TIP3    H125862   0.285   5.377   0.224  0.1043  0.3055  0.5982
 1457TIP3    H225863   0.298   5.388   0.374  0.7611 -2.3762  0.7924
 1458TIP3   OH225864   0.289   6.047  12.980 -0.9341  0.1601 -0.5731
 1458TIP3    H125865   0.285   5.970  12.922 -0.7709  0.0137 -0.3904
 1458TIP3    H225866   0.239   6.114  12.933 -0.6922  0.0826 -0.9482
 1459TIP3   OH225867   4.414   3.740  10.423 -0.1054  0.1040 -0.7977
 1459TIP3    H125868   4.473   3.789  10.481  0.6245  0.3387 -1.7045
 1459TIP3    H225869   4.349   3.804  10.395 -3.8770 -1.1347  3.9173
 1460TIP3   OH225870   0.774   1.081   0.955 -0.2111  1.1019  0.6479
 1460TIP3    H125871   0.866   1.076   0.977 -0.3378  0.8131  1.1240
 1460TIP3    H225872   0.765   1.162   0.904  0.1700  1.5377  1.2569
 1461TIP3   OH225873   4.041   5.871  15.184  0.9827  0.1792  0.2520
 1461TIP3    H125874   3.987   5.793  15.194  0.5313  0.3207 -0.9267
 1461TIP3    H225875   3.985   5.943  15.214  0.1281  0.4404 -1.8318
 1462TIP3   OH225876   4.769   3.382   5.410 -0.9398 -0.2475  0.4646
 1462TIP3    H125877   4.852   3.379   5.361 -0.4080 -2.1014  1.3717
 1462TIP3    H225878   4.710   3.325   5.360 -1.1901 -0.1234  0.6189
 1463TIP3   OH225879   0.738   3.933  11.962 -0.2215  0.4236  0.4151
 1463TIP3    H125880   0.745   4.014  12.012  0.3574  1.8089 -1.7471
 1463TIP3    H225881   0.646   3.908  11.969 -0.2809  0.9015  1.6035
 1464TIP3   OH225882   6.081   0.941  12.212  0.0856 -0.2318 -0.1720
 1464TIP3    H125883   6.119   1.000  12.277  1.9817  0.2465 -1.6199
 1464TIP3    H225884   6.065   0.996  12.135  2.1575 -1.5720 -1.6633
 1465TIP3   OH225885   3.209   0.110  10.793  0.2841  0.2963 -0.2059
 1465TIP3    H125886   3.135   0.053  10.814 -0.4104  0.5962 -1.7235
 1465TIP3    H225887   3.282   0.072  10.842 -0.5326 -0.9187  0.1283
 1466TIP3   OH225888   4.485   6.756  14.362  0.2938 -0.0184  0.6044
 1466TIP3    H125889   4.412   6.768  14.300  0.7447 -0.8915 -0.1121
 1466TIP3    H225890   4.450   6.787  14.446 -0.3759  1.0660 -0.0466
 1467TIP3   OH225891   3.839   6.498   6.470  0.2761  0.1508 -0.2696
 1467TIP3    H125892   3.899   6.475   6.399  0.1116  2.9662 -1.4575
 1467TIP3    H225893   3.752   6.473   6.438  0.4669 -1.4274  0.3236
 1468TIP3   OH225894   1.996   5.659   1.200  0.5384 -0.3322 -0.1367
 1468TIP3    H125895   2.038   5.744   1.216  2.1201 -1.2944  1.1536
 1468TIP3    H225896   1.903   5.675   1.217  0.8918  0.9979  0.7651
 1469TIP3   OH225897   4.513   0.547   4.983 -0.7594  0.3100  0.0878
 1469TIP3    H125898   4.565   0.498   4.920 -1.7350 -0.4392 -0.1504
 1469TIP3    H225899   4.578   0.591   5.039  0.1121 -0.2829 -0.4413
 1470TIP3   OH225900   0.551   4.049  16.599  0.2682 -0.6271  0.0358
 1470TIP3    H125901   0.598   4.066  16.518 -0.1454  0.4016 -0.0085
 1470TIP3    H225902   0.588   4.111  16.662  0.0339 -0.8657  0.4119
 1471TIP3   OH225903   1.273   1.929  16.189  0.7957 -0.2261  0.2131
 1471TIP3    H125904   1.233   1.931  16.276  1.1925 -0.1969  0.3981
 1471TIP3    H225905   1.225   1.860  16.142 -2.4125  2.5665 -1.0400
 1472TIP3   OH225906   4.197   1.099   1.107  0.4028  0.5959  0.2285
 1472TIP3    H125907   4.287   1.111   1.076  0.5789  1.1858  0.9380
 1472TIP3    H225908   4.204   1.030   1.173 -0.1280 -1.3965 -1.6611
 1473TIP3   OH225909   4.901   4.226  11.949  0.4193  0.1725 -0.7570
 1473TIP3    H125910   4.854   4.303  11.917 -1.1893  0.1134  1.3037
 1473TIP3    H225911   4.841   4.153  11.933  0.9323 -0.3104 -0.5143
 1474TIP3   OH225912   4.060   0.921  16.478 -0.1099  0.5167  0.4006
 1474TIP3    H125913   3.971   0.889  16.461  0.4021  0.3083 -2.2023
 1474TIP3    H225914   4.087   0.962  16.396  1.3390  2.7500  1.9081
 1475TIP3   OH225915   2.766   6.313  10.539 -0.6387  0.5696  0.4515
 1475TIP3    H125916   2.718   6.357  10.609 -0.9673  1.4870 -0.3222
 1475TIP3    H225917   2.790   6.229  10.576 -0.2400  1.2831  1.8842
 1476TIP3   OH225918   1.642   3.860   1.622  0.2255  0.1440  0.1284
 1476TIP3    H125919   1.723   3.848   1.672  0.2805 -0.9964 -0.2148
 1476TIP3    H225920   1.671   3.889   1.535  0.1801  1.0780  0.4089
 1477TIP3   OH225921   2.963   5.410  14.064 -0.2464  0.3753  0.3664
 1477TIP3    H125922   2.920   5.476  14.010 -1.3223 -0.1847  0.5038
 1477TIP3    H225923   3.036   5.378  14.011 -0.6556  0.5776 -0.3247
 1478TIP3   OH225924   4.114   2.591   1.384 -0.2432  0.2213 -0.3905
 1478TIP3    H125925   4.106   2.508   1.430  0.9371  0.7360  0.8297
 1478TIP3    H225926   4.057   2.651   1.432  0.7323  0.6765  0.2350
 1479TIP3   OH225927   3.408   2.085  12.527  0.6122 -0.2774  0.5369
 1479TIP3    H125928   3.422   1.994  12.499 -0.8859 -0.3122 -0.1999
 1479TIP3    H225929   3.321   2.107  12.493  0.9637  1.4498  0.6999
 1480TIP3   OH225930   3.289   6.409   5.547 -0.3675  0.0082  0.1552
 1480TIP3    H125931   3.204   6.369   5.528 -0.8692  1.0737  0.0511
 1480TIP3    H225932   3.278   6.501   5.522  1.6228 -0.3134 -2.3049
 1481TIP3   OH225933   1.197   4.878  12.744 -0.3011  0.3606  0.2138
 1481TIP3    H125934   1.280   4.906  12.783 -0.5275  1.5554 -0.1097
 1481TIP3    H225935   1.160   4.958  12.708 -1.5545 -0.1833  0.2547
 1482TIP3   OH225936   4.238   0.374  12.382  0.3550  0.7236  0.5415
 1482TIP3    H125937   4.298   0.359  12.308 -1.8921 -0.8632 -1.1088
 1482TIP3    H225938   4.216   0.467  12.376 -1.7669  0.1747 -2.5567
 1483TIP3   OH225939   6.451   5.007  14.595  0.9143  0.3795 -0.2033
 1483TIP3    H125940   6.392   5.080  14.613 -0.5203 -0.9589  0.6903
 1483TIP3    H225941   6.397   4.942  14.549  1.3373 -1.3408  1.6089
 1484TIP3   OH225942   4.493   4.124  12.966 -0.0839 -0.0599 -0.0515
 1484TIP3    H125943   4.498   4.069  12.887  1.5072  0.4831 -0.3612
 1484TIP3    H225944   4.550   4.080  13.029 -0.6953 -0.0367  0.5213
 1485TIP3   OH225945   2.790   4.610  12.053  0.3346  0.2855  0.3843
 1485TIP3    H125946   2.736   4.684  12.026  1.8539  1.5722  0.7630
 1485TIP3    H225947   2.810   4.628  12.145 -0.4180 -1.3422  0.9095
 1486TIP3   OH225948   3.552   2.500   0.095  0.2996 -0.5539  0.1221
 1486TIP3    H125949   3.477   2.549   0.129 -0.6583 -1.6625 -0.3158
 1486TIP3    H225950   3.610   2.566   0.058  0.0414  0.4167  1.4219
 1487TIP3   OH225951   3.249   0.019  11.679  0.0904  0.7508  0.3152
 1487TIP3    H125952   3.155   0.019  11.662 -0.1590  0.7555  1.6247
 1487TIP3    H225953   3.287   0.060  11.601 -0.9770  0.6369 -0.2811
 1488TIP3   OH225954   6.172   1.076  11.814 -0.1628  0.3659  0.3946
 1488TIP3    H125955   6.144   0.989  11.840 -1.2581  1.0281  1.5572
 1488TIP3    H225956   6.192   1.121  11.896  0.7661  1.1002 -0.2069
 1489TIP3   OH225957   6.021   5.150  14.812  0.2214  0.2578 -0.0728
 1489TIP3    H125958   5.968   5.162  14.734 -0.3495 -1.2347  0.0623
 1489TIP3    H225959   6.042   5.057  14.814  0.5224  0.3229  1.3618
 1490TIP3   OH225960   0.897   2.770  13.187  0.7438 -0.5007  0.6063
 1490TIP3    H125961   0.983   2.807  13.167  0.9885 -1.7556 -0.8551
 1490TIP3    H225962   0.916   2.685  13.227  0.1976 -1.1750 -0.5288
 1491TIP3   OH225963   2.673   6.276  17.098  0.2970 -0.1733  0.0422
 1491TIP3    H125964   2.642   6.315  17.016 -0.0763  2.3359  1.2760
 1491TIP3    H225965   2.598   6.227  17.131 -0.3770  0.8229  0.0386
 1492TIP3   OH225966   3.727   5.037  13.171  0.1619 -0.0034  0.2407
 1492TIP3    H125967   3.744   5.112  13.114  1.8351 -0.2349  0.3787
 1492TIP3    H225968   3.744   4.960  13.117 -1.0030 -0.2980  0.2629
 1493TIP3   OH225969   6.169   5.509   2.417 -0.2085  0.2029  0.3854
 1493TIP3    H125970   6.148   5.596   2.452 -2.7036  0.4391 -1.4088
 1493TIP3    H225971   6.113   5.500   2.340  2.2781 -1.7621 -1.3678
 1494TIP3   OH225972   5.695   6.058  11.295  0.1379  0.2795 -0.1379
 1494TIP3    H125973   5.685   6.123  11.364  0.6242  0.2040  0.0111
 1494TIP3    H225974   5.606   6.030  11.274 -0.1353  1.5803 -0.7795
 1495TIP3   OH225975   2.568   5.671   2.318  0.4965  0.3985  0.1717
 1495TIP3    H125976   2.533   5.582   2.311  0.2061  0.3693  1.7261
 1495TIP3    H225977   2.658   5.659   2.348  1.1068  0.5856 -1.4427
 1496TIP3   OH225978   5.794   0.843  12.024 -0.3916  0.4075  0.2420
 1496TIP3    H125979   5.709   0.874  12.057 -0.4315  0.5510  0.0038
 1496TIP3    H225980   5.780   0.749  12.010  0.0943 -0.0030  2.1438
 1497TIP3   OH225981   3.888   3.415   5.261 -0.4187  0.5585  0.2829
 1497TIP3    H125982   3.859   3.469   5.187  1.3071  0.5149 -0.4557
 1497TIP3    H225983   3.811   3.410   5.318 -2.4422 -0.8593 -2.3219
 1498TIP3   OH225984   5.668   4.509   4.343  0.6416  0.2447  0.2152
 1498TIP3    H125985   5.583   4.467   4.355  1.3042 -0.9755  0.9047
 1498TIP3    H225986   5.697   4.480   4.256  0.7801 -0.1458  0.3900
 1499TIP3   OH225987   5.912   1.223   2.567 -0.3627  0.6016 -0.4226
 1499TIP3    H125988   5.880   1.142   2.608 -0.2843  1.3790  1.2651
 1499TIP3    H225989   5.965   1.193   2.493 -0.9840 -0.8625 -0.3154
 1500TIP3   OH225990   1.491   5.024  13.633  0.0453  0.2515  0.2758
 1500TIP3    H125991   1.474   5.014  13.540  1.4584 -0.4885  0.0829
 1500TIP3    H225992   1.505   5.118  13.645 -2.0759  0.6527  0.1329
 1501TIP3   OH225993   1.219   1.716  14.243  0.9355 -0.0437  0.4054
 1501TIP3    H125994   1.212   1.687  14.152  2.2941  0.0631  0.2473
 1501TIP3    H225995   1.259   1.803  14.238 -0.3385  0.6133  1.0442
 1502TIP3   OH225996   1.576   2.655   4.471 -0.5107 -0.2047 -1.0435
 1502TIP3    H125997   1.624   2.573   4.459  0.4172  0.0856  0.3890
 1502TIP3    H225998   1.549   2.681   4.382  0.3136 -1.3733 -1.6576
 1503TIP3   OH225999   3.337   1.324   5.674 -0.0066 -0.0774  0.0927
 1503TIP3    H126000   3.274   1.257   5.696 -1.6930  1.7500  1.1506
 1503TIP3    H226001   3.385   1.341   5.755 -0.6010  0.9673  0.2492
 1504TIP3   OH226002   3.466   5.172   4.100 -0.8196  0.1956  0.1176
 1504TIP3    H126003   3.382   5.132   4.076 -1.3676  0.4556  1.5196
 1504TIP3    H226004   3.530   5.103   4.085 -1.2355  0.0661 -1.1980
 1505TIP3   OH226005   6.106   5.488   1.090  0.3560 -0.8323 -0.0096
 1505TIP3    H126006   6.120   5.415   1.151  1.8460 -0.7137 -0.1678
 1505TIP3    H226007   6.022   5.469   1.049  1.0727 -2.9196 -0.6384
 1506TIP3   OH226008   2.260   2.503  14.538  0.3940 -0.4673 -0.4495
 1506TIP3    H126009   2.218   2.578  14.496 -0.0171 -0.9460 -0.9021
 1506TIP3    H226010   2.194   2.470  14.599  1.9489  2.0243  2.9388
 1507TIP3   OH226011   3.560   5.828  15.323  0.0936  0.7233  0.2950
 1507TIP3    H126012   3.577   5.864  15.410  1.0564  0.2258  0.3223
 1507TIP3    H226013   3.531   5.739  15.339 -0.4007  0.8535  0.1358
 1508TIP3   OH226014   3.775   1.476   2.566 -0.3134 -0.1971 -0.2375
 1508TIP3    H126015   3.796   1.393   2.524 -0.0642  0.2078 -0.9226
 1508TIP3    H226016   3.858   1.506   2.603  0.0551  0.7045 -1.7124
 1509TIP3   OH226017   6.348   5.867  11.765  0.2715 -0.1095  0.6462
 1509TIP3    H126018   6.442   5.881  11.776  0.3852 -0.1134 -0.2903
 1509TIP3    H226019   6.341   5.800  11.698 -0.4180  0.6905 -0.1089
 1510TIP3   OH226020   2.359   0.291  12.371 -0.5500  0.2326  0.1369
 1510TIP3    H126021   2.402   0.375  12.356 -1.1393  0.3070 -1.2358
 1510TIP3    H226022   2.323   0.267  12.286  0.5179 -1.9273  0.2339
 1511TIP3   OH226023   2.295   3.538  14.769 -0.3086 -0.1020  0.2189
 1511TIP3    H126024   2.311   3.620  14.817 -0.8204 -0.1949  0.5566
 1511TIP3    H226025   2.215   3.555  14.719  0.0158 -0.1338 -0.3191
 1512TIP3   OH226026   1.328   3.025  16.122 -0.2291 -0.0616  0.1426
 1512TIP3    H126027   1.416   3.028  16.084 -0.0561  1.0664  0.5764
 1512TIP3    H226028   1.288   2.947  16.085  0.8710 -0.4503 -0.2575
 1513TIP3   OH226029   3.718   2.513  12.192  0.6127  0.2391  0.3898
 1513TIP3    H126030   3.678   2.438  12.148  0.5647  1.2155 -1.3413
 1513TIP3    H226031   3.671   2.520  12.275 -0.4048 -0.7421 -0.0700
 1514TIP3   OH226032   1.664   4.588  12.066  0.2466  0.4231 -0.1714
 1514TIP3    H126033   1.585   4.539  12.044  0.5711  1.0854 -3.2602
 1514TIP3    H226034   1.732   4.553  12.008  1.9636  0.6711  1.5654
 1515TIP3   OH226035   1.758   2.776   0.200  0.0472 -0.1195  0.7836
 1515TIP3    H126036   1.769   2.732   0.285  2.1175 -2.3986 -0.5348
 1515TIP3    H226037   1.842   2.820   0.185 -0.1422 -0.0947 -0.2755
 1516TIP3   OH226038   0.469   1.201   1.987 -0.1029  0.6244 -0.2673
 1516TIP3    H126039   0.386   1.243   1.964 -0.6433 -0.6781 -0.7930
 1516TIP3    H226040   0.531   1.234   1.922 -1.1350 -1.3605 -2.4251
 1517TIP3   OH226041   2.046   5.351  13.581  0.0615  0.3547  0.2470
 1517TIP3    H126042   2.064   5.440  13.610 -0.6141  0.4503  0.3890
 1517TIP3    H226043   2.095   5.341  13.500 -1.3310  1.4911 -0.7815
 1518TIP3   OH226044   5.902   6.550   4.881  0.2156  0.2466  0.0427
 1518TIP3    H126045   5.809   6.532   4.865  0.4761 -0.0059 -1.2772
 1518TIP3    H226046   5.938   6.467   4.911  0.0975  0.2387  0.1627
 1519TIP3   OH226047   1.142   3.126  14.432 -0.3060  0.3855  0.0283
 1519TIP3    H126048   1.209   3.179  14.475 -0.0166 -0.0437  0.1156
 1519TIP3    H226049   1.181   3.039  14.425 -0.7083  0.2252 -0.2697
 1520TIP3   OH226050   5.856   2.792  14.505  0.5266 -0.1787 -0.3406
 1520TIP3    H126051   5.930   2.745  14.544  0.4828  0.3253  0.3649
 1520TIP3    H226052   5.841   2.748  14.421  0.2649 -1.6548  0.4434
 1521TIP3   OH226053   6.567   0.257   4.060  0.1308  0.4992  0.2612
 1521TIP3    H126054   6.571   0.318   4.134  1.6647 -0.6195  1.1472
 1521TIP3    H226055   6.555   0.171   4.100  0.0966 -0.0344 -0.8522
 1522TIP3   OH226056   6.574   6.518   3.567  0.4553 -0.0084  0.0774
 1522TIP3    H126057   6.601   6.465   3.642  0.9951  1.2435  0.8175
 1522TIP3    H226058   6.570   6.608   3.602  1.8452  0.7828 -1.6365
 1523TIP3   OH226059   1.331   0.001   3.946  0.0337  0.0872 -0.3784
 1523TIP3    H126060   1.297  -0.002   3.857  0.7103  0.0380 -0.6459
 1523TIP3    H226061   1.410  -0.054   3.943  0.0958  0.1365  0.2323
 1524TIP3   OH226062   2.269   3.388   6.403 -0.0434 -0.1880 -0.2187
 1524TIP3    H126063   2.355   3.430   6.394 -1.0669  1.8947 -0.9070
 1524TIP3    H226064   2.254   3.347   6.318 -0.4849  1.0625 -0.7764
 1525TIP3   OH226065   2.016   6.364  12.117 -0.1476 -0.0114  0.4916
 1525TIP3    H126066   1.954   6.401  12.054  1.8287  0.2454 -1.4000
 1525TIP3    H226067   1.995   6.408  12.200 -2.9812 -0.5468  0.1668
 1526TIP3   OH226068   4.354   2.735   2.377  0.5727  0.4215 -0.1557
 1526TIP3    H126069   4.400   2.766   2.454 -1.3203  0.0444  1.2027
 1526TIP3    H226070   4.351   2.640   2.388 -0.0811  0.4035 -0.4613
 1527TIP3   OH226071   5.902   2.429   2.418  0.0858 -0.7810 -0.1370
 1527TIP3    H126072   5.964   2.357   2.406  0.2999 -0.7367  0.6589
 1527TIP3    H226073   5.955   2.508   2.418 -0.0246 -0.7044  0.0254
 1528TIP3   OH226074   3.329   6.377   2.800  0.4519  0.0331 -0.2577
 1528TIP3    H126075   3.309   6.356   2.708 -0.5787 -1.5747  0.2914
 1528TIP3    H226076   3.243   6.385   2.841  0.8724 -2.2849  1.1967
 1529TIP3   OH226077   2.597   2.193  16.602  0.3115 -0.1577  0.1612
 1529TIP3    H126078   2.543   2.262  16.563  1.1891  0.5316  0.1363
 1529TIP3    H226079   2.669   2.181  16.540 -0.6625 -2.2764 -0.6760
 1530TIP3   OH226080   5.756   4.791  11.891 -0.0696  0.0330  0.6811
 1530TIP3    H126081   5.706   4.844  11.829  0.5728  0.5732  0.6138
 1530TIP3    H226082   5.792   4.720  11.838  0.5706  0.5558  0.4080
 1531TIP3   OH226083   2.399   5.173  13.153 -0.2679 -0.5847  0.1089
 1531TIP3    H126084   2.443   5.089  13.143  0.8097 -0.0775  0.4880
 1531TIP3    H226085   2.469   5.236  13.167 -0.9785  0.5649 -1.2140
 1532TIP3   OH226086   1.084   3.792  11.768  0.7996  0.0425 -0.4270
 1532TIP3    H126087   1.093   3.725  11.701  0.4499  0.0715 -0.5066
 1532TIP3    H226088   1.042   3.865  11.723  1.8755  0.6132 -0.5376
 1533TIP3   OH226089   0.773   1.947   2.605 -0.3422  0.3169 -0.4281
 1533TIP3    H126090   0.744   1.864   2.641  0.2162 -0.4682 -1.7080
 1533TIP3    H226091   0.740   1.947   2.515  0.6295  0.9583 -0.8080
 1534TIP3   OH226092   6.793   4.305  14.073 -0.0065  0.0018  0.0534
 1534TIP3    H126093   6.826   4.351  13.995 -0.2052  0.1434  0.0511
 1534TIP3    H226094   6.832   4.218  14.067 -1.0760 -0.4408 -0.9300
 1535TIP3   OH226095   0.972   2.866  16.817 -0.2620  0.3982 -0.0300
 1535TIP3    H126096   0.967   2.887  16.724  0.0448 -0.2708 -0.1988
 1535TIP3    H226097   0.881   2.869  16.848 -0.2660  1.7306 -0.0922
 1536TIP3   OH226098   3.748   5.841   0.359  0.1674 -0.1914  0.3552
 1536TIP3    H126099   3.804   5.917   0.347  0.1666 -0.2043  0.2700
 1536TIP3    H226100   3.663   5.877   0.385  0.5220 -0.2221  1.6242
 1537TIP3   OH226101   4.060   5.922   4.791 -0.6446 -0.0859 -0.2973
 1537TIP3    H126102   4.149   5.932   4.826 -1.0650  1.9269  0.3587
 1537TIP3    H226103   4.003   5.941   4.866 -1.5910  1.0383 -1.2577
 1538TIP3   OH226104   6.237   4.876   4.027  0.6635  0.3534  0.2494
 1538TIP3    H126105   6.251   4.947   3.963 -0.5922  0.8800  0.5337
 1538TIP3    H226106   6.143   4.877   4.043  0.8954 -0.0709  1.7695
 1539TIP3   OH226107   4.875   3.069  13.464  0.0442 -0.1523  0.2282
 1539TIP3    H126108   4.883   3.064  13.560 -2.9876  1.6577  0.7083
 1539TIP3    H226109   4.905   3.157  13.442  1.3214 -0.7680 -0.6524
 1540TIP3   OH226110   4.729   0.668  13.451  0.2476 -0.3185  0.0235
 1540TIP3    H126111   4.783   0.737  13.490  1.4467  0.3458 -2.5715
 1540TIP3    H226112   4.642   0.681  13.489  0.5216  2.4530 -0.0951
 1541TIP3   OH226113   5.244   4.877  15.046 -0.2013 -0.1976  0.6250
 1541TIP3    H126114   5.156   4.899  15.077 -1.3975 -2.3573 -0.9745
 1541TIP3    H226115   5.287   4.836  15.121 -0.7831  0.2683  1.2262
 1542TIP3   OH226116   2.721   1.877   0.331  0.3884 -0.2564 -0.5427
 1542TIP3    H126117   2.636   1.919   0.318 -1.7648 -4.1220 -0.1661
 1542TIP3    H226118   2.766   1.887   0.247 -0.0561  2.4012 -0.5490
 1543TIP3   OH226119   0.499   5.712   2.743  0.2999 -0.0850 -0.0220
 1543TIP3    H126120   0.549   5.631   2.733  0.4155  0.0081 -0.2117
 1543TIP3    H226121   0.566   5.781   2.745  0.4555 -0.1739  2.9431
 1544TIP3   OH226122   2.708   0.593   1.675  0.0264  0.0625  0.4762
 1544TIP3    H126123   2.619   0.614   1.705 -0.1708 -1.7533  1.3006
 1544TIP3    H226124   2.765   0.637   1.738 -0.3629 -1.2676  1.8170
 1545TIP3   OH226125   3.531   3.720  15.393 -0.9285  0.0267  0.2388
 1545TIP3    H126126   3.439   3.729  15.370 -0.6243 -1.4771 -1.7871
 1545TIP3    H226127   3.565   3.653  15.334  1.0484 -0.8364  2.1987
 1546TIP3   OH226128   3.664   5.304   4.378  0.7062 -0.1518 -0.4685
 1546TIP3    H126129   3.737   5.318   4.439 -0.0300  0.7631  0.2446
 1546TIP3    H226130   3.649   5.391   4.340 -1.5042  0.2546  1.1526
 1547TIP3   OH226131   1.659   4.696   5.449 -0.0461  0.1524  0.3556
 1547TIP3    H126132   1.630   4.722   5.537 -0.0616  0.9053  0.1395
 1547TIP3    H226133   1.709   4.772   5.418  0.1782 -0.2126 -0.1856
 1548TIP3   OH226134   2.197   2.195  11.512 -0.2630 -0.1463  0.6117
 1548TIP3    H126135   2.273   2.238  11.551  1.1944 -0.1699 -1.9672
 1548TIP3    H226136   2.121   2.242  11.547  1.1519  3.1281 -0.4189
 1549TIP3   OH226137   2.900   2.638   4.652  0.3753  0.1295 -0.1569
 1549TIP3    H126138   2.946   2.557   4.630  0.3056 -0.1974  0.8139
 1549TIP3    H226139   2.964   2.689   4.703  0.3515  0.5996 -0.5897
 1550TIP3   OH226140   1.607   3.635  16.390  0.0582  0.3185 -0.2600
 1550TIP3    H126141   1.662   3.623  16.313 -0.0169 -0.9077 -0.1532
 1550TIP3    H226142   1.666   3.621  16.464 -0.1346  0.2247 -0.1222
 1551TIP3   OH226143   2.926   5.428  16.914  0.6245  0.0779  0.1732
 1551TIP3    H126144   2.932   5.482  16.993 -1.6633 -1.1798  1.2997
 1551TIP3    H226145   2.903   5.490  16.845 -1.0154  0.7631  1.2477
 1552TIP3   OH226146   3.024   6.461   1.495 -0.1764  0.5808  0.2192
 1552TIP3    H126147   2.932   6.481   1.478 -0.6722  0.0177  2.0293
 1552TIP3    H226148   3.030   6.366   1.484  0.4746  0.7431 -1.0076
 1553TIP3   OH226149   5.898   1.372  13.544 -0.6058  0.2923  0.0577
 1553TIP3    H126150   5.936   1.382  13.456  1.0350 -0.6055  0.6260
 1553TIP3    H226151   5.942   1.438  13.596 -0.5688 -0.0740  0.4957
 1554TIP3   OH226152   4.707   1.785  10.882 -0.9058  0.1887 -0.1994
 1554TIP3    H126153   4.739   1.712  10.829  0.3225 -1.9467  3.1402
 1554TIP3    H226154   4.778   1.848  10.882 -0.5282 -0.2329 -0.3134
 1555TIP3   OH226155   2.323   1.935   1.535 -0.2837  0.0586  0.6902
 1555TIP3    H126156   2.265   1.908   1.606  0.4789  1.4535  1.8760
 1555TIP3    H226157   2.381   2.000   1.574  1.7827 -0.9303 -0.5785
 1556TIP3   OH226158   6.090   1.226  14.508 -0.7866  0.2270  0.0021
 1556TIP3    H126159   6.148   1.237  14.433  0.9618 -2.1399  0.9082
 1556TIP3    H226160   6.026   1.297  14.499  1.0160  1.7100 -2.1548
 1557TIP3   OH226161   6.436   0.904   1.488 -0.4243  0.0330  0.2162
 1557TIP3    H126162   6.448   0.810   1.503 -4.1868 -0.5594  0.4383
 1557TIP3    H226163   6.498   0.946   1.547  0.0035 -2.3100  1.5567
 1558TIP3   OH226164   6.828   5.377  14.589  0.3439  0.1997 -0.3159
 1558TIP3    H126165   6.829   5.400  14.683  1.5118  0.7150 -0.4349
 1558TIP3    H226166   6.745   5.332  14.577  0.9952 -1.6005  1.3856
 1559TIP3   OH226167   0.383   5.888   0.609 -0.5216 -0.6290 -0.0066
 1559TIP3    H126168   0.295   5.894   0.646  0.6284 -0.6894  3.1099
 1559TIP3    H226169   0.396   5.795   0.592 -1.0533 -0.6155 -0.5117
 1560TIP3   OH226170   5.934   3.866   2.239 -0.1517  0.0375  0.6168
 1560TIP3    H126171   5.930   3.841   2.331  3.9913 -1.8489  0.5398
 1560TIP3    H226172   5.902   3.789   2.191  0.6267 -0.2175  0.4908
 1561TIP3   OH226173   6.592   6.328  16.063  0.4401  0.3677  0.2067
 1561TIP3    H126174   6.618   6.413  16.028 -1.2024  0.0539 -1.9976
 1561TIP3    H226175   6.674   6.287  16.092  1.5628  1.7329 -0.9118
 1562TIP3   OH226176   4.229   3.418  14.962  0.3261 -0.0421 -0.5500
 1562TIP3    H126177   4.189   3.458  14.885 -0.0459 -2.0619 -1.4785
 1562TIP3    H226178   4.279   3.343  14.927  0.1836 -0.9814  1.1415
 1563TIP3   OH226179   4.863   5.684   5.512  0.0456 -0.6905  0.6678
 1563TIP3    H126180   4.871   5.750   5.444  0.5541 -0.0210  1.3672
 1563TIP3    H226181   4.794   5.625   5.480 -1.8618  1.2693  0.9015
 1564TIP3   OH226182   4.263   2.804  14.643  0.1833 -0.2385  0.0896
 1564TIP3    H126183   4.180   2.756  14.641  0.0968 -0.1794 -3.7945
 1564TIP3    H226184   4.238   2.896  14.644  0.2710 -0.2144  0.7212
 1565TIP3   OH226185   1.021   4.480  11.418 -0.3299  0.0523  0.3253
 1565TIP3    H126186   1.055   4.473  11.329 -0.2718 -1.2728  0.4270
 1565TIP3    H226187   1.077   4.545  11.461 -0.0931  0.3883 -0.4755
 1566TIP3   OH226188   3.244   3.267   3.299 -0.2667 -0.0090  0.7838
 1566TIP3    H126189   3.291   3.184   3.295  0.0447  0.1022  1.8149
 1566TIP3    H226190   3.250   3.302   3.211  2.9272  0.7148  1.1575
 1567TIP3   OH226191   3.605   6.124   6.210 -0.3213 -0.3386 -0.4684
 1567TIP3    H126192   3.696   6.152   6.216 -0.3525 -0.3505  0.1866
 1567TIP3    H226193   3.570   6.138   6.298 -1.5661  1.7272 -1.2293
 1568TIP3   OH226194   4.655   3.890   2.961 -0.4531  0.2479 -0.3285
 1568TIP3    H126195   4.618   3.804   2.981 -1.5279  0.5967 -0.7536
 1568TIP3    H226196   4.749   3.877   2.969 -0.6546 -0.5576  1.2070
 1569TIP3   OH226197   3.143   1.286  17.035  0.1719  0.6696  0.1442
 1569TIP3    H126198   3.119   1.271  16.943 -0.5832  2.8874 -0.0727
 1569TIP3    H226199   3.082   1.353  17.065  1.4817  1.1835  1.7897
 1570TIP3   OH226200   0.486   2.031   2.081 -0.0562 -0.0012 -0.3074
 1570TIP3    H126201   0.430   2.002   2.009 -0.3361 -0.0967 -0.0502
 1570TIP3    H226202   0.534   2.106   2.045 -0.0704 -0.1544 -0.6488
 1571TIP3   OH226203   4.223   2.048  12.841  0.4050 -0.1612 -0.2105
 1571TIP3    H126204   4.171   1.973  12.813  1.0075 -0.6020 -0.1638
 1571TIP3    H226205   4.312   2.026  12.816  0.5939  0.5234 -0.1512
 1572TIP3   OH226206   3.710   3.466   1.429 -0.2212 -0.0893  0.7309
 1572TIP3    H126207   3.764   3.476   1.351  0.0360  0.8916  1.0247
 1572TIP3    H226208   3.682   3.555   1.451 -1.1014 -0.4628  1.1913
 1573TIP3   OH226209   2.289   1.522  11.829  0.1836  0.1934 -0.6082
 1573TIP3    H126210   2.351   1.464  11.872 -0.7474 -1.1121 -0.9451
 1573TIP3    H226211   2.203   1.492  11.860 -0.3078  1.7906 -0.3382
 1574TIP3   OH226212   4.649   2.403   4.701 -0.5044  0.4081  0.3744
 1574TIP3    H126213   4.573   2.346   4.685  0.3705 -0.3314 -1.5447
 1574TIP3    H226214   4.708   2.383   4.628  0.9370  1.9646  1.0717
 1575TIP3   OH226215   6.538   1.404  11.528 -0.6303  0.0032 -0.3321
 1575TIP3    H126216   6.551   1.496  11.505 -0.1019  0.2133  0.7575
 1575TIP3    H226217   6.619   1.361  11.499  0.4861  0.4452  1.9496
 1576TIP3   OH226218   0.218   5.438  12.945  0.0499  0.0288  0.3997
 1576TIP3    H126219   0.131   5.438  12.986 -0.9092  0.8832 -1.4935
 1576TIP3    H226220   0.200   5.441  12.851  2.0998  2.3833 -0.0358
 1577TIP3   OH226221   2.811   5.578   2.382 -0.1878 -0.0216  0.6235
 1577TIP3    H126222   2.781   5.512   2.444  0.3496  0.6234  1.5866
 1577TIP3    H226223   2.820   5.658   2.433  1.9390  0.1117  0.1285
 1578TIP3   OH226224   3.928   0.846   2.814 -0.5050  0.5583 -0.0882
 1578TIP3    H126225   4.012   0.856   2.768 -0.3837  0.0879  0.0216
 1578TIP3    H226226   3.874   0.918   2.782 -0.6026 -0.0498 -1.3471
 1579TIP3   OH226227   1.420   3.574   5.497 -0.1674  0.3451 -0.2103
 1579TIP3    H126228   1.412   3.667   5.480 -0.2240  0.6161  1.2274
 1579TIP3    H226229   1.476   3.542   5.426 -1.3116  1.1893 -1.5347
 1580TIP3   OH226230   5.148   5.832  15.153 -0.3003  0.3967 -0.9589
 1580TIP3    H126231   5.198   5.831  15.071 -1.0430  1.2702 -1.4333
 1580TIP3    H226232   5.103   5.747  15.153 -1.2688  0.8715 -2.0916
 1581TIP3   OH226233   5.148   4.771   2.017  0.0715 -0.4727 -0.0290
 1581TIP3    H126234   5.057   4.742   2.006 -0.2383  0.1573  0.6982
 1581TIP3    H226235   5.144   4.833   2.090  0.8716  0.5409 -0.8087
 1582TIP3   OH226236   5.512   4.384   3.125  0.5086 -0.2748 -0.0783
 1582TIP3    H126237   5.538   4.316   3.188  1.7127 -0.8846 -1.1875
 1582TIP3    H226238   5.512   4.340   3.041 -0.6014  0.6570 -0.5870
 1583TIP3   OH226239   3.335   0.977   4.013 -0.0944 -0.6651 -0.0994
 1583TIP3    H126240   3.317   1.066   3.984  0.6279 -0.5646 -0.2722
 1583TIP3    H226241   3.250   0.943   4.041 -0.2364  0.3958  0.8383
 1584TIP3   OH226242   6.731   5.864  14.228  0.1108  0.2122  0.1450
 1584TIP3    H126243   6.706   5.914  14.306  0.4719  0.7338 -0.0656
 1584TIP3    H226244   6.771   5.929  14.170  1.7316 -0.5289  0.3771
 1585TIP3   OH226245   6.434   0.929   3.951 -0.2418  0.4512 -0.2269
 1585TIP3    H126246   6.462   0.905   4.039 -0.8535  0.5645  0.0081
 1585TIP3    H226247   6.353   0.880   3.937  1.5167 -2.1749 -2.0199
 1586TIP3   OH226248   0.921   5.417  16.774 -0.6313  0.2606 -0.1764
 1586TIP3    H126249   0.862   5.492  16.765 -1.6176 -0.2878  1.3517
 1586TIP3    H226250   0.958   5.425  16.862  1.5364  0.5224 -1.0516
 1587TIP3   OH226251   2.992   5.844  14.993 -0.0249 -0.0049  0.3405
 1587TIP3    H126252   2.987   5.792  14.913  1.1465  1.1976 -0.5720
 1587TIP3    H226253   3.086   5.845  15.015 -0.4110 -1.0840  2.2891
 1588TIP3   OH226254   1.714   2.326  13.401  0.5742 -0.4060  0.1568
 1588TIP3    H126255   1.756   2.242  13.416 -0.4927 -0.8562  0.6977
 1588TIP3    H226256   1.775   2.390  13.437  0.3434 -1.1218  1.9182
 1589TIP3   OH226257   6.264   2.106  12.298 -0.3089 -0.4791  0.3613
 1589TIP3    H126258   6.302   2.026  12.333 -1.6675 -1.0595  0.5425
 1589TIP3    H226259   6.217   2.144  12.372 -2.2673 -1.1358 -0.4935
 1590TIP3   OH226260   4.793   4.928   1.878  0.0214  0.4140 -0.1643
 1590TIP3    H126261   4.861   4.869   1.846  0.9920 -0.2101  2.8049
 1590TIP3    H226262   4.712   4.879   1.867  0.3976 -0.0630 -0.8896
 1591TIP3   OH226263   0.363   6.075   0.983  0.1733  0.0013  0.1653
 1591TIP3    H126264   0.328   6.108   0.900 -0.2388  0.2629  0.4418
 1591TIP3    H226265   0.442   6.128   0.998 -0.3849  0.7611  0.5162
 1592TIP3   OH226266   3.241   4.692  10.875  0.2167  0.7973 -0.4865
 1592TIP3    H126267   3.300   4.619  10.853 -0.5522  0.5438 -1.8431
 1592TIP3    H226268   3.291   4.745  10.936  1.3206 -0.1588 -0.5176
 1593TIP3   OH226269   0.643   1.671   2.739  0.0775  0.3619  0.0932
 1593TIP3    H126270   0.721   1.616   2.744 -1.3254 -2.0109 -2.0873
 1593TIP3    H226271   0.592   1.645   2.816 -0.7121 -1.7268 -1.0765
 1594TIP3   OH226272   6.274   2.202   5.927  0.2525 -0.7138  0.4970
 1594TIP3    H126273   6.188   2.217   5.967 -0.3353 -0.1104 -0.9373
 1594TIP3    H226274   6.257   2.139   5.857  1.1368 -1.2249  0.7308
 1595TIP3   OH226275   5.442   0.795  15.949 -0.3613  0.2381  0.1905
 1595TIP3    H126276   5.445   0.729  15.880  1.1144 -1.5659  1.8702
 1595TIP3    H226277   5.431   0.878  15.903 -1.8006 -1.0910 -2.0303
 1596TIP3   OH226278   3.603   4.439   4.033 -0.6198 -0.2802  0.3871
 1596TIP3    H126279   3.552   4.503   4.083  1.3863  1.1003  0.7836
 1596TIP3    H226280   3.681   4.487   4.004  0.4656 -2.2743 -0.1927
 1597TIP3   OH226281   3.364   3.431   3.954  0.1292  0.4355  0.0102
 1597TIP3    H126282   3.303   3.398   3.889 -0.3814 -0.9227  1.1070
 1597TIP3    H226283   3.405   3.352   3.990  0.7780  1.1765  0.9519
 1598TIP3   OH226284   3.255   2.525   3.130  0.0567  0.3723  0.3494
 1598TIP3    H126285   3.297   2.583   3.066  0.8954 -1.8119 -1.1923
 1598TIP3    H226286   3.162   2.526   3.105  0.2672  0.0795 -0.4739
 1599TIP3   OH226287   5.230   4.770   2.960 -0.5811 -0.4661 -0.4068
 1599TIP3    H126288   5.182   4.818   3.029 -1.2545 -1.8492  0.1189
 1599TIP3    H226289   5.164   4.753   2.893 -0.2454 -0.2979 -0.7804
 1600TIP3   OH226290   1.682   6.100  15.358 -0.5839  0.1768  0.2720
 1600TIP3    H126291   1.629   6.140  15.427  0.7497  2.1191  0.2614
 1600TIP3    H226292   1.619   6.070  15.293 -1.7644  0.2561  1.3452
 1601TIP3   OH226293   6.373   0.160  11.373  0.4382 -0.2316 -0.1656
 1601TIP3    H126294   6.282   0.133  11.382  0.2540  0.7301  1.1493
 1601TIP3    H226295   6.414   0.091  11.321 -0.4776 -1.9474  1.2973
 1602TIP3   OH226296   5.083   3.196  15.886  0.2818 -0.6909  0.0298
 1602TIP3    H126297   5.072   3.116  15.834 -0.1605 -1.3882  1.1514
 1602TIP3    H226298   5.059   3.170  15.975 -1.5188  1.0823  0.1464
 1603TIP3   OH226299   2.816   2.999  14.171 -0.3053 -0.0220  0.5848
 1603TIP3    H126300   2.849   3.037  14.090 -0.1663 -0.3511  0.4858
 1603TIP3    H226301   2.722   2.994  14.158 -0.1862 -1.0155  0.0354
 1604TIP3   OH226302   6.033   4.653  16.760  0.1823 -0.2634  0.0142
 1604TIP3    H126303   6.103   4.597  16.794 -1.4385 -1.4727  1.5052
 1604TIP3    H226304   6.016   4.715  16.831 -0.1387  0.1481 -0.4189
 1605TIP3   OH226305   3.834   2.504  14.543  0.4184 -0.4317 -0.1945
 1605TIP3    H126306   3.897   2.517  14.473 -0.1559 -1.4503 -0.9274
 1605TIP3    H226307   3.825   2.409  14.549  1.4155 -0.4492  2.1430
 1606TIP3   OH226308   3.422   5.122  13.242  0.1364  0.1481 -0.2355
 1606TIP3    H126309   3.370   5.150  13.317  1.1734 -0.1090  0.6039
 1606TIP3    H226310   3.416   5.027  13.243  0.6676  0.1129 -0.0918
 1607TIP3   OH226311   4.335   0.920  13.999 -0.5521 -0.4314 -0.3892
 1607TIP3    H126312   4.311   0.917  13.906 -0.0735 -1.0913 -0.5018
 1607TIP3    H226313   4.390   0.843  14.011  0.9691  0.6752  0.0073
 1608TIP3   OH226314   1.287   0.640   1.812  0.4272 -0.1835  0.0439
 1608TIP3    H126315   1.284   0.734   1.795  0.5233 -0.0423  0.7704
 1608TIP3    H226316   1.350   0.606   1.749 -0.0323  0.1501 -0.6050
 1609TIP3   OH226317   2.881   2.665  12.767 -0.4290 -0.5064 -0.5717
 1609TIP3    H126318   2.821   2.689  12.837 -0.6559 -1.2412 -0.5078
 1609TIP3    H226319   2.967   2.692  12.798 -0.2789 -2.2914  0.7336
 1610TIP3   OH226320   6.242   0.781  13.996  0.8542  0.1915 -0.2816
 1610TIP3    H126321   6.186   0.805  13.922 -0.3570 -1.0297  0.1884
 1610TIP3    H226322   6.268   0.865  14.034 -2.6441  0.9424  0.8887
 1611TIP3   OH226323   4.065   4.419  15.505 -1.2086 -0.1415 -0.3531
 1611TIP3    H126324   4.066   4.325  15.489  2.0689 -0.1986 -0.4922
 1611TIP3    H226325   4.070   4.458  15.417  0.0246  0.0418 -0.2201
 1612TIP3   OH226326   5.942   4.979   4.438 -0.0277 -0.4411 -0.0038
 1612TIP3    H126327   5.850   5.007   4.438 -0.0843 -0.5614 -1.4603
 1612TIP3    H226328   5.960   4.957   4.347  2.2652  2.1889 -0.2818
 1613TIP3   OH226329   2.605   4.572   2.836 -0.5421  0.0251 -0.3429
 1613TIP3    H126330   2.530   4.516   2.816 -1.7476  1.6271 -0.6107
 1613TIP3    H226331   2.587   4.605   2.925  0.7613 -0.9272  0.3032
 1614TIP3   OH226332   2.257   0.311   6.079  0.5106 -0.0251  0.4623
 1614TIP3    H126333   2.236   0.297   6.171 -0.2797 -1.2316  0.1225
 1614TIP3    H226334   2.197   0.254   6.032  2.7077 -1.5078 -0.6956
 1615TIP3   OH226335   3.223   0.866  13.760 -0.2407  0.1757  0.1500
 1615TIP3    H126336   3.220   0.777  13.794  2.4528  0.1000  0.3673
 1615TIP3    H226337   3.186   0.859  13.672 -1.9855 -0.7072  0.8976
 1616TIP3   OH226338   3.506   3.149  11.746 -0.0073  0.4898  0.2576
 1616TIP3    H126339   3.592   3.160  11.707 -0.7517 -0.8013 -1.8945
 1616TIP3    H226340   3.456   3.226  11.717  0.1497  0.7882  0.7662
 1617TIP3   OH226341   5.297   5.906   2.713 -0.8232  0.3605  0.7952
 1617TIP3    H126342   5.321   5.862   2.795 -0.8864 -0.4409  0.3981
 1617TIP3    H226343   5.339   5.991   2.718  0.2845 -0.1846  1.0829
 1618TIP3   OH226344   2.054   4.580   0.014 -0.4470 -0.7472  0.5797
 1618TIP3    H126345   2.115   4.512   0.042 -0.1307 -0.5910  0.2706
 1618TIP3    H226346   1.987   4.534  -0.036 -0.5698 -0.9145  0.8957
 1619TIP3   OH226347   4.893   1.460  13.172 -0.1851  0.1203  0.5778
 1619TIP3    H126348   4.942   1.437  13.251  0.3845  2.7696  1.0755
 1619TIP3    H226349   4.957   1.454  13.102  0.6475  2.4575  1.0656
 1620TIP3   OH226350   0.453   4.174  12.111 -0.2067  0.1532 -0.2850
 1620TIP3    H126351   0.424   4.250  12.061  0.2335  0.0358 -0.7220
 1620TIP3    H226352   0.548   4.174  12.103 -0.2972 -2.0774 -2.7777
 1621TIP3   OH226353   1.211   1.617  13.969 -0.2572  0.4077 -1.0929
 1621TIP3    H126354   1.252   1.651  13.890 -2.9276  0.5772 -2.5339
 1621TIP3    H226355   1.117   1.630  13.955 -0.9407 -1.0416  1.4176
 1622TIP3   OH226356   2.706   0.196  13.193 -0.0381 -0.5837 -0.2840
 1622TIP3    H126357   2.648   0.233  13.259 -0.5466 -0.4345 -0.8094
 1622TIP3    H226358   2.729   0.109  13.228  0.0837 -0.3215  0.3082
 1623TIP3   OH226359   0.934   5.210  11.578 -0.1345 -0.1354  0.4242
 1623TIP3    H126360   1.009   5.204  11.637 -0.0784 -0.3160  0.3354
 1623TIP3    H226361   0.957   5.279  11.517  0.3805 -0.8339 -0.1982
 1624TIP3   OH226362   3.635   2.182   3.174  0.6332 -0.7590 -0.2977
 1624TIP3    H126363   3.699   2.171   3.104 -0.2176 -1.8351 -0.9425
 1624TIP3    H226364   3.606   2.093   3.195  1.2191 -0.5138  1.7831
 1625TIP3   OH226365   4.886   1.527  12.299 -0.0257  0.0364  0.6762
 1625TIP3    H126366   4.881   1.539  12.205  2.1705 -0.4030  0.4430
 1625TIP3    H226367   4.901   1.615  12.334  1.1498 -0.0424  0.4032
 1626TIP3   OH226368   6.720   4.641  10.491 -0.8270  0.7147  0.0526
 1626TIP3    H126369   6.651   4.696  10.453 -1.9661  0.0361  1.0987
 1626TIP3    H226370   6.800   4.669  10.445 -1.9302  0.7756 -1.9589
 1627TIP3   OH226371   4.004   0.762   3.061  0.7313  0.6880  0.0431
 1627TIP3    H126372   4.082   0.784   3.010  0.1109  1.8326 -0.4604
 1627TIP3    H226373   3.933   0.761   2.997  0.1647  0.7311  0.6592
 1628TIP3   OH226374   4.101   4.135  17.203 -0.1535  0.1075 -0.0708
 1628TIP3    H126375   4.007   4.149  17.209 -0.2813 -0.2986 -0.9189
 1628TIP3    H226376   4.139   4.200  17.262 -0.9100  1.0566 -0.6043
 1629TIP3   OH226377   0.803   5.334  12.869 -0.4519 -0.5252  0.3027
 1629TIP3    H126378   0.847   5.317  12.952  0.0794  0.1678  0.1697
 1629TIP3    H226379   0.747   5.257  12.855 -0.0028 -0.9720  0.9414
 1630TIP3   OH226380   2.326   4.702  15.687  0.7100  0.1309  0.5465
 1630TIP3    H126381   2.295   4.618  15.721 -2.1042  1.0043  0.4263
 1630TIP3    H226382   2.263   4.724  15.618  1.3743  2.3474  0.5890
 1631TIP3   OH226383   1.459   0.660  14.784 -0.1738 -0.5219  0.1850
 1631TIP3    H126384   1.483   0.653  14.877  0.3828  1.7355  0.2801
 1631TIP3    H226385   1.534   0.704  14.744 -0.7793 -0.6798 -1.1578
 1632TIP3   OH226386   0.959   1.049   3.206 -0.3428 -0.2523 -0.4874
 1632TIP3    H126387   0.912   1.131   3.189  0.9541  0.6183 -0.0519
 1632TIP3    H226388   0.976   1.052   3.300  2.8565  0.7813 -0.9962
 1633TIP3   OH226389   1.667   5.122  11.362 -0.4894 -0.0564  0.3810
 1633TIP3    H126390   1.651   5.192  11.299  1.3391 -0.6113 -0.7786
 1633TIP3    H226391   1.617   5.148  11.439 -0.2589  2.2783 -0.1684
 1634TIP3   OH226392   2.426   3.459  17.116  0.3718 -0.1584  0.3553
 1634TIP3    H126393   2.438   3.550  17.090  0.2152 -0.2431 -0.0269
 1634TIP3    H226394   2.462   3.409  17.042  0.7241 -0.4059  0.6892
 1635TIP3   OH226395   5.641   6.612  11.723 -0.0338 -0.2927  0.1662
 1635TIP3    H126396   5.629   6.634  11.630  1.0627  0.3029  0.1402
 1635TIP3    H226397   5.686   6.688  11.759 -0.3295 -0.5805  1.1679
 1636TIP3   OH226398   5.614   0.430   0.311 -0.4412  0.6210  0.4026
 1636TIP3    H126399   5.651   0.385   0.386 -0.3596  0.5847  0.3410
 1636TIP3    H226400   5.522   0.403   0.309  0.0473 -1.2067 -0.8360
 1637TIP3   OH226401   3.702   3.217  13.805  0.5983 -0.0414 -0.3217
 1637TIP3    H126402   3.745   3.141  13.844 -0.9774 -0.0172  1.6401
 1637TIP3    H226403   3.622   3.182  13.766 -0.2024  0.5551  0.6996
 1638TIP3   OH226404   4.641   6.471  15.465 -0.4204  0.7697  0.5478
 1638TIP3    H126405   4.723   6.475  15.515  0.3754  1.0547 -0.7484
 1638TIP3    H226406   4.634   6.557  15.423  0.5854 -0.4270 -2.3240
 1639TIP3   OH226407   0.180   0.160   6.092  0.4314 -0.8314 -0.1294
 1639TIP3    H126408   0.144   0.220   6.157  0.0953 -0.8882 -0.2592
 1639TIP3    H226409   0.159   0.200   6.008  3.4809  0.7838 -0.2293
 1640TIP3   OH226410   0.974   5.105   1.173 -0.1040 -0.1977 -0.1309
 1640TIP3    H126411   1.061   5.098   1.133  0.1060  1.2747  0.0132
 1640TIP3    H226412   0.988   5.160   1.250 -1.1197 -0.1910  0.0546
 1641TIP3   OH226413   4.031   0.968  11.874 -0.0448 -0.9832  0.1654
 1641TIP3    H126414   3.986   1.030  11.931 -1.5926 -0.1564 -1.8612
 1641TIP3    H226415   3.980   0.888  11.880  1.1115 -1.6655  1.6345
 1642TIP3   OH226416   4.712   5.037   4.758  0.5548 -0.0364  0.3916
 1642TIP3    H126417   4.682   5.036   4.849  1.2713 -2.8500  0.6718
 1642TIP3    H226418   4.634   5.019   4.706  0.7587 -2.2182  0.7642
 1643TIP3   OH226419   6.814   0.197  11.340  0.3241  0.4907  0.5567
 1643TIP3    H126420   6.844   0.116  11.299  0.5905  1.2724 -0.8703
 1643TIP3    H226421   6.872   0.209  11.414  0.8049 -0.2069  0.3113
 1644TIP3   OH226422   6.317   2.152   4.940 -0.3074  0.0537  0.6748
 1644TIP3    H126423   6.338   2.201   4.860  0.5486 -0.9642  0.2542
 1644TIP3    H226424   6.270   2.074   4.909 -0.0752 -0.2888  1.1665
 1645TIP3   OH226425   6.505   5.479   1.746  0.0539  0.3091 -0.0482
 1645TIP3    H126426   6.589   5.462   1.704 -0.0399 -2.0341  0.5370
 1645TIP3    H226427   6.440   5.443   1.685 -0.1961 -1.4656  1.1704
 1646TIP3   OH226428   5.509   1.870  13.648 -0.0480  0.5143  0.6035
 1646TIP3    H126429   5.417   1.866  13.675  0.1228 -0.3499  1.1026
 1646TIP3    H226430   5.548   1.791  13.686  0.6891  0.3896 -0.3830
 1647TIP3   OH226431   3.144   3.573   2.717  0.2752 -1.0127  0.0773
 1647TIP3    H126432   3.137   3.641   2.650 -1.7081 -0.1361  1.0668
 1647TIP3    H226433   3.207   3.608   2.780 -1.9501  0.8666  1.4622
 1648TIP3   OH226434   1.008   2.949   5.910 -0.2053  0.4455 -0.0083
 1648TIP3    H126435   1.035   2.967   5.820  0.7298 -0.5516  0.0439
 1648TIP3    H226436   0.947   2.875   5.903 -0.0273  0.2772  0.1779
 1649TIP3   OH226437   0.018   0.025   5.858  0.2129  0.4251 -0.1886
 1649TIP3    H126438   0.006  -0.064   5.890 -0.8014  0.7133  0.2795
 1649TIP3    H226439  -0.036   0.079   5.916  0.5584  1.3108 -0.6628
 1650TIP3   OH226440   2.305   0.599  16.978  0.2982 -0.5954  0.3017
 1650TIP3    H126441   2.242   0.669  16.999  1.1197  0.1673  0.2800
 1650TIP3    H226442   2.379   0.615  17.037 -0.1708 -2.4495  1.4723
 1651TIP3   OH226443   6.624   4.834  16.267  0.2841  0.1612 -0.2574
 1651TIP3    H126444   6.529   4.851  16.269 -0.1377 -1.7246 -1.2098
 1651TIP3    H226445   6.635   4.758  16.325  1.0775 -0.1198 -0.7661
 1652TIP3   OH226446   4.392   0.640   0.539  0.1253  0.5894  0.3651
 1652TIP3    H126447   4.427   0.557   0.570 -1.1282  0.2400  0.8748
 1652TIP3    H226448   4.362   0.685   0.618  1.3669  1.8185  0.1711
 1653TIP3   OH226449   0.346   1.927   2.894  0.2006 -0.3507 -0.3972
 1653TIP3    H126450   0.316   1.879   2.817 -0.5940 -0.9300  0.2613
 1653TIP3    H226451   0.387   2.006   2.858 -1.6238  0.2061 -1.3723
 1654TIP3   OH226452   4.564   0.418  11.521 -0.1956  0.0085 -0.1062
 1654TIP3    H126453   4.629   0.476  11.560 -2.0057  0.8557  1.8304
 1654TIP3    H226454   4.573   0.433  11.426  1.3068  1.2651  0.1789
 1655TIP3   OH226455   4.486   2.534   1.911 -0.0541 -0.6714  0.5857
 1655TIP3    H126456   4.436   2.582   1.977  1.5997  0.7720  0.8705
 1655TIP3    H226457   4.572   2.577   1.910  0.1943 -1.0473 -2.0526
 1656TIP3   OH226458   6.773   0.857  13.934 -0.0318 -0.9412 -0.0834
 1656TIP3    H126459   6.818   0.783  13.893 -0.4972 -0.8865 -0.7097
 1656TIP3    H226460   6.680   0.834  13.929 -0.3254  0.3948 -1.7848
 1657TIP3   OH226461   2.819   6.025   1.820 -0.2481 -0.3711  0.2094
 1657TIP3    H126462   2.791   6.110   1.854  0.1246 -0.1699  0.0202
 1657TIP3    H226463   2.850   6.044   1.731  1.1224 -0.4657  0.6494
 1658TIP3   OH226464   5.575   0.478   2.807  0.1933 -0.6355  0.5680
 1658TIP3    H126465   5.581   0.392   2.764  0.1855 -0.1274 -0.4780
 1658TIP3    H226466   5.547   0.458   2.896 -1.3032 -1.6331 -0.0853
 1659TIP3   OH226467   4.468   3.351   3.859  0.5382  0.0509  0.4706
 1659TIP3    H126468   4.507   3.280   3.911  1.9114  0.0716 -0.4747
 1659TIP3    H226469   4.379   3.322   3.842  0.8680 -1.1379  0.6805
 1660TIP3   OH226470   4.994   5.724   3.691  0.2034  0.1705  0.0476
 1660TIP3    H126471   5.055   5.767   3.752 -1.6542 -0.1602  2.2639
 1660TIP3    H226472   4.924   5.787   3.678 -0.5401 -0.6433  0.0618
 1661TIP3   OH226473   1.259   3.061   1.596 -0.0727  0.1099 -0.3724
 1661TIP3    H126474   1.236   2.985   1.649  1.7758 -0.9995 -1.0437
 1661TIP3    H226475   1.353   3.075   1.613 -0.0519  1.3747 -1.3309
 1662TIP3   OH226476   2.696   0.607   0.551  0.9143  0.3435 -0.7752
 1662TIP3    H126477   2.636   0.603   0.477 -0.2811  1.9168  0.0438
 1662TIP3    H226478   2.719   0.699   0.559  0.3834  0.3741  1.2266
 1663TIP3   OH226479   3.887   0.418  12.998  0.0004  0.1581 -0.7488
 1663TIP3    H126480   3.967   0.470  13.007  0.2993 -0.3122 -0.6643
 1663TIP3    H226481   3.864   0.426  12.905  0.9789 -0.9032 -1.1021
 1664TIP3   OH226482   5.301   4.019  16.071 -0.3013 -0.0036 -0.1819
 1664TIP3    H126483   5.378   4.055  16.026 -0.1797  2.2998  1.6584
 1664TIP3    H226484   5.333   3.997  16.159 -1.3883 -0.6715  0.0723
 1665TIP3   OH226485   1.463   4.902  12.872  0.1837 -0.0374  0.1741
 1665TIP3    H126486   1.517   4.953  12.812 -0.8320  0.5560 -0.2690
 1665TIP3    H226487   1.512   4.821  12.885  2.1551  1.2467  1.3878
 1666TIP3   OH226488   1.009   5.777  11.333 -0.6750  0.4030  0.1583
 1666TIP3    H126489   1.038   5.761  11.243  1.8608  0.7063  0.8213
 1666TIP3    H226490   1.004   5.690  11.372 -1.9603  0.2563 -0.2869
 1667TIP3   OH226491   3.287   6.004   1.347 -0.6779  0.1410  0.1273
 1667TIP3    H126492   3.240   6.066   1.403 -0.9145 -1.2444  1.5230
 1667TIP3    H226493   3.367   5.983   1.396  0.0204  0.2948 -0.9190
 1668TIP3   OH226494   4.772   6.665   4.818  0.0862  0.2674 -0.7158
 1668TIP3    H126495   4.701   6.687   4.757 -0.3132  0.6946 -0.1129
 1668TIP3    H226496   4.727   6.647   4.901  0.6394 -0.0720 -0.4890
 1669TIP3   OH226497   3.613   2.266   1.385 -0.0513 -0.2175  0.0967
 1669TIP3    H126498   3.597   2.226   1.299  1.8238  0.9337 -0.8237
 1669TIP3    H226499   3.558   2.344   1.385 -1.6842 -1.3114  0.8432
 1670TIP3   OH226500   1.542   1.453  13.441  0.0544  0.1195  0.1187
 1670TIP3    H126501   1.543   1.513  13.367  1.8508  0.9101  0.7348
 1670TIP3    H226502   1.623   1.402  13.432 -0.2063 -0.4772  0.9788
 1671TIP3   OH226503   3.467   4.144  15.715  0.0051  0.1663  0.4364
 1671TIP3    H126504   3.390   4.178  15.671 -0.2856 -0.7764  0.1969
 1671TIP3    H226505   3.449   4.051  15.728  1.6141 -0.3834 -0.8102
 1672TIP3   OH226506   0.183   1.182   3.301  0.7670  0.1996 -0.7882
 1672TIP3    H126507   0.188   1.178   3.397 -1.5850 -2.0401 -0.6350
 1672TIP3    H226508   0.191   1.090   3.273 -0.7429  0.5461 -2.5296
 1673TIP3   OH226509   0.561   2.285  14.108  0.0631 -0.1596 -0.0486
 1673TIP3    H126510   0.526   2.313  14.023  0.2894 -2.0168 -0.8052
 1673TIP3    H226511   0.590   2.195  14.093  1.3437 -0.0722  1.6602
 1674TIP3   OH226512   0.523   0.786   2.530 -0.2454  0.1160  0.1401
 1674TIP3    H126513   0.571   0.795   2.612  3.7483 -0.1025 -1.9144
 1674TIP3    H226514   0.494   0.694   2.529  0.9443 -0.2909  0.7310
 1675TIP3   OH226515   4.691   5.117   2.837 -0.5515 -0.7929 -0.4461
 1675TIP3    H126516   4.639   5.073   2.904 -1.0011  0.2538 -0.0796
 1675TIP3    H226517   4.748   5.049   2.801  1.7976 -0.8388  2.9760
 1676TIP3   OH226518   4.130   1.379  16.129 -0.1780 -0.1137 -0.6076
 1676TIP3    H126519   4.130   1.295  16.083 -1.2212 -0.6987  0.3923
 1676TIP3    H226520   4.187   1.436  16.077 -1.2896 -0.7395 -2.5896
 1677TIP3   OH226521   1.748   2.662   6.132 -0.2139 -0.0121 -0.1045
 1677TIP3    H126522   1.709   2.721   6.197 -3.4914 -1.3492 -0.6307
 1677TIP3    H226523   1.776   2.586   6.183 -0.2799  0.0593  0.0416
 1678TIP3   OH226524   2.693   5.673  16.736  0.6413  0.0594 -0.9009
 1678TIP3    H126525   2.616   5.662  16.792  0.0855 -2.1344 -2.0052
 1678TIP3    H226526   2.764   5.695  16.797 -1.1915  5.0449 -0.0485
 1679TIP3   OH226527   6.460   0.528  12.391  0.4153 -0.2242  0.1737
 1679TIP3    H126528   6.436   0.445  12.433  0.4841 -0.1108  0.4419
 1679TIP3    H226529   6.458   0.592  12.462  0.3987 -0.0020 -0.0260
 1680TIP3   OH226530   0.142   6.223   4.956  0.2466  0.1240  0.1507
 1680TIP3    H126531   0.074   6.155   4.946  1.4702 -1.1533  0.2460
 1680TIP3    H226532   0.096   6.296   4.999 -1.0259 -0.7760  0.3979
 1681TIP3   OH226533   0.415   5.344  10.677  0.5065  0.3492  0.2989
 1681TIP3    H126534   0.374   5.274  10.727  0.5641 -0.6100 -0.9441
 1681TIP3    H226535   0.508   5.319  10.672  0.7589  1.1303  0.8317
 1682TIP3   OH226536   1.910   4.876  13.990 -0.0924 -0.7189  0.1534
 1682TIP3    H126537   1.885   4.803  13.933 -2.1050 -0.8052  1.0689
 1682TIP3    H226538   1.831   4.929  13.996  0.6719  0.3151  1.3350
 1683TIP3   OH226539   5.366   5.423  16.331  0.5005  0.7336 -0.5787
 1683TIP3    H126540   5.419   5.352  16.368  0.2473  0.4830 -0.6901
 1683TIP3    H226541   5.299   5.378  16.280  0.4001  1.0590 -0.7350
 1684TIP3   OH226542   6.127   0.172  13.534  0.5874 -0.1627 -0.0807
 1684TIP3    H126543   6.221   0.157  13.526  0.4005 -0.5014 -2.0723
 1684TIP3    H226544   6.120   0.261  13.567  1.6179  0.0720 -0.4595
 1685TIP3   OH226545   3.141   2.411  15.953 -0.2555  0.2177 -0.0632
 1685TIP3    H126546   3.214   2.366  15.909  0.0070  0.0911  0.4998
 1685TIP3    H226547   3.154   2.503  15.932  1.8288  0.6106  2.4712
 1686TIP3   OH226548   2.004   4.419  14.764  0.2643  0.1843  0.3476
 1686TIP3    H126549   1.923   4.378  14.733 -0.3676  2.6972 -1.7473
 1686TIP3    H226550   1.984   4.448  14.853 -1.5744  1.5585 -0.4248
 1687TIP3   OH226551   3.674   1.242  17.188 -0.3166 -0.3273 -0.1460
 1687TIP3    H126552   3.702   1.318  17.237  0.5921 -0.8165  0.1224
 1687TIP3    H226553   3.581   1.256  17.171 -0.1365  0.8671 -0.1737
 1688TIP3   OH226554   6.285   1.826   0.074  0.3900  0.1454  0.2331
 1688TIP3    H126555   6.280   1.851   0.166  2.0304  2.7622 -0.2913
 1688TIP3    H226556   6.371   1.785   0.065 -0.2244 -1.1403  0.0561
 1689TIP3   OH226557   6.619   4.146  12.621 -0.2056  0.3691 -0.3121
 1689TIP3    H126558   6.574   4.084  12.563  0.8021 -1.2549  0.5510
 1689TIP3    H226559   6.664   4.090  12.684  0.4213  2.0344  0.7626
 1690TIP3   OH226560   5.161   1.575  13.966 -0.4919 -0.0247 -0.2016
 1690TIP3    H126561   5.220   1.627  14.020 -0.0653 -1.1347  0.4314
 1690TIP3    H226562   5.198   1.579  13.878  1.0484 -1.3897  0.3367
 1691TIP3   OH226563   1.555   1.091  16.041  0.2497 -0.0654  0.2132
 1691TIP3    H126564   1.624   1.141  16.085 -0.7939  0.8592  0.8801
 1691TIP3    H226565   1.533   1.021  16.102  1.4771 -1.1690 -0.5737
 1692TIP3   OH226566   2.370   6.239   6.044 -0.0228 -0.1015 -0.2237
 1692TIP3    H126567   2.375   6.189   6.126 -0.5545 -0.2217 -0.2615
 1692TIP3    H226568   2.375   6.173   5.975 -0.9480 -0.1343 -0.2717
 1693TIP3   OH226569   6.813   0.919  12.833  0.0613 -0.3162 -0.1036
 1693TIP3    H126570   6.797   0.895  12.742  0.3614 -2.6054  0.3919
 1693TIP3    H226571   6.727   0.912  12.875 -0.0738  0.7183 -0.1792
 1694TIP3   OH226572   2.032   4.490  16.287 -0.2890  0.9596  0.4956
 1694TIP3    H126573   2.004   4.429  16.218  1.3185 -1.2190  1.6436
 1694TIP3    H226574   2.048   4.572  16.241  0.0351 -0.2075 -1.6180
 1695TIP3   OH226575   5.229   3.396   5.117  0.4748  0.2005  0.2430
 1695TIP3    H126576   5.246   3.445   5.036 -0.2797  0.7625  0.4120
 1695TIP3    H226577   5.307   3.411   5.171 -0.0058  1.7612  0.5484
 1696TIP3   OH226578   5.471   0.387   1.057  0.4431  0.5285  0.1974
 1696TIP3    H126579   5.517   0.336   0.990  1.5437  0.3353  1.0753
 1696TIP3    H226580   5.518   0.470   1.060 -0.4059  1.0303 -0.1628
 1697TIP3   OH226581   0.826   0.822   3.479  0.0944  0.2863  0.1846
 1697TIP3    H126582   0.833   0.751   3.415 -2.8730 -0.2954  0.3646
 1697TIP3    H226583   0.870   0.787   3.557  0.4011 -0.5569 -0.3432
 1698TIP3   OH226584   5.864   4.959  13.155 -0.1241 -0.1315 -0.1569
 1698TIP3    H126585   5.795   4.894  13.145  0.2884 -0.8660  1.3657
 1698TIP3    H226586   5.883   4.988  13.066 -0.5857 -1.8241 -0.8591
 1699TIP3   OH226587   3.444   6.535  14.416  0.4340 -0.2371  0.2254
 1699TIP3    H126588   3.382   6.565  14.483 -1.0323  1.2149 -1.6944
 1699TIP3    H226589   3.398   6.466  14.369  1.0861 -0.5877  0.0937
 1700TIP3   OH226590   5.089   6.310  11.387 -0.7291 -0.1478 -0.1201
 1700TIP3    H126591   5.143   6.390  11.391  0.1546 -0.7616  0.8402
 1700TIP3    H226592   5.013   6.331  11.441 -0.2175 -0.1390  0.6219
 1701TIP3   OH226593   6.781   5.256   0.692 -0.2077  0.2537 -0.4685
 1701TIP3    H126594   6.758   5.289   0.605 -0.5740  0.0821 -0.4377
 1701TIP3    H226595   6.760   5.163   0.688  2.6569 -0.4527 -1.2099
 1702TIP3   OH226596   0.311   0.639   4.477  0.5896 -0.2638  0.1250
 1702TIP3    H126597   0.293   0.638   4.571 -1.0923  0.9123 -0.1388
 1702TIP3    H226598   0.404   0.615   4.470  1.6770  2.6231  2.3225
 1703TIP3   OH226599   3.152   3.786   0.759  0.5710  0.1305 -0.3150
 1703TIP3    H126600   3.093   3.840   0.812 -0.2551 -0.2725 -0.8062
 1703TIP3    H226601   3.203   3.848   0.708 -0.8521  0.4627 -1.3878
 1704TIP3   OH226602   1.661   1.133  12.094 -0.2680 -0.0126 -0.2950
 1704TIP3    H126603   1.601   1.139  12.169 -0.1496 -0.7750 -0.1227
 1704TIP3    H226604   1.607   1.100  12.023  0.0863 -1.4833  0.0726
 1705TIP3   OH226605   2.730   6.502  13.803  0.3209  0.0984 -0.3486
 1705TIP3    H126606   2.723   6.445  13.727 -0.1971  0.1599 -0.3490
 1705TIP3    H226607   2.801   6.464  13.855 -0.7262 -1.1958  0.1951
 1706TIP3   OH226608   5.218   2.591   5.641 -0.3301 -0.7185 -0.5080
 1706TIP3    H126609   5.157   2.517   5.637 -0.2059 -0.8078 -0.7337
 1706TIP3    H226610   5.288   2.567   5.581 -0.6060 -0.1301 -1.0707
 1707TIP3   OH226611   2.853   6.145   1.570 -0.1031 -0.0375  0.0480
 1707TIP3    H126612   2.909   6.143   1.492 -0.5417 -1.8567 -0.2604
 1707TIP3    H226613   2.801   6.225   1.559 -1.0271 -0.8644 -2.1980
 1708TIP3   OH226614   2.739   6.785   4.129  0.2632  0.4778  0.5625
 1708TIP3    H126615   2.736   6.873   4.092  0.0537  0.7992  1.3442
 1708TIP3    H226616   2.831   6.761   4.125  0.3314  0.7541  0.4125
 1709TIP3   OH226617   0.627   0.518   0.637 -0.7793 -0.3545 -0.0017
 1709TIP3    H126618   0.572   0.521   0.716 -0.9991  0.8562 -0.1743
 1709TIP3    H226619   0.709   0.479   0.666 -1.4983 -1.6366  0.4012
 1710TIP3   OH226620   3.075   0.468  13.357  0.0533  0.2050 -0.1766
 1710TIP3    H126621   3.169   0.464  13.338 -0.0421 -0.5531 -0.5452
 1710TIP3    H226622   3.051   0.377  13.376 -0.3372  0.5816  1.2653
 1711TIP3   OH226623   6.090   2.011  15.399  0.8605  0.4135  0.6595
 1711TIP3    H126624   5.999   2.001  15.372  0.2444  2.4408  1.7899
 1711TIP3    H226625   6.120   2.090  15.354  2.4857 -0.8813 -0.6547
 1712TIP3   OH226626   0.522   6.120   0.587 -0.0517  0.6768 -0.1964
 1712TIP3    H126627   0.471   6.039   0.581 -1.5230  1.6206 -0.9916
 1712TIP3    H226628   0.595   6.098   0.646 -1.2903 -0.7625  0.8912
 1713TIP3   OH226629   0.770   0.325  14.804  0.6237 -0.0002 -0.3781
 1713TIP3    H126630   0.680   0.300  14.784  0.8722 -0.0934 -1.4345
 1713TIP3    H226631   0.804   0.252  14.855  0.8413 -1.1216 -2.0423
 1714TIP3   OH226632   4.217   0.618  12.091  0.0999  0.6297 -0.0398
 1714TIP3    H126633   4.135   0.569  12.091 -2.1865  4.0987 -2.4084
 1714TIP3    H226634   4.213   0.672  12.170  0.2376  0.6387 -0.0387
 1715TIP3   OH226635   5.363   1.907  15.429 -0.1846 -0.8200 -0.5966
 1715TIP3    H126636   5.379   1.861  15.512 -0.4974 -0.5847 -0.4071
 1715TIP3    H226637   5.295   1.856  15.386 -1.0206 -0.1524 -0.0801
 1716TIP3   OH226638   4.110   1.437   0.773  0.6195 -0.0545  0.3648
 1716TIP3    H126639   4.125   1.343   0.780 -0.4100 -0.7193 -3.6867
 1716TIP3    H226640   4.172   1.466   0.705 -1.1673  1.5062 -0.6917
 1717TIP3   OH226641   4.408   0.972   2.234  0.2346 -0.0973 -0.1871
 1717TIP3    H126642   4.473   1.023   2.187  0.1866 -0.6327 -0.8453
 1717TIP3    H226643   4.437   0.976   2.326  0.5903  0.5527 -0.3191
 1718TIP3   OH226644   4.285   1.430  14.322 -0.5515  0.1924  0.2755
 1718TIP3    H126645   4.206   1.391  14.284  0.4922 -0.8357 -0.9375
 1718TIP3    H226646   4.320   1.361  14.379  0.8701 -0.4128 -1.2581
 1719TIP3   OH226647   1.612   0.118   3.790  0.1047 -0.8700 -0.2729
 1719TIP3    H126648   1.599   0.042   3.846  1.7872 -2.1894 -1.5852
 1719TIP3    H226649   1.673   0.173   3.838 -0.7416 -0.5456  0.4607
 1720TIP3   OH226650   5.058   4.460   0.167  0.0582  0.3990  0.1709
 1720TIP3    H126651   5.022   4.539   0.126  1.0105  1.9182  2.0968
 1720TIP3    H226652   5.026   4.464   0.257  1.8507 -0.2597  0.8647
 1721TIP3   OH226653   0.639   3.761  13.079 -0.1910  0.1227  0.1685
 1721TIP3    H126654   0.566   3.788  13.134 -0.8856  0.2103 -0.7737
 1721TIP3    H226655   0.611   3.680  13.038 -0.8612  1.4158 -2.1599
 1722TIP3   OH226656   3.548   4.432   5.743 -0.0360  0.4264  0.2195
 1722TIP3    H126657   3.464   4.388   5.750  1.0240 -1.9418 -0.9494
 1722TIP3    H226658   3.554   4.460   5.652  0.7111 -0.0549  0.1117
 1723TIP3   OH226659   6.677   0.648   2.276  0.0483  0.5786 -0.6082
 1723TIP3    H126660   6.735   0.582   2.314 -1.3804 -2.3028 -2.9993
 1723TIP3    H226661   6.600   0.648   2.334  0.1058  0.2252 -0.5282
 1724TIP3   OH226662   3.093   0.175  11.305  0.3000 -0.1605  0.1052
 1724TIP3    H126663   3.067   0.099  11.252  0.9445  1.3982 -2.6750
 1724TIP3    H226664   3.011   0.218  11.328 -0.1039  1.6250 -3.7582
 1725TIP3   OH226665   2.794   4.878   4.657  0.0963  0.3395  0.3134
 1725TIP3    H126666   2.739   4.937   4.604 -1.2188 -0.7968  0.3582
 1725TIP3    H226667   2.842   4.826   4.592 -1.2067 -0.7667  0.1834
 1726TIP3   OH226668   1.624   4.990   2.039 -0.0612 -0.2799  0.3540
 1726TIP3    H126669   1.702   4.945   2.071  1.4346  2.0356  0.1983
 1726TIP3    H226670   1.624   4.973   1.944  0.8715  0.4869  0.1909
 1727TIP3   OH226671   5.070   5.424   4.697 -0.0052  0.1164 -0.8633
 1727TIP3    H126672   5.111   5.340   4.675 -2.1252 -1.2335  0.0111
 1727TIP3    H226673   4.978   5.402   4.711 -0.3446  2.3307  0.8804
 1728TIP3   OH226674   1.107   3.538   1.990  0.4705  0.5719 -0.1221
 1728TIP3    H126675   1.052   3.480   1.937  1.9754 -1.5892  0.5833
 1728TIP3    H226676   1.049   3.571   2.058 -0.5782  0.4572 -0.9369
 1729TIP3   OH226677   4.170   5.783   3.270 -0.8173 -0.4215  0.5735
 1729TIP3    H126678   4.134   5.856   3.219  1.5176  1.4757  1.4514
 1729TIP3    H226679   4.098   5.756   3.326 -1.4299  2.1614  1.1798
 1730TIP3   OH226680   6.825   5.905  15.039  0.9971 -0.3822  0.6256
 1730TIP3    H126681   6.886   5.863  14.978 -0.0992  0.3521 -1.0663
 1730TIP3    H226682   6.822   5.997  15.010 -1.9418 -0.6656 -0.3216
 1731TIP3   OH226683   4.682   3.916   2.591 -0.2283  0.8447 -0.4493
 1731TIP3    H126684   4.630   3.938   2.669 -1.3785  0.4386 -1.0839
 1731TIP3    H226685   4.772   3.909   2.624 -0.6537  0.9191  0.7948
 1732TIP3   OH226686   2.974   3.033  11.859 -0.0809  0.1241 -0.1929
 1732TIP3    H126687   2.899   3.076  11.819 -0.8332 -0.5020  0.5278
 1732TIP3    H226688   2.980   3.072  11.946  0.7479  0.5312 -0.4198
 1733TIP3   OH226689   0.662   4.379  15.763  0.9614  0.5217  0.3224
 1733TIP3    H126690   0.663   4.284  15.746  0.1620  0.5759 -0.0619
 1733TIP3    H226691   0.753   4.400  15.785  0.7186 -0.7506  2.8655
 1734TIP3   OH226692   0.950   6.678  16.021  0.0695 -0.1477  0.3956
 1734TIP3    H126693   0.996   6.762  16.010 -0.5751 -0.0889 -2.5782
 1734TIP3    H226694   0.858   6.702  16.030 -0.6917 -0.4312 -4.2355
 1735TIP3   OH226695   3.587   6.633   3.465  0.6216 -0.0045 -0.3266
 1735TIP3    H126696   3.564   6.677   3.383  0.9805  0.0510 -0.3988
 1735TIP3    H226697   3.566   6.541   3.449  1.0975 -0.0590 -0.6327
 1736TIP3   OH226698   2.828   1.395  11.135 -0.2466 -0.7478  0.2583
 1736TIP3    H126699   2.885   1.363  11.205 -2.0816 -1.0613  1.6685
 1736TIP3    H226700   2.740   1.376  11.165 -1.2762  2.3097 -0.5415
 1737TIP3   OH226701   5.217   3.801  14.093 -0.3205  0.0715 -0.5369
 1737TIP3    H126702   5.247   3.734  14.032  2.0997 -0.8834  1.5251
 1737TIP3    H226703   5.293   3.859  14.103 -1.4183  1.4967 -0.0891
 1738TIP3   OH226704   3.417   1.311  17.112 -0.1716 -1.2477  0.1188
 1738TIP3    H126705   3.325   1.301  17.136 -1.0652 -3.3772 -3.4133
 1738TIP3    H226706   3.414   1.346  17.023  2.6416  2.0589  1.1423
 1739TIP3   OH226707   0.794   0.553   1.838  0.2691  0.4479  0.2619
 1739TIP3    H126708   0.878   0.598   1.846 -0.5209  2.0354 -0.1546
 1739TIP3    H226709   0.733   0.605   1.890 -0.2996 -1.1940  1.3164
 1740TIP3   OH226710   0.141   1.931   1.356  0.4324  0.4703 -0.0056
 1740TIP3    H126711   0.185   2.006   1.314 -0.8364  1.7015  0.7611
 1740TIP3    H226712   0.150   1.948   1.450  1.1657 -1.0141  0.2246
 1741TIP3   OH226713   0.102   2.409   4.112 -0.1730  0.8936  0.4478
 1741TIP3    H126714   0.071   2.420   4.022  0.5883  0.2743  0.1004
 1741TIP3    H226715   0.188   2.368   4.103 -0.7522 -0.6435  1.5009
 1742TIP3   OH226716   0.067   1.854  13.876 -0.1194 -0.4576 -0.4500
 1742TIP3    H126717  -0.011   1.799  13.874  0.0604 -0.7133 -0.5002
 1742TIP3    H226718   0.051   1.921  13.810 -0.5698 -0.1310 -0.0156
 1743TIP3   OH226719   6.761   2.275   3.095  0.0914  0.2838  0.7321
 1743TIP3    H126720   6.846   2.301   3.059  0.0735  0.8271  1.0653
 1743TIP3    H226721   6.773   2.276   3.189 -0.5105  1.2207  0.8212
 1744TIP3   OH226722   1.057   3.166   3.962  0.2142  0.0174  0.4395
 1744TIP3    H126723   1.137   3.116   3.978 -1.0846 -3.0168 -1.6425
 1744TIP3    H226724   1.083   3.257   3.977  4.3066 -0.6941 -0.9390
 1745TIP3   OH226725   0.747   1.194   3.110  0.2686  0.2523  0.2902
 1745TIP3    H126726   0.652   1.187   3.102  0.3119  0.7990 -0.8215
 1745TIP3    H226727   0.772   1.266   3.052  1.1418  1.5991  2.2530
 1746TIP3   OH226728   5.097   4.986   4.428 -0.4121  0.0495  0.5317
 1746TIP3    H126729   5.007   4.959   4.411 -0.2649  0.6550 -1.4906
 1746TIP3    H226730   5.118   5.047   4.357  2.5440 -2.2304 -0.7535
 1747TIP3   OH226731   5.938   4.226   6.287 -0.0693 -0.1362 -0.5259
 1747TIP3    H126732   5.997   4.294   6.256  1.1676 -0.2913  1.3662
 1747TIP3    H226733   5.946   4.156   6.222  1.8521 -0.1492 -0.3385
 1748TIP3   OH226734   6.365   0.758   2.659  0.1340  0.4737  0.3346
 1748TIP3    H126735   6.272   0.735   2.663  0.0814  0.2086 -1.4637
 1748TIP3    H226736   6.385   0.790   2.746 -1.3358 -0.6242  1.1346
 1749TIP3   OH226737   2.292   0.031   2.695  0.5250 -0.8473 -0.0317
 1749TIP3    H126738   2.382   0.026   2.661  0.5111 -1.1097 -0.0324
 1749TIP3    H226739   2.277   0.124   2.709 -0.1251 -0.5112 -2.4794
 1750TIP3   OH226740   0.803   1.133  14.505 -0.6343  0.5298  0.3571
 1750TIP3    H126741   0.787   1.184  14.584 -2.5228  2.1052 -0.9495
 1750TIP3    H226742   0.771   1.189  14.434  0.6400 -0.9831 -1.5025
 1751TIP3   OH226743   3.577   4.454   0.981 -0.5053  0.4784  0.1933
 1751TIP3    H126744   3.598   4.548   0.978 -0.9017  0.6980  2.4948
 1751TIP3    H226745   3.644   4.413   0.925  0.3450  2.0309  0.0127
 1752TIP3   OH226746   3.959   2.500   0.613 -0.2906 -0.2944  0.9677
 1752TIP3    H126747   4.027   2.457   0.562  0.0286  2.8610 -1.6426
 1752TIP3    H226748   4.003   2.530   0.693  0.8528 -0.1960  0.3253
 1753TIP3   OH226749   0.148   1.949  14.831  0.2887 -0.9237  0.0328
 1753TIP3    H126750   0.106   2.006  14.896 -0.9384 -1.7039 -0.0547
 1753TIP3    H226751   0.210   1.897  14.883 -0.2575 -1.1326  0.4810
 1754TIP3   OH226752   3.639   4.311  14.536 -0.2005  0.8721 -0.3828
 1754TIP3    H126753   3.670   4.398  14.563  0.7937  0.5659 -0.4670
 1754TIP3    H226754   3.718   4.257  14.540 -0.9786 -0.2150  0.4671
 1755TIP3   OH226755   6.694   1.705  12.792  0.1500 -0.3789  0.5359
 1755TIP3    H126756   6.720   1.656  12.870  1.4879  0.2722  0.5407
 1755TIP3    H226757   6.766   1.690  12.730 -0.6404 -0.4622 -0.3738
 1756TIP3   OH226758   1.108   1.170   2.561 -0.2115  0.1111  0.3024
 1756TIP3    H126759   1.150   1.166   2.475  2.4430  1.3267  1.4341
 1756TIP3    H226760   1.130   1.086   2.602 -2.4696 -0.9737 -0.5222
 1757TIP3   OH226761   1.833   6.426  10.908  0.0874  0.1460 -0.0940
 1757TIP3    H126762   1.908   6.433  10.848  1.8315  0.4840  1.9911
 1757TIP3    H226763   1.814   6.332  10.912  2.3805 -0.3360  1.5266
 1758TIP3   OH226764   3.235   4.451   3.473  0.5687  0.3503  0.1274
 1758TIP3    H126765   3.305   4.389   3.492  2.8704  2.7240 -0.0467
 1758TIP3    H226766   3.182   4.453   3.553  1.5029 -0.4569  0.7865
 1759TIP3   OH226767   3.179   0.002  14.199 -0.1332  0.4124 -0.5149
 1759TIP3    H126768   3.085   0.010  14.213 -0.1511 -0.4718 -0.0715
 1759TIP3    H226769   3.218   0.039  14.278 -0.1563 -0.9051  0.1345
 1760TIP3   OH226770   0.246   6.719   5.521  0.8812 -1.0101  0.3836
 1760TIP3    H126771   0.167   6.694   5.570 -0.0997  0.9422 -0.0950
 1760TIP3    H226772   0.222   6.705   5.429 -0.1331  2.4880  0.0041
 1761TIP3   OH226773   3.710   0.323  10.674 -0.6214  0.1811 -0.1332
 1761TIP3    H126774   3.703   0.251  10.612 -1.0894 -1.1321  1.3779
 1761TIP3    H226775   3.625   0.368  10.669 -1.2522 -0.8746  0.6391
 1762TIP3   OH226776   1.197   0.302   5.070  0.1440  0.0105  0.0073
 1762TIP3    H126777   1.140   0.295   5.147 -0.0643  1.7341  0.0543
 1762TIP3    H226778   1.182   0.391   5.037  0.9686 -0.3544 -1.4525
 1763TIP3   OH226779   0.636   1.385  14.995  0.4775 -0.1834  0.1919
 1763TIP3    H126780   0.614   1.321  15.062  0.8145 -0.3987  0.1015
 1763TIP3    H226781   0.637   1.469  15.041 -3.7171  0.3902 -0.3765
 1764TIP3   OH226782   4.095   2.311   2.951  0.7733  0.2948 -0.7452
 1764TIP3    H126783   4.145   2.392   2.954  0.9483  0.1588  0.3185
 1764TIP3    H226784   4.004   2.338   2.963  0.8099  0.3504 -0.5922
 1765TIP3   OH226785   5.704   0.234  12.646 -0.4041  0.2067  0.5771
 1765TIP3    H126786   5.792   0.250  12.680  0.5271 -1.0121 -1.1072
 1765TIP3    H226787   5.715   0.164  12.581 -2.5624  0.2665  0.0524
 1766TIP3   OH226788   4.033   6.408  14.620 -0.3977 -0.0171 -0.0631
 1766TIP3    H126789   4.102   6.414  14.686  0.8306 -0.1268 -1.2923
 1766TIP3    H226790   3.988   6.493  14.625 -0.0204  0.1488  0.5841
 1767TIP3   OH226791   6.393   5.314  13.665 -0.2052  0.0944 -0.5487
 1767TIP3    H126792   6.373   5.244  13.727 -2.9889  0.5499 -0.8189
 1767TIP3    H226793   6.392   5.394  13.717 -0.6366  0.2832 -0.8417
 1768TIP3   OH226794   1.377   3.929   4.412 -0.3188 -0.1667  0.6172
 1768TIP3    H126795   1.319   3.999   4.444  0.2209  0.8630 -0.5366
 1768TIP3    H226796   1.465   3.964   4.424 -0.0648 -0.3038 -0.7038
 1769TIP3   OH226797   1.450   4.144  16.270  0.2757 -0.0855 -0.1438
 1769TIP3    H126798   1.386   4.078  16.242  0.6810  0.0020 -1.3182
 1769TIP3    H226799   1.397   4.211  16.314 -0.3524 -0.3488 -0.4821
 1770TIP3   OH226800   5.626   2.629   0.550  0.2081  0.2572 -0.1213
 1770TIP3    H126801   5.570   2.578   0.608  0.5326 -1.3412 -1.1555
 1770TIP3    H226802   5.570   2.700   0.519 -1.7784 -2.0076 -2.1314
 1771TIP3   OH226803   1.535   6.470  13.221  0.0778 -0.4333  0.8637
 1771TIP3    H126804   1.458   6.526  13.231  0.3823 -0.2735  2.8377
 1771TIP3    H226805   1.609   6.527  13.239  0.4294 -1.2975  2.3644
 1772TIP3   OH226806   0.913   6.707  12.284  0.3232  0.1469 -0.0215
 1772TIP3    H126807   0.970   6.774  12.246  0.5103  0.3269  0.5628
 1772TIP3    H226808   0.971   6.631  12.297  0.3651  0.2413  0.3318
 1773TIP3   OH226809   4.500   5.194   5.749  0.3509 -0.3116  0.5635
 1773TIP3    H126810   4.455   5.233   5.825  0.2843 -0.0442  0.3873
 1773TIP3    H226811   4.491   5.100   5.763  0.7799 -0.2708  1.1519
 1774TIP3   OH226812   5.665   4.925  13.776  0.1749  0.5112  0.1282
 1774TIP3    H126813   5.601   4.967  13.833  0.2280 -0.7946  1.1926
 1774TIP3    H226814   5.617   4.907  13.695 -2.0149 -3.5130  2.0235
 1775TIP3   OH226815   0.688   2.979   1.668  0.2609  0.2840  0.3028
 1775TIP3    H126816   0.696   2.890   1.633  0.2476  0.1784  0.5683
 1775TIP3    H226817   0.778   3.009   1.678  0.3046 -0.1759  1.4255
 1776TIP3   OH226818   3.954   2.120   1.935 -0.1631 -0.0602 -0.1957
 1776TIP3    H126819   3.970   2.181   1.863 -0.2421  0.3570  0.1357
 1776TIP3    H226820   4.038   2.112   1.980 -0.2564  0.1523  0.0228
 1777TIP3   OH226821   0.479   2.137   3.064  0.1558 -0.5439 -0.0372
 1777TIP3    H126822   0.486   2.137   2.968 -0.4402 -0.0903 -0.0895
 1777TIP3    H226823   0.486   2.229   3.088 -1.3092 -0.4692  0.2160
 1778TIP3   OH226824   5.682   0.182   3.470  0.0377 -0.3383 -0.1906
 1778TIP3    H126825   5.717   0.254   3.418 -1.3779 -0.3507 -1.1985
 1778TIP3    H226826   5.592   0.207   3.489  0.3694 -0.5344  1.9167
 1779TIP3   OH226827   6.623   4.408   5.702 -0.4142  0.4500 -0.4810
 1779TIP3    H126828   6.683   4.457   5.646  0.4414 -0.2295 -0.1810
 1779TIP3    H226829   6.571   4.475   5.746 -2.4931  1.0271 -3.4900
 1780TIP3   OH226830   5.967   1.238   5.918  0.4369 -0.3878  0.3197
 1780TIP3    H126831   5.973   1.329   5.889 -1.5158 -0.6009 -0.9772
 1780TIP3    H226832   6.057   1.210   5.930  1.1009  1.5205  0.1248
 1781TIP3   OH226833   2.161   0.212  12.557  0.0691  0.6775  0.1286
 1781TIP3    H126834   2.089   0.231  12.497 -0.3555 -0.7709  0.1432
 1781TIP3    H226835   2.239   0.210  12.501 -0.2090  0.1232 -0.2430
 1782TIP3   OH226836   4.057   0.077   0.630  0.6121 -0.3977  0.3237
 1782TIP3    H126837   3.996   0.060   0.559  2.0916 -1.1606 -0.8274
 1782TIP3    H226838   4.060  -0.006   0.679  2.2183 -1.1087 -0.8662
 1783TIP3   OH226839   6.116   1.254  14.908  0.1207  0.4580  0.3727
 1783TIP3    H126840   6.166   1.264  14.989 -1.1927 -0.1851  1.2894
 1783TIP3    H226841   6.057   1.330  14.906  0.3448  0.6287 -0.1514
 1784TIP3   OH226842   5.461   5.646  12.450  0.0072 -0.1457 -0.4223
 1784TIP3    H126843   5.445   5.556  12.425  0.2781 -0.7796  1.4993
 1784TIP3    H226844   5.390   5.668  12.511 -0.4920  1.2143 -1.4363
 1785TIP3   OH226845   6.072   0.687  12.349 -1.0944  0.1591  0.5328
 1785TIP3    H126846   6.117   0.768  12.322 -1.8807  1.2779  2.3450
 1785TIP3    H226847   5.979   0.705  12.334 -1.2080 -0.7767  0.0815
 1786TIP3   OH226848   5.666   5.885   1.939 -0.0471  0.6498 -0.5007
 1786TIP3    H126849   5.618   5.898   2.021 -1.4475 -0.1227 -1.1821
 1786TIP3    H226850   5.609   5.920   1.871 -0.1774 -1.3312 -1.4570
 1787TIP3   OH226851   5.517   4.813   0.021 -0.0573  0.6490  0.4995
 1787TIP3    H126852   5.436   4.863   0.035 -1.3724 -1.1608 -0.2287
 1787TIP3    H226853   5.523   4.806  -0.074  0.9218  0.6634  0.5565
 1788TIP3   OH226854   5.783   6.212  14.886 -0.4408 -0.0240 -0.3439
 1788TIP3    H126855   5.754   6.132  14.930  3.6390 -1.1476  0.6364
 1788TIP3    H226856   5.771   6.281  14.951 -0.0678 -0.5961  0.3421
 1789TIP3   OH226857   1.778   6.809  11.481  0.7498  0.3422  0.4099
 1789TIP3    H126858   1.697   6.797  11.432  0.3621  0.1251  1.0927
 1789TIP3    H226859   1.771   6.748  11.554  1.0933  1.0269  1.0220
 1790TIP3   OH226860   0.466   3.883   3.574  0.8664 -0.4959 -0.1550
 1790TIP3    H126861   0.417   3.931   3.507  0.6960  0.0950  0.3794
 1790TIP3    H226862   0.408   3.812   3.599  0.7703 -0.4933 -0.3624
 1791TIP3   OH226863   2.881   5.997   6.161  0.0645 -0.8632  0.1102
 1791TIP3    H126864   2.821   6.008   6.235  0.6279  1.5227  0.3008
 1791TIP3    H226865   2.943   5.931   6.191 -1.0923 -1.6917  0.8021
 1792TIP3   OH226866   4.675   0.647  16.870  0.1931  0.1502  0.6969
 1792TIP3    H126867   4.708   0.584  16.935 -0.2331 -0.9030 -0.0885
 1792TIP3    H226868   4.644   0.593  16.798  1.6372  1.3393 -0.8782
 1793TIP3   OH226869   2.933   2.584  16.914 -0.5276  0.5781 -0.5874
 1793TIP3    H126870   2.907   2.588  16.822  0.0927 -1.3693 -0.8914
 1793TIP3    H226871   3.027   2.564  16.912 -0.5661  0.2245  0.4755
 1794TIP3   OH226872   5.703   1.628  11.392 -0.0055 -0.1208 -1.0396
 1794TIP3    H126873   5.709   1.548  11.443  0.7284  0.6505  0.1319
 1794TIP3    H226874   5.610   1.639  11.374 -0.4302  0.1365  1.0862
 1795TIP3   OH226875   2.357   3.682  15.711  0.9185 -0.3000 -0.1153
 1795TIP3    H126876   2.393   3.622  15.645 -1.9419 -0.1995 -2.0088
 1795TIP3    H226877   2.381   3.769  15.680  2.2501 -0.3279  0.7849
 1796TIP3   OH226878   2.857   2.055  11.914 -0.2153 -0.3794 -0.1421
 1796TIP3    H126879   2.933   2.025  11.864  0.6960 -1.5930  1.8515
 1796TIP3    H226880   2.800   1.979  11.919 -0.4241 -0.1888  0.4155
 1797TIP3   OH226881   2.187   2.525   5.936  0.2762  0.0094  0.0815
 1797TIP3    H126882   2.113   2.568   5.892 -2.3917 -3.2622  0.9584
 1797TIP3    H226883   2.164   2.527   6.029  0.9407 -1.6180  0.3137
 1798TIP3   OH226884   3.669   2.121  14.076  0.2679 -0.3788 -0.1041
 1798TIP3    H126885   3.591   2.177  14.078 -0.2584 -1.1207  0.7105
 1798TIP3    H226886   3.643   2.044  14.026  0.1020 -1.1447  1.1314
 1799TIP3   OH226887   0.744   2.597   0.744  0.5009 -0.0862 -0.0049
 1799TIP3    H126888   0.832   2.604   0.780  0.7191  1.2692 -0.7208
 1799TIP3    H226889   0.751   2.637   0.657 -1.5117  3.2387  1.1629
 1800TIP3   OH226890   6.240   3.377   1.190  0.2956 -0.9383  0.0964
 1800TIP3    H126891   6.331   3.352   1.172  0.5015 -1.3646  1.5890
 1800TIP3    H226892   6.192   3.294   1.193  0.0316 -0.7828  0.2286
 1801TIP3   OH226893   4.295   2.127   4.585  0.2651 -0.3396  0.0054
 1801TIP3    H126894   4.230   2.057   4.581  0.4831 -0.4992 -0.8588
 1801TIP3    H226895   4.280   2.179   4.506 -0.5709  1.2117  1.1296
 1802TIP3   OH226896   1.482   2.277   3.322 -0.4772 -0.1410  0.6301
 1802TIP3    H126897   1.533   2.304   3.245 -1.6588 -1.8277 -0.8263
 1802TIP3    H226898   1.423   2.350   3.339 -2.0639 -0.7244 -1.8265
 1803TIP3   OH226899   6.401   0.920   0.689 -0.4790  0.2840  0.3048
 1803TIP3    H126900   6.489   0.902   0.721 -0.8824 -0.5605  0.9797
 1803TIP3    H226901   6.362   0.977   0.755 -0.1101  1.5366 -0.5096
 1804TIP3   OH226902   5.411   3.190  16.402  0.6759 -0.8836  0.6388
 1804TIP3    H126903   5.442   3.255  16.339 -0.6413  0.6858  1.5475
 1804TIP3    H226904   5.383   3.240  16.478  0.6416 -2.6110  1.8404
 1805TIP3   OH226905   3.281   4.834   1.842  0.6248  0.2373  0.4239
 1805TIP3    H126906   3.293   4.879   1.926  0.7422 -0.2494  0.6713
 1805TIP3    H226907   3.268   4.905   1.779  1.7093  0.6681  0.6533
 1806TIP3   OH226908   1.086   5.550   5.504 -0.3824  0.3683  0.0169
 1806TIP3    H126909   0.991   5.546   5.515 -0.4898  1.7315 -0.2698
 1806TIP3    H226910   1.112   5.629   5.551  0.5740  0.1954 -0.2043
 1807TIP3   OH226911   2.556   3.941  11.517 -0.0259 -0.6413 -0.5480
 1807TIP3    H126912   2.604   3.982  11.589 -0.2558  1.5024 -1.5471
 1807TIP3    H226913   2.472   3.986  11.514 -0.4358 -1.4174 -1.5000
 1808TIP3   OH226914   2.808   2.585   2.271 -0.3764 -0.3697 -0.8395
 1808TIP3    H126915   2.784   2.563   2.361 -1.9835  1.0419 -0.8718
 1808TIP3    H226916   2.772   2.513   2.219 -0.5443 -0.5640 -0.4641
 1809TIP3   OH226917   0.850   6.013  16.193  0.7531 -0.2273 -0.8838
 1809TIP3    H126918   0.906   6.070  16.140 -0.5519  2.8123  0.7927
 1809TIP3    H226919   0.788   5.977  16.130  0.7880  1.2855 -1.8381
 1810TIP3   OH226920   4.689   2.899   3.313  0.3983  0.4148 -0.2138
 1810TIP3    H126921   4.761   2.952   3.348 -0.3523  0.8213  0.7972
 1810TIP3    H226922   4.717   2.809   3.326  0.5479  0.5679  0.5884
 1811TIP3   OH226923   6.005   2.967   2.867 -0.3433  0.2089  0.3172
 1811TIP3    H126924   5.959   3.020   2.932 -0.9520 -1.8422  1.6730
 1811TIP3    H226925   6.056   2.905   2.919 -0.7406 -1.4193 -1.1571
 1812TIP3   OH226926   2.265   2.033  13.852  0.8384 -0.3016 -0.1707
 1812TIP3    H126927   2.312   1.980  13.787  1.2568  1.1432 -1.0837
 1812TIP3    H226928   2.278   1.986  13.935  0.7274 -1.9022 -1.0227
 1813TIP3   OH226929   1.617   4.575   3.098 -0.1013  0.2015  0.0382
 1813TIP3    H126930   1.538   4.583   3.151 -0.3322 -1.2600 -0.0282
 1813TIP3    H226931   1.668   4.506   3.141 -2.0832 -4.0310 -3.5282
 1814TIP3   OH226932   1.311   2.837   0.214 -0.5619  0.1218 -0.4264
 1814TIP3    H126933   1.233   2.849   0.160 -1.4691  0.9429  0.9862
 1814TIP3    H226934   1.319   2.742   0.225 -1.3418  0.0294 -0.6155
 1815TIP3   OH226935   3.924   5.242   0.722 -0.4095  0.0478 -0.1377
 1815TIP3    H126936   3.994   5.306   0.730  0.2201 -0.6161 -0.2014
 1815TIP3    H226937   3.888   5.257   0.634 -0.0958  0.1484 -0.2528
 1816TIP3   OH226938   4.110   4.107  13.192 -0.3954  0.2095 -0.1683
 1816TIP3    H126939   4.060   4.043  13.243 -0.9646 -0.4014 -1.4626
 1816TIP3    H226940   4.200   4.098  13.225 -0.8970  0.5169  1.3751
 1817TIP3   OH226941   5.493   2.643   1.977 -0.0103 -0.3008 -0.0439
 1817TIP3    H126942   5.561   2.660   2.042 -0.9232  2.4856  0.3469
 1817TIP3    H226943   5.413   2.630   2.028 -0.3008 -0.4900 -0.5442
 1818TIP3   OH226944   6.702   3.942  13.150 -0.0831  0.5841 -0.1578
 1818TIP3    H126945   6.720   4.036  13.156 -0.6540  0.6999 -0.1230
 1818TIP3    H226946   6.655   3.931  13.068  0.3247  0.2653 -0.3530
 1819TIP3   OH226947   3.738   0.775  15.960 -0.1040 -0.3187  0.4189
 1819TIP3    H126948   3.752   0.852  16.015  0.9333 -1.3369  1.6191
 1819TIP3    H226949   3.643   0.761  15.962 -0.0880 -0.3299  1.9594
 1820TIP3   OH226950   3.683   4.976  10.998  1.1092  0.4301 -0.4325
 1820TIP3    H126951   3.614   5.005  10.938 -1.2703 -2.3325  0.7645
 1820TIP3    H226952   3.664   5.020  11.080  0.4483 -0.6516  0.0163
 1821TIP3   OH226953   4.607   1.552  15.558  0.0975 -0.5339 -0.4359
 1821TIP3    H126954   4.646   1.516  15.637  0.4731  1.2189  0.2327
 1821TIP3    H226955   4.641   1.497  15.487  0.0510 -1.8943  0.5649
 1822TIP3   OH226956   2.480   2.593   2.205  0.0910 -0.1038 -0.1796
 1822TIP3    H126957   2.457   2.501   2.220 -0.4822 -0.0862 -0.8600
 1822TIP3    H226958   2.485   2.631   2.293  1.0941 -0.9464  0.1493
 1823TIP3   OH226959   1.265   6.419  12.836 -0.1036  0.1648  0.8041
 1823TIP3    H126960   1.346   6.454  12.797 -0.3026  0.4830  0.6716
 1823TIP3    H226961   1.292   6.385  12.921  0.4329 -0.9556  0.2164
 1824TIP3   OH226962   1.014   6.566  12.725 -0.2589 -0.5451  0.0287
 1824TIP3    H126963   0.957   6.489  12.728  0.4929 -1.4209 -3.6770
 1824TIP3    H226964   1.094   6.538  12.770 -0.8154 -1.0891  0.7082
 1825TIP3   OH226965   6.272   3.957   4.094  0.7091  0.3486  0.1293
 1825TIP3    H126966   6.274   4.001   4.179 -3.1122 -1.5495  1.4201
 1825TIP3    H226967   6.238   4.024   4.034  0.5080  0.8566  0.7919
 1826TIP3   OH226968   3.657   5.083   5.884 -0.9810  0.8411  0.6458
 1826TIP3    H126969   3.610   5.042   5.812  0.2513  1.4810 -0.5571
 1826TIP3    H226970   3.747   5.054   5.874 -0.5616  1.8760  1.2365
 1827TIP3   OH226971   0.880   2.389   0.974 -0.5624  0.3588 -0.2253
 1827TIP3    H126972   0.924   2.385   0.889  1.5443 -0.6198  0.8540
 1827TIP3    H226973   0.857   2.482   0.984 -1.8048  0.3362 -2.2704
 1828TIP3   OH226974   2.439   4.564   4.632 -0.2083 -0.0567 -0.1228
 1828TIP3    H126975   2.404   4.571   4.721 -0.2745 -2.5916  0.1233
 1828TIP3    H226976   2.521   4.516   4.643 -0.4952 -0.8997 -1.4723
 1829TIP3   OH226977   2.791   5.777  10.790 -0.2830  0.1504 -0.1653
 1829TIP3    H126978   2.864   5.729  10.752 -0.3787 -0.9414  0.9862
 1829TIP3    H226979   2.721   5.713  10.799  0.1058  0.0028  2.8802
 1830TIP3   OH226980   0.613   4.708  14.422 -0.7002 -0.6486  0.3679
 1830TIP3    H126981   0.589   4.708  14.514 -2.0938  1.9441  0.1003
 1830TIP3    H226982   0.541   4.753  14.378  1.1972  0.7074 -1.5714
 1831TIP3   OH226983   5.386   1.227   0.984 -0.1887 -0.3161  0.4877
 1831TIP3    H126984   5.429   1.143   0.965  2.1036  0.9216 -0.1592
 1831TIP3    H226985   5.333   1.210   1.062  1.2061 -2.0511  1.1195
 1832TIP3   OH226986   4.908   0.449   0.646  0.2883 -0.1422  0.3796
 1832TIP3    H126987   5.002   0.460   0.660  0.2588 -0.2635  0.6826
 1832TIP3    H226988   4.871   0.449   0.734  0.0954 -0.9578  0.3034
 1833TIP3   OH226989   5.899   0.203  14.950  0.8459  0.0035 -0.3433
 1833TIP3    H126990   5.823   0.147  14.933  0.8626  0.3083 -1.4281
 1833TIP3    H226991   5.882   0.239  15.038 -0.0226 -0.3042 -0.3727
 1834TIP3   OH226992   0.636   3.362   0.495 -0.1611 -0.1246  0.7894
 1834TIP3    H126993   0.717   3.312   0.502  1.5809  2.4300  0.3624
 1834TIP3    H226994   0.610   3.378   0.586  0.7673  0.3969  0.9821
 1835TIP3   OH226995   6.584   3.988   2.455  0.6946  0.9322  0.5508
 1835TIP3    H126996   6.622   4.076   2.457  0.5622  1.1778 -2.6202
 1835TIP3    H226997   6.658   3.930   2.472  1.9294  1.5460 -2.2159
 1836TIP3   OH226998   4.491   6.304   5.363 -0.8966  0.2056 -0.2717
 1836TIP3    H126999   4.447   6.222   5.342 -0.3854 -0.8266  2.3431
 1836TIP3    H227000   4.581   6.292   5.333 -0.3010 -1.0446  1.8588
 1837TIP3   OH227001   6.218   2.242  16.714 -0.1583 -0.1283  0.3390
 1837TIP3    H127002   6.157   2.314  16.731  0.7878  0.6659  0.4307
 1837TIP3    H227003   6.272   2.273  16.642  1.5139  0.0767  1.6050
 1838TIP3   OH227004   5.341   4.189   4.781 -0.1494  1.1661  0.0219
 1838TIP3    H127005   5.395   4.268   4.786  1.4054  0.1760 -0.5456
 1838TIP3    H227006   5.380   4.137   4.711 -0.2647 -0.7440  1.2927
 1839TIP3   OH227007   3.352   5.576  14.880  0.0491  0.0331 -0.0720
 1839TIP3    H127008   3.318   5.514  14.944  0.0350 -0.3131 -0.4096
 1839TIP3    H227009   3.397   5.521  14.815 -0.2792  0.3384 -0.5689
 1840TIP3   OH227010   2.290   0.581  14.239 -0.9861  0.2511 -0.8870
 1840TIP3    H127011   2.314   0.673  14.252 -1.4144  0.3816 -0.9757
 1840TIP3    H227012   2.200   0.575  14.273 -1.1367 -0.0192 -1.3208
 1841TIP3   OH227013   1.259   5.515  12.733  0.3387  0.0315  0.1624
 1841TIP3    H127014   1.176   5.546  12.772  1.5386  0.8279  2.2970
 1841TIP3    H227015   1.233   5.450  12.669 -1.9421  0.1254  0.9024
 1842TIP3   OH227016   0.916   6.009   4.948  0.1758 -0.3200 -0.0072
 1842TIP3    H127017   0.991   5.997   4.889  0.1017  1.9485 -0.6515
 1842TIP3    H227018   0.892   5.920   4.973  1.1717 -1.2969 -2.1800
 1843TIP3   OH227019   4.822   5.187  17.136 -0.0529  0.1588 -0.4937
 1843TIP3    H127020   4.795   5.211  17.047 -0.8067  0.4528 -0.1897
 1843TIP3    H227021   4.808   5.266  17.188  0.9954  0.1883 -0.2306
 1844TIP3   OH227022   5.869   2.074   3.299  0.0249  0.5787  0.2527
 1844TIP3    H127023   5.909   2.012   3.238 -0.1458  0.9372 -0.2270
 1844TIP3    H227024   5.882   2.034   3.385 -0.5021 -0.3591 -0.0879
 1845TIP3   OH227025   0.378   2.546   5.162 -0.4731 -0.1067  0.1014
 1845TIP3    H127026   0.315   2.618   5.167  1.0295  1.2489  0.2576
 1845TIP3    H227027   0.342   2.479   5.220 -2.2200  0.2444 -0.5217
 1846TIP3   OH227028   2.182   3.832  13.833 -0.0992  0.1194  0.4869
 1846TIP3    H127029   2.193   3.749  13.879  0.6539  1.0482  2.0897
 1846TIP3    H227030   2.231   3.821  13.752 -1.4749 -1.5822 -0.1528
 1847TIP3   OH227031   0.379   0.171   2.741 -0.2527 -0.0588  0.2939
 1847TIP3    H127032   0.362   0.189   2.649  0.9884 -1.1900 -0.1969
 1847TIP3    H227033   0.353   0.079   2.753 -0.6992  0.1676  1.1532
 1848TIP3   OH227034   2.104   6.190   2.184  0.1140 -0.1691 -0.3566
 1848TIP3    H127035   2.038   6.133   2.223  1.2812 -0.4444  1.3293
 1848TIP3    H227036   2.141   6.238   2.259 -0.0530  1.9891 -1.5773
 1849TIP3   OH227037   1.546   6.363   2.116  0.3877 -0.2498 -0.2677
 1849TIP3    H127038   1.587   6.279   2.097  0.8494 -0.1003  0.0666
 1849TIP3    H227039   1.474   6.343   2.175 -1.1709 -0.7516 -2.2218
 1850TIP3   OH227040   4.342   5.337   4.316 -0.3590  0.4128  0.1072
 1850TIP3    H127041   4.270   5.348   4.254  0.5564  1.5981 -0.8266
 1850TIP3    H227042   4.305   5.288   4.389 -2.4339  1.9731  0.2014
 1851TIP3   OH227043   5.103   2.720  14.659 -0.0675  0.0191  0.5324
 1851TIP3    H127044   5.154   2.679  14.728 -0.3486  1.0371  1.3548
 1851TIP3    H227045   5.167   2.767  14.605  0.0616 -0.1606  0.5276
 1852TIP3   OH227046   3.610   2.197   5.186  0.1820 -0.3145  0.1805
 1852TIP3    H127047   3.702   2.185   5.165  1.1014  1.2594  2.7974
 1852TIP3    H227048   3.589   2.126   5.247 -0.6086 -1.1142 -0.9743
 1853TIP3   OH227049   3.489   3.147   1.632 -0.0077 -0.8108  0.0336
 1853TIP3    H127050   3.583   3.129   1.634  0.5408  1.6315  2.7942
 1853TIP3    H227051   3.453   3.096   1.705 -0.0884  1.2072  1.4789
 1854TIP3   OH227052   4.366   6.202  16.096 -0.3478 -0.0635  0.1160
 1854TIP3    H127053   4.344   6.225  16.006  1.5015  1.1376 -0.0705
 1854TIP3    H227054   4.297   6.242  16.149 -1.5836 -0.9852 -0.7370
 1855TIP3   OH227055   2.329   6.770   4.972 -0.4673 -0.2589  0.3356
 1855TIP3    H127056   2.398   6.723   5.018  0.3178 -0.6249 -1.1506
 1855TIP3    H227057   2.375   6.825   4.909 -1.5341 -1.5065 -1.6211
 1856TIP3   OH227058   0.530   0.758  12.677  0.6927 -0.4408 -0.2496
 1856TIP3    H127059   0.455   0.810  12.705  1.1060  1.1063 -1.8433
 1856TIP3    H227060   0.602   0.786  12.734  0.0215 -2.2979  1.6279
 1857TIP3   OH227061   2.811   1.112   1.872  0.3878  0.4728  0.1274
 1857TIP3    H127062   2.749   1.184   1.858 -0.0574 -0.0264 -0.5696
 1857TIP3    H227063   2.794   1.052   1.799  1.7085  0.3273 -0.0839
 1858TIP3   OH227064   0.721   3.993  12.437 -0.1261  0.1257  0.3338
 1858TIP3    H127065   0.698   4.073  12.485 -1.0882  0.2264 -0.2763
 1858TIP3    H227066   0.694   3.922  12.496  1.3367  0.2074  1.1698
 1859TIP3   OH227067   2.026   4.004  14.554 -0.6523 -0.0679  0.1773
 1859TIP3    H127068   2.120   4.014  14.572 -0.3299 -1.8946 -0.2861
 1859TIP3    H227069   1.988   3.976  14.637 -0.3778 -1.5230 -0.1633
 1860TIP3   OH227070   5.536   6.714   1.317 -0.2383 -0.0230  0.3663
 1860TIP3    H127071   5.456   6.722   1.264 -0.0333 -0.8280 -0.0852
 1860TIP3    H227072   5.507   6.667   1.396  0.1056 -1.9710 -0.6056
 1861TIP3   OH227073   4.729   0.151   0.080  0.1299 -0.4640 -0.5868
 1861TIP3    H127074   4.716   0.076   0.022 -1.1349  0.5544 -1.6873
 1861TIP3    H227075   4.670   0.136   0.153  0.4485 -0.8998 -0.4144
 1862TIP3   OH227076   2.411   0.669  16.268  0.4968 -0.1557  0.5167
 1862TIP3    H127077   2.443   0.580  16.282 -0.2546 -0.6010 -0.4273
 1862TIP3    H227078   2.316   0.661  16.271  0.3933  0.4067 -0.5871
 1863TIP3   OH227079   2.723   4.339   2.716  0.0824 -0.4471 -0.1134
 1863TIP3    H127080   2.711   4.392   2.795  2.2778  0.1062 -0.0964
 1863TIP3    H227081   2.696   4.396   2.644 -1.3050 -0.7296  0.1418
 1864TIP3   OH227082   1.440   3.322   5.778  0.3185 -0.2762  0.4956
 1864TIP3    H127083   1.513   3.352   5.724  0.5788 -0.8692  0.5035
 1864TIP3    H227084   1.467   3.341   5.868  0.9108 -1.3722  0.5741
 1865TIP3   OH227085   4.399   5.816   1.871  0.1396 -0.3987 -0.3693
 1865TIP3    H127086   4.346   5.851   1.799 -0.7632  1.2662  1.0457
 1865TIP3    H227087   4.371   5.725   1.878 -2.4703  0.3570  0.1862
 1866TIP3   OH227088   0.681   5.883  16.954  0.6565  0.0838 -0.1173
 1866TIP3    H127089   0.681   5.895  16.859  3.1075  0.7940 -0.0849
 1866TIP3    H227090   0.588   5.881  16.977 -0.0052  0.6879 -2.4126
 1867TIP3   OH227091   6.024   0.715   1.465 -0.1679 -0.1961  0.4000
 1867TIP3    H127092   6.063   0.720   1.378  1.0425  0.5444  0.9412
 1867TIP3    H227093   5.992   0.625   1.472 -0.4910 -0.1999 -0.8755
 1868TIP3   OH227094   4.483   6.184  11.515 -0.0696 -0.3863 -0.1456
 1868TIP3    H127095   4.550   6.243  11.481  0.5850 -1.5212 -0.8860
 1868TIP3    H227096   4.532   6.114  11.559 -0.7194 -1.4110 -0.9842
 1869TIP3   OH227097   6.607   5.363   2.666 -0.2108 -0.2924 -0.0457
 1869TIP3    H127098   6.678   5.427   2.660 -1.6312  1.5581  1.6620
 1869TIP3    H227099   6.550   5.396   2.735 -1.7301 -2.7490  0.0105
 1870TIP3   OH227100   2.289   5.869   3.270 -0.2211 -0.0964 -0.5772
 1870TIP3    H127101   2.275   5.938   3.205  2.3501 -0.0471 -1.1717
 1870TIP3    H227102   2.278   5.913   3.355 -0.4090  0.5948 -0.9565
 1871TIP3   OH227103   1.009   3.201   1.453  0.1780  0.2785 -0.3366
 1871TIP3    H127104   0.972   3.113   1.448 -1.7705  1.0166  0.3300
 1871TIP3    H227105   1.085   3.193   1.511  0.6745 -1.1436 -1.1504
 1872TIP3   OH227106   1.745   6.257  13.776 -0.8324  0.5054  0.3267
 1872TIP3    H127107   1.764   6.285  13.687  1.0978  0.9958  0.8534
 1872TIP3    H227108   1.665   6.304  13.799 -2.2174 -0.7366 -1.5968
 1873TIP3   OH227109   2.676   1.391  14.465  0.6844 -0.0595  0.0578
 1873TIP3    H127110   2.664   1.403  14.559  0.2491  0.2068 -0.0288
 1873TIP3    H227111   2.612   1.324  14.441  0.9080 -0.2455 -0.0195
 1874TIP3   OH227112   3.163   3.535   0.843 -0.2372 -0.3682  0.3942
 1874TIP3    H127113   3.153   3.624   0.811 -0.0536 -0.5380 -0.1471
 1874TIP3    H227114   3.225   3.543   0.916 -1.9331  0.2538  1.8291
 1875TIP3   OH227115   4.248   3.393  16.314 -0.0549  0.0004  0.1980
 1875TIP3    H127116   4.287   3.481  16.315 -0.7199  0.3044 -0.0452
 1875TIP3    H227117   4.195   3.389  16.393  0.9592 -0.6500  0.8647
 1876TIP3   OH227118   4.346   4.663   0.043 -1.1071  0.1599 -0.1034
 1876TIP3    H127119   4.396   4.587   0.014 -1.6363  0.0707 -0.7904
 1876TIP3    H227120   4.316   4.705  -0.037 -0.8215  1.1098  0.2608
 1877TIP3   OH227121   0.716   6.165  15.832 -0.0147  0.2081 -0.0358
 1877TIP3    H127122   0.747   6.139  15.918 -0.4853  0.6823  0.2872
 1877TIP3    H227123   0.626   6.133  15.828  1.2004 -3.5849 -2.0045
 1878TIP3   OH227124   3.079   4.107   5.566  0.1172 -0.4366 -0.4709
 1878TIP3    H127125   3.107   4.060   5.645 -0.8123 -1.0192 -0.4624
 1878TIP3    H227126   3.009   4.165   5.597  0.2793 -0.0952 -0.7383
 1879TIP3   OH227127   5.021   3.958   3.188 -0.1124 -0.1050 -0.2883
 1879TIP3    H127128   4.931   3.986   3.172  0.0382  1.5565  1.3775
 1879TIP3    H227129   5.018   3.912   3.271  0.0158 -3.5143 -2.0204
 1880TIP3   OH227130   0.356   0.216   0.971  0.1755 -0.1885 -0.0566
 1880TIP3    H127131   0.272   0.190   1.009  0.9005 -1.0289  1.0344
 1880TIP3    H227132   0.388   0.137   0.927 -0.2763  0.5460 -1.7942
 1881TIP3   OH227133   3.104   0.956   5.311  0.3779 -0.2251 -0.6879
 1881TIP3    H127134   3.093   0.942   5.216 -0.1736  0.7716 -0.7861
 1881TIP3    H227135   3.023   0.921   5.349 -1.0512  2.5040 -0.9419
 1882TIP3   OH227136   5.697   5.210  13.563 -0.5212  0.0791 -0.2994
 1882TIP3    H127137   5.719   5.116  13.560 -0.0517  0.1377  0.7409
 1882TIP3    H227138   5.754   5.250  13.498  1.6685  0.0503  1.4638
 1883TIP3   OH227139   5.783   6.003   6.096 -0.3440  0.2929 -0.2445
 1883TIP3    H127140   5.697   5.978   6.132 -1.1058  2.8320 -0.1315
 1883TIP3    H227141   5.824   6.055   6.165  0.8314  0.0527 -0.7334
 1884TIP3   OH227142   6.363   6.004  14.886  0.3733 -0.4298 -0.1602
 1884TIP3    H127143   6.370   6.081  14.830 -0.3749 -1.7771 -2.1949
 1884TIP3    H227144   6.447   5.959  14.876  0.2161 -0.7036 -0.2550
 1885TIP3   OH227145   2.065   1.511  14.631  0.7140  0.2186 -0.5789
 1885TIP3    H127146   2.085   1.568  14.705  1.7063  1.5390 -1.7979
 1885TIP3    H227147   1.971   1.523  14.616  0.4581 -0.2339  0.5789
 1886TIP3   OH227148   2.225   1.004   4.525 -0.0309 -0.1738  0.1848
 1886TIP3    H127149   2.157   0.991   4.459  0.4093  0.1884 -0.3426
 1886TIP3    H227150   2.305   1.023   4.475  0.1433  0.8707  0.8318
 1887TIP3   OH227151   6.667   5.214  12.268  0.4694 -0.7445  0.5516
 1887TIP3    H127152   6.611   5.247  12.198 -0.4489  1.9084  2.4104
 1887TIP3    H227153   6.756   5.217  12.231 -0.0738 -0.4227 -0.8058
 1888TIP3   OH227154   3.732   3.912  16.603 -0.2336  0.4883 -0.2414
 1888TIP3    H127155   3.674   3.847  16.564 -0.4554  0.5295  0.0166
 1888TIP3    H227156   3.819   3.872  16.600 -0.4210  0.0267  0.2381
 1889TIP3   OH227157   2.320   5.314   1.499 -0.2690  0.1888  0.2812
 1889TIP3    H127158   2.399   5.323   1.552 -0.7782 -0.9705  1.2961
 1889TIP3    H227159   2.259   5.266   1.555 -1.6454  0.9205 -0.5315
 1890TIP3   OH227160   1.100   1.429  13.055 -0.2714 -0.2560  0.0165
 1890TIP3    H127161   1.116   1.386  13.139 -1.3082  1.7462  1.3044
 1890TIP3    H227162   1.074   1.357  12.997  0.9541 -1.7602  1.2246
 1891TIP3   OH227163   2.652   3.343  16.917 -0.4590  0.4267  0.1864
 1891TIP3    H127164   2.629   3.435  16.906 -0.5554  0.4156  0.2983
 1891TIP3    H227165   2.681   3.315  16.830 -2.8302 -0.1266 -0.5074
 1892TIP3   OH227166   2.178   5.065   3.975 -0.1941  0.4937 -0.2486
 1892TIP3    H127167   2.137   5.098   3.895 -0.3070 -0.6691 -0.6768
 1892TIP3    H227168   2.178   4.970   3.966  1.2666  0.3928  0.4045
 1893TIP3   OH227169   4.627   2.429  11.017 -0.3112 -0.1891 -0.4539
 1893TIP3    H127170   4.712   2.422  10.974  0.1769  1.2817  0.1790
 1893TIP3    H227171   4.644   2.405  11.108 -1.3782 -3.4890 -1.0192
 1894TIP3   OH227172   2.028   1.135  11.720 -0.0118 -0.1647 -0.0490
 1894TIP3    H127173   2.100   1.187  11.684 -1.3804  2.7494  1.1475
 1894TIP3    H227174   1.973   1.116  11.644  0.2803  0.5623 -0.4595
 1895TIP3   OH227175   4.404   3.105   2.119 -0.8932  0.2528 -0.3159
 1895TIP3    H127176   4.309   3.111   2.115 -0.9233  0.4822  0.6108
 1895TIP3    H227177   4.422   3.012   2.128 -1.0496  0.2490 -0.0399
 1896TIP3   OH227178   2.990   0.377   2.516 -0.0316  0.6973  0.1923
 1896TIP3    H127179   2.911   0.402   2.562  0.3254  0.5363  0.8981
 1896TIP3    H227180   3.059   0.378   2.582  0.2912 -0.6049 -0.0912
 1897TIP3   OH227181   5.378   0.554  15.787  0.4949  0.1534  0.1290
 1897TIP3    H127182   5.472   0.538  15.779  0.7159  1.4258  0.0085
 1897TIP3    H227183   5.341   0.517  15.707  0.7300 -1.3485  0.6735
 1898TIP3   OH227184   3.877   5.910  14.676  0.3663  0.5669 -0.3509
 1898TIP3    H127185   3.786   5.930  14.652  0.4128 -0.4140 -1.4388
 1898TIP3    H227186   3.871   5.872  14.764 -0.2264  0.8569 -0.2575
 1899TIP3   OH227187   1.310   2.148  15.323  0.1422 -0.0564  0.4685
 1899TIP3    H127188   1.327   2.057  15.347 -0.7267  0.0019  1.3929
 1899TIP3    H227189   1.235   2.173  15.378 -0.7021  0.7013 -0.9883
 1900TIP3   OH227190   2.579   4.556  15.760  0.1527  0.4594  0.3926
 1900TIP3    H127191   2.543   4.532  15.845  0.6997  1.5364  0.9526
 1900TIP3    H227192   2.543   4.491  15.699 -2.1616  1.0774  1.0183
 1901TIP3   OH227193   0.545   2.446  14.572 -0.1330 -0.0062  0.1522
 1901TIP3    H127194   0.534   2.372  14.512 -1.8443  0.4267 -0.1110
 1901TIP3    H227195   0.633   2.478  14.555  0.2266 -1.2944 -0.5185
 1902TIP3   OH227196   0.003   4.977   0.126  0.4113  0.1170  0.1940
 1902TIP3    H127197  -0.031   5.066   0.117  2.5765  0.8941 -1.1077
 1902TIP3    H227198   0.075   4.984   0.189  1.2722 -0.4557 -0.6787
 1903TIP3   OH227199   3.668   5.672  12.091 -0.1402 -0.7283  0.3647
 1903TIP3    H127200   3.594   5.654  12.149  0.6633 -1.8041  1.0925
 1903TIP3    H227201   3.741   5.622  12.128  0.7285 -0.4173 -0.8464
 1904TIP3   OH227202   0.147   2.340  13.783 -0.3273 -0.6051  0.3681
 1904TIP3    H127203   0.241   2.355  13.796 -0.3618  0.1587 -0.1895
 1904TIP3    H227204   0.123   2.280  13.853  0.0539  1.1540  2.1249
 1905TIP3   OH227205   1.933   1.708  13.857  0.1685  0.2824 -0.1407
 1905TIP3    H127206   1.986   1.740  13.930 -0.4470 -0.7077  0.7594
 1905TIP3    H227207   1.891   1.786  13.822 -0.9229  0.5835  1.7007
 1906TIP3   OH227208   1.063   5.810  12.962  0.4154 -0.3274  0.2366
 1906TIP3    H127209   1.074   5.751  13.037 -0.1956  1.0477  1.4621
 1906TIP3    H227210   1.147   5.856  12.956  0.8158 -1.1274 -0.5848
 1907TIP3   OH227211   0.938   4.041   4.590 -0.3358 -0.0981  0.4590
 1907TIP3    H127212   0.876   3.995   4.533  0.9099 -1.0235 -0.1985
 1907TIP3    H227213   0.891   4.051   4.673 -0.5554 -2.9561  0.7896
 1908TIP3   OH227214   4.884   4.291  11.324  0.4470 -0.1442  0.1212
 1908TIP3    H127215   4.837   4.220  11.280 -0.0366  0.7734 -0.8950
 1908TIP3    H227216   4.904   4.256  11.411  0.3238 -1.5553 -0.3923
 1909TIP3   OH227217   3.405   1.362  12.540 -0.3011  0.2817 -0.1719
 1909TIP3    H127218   3.320   1.385  12.504 -0.4169  1.1538  0.6325
 1909TIP3    H227219   3.385   1.310  12.618 -0.1051  0.5109  0.0346
 1910TIP3   OH227220   4.472   3.828   2.187  0.3498 -0.2267 -0.3951
 1910TIP3    H127221   4.507   3.817   2.099  0.7872 -0.2470 -0.2208
 1910TIP3    H227222   4.516   3.760   2.239  1.5555  1.0062  0.2563
 1911TIP3   OH227223   0.850   6.420   6.439  0.0772 -0.0397  0.1871
 1911TIP3    H127224   0.765   6.376   6.429  0.8841 -1.5531 -0.4277
 1911TIP3    H227225   0.849   6.489   6.373 -1.0271  0.5803  0.8225
 1912TIP3   OH227226   3.042   3.343  16.638  0.3121  0.1681  0.6896
 1912TIP3    H127227   3.034   3.304  16.725  0.7998 -1.7947 -0.0951
 1912TIP3    H227228   3.126   3.311  16.605  1.3560  2.9169  0.4240
 1913TIP3   OH227229   5.780   3.491   4.183 -0.6697  0.1661  0.5666
 1913TIP3    H127230   5.853   3.467   4.126 -1.1577 -0.1030  0.0404
 1913TIP3    H227231   5.747   3.407   4.215 -2.3842  0.0633 -1.2727
 1914TIP3   OH227232   3.476   2.164  12.790 -0.1141 -0.5644  0.8601
 1914TIP3    H127233   3.415   2.238  12.792  0.2212 -0.2831  0.7999
 1914TIP3    H227234   3.501   2.156  12.698  1.2973  0.4600  1.1123
 1915TIP3   OH227235   0.590   5.338  15.663 -0.1288  0.5710  0.0871
 1915TIP3    H127236   0.575   5.295  15.579 -2.0581  0.8445  0.2531
 1915TIP3    H227237   0.685   5.351  15.667 -0.0688  1.3371 -2.4106
 1916TIP3   OH227238   3.928   5.832   0.765 -0.3247 -0.1123 -1.1521
 1916TIP3    H127239   3.891   5.911   0.804  2.2448  1.3429 -1.4285
 1916TIP3    H227240   3.904   5.761   0.825 -0.8553  1.2177  0.2638
 1917TIP3   OH227241   2.736   5.196  12.915 -0.8774  0.0478 -0.2925
 1917TIP3    H127242   2.793   5.209  12.839 -0.5337  1.9614  0.2294
 1917TIP3    H227243   2.677   5.126  12.889  0.4393 -0.6324 -1.6015
 1918TIP3   OH227244   6.221   5.651  14.779  0.3137 -0.1652  0.3156
 1918TIP3    H127245   6.221   5.605  14.863  2.0935  0.2642  0.5909
 1918TIP3    H227246   6.291   5.609  14.729 -1.4371 -1.1691 -1.4328
 1919TIP3   OH227247   5.046   3.674  14.429 -0.3734 -0.2925 -0.3977
 1919TIP3    H127248   5.002   3.758  14.417  0.1196  0.3152  1.6338
 1919TIP3    H227249   5.056   3.639  14.340 -1.1966  1.4601 -1.2310
 1920TIP3   OH227250   3.092   0.202   1.660 -0.5044  0.6163  0.4184
 1920TIP3    H127251   3.084   0.267   1.730  1.6766  1.1045  0.3029
 1920TIP3    H227252   3.055   0.245   1.583 -2.5354  0.2331  1.1229
 1921TIP3   OH227253   6.392   0.686  17.202 -0.2641  0.3265 -0.5446
 1921TIP3    H127254   6.419   0.744  17.274  0.4403  0.9182 -1.2606
 1921TIP3    H227255   6.298   0.700  17.195 -0.2763  0.5709 -0.0025
 1922TIP3   OH227256   1.548   1.549  14.833  0.5253  0.3506  0.0313
 1922TIP3    H127257   1.586   1.629  14.796 -1.1549  1.4160  0.4737
 1922TIP3    H227258   1.561   1.558  14.928 -1.2026  0.9987  0.2442
 1923TIP3   OH227259   5.159   4.506   3.805  0.0731  0.3630  0.3088
 1923TIP3    H127260   5.131   4.437   3.866  1.2324  1.3197  2.0217
 1923TIP3    H227261   5.207   4.459   3.737 -0.5467 -0.6676  0.5541
 1924TIP3   OH227262   0.920   0.676   3.242 -0.3385  0.4130 -0.3291
 1924TIP3    H127263   0.897   0.757   3.196 -0.1725  0.9454  0.5195
 1924TIP3    H227264   0.964   0.623   3.175  1.0505  1.6913 -0.4801
 1925TIP3   OH227265   1.440   2.926  13.013  0.9560 -0.4510  0.3930
 1925TIP3    H127266   1.415   3.018  13.019  2.0092  0.1978 -3.1598
 1925TIP3    H227267   1.535   2.926  13.023  0.8324 -1.4121  1.9119
 1926TIP3   OH227268   4.154   1.785  11.880  0.4704  0.3557  0.8918
 1926TIP3    H127269   4.231   1.841  11.881  0.6891  0.0701  1.8802
 1926TIP3    H227270   4.184   1.702  11.845  0.7480  0.0823  1.7545
 1927TIP3   OH227271   5.598   6.382  16.913 -0.1807  0.0507 -0.6353
 1927TIP3    H127272   5.653   6.399  16.837  0.2824  0.3992 -0.2305
 1927TIP3    H227273   5.551   6.465  16.927  0.3122  0.2394 -0.0788
 1928TIP3   OH227274   6.214   0.448  13.544 -0.5756 -1.0209  0.2512
 1928TIP3    H127275   6.277   0.479  13.479 -0.6392 -1.0271  0.1860
 1928TIP3    H227276   6.233   0.498  13.623 -1.5964  0.2065 -0.2524
 1929TIP3   OH227277   0.718   3.460   5.376 -0.0434  0.2702 -0.0282
 1929TIP3    H127278   0.811   3.482   5.385  0.0526  0.3221 -1.0949
 1929TIP3    H227279   0.672   3.544   5.389  0.1702  0.6004 -1.2744
 1930TIP3   OH227280   1.698   1.517   0.090  0.2097 -0.0724 -0.0501
 1930TIP3    H127281   1.640   1.581   0.047 -1.2525 -2.0398 -1.1817
 1930TIP3    H227282   1.649   1.489   0.167  0.9328  0.3168  0.5525
 1931TIP3   OH227283   4.155   3.559  13.378 -0.0758  0.3217  0.0123
 1931TIP3    H127284   4.114   3.479  13.345 -0.7227  0.1283  1.2556
 1931TIP3    H227285   4.097   3.590  13.447  0.9950  0.9754  0.6527
 1932TIP3   OH227286   3.149   0.235   0.823  0.0398 -0.2051 -0.1245
 1932TIP3    H127287   3.238   0.262   0.842  0.2867 -0.9075 -0.2448
 1932TIP3    H227288   3.154   0.193   0.737 -0.0347 -1.9257  0.6735
 1933TIP3   OH227289   4.956   6.127   1.842 -0.4266 -0.4540 -0.5539
 1933TIP3    H127290   4.925   6.052   1.892  2.1757 -2.0807 -1.1574
 1933TIP3    H227291   5.019   6.090   1.781  1.7636  2.3231 -0.1875
 1934TIP3   OH227292   2.985   2.832  15.267 -0.6836  0.2572 -0.0352
 1934TIP3    H127293   2.975   2.776  15.344 -1.0014  1.1811  0.6137
 1934TIP3    H227294   2.916   2.803  15.208 -0.8544 -0.0309  0.2964
 1935TIP3   OH227295   2.558   3.925   4.328 -0.6132 -0.3142 -0.0798
 1935TIP3    H127296   2.497   3.872   4.277 -2.1281  0.3785  0.9327
 1935TIP3    H227297   2.570   3.877   4.410  0.9894 -0.9075 -0.6232
 1936TIP3   OH227298   4.814   0.604   3.786 -1.4314 -0.4746 -0.9301
 1936TIP3    H127299   4.900   0.599   3.745 -1.3042 -2.5679 -0.5238
 1936TIP3    H227300   4.759   0.650   3.722  0.2117  2.0708 -0.6541
 1937TIP3   OH227301   1.178   1.937  16.434 -0.0594 -0.1936 -0.4395
 1937TIP3    H127302   1.092   1.974  16.455 -0.1094 -0.2971 -0.4626
 1937TIP3    H227303   1.195   1.875  16.506  0.5480  0.7322  0.2404
 1938TIP3   OH227304   3.681   0.030   4.481  0.0694  0.1090  0.0019
 1938TIP3    H127305   3.620  -0.044   4.484  0.2411 -0.1013 -1.2793
 1938TIP3    H227306   3.718   0.034   4.570 -0.8464 -0.5650  0.4285
 1939TIP3   OH227307   4.861   2.829  14.259 -0.4253  0.0422  0.1581
 1939TIP3    H127308   4.915   2.754  14.233  0.9777  1.3152 -0.7160
 1939TIP3    H227309   4.837   2.811  14.350  1.7282 -0.4253  0.6807
 1940TIP3   OH227310   3.531   3.935   4.583  0.1176  0.4477  0.5960
 1940TIP3    H127311   3.487   4.002   4.532  0.0042  0.7487  1.0861
 1940TIP3    H227312   3.525   3.965   4.674  1.3292  0.4916  0.6736
 1941TIP3   OH227313   0.481   0.654   2.035  0.2591  0.0419 -0.6965
 1941TIP3    H127314   0.474   0.749   2.028  0.4430  0.1344  0.2531
 1941TIP3    H227315   0.527   0.639   2.118  0.6388 -0.8631 -1.0530
 1942TIP3   OH227316   6.630   1.483  17.061 -0.0001  0.6506  0.5074
 1942TIP3    H127317   6.578   1.554  17.100  0.8207  2.0001 -0.7523
 1942TIP3    H227318   6.566   1.428  17.016 -0.6197  0.7528  1.2400
 1943TIP3   OH227319   0.199   3.827   1.406 -0.6660 -0.1891  0.5019
 1943TIP3    H127320   0.206   3.732   1.419 -1.5929 -0.1440  1.3981
 1943TIP3    H227321   0.251   3.865   1.477 -0.8995 -0.0130  0.5765
 1944TIP3   OH227322   3.176   5.868  16.866 -0.3432  0.0112 -0.6739
 1944TIP3    H127323   3.171   5.952  16.913 -0.1061  0.6871 -1.8292
 1944TIP3    H227324   3.132   5.885  16.783  1.8693 -0.2774 -1.9698
 1945TIP3   OH227325   0.067   1.387  13.639  0.9411  0.1344 -0.1657
 1945TIP3    H127326  -0.003   1.328  13.610  0.4130 -0.2975  1.8386
 1945TIP3    H227327   0.078   1.449  13.566  0.6918 -1.6872 -1.8373
 1946TIP3   OH227328   3.573   2.361  16.692 -0.2829 -0.0012 -0.1620
 1946TIP3    H127329   3.603   2.287  16.744 -1.4591  0.0730  0.6676
 1946TIP3    H227330   3.647   2.384  16.637 -0.2334 -2.4437 -1.2089
 1947TIP3   OH227331   2.836   5.576  15.012  0.3508  0.3388 -0.4888
 1947TIP3    H127332   2.927   5.595  15.034 -0.1203 -0.5369  2.6242
 1947TIP3    H227333   2.784   5.630  15.071 -1.0899 -1.5421  0.0733
 1948TIP3   OH227334   3.912   6.584  15.416 -0.6466  0.1161 -0.8519
 1948TIP3    H127335   3.999   6.561  15.448  0.6253  1.2453 -3.2068
 1948TIP3    H227336   3.854   6.569  15.490  1.9145  1.7989  1.6992
 1949TIP3   OH227337   1.105   2.071   5.960  0.8141  0.4278  0.1808
 1949TIP3    H127338   1.013   2.081   5.981  0.0810 -1.0417 -1.9533
 1949TIP3    H227339   1.133   2.158   5.931  0.0701  0.8462  0.6909
 1950TIP3   OH227340   6.452   5.517  14.022 -0.5162  0.1088  0.7129
 1950TIP3    H127341   6.375   5.478  13.982  0.2835  0.6341 -1.4878
 1950TIP3    H227342   6.509   5.443  14.042  0.1709 -0.0665 -1.6427
 1951TIP3   OH227343   0.189   1.113  11.254  0.1694  0.6150 -0.2836
 1951TIP3    H127344   0.264   1.151  11.299 -1.4431  1.2398  2.0181
 1951TIP3    H227345   0.204   1.019  11.257  1.4512  0.7735 -1.0134
 1952TIP3   OH227346   1.863   5.088  15.198 -0.3563 -0.0733  0.2471
 1952TIP3    H127347   1.826   5.026  15.135  4.5807 -1.4428 -1.8207
 1952TIP3    H227348   1.833   5.174  15.167 -4.6302 -0.9994  1.1920
 1953TIP3   OH227349   2.907   0.706  13.878  0.0107 -0.0349  0.3983
 1953TIP3    H127350   2.862   0.761  13.814  0.0741 -0.4474 -0.0012
 1953TIP3    H227351   2.967   0.653  13.826 -1.1151 -1.5637  0.5981
 1954TIP3   OH227352   5.654   6.639   0.206  1.2196 -0.3428  0.0738
 1954TIP3    H127353   5.568   6.604   0.228  1.0925  0.9618  1.9365
 1954TIP3    H227354   5.637   6.702   0.136  0.6813 -0.2347  0.2985
 1955TIP3   OH227355   0.514   1.488   0.631  0.2529  0.4411  0.1244
 1955TIP3    H127356   0.582   1.516   0.570 -0.6564 -0.1769 -1.1976
 1955TIP3    H227357   0.489   1.569   0.676 -1.2090  1.5693 -2.5026
 1956TIP3   OH227358   1.867   0.228   5.362 -0.1918 -0.5058  0.4034
 1956TIP3    H127359   1.855   0.263   5.449  1.4872  0.7133  0.1927
 1956TIP3    H227360   1.959   0.201   5.359 -0.4854 -1.5169 -0.6603
 1957TIP3   OH227361   0.692   6.555  16.908  0.4184 -0.0330 -0.1801
 1957TIP3    H127362   0.670   6.593  16.993 -1.1835 -1.2219 -0.0164
 1957TIP3    H227363   0.750   6.481  16.928  0.1613 -0.2217 -0.1305
 1958TIP3   OH227364   4.583   2.576   0.256 -0.5200  0.6117  0.3245
 1958TIP3    H127365   4.540   2.492   0.237  0.7506 -0.5116  2.0487
 1958TIP3    H227366   4.596   2.616   0.171  0.0782 -1.6015 -0.7169
 1959TIP3   OH227367   2.724   1.671  15.242 -0.6713  0.1616  0.2170
 1959TIP3    H127368   2.647   1.662  15.186 -0.4021 -1.1267  0.0149
 1959TIP3    H227369   2.794   1.701  15.183 -0.9962  1.3438  0.4034
 1960TIP3   OH227370   5.848   0.368  16.253  0.2992  0.1973  0.8093
 1960TIP3    H127371   5.834   0.419  16.173 -2.4501 -0.9647  0.4138
 1960TIP3    H227372   5.921   0.310  16.233  0.1314  0.4417 -0.6223
 1961TIP3   OH227373   0.357   6.301  15.574 -0.1325 -0.4144  0.4872
 1961TIP3    H127374   0.345   6.394  15.555 -0.5306 -0.2716  1.3696
 1961TIP3    H227375   0.401   6.266  15.496  0.0429  0.5121  0.1510
 1962TIP3   OH227376   4.950   4.251  14.244  0.2491  0.4235 -0.3954
 1962TIP3    H127377   5.029   4.202  14.265  1.1663  1.1495 -2.0017
 1962TIP3    H227378   4.939   4.311  14.318  0.1304 -0.9075  0.7087
 1963TIP3   OH227379   6.698   1.278  12.210  0.4331  0.9611  0.0948
 1963TIP3    H127380   6.701   1.300  12.303 -0.2535 -0.2668  0.4265
 1963TIP3    H227381   6.608   1.249  12.195  0.0321  2.7382 -1.3492
 1964TIP3   OH227382   2.393   2.862  13.814 -0.2157 -0.0837 -0.3317
 1964TIP3    H127383   2.345   2.900  13.887  0.4637  1.1761 -0.5085
 1964TIP3    H227384   2.478   2.837  13.851 -0.0976 -0.0179 -0.5548
 1965TIP3   OH227385   1.417   4.572   4.584 -0.1163  0.3743  0.0255
 1965TIP3    H127386   1.437   4.538   4.672 -1.8959  0.2733  0.4332
 1965TIP3    H227387   1.457   4.508   4.525 -0.1934 -0.4026  0.7820
 1966TIP3   OH227388   2.327   2.469  11.210 -0.1216 -0.6666  0.6668
 1966TIP3    H127389   2.324   2.464  11.114 -2.6458 -0.1388  0.6402
 1966TIP3    H227390   2.248   2.423  11.238 -0.2129  0.4861  2.4324
 1967TIP3   OH227391   1.997   2.609   3.109 -0.4060 -0.4628  0.2982
 1967TIP3    H127392   2.049   2.571   3.180  2.8638  0.1432 -1.5514
 1967TIP3    H227393   2.057   2.611   3.034 -3.1584  0.3941 -2.0778
 1968TIP3   OH227394   1.899   0.995   4.674  0.3989  0.1753  0.0589
 1968TIP3    H127395   1.871   1.086   4.685  0.9474  0.3339  0.1352
 1968TIP3    H227396   1.937   0.970   4.758 -0.1589 -0.2766  0.1902
 1969TIP3   OH227397   3.461   3.636   6.083 -0.7256  0.4078  0.2261
 1969TIP3    H127398   3.386   3.670   6.133 -1.0711  0.4727 -0.3331
 1969TIP3    H227399   3.529   3.624   6.149 -1.2914  0.1514  0.7768
 1970TIP3   OH227400   4.253   0.496   5.130 -0.0590 -0.2751 -0.1066
 1970TIP3    H127401   4.231   0.447   5.051 -2.6140 -0.0053  0.3490
 1970TIP3    H227402   4.313   0.564   5.100 -0.0331 -0.8991 -1.5615
 1971TIP3   OH227403   0.082   2.076   0.454  0.5235  0.2874  0.0511
 1971TIP3    H127404   0.047   2.057   0.367 -0.5898 -1.2555  0.7913
 1971TIP3    H227405   0.118   1.993   0.485  0.7009  0.7492  1.1471
 1972TIP3   OH227406   6.436   4.010   3.765 -0.1878  0.1715 -0.1142
 1972TIP3    H127407   6.446   4.054   3.850  1.4985 -3.1286  1.6216
 1972TIP3    H227408   6.378   3.936   3.784 -0.3074 -0.2843 -2.0421
 1973TIP3   OH227409   6.527   2.414   3.364  0.2794  0.2234  0.5093
 1973TIP3    H127410   6.489   2.326   3.361  0.9021 -0.0857 -3.8566
 1973TIP3    H227411   6.472   2.466   3.307  2.3055  1.5733 -0.3269
 1974TIP3   OH227412   6.646   5.832  12.247  0.1293  0.0984  0.2899
 1974TIP3    H127413   6.646   5.800  12.337 -0.9824  1.3848  0.7730
 1974TIP3    H227414   6.567   5.886  12.240 -0.9476 -1.5769 -2.0441
 1975TIP3   OH227415   4.739   1.317   3.414  0.2404 -0.4890 -0.0789
 1975TIP3    H127416   4.697   1.267   3.344  0.4911 -0.7410 -0.0533
 1975TIP3    H227417   4.775   1.250   3.473 -1.8943 -0.3574  1.5181
 1976TIP3   OH227418   1.571   5.591  17.014  0.3391 -0.6907  0.2223
 1976TIP3    H127419   1.628   5.596  16.937  0.1490 -0.9786  0.0610
 1976TIP3    H227420   1.589   5.672  17.063 -0.5711  0.1852 -0.8428
 1977TIP3   OH227421   2.433   5.417  13.297 -0.1886  0.0779 -0.4748
 1977TIP3    H127422   2.411   5.473  13.371 -0.6942 -1.0356  0.2524
 1977TIP3    H227423   2.523   5.441  13.275 -0.6774  1.7662 -0.7604
 1978TIP3   OH227424   4.739   0.255   1.358  0.2886  0.1528 -0.0387
 1978TIP3    H127425   4.684   0.185   1.393  0.0563 -0.2050 -1.0806
 1978TIP3    H227426   4.802   0.273   1.427  0.3718 -1.1163  0.2366
 1979TIP3   OH227427   5.169   6.574   5.919 -0.1782  0.4049 -0.3926
 1979TIP3    H127428   5.196   6.654   5.964 -0.1905 -0.0947  0.5315
 1979TIP3    H227429   5.147   6.513   5.989 -0.0926 -0.4418 -1.0768
 1980TIP3   OH227430   3.601   6.386   4.509 -0.2776  0.1817  0.0161
 1980TIP3    H127431   3.608   6.412   4.601  1.9037  1.1425 -0.3554
 1980TIP3    H227432   3.565   6.462   4.464 -0.4163  0.0627 -0.0776
 1981TIP3   OH227433   3.388   1.319  15.419 -0.0200  0.3540 -0.1043
 1981TIP3    H127434   3.399   1.319  15.514  1.7278 -0.5966 -0.2650
 1981TIP3    H227435   3.466   1.363  15.385 -0.1294 -0.2148 -1.1424
 1982TIP3   OH227436   6.434   1.301  16.935 -0.3971  0.3167  0.0013
 1982TIP3    H127437   6.352   1.255  16.917 -0.6272  0.8249 -0.2459
 1982TIP3    H227438   6.496   1.230  16.953 -1.2650 -0.0210  1.8842
 1983TIP3   OH227439   2.933   5.863   2.784 -0.3372  0.3180 -1.0657
 1983TIP3    H127440   2.966   5.786   2.830  0.8736  0.8943 -0.9390
 1983TIP3    H227441   2.945   5.935   2.846  1.3813  1.1175 -2.2512
 1984TIP3   OH227442   1.251   0.652  10.670  0.1103 -0.4888 -0.0343
 1984TIP3    H127443   1.318   0.584  10.675 -1.5647 -2.1454  1.6933
 1984TIP3    H227444   1.229   0.658  10.577  0.8174 -1.8031 -0.3056
 1985TIP3   OH227445   6.066   0.175  12.523 -0.0583  0.0488 -0.1617
 1985TIP3    H127446   6.020   0.124  12.457  0.5040  0.3052 -0.7605
 1985TIP3    H227447   6.032   0.264  12.514 -0.8548 -0.1498  0.7124
 1986TIP3   OH227448   0.049   1.974  11.259 -0.1789  0.3164 -0.0390
 1986TIP3    H127449   0.106   2.050  11.247  1.7211 -1.2390 -1.7112
 1986TIP3    H227450   0.058   1.951  11.352  1.6833  0.3512 -0.1755
 1987TIP3   OH227451   0.823   2.561  13.724  0.3745 -0.1648 -0.2149
 1987TIP3    H127452   0.850   2.621  13.655 -2.8499  2.0625  0.2211
 1987TIP3    H227453   0.727   2.566  13.723  0.1432 -1.4935  3.1709
 1988TIP3   OH227454   6.266   5.858   1.278 -0.4085 -0.1246 -0.2137
 1988TIP3    H127455   6.175   5.837   1.260 -0.4541  0.3677 -0.5908
 1988TIP3    H227456   6.316   5.795   1.226 -0.5408  0.0743 -0.5887
 1989TIP3   OH227457   3.332   2.979   5.532  0.8212 -0.3122  0.6626
 1989TIP3    H127458   3.245   3.014   5.516  1.1167  0.2790  0.3207
 1989TIP3    H227459   3.321   2.919   5.606  0.4634  1.1587  1.8345
 1990TIP3   OH227460   5.342   3.022  11.380 -0.3015  0.3366  0.5158
 1990TIP3    H127461   5.342   2.989  11.290 -1.6909 -1.5603  1.1413
 1990TIP3    H227462   5.431   3.054  11.393 -0.4709  2.1962 -2.0092
 1991TIP3   OH227463   4.116   5.317   4.995 -0.7836  0.1356  0.5956
 1991TIP3    H127464   4.054   5.334   4.924 -0.2171  0.9299  0.2758
 1991TIP3    H227465   4.186   5.266   4.954 -1.4232 -1.1457  1.0567
 1992TIP3   OH227466   4.915   4.150  16.120 -0.3805 -0.6692  0.0526
 1992TIP3    H127467   4.885   4.239  16.098  0.0997 -0.1524  1.3621
 1992TIP3    H227468   4.936   4.110  16.036  1.4486  1.2027 -0.4561
 1993TIP3   OH227469   5.365   3.224   5.891 -0.3208  0.6762 -0.5373
 1993TIP3    H127470   5.404   3.242   5.805 -0.5724 -0.5890 -0.9292
 1993TIP3    H227471   5.287   3.280   5.893  1.0855  2.7642  0.0018
 1994TIP3   OH227472   3.928   5.897   4.552 -0.2218  0.3367  0.1408
 1994TIP3    H127473   3.909   5.807   4.527 -1.2559  0.6222 -0.1683
 1994TIP3    H227474   3.966   5.890   4.640  4.1404 -0.7543 -1.5672
 1995TIP3   OH227475   0.171   0.534  16.813  0.0290 -0.3143 -0.3204
 1995TIP3    H127476   0.164   0.571  16.725 -0.5352 -0.4121 -0.3202
 1995TIP3    H227477   0.114   0.457  16.812 -1.3192  0.6212  0.6084
 1996TIP3   OH227478   5.417   3.278  15.713  0.1037  0.3092 -0.3010
 1996TIP3    H127479   5.431   3.298  15.620  0.3695  1.2126 -0.0825
 1996TIP3    H227480   5.328   3.309  15.731  0.7217  1.9098  0.1777
 1997TIP3   OH227481   1.539   3.222  13.573  0.0705 -0.3081 -0.3180
 1997TIP3    H127482   1.469   3.174  13.530  1.3828 -1.7061 -0.9987
 1997TIP3    H227483   1.550   3.301  13.520 -0.3929 -0.5109 -0.7241
 1998TIP3   OH227484   1.423   4.247  13.948  0.2785  0.1776  0.2052
 1998TIP3    H127485   1.467   4.311  14.004 -0.8388  1.7603 -0.6196
 1998TIP3    H227486   1.458   4.264  13.861  0.7416 -1.0957  0.1260
 1999TIP3   OH227487   5.954   2.893  15.748 -0.0691 -0.5286 -0.4580
 1999TIP3    H127488   5.911   2.974  15.721  0.5063 -0.7591 -2.1985
 1999TIP3    H227489   5.962   2.843  15.668  0.3030 -1.9930  0.4580
 2000TIP3   OH227490   2.038   0.767   2.481 -0.5259 -0.1098 -0.4772
 2000TIP3    H127491   2.077   0.844   2.523  0.2661 -1.0455  0.5424
 2000TIP3    H227492   1.946   0.771   2.505 -0.1995 -0.2972  0.8601
 2001TIP3   OH227493   4.850   3.625  12.227 -0.0751 -0.8049 -0.1038
 2001TIP3    H127494   4.860   3.716  12.254 -1.5055 -0.7263  0.2124
 2001TIP3    H227495   4.808   3.582  12.301 -1.8721 -1.1011 -1.2238
 2002TIP3   OH227496   4.812   2.270   1.544  0.0646 -0.4291  0.4649
 2002TIP3    H127497   4.748   2.200   1.532 -1.4097  1.1209 -1.3272
 2002TIP3    H227498   4.769   2.333   1.602  0.2645  0.2668 -0.1353
 2003TIP3   OH227499   6.470   6.513   2.128  0.0470  0.0284 -0.5312
 2003TIP3    H127500   6.534   6.568   2.172  0.7631 -1.1694 -0.0109
 2003TIP3    H227501   6.451   6.444   2.191 -1.6837  0.2978 -0.7307
 2004TIP3   OH227502   6.775   6.648  11.582 -0.0219  0.0804 -0.3278
 2004TIP3    H127503   6.797   6.575  11.640 -1.3310  0.4792  0.7269
 2004TIP3    H227504   6.692   6.622  11.541 -0.5201  0.9725  0.0908
 2005TIP3   OH227505   0.281   1.221   4.971  0.2609 -0.0552  0.2995
 2005TIP3    H127506   0.244   1.146   4.926  0.9783 -0.1068 -0.2226
 2005TIP3    H227507   0.375   1.215   4.954  0.0953  2.7676 -2.6019
 2006TIP3   OH227508   1.680   1.675  11.530 -0.2069 -0.3667 -0.1416
 2006TIP3    H127509   1.652   1.651  11.618  0.0860 -0.5505 -0.0937
 2006TIP3    H227510   1.607   1.723  11.493 -0.5622 -0.7941 -0.0046
 2007TIP3   OH227511   0.381   0.755   0.839  0.2135  0.4837  0.1897
 2007TIP3    H127512   0.472   0.784   0.829  0.0558  0.6905 -0.6569
 2007TIP3    H227513   0.330   0.836   0.839 -0.2343  0.2652 -2.1991
 2008TIP3   OH227514   0.947   6.249   0.364 -0.0864  0.1148  0.3044
 2008TIP3    H127515   0.950   6.266   0.458  0.7008 -2.2367  0.7826
 2008TIP3    H227516   0.897   6.167   0.356  0.2957 -0.0036 -1.2676
 2009TIP3   OH227517   1.591   2.671  13.897  0.0845 -0.1300  0.1218
 2009TIP3    H127518   1.587   2.744  13.835 -0.0363  0.1611  0.4697
 2009TIP3    H227519   1.643   2.705  13.970  1.6694 -1.0119 -0.5310
 2010TIP3   OH227520   1.640   1.591  14.261 -0.6926  0.0335 -0.1754
 2010TIP3    H127521   1.671   1.503  14.240 -0.6420 -0.0963  0.4229
 2010TIP3    H227522   1.549   1.579  14.287 -0.5010  0.0560  0.5435
 2011TIP3   OH227523   4.984   2.762  16.596  0.8705 -0.1540  0.0890
 2011TIP3    H127524   5.040   2.839  16.583  2.9629 -1.3705  1.2664
 2011TIP3    H227525   4.991   2.712  16.515 -1.3193  1.2766 -1.0937
 2012TIP3   OH227526   5.707   3.090   4.741 -0.1454  0.4813 -0.3118
 2012TIP3    H127527   5.798   3.120   4.739  0.0638 -0.1287 -0.0498
 2012TIP3    H227528   5.668   3.128   4.662  1.2027 -1.9791 -2.3064
 2013TIP3   OH227529   3.366   5.452  15.648  0.3943  0.0475 -0.1908
 2013TIP3    H127530   3.445   5.453  15.703 -0.6832 -1.8032  1.5260
 2013TIP3    H227531   3.351   5.359  15.629 -1.9819  0.2345  0.5150
 2014TIP3   OH227532   2.638   2.578  16.165  0.0886 -0.5975 -0.2878
 2014TIP3    H127533   2.592   2.629  16.232 -0.7282 -0.4587 -0.9426
 2014TIP3    H227534   2.602   2.609  16.082  2.1162  0.2815 -0.9234
 2015TIP3   OH227535   2.831   6.799   0.702  0.2558  0.1272 -0.0074
 2015TIP3    H127536   2.744   6.837   0.689  0.5540  0.4918 -0.9395
 2015TIP3    H227537   2.860   6.834   0.787 -0.0722  0.8297 -0.1827
 2016TIP3   OH227538   0.168   2.930  16.348 -0.9859  0.1877 -0.4490
 2016TIP3    H127539   0.194   2.953  16.438  1.8649  1.2055 -1.4145
 2016TIP3    H227540   0.081   2.892  16.357 -1.1830  1.0997  2.6371
 2017TIP3   OH227541   2.313   1.833  14.021 -0.1563  0.1780  0.2128
 2017TIP3    H127542   2.341   1.816  14.111 -1.4445 -0.1363  0.5678
 2017TIP3    H227543   2.326   1.749  13.977 -1.5484 -0.2984  0.6594
 2018TIP3   OH227544   2.229   6.308   1.694 -0.0858 -0.1362 -0.5730
 2018TIP3    H127545   2.225   6.233   1.635 -0.8063 -1.2314  0.8177
 2018TIP3    H227546   2.175   6.283   1.769  1.5360  0.8329  0.9910
 2019TIP3   OH227547   5.511   2.253   0.465 -0.3764  0.6148 -0.0185
 2019TIP3    H127548   5.431   2.215   0.501 -0.4142 -0.1262 -0.8545
 2019TIP3    H227549   5.502   2.244   0.370  0.7671  0.3466 -0.1220
 2020TIP3   OH227550   0.362   5.935  10.363 -0.4311 -0.1823 -0.1243
 2020TIP3    H127551   0.426   5.867  10.340 -1.3259 -0.6263 -1.4306
 2020TIP3    H227552   0.281   5.906  10.321 -1.3614  0.6503  1.0457
 2021TIP3   OH227553   1.205   4.462  15.883 -0.0057  0.3400 -0.2243
 2021TIP3    H127554   1.270   4.411  15.834  0.5674  1.1342 -0.3193
 2021TIP3    H227555   1.121   4.427  15.854  0.3648 -0.7333 -0.0709
 2022TIP3   OH227556   2.187   2.508   4.693 -0.4169 -0.2246  1.1742
 2022TIP3    H127557   2.095   2.525   4.674 -0.5950  2.1007  3.5104
 2022TIP3    H227558   2.234   2.538   4.616 -1.5582 -1.5666 -0.1078
 2023TIP3   OH227559   6.510   3.829  16.766 -0.1041  0.2729 -0.0320
 2023TIP3    H127560   6.564   3.789  16.834 -0.2438 -0.0731 -0.1190
 2023TIP3    H227561   6.504   3.762  16.698 -2.2939 -0.5127  0.8216
 2024TIP3   OH227562   1.187   5.030  13.353 -0.2511  0.4400  0.1370
 2024TIP3    H127563   1.179   5.021  13.448  2.2447 -0.9955  0.2726
 2024TIP3    H227564   1.170   4.942  13.318 -1.5415  1.0335 -0.8156
 2025TIP3   OH227565   3.644   3.464   6.003 -0.2785 -0.0189  0.0968
 2025TIP3    H127566   3.581   3.536   6.005  0.0988  0.3041  0.5094
 2025TIP3    H227567   3.684   3.466   6.089  0.7626  0.1885 -0.3797
 2026TIP3   OH227568   2.704   2.379  12.242 -0.4697  0.2058 -0.3018
 2026TIP3    H127569   2.617   2.367  12.280 -0.5608 -0.2836 -0.6596
 2026TIP3    H227570   2.733   2.464  12.276 -0.1631 -0.5943  1.6169
 2027TIP3   OH227571   6.233   5.804  12.302  0.1020 -0.1885  0.0864
 2027TIP3    H127572   6.273   5.726  12.263  0.2003 -0.1907  0.1893
 2027TIP3    H227573   6.139   5.783  12.306  0.2374 -0.7154  1.0220
 2028TIP3   OH227574   4.790   4.342   5.086  0.1224 -0.2473  0.8057
 2028TIP3    H127575   4.875   4.299   5.095  0.1973 -0.1056  0.7787
 2028TIP3    H227576   4.800   4.425   5.133  0.3006  0.1984  0.0105
 2029TIP3   OH227577   6.694   0.523  13.494  0.1248  0.4042  0.3012
 2029TIP3    H127578   6.688   0.601  13.549  0.5318  0.2563  0.5616
 2029TIP3    H227579   6.787   0.501  13.495  0.0746  0.1686 -0.1267
 2030TIP3   OH227580   6.123   2.607   3.705 -0.4181  0.5097 -0.5003
 2030TIP3    H127581   6.209   2.566   3.698 -0.7569 -0.5354  1.0546
 2030TIP3    H227582   6.115   2.660   3.625  2.0594  1.4402 -0.2126
 2031TIP3   OH227583   1.811   5.638  14.286  1.0064 -0.3890 -0.5775
 2031TIP3    H127584   1.810   5.641  14.382  3.9262  2.0113 -0.4546
 2031TIP3    H227585   1.862   5.560  14.264 -0.2764 -1.3486 -0.2693
 2032TIP3   OH227586   5.240   3.583  10.595  0.0853 -0.1398 -0.3846
 2032TIP3    H127587   5.219   3.504  10.545  0.3122 -0.1129 -0.5257
 2032TIP3    H227588   5.330   3.569  10.624 -0.8073 -1.2853  2.1598
 2033TIP3   OH227589   0.375   4.583   2.323 -0.0227 -0.2972  0.7944
 2033TIP3    H127590   0.383   4.592   2.418 -1.6495  1.3498  0.8372
 2033TIP3    H227591   0.281   4.591   2.307  0.2559 -0.3246 -0.9818
 2034TIP3   OH227592   6.456   5.849   2.914  0.1836  0.1222  0.6111
 2034TIP3    H127593   6.518   5.825   2.983  0.3505  0.2922  0.5225
 2034TIP3    H227594   6.454   5.773   2.855  1.0604  0.4980  0.0804
 2035TIP3   OH227595   3.364   1.838   0.289 -0.1752 -0.0185 -0.2566
 2035TIP3    H127596   3.370   1.855   0.383  0.2139  0.0787 -0.2955
 2035TIP3    H227597   3.341   1.745   0.283 -1.2601  0.2330 -0.0584
 2036TIP3   OH227598   3.395   0.835  15.159 -0.2834 -0.3189 -0.4835
 2036TIP3    H127599   3.404   0.743  15.134  0.1408 -0.0726 -1.2891
 2036TIP3    H227600   3.475   0.876  15.126  0.6679 -0.0836  1.9133
 2037TIP3   OH227601   5.648   5.553  11.813 -0.0737 -0.4137  0.0052
 2037TIP3    H127602   5.658   5.459  11.799 -0.1466 -0.1478 -2.2225
 2037TIP3    H227603   5.583   5.580  11.748 -0.9035  1.0228  1.3598
 2038TIP3   OH227604   4.233   1.503  12.121  0.1789  0.1782 -0.5721
 2038TIP3    H127605   4.226   1.507  12.026 -0.8783 -1.8504 -0.6299
 2038TIP3    H227606   4.322   1.472  12.138  0.0592 -0.3750 -0.9461
 2039TIP3   OH227607   3.680   3.758   1.400  0.3286  1.0660  0.2963
 2039TIP3    H127608   3.662   3.852   1.411 -2.1052  0.4893  2.0116
 2039TIP3    H227609   3.649   3.737   1.312  1.6280  1.9727 -0.4140
 2040TIP3   OH227610   4.959   2.336   4.056  0.0810 -0.0626  0.0056
 2040TIP3    H127611   5.040   2.285   4.056 -0.8928 -1.7931 -1.9698
 2040TIP3    H227612   4.968   2.394   3.981 -0.0157  0.6259  0.5221
 2041TIP3   OH227613   2.356   4.620   1.620 -0.4458 -0.1598  0.2690
 2041TIP3    H127614   2.401   4.610   1.704 -0.2571  0.6068  0.2602
 2041TIP3    H227615   2.273   4.573   1.632 -0.7516  0.5610  1.1396
 2042TIP3   OH227616   1.274   5.817   6.156  0.2744  0.3606  0.0791
 2042TIP3    H127617   1.311   5.732   6.131  1.1314  0.7948 -0.1530
 2042TIP3    H227618   1.192   5.822   6.106 -1.3161 -1.5822  2.2492
 2043TIP3   OH227619   5.508   1.135   0.656 -0.2975 -0.1693  0.5393
 2043TIP3    H127620   5.473   1.146   0.567  1.0835  0.2657  0.0274
 2043TIP3    H227621   5.508   1.223   0.693 -0.7403 -0.3298  0.9278
 2044TIP3   OH227622   2.273   1.478   2.486 -0.0567  0.1019  0.0198
 2044TIP3    H127623   2.197   1.452   2.537 -0.1531 -1.2176 -0.7474
 2044TIP3    H227624   2.261   1.572   2.470 -1.5265 -0.0905 -0.0828
 2045TIP3   OH227625   3.531   5.661   3.047  0.1350 -0.1726 -0.1398
 2045TIP3    H127626   3.487   5.590   3.002  0.1183  0.2024 -0.7314
 2045TIP3    H227627   3.463   5.728   3.059  0.6186  0.5787 -1.4283
 2046TIP3   OH227628   2.404   1.380   1.768 -0.5079 -0.0313 -0.4994
 2046TIP3    H127629   2.493   1.370   1.734 -0.6810 -0.7945 -0.7640
 2046TIP3    H227630   2.385   1.295   1.808 -0.8702  0.3551  0.1662
 2047TIP3   OH227631   0.494   5.594   3.467  0.1779  0.2597 -0.8674
 2047TIP3    H127632   0.483   5.611   3.373 -0.3059  0.1117 -0.8442
 2047TIP3    H227633   0.526   5.504   3.472  0.7042  0.4440 -0.9100
 2048TIP3   OH227634   2.775   4.637   2.613  0.1519 -0.2320 -0.0436
 2048TIP3    H127635   2.725   4.616   2.692 -0.0592 -0.8873 -0.3503
 2048TIP3    H227636   2.726   4.597   2.541  0.2526  0.5058 -0.5347
 2049TIP3   OH227637   1.050   1.653   6.088  0.1978 -0.4463  0.0305
 2049TIP3    H127638   1.001   1.735   6.082  0.5290 -0.2968 -0.7013
 2049TIP3    H227639   1.040   1.613   6.002  0.1093 -1.1447  0.3546
 2050TIP3   OH227640   1.654   5.475  15.368  0.3486  0.1128  0.2247
 2050TIP3    H127641   1.689   5.455  15.454 -0.8219  0.3604  0.7789
 2050TIP3    H227642   1.573   5.523  15.385  0.2084  0.3685 -1.0142
 2051TIP3   OH227643   5.630   2.686  14.818 -0.1814 -0.7000 -0.8089
 2051TIP3    H127644   5.606   2.608  14.768 -0.4958  0.8894 -3.3205
 2051TIP3    H227645   5.718   2.667  14.851 -0.6158 -2.4514 -0.5641
 2052TIP3   OH227646   6.483   5.255   3.274 -0.0016  0.5832  0.2891
 2052TIP3    H127647   6.447   5.220   3.193 -1.2600 -1.6009  1.7040
 2052TIP3    H227648   6.554   5.195   3.297  1.0948  1.8241  0.2806
 2053TIP3   OH227649   1.857   3.612  14.946  0.5651 -0.0856 -0.1173
 2053TIP3    H127650   1.776   3.562  14.957  1.0203 -1.2929 -1.7062
 2053TIP3    H227651   1.907   3.561  14.882  0.6951  2.8636 -2.5983
 2054TIP3   OH227652   5.820   1.747  16.510 -0.1872  0.4246 -0.6589
 2054TIP3    H127653   5.843   1.683  16.443  1.2219 -0.3504  0.5421
 2054TIP3    H227654   5.889   1.813  16.506 -0.9874  1.2793 -1.0619
 2055TIP3   OH227655   1.136   5.366  12.513 -0.1543 -0.1965  0.5637
 2055TIP3    H127656   1.093   5.290  12.473  1.3697 -0.6451 -0.3039
 2055TIP3    H227657   1.066   5.430  12.523 -0.9726 -0.7570 -1.1151
 2056TIP3   OH227658   6.428   2.203  13.944  0.0180  0.4870 -0.1736
 2056TIP3    H127659   6.363   2.215  14.013 -0.7452 -2.5014 -0.2485
 2056TIP3    H227660   6.507   2.246  13.977 -1.4820  2.8362  0.5960
 2057TIP3   OH227661   3.213   6.584  16.931 -0.2187  0.0868  0.5293
 2057TIP3    H127662   3.256   6.590  16.846  1.1563 -0.8585  1.1151
 2057TIP3    H227663   3.146   6.517  16.919 -0.5118  0.4689  0.0092
 2058TIP3   OH227664   0.126   2.504  10.378 -0.0637  0.2275 -0.2905
 2058TIP3    H127665   0.059   2.503  10.310 -0.7085 -0.5334  0.3302
 2058TIP3    H227666   0.200   2.549  10.339 -0.5103  0.0047 -1.4140
 2059TIP3   OH227667   0.824   6.555  15.038 -0.1959  0.0134  0.1333
 2059TIP3    H127668   0.801   6.523  15.126  1.7790  0.0342  0.7032
 2059TIP3    H227669   0.740   6.580  15.000 -1.1909 -0.6259  1.7564
 2060TIP3   OH227670   1.379   3.219  15.538 -0.0699 -0.1376  0.1375
 2060TIP3    H127671   1.410   3.132  15.565  1.0854  0.6455  1.4414
 2060TIP3    H227672   1.386   3.273  15.617  1.2492  1.6809 -1.1276
 2061TIP3   OH227673   5.949   2.978  12.854  0.0334 -0.1491  0.2066
 2061TIP3    H127674   5.948   2.884  12.835  0.1498 -0.2181  0.5302
 2061TIP3    H227675   5.858   3.000  12.874  0.0339 -0.2282  0.2950
 2062TIP3   OH227676   0.720   2.906   5.182 -0.3675  0.0130  0.4410
 2062TIP3    H127677   0.725   2.999   5.158  0.5487 -0.3977 -1.0981
 2062TIP3    H227678   0.805   2.870   5.155 -0.7138 -1.2752  1.0142
 2063TIP3   OH227679   0.142   0.590   0.911  0.5238 -0.1149 -0.0730
 2063TIP3    H127680   0.149   0.668   0.855 -2.6586  1.2751  1.1993
 2063TIP3    H227681   0.106   0.523   0.854  2.0515 -0.3169 -0.8554
 2064TIP3   OH227682   1.107   6.604   1.947  0.5133  0.5880 -0.1020
 2064TIP3    H127683   1.162   6.526   1.954 -1.0321 -0.4637  1.1294
 2064TIP3    H227684   1.144   6.654   1.874  3.6032  0.4325  1.2366
 2065TIP3   OH227685   0.563   6.818  11.749 -0.3770  0.2776 -0.1472
 2065TIP3    H127686   0.559   6.882  11.678 -0.4847 -0.2081 -0.5806
 2065TIP3    H227687   0.480   6.770  11.744 -0.8982  1.0071  1.0371
 2066TIP3   OH227688   6.277   6.245  14.219  0.1973 -0.3455  0.3666
 2066TIP3    H127689   6.326   6.164  14.207  0.2381 -0.2961  0.1962
 2066TIP3    H227690   6.263   6.251  14.314  1.5245  0.2288  0.5528
 2067TIP3   OH227691   4.603   1.644   1.368  0.0691 -0.0760 -0.2500
 2067TIP3    H127692   4.651   1.727   1.360  0.6301 -0.3296  0.3727
 2067TIP3    H227693   4.651   1.584   1.310 -1.0324  0.3134 -1.6255
 2068TIP3   OH227694   5.949   5.251  16.930  0.1999 -0.9081  0.1879
 2068TIP3    H127695   6.014   5.182  16.946  1.0979 -0.1080  0.0788
 2068TIP3    H227696   5.971   5.320  16.992  1.2876  0.5884 -1.7130
 2069TIP3   OH227697   0.673   2.388   0.101 -0.8567 -0.4409  0.1907
 2069TIP3    H127698   0.756   2.341   0.112 -1.0201 -0.5654  0.9025
 2069TIP3    H227699   0.636   2.392   0.189 -1.9833 -1.0801 -0.2345
 2070TIP3   OH227700   2.602   3.344  13.318  0.1512 -0.4718 -0.2855
 2070TIP3    H127701   2.629   3.436  13.320  1.3929 -0.7515 -1.9401
 2070TIP3    H227702   2.585   3.322  13.410  1.1676  1.0366  0.3024
 2071TIP3   OH227703   5.080   1.877  15.302 -0.2873 -0.2129 -0.4088
 2071TIP3    H127704   5.029   1.958  15.291 -0.2067 -0.2628 -1.2790
 2071TIP3    H227705   5.110   1.857  15.213 -1.0034 -1.6569 -0.3477
 2072TIP3   OH227706   0.210   3.262  16.449  0.2849  0.1168 -0.0329
 2072TIP3    H127707   0.175   3.193  16.505 -1.5629  2.3488  1.7325
 2072TIP3    H227708   0.139   3.281  16.387  0.4403  0.9938  0.0493
 2073TIP3   OH227709   3.850   4.265  15.830 -0.0496 -0.1529  0.2283
 2073TIP3    H127710   3.840   4.170  15.821 -0.1781 -0.2824  1.5421
 2073TIP3    H227711   3.762   4.299  15.822  0.3598  0.3698 -4.7603
 2074TIP3   OH227712   3.708   4.417   0.342 -0.4829  0.4007 -0.1392
 2074TIP3    H127713   3.785   4.467   0.369  0.0552 -0.3711 -0.2085
 2074TIP3    H227714   3.640   4.483   0.328  0.4032  1.1785 -0.9182
 2075TIP3   OH227715   1.805   3.974   1.926  0.0953 -0.1275 -0.0600
 2075TIP3    H127716   1.714   4.004   1.924  0.4927  1.1524 -1.7388
 2075TIP3    H227717   1.851   4.041   1.976  0.6547  1.1502 -2.1650
 2076TIP3   OH227718   1.196   0.807   5.703  0.3430 -0.1112 -0.7507
 2076TIP3    H127719   1.270   0.753   5.730 -0.1886 -0.8726 -0.8094
 2076TIP3    H227720   1.158   0.761   5.628 -0.6211 -0.1005 -0.2798
 2077TIP3   OH227721   0.024   3.724   4.090 -0.3825  0.2362  0.3577
 2077TIP3    H127722   0.095   3.676   4.049  1.0851  1.5854  1.1885
 2077TIP3    H227723  -0.025   3.658   4.138 -0.4296 -0.9052 -1.1749
 2078TIP3   OH227724   3.674   2.456   3.751 -0.3148 -0.3202  0.2882
 2078TIP3    H127725   3.600   2.467   3.692 -0.6141 -0.0289  0.7091
 2078TIP3    H227726   3.649   2.506   3.829  0.6523  0.4411  0.1310
 2079TIP3   OH227727   6.114   2.601  11.858 -0.0011 -0.9018  0.1785
 2079TIP3    H127728   6.059   2.597  11.779 -2.5231 -2.2001  1.8808
 2079TIP3    H227729   6.062   2.652  11.921  1.9737  0.1424  1.0662
 2080TIP3   OH227730   0.439   2.643  13.554  0.1247  0.4437 -0.5201
 2080TIP3    H127731   0.529   2.656  13.526  1.0578 -0.6733  1.7025
 2080TIP3    H227732   0.386   2.659  13.475  2.2909  0.3042 -2.0718
 2081TIP3   OH227733   0.971   1.970   0.183  0.3628 -0.0567  0.7574
 2081TIP3    H127734   1.023   1.914   0.125 -1.0265 -3.2927  2.4239
 2081TIP3    H227735   1.032   1.999   0.250  0.9080 -0.2841  0.3635
 2082TIP3   OH227736   5.134   3.761   0.382 -0.5731 -0.0995  0.1420
 2082TIP3    H127737   5.141   3.792   0.472 -1.2758  1.5436 -0.3166
 2082TIP3    H227738   5.161   3.669   0.385  1.0668  0.3877  1.7183
 2083TIP3   OH227739   1.378   3.286   0.196 -0.1655 -0.0608 -0.1316
 2083TIP3    H127740   1.402   3.249   0.281  1.5583 -0.1230 -0.6036
 2083TIP3    H227741   1.386   3.381   0.208  0.9903 -0.1008 -0.4434
 2084TIP3   OH227742   5.703   1.817   1.176 -0.1667 -0.6712 -0.2025
 2084TIP3    H127743   5.731   1.815   1.085 -1.4074  0.8568 -0.6538
 2084TIP3    H227744   5.619   1.770   1.177 -0.2973 -0.4398  0.0868
 2085TIP3   OH227745   4.437   3.864   6.443 -0.4583 -0.0484 -0.2612
 2085TIP3    H127746   4.368   3.888   6.381 -0.4251 -0.7829 -0.5926
 2085TIP3    H227747   4.515   3.908   6.410 -0.0557 -1.7494 -1.7255
 2086TIP3   OH227748   3.272   6.282   3.708 -0.6278  0.0446  0.3636
 2086TIP3    H127749   3.213   6.215   3.742 -0.3169  0.5518  1.9650
 2086TIP3    H227750   3.360   6.246   3.722 -0.5019 -0.5383 -1.6508
 2087TIP3   OH227751   0.057   2.425   1.127  0.4182  0.3568 -0.3323
 2087TIP3    H127752   0.078   2.348   1.074  1.4910 -0.3285  1.0166
 2087TIP3    H227753  -0.000   2.392   1.196 -0.2195  1.0469 -0.5240
 2088TIP3   OH227754   4.319   3.058  15.629 -0.3920  0.2770 -0.3412
 2088TIP3    H127755   4.397   3.098  15.591 -0.9099  1.9578  0.2639
 2088TIP3    H227756   4.264   3.133  15.655 -0.7940 -0.7930  2.1787
 2089TIP3   OH227757   0.032   3.372   4.300 -0.1100 -0.2369 -0.2197
 2089TIP3    H127758  -0.053   3.415   4.291  0.6044  1.3758  0.3406
 2089TIP3    H227759   0.080   3.427   4.361  0.9722 -1.7151  0.3278
 2090TIP3   OH227760   3.451   5.851  14.884  0.3445  0.3566 -0.0311
 2090TIP3    H127761   3.412   5.828  14.800  2.7189 -0.7250 -0.9218
 2090TIP3    H227762   3.393   5.813  14.949 -2.7384  3.0238 -0.9819
 2091TIP3   OH227763   4.642   5.180  15.633 -0.3871 -0.4043  0.4894
 2091TIP3    H127764   4.696   5.254  15.661 -3.4808  2.0745  0.4532
 2091TIP3    H227765   4.690   5.142  15.559  1.4781  1.3719  0.6980
 2092TIP3   OH227766   0.067   0.647   6.420 -0.2535  0.2827  0.3825
 2092TIP3    H127767  -0.006   0.665   6.480 -1.4274 -0.4976 -0.7509
 2092TIP3    H227768   0.115   0.575   6.462 -1.7824 -1.1013 -0.1521
 2093TIP3   OH227769   2.765   2.215  12.537  0.0567  0.7102 -0.3880
 2093TIP3    H127770   2.839   2.233  12.595 -0.0210  2.0810 -0.6900
 2093TIP3    H227771   2.688   2.244  12.585 -0.2266 -0.0953 -0.3445
 2094TIP3   OH227772   3.326   6.060   1.066  1.2436  0.6007 -0.0747
 2094TIP3    H127773   3.416   6.038   1.043  1.4922  0.7444  0.7385
 2094TIP3    H227774   3.300   5.991   1.127  1.4860  1.6447  1.2450
 2095TIP3   OH227775   5.163   3.257   0.368  0.8784 -0.1559 -0.3278
 2095TIP3    H127776   5.197   3.331   0.418 -0.3623 -1.2868  2.3676
 2095TIP3    H227777   5.229   3.189   0.377  0.4516 -0.5101  0.1653
 2096TIP3   OH227778   2.648   4.898   3.898  0.1992 -0.4774  0.1757
 2096TIP3    H127779   2.701   4.925   3.973 -0.9159  0.5165  0.6242
 2096TIP3    H227780   2.673   4.957   3.828  0.8704 -1.0813 -0.1116
 2097TIP3   OH227781   3.746   6.473   5.520 -0.1186  0.0471 -0.3726
 2097TIP3    H127782   3.692   6.535   5.568 -0.6403  0.5754 -1.6045
 2097TIP3    H227783   3.811   6.443   5.584 -0.6152  0.9233  0.5698
 2098TIP3   OH227784   3.095   2.190  11.366 -0.4668 -0.0933  0.7323
 2098TIP3    H127785   3.030   2.154  11.306 -0.4387 -2.2346  1.8683
 2098TIP3    H227786   3.045   2.212  11.445 -0.3306  1.6322  0.3797
 2099TIP3   OH227787   5.326   2.755   1.003 -0.0920 -0.3447 -0.0251
 2099TIP3    H127788   5.419   2.770   0.985  0.4213 -2.5884  0.5445
 2099TIP3    H227789   5.313   2.791   1.091  0.8878 -2.2553  0.9534
 2100TIP3   OH227790   1.676   5.932   1.825  0.1650  0.1529  0.4717
 2100TIP3    H127791   1.636   5.863   1.879 -0.4103  0.6017  0.6290
 2100TIP3    H227792   1.633   5.924   1.740 -1.5498  1.7132  1.1204
 2101TIP3   OH227793   5.144   3.585   3.496 -0.1408 -0.1606  0.3766
 2101TIP3    H127794   5.055   3.617   3.511 -0.3043 -0.4292 -0.0043
 2101TIP3    H227795   5.174   3.557   3.582 -2.0030 -4.1156 -0.0290
 2102TIP3   OH227796   5.449   5.005   3.245 -0.1847 -0.3471 -0.1703
 2102TIP3    H127797   5.447   5.049   3.161  1.6115  0.6184  0.2574
 2102TIP3    H227798   5.538   4.970   3.252 -0.2096 -0.1504  1.4474
 2103TIP3   OH227799   1.745   2.801  10.331  0.1163  0.1755  0.2292
 2103TIP3    H127800   1.666   2.779  10.380  0.7451  0.2897  1.3434
 2103TIP3    H227801   1.730   2.891  10.301 -1.0456 -0.5238 -1.4286
 2104TIP3   OH227802   6.331   3.068  15.929 -0.4351  0.8338  0.3045
 2104TIP3    H127803   6.416   3.106  15.906 -0.1892 -0.2520 -0.6713
 2104TIP3    H227804   6.322   2.992  15.872 -1.8198  0.5972  0.7862
 2105TIP3   OH227805   2.316   4.263   2.986  0.1792  0.0290 -0.5863
 2105TIP3    H127806   2.295   4.178   3.024  1.5877 -0.0431  0.0686
 2105TIP3    H227807   2.391   4.295   3.036 -1.7654  2.7774  0.8239
 2106TIP3   OH227808   0.288   3.610   0.929 -0.4367 -0.1548 -0.7369
 2106TIP3    H127809   0.203   3.582   0.896 -2.0584  1.3858  1.8382
 2106TIP3    H227810   0.269   3.655   1.011  3.0589 -1.3995  0.9414
 2107TIP3   OH227811   4.241   5.598   4.940  0.4124  0.0773  0.0150
 2107TIP3    H127812   4.208   5.620   4.854 -0.8973 -1.2703  0.1323
 2107TIP3    H227813   4.215   5.506   4.953 -0.0619  0.4573  2.1227
 2108TIP3   OH227814   2.488   2.402  12.464 -0.1446  0.2304 -0.0056
 2108TIP3    H127815   2.466   2.309  12.454 -0.1663  0.3996 -2.0388
 2108TIP3    H227816   2.514   2.411  12.556 -1.3915 -1.5018  0.5688
 2109TIP3   OH227817   1.097   1.928  15.575 -0.3625  0.2665  0.6440
 2109TIP3    H127818   1.186   1.893  15.584 -0.3554  0.1678  0.1974
 2109TIP3    H227819   1.109   2.017  15.543 -0.4330  0.1733  0.3587
 2110TIP3   OH227820   4.268   0.664  14.250 -0.2130  0.3752 -0.0764
 2110TIP3    H127821   4.361   0.684  14.239 -0.1451  0.0669 -0.0821
 2110TIP3    H227822   4.226   0.705  14.174  0.0411 -0.3234 -0.6057
 2111TIP3   OH227823   2.997   2.182   4.486 -0.0202 -0.1458  0.1578
 2111TIP3    H127824   2.971   2.147   4.401 -1.5400 -0.8649  0.8702
 2111TIP3    H227825   3.060   2.119   4.520 -0.0479 -0.3009 -0.0757
 2112TIP3   OH227826   0.575   3.950   0.216 -0.6965 -0.2339 -0.2173
 2112TIP3    H127827   0.589   3.855   0.221 -0.0030 -0.3991 -3.1927
 2112TIP3    H227828   0.649   3.982   0.165 -1.1264  1.8760  0.4102
 2113TIP3   OH227829   6.453   6.748   3.728  0.5113 -0.1491  0.5691
 2113TIP3    H127830   6.413   6.799   3.798  0.7804  1.3536 -0.3198
 2113TIP3    H227831   6.379   6.719   3.674  0.4342  0.6762  0.2070
 2114TIP3   OH227832   1.374   4.656   0.777  0.3434 -0.5582 -0.2981
 2114TIP3    H127833   1.441   4.716   0.743  1.1290 -0.7685  0.8386
 2114TIP3    H227834   1.293   4.707   0.772  0.6378 -0.1465 -1.2969
 2115TIP3   OH227835   2.238   0.653   1.908  0.3302  0.3441  0.9262
 2115TIP3    H127836   2.154   0.638   1.951 -0.3033 -0.6576 -0.5880
 2115TIP3    H227837   2.277   0.567   1.899  0.1408  0.4018 -1.0254
 2116TIP3   OH227838   5.390   1.366  14.339  0.0099 -0.3305  0.3517
 2116TIP3    H127839   5.478   1.340  14.313  0.0499 -0.4860  0.6364
 2116TIP3    H227840   5.349   1.284  14.367  0.5228  0.0576  2.3702
 2117TIP3   OH227841   5.632   4.381  13.943  0.0687 -0.0908 -0.4098
 2117TIP3    H127842   5.662   4.340  14.023  0.4487 -1.1839 -1.0954
 2117TIP3    H227843   5.689   4.346  13.874 -0.4409  0.5837 -1.2053
 2118TIP3   OH227844   3.134   5.542   1.530  0.1623 -0.6508  0.3353
 2118TIP3    H127845   3.092   5.597   1.464 -0.3431  0.3138  1.4140
 2118TIP3    H227846   3.110   5.453   1.506 -0.8021 -0.2487 -0.2407
 2119TIP3   OH227847   1.911   0.259   2.440 -0.0957 -0.0891  0.2322
 2119TIP3    H127848   1.926   0.184   2.383 -0.2208 -0.4302  0.6413
 2119TIP3    H227849   1.817   0.257   2.457 -0.0204 -0.1315  0.6453
 2120TIP3   OH227850   5.612   5.060   5.949  0.0545 -0.7252 -0.5419
 2120TIP3    H127851   5.674   5.021   6.010 -0.5006  1.1399  1.3518
 2120TIP3    H227852   5.531   5.069   6.000 -0.2112  1.6348 -1.2401
 2121TIP3   OH227853   3.493   1.140   3.099 -0.1718  0.2868  0.3614
 2121TIP3    H127854   3.549   1.217   3.111 -0.2077  1.1039 -3.2852
 2121TIP3    H227855   3.405   1.175   3.090 -0.4970 -0.4170  0.7315
 2122TIP3   OH227856   0.858   0.987   4.810 -0.7382  0.5976  0.1591
 2122TIP3    H127857   0.853   1.068   4.860 -0.4717  0.4021  0.5143
 2122TIP3    H227858   0.919   1.006   4.739  1.5314 -0.0598  1.7929
 2123TIP3   OH227859   6.466   2.035   4.395 -0.0727  0.4427  0.4641
 2123TIP3    H127860   6.419   2.032   4.312  1.3183 -0.6878 -0.3299
 2123TIP3    H227861   6.521   2.113   4.388 -1.1960  1.3273  1.0767
 2124TIP3   OH227862   3.203   5.513  11.847 -0.0084  1.0788  0.1319
 2124TIP3    H127863   3.147   5.541  11.920 -1.6066 -0.3293 -0.4786
 2124TIP3    H227864   3.148   5.523  11.770  0.7537  0.0987 -0.5581
 2125TIP3   OH227865   2.090   2.482  11.411  0.1599  0.1188 -0.1851
 2125TIP3    H127866   2.180   2.491  11.441  0.9354  0.7419 -2.4407
 2125TIP3    H227867   2.054   2.571  11.417 -0.8815 -0.3894  2.1634
 2126TIP3   OH227868   5.098   1.384  11.753  0.7878 -0.3391  0.0073
 2126TIP3    H127869   5.012   1.352  11.724 -0.1189 -0.1539  2.2634
 2126TIP3    H227870   5.103   1.473  11.717  0.1012 -0.4113 -0.2873
 2127TIP3   OH227871   0.535   6.208   3.026 -0.8748  0.0030 -1.2378
 2127TIP3    H127872   0.606   6.144   3.036  0.3784  1.4575 -0.4142
 2127TIP3    H227873   0.561   6.262   2.952  0.9247  2.8958  1.2484
 2128TIP3   OH227874   3.538   2.782   2.319 -0.1635 -0.1230 -0.3099
 2128TIP3    H127875   3.453   2.823   2.310 -0.3177 -0.2678  0.3751
 2128TIP3    H227876   3.521   2.703   2.372  0.6128  0.6637  1.2019
 2129TIP3   OH227877   0.176   5.369  13.544 -0.2768 -0.3187  0.3873
 2129TIP3    H127878   0.089   5.368  13.584  0.3106  1.6296  1.9048
 2129TIP3    H227879   0.204   5.461  13.552  1.1226 -0.4849 -1.8558
 2130TIP3   OH227880   6.112   0.523  16.146  0.5021  0.1897 -0.2480
 2130TIP3    H127881   6.204   0.521  16.173  0.4606  1.8325  0.1312
 2130TIP3    H227882   6.071   0.586  16.206 -0.7865 -0.2035 -0.6805
 2131TIP3   OH227883   1.679   3.100  11.034  0.5806  0.1831 -0.4245
 2131TIP3    H127884   1.590   3.114  11.065  0.2507  2.8535 -2.2388
 2131TIP3    H227885   1.674   3.021  10.980  0.0017 -1.3139  1.7328
 2132TIP3   OH227886   0.131   5.686  12.736  0.0329  0.5672 -0.2616
 2132TIP3    H127887   0.044   5.691  12.774 -0.6611  0.1403 -1.7332
 2132TIP3    H227888   0.118   5.643  12.651  1.9866 -1.8939  0.5415
 2133TIP3   OH227889   0.868   2.314  15.050  0.4718  0.8067  0.0619
 2133TIP3    H127890   0.844   2.265  15.128  2.4166 -0.1095  0.1462
 2133TIP3    H227891   0.792   2.306  14.992 -0.7732  1.0129  1.5971
 2134TIP3   OH227892   2.436   0.674   5.516  0.4796  0.7060  0.0774
 2134TIP3    H127893   2.496   0.741   5.484  1.3487  0.1890  0.5744
 2134TIP3    H227894   2.448   0.674   5.611  0.6713 -0.2917  0.0723
 2135TIP3   OH227895   3.820   2.700  10.796 -0.2206 -0.1305  0.3648
 2135TIP3    H127896   3.809   2.721  10.704  1.3180 -2.3965 -0.4325
 2135TIP3    H227897   3.732   2.677  10.827 -0.7959  0.9520 -0.4274
 2136TIP3   OH227898   1.585   4.060  15.066 -0.0991 -0.5384  0.6145
 2136TIP3    H127899   1.575   4.051  15.161 -0.8158  1.7983  0.7978
 2136TIP3    H227900   1.585   3.969  15.034 -2.5211 -1.3406  2.5645
 2137TIP3   OH227901   3.051   4.930   2.853 -0.5410 -0.3715 -0.1698
 2137TIP3    H127902   3.081   5.009   2.898 -0.8262 -0.4341  0.1310
 2137TIP3    H227903   3.118   4.914   2.786 -0.0786 -0.3254  0.2813
 2138TIP3   OH227904   0.614   4.388   4.865  0.2099 -0.2489 -0.2616
 2138TIP3    H127905   0.603   4.482   4.881 -1.1003 -0.3175 -0.6256
 2138TIP3    H227906   0.616   4.349   4.953 -1.1977 -0.0628 -0.1274
 2139TIP3   OH227907   2.299   3.764   1.140  1.1484  0.4443 -0.3611
 2139TIP3    H127908   2.259   3.821   1.205  3.8082  1.6084  0.3886
 2139TIP3    H227909   2.304   3.817   1.060 -0.7947 -0.4944 -1.1711
 2140TIP3   OH227910   0.113   3.251  14.175  0.9305  0.0701  0.2509
 2140TIP3    H127911   0.096   3.341  14.202  1.1422 -0.0207  0.7093
 2140TIP3    H227912   0.209   3.245  14.171  0.8974  0.3293 -1.4322
 2141TIP3   OH227913   2.715   1.587   0.463  0.3464  0.2411  0.0060
 2141TIP3    H127914   2.672   1.533   0.397  0.6492  1.1591 -0.9620
 2141TIP3    H227915   2.718   1.675   0.425  2.0123  0.4550  0.5289
 2142TIP3   OH227916   2.063   1.032   4.299  0.5835  0.2318 -0.4779
 2142TIP3    H127917   2.066   1.052   4.205  0.0503  0.3514 -0.4732
 2142TIP3    H227918   1.986   0.976   4.309  0.4494  0.4851 -0.0629
 2143TIP3   OH227919   2.427   2.419  14.312  0.4188  0.0254 -0.3482
 2143TIP3    H127920   2.360   2.469  14.358  0.6351  0.0527 -0.0593
 2143TIP3    H227921   2.502   2.420  14.371 -0.9414 -4.5617  1.8943
 2144TIP3   OH227922   2.981   0.430  12.129 -0.1920 -0.1645 -0.1208
 2144TIP3    H127923   3.034   0.358  12.094 -0.4090 -0.3051 -0.1661
 2144TIP3    H227924   3.042   0.503  12.136  0.2280 -0.5727  0.6664
 2145TIP3   OH227925   0.048   0.392  17.122  0.2818 -0.3424  0.5800
 2145TIP3    H127926   0.003   0.406  17.205 -2.6654 -1.2026 -0.7652
 2145TIP3    H227927   0.140   0.382  17.147 -0.2247  1.2426  3.5125
 2146TIP3   OH227928   6.262   6.055  16.729  0.1537  0.2327 -0.2104
 2146TIP3    H127929   6.307   5.995  16.669  1.7495  0.0964  1.0486
 2146TIP3    H227930   6.223   5.998  16.795  1.9909  0.5099  1.2004
 2147TIP3   OH227931   4.922   3.760   2.930 -0.1187  0.3239  0.7545
 2147TIP3    H127932   4.937   3.751   3.024  2.2849  0.5932  0.4685
 2147TIP3    H227933   4.955   3.678   2.893 -1.7884 -0.1284  0.1652
 2148TIP3   OH227934   0.662   5.962  11.844 -0.3972  0.2434 -0.1697
 2148TIP3    H127935   0.731   6.027  11.831  0.4087 -0.8701 -1.8652
 2148TIP3    H227936   0.703   5.879  11.820 -2.1531 -0.5353 -0.6241
 2149TIP3   OH227937   0.318   2.104   6.195 -0.1641  0.0861 -0.1914
 2149TIP3    H127938   0.264   2.091   6.274  1.0022  0.1717  0.6500
 2149TIP3    H227939   0.401   2.137   6.229  0.8350 -1.1320 -1.3484
 2150TIP3   OH227940   0.111   0.448  13.134  0.1634  0.8845  0.7414
 2150TIP3    H127941   0.188   0.464  13.080  0.7363  0.1476  1.3317
 2150TIP3    H227942   0.138   0.470  13.223 -0.0684 -0.0815  1.0658
 2151TIP3   OH227943   3.016   0.135  16.518 -0.2977  0.0350  0.1957
 2151TIP3    H127944   3.019   0.140  16.614  1.4315 -1.5631  0.2774
 2151TIP3    H227945   2.928   0.103  16.499 -0.6091  0.2053  1.2677
 2152TIP3   OH227946   4.696   4.217  14.131  0.2422 -0.1983  0.0529
 2152TIP3    H127947   4.641   4.235  14.207 -0.0846 -1.0771  0.0376
 2152TIP3    H227948   4.779   4.185  14.167  0.1188 -0.5308  0.0480
 2153TIP3   OH227949   6.042   5.989   6.010  0.4515 -0.6173  0.0632
 2153TIP3    H127950   6.044   6.082   5.987  0.1029 -0.6403 -0.0775
 2153TIP3    H227951   5.956   5.977   6.051 -0.5225 -1.3464 -2.0134
 2154TIP3   OH227952   1.934   6.537  14.650 -0.5522 -0.0425  0.0433
 2154TIP3    H127953   1.887   6.555  14.569 -1.4248  0.6060  0.6663
 2154TIP3    H227954   1.911   6.446  14.671 -3.4651  0.8958  1.4991
 2155TIP3   OH227955   6.073   5.205   3.286 -0.4118 -0.4260 -0.1220
 2155TIP3    H127956   6.126   5.150   3.343 -0.0794  0.1736  0.1577
 2155TIP3    H227957   6.044   5.146   3.216 -0.7960 -1.1554  0.6351
 2156TIP3   OH227958   0.304   1.540  15.744  0.4112 -0.4271  0.3113
 2156TIP3    H127959   0.369   1.601  15.709  0.2731 -1.0271 -1.0487
 2156TIP3    H227960   0.355   1.482  15.801  0.6503  0.5326  1.1042
 2157TIP3   OH227961   3.075   3.688  14.361 -0.1051 -0.0646  0.1536
 2157TIP3    H127962   3.163   3.680  14.324 -0.3708  1.7666 -1.0021
 2157TIP3    H227963   3.068   3.779  14.388 -1.4103 -0.3535  0.9011
 2158TIP3   OH227964   3.350   5.705  16.237 -0.0244 -0.5788  0.0988
 2158TIP3    H127965   3.409   5.650  16.288  3.5996  1.2980 -1.6526
 2158TIP3    H227966   3.330   5.654  16.159  2.4817  0.0338 -1.0392
 2159TIP3   OH227967   6.320   3.157   5.397  0.0262  0.3375  0.0378
 2159TIP3    H127968   6.371   3.165   5.316 -1.4429 -1.4416 -1.1358
 2159TIP3    H227969   6.376   3.104   5.455  0.1113 -0.3982 -0.7048
 2160TIP3   OH227970   1.408   2.302   5.764  0.3128  0.1185 -0.3166
 2160TIP3    H127971   1.337   2.355   5.800  0.1246  0.2718 -0.9086
 2160TIP3    H227972   1.448   2.358   5.697  0.8046 -0.0791 -0.1950
 2161TIP3   OH227973   1.900   2.395   3.768 -0.4074 -0.1681 -0.3093
 2161TIP3    H127974   1.956   2.354   3.702  0.1783  0.8178 -0.4315
 2161TIP3    H227975   1.934   2.363   3.852  1.6096  1.9118 -0.2661
 2162TIP3   OH227976   5.855   3.664  12.345  0.3345 -0.4815 -0.1590
 2162TIP3    H127977   5.793   3.613  12.294 -0.0761 -0.2658  0.1242
 2162TIP3    H227978   5.934   3.667  12.291 -0.3326  0.3873 -1.1320
 2163TIP3   OH227979   2.557   6.469  16.515 -0.3400  0.3687 -0.1807
 2163TIP3    H127980   2.569   6.563  16.525  1.7692  0.1289  0.0626
 2163TIP3    H227981   2.565   6.453  16.421  1.7973  0.2135 -0.0269
 2164TIP3   OH227982   2.282   1.246  14.015  0.8637  0.7630  0.6088
 2164TIP3    H127983   2.205   1.194  13.991  2.9390 -1.1807 -2.5168
 2164TIP3    H227984   2.272   1.328  13.968  1.4775 -0.2246 -1.3439
 2165TIP3   OH227985   3.827   3.009  17.209  0.3881  0.3293  0.2651
 2165TIP3    H127986   3.795   3.032  17.296 -0.6874 -1.9978  0.5368
 2165TIP3    H227987   3.914   2.971  17.225  0.6359  0.8604  0.1984
 2166TIP3   OH227988   1.789   6.285   4.398  0.2973  0.7168 -0.2781
 2166TIP3    H127989   1.807   6.300   4.491 -1.3552  3.3773 -0.2863
 2166TIP3    H227990   1.864   6.234   4.367  2.2776  2.1129  1.9004
 2167TIP3   OH227991   2.004   2.561  10.849 -0.3755 -0.6641 -0.3296
 2167TIP3    H127992   2.032   2.516  10.770 -1.4800  0.5288 -1.4391
 2167TIP3    H227993   2.082   2.605  10.881  0.1746 -1.4928 -0.4985
 2168TIP3   OH227994   0.936   4.015   3.548 -0.0769  0.8352  0.6673
 2168TIP3    H127995   0.860   4.073   3.536  0.3113  1.4446  1.0937
 2168TIP3    H227996   0.900   3.939   3.595 -0.8532  0.0942 -1.0424
 2169TIP3   OH227997   3.279   2.371  12.804  0.4893  0.5645 -0.2656
 2169TIP3    H127998   3.280   2.410  12.716 -1.1215  0.5358 -0.3308
 2169TIP3    H227999   3.211   2.420  12.851  2.1644  1.4204  1.3940
 2170TIP3   OH228000   4.753   1.486   3.980 -0.1968 -0.2439 -0.6225
 2170TIP3    H128001   4.696   1.428   3.929 -0.6400  0.8133 -1.3605
 2170TIP3    H228002   4.838   1.442   3.978 -1.0623 -2.1872  1.0658
 2171TIP3   OH228003   2.881   6.630  14.823  0.2662  0.2303 -0.4986
 2171TIP3    H128004   2.831   6.596  14.898  0.7338  2.9296  1.1846
 2171TIP3    H228005   2.966   6.586  14.829 -0.8589 -2.2913 -1.7189
 2172TIP3   OH228006   5.578   1.743  15.270  0.0845  0.5403  0.1094
 2172TIP3    H128007   5.499   1.738  15.324  1.0809  2.5437  1.9400
 2172TIP3    H228008   5.546   1.734  15.180 -2.0614  0.0823  0.8463
 2173TIP3   OH228009   4.626   2.030   0.671 -0.3965  0.7087  0.2911
 2173TIP3    H128010   4.533   2.016   0.651 -0.8921  2.2936  1.2119
 2173TIP3    H228011   4.624   2.089   0.747  1.3614 -0.7978  1.5756
 2174TIP3   OH228012   3.492   2.704   6.639  0.4956 -0.2784 -0.1497
 2174TIP3    H128013   3.440   2.630   6.670  1.4933 -1.4100 -1.0614
 2174TIP3    H228014   3.554   2.665   6.577  3.2314  0.7888  1.7135
 2175TIP3   OH228015   1.759   1.508  15.098  0.0974  0.2513  0.0053
 2175TIP3    H128016   1.673   1.485  15.134 -0.5431  1.1376 -0.8943
 2175TIP3    H228017   1.769   1.601  15.119 -0.2542  0.7748 -1.9541
 2176TIP3   OH228018   4.248   5.511   6.453  0.2085  0.3280 -0.3061
 2176TIP3    H128019   4.280   5.424   6.477 -0.0241  0.2137 -0.4091
 2176TIP3    H228020   4.321   5.570   6.473  0.5233  0.0534 -0.6387
 2177TIP3   OH228021   4.606   0.888  16.785 -0.0305  0.1049 -0.1760
 2177TIP3    H128022   4.637   0.801  16.809 -0.4234  0.3802  1.4697
 2177TIP3    H228023   4.685   0.939  16.768  0.4210  0.3118  2.1979
 2178TIP3   OH228024   6.114   3.136   1.190 -0.1429 -0.3459 -0.0840
 2178TIP3    H128025   6.121   3.074   1.262  0.5579 -0.4654 -0.2469
 2178TIP3    H228026   6.029   3.116   1.150 -0.4858 -0.3502  0.6291
 2179TIP3   OH228027   3.099   6.479  14.923  0.1692  0.2999  0.1383
 2179TIP3    H128028   3.092   6.486  15.019 -0.5246  0.3368  0.0921
 2179TIP3    H228029   3.019   6.435  14.897  1.0236 -1.0258 -0.3029
 2180TIP3   OH228030   1.771   5.389   4.357  0.2284  0.2125 -0.9287
 2180TIP3    H128031   1.713   5.339   4.301 -1.8733  0.5264  0.8278
 2180TIP3    H228032   1.752   5.480   4.336 -1.4407  0.3781  0.9450
 2181TIP3   OH228033   5.138   4.326  16.862 -0.5148 -0.1889  0.0258
 2181TIP3    H128034   5.159   4.410  16.823 -2.1064  0.6446  0.8730
 2181TIP3    H228035   5.129   4.344  16.956  0.9959 -1.6923  0.5321
 2182TIP3   OH228036   1.210   1.905   2.682  0.0472  0.4767 -0.6009
 2182TIP3    H128037   1.235   1.957   2.759  2.1874 -1.0183 -0.1885
 2182TIP3    H228038   1.149   1.840   2.716 -0.6029  1.0816 -0.5958
 2183TIP3   OH228039   4.215   0.382  16.220  0.4087 -0.4013  0.4452
 2183TIP3    H128040   4.176   0.322  16.282  1.6034  0.1523  1.7886
 2183TIP3    H228041   4.246   0.455  16.273  1.6817 -0.0163 -0.7600
 2184TIP3   OH228042   5.854   2.008   5.191  0.4714 -0.4213  0.0230
 2184TIP3    H128043   5.760   1.991   5.201  0.4456 -0.1740  0.2270
 2184TIP3    H228044   5.859   2.102   5.175  0.5121 -0.7546 -2.2990
 2185TIP3   OH228045   0.278   4.802  10.203 -0.3555 -0.3832 -0.3974
 2185TIP3    H128046   0.219   4.737  10.239 -0.6928 -0.7652 -1.5966
 2185TIP3    H228047   0.223   4.878  10.185 -0.4821 -0.6892 -1.3819
 2186TIP3   OH228048   0.354   4.077   2.785  0.2047  0.2409 -0.2416
 2186TIP3    H128049   0.429   4.071   2.845 -0.5788 -0.0866  0.7231
 2186TIP3    H228050   0.291   4.014   2.819 -0.8438  1.0925 -0.5804
 2187TIP3   OH228051   5.489   3.484   5.275  0.0398  0.5318  0.2052
 2187TIP3    H128052   5.517   3.400   5.238 -1.3540 -0.5684  1.5068
 2187TIP3    H228053   5.546   3.496   5.351 -0.6626  0.0384  0.8261
 2188TIP3   OH228054   4.186   2.474   1.877  0.0316 -0.0471 -0.4966
 2188TIP3    H128055   4.121   2.438   1.817  0.0737  0.0150 -0.5803
 2188TIP3    H228056   4.253   2.511   1.820 -0.5466  1.1611 -0.4249
 2189TIP3   OH228057   6.372   0.286  12.442  0.5384 -0.2113  0.0260
 2189TIP3    H128058   6.358   0.214  12.380 -0.3370  0.7573 -0.9410
 2189TIP3    H228059   6.284   0.313  12.468  0.8423  0.6561  0.1796
 2190TIP3   OH228060   0.540   3.897  15.155 -0.2847  0.1333 -0.4055
 2190TIP3    H128061   0.592   3.894  15.075  0.3399 -1.2720  0.0289
 2190TIP3    H228062   0.450   3.886  15.124 -0.0266 -0.6892 -0.8974
 2191TIP3   OH228063   4.475   2.838   5.339 -0.0171  0.0801  0.0875
 2191TIP3    H128064   4.437   2.921   5.309 -1.7295 -0.0065  1.8387
 2191TIP3    H228065   4.467   2.841   5.434  1.5790 -1.3357  0.3057
 2192TIP3   OH228066   4.111   0.896   2.628  0.0139 -0.3015 -0.3440
 2192TIP3    H128067   4.172   0.868   2.560  1.6440  1.8891  0.1008
 2192TIP3    H228068   4.089   0.986   2.605 -1.4314 -0.3629  0.6671
 2193TIP3   OH228069   4.336   5.477  12.958 -0.5796 -0.1181 -0.1332
 2193TIP3    H128070   4.423   5.509  12.933 -0.9924  0.9181 -0.2954
 2193TIP3    H228071   4.343   5.460  13.052  0.1774 -1.3712 -0.3824
 2194TIP3   OH228072   1.064   2.220   2.258  0.3493  0.2172 -0.5884
 2194TIP3    H128073   0.981   2.234   2.212  1.0545 -1.6847 -2.5709
 2194TIP3    H228074   1.050   2.141   2.310  0.1576  1.3331  1.1552
 2195TIP3   OH228075   1.390   6.494   2.615 -0.3772 -0.0290  0.1757
 2195TIP3    H128076   1.383   6.453   2.529  0.8550  0.9135 -0.4043
 2195TIP3    H228077   1.390   6.588   2.597 -0.2003  0.1826  1.2113
 2196TIP3   OH228078   3.364   1.136  16.645  0.2069  0.2605  0.1906
 2196TIP3    H128079   3.339   1.202  16.580  0.7159  1.3666  1.0962
 2196TIP3    H228080   3.287   1.127  16.701  0.4845  0.8587  0.6820
 2197TIP3   OH228081   1.566   1.335   3.718  0.7574 -0.1941 -0.1869
 2197TIP3    H128082   1.545   1.304   3.630  0.2642  1.8019 -0.8293
 2197TIP3    H228083   1.492   1.391   3.742  1.5374  0.4044  0.9239
 2198TIP3   OH228084   4.613   5.602  14.160 -0.1523 -0.2972 -0.2187
 2198TIP3    H128085   4.630   5.696  14.157  1.2344 -0.5202  0.0704
 2198TIP3    H228086   4.573   5.588  14.246  0.8435 -0.1427  0.2792
 2199TIP3   OH228087   0.460   3.421   4.881  0.6241  0.1476 -0.4439
 2199TIP3    H128088   0.510   3.485   4.831  0.5582  0.3100 -0.3028
 2199TIP3    H228089   0.514   3.404   4.958  0.6493  0.0204 -0.4889
 2200TIP3   OH228090   1.922   2.537   5.633  0.5325  0.3639  0.5197
 2200TIP3    H128091   1.894   2.559   5.722 -0.9202 -0.5608  0.3318
 2200TIP3    H228092   1.890   2.448   5.619 -1.2993  1.2599 -1.7124
 2201TIP3   OH228093   1.654   6.014  13.013 -0.5671  0.1635  0.3834
 2201TIP3    H128094   1.658   6.067  12.933  1.1218  0.0943  0.3921
 2201TIP3    H228095   1.682   6.073  13.083 -0.9598 -0.0898  0.7611
 2202TIP3   OH228096   0.747   5.047  15.864 -0.2173 -0.9518  0.6307
 2202TIP3    H128097   0.658   5.076  15.842 -0.0326  0.4797  1.6357
 2202TIP3    H228098   0.760   5.077  15.954  1.6615 -0.1661  0.1452
 2203TIP3   OH228099   1.114   4.212  17.171  0.4043 -0.1900 -0.8367
 2203TIP3    H128100   1.186   4.275  17.171  0.6365 -0.3462  2.2666
 2203TIP3    H228101   1.086   4.207  17.262 -2.2804 -1.6073 -1.6434
 2204TIP3   OH228102   2.276   5.060   5.521 -0.1440 -0.4326  0.1947
 2204TIP3    H128103   2.328   5.044   5.600  0.0820  0.5342  0.2650
 2204TIP3    H228104   2.185   5.053   5.551 -0.0562 -1.1149  0.3038
 2205TIP3   OH228105   6.014   1.426  15.224  0.4148 -0.3026 -0.1755
 2205TIP3    H128106   6.106   1.406  15.203  0.1837  0.8586 -2.6605
 2205TIP3    H228107   6.017   1.511  15.266  0.3827  0.9009 -2.4507
 2206TIP3   OH228108   2.172   0.502  12.620 -0.2011  0.1098  0.2699
 2206TIP3    H128109   2.143   0.414  12.597 -0.9181  0.1116  1.1222
 2206TIP3    H228110   2.174   0.503  12.716  2.1766  0.2715  0.2766
 2207TIP3   OH228111   3.355   4.079   3.239 -0.3576 -0.0502 -0.5501
 2207TIP3    H128112   3.442   4.111   3.217 -0.3462 -0.5255 -1.2310
 2207TIP3    H228113   3.298   4.114   3.170 -0.2036 -2.1625 -1.8273
 2208TIP3   OH228114   2.414   2.577   5.770  0.0922 -0.2677  0.1079
 2208TIP3    H128115   2.435   2.671   5.775 -1.9019  0.2764 -0.6229
 2208TIP3    H228116   2.341   2.566   5.831 -0.3804 -1.1241 -0.5909
 2209TIP3   OH228117   4.456   1.998  16.082 -0.3053  0.2894 -0.0556
 2209TIP3    H128118   4.419   1.961  16.002  2.1503 -1.5126 -0.4733
 2209TIP3    H228119   4.408   1.955  16.153  0.0707 -1.0340 -0.5736
 2210TIP3   OH228120   2.372   4.887  14.766 -0.1724 -0.0032  0.0440
 2210TIP3    H128121   2.309   4.951  14.798 -0.9385 -0.6438 -0.1398
 2210TIP3    H228122   2.323   4.836  14.701 -0.1647 -1.9451  1.4891
 2211TIP3   OH228123   6.663   3.176   6.578  0.1892  0.0530 -0.4021
 2211TIP3    H128124   6.741   3.177   6.523 -0.5815  2.2844 -1.5745
 2211TIP3    H228125   6.605   3.242   6.540 -2.0854 -1.1544  0.7323
 2212TIP3   OH228126   0.938   3.349   1.226 -0.5545  0.7156  0.3560
 2212TIP3    H128127   0.990   3.298   1.163 -0.8598  0.0653  0.6238
 2212TIP3    H228128   0.962   3.312   1.311 -1.0423  0.7864  0.5221
 2213TIP3   OH228129   1.649   2.830  16.605 -0.3890 -0.0105 -0.1563
 2213TIP3    H128130   1.577   2.876  16.562 -1.0289  1.0336  1.9099
 2213TIP3    H228131   1.724   2.841  16.546 -1.4224  0.6144 -1.3865
 2214TIP3   OH228132   0.311   5.686  12.342  0.1681 -0.0970 -0.3422
 2214TIP3    H128133   0.400   5.683  12.306  1.5707  1.1239  2.6804
 2214TIP3    H228134   0.275   5.599  12.324  2.5984 -1.2026 -0.2536
 2215TIP3   OH228135   5.148   6.386   7.039 -0.5667 -0.4411 -0.1024
 2215TIP3    H128136   5.058   6.392   7.007 -0.8028 -2.7034 -0.0315
 2215TIP3    H228137   5.202   6.399   6.962 -0.9230  0.9665 -0.1394
 2216TIP3   OH228138   6.511   4.004   4.660 -0.0579  0.2095 -0.5606
 2216TIP3    H128139   6.591   4.022   4.709 -0.8188  1.4506  0.2983
 2216TIP3    H228140   6.465   3.938   4.712 -0.4507  0.8758 -0.0442
 2217TIP3   OH228141   3.855   5.640   1.846 -0.0031  0.0455 -0.1800
 2217TIP3    H128142   3.910   5.594   1.784 -1.9554 -0.1606 -1.8659
 2217TIP3    H228143   3.860   5.588   1.927  0.3992 -1.2647 -1.0266
 2218TIP3   OH228144   5.057   6.526  15.045 -0.0139  0.0060 -0.6186
 2218TIP3    H128145   4.987   6.518  14.979  0.1141 -0.4281 -0.7048
 2218TIP3    H228146   5.113   6.451  15.029 -0.6060 -0.7570  0.7365
 2219TIP3   OH228147   3.087   1.380  13.056  0.2073  0.3589  0.2710
 2219TIP3    H128148   3.144   1.430  13.114  0.7571 -1.1241  1.0865
 2219TIP3    H228149   3.036   1.324  13.115 -2.3537  1.8344 -0.4135
 2220TIP3   OH228150   6.145   5.773   4.655 -0.5792 -0.6918 -0.5165
 2220TIP3    H128151   6.099   5.689   4.655 -2.0915  0.0784  0.3743
 2220TIP3    H228152   6.093   5.828   4.596 -0.4085 -0.0088 -0.0491
 2221TIP3   OH228153   6.096   0.023  11.770 -0.6948 -0.2833 -0.2234
 2221TIP3    H128154   6.039  -0.050  11.793 -0.4308 -0.7502 -0.9920
 2221TIP3    H228155   6.123   0.004  11.680  1.8352 -0.8420  0.5658
 2222TIP3   OH228156   2.748   1.234   5.702 -0.2538  0.1098  0.5427
 2222TIP3    H128157   2.716   1.291   5.772 -1.5327  0.3601 -0.2137
 2222TIP3    H228158   2.783   1.294   5.637 -1.8833  0.1165 -0.3972
 2223TIP3   OH228159   1.077   5.969  14.746 -0.3809  0.1483 -0.3951
 2223TIP3    H128160   1.090   5.992  14.838 -1.2688 -1.9525  0.3292
 2223TIP3    H228161   0.982   5.962  14.737 -0.2279 -2.8530 -0.5267
 2224TIP3   OH228162   3.531   5.411   2.662 -0.1765  0.0661  0.4851
 2224TIP3    H128163   3.587   5.365   2.724 -0.0548 -0.6633 -0.1572
 2224TIP3    H228164   3.519   5.350   2.590 -0.9795  0.5969  0.1522
 2225TIP3   OH228165   0.243   6.611  14.749  0.0200  0.0329  0.0437
 2225TIP3    H128166   0.252   6.535  14.692  2.6905  0.9444 -0.9310
 2225TIP3    H228167   0.188   6.672  14.701  0.6468  0.0129 -0.7190
 2226TIP3   OH228168   2.829   4.048  13.273  0.8387  0.4529  0.4906
 2226TIP3    H128169   2.739   4.013  13.271  0.5119  1.1863  1.4238
 2226TIP3    H228170   2.849   4.068  13.182  0.2142 -0.1296  0.2180
 2227TIP3   OH228171   0.151   1.042  14.832 -0.0417 -0.9393  0.5866
 2227TIP3    H128172   0.071   1.094  14.832  0.0141 -0.8442  0.9267
 2227TIP3    H228173   0.218   1.103  14.800  0.2122 -0.4684  1.9075
 2228TIP3   OH228174   4.455   5.967  16.015 -0.7135  0.2676  0.0283
 2228TIP3    H128175   4.468   6.040  16.076 -0.8493 -0.2221  0.6630
 2228TIP3    H228176   4.532   5.912  16.028  0.5832  1.4497 -2.1655
 2229TIP3   OH228177   1.377   4.382  16.394 -0.3115 -0.0346  0.5789
 2229TIP3    H128178   1.325   4.408  16.317 -0.5585  0.7551  1.0054
 2229TIP3    H228179   1.419   4.462  16.423  1.3785 -0.7049  0.1030
 2230TIP3   OH228180   3.697   6.017  15.160  0.2505 -0.0415 -0.1993
 2230TIP3    H128181   3.754   6.060  15.224  0.6557 -1.9482  0.7909
 2230TIP3    H228182   3.653   5.948  15.210 -0.7742 -0.4426 -1.5960
 2231TIP3   OH228183   0.168   1.927   1.657 -0.3162 -0.2231 -0.4708
 2231TIP3    H128184   0.257   1.935   1.691 -0.9816 -0.2503  1.3680
 2231TIP3    H228185   0.146   1.834   1.668 -1.9762  0.4363  2.9768
 2232TIP3   OH228186   4.514   3.068  15.825 -0.0544 -0.2102  0.3210
 2232TIP3    H128187   4.581   3.015  15.782 -0.5280 -1.4655  1.0835
 2232TIP3    H228188   4.431   3.035  15.790 -0.3272  1.5989 -0.9304
 2233TIP3   OH228189   3.253   2.354   6.125 -0.4045 -0.4550 -0.2411
 2233TIP3    H128190   3.216   2.372   6.212 -0.3411 -3.1342  0.4187
 2233TIP3    H228191   3.347   2.350   6.139 -0.5075 -3.1949  0.1349
 2234TIP3   OH228192   3.921   1.369   0.103  0.0857  0.8832 -0.3265
 2234TIP3    H128193   3.978   1.332   0.035  0.4300 -1.2914  1.0351
 2234TIP3    H228194   3.976   1.370   0.182 -1.0499  0.9802  0.4766
 2235TIP3   OH228195   5.883   4.438   3.129  0.2024 -0.6610  0.0429
 2235TIP3    H128196   5.928   4.469   3.208 -0.4488 -1.9424  0.9583
 2235TIP3    H228197   5.818   4.505   3.111  1.9217  0.8678 -0.8844
 2236TIP3   OH228198   3.748   3.022  14.180 -0.4011 -0.0484  0.1753
 2236TIP3    H128199   3.819   2.982  14.231  0.0597  1.2204  0.5668
 2236TIP3    H228200   3.736   2.963  14.106 -0.1850 -1.2350  1.0564
 2237TIP3   OH228201   0.702   5.099  14.050  0.1752  0.4149  0.3038
 2237TIP3    H128202   0.757   5.031  14.011 -1.0952 -0.2817 -0.3315
 2237TIP3    H228203   0.716   5.090  14.145 -0.0751 -0.8365  0.2401
 2238TIP3   OH228204   4.232   1.754  12.503  0.6756  0.0420 -0.0838
 2238TIP3    H128205   4.244   1.688  12.435  1.6362  2.6117 -2.6134
 2238TIP3    H228206   4.138   1.770  12.505  0.5794 -0.4638 -0.4209
 2239TIP3   OH228207   3.564   1.978   6.107  0.8994  0.0196 -0.3319
 2239TIP3    H128208   3.591   2.002   6.019  3.3791 -0.1832  0.3018
 2239TIP3    H228209   3.579   1.883   6.111  0.8634  0.0389  0.3208
 2240TIP3   OH228210   6.057   1.537  16.934 -0.1019 -0.6462  0.6729
 2240TIP3    H128211   5.994   1.501  16.996  0.8396  0.7184  2.5278
 2240TIP3    H228212   6.047   1.632  16.941 -0.6109 -0.4045 -2.0165
 2241TIP3   OH228213   0.582   1.216  11.111 -0.5377 -0.3418  0.0208
 2241TIP3    H128214   0.544   1.254  11.032  0.7162 -1.6829 -1.2877
 2241TIP3    H228215   0.650   1.278  11.137 -0.7850 -0.0143 -0.1110
 2242TIP3   OH228216   3.376   5.446   2.968  0.1389 -0.0842 -0.0813
 2242TIP3    H128217   3.302   5.487   2.923 -0.8347 -1.2250  0.4184
 2242TIP3    H228218   3.396   5.369   2.916  0.6696 -0.0379  0.0530
 2243TIP3   OH228219   2.885   2.490   3.995  0.0767  0.6175 -0.0907
 2243TIP3    H128220   2.823   2.486   4.068  1.6783  0.0229  1.2968
 2243TIP3    H228221   2.971   2.489   4.036  1.0376  0.6489 -1.9889
 2244TIP3   OH228222   3.285   1.075  11.675  0.0054  0.0487  0.1379
 2244TIP3    H128223   3.249   1.098  11.589 -0.1317  0.3014  0.2621
 2244TIP3    H228224   3.377   1.056  11.658 -0.1070 -0.2697 -0.1250
 2245TIP3   OH228225   6.374   0.201  16.960  0.0328  0.6227 -0.3366
 2245TIP3    H128226   6.373   0.276  17.020 -1.0785 -1.1767  2.0403
 2245TIP3    H228227   6.285   0.167  16.963  0.9228 -1.8465  0.1146
 2246TIP3   OH228228   6.361   3.839   2.393  0.4935  0.1041  0.0475
 2246TIP3    H128229   6.440   3.894   2.392 -0.9278  2.2308 -0.7170
 2246TIP3    H228230   6.345   3.822   2.486  1.1250  0.7128  0.2755
 2247TIP3   OH228231   4.964   2.391   6.488  0.1178 -0.1668  0.3627
 2247TIP3    H128232   4.960   2.485   6.504 -0.0687  0.0469 -0.8068
 2247TIP3    H228233   4.947   2.383   6.394  1.0655 -1.3076  0.2794
 2248TIP3   OH228234   4.140   4.405   1.776  0.5994 -0.3389  0.4145
 2248TIP3    H128235   4.181   4.364   1.699 -0.0116 -0.5125  0.1789
 2248TIP3    H228236   4.206   4.468   1.807  1.1411 -0.7838  0.1842
 2249TIP3   OH228237   4.194   6.786  14.573  0.5018 -0.2868 -0.2542
 2249TIP3    H128238   4.099   6.786  14.558 -0.1109 -0.5347  2.8344
 2249TIP3    H228239   4.209   6.711  14.631  2.6760 -0.5186 -1.0375
 2250TIP3   OH228240   6.327   1.346   4.802 -0.2623 -0.0986 -0.0901
 2250TIP3    H128241   6.261   1.277   4.801  0.2277 -0.5952  0.4568
 2250TIP3    H228242   6.331   1.375   4.894  0.8025 -0.6203  0.0534
 2251TIP3   OH228243   5.048   6.549   3.100  0.0553  0.0668  0.8054
 2251TIP3    H128244   5.006   6.612   3.159 -0.8107  0.9690 -0.7090
 2251TIP3    H228245   4.981   6.530   3.034  1.2781 -0.2718 -0.3642
 2252TIP3   OH228246   1.144   0.761   5.194  0.0842  0.1701 -0.1217
 2252TIP3    H128247   1.128   0.791   5.284 -0.2349  3.4492 -1.1378
 2252TIP3    H228248   1.064   0.784   5.146  0.9249  0.1721 -1.5883
 2253TIP3   OH228249   1.000   4.041  11.947 -0.3988 -0.6051  0.0971
 2253TIP3    H128250   0.996   4.136  11.959  0.8654 -0.1944 -2.1444
 2253TIP3    H228251   0.909   4.016  11.932 -0.5278  0.6539 -1.5342
 2254TIP3   OH228252   2.617   5.166   6.266  0.1188 -0.1302 -0.5493
 2254TIP3    H128253   2.535   5.117   6.256 -0.0868  0.2766 -0.8949
 2254TIP3    H228254   2.681   5.100   6.294 -0.4983 -0.3179  0.4987
 2255TIP3   OH228255   3.894   4.662  14.921 -0.7039 -0.0928  0.0988
 2255TIP3    H128256   3.978   4.682  14.878 -0.5708  0.5250  0.6391
 2255TIP3    H228257   3.905   4.572  14.952  0.4351  0.5484  1.7032
 2256TIP3   OH228258   5.321   6.377  13.216 -0.5695  0.5221  0.4591
 2256TIP3    H128259   5.411   6.366  13.185 -0.3550  3.0322 -0.0321
 2256TIP3    H228260   5.329   6.394  13.309 -0.5491  0.6015  0.4429
 2257TIP3   OH228261   5.260   5.935   1.524  0.3943  0.2607  0.3002
 2257TIP3    H128262   5.310   5.858   1.551 -0.8928 -0.4134  0.8369
 2257TIP3    H228263   5.302   5.962   1.442  0.4305 -1.4463 -0.2944
 2258TIP3   OH228264   5.576   0.662  11.685  0.0877 -0.2999 -0.5485
 2258TIP3    H128265   5.559   0.650  11.778 -3.6721 -0.4850 -1.1364
 2258TIP3    H228266   5.588   0.757  11.675  0.2528 -0.2500  0.0530
 2259TIP3   OH228267   2.762   0.554   3.695  0.1146  0.1571 -0.3725
 2259TIP3    H128268   2.751   0.559   3.790 -1.4880 -1.4709 -0.4105
 2259TIP3    H228269   2.689   0.605   3.659  0.2246  0.0681 -0.7299
 2260TIP3   OH228270   4.882   3.909  13.621 -0.4529 -0.0646 -0.3946
 2260TIP3    H128271   4.786   3.906  13.630 -0.7720  1.7742 -2.3860
 2260TIP3    H228272   4.907   3.989  13.668 -0.2264  0.8011 -1.9428
 2261TIP3   OH228273   2.608   6.368   4.809  0.5175 -0.0079  0.2584
 2261TIP3    H128274   2.610   6.445   4.866  0.7512 -0.2785  0.6198
 2261TIP3    H228275   2.699   6.349   4.790  0.4206  0.7399 -1.1316
 2262TIP3   OH228276   6.622   0.851  14.429 -0.6922 -0.2415  0.3976
 2262TIP3    H128277   6.533   0.828  14.402 -1.2856 -1.5515  3.0731
 2262TIP3    H228278   6.673   0.848  14.349 -2.9364  0.0092 -1.1449
 2263TIP3   OH228279   3.197   2.867  11.852  0.0876 -0.1307 -0.2895
 2263TIP3    H128280   3.119   2.921  11.836  0.7289  0.9298  0.0594
 2263TIP3    H228281   3.231   2.846  11.765 -0.9616 -1.1972 -0.4697
 2264TIP3   OH228282   3.901   6.636   4.025 -0.4428  0.3687 -0.5148
 2264TIP3    H128283   3.812   6.626   3.989 -0.8552 -0.2915  0.6434
 2264TIP3    H228284   3.889   6.690   4.103 -0.2101 -1.6298  0.9809
 2265TIP3   OH228285   6.605   3.385  10.730  0.1175 -0.5736  0.3649
 2265TIP3    H128286   6.566   3.461  10.687  0.6785  0.4618  1.5895
 2265TIP3    H228287   6.530   3.329  10.752 -0.5341  0.5086  1.0445
 2266TIP3   OH228288   4.954   0.944   3.852  0.0969  0.4193 -0.1336
 2266TIP3    H128289   4.973   1.015   3.792 -1.6946  0.3890 -0.7808
 2266TIP3    H228290   5.004   0.870   3.819  1.9245  1.3024  0.5076
 2267TIP3   OH228291   5.074   3.001   4.864 -0.3122  0.0708 -0.0769
 2267TIP3    H128292   5.136   3.023   4.934  0.9260  1.4970 -1.5325
 2267TIP3    H228293   5.124   3.015   4.784 -2.6080  1.6165 -1.3358
 2268TIP3   OH228294   5.343   0.855   3.034 -0.3673  0.3259 -0.0512
 2268TIP3    H128295   5.307   0.797   2.967  1.8815 -2.7428  1.2191
 2268TIP3    H228296   5.437   0.843   3.028  0.3888  4.6898 -0.2927
 2269TIP3   OH228297   4.177   5.981  16.102 -0.4871  0.7710  0.3095
 2269TIP3    H128298   4.182   5.912  16.168 -1.0035  0.7631  0.3459
 2269TIP3    H228299   4.267   5.993  16.073 -0.2773  0.6907  0.9270
 2270TIP3   OH228300   6.529   0.605   2.046 -0.5756  0.3260 -0.7272
 2270TIP3    H128301   6.450   0.648   2.078  0.3227  1.4384  0.0892
 2270TIP3    H228302   6.588   0.605   2.121  0.5549  0.4340 -1.5955
 2271TIP3   OH228303   1.605   2.987  16.963 -0.3012 -0.2830 -0.8519
 2271TIP3    H128304   1.526   2.963  16.915 -0.8002  0.0634 -0.2184
 2271TIP3    H228305   1.585   2.966  17.055  0.1435  0.2834 -0.6161
 2272TIP3   OH228306   3.206   3.882  15.530 -0.0486 -0.4661 -0.3372
 2272TIP3    H128307   3.244   3.925  15.454 -2.8381  3.6201  0.2504
 2272TIP3    H228308   3.154   3.811  15.493 -0.0692  0.4148 -2.1244
 2273TIP3   OH228309   5.447   6.740   0.489 -0.0514  0.9451 -0.0261
 2273TIP3    H128310   5.357   6.729   0.519  0.8804  0.0544  2.7706
 2273TIP3    H228311   5.457   6.675   0.420 -1.2569  0.2825  0.3869
 2274TIP3   OH228312   0.160   0.524   1.747  0.0159  0.1224  0.4417
 2274TIP3    H128313   0.065   0.514   1.746  0.0243 -0.2442 -1.2994
 2274TIP3    H228314   0.178   0.586   1.676  1.2414 -2.4196 -1.6686
 2275TIP3   OH228315   3.129   4.716   6.231  0.0842  0.1928 -0.2818
 2275TIP3    H128316   3.125   4.621   6.219  0.4527  0.4021 -2.5538
 2275TIP3    H228317   3.185   4.728   6.308 -1.0486 -1.4293  0.8530
 2276TIP3   OH228318   1.086   3.057   2.736 -0.2504  0.4691  0.1658
 2276TIP3    H128319   1.174   3.073   2.704 -1.0118 -1.7493 -3.6201
 2276TIP3    H228320   1.089   2.969   2.772 -1.2704 -0.4986 -1.9601
 2277TIP3   OH228321   3.704   0.552   2.519  0.2771 -0.1594  0.2628
 2277TIP3    H128322   3.761   0.600   2.459 -0.0769 -0.6921 -0.5020
 2277TIP3    H228323   3.699   0.609   2.596  1.6589 -0.0022  0.2678
 2278TIP3   OH228324   6.587   0.324  11.431 -0.0482  0.2462 -0.1911
 2278TIP3    H128325   6.667   0.304  11.382 -0.3609  2.0119 -1.4973
 2278TIP3    H228326   6.521   0.265  11.394  0.2447 -0.0348 -0.2745
 2279TIP3   OH228327   4.608   5.412   4.842 -0.2077  0.3580 -0.5690
 2279TIP3    H128328   4.561   5.495   4.833 -0.0196  0.3684 -1.5379
 2279TIP3    H228329   4.559   5.350   4.789 -0.7650 -0.3527  0.7271
 2280TIP3   OH228330   0.843   6.633   4.059 -0.6171  0.3730  0.2102
 2280TIP3    H128331   0.921   6.652   4.007 -0.2252  0.8606  0.9490
 2280TIP3    H228332   0.824   6.541   4.041  0.3231  0.1543  0.2535
 2281TIP3   OH228333   3.346   0.509  13.209  0.2284 -0.0454  0.1489
 2281TIP3    H128334   3.417   0.447  13.191 -0.5660 -1.3216  1.2365
 2281TIP3    H228335   3.288   0.502  13.134  2.1800  2.5310 -1.7910
 2282TIP3   OH228336   5.019   4.729   2.773 -0.3891 -0.2608  0.3415
 2282TIP3    H128337   4.997   4.812   2.816  0.8895  0.1819  0.1966
 2282TIP3    H228338   4.978   4.736   2.687 -0.9681 -0.1264  0.6249
 2283TIP3   OH228339   2.582   5.385   5.247  0.0558  0.2653  0.1879
 2283TIP3    H128340   2.527   5.318   5.288  0.2299  0.8459  1.4179
 2283TIP3    H228341   2.521   5.450   5.214 -0.1677 -0.8502 -1.7607
 2284TIP3   OH228342   4.457   0.190  14.058  0.5171 -0.1695 -0.4697
 2284TIP3    H128343   4.387   0.178  14.122  0.4094 -1.4853 -0.7976
 2284TIP3    H228344   4.510   0.261  14.093 -0.2401 -0.0375  0.4465
 2285TIP3   OH228345   2.741   4.120  12.895 -0.3256  0.4434  0.7515
 2285TIP3    H128346   2.678   4.077  12.952 -0.3920  1.1210  1.1920
 2285TIP3    H228347   2.716   4.092  12.807 -0.4628 -0.2871  1.0167
 2286TIP3   OH228348   1.927   1.051  12.066  0.4516 -0.0003 -0.2842
 2286TIP3    H128349   1.900   1.002  11.988 -0.1583  1.0002 -0.7160
 2286TIP3    H228350   1.850   1.101  12.092  0.8387  0.1729  0.5952
 2287TIP3   OH228351   2.118   3.597   5.656 -0.8702  0.3223 -0.1408
 2287TIP3    H128352   2.185   3.665   5.651  0.1628 -0.6639 -0.3607
 2287TIP3    H228353   2.039   3.638   5.621 -0.3190  1.4328 -0.1382
 2288TIP3   OH228354   4.749   2.621   3.318  0.5472  0.0482 -0.0151
 2288TIP3    H128355   4.712   2.535   3.341 -0.3925  0.4168 -0.0881
 2288TIP3    H228356   4.707   2.643   3.235  0.3086  0.8525  0.3079
 2289TIP3   OH228357   5.670   0.598   6.823 -0.4062 -0.3915  0.2171
 2289TIP3    H128358   5.699   0.688   6.806 -0.1701  0.1249  2.9472
 2289TIP3    H228359   5.611   0.578   6.750 -1.9501  2.6851  0.4552
 2290TIP3   OH228360   5.197   3.770  14.775 -0.2739 -0.0415 -0.8422
 2290TIP3    H128361   5.220   3.684  14.808 -1.9187  0.2625  1.3204
 2290TIP3    H228362   5.271   3.795  14.718  2.5393 -0.9048  2.1403
 2291TIP3   OH228363   2.114   0.112   0.069 -0.0952 -0.3041  0.0261
 2291TIP3    H128364   2.121   0.056   0.146 -0.0975 -0.1613  0.1308
 2291TIP3    H228365   2.104   0.051  -0.005 -1.8278 -0.4310  0.3212
 2292TIP3   OH228366   4.413   1.665   3.009 -0.2132  0.1034  0.5911
 2292TIP3    H128367   4.462   1.660   3.091  0.2823  2.0872  0.4638
 2292TIP3    H228368   4.478   1.649   2.941  0.0631  1.6746  0.4669
 2293TIP3   OH228369   0.968   4.564   2.795 -0.0671 -0.1964 -0.1200
 2293TIP3    H128370   0.895   4.625   2.803 -0.0673 -0.0924 -0.8597
 2293TIP3    H228371   0.965   4.534   2.704  0.5577 -0.5081 -0.0463
 2294TIP3   OH228372   5.553   6.692   2.425 -0.2772 -0.1128  0.4793
 2294TIP3    H128373   5.615   6.681   2.497 -0.4708 -1.0125  0.5255
 2294TIP3    H228374   5.565   6.614   2.371 -0.7520  0.1297  0.0120
 2295TIP3   OH228375   2.350   3.958  17.112 -0.3625  0.3862  0.4903
 2295TIP3    H128376   2.430   3.978  17.161  1.8047  0.3121 -2.6542
 2295TIP3    H228377   2.329   4.040  17.068  0.3083 -0.5010 -1.6230
 2296TIP3   OH228378   0.468   0.013  13.422 -0.0521 -0.3112  0.4823
 2296TIP3    H128379   0.489   0.006  13.328  1.1956  1.3343  0.5799
 2296TIP3    H228380   0.554   0.012  13.465 -0.6106 -0.8901  1.6117
 2297TIP3   OH228381   1.864   3.059  12.361  0.4454  0.0500  0.2972
 2297TIP3    H128382   1.912   3.121  12.417  1.6344  0.1137 -0.7514
 2297TIP3    H228383   1.834   2.991  12.421  2.7965 -0.5590  0.8957
 2298TIP3   OH228384   1.059   3.906   3.195 -0.0299  0.3038 -0.2490
 2298TIP3    H128385   1.057   3.833   3.257 -0.8257  0.4702 -0.0626
 2298TIP3    H228386   1.094   3.980   3.246  0.1529  0.2214 -0.2537
 2299TIP3   OH228387   0.594   2.881   4.627 -0.0395  0.0693  0.5685
 2299TIP3    H128388   0.576   2.947   4.694 -2.5049 -0.6331  0.6997
 2299TIP3    H228389   0.567   2.922   4.545 -3.9960 -1.3830  0.8911
 2300TIP3   OH228390   2.740   2.239  13.168  0.1585  1.0158  0.0572
 2300TIP3    H128391   2.705   2.154  13.196 -1.2067  1.6122  0.2116
 2300TIP3    H228392   2.815   2.254  13.226  1.2514 -0.6637 -0.8132
 2301TIP3   OH228393   3.118   2.445   5.642 -0.0982  0.1239  0.2328
 2301TIP3    H128394   3.161   2.457   5.727 -0.8650 -1.4717  0.8822
 2301TIP3    H228395   3.025   2.441   5.663 -0.3003 -0.2822 -0.6936
 2302TIP3   OH228396   4.213   6.428  16.799 -0.0249  0.2343 -0.0202
 2302TIP3    H128397   4.303   6.446  16.828 -0.2405 -1.7573  2.1927
 2302TIP3    H228398   4.169   6.397  16.878 -1.5732 -2.6418 -1.8691
 2303TIP3   OH228399   2.219   0.743   4.143 -0.0968  0.0297 -0.3255
 2303TIP3    H128400   2.196   0.685   4.071 -0.8090 -0.4412  0.2648
 2303TIP3    H228401   2.198   0.830   4.112 -1.8669 -0.3018 -0.1426
 2304TIP3   OH228402   0.700   5.271   2.358  0.2639 -0.3176 -0.0514
 2304TIP3    H128403   0.609   5.272   2.329  0.1906  1.0243  0.1581
 2304TIP3    H228404   0.710   5.351   2.410  1.6382 -0.2897 -0.3137
 2305TIP3   OH228405   3.782   5.477  17.074 -1.1591  0.4944  0.2275
 2305TIP3    H128406   3.713   5.415  17.051 -0.4058 -0.0830 -0.5714
 2305TIP3    H228407   3.835   5.430  17.139 -2.5029  1.6100  2.2109
 2306TIP3   OH228408   4.575   6.256   2.391 -0.2038 -0.3483  0.5081
 2306TIP3    H128409   4.531   6.204   2.323 -0.1128 -0.6981  0.7133
 2306TIP3    H228410   4.664   6.222   2.393  0.1213  0.4482  0.0056
 2307TIP3   OH228411   4.699   3.405  15.379 -0.0076 -0.4369 -0.0937
 2307TIP3    H128412   4.791   3.415  15.402  0.1579  0.5938 -1.1521
 2307TIP3    H228413   4.698   3.328  15.321  0.5455  0.7570 -1.7911
 2308TIP3   OH228414   1.784   0.458  16.495  0.2145  0.3065 -0.6271
 2308TIP3    H128415   1.779   0.363  16.484 -0.5711  0.3062 -0.2934
 2308TIP3    H228416   1.693   0.487  16.496  0.4598  1.1495 -1.3907
 2309TIP3   OH228417   1.823   0.129  10.788  0.0010 -0.3129 -0.1393
 2309TIP3    H128418   1.767   0.195  10.747  0.6631 -0.4427 -1.2929
 2309TIP3    H228419   1.811   0.051  10.734  1.8813 -0.1217 -0.9019
 2310TIP3   OH228420   5.439   4.542   3.870 -0.8042  0.4258 -0.5611
 2310TIP3    H128421   5.388   4.470   3.905 -0.0162  0.0264 -0.1999
 2310TIP3    H228422   5.377   4.615   3.863 -1.2526  0.1653  0.5484
 2311TIP3   OH228423   4.277   0.215   5.452 -0.0803 -0.0308  0.6222
 2311TIP3    H128424   4.304   0.157   5.524  2.2664 -2.0699 -1.6734
 2311TIP3    H228425   4.217   0.162   5.400  0.8978  0.1111 -0.6918
 2312TIP3   OH228426   1.530   2.222  12.497 -0.0099  0.2798 -0.4491
 2312TIP3    H128427   1.437   2.239  12.481 -0.2869 -1.6264 -1.2178
 2312TIP3    H228428   1.575   2.261  12.422 -0.0572  1.9618  0.3492
 2313TIP3   OH228429   4.218   2.704  13.771  0.4173  0.8215 -0.3922
 2313TIP3    H128430   4.250   2.793  13.782  0.5756  0.6161  1.0207
 2313TIP3    H228431   4.291   2.657  13.730  0.4645  1.2415 -0.8051
 2314TIP3   OH228432   6.337   0.244  14.093 -0.2373 -0.1910  0.4132
 2314TIP3    H128433   6.368   0.162  14.131  0.0371  0.0271  0.6649
 2314TIP3    H228434   6.296   0.290  14.167 -0.1680  0.0075  0.3280
 2315TIP3   OH228435   2.452   4.463   4.203  0.3303  0.0348  0.0383
 2315TIP3    H128436   2.390   4.491   4.271  0.4314  0.1976  0.0634
 2315TIP3    H228437   2.496   4.387   4.241  1.4509  1.0173  0.7594
 2316TIP3   OH228438   3.190   2.903  13.124 -0.0018  0.4276  0.2574
 2316TIP3    H128439   3.255   2.899  13.194  1.6020 -0.4339 -1.1965
 2316TIP3    H228440   3.240   2.884  13.044 -1.9145  0.4982 -1.0131
 2317TIP3   OH228441   5.111   0.997  11.863  0.2122 -0.4957 -0.4401
 2317TIP3    H128442   5.171   0.958  11.927 -0.6918 -0.9493  0.1569
 2317TIP3    H228443   5.137   0.959  11.779  0.1262 -1.4616 -0.0416
 2318TIP3   OH228444   1.098   1.323  14.037  0.3176 -0.0011  0.1369
 2318TIP3    H128445   1.176   1.274  14.064  1.2190  0.3371 -1.7200
 2318TIP3    H228446   1.122   1.363  13.953 -1.1086  1.8998  0.5485
 2319TIP3   OH228447   3.527   3.132  11.446  0.0929  0.2195 -0.8415
 2319TIP3    H128448   3.616   3.159  11.469  0.5262 -1.2973 -0.6332
 2319TIP3    H228449   3.523   3.040  11.471 -1.5007  0.2311 -0.9774
 2320TIP3   OH228450   2.911   5.220  17.144 -0.4901 -0.8621 -0.2261
 2320TIP3    H128451   2.978   5.153  17.130  0.6967 -0.0156  1.0851
 2320TIP3    H228452   2.945   5.298  17.100 -0.0608 -0.1462  1.2733
 2321TIP3   OH228453   0.399   0.138  13.078 -0.4982  0.0488  0.1814
 2321TIP3    H128454   0.311   0.101  13.074 -0.0302 -1.0449 -0.9919
 2321TIP3    H228455   0.386   0.231  13.097 -1.9609  0.1036 -0.9155
 2322TIP3   OH228456   5.679   5.293   3.144  0.2290 -0.2579  0.4693
 2322TIP3    H128457   5.717   5.210   3.115  0.6757  0.8657 -2.5516
 2322TIP3    H228458   5.754   5.353   3.147 -0.3028  0.3869  1.1458
 2323TIP3   OH228459   4.115   0.215   3.398 -0.6238 -0.1195 -0.0184
 2323TIP3    H128460   4.095   0.121   3.399 -1.5621  0.0247 -1.6794
 2323TIP3    H228461   4.162   0.229   3.316 -1.0636  0.9732 -0.0997
 2324TIP3   OH228462   1.330   4.661  11.205 -0.3805 -0.1467  0.1494
 2324TIP3    H128463   1.305   4.595  11.270  1.8037  0.7923  2.1285
 2324TIP3    H228464   1.335   4.613  11.122  1.0220 -2.4915  1.4902
 2325TIP3   OH228465   3.076   2.513  12.933  0.1216  0.9836 -0.7366
 2325TIP3    H128466   3.116   2.598  12.916  0.7712  0.9523  0.4837
 2325TIP3    H228467   2.982   2.528  12.921 -0.0626  2.5478  1.7120
 2326TIP3   OH228468   2.675   6.715  16.811 -0.7320  0.2279  0.0870
 2326TIP3    H128469   2.582   6.702  16.830 -0.4708 -0.3183  1.0528
 2326TIP3    H228470   2.709   6.762  16.887  0.1307 -1.1196  0.5673
 2327TIP3   OH228471   5.409   5.985   6.033  0.0450 -0.7573  0.3789
 2327TIP3    H128472   5.432   5.953   5.945  0.4761  0.0849  0.1801
 2327TIP3    H228473   5.479   5.951   6.089 -0.0835 -1.0690  0.3517
 2328TIP3   OH228474   4.665   4.888  17.174  0.6784  0.2669 -0.2737
 2328TIP3    H128475   4.604   4.962  17.168 -0.1305 -0.4746 -1.5551
 2328TIP3    H228476   4.619   4.823  17.227  1.2322  0.4977  0.5185
 2329TIP3   OH228477   6.688   2.683  13.847  0.0766  0.3920  0.3624
 2329TIP3    H128478   6.739   2.763  13.858 -0.5690  0.6276  1.8531
 2329TIP3    H228479   6.636   2.676  13.927 -0.0780 -1.3859  0.1519
 2330TIP3   OH228480   5.887   0.101  16.324 -0.4295  0.1312  0.4364
 2330TIP3    H128481   5.945   0.146  16.263 -0.2614  0.5783  0.9142
 2330TIP3    H228482   5.922   0.124  16.411  0.0941 -1.4815  0.6847
 2331TIP3   OH228483   1.764   6.314   3.235  0.2327  0.2926  0.1973
 2331TIP3    H128484   1.718   6.262   3.169 -0.4898  0.9384  0.1705
 2331TIP3    H228485   1.812   6.250   3.287  1.7371 -0.1320 -1.6204
 2332TIP3   OH228486   5.470   6.434  13.967  0.0452  0.1572  0.0722
 2332TIP3    H128487   5.391   6.381  13.957 -0.3429  0.8107 -0.4461
 2332TIP3    H228488   5.488   6.467  13.879  2.1919 -1.7602 -0.2926
 2333TIP3   OH228489   1.087   1.919  11.107  0.6324  0.2396  0.1277
 2333TIP3    H128490   1.012   1.860  11.095 -1.4999  2.3074  2.0806
 2333TIP3    H228491   1.063   1.998  11.058  1.9570  0.6412  0.0851
 2334TIP3   OH228492   5.260   6.483   1.332  0.5164 -0.1543 -0.4069
 2334TIP3    H128493   5.267   6.549   1.263 -2.2456  0.9491  0.2624
 2334TIP3    H228494   5.228   6.530   1.408  0.8145 -1.8673  0.8456
 2335TIP3   OH228495   4.775   0.346  15.964  0.5422 -0.0323  0.0746
 2335TIP3    H128496   4.861   0.344  15.922  0.5508  0.1920  0.0806
 2335TIP3    H228497   4.761   0.256  15.995  0.0477 -0.4964 -1.3905
 2336TIP3   OH228498   1.738   4.281  10.841 -0.0077  0.3271  0.2393
 2336TIP3    H128499   1.706   4.193  10.860  0.9095  0.0015  0.3312
 2336TIP3    H228500   1.818   4.290  10.894  0.7502  0.6378 -0.9184
 2337TIP3   OH228501   1.140   4.385   5.714 -0.0360  0.0526 -0.5280
 2337TIP3    H128502   1.093   4.374   5.797  1.2646  0.7817  0.3395
 2337TIP3    H228503   1.206   4.451   5.733  1.4666 -1.0621 -1.6501
 2338TIP3   OH228504   5.455   3.985  13.058  0.5630  0.0743 -0.0405
 2338TIP3    H128505   5.506   3.995  12.977  0.5879  0.4204  0.0179
 2338TIP3    H228506   5.440   4.074  13.088 -0.3895  0.0031 -0.2545
 2339TIP3   OH228507   0.185   1.222   4.146 -0.1298  0.1117  0.6516
 2339TIP3    H128508   0.130   1.148   4.171  1.7425 -1.1141  1.2603
 2339TIP3    H228509   0.268   1.208   4.190  0.3570  2.5078  0.6562
 2340TIP3   OH228510   5.057   3.196  15.147 -0.5207 -0.0303  0.1542
 2340TIP3    H128511   5.126   3.243  15.194 -1.4596  0.1472  1.3782
 2340TIP3    H228512   5.102   3.158  15.071  0.7578  0.7469  0.4978
 2341TIP3   OH228513   1.166   2.995   5.089 -0.7078 -0.0867 -0.3129
 2341TIP3    H128514   1.092   2.934   5.094 -1.0996  0.4317  0.5252
 2341TIP3    H228515   1.238   2.943   5.053 -1.4846 -0.5960 -1.1705
 2342TIP3   OH228516   6.102   2.816  16.615 -0.0478 -0.1455 -0.1269
 2342TIP3    H128517   6.036   2.820  16.685  0.9547  0.8146  0.8194
 2342TIP3    H228518   6.054   2.784  16.539 -1.4736 -0.0396  0.6736
 2343TIP3   OH228519   2.170   4.471   4.867 -0.0652  0.5983  0.3315
 2343TIP3    H128520   2.189   4.446   4.776 -1.8845  0.4524 -0.0435
 2343TIP3    H228521   2.229   4.544   4.885  0.6841  0.2868 -0.7964
 2344TIP3   OH228522   2.030   2.800  15.913  0.1050  0.4991 -0.0225
 2344TIP3    H128523   2.038   2.767  16.002 -0.4082  0.1706 -0.0930
 2344TIP3    H228524   2.091   2.874  15.909 -0.3682  0.9570  0.8136
 2345TIP3   OH228525   4.834   5.168   3.159 -0.4699  0.2028 -0.2947
 2345TIP3    H128526   4.750   5.123   3.154 -0.5903  0.4596 -0.6804
 2345TIP3    H228527   4.899   5.097   3.168 -0.6895 -0.0244 -0.4745
 2346TIP3   OH228528   1.725   6.120  15.835 -0.6214  0.4640 -0.2770
 2346TIP3    H128529   1.629   6.125  15.837 -0.8205 -2.0272 -0.9764
 2346TIP3    H228530   1.744   6.036  15.795  1.9097  1.2685 -0.9479
 2347TIP3   OH228531   1.084   5.902   0.115 -0.0976  0.2576 -0.1199
 2347TIP3    H128532   1.087   5.928   0.207 -0.5331  1.7066 -0.4895
 2347TIP3    H228533   1.174   5.875   0.095  0.1215  0.4408  0.5864
 2348TIP3   OH228534   6.464   4.104  10.782 -0.7534  0.2187  0.1137
 2348TIP3    H128535   6.370   4.100  10.767 -0.7527  0.7016 -0.0174
 2348TIP3    H228536   6.474   4.157  10.861 -0.5551  0.7938 -0.2905
 2349TIP3   OH228537   6.512   0.391   0.631  0.6154 -0.0522  0.1270
 2349TIP3    H128538   6.536   0.464   0.574 -1.2416 -0.0517 -0.7423
 2349TIP3    H228539   6.416   0.386   0.624  0.7373 -3.5138 -1.1178
 2350TIP3   OH228540   1.021   4.794   5.355 -0.1940  1.0088 -0.1531
 2350TIP3    H128541   1.084   4.742   5.404 -1.1533  0.9763  1.0792
 2350TIP3    H228542   0.945   4.736   5.343  0.1764  0.8448 -2.1228
 2351TIP3   OH228543   0.267   6.647  13.866 -0.6026 -0.5572  0.0937
 2351TIP3    H128544   0.214   6.726  13.871 -0.4987 -0.5356  1.5480
 2351TIP3    H228545   0.350   6.676  13.829  0.2493  0.5533  2.6257
 2352TIP3   OH228546   6.102   3.849   1.041 -0.3390 -0.2554 -0.3475
 2352TIP3    H128547   6.084   3.759   1.067 -0.8226 -0.9444 -2.7770
 2352TIP3    H228548   6.197   3.858   1.053 -0.3064 -1.0336  0.0646
 2353TIP3   OH228549   2.978   0.757   0.658 -0.7125 -0.1631 -0.3562
 2353TIP3    H128550   3.026   0.803   0.589 -0.1436 -0.8768 -0.4471
 2353TIP3    H228551   3.034   0.683   0.682 -0.9408  0.0284  0.8272
 2354TIP3   OH228552   1.598   2.096   2.834 -0.3187  0.0737 -0.6439
 2354TIP3    H128553   1.625   2.010   2.803  0.7889  0.6708 -1.4263
 2354TIP3    H228554   1.627   2.157   2.766 -0.2141  1.1592  0.3205
 2355TIP3   OH228555   3.754   5.898  14.193 -0.0214  0.1762  0.0973
 2355TIP3    H128556   3.724   5.960  14.127  1.0137  0.1286 -0.4352
 2355TIP3    H228557   3.827   5.942  14.237  0.3117 -0.4001  0.1425
 2356TIP3   OH228558   0.635   2.296   0.750  0.3222 -0.1499  0.0683
 2356TIP3    H128559   0.666   2.220   0.700 -0.2318  1.2465 -2.5576
 2356TIP3    H228560   0.700   2.364   0.733 -0.9493  0.9718 -0.4799
 2357TIP3   OH228561   1.539   4.523   3.752 -0.0190 -0.0733 -0.1321
 2357TIP3    H128562   1.559   4.549   3.662 -1.2119  2.3798  0.2146
 2357TIP3    H228563   1.449   4.554   3.767  0.3910  0.2367  2.1223
 2358TIP3   OH228564   1.277   2.972  16.396  0.1479  0.3679  0.4714
 2358TIP3    H128565   1.251   2.986  16.305  0.0154 -0.7705  0.3139
 2358TIP3    H228566   1.353   2.914  16.391 -3.4121 -5.1041  1.0766
 2359TIP3   OH228567   5.321   5.451   4.815 -0.5439 -0.0215 -0.1963
 2359TIP3    H128568   5.327   5.413   4.903  0.4694 -0.3014 -0.3721
 2359TIP3    H228569   5.244   5.410   4.776  0.6573 -2.1670 -0.4851
 2360TIP3   OH228570   6.136   6.351  14.436  0.2671 -0.1294  0.6939
 2360TIP3    H128571   6.058   6.323  14.388 -0.9235  2.7011  0.7432
 2360TIP3    H228572   6.180   6.412  14.376  0.8970  0.4251  1.6971
 2361TIP3   OH228573   2.720   6.373   1.503  0.0027  0.0835 -0.6671
 2361TIP3    H128574   2.630   6.375   1.537 -0.8594 -1.7188 -2.6071
 2361TIP3    H228575   2.732   6.458   1.461 -1.3839 -0.2067 -1.7128
 2362TIP3   OH228576   0.609   4.130   4.747  0.1731  0.6272 -0.1697
 2362TIP3    H128577   0.596   4.221   4.776 -1.1390  0.8859 -1.4407
 2362TIP3    H228578   0.680   4.097   4.802 -0.9423  1.6441  2.0056
 2363TIP3   OH228579   1.388   5.562   5.636  0.0454 -0.2672  0.3471
 2363TIP3    H128580   1.477   5.553   5.669  0.1208 -1.9171 -0.2382
 2363TIP3    H228581   1.367   5.477   5.599 -1.6339  0.2194  0.0929
 2364TIP3   OH228582   1.115   1.588  11.568 -0.0282  0.2426  0.2505
 2364TIP3    H128583   1.060   1.644  11.512  0.0597  0.2712  0.1931
 2364TIP3    H228584   1.053   1.527  11.608  0.0603 -0.6268 -0.8833
 2365TIP3   OH228585   3.894   4.977  11.285 -0.1959  0.1584 -0.0071
 2365TIP3    H128586   3.857   5.065  11.286 -0.5469  0.0856 -2.0379
 2365TIP3    H228587   3.896   4.953  11.192  1.7922 -1.1901  0.3315
 2366TIP3   OH228588   0.532   0.844  13.034  0.1619 -0.2841 -0.8278
 2366TIP3    H128589   0.566   0.838  13.123 -1.8072 -0.4105 -0.0356
 2366TIP3    H228590   0.440   0.822  13.042 -0.7686  2.4906 -2.4009
 2367TIP3   OH228591   5.245   1.729   5.790  0.4276  0.5287  0.6887
 2367TIP3    H128592   5.156   1.755   5.812  0.2839  0.4034  0.2634
 2367TIP3    H228593   5.239   1.696   5.700  0.7136 -0.4306  1.0114
 2368TIP3   OH228594   0.571   6.180   1.108 -0.0057 -0.0982 -0.1980
 2368TIP3    H128595   0.597   6.267   1.139  0.3993 -0.2952  0.0340
 2368TIP3    H228596   0.496   6.157   1.162  0.4227 -0.2502  0.3502
 2369TIP3   OH228597   0.260   4.981  16.037 -1.0267 -0.3519 -0.3684
 2369TIP3    H128598   0.272   4.887  16.051 -0.0400 -0.1263  0.3981
 2369TIP3    H228599   0.271   5.020  16.123  2.6211  0.8207 -1.1796
 2370TIP3   OH228600   3.645   6.431  15.913  0.1851 -0.3538  0.2012
 2370TIP3    H128601   3.690   6.397  15.835  0.1395 -1.0803  0.4815
 2370TIP3    H228602   3.711   6.424  15.983 -0.6756 -2.5835  0.8999
 2371TIP3   OH228603   4.911   5.543  12.330 -0.0092 -0.3354  0.5221
 2371TIP3    H128604   4.948   5.609  12.388  1.0287 -0.0472 -0.4431
 2371TIP3    H228605   4.852   5.592  12.273  0.1777 -0.3661  0.3024
 2372TIP3   OH228606   2.944   5.621  17.123 -0.2405 -0.0874  0.1585
 2372TIP3    H128607   2.954   5.565  17.201  0.0578 -1.9107 -1.1110
 2372TIP3    H228608   2.990   5.702  17.145  0.1971 -0.7242  1.7182
 2373TIP3   OH228609   5.220   1.734  14.204  1.0993  0.4720 -0.2626
 2373TIP3    H128610   5.200   1.795  14.275  1.3861  0.9641 -0.5968
 2373TIP3    H228611   5.302   1.692  14.231  0.9312  0.2720 -0.0582
 2374TIP3   OH228612   4.312   2.279  16.169 -0.0392 -0.2742  0.1174
 2374TIP3    H128613   4.335   2.334  16.094  1.1476 -0.0650  0.6051
 2374TIP3    H228614   4.258   2.209  16.132  2.0920 -1.2671 -1.2958
 2375TIP3   OH228615   2.644   0.440   2.996 -0.4013  0.4721 -0.1572
 2375TIP3    H128616   2.677   0.354   2.971 -0.2989  0.7014 -0.8371
 2375TIP3    H228617   2.685   0.500   2.934 -0.4141  1.0223  0.3574
 2376TIP3   OH228618   3.096   0.697  12.814  0.3210  0.1590 -0.0170
 2376TIP3    H128619   3.131   0.779  12.780  0.0059 -0.5591 -2.3002
 2376TIP3    H228620   3.009   0.719  12.847  0.7287  0.9613  0.5268
 2377TIP3   OH228621   4.885   1.941   2.685 -0.4333 -0.3793  0.3940
 2377TIP3    H128622   4.977   1.943   2.658 -0.6771  0.1764 -0.4191
 2377TIP3    H228623   4.851   1.861   2.646 -0.5543 -0.0460 -0.1931
 2378TIP3   OH228624   4.719   4.505   3.633  0.5701 -0.1284 -0.7283
 2378TIP3    H128625   4.753   4.433   3.579 -0.5192 -0.0991 -1.5051
 2378TIP3    H228626   4.783   4.516   3.703  1.9915 -0.2289 -1.9724
 2379TIP3   OH228627   2.526   4.234  11.367  0.0683 -0.1024  0.2250
 2379TIP3    H128628   2.472   4.292  11.421  0.2382 -0.8020  1.1594
 2379TIP3    H228629   2.466   4.166  11.337  0.4214 -0.9470  1.3599
 2380TIP3   OH228630   5.519   2.092   5.369 -0.6853  0.0350  0.0858
 2380TIP3    H128631   5.516   2.134   5.283  0.2929 -3.5394 -1.8995
 2380TIP3    H228632   5.445   2.128   5.417 -0.9479  2.5456 -2.0263
 2381TIP3   OH228633   3.086   0.738  14.098 -0.2580 -0.0413  0.3824
 2381TIP3    H128634   3.033   0.731  14.018  0.0396  0.0175  0.1781
 2381TIP3    H228635   3.114   0.829  14.101  1.1049 -0.4083 -0.3423
 2382TIP3   OH228636   3.251   1.786  13.043 -0.8796 -0.0672  0.1248
 2382TIP3    H128637   3.302   1.837  12.980 -0.2214 -0.9717 -0.0932
 2382TIP3    H228638   3.302   1.706  13.056 -1.0798  0.0279  1.6918
 2383TIP3   OH228639   5.270   6.777  16.817 -0.1505 -0.0313  0.0983
 2383TIP3    H128640   5.285   6.777  16.912  0.0884  0.0514  0.0610
 2383TIP3    H228641   5.339   6.833  16.782  0.9820 -1.6337 -0.3177
 2384TIP3   OH228642   1.721   2.206  11.521 -0.2691  0.4472 -0.1841
 2384TIP3    H128643   1.771   2.151  11.582  0.2181  0.1452 -0.8407
 2384TIP3    H228644   1.768   2.289  11.519 -0.9006  0.8372  0.6671
 2385TIP3   OH228645   0.113   1.486   3.687  0.0562  0.3165  0.2364
 2385TIP3    H128646   0.080   1.414   3.633 -0.8718  1.2559 -0.4716
 2385TIP3    H228647   0.106   1.453   3.777  0.1242 -0.6601 -0.0945
 2386TIP3   OH228648   6.574   2.093  14.991 -0.0214  0.9618 -0.1056
 2386TIP3    H128649   6.522   2.099  14.911  0.8143  0.5965 -0.6972
 2386TIP3    H228650   6.512   2.111  15.062 -1.7514 -2.5174 -0.4990
 2387TIP3   OH228651   2.462   2.744  16.363  0.1673 -0.0241 -0.2733
 2387TIP3    H128652   2.414   2.796  16.300 -0.3034  1.8088  1.5051
 2387TIP3    H228653   2.395   2.702  16.417  0.5192  0.4620  0.5746
 2388TIP3   OH228654   5.075   5.494   2.043  0.5367 -0.0630  0.2536
 2388TIP3    H128655   5.034   5.554   1.980 -0.4299 -0.4322  0.5127
 2388TIP3    H228656   5.102   5.550   2.116  0.0226  0.1240  0.3062
 2389TIP3   OH228657   3.064   6.702   3.073 -0.2848 -0.0715  0.3972
 2389TIP3    H128658   3.159   6.708   3.064 -0.2105 -1.8015 -0.3464
 2389TIP3    H228659   3.030   6.760   3.005  0.2434  0.2464  0.3982
 2390TIP3   OH228660   5.065   4.631   3.259  0.3555 -0.5940 -0.5583
 2390TIP3    H128661   5.139   4.690   3.248  0.1453 -0.7496 -3.9514
 2390TIP3    H228662   5.105   4.548   3.287  1.2309 -0.1712 -0.5063
 2391TIP3   OH228663   6.561   5.739   0.611  0.5059  0.2519  0.0031
 2391TIP3    H128664   6.502   5.806   0.578 -0.9262 -0.7099  0.5425
 2391TIP3    H228665   6.543   5.661   0.558 -0.9289 -0.9457  2.1041
 2392TIP3   OH228666   2.798   5.007   3.575  0.1101  0.0754  0.1110
 2392TIP3    H128667   2.748   5.064   3.634 -0.4837 -0.3633  0.0397
 2392TIP3    H228668   2.880   4.991   3.622 -1.4326 -2.5557  2.1906
 2393TIP3   OH228669   3.029   4.137   4.807  0.2042 -0.1935  0.6354
 2393TIP3    H128670   3.087   4.144   4.883 -1.0610  0.5931  1.5645
 2393TIP3    H228671   3.016   4.043   4.796  0.7302 -0.3331  1.1398
 2394TIP3   OH228672   1.329   0.768  13.331  0.1224 -0.4154  0.1102
 2394TIP3    H128673   1.320   0.673  13.333  0.7711 -0.5506 -1.7422
 2394TIP3    H228674   1.422   0.784  13.349 -0.1311 -0.0501  1.2342
 2395TIP3   OH228675   3.638   0.289  12.751  0.4338  0.2290 -0.3493
 2395TIP3    H128676   3.714   0.253  12.707  0.3748 -1.3120  0.7507
 2395TIP3    H228677   3.564   0.267  12.694  0.6907  1.0533 -1.0287
 2396TIP3   OH228678   1.515   0.708  11.687 -0.5620 -0.1915 -0.7081
 2396TIP3    H128679   1.551   0.770  11.623 -0.0550  2.0585  1.6280
 2396TIP3    H228680   1.512   0.625  11.639  0.9781  1.0678 -3.2439
 2397TIP3   OH228681   6.459   0.303  14.721  0.3243  0.3265  0.0420
 2397TIP3    H128682   6.364   0.292  14.720  0.5004 -1.6724  0.3752
 2397TIP3    H228683   6.475   0.362  14.795 -0.6198  0.0155  0.5171
 2398TIP3   OH228684   2.111   1.017   6.068 -0.0074  0.3722 -0.7658
 2398TIP3    H128685   2.108   1.097   6.017 -1.5718  0.4309 -0.6218
 2398TIP3    H228686   2.082   0.949   6.007 -0.1964  0.1672 -0.4499
 2399TIP3   OH228687   3.612   2.054  13.736 -0.1973 -0.0795 -0.0134
 2399TIP3    H128688   3.525   2.092  13.724  0.7361  2.0162 -0.5408
 2399TIP3    H228689   3.633   2.015  13.651 -1.1566 -1.8683  0.5278
 2400TIP3   OH228690   2.041   0.794   3.235 -0.3834 -0.4290  0.4059
 2400TIP3    H128691   2.089   0.723   3.277 -1.8275 -1.9204 -0.3618
 2400TIP3    H228692   2.102   0.828   3.169  0.2038 -1.1608  0.5553
 2401TIP3   OH228693   4.828   4.592   4.894 -0.3435 -0.1156  0.2601
 2401TIP3    H128694   4.787   4.678   4.893  0.7543  0.5631  3.2542
 2401TIP3    H228695   4.845   4.574   4.987  2.9066 -1.8589 -0.5238
 2402TIP3   OH228696   2.496   3.709  17.066 -0.8005  0.8335 -0.2324
 2402TIP3    H128697   2.555   3.717  16.991  0.7033  2.7031  1.0500
 2402TIP3    H228698   2.460   3.797  17.078 -1.1188  0.5442  1.1345
 2403TIP3   OH228699   5.920   3.959  16.278 -0.8637  0.0561 -0.2250
 2403TIP3    H128700   5.845   3.987  16.225 -0.7483 -1.2659 -1.1556
 2403TIP3    H228701   5.982   3.923  16.214  1.6185  3.1173  0.2353
 2404TIP3   OH228702   3.186   4.596  15.118 -0.1821  0.4814 -0.3826
 2404TIP3    H128703   3.255   4.532  15.134 -0.2411  0.9137  1.7896
 2404TIP3    H228704   3.216   4.676  15.160  0.0810  2.1266 -3.3909
 2405TIP3   OH228705   1.399   3.910   3.696  0.1823  0.3609  0.7419
 2405TIP3    H128706   1.396   3.891   3.789 -1.2049  1.5546  0.9769
 2405TIP3    H228707   1.335   3.980   3.683  0.7449  0.6150 -1.0185
 2406TIP3   OH228708   2.672   3.231   4.609  0.3208  0.7092  0.0914
 2406TIP3    H128709   2.745   3.266   4.558  0.0163  0.5160 -0.4894
 2406TIP3    H228710   2.629   3.168   4.550  0.2304  0.1421  0.7451
 2407TIP3   OH228711   4.476   1.552   2.531  0.4554 -0.5801  0.3221
 2407TIP3    H128712   4.381   1.558   2.535  0.4336 -0.1718 -0.5696
 2407TIP3    H228713   4.507   1.608   2.602  0.0360 -0.4830  0.4283
 2408TIP3   OH228714   0.673   6.117  13.429  0.7164  0.1919  0.3655
 2408TIP3    H128715   0.759   6.073  13.433  1.4626  1.6222  0.7231
 2408TIP3    H228716   0.610   6.046  13.438  1.8704 -0.8126  0.9320
 2409TIP3   OH228717   3.352   2.471  15.573 -0.0332  0.4536  0.4517
 2409TIP3    H128718   3.325   2.385  15.604  1.1981  0.3457  1.2783
 2409TIP3    H228719   3.400   2.454  15.492  0.5427  0.3028  0.8138
 2410TIP3   OH228720   5.555   3.151  14.793 -0.0075 -0.9641  0.4056
 2410TIP3    H128721   5.522   3.152  14.703 -0.6556 -0.2460  0.6403
 2410TIP3    H228722   5.632   3.094  14.789  1.1029  0.5241 -1.0143
 2411TIP3   OH228723   1.037   4.337  15.239  0.4705 -0.3292 -0.1255
 2411TIP3    H128724   1.063   4.323  15.147 -4.7731 -1.6319 -1.7573
 2411TIP3    H228725   1.005   4.427  15.241 -0.1698 -0.5570  0.1602
 2412TIP3   OH228726   1.070   3.863   5.262 -0.4533  0.5498 -0.0850
 2412TIP3    H128727   1.151   3.913   5.263  0.9016 -1.5131  1.4619
 2412TIP3    H228728   1.060   3.831   5.351 -2.1314 -0.5495 -0.6184
 2413TIP3   OH228729   0.191   2.868   2.652  0.2522  0.2295 -0.1625
 2413TIP3    H128730   0.224   2.902   2.568  1.6490  0.5019  0.4783
 2413TIP3    H228731   0.221   2.932   2.717 -0.4424 -0.2145  0.6108
 2414TIP3   OH228732   1.885   0.921   1.176 -0.1297 -0.1636 -0.5989
 2414TIP3    H128733   1.822   0.958   1.115 -0.0975 -0.2568 -0.6889
 2414TIP3    H228734   1.865   0.827   1.178  0.2829 -0.2636 -0.9564
 2415TIP3   OH228735   0.691   0.540   3.897  0.1289 -0.1259 -0.0033
 2415TIP3    H128736   0.762   0.560   3.958 -0.4103  0.3136  0.4937
 2415TIP3    H228737   0.614   0.528   3.952 -0.1202 -0.9278 -0.5153
 2416TIP3   OH228738   0.578   4.613  17.176 -0.0363  0.0192 -0.4218
 2416TIP3    H128739   0.590   4.547  17.244 -0.0531 -1.5599 -1.8899
 2416TIP3    H228740   0.636   4.586  17.105 -0.4479  1.2821 -1.2819
 2417TIP3   OH228741   6.497   2.225  13.131  0.1982 -0.0432  0.1294
 2417TIP3    H128742   6.458   2.281  13.198  0.4763  0.4990 -0.1498
 2417TIP3    H228743   6.591   2.229  13.148  0.3628  0.8622 -0.8465
 2418TIP3   OH228744   3.876   4.197  14.630  0.3711  0.2004 -0.1012
 2418TIP3    H128745   3.907   4.126  14.574 -0.1247 -1.9280  2.1737
 2418TIP3    H228746   3.955   4.230  14.673  0.1789 -2.0894  2.1975
 2419TIP3   OH228747   4.389   2.709  16.998  0.4873  0.4166 -0.5281
 2419TIP3    H128748   4.390   2.680  17.089 -1.6125 -0.5638 -0.7480
 2419TIP3    H228749   4.456   2.778  16.993  0.3798  0.7567  1.8151
 2420TIP3   OH228750   0.607   3.063   0.134  0.0005  0.2127 -0.3643
 2420TIP3    H128751   0.545   3.133   0.115  1.4224  1.3754 -0.9904
 2420TIP3    H228752   0.573   2.987   0.087 -0.7813  0.8995 -0.9346
 2421TIP3   OH228753   6.595   0.586  16.219  0.3681  0.0747 -0.4476
 2421TIP3    H128754   6.689   0.566  16.223  0.4572  0.5148 -0.2007
 2421TIP3    H228755   6.583   0.623  16.131  0.3903 -0.1455 -0.5454
 2422TIP3   OH228756   1.459   5.106   4.756  0.2962 -0.0275 -0.4887
 2422TIP3    H128757   1.526   5.163   4.717  1.2037  1.3621  2.7924
 2422TIP3    H228758   1.481   5.102   4.849 -2.6858 -1.7097  0.2859
 2423TIP3   OH228759   1.401   3.806   0.410 -0.1429  0.0783 -0.1995
 2423TIP3    H128760   1.473   3.780   0.467 -0.5566  0.5818  0.5654
 2423TIP3    H228761   1.443   3.848   0.335  0.5410 -2.4730 -1.3400
 2424TIP3   OH228762   4.922   1.745   1.447  0.0762 -0.1569  0.7827
 2424TIP3    H128763   4.970   1.748   1.364  1.9417  0.5358  1.8227
 2424TIP3    H228764   4.858   1.816   1.440  0.5931  0.2641  0.1357
 2425TIP3   OH228765   6.034   2.466   5.832 -0.4361  0.1050 -0.2334
 2425TIP3    H128766   5.956   2.505   5.791 -1.4380 -2.1827 -0.6937
 2425TIP3    H228767   6.005   2.446   5.921  1.2210  3.5468  1.2702
 2426TIP3   OH228768   6.724   3.925   6.130 -0.5070 -0.5240  0.3308
 2426TIP3    H128769   6.788   3.981   6.174 -1.7859  1.2558  0.0452
 2426TIP3    H228770   6.640   3.949   6.170 -1.3174 -0.9839 -1.0407
 2427TIP3   OH228771   6.361   0.003  16.682  0.2324 -0.5268  0.0074
 2427TIP3    H128772   6.347  -0.089  16.661  2.2128 -0.6156 -1.0970
 2427TIP3    H228773   6.456   0.012  16.690 -0.0063  1.0443  1.9782
 2428TIP3   OH228774   1.492   0.909   1.096  0.3673 -0.1318  0.4327
 2428TIP3    H128775   1.447   0.881   1.176  0.8995 -0.7684  0.5205
 2428TIP3    H228776   1.424   0.954   1.045 -0.9229 -2.6723 -0.2808
 2429TIP3   OH228777   5.635   5.542  16.254  0.0268  0.6378  0.5261
 2429TIP3    H128778   5.566   5.565  16.317  1.0161  0.8566  1.5748
 2429TIP3    H228779   5.715   5.537  16.307  0.6800 -0.4655 -0.5046
 2430TIP3   OH228780   5.504   1.414  12.999  1.1242  0.1657 -0.6739
 2430TIP3    H128781   5.452   1.465  12.937 -2.9349 -1.9889  0.6415
 2430TIP3    H228782   5.518   1.474  13.073 -1.4281  0.2967 -0.1933
 2431TIP3   OH228783   3.253   3.680   5.300  0.3280  0.4187  0.1050
 2431TIP3    H128784   3.164   3.705   5.276  0.7735  0.8771 -1.1224
 2431TIP3    H228785   3.275   3.737   5.374 -0.0301  1.0307 -0.2546
 2432TIP3   OH228786   2.744   2.838   4.539 -0.1210  0.0483 -0.0862
 2432TIP3    H128787   2.768   2.834   4.447  3.2980 -0.1021  0.6850
 2432TIP3    H228788   2.792   2.766   4.580  0.4348  1.5760  2.1455
 2433TIP3   OH228789   5.226   5.134   3.372  0.1743  0.0691  0.0501
 2433TIP3    H128790   5.316   5.113   3.344  0.6498  1.5299  0.4022
 2433TIP3    H228791   5.233   5.221   3.411 -1.1169 -0.4560  1.5502
 2434TIP3   OH228792   5.590   6.127   4.901 -0.0352  0.0959 -0.0319
 2434TIP3    H128793   5.574   6.057   4.964  0.5383  0.7096  0.8106
 2434TIP3    H228794   5.682   6.150   4.913 -0.3680  1.4279  0.1586
 2435TIP3   OH228795   1.930   4.176   2.127 -0.0290 -0.1705 -0.1059
 2435TIP3    H128796   1.969   4.228   2.198 -0.4717 -0.5822  0.4413
 2435TIP3    H228797   1.862   4.125   2.169 -2.7943  2.1816 -1.3602
 2436TIP3   OH228798   3.523   0.700   2.127 -0.2614  0.8044  0.4536
 2436TIP3    H128799   3.494   0.777   2.176  2.0780  1.2141  1.3271
 2436TIP3    H228800   3.617   0.714   2.113 -0.1472 -1.0074 -1.0460
 2437TIP3   OH228801   6.729   4.042   5.779  0.2323 -0.1199 -0.3115
 2437TIP3    H128802   6.784   4.118   5.759  0.3657  0.1972  1.1797
 2437TIP3    H228803   6.740   4.028   5.873 -1.4227 -0.6974 -0.1717
 2438TIP3   OH228804   1.210   3.933  15.380  0.0702 -0.1203 -0.4975
 2438TIP3    H128805   1.277   3.865  15.389  0.0288 -0.6246 -3.0640
 2438TIP3    H228806   1.130   3.894  15.415 -0.3661 -2.2050 -3.4128
 2439TIP3   OH228807   5.972   5.720   3.822 -0.0201 -0.5426  0.2456
 2439TIP3    H128808   5.958   5.782   3.750 -0.0527 -0.8092  0.0237
 2439TIP3    H228809   5.920   5.756   3.894  0.8859  0.3218  0.4865
 2440TIP3   OH228810   2.971   3.414   1.595 -0.0845  0.2048 -0.4625
 2440TIP3    H128811   3.023   3.443   1.670  0.5728  1.7749 -1.4570
 2440TIP3    H228812   3.003   3.467   1.522  0.1284 -2.0820 -2.1436
 2441TIP3   OH228813   1.840   2.328   4.726 -0.3131  0.1463  0.3165
 2441TIP3    H128814   1.886   2.245   4.712  1.6375  1.6167 -3.2571
 2441TIP3    H228815   1.761   2.322   4.672 -0.7344  0.2670  0.9027
 2442TIP3   OH228816   3.411   3.342  12.341  0.0774 -0.0430 -0.3088
 2442TIP3    H128817   3.388   3.342  12.249 -0.1247  1.2727 -0.2720
 2442TIP3    H228818   3.356   3.410  12.380  0.5915 -0.1613  0.6661
 2443TIP3   OH228819   1.540   1.000  11.861  0.1081  0.2014 -0.4289
 2443TIP3    H128820   1.449   0.972  11.847 -0.7452  1.7606  1.6129
 2443TIP3    H228821   1.561   1.050  11.782 -0.8728  0.0375 -0.8173
 2444TIP3   OH228822   3.105   6.828  14.538  0.1066 -0.2331 -0.4817
 2444TIP3    H128823   3.176   6.765  14.532  0.6667  0.5003 -2.0647
 2444TIP3    H228824   3.026   6.775  14.549  0.9129 -1.0384  1.9550
 2445TIP3   OH228825   4.681   6.179   1.397  0.0566  0.0473 -0.0352
 2445TIP3    H128826   4.655   6.208   1.484 -1.5618 -4.2443  1.1485
 2445TIP3    H228827   4.775   6.200   1.393  0.1490  0.5647  2.6405
 2446TIP3   OH228828   4.193   3.118   3.292 -0.3360 -0.0767  0.2943
 2446TIP3    H128829   4.259   3.049   3.292 -2.3561 -2.1821  0.5924
 2446TIP3    H228830   4.116   3.077   3.251 -2.4084  1.1423  2.6537
 2447TIP3   OH228831   1.015   3.006   0.735  0.1612 -0.7053  0.6045
 2447TIP3    H128832   0.969   2.949   0.797 -1.0490  1.0693  1.4382
 2447TIP3    H228833   0.983   2.979   0.649  0.2291 -1.7954  0.9080
 2448TIP3   OH228834   6.445   5.123   0.914 -0.1219 -0.4940  0.5024
 2448TIP3    H128835   6.538   5.144   0.918  0.1212 -0.9465 -1.6555
 2448TIP3    H228836   6.443   5.030   0.891 -1.0815 -0.2370 -0.5286
 2449TIP3   OH228837   2.501   6.118   3.363 -0.2980  0.0653  0.2470
 2449TIP3    H128838   2.441   6.159   3.426 -1.1038  1.2984 -1.2549
 2449TIP3    H228839   2.588   6.133   3.400 -0.7698  0.2387  1.3470
 2450TIP3   OH228840   3.538   5.839   1.402 -0.3944 -0.1732 -0.2397
 2450TIP3    H128841   3.578   5.781   1.467  0.0500  0.8578  0.4172
 2450TIP3    H228842   3.603   5.908   1.387 -0.7905  0.0110 -1.2413
 2451TIP3   OH228843   6.656   3.499  12.585  0.5602 -0.2142 -0.3151
 2451TIP3    H128844   6.611   3.511  12.501  2.3240 -3.3949 -1.9357
 2451TIP3    H228845   6.748   3.517  12.566  1.0727 -1.5035  0.7357
 2452TIP3   OH228846   0.606   5.748  10.827 -0.3177 -0.4215 -0.0488
 2452TIP3    H128847   0.623   5.656  10.845 -1.0205 -0.8422 -1.3646
 2452TIP3    H228848   0.634   5.794  10.906  2.3345 -1.5011 -0.2537
 2453TIP3   OH228849   0.889   5.448  14.217 -0.6013  0.0874  0.5273
 2453TIP3    H128850   0.984   5.454  14.224 -0.5007 -0.1613 -0.4980
 2453TIP3    H228851   0.874   5.378  14.153 -1.4885 -0.3591  1.2057
 2454TIP3   OH228852   1.172   0.339   0.159  0.1105  0.0796  0.5454
 2454TIP3    H128853   1.254   0.293   0.142  1.3184  1.8151  1.4805
 2454TIP3    H228854   1.176   0.364   0.251 -1.9389 -0.6305  0.8955
 2455TIP3   OH228855   0.337   3.394   0.040  0.0161  0.6818 -0.3356
 2455TIP3    H128856   0.326   3.489   0.032 -0.3978  0.7654  1.0151
 2455TIP3    H228857   0.347   3.378   0.134 -2.0847 -0.8014 -0.2826
 2456TIP3   OH228858   0.939   2.483   1.322 -0.0217 -1.0096 -0.5256
 2456TIP3    H128859   0.949   2.393   1.292 -0.7932 -0.7469 -1.6438
 2456TIP3    H228860   1.002   2.533   1.271 -0.1606 -0.7926 -0.4852
 2457TIP3   OH228861   2.723   0.871   0.641 -0.2271  0.1297  0.5496
 2457TIP3    H128862   2.692   0.956   0.675  0.3926  0.6888 -0.2465
 2457TIP3    H228863   2.818   0.875   0.650 -0.2231 -0.7070  0.9904
 2458TIP3   OH228864   2.590   1.144  13.224  0.0237  0.5585  0.1491
 2458TIP3    H128865   2.565   1.235  13.240 -2.0883 -0.2908  2.2763
 2458TIP3    H228866   2.574   1.100  13.307  2.7013 -1.4619 -0.2921
 2459TIP3   OH228867   0.990   2.904  12.257  0.4947  0.0483 -0.0295
 2459TIP3    H128868   0.925   2.851  12.303  1.1882 -1.1746 -0.4270
 2459TIP3    H228869   0.938   2.961  12.200 -0.3244  0.8533  1.4732
 2460TIP3   OH228870   1.817   1.880   4.547  0.1671  0.6644 -0.2858
 2460TIP3    H128871   1.826   1.956   4.605 -0.6938  1.5978 -1.3389
 2460TIP3    H228872   1.832   1.804   4.604 -1.6727  1.4916  1.4056
 2461TIP3   OH228873   3.595   5.867  16.155 -0.1155  0.1147 -0.0463
 2461TIP3    H128874   3.583   5.773  16.170  1.6703 -0.2411 -0.5924
 2461TIP3    H228875   3.630   5.901  16.237 -1.1862  0.4260  0.3060
 2462TIP3   OH228876   1.111   6.230  17.111  0.1285  0.3761  0.0502
 2462TIP3    H128877   1.145   6.214  17.023 -1.4491 -2.5825 -0.1357
 2462TIP3    H228878   1.188   6.230  17.167  0.8302 -3.9551 -0.6144
 2463TIP3   OH228879   2.286   0.439   0.073  0.4359 -0.6084 -0.1792
 2463TIP3    H128880   2.310   0.532   0.076  1.1786 -0.8032  2.1707
 2463TIP3    H228881   2.213   0.435   0.012  0.1944  1.5827 -0.1144
 2464TIP3   OH228882   4.663   5.517   5.437  0.1691  0.0254 -0.4516
 2464TIP3    H128883   4.590   5.533   5.377 -0.8243  1.0020  0.9526
 2464TIP3    H228884   4.653   5.426   5.463 -0.9421  0.3076  0.1789
 2465TIP3   OH228885   5.815   6.592   5.237  0.4068 -0.2152  0.0501
 2465TIP3    H128886   5.876   6.557   5.173 -1.8037 -0.8955 -1.8055
 2465TIP3    H228887   5.748   6.524   5.247  0.7481 -0.2584  3.3298
 2466TIP3   OH228888   1.234   3.278   2.256  0.2263 -0.0195  0.3306
 2466TIP3    H128889   1.215   3.239   2.171  0.8884 -0.4799  0.3848
 2466TIP3    H228890   1.152   3.273   2.304 -1.3446  3.6662 -1.5309
 2467TIP3   OH228891   1.050   3.956  16.064  0.0204  0.5276  0.4750
 2467TIP3    H128892   1.082   4.011  16.137  0.5639  1.5518 -0.5025
 2467TIP3    H228893   0.998   4.016  16.011 -0.9694 -0.3938  0.3854
 2468TIP3   OH228894   5.436   0.881  16.766 -0.4366  0.0663 -0.0075
 2468TIP3    H128895   5.363   0.871  16.704 -0.4071  0.4943 -0.1117
 2468TIP3    H228896   5.495   0.809  16.744 -0.7495 -0.1872 -0.0293
 2469TIP3   OH228897   5.629   4.261  13.563  0.4785 -0.0280  0.1233
 2469TIP3    H128898   5.664   4.224  13.482 -1.7715 -0.8800 -0.5291
 2469TIP3    H228899   5.544   4.219  13.574 -0.0139  1.3314  2.0385
 2470TIP3   OH228900   6.375   2.848   1.380  0.8427  0.1680  0.0945
 2470TIP3    H128901   6.416   2.856   1.294  0.0876  1.4766 -0.1709
 2470TIP3    H228902   6.447   2.828   1.440  1.4990  0.0703 -0.7177
 2471TIP3   OH228903   4.442   1.908   0.464 -0.0038  0.6763 -0.2570
 2471TIP3    H128904   4.512   1.880   0.406 -0.3752  0.8638 -0.8047
 2471TIP3    H228905   4.362   1.896   0.413 -0.5254 -0.9009  0.8446
 2472TIP3   OH228906   5.754   0.641   0.494  0.1121 -0.6666  0.0788
 2472TIP3    H128907   5.716   0.681   0.416  1.2025  0.8263  0.2724
 2472TIP3    H228908   5.685   0.583   0.527 -0.7346 -0.5627 -1.4121
 2473TIP3   OH228909   2.740   2.522   5.628 -0.7014  0.1642 -0.1607
 2473TIP3    H128910   2.703   2.460   5.691  0.1837  0.4189  0.6337
 2473TIP3    H228911   2.777   2.468   5.559 -2.0146 -0.1084 -0.6712
 2474TIP3   OH228912   1.804   2.095  10.347  0.2625 -0.7765 -0.5869
 2474TIP3    H128913   1.877   2.133  10.396 -0.4007 -1.9031  1.3747
 2474TIP3    H228914   1.805   2.002  10.371 -0.3431 -1.3203 -2.4645
 2475TIP3   OH228915   0.637   0.671  11.838  0.5707 -0.1268 -0.2974
 2475TIP3    H128916   0.567   0.734  11.822 -0.8397 -1.7643 -0.7685
 2475TIP3    H228917   0.596   0.586  11.828  2.3834 -1.1557  0.5348
 2476TIP3   OH228918   3.951   2.636  17.014  0.3542 -0.1583  0.2849
 2476TIP3    H128919   3.940   2.630  16.919  0.3853 -0.2841  0.2901
 2476TIP3    H228920   4.020   2.701  17.026  0.3205 -0.1113  0.2228
 2477TIP3   OH228921   0.286   4.866   3.181  0.4131 -0.4051 -0.5530
 2477TIP3    H128922   0.353   4.798   3.172  1.9615  1.2093 -1.9555
 2477TIP3    H228923   0.290   4.893   3.273  2.4202  0.3370 -0.8245
 2478TIP3   OH228924   2.408   5.136   2.750  0.5578  0.0434 -0.1066
 2478TIP3    H128925   2.411   5.231   2.764  0.1412 -0.0060  0.3149
 2478TIP3    H228926   2.357   5.102   2.823  1.9867 -0.6799  0.5904
 2479TIP3   OH228927   2.097   6.777  15.314 -0.3923  0.1995 -0.0941
 2479TIP3    H128928   2.127   6.868  15.309  0.5191 -0.0439  0.7407
 2479TIP3    H228929   2.003   6.784  15.330  0.0414  1.0697  2.5863
 2480TIP3   OH228930   0.437   1.050   6.256 -0.0720 -0.3053 -0.3810
 2480TIP3    H128931   0.382   0.990   6.306 -0.5840  0.2644 -0.2480
 2480TIP3    H228932   0.518   1.002   6.241 -0.4559 -1.0053 -0.2303
 2481TIP3   OH228933   1.322   2.705  17.025  0.3507  0.7913  0.1788
 2481TIP3    H128934   1.396   2.683  16.968 -0.7973 -1.3793 -0.5758
 2481TIP3    H228935   1.292   2.791  16.994  0.7126  0.3475 -1.4709
 2482TIP3   OH228936   5.292   6.428  10.666 -0.4233  0.7978  0.1673
 2482TIP3    H128937   5.236   6.395  10.737 -0.9193  1.2274 -0.0147
 2482TIP3    H228938   5.327   6.350  10.625 -0.5652  0.5294  0.5455
 2483TIP3   OH228939   3.327   3.676  12.409 -0.1790  0.3274  0.2115
 2483TIP3    H128940   3.330   3.643  12.319 -0.4805  0.8180  0.0164
 2483TIP3    H228941   3.270   3.753  12.405  0.9460  1.2179  0.5252
 2484TIP3   OH228942   5.853   6.691  12.479  0.3063  0.1949  0.0048
 2484TIP3    H128943   5.933   6.660  12.522 -0.4321 -0.5935  0.8442
 2484TIP3    H228944   5.795   6.715  12.551 -0.0377  1.2553 -0.6063
 2485TIP3   OH228945   4.143   3.138   0.706  0.1374 -0.2024  0.1277
 2485TIP3    H128946   4.179   3.139   0.795 -0.8284 -0.6973  0.5379
 2485TIP3    H228947   4.181   3.060   0.666  0.1516 -0.2720  0.2761
 2486TIP3   OH228948   4.877   2.610  13.626 -0.0353  0.2653  0.0825
 2486TIP3    H128949   4.910   2.693  13.593 -2.0746  1.4892  0.9413
 2486TIP3    H228950   4.916   2.601  13.712 -1.4056  1.4408  0.8735
 2487TIP3   OH228951   3.918   2.105  11.092  0.3230 -0.4613 -0.2052
 2487TIP3    H128952   3.868   2.087  11.172  1.1424 -0.3785  0.3340
 2487TIP3    H228953   3.958   2.191  11.107 -1.1356  0.4997 -1.5473
 2488TIP3   OH228954   0.579   4.461  14.700 -0.2075 -0.2714  0.1043
 2488TIP3    H128955   0.578   4.556  14.699  3.6148 -0.0851 -0.2682
 2488TIP3    H228956   0.578   4.437  14.792  1.6426  0.3412  0.3224
 2489TIP3   OH228957   0.304   0.623   3.479  0.3370 -0.9424  0.2347
 2489TIP3    H128958   0.334   0.568   3.552 -0.2450 -0.8027  0.5840
 2489TIP3    H228959   0.216   0.591   3.459 -0.9201  1.2047  1.8584
 2490TIP3   OH228960   5.107   4.333   4.961  0.1845  0.4753  0.8319
 2490TIP3    H128961   5.164   4.276   4.910 -1.8002 -0.8046 -0.0921
 2490TIP3    H228962   5.129   4.314   5.052  1.6632  0.5266  0.5104
 2491TIP3   OH228963   6.092   3.379   5.827  0.6420  0.1088  0.3200
 2491TIP3    H128964   6.161   3.445   5.822  1.0970 -0.3367  0.6601
 2491TIP3    H228965   6.083   3.346   5.738  1.9452 -0.9158  0.5363
 2492TIP3   OH228966   5.024   5.618  15.307  0.2933 -0.3201  0.3605
 2492TIP3    H128967   4.962   5.599  15.236  0.5466  0.5848 -0.1261
 2492TIP3    H228968   4.972   5.614  15.387 -0.2750 -0.1276  0.0047
 2493TIP3   OH228969   0.428   0.233   4.368 -0.0961 -0.0523  0.2484
 2493TIP3    H128970   0.469   0.188   4.441  0.3721  0.0091  0.0243
 2493TIP3    H228971   0.335   0.237   4.392  0.0929  0.1924  0.9486
 2494TIP3   OH228972   1.568   3.545  14.399  0.0142 -0.4082  0.5330
 2494TIP3    H128973   1.550   3.534  14.306 -1.2302 -0.8853  0.8165
 2494TIP3    H228974   1.605   3.460  14.426 -1.3864 -0.9365  0.8561
 2495TIP3   OH228975   1.538   6.423  15.721  0.0201 -0.2219  0.3925
 2495TIP3    H128976   1.476   6.482  15.676  0.4135  0.0775  0.2334
 2495TIP3    H228977   1.614   6.420  15.663 -0.0273 -0.9564  0.3645
 2496TIP3   OH228978   1.742   0.559   5.252 -0.0707 -0.2368  0.3422
 2496TIP3    H128979   1.783   0.646   5.246  1.7733 -1.0453  0.5767
 2496TIP3    H228980   1.731   0.545   5.346 -0.7045 -0.1136  0.2876
 2497TIP3   OH228981   5.130   2.035  15.583  0.1048 -0.0472  0.4936
 2497TIP3    H128982   5.160   1.990  15.504 -1.9170  1.0514 -0.9941
 2497TIP3    H228983   5.132   2.128  15.561 -0.1007  0.3271  1.9091
 2498TIP3   OH228984   5.638   5.737  14.802 -0.2694  0.7744 -0.3427
 2498TIP3    H128985   5.721   5.697  14.775 -0.6865 -0.3561 -0.0138
 2498TIP3    H228986   5.628   5.712  14.894 -2.0052 -1.0044 -0.9303
 2499TIP3   OH228987   0.653   1.828   2.057  0.2045 -0.3758  0.2909
 2499TIP3    H128988   0.723   1.829   2.123 -1.0289  0.8623  1.6374
 2499TIP3    H228989   0.603   1.908   2.074 -1.9668 -1.5776 -0.1661
 2500TIP3   OH228990   3.193   3.081  16.550  0.0496  0.8513  0.2084
 2500TIP3    H128991   3.112   3.038  16.576 -0.0874  2.4220  2.7303
 2500TIP3    H228992   3.263   3.025  16.583  0.0267  0.0065 -1.0950
 2501TIP3   OH228993   6.388   4.992  14.191 -0.0033 -0.3266 -0.3278
 2501TIP3    H128994   6.416   4.902  14.176  1.3072 -0.0225  0.1881
 2501TIP3    H228995   6.387   5.002  14.286  0.3544  0.3328 -0.3801
 2502TIP3   OH228996   5.121   6.157  16.464  0.3490 -0.1090  0.5012
 2502TIP3    H128997   5.093   6.167  16.555 -0.7262  1.1314  0.0660
 2502TIP3    H228998   5.042   6.172  16.413  1.2954  0.9760 -0.6951
 2503TIP3   OH228999   5.564   0.560  10.578 -0.0293  0.8712  0.3527
 2503TIP3    H129000   5.558   0.642  10.626 -1.1905  0.7452  0.4528
 2503TIP3    H229001   5.551   0.584  10.486 -1.8583  0.6631  0.5162
 2504TIP3   OH229002   6.633   2.480  12.027  0.5315  0.2605 -0.9147
 2504TIP3    H129003   6.570   2.552  12.020  0.3471  0.0031 -2.1058
 2504TIP3    H229004   6.579   2.405  12.053  0.5826  0.3480 -0.5464
 2505TIP3   OH229005   0.290   6.570  11.396  0.0556  0.2655  0.3209
 2505TIP3    H129006   0.316   6.598  11.484  1.7284 -0.5456  0.1278
 2505TIP3    H229007   0.272   6.476  11.404  0.0721  0.2154 -0.1684
 2506TIP3   OH229008   4.842   0.679  12.634  0.0782 -0.8214  0.3860
 2506TIP3    H129009   4.844   0.641  12.547  1.7351 -0.8351  0.3893
 2506TIP3    H229010   4.827   0.605  12.693 -2.0386 -0.6786  0.0929
 2507TIP3   OH229011   3.401   4.890   2.287  0.2823  0.1318 -0.3577
 2507TIP3    H129012   3.401   4.825   2.357 -2.5766  1.6639  1.2943
 2507TIP3    H229013   3.326   4.866   2.233  0.4720  0.8445 -0.9516
 2508TIP3   OH229014   2.949   6.382  13.881 -0.4129 -0.0078  0.3742
 2508TIP3    H129015   2.959   6.322  13.807 -2.6807 -0.0591  0.0427
 2508TIP3    H229016   3.000   6.342  13.951  1.5597 -0.0984 -1.0386
 2509TIP3   OH229017   5.732   4.990   2.786 -0.5913  0.4582 -0.8477
 2509TIP3    H129018   5.731   4.906   2.832 -0.6044  1.8411  1.8581
 2509TIP3    H229019   5.732   4.966   2.693  0.6556 -2.5362 -0.2038
 2510TIP3   OH229020   5.654   3.672  12.728  0.6821 -0.2530 -0.0460
 2510TIP3    H129021   5.617   3.729  12.661 -0.2955  2.0600  2.2933
 2510TIP3    H229022   5.726   3.723  12.766  1.1172 -1.4313  0.7793
 2511TIP3   OH229023   2.777   1.849   5.276  0.4102 -0.0263  0.3401
 2511TIP3    H129024   2.764   1.906   5.200 -0.4590 -0.4997  0.1203
 2511TIP3    H229025   2.707   1.872   5.336  1.6303  0.9792  1.4269
 2512TIP3   OH229026   0.446   3.209  15.016 -0.5173 -0.8194 -0.4545
 2512TIP3    H129027   0.397   3.288  15.039  1.1235 -0.0385  0.5498
 2512TIP3    H229028   0.535   3.240  14.998  1.3274 -2.7319  3.9381
 2513TIP3   OH229029   5.796   1.143   4.321  0.3985  0.3037 -0.6270
 2513TIP3    H129030   5.827   1.156   4.231 -1.7748  1.5980 -1.2764
 2513TIP3    H229031   5.748   1.061   4.318  1.9407 -0.6520 -0.1242
 2514TIP3   OH229032   1.060   3.492   6.161 -0.0935  0.1475 -0.3197
 2514TIP3    H129033   1.132   3.550   6.187  0.0111  0.8027 -1.9222
 2514TIP3    H229034   1.013   3.473   6.242  1.3530  0.4366  0.6205
 2515TIP3   OH229035   0.340   0.652   1.136 -0.1469  0.4655 -0.2283
 2515TIP3    H129036   0.304   0.639   1.048 -0.0213  0.2650 -0.2519
 2515TIP3    H229037   0.327   0.567   1.179 -0.0408  0.5078 -0.1147
 2516TIP3   OH229038   0.454   1.316  11.676 -0.6285  0.6972 -0.1194
 2516TIP3    H129039   0.447   1.305  11.581 -0.9230 -1.6437  0.1020
 2516TIP3    H229040   0.385   1.259  11.711  0.1192  0.7504  1.5074
 2517TIP3   OH229041   5.892   2.384  12.456 -0.2712 -0.0228  0.2356
 2517TIP3    H129042   5.894   2.407  12.364  2.2066 -3.1322 -0.6535
 2517TIP3    H229043   5.944   2.451  12.500 -0.2476  0.6788 -0.8524
 2518TIP3   OH229044   5.316   4.612   1.330 -0.5473 -0.3357 -0.4602
 2518TIP3    H129045   5.275   4.640   1.248 -0.5081  0.7577 -0.1161
 2518TIP3    H229046   5.392   4.561   1.303  0.1761  1.0537 -1.1258
 2519TIP3   OH229047   2.624   3.868   2.232 -0.2718 -0.2967  0.0353
 2519TIP3    H129048   2.554   3.880   2.296  0.3244 -1.7194  1.0234
 2519TIP3    H229049   2.676   3.949   2.238 -0.2195 -0.3996  1.3921
 2520TIP3   OH229050   6.336   6.158  14.564  0.1633 -0.1962  0.3839
 2520TIP3    H129051   6.429   6.144  14.582 -0.3624 -1.5365  2.3626
 2520TIP3    H229052   6.298   6.070  14.565 -1.1021  0.3189 -0.6211
 2521TIP3   OH229053   2.330   1.084   3.287 -0.8394 -0.0716 -0.3322
 2521TIP3    H129054   2.317   1.107   3.195 -2.6199  0.7385  0.0729
 2521TIP3    H229055   2.340   1.169   3.332  0.9718 -0.4872  0.1215
 2522TIP3   OH229056   1.494   3.908   6.544 -0.1407 -0.4880 -0.3330
 2522TIP3    H129057   1.469   3.851   6.472  0.6540 -0.9273 -0.2745
 2522TIP3    H229058   1.499   3.996   6.506 -0.9804 -0.5132 -0.5123
 2523TIP3   OH229059   0.935   1.185  15.977 -0.2860  1.1031  0.2761
 2523TIP3    H129060   1.012   1.194  16.033  0.8207  0.0713 -1.0344
 2523TIP3    H229061   0.882   1.118  16.021  0.6134  0.2367  0.0645
 2524TIP3   OH229062   0.125   4.996   0.408 -0.0963  0.5385  0.0389
 2524TIP3    H129063   0.159   4.931   0.470 -0.2928 -0.6857 -1.0942
 2524TIP3    H229064   0.044   5.028   0.448 -1.2825 -1.6725 -0.4214
 2525TIP3   OH229065   0.854   5.103   0.919 -0.1940  0.0627 -0.1241
 2525TIP3    H129066   0.900   5.116   1.002  0.4707 -0.2351 -0.4365
 2525TIP3    H229067   0.802   5.025   0.932  0.8295 -0.6856 -0.3570
 2526TIP3   OH229068   0.487   6.270   4.525  0.2093 -0.2088 -0.2296
 2526TIP3    H129069   0.551   6.299   4.590 -1.2059  1.3814  0.5486
 2526TIP3    H229070   0.526   6.192   4.486  1.3879 -0.8978  2.1182
 2527TIP3   OH229071   0.340   5.351  14.798 -0.0937  0.5959 -0.1220
 2527TIP3    H129072   0.363   5.288  14.729 -2.3656 -2.3000  1.5507
 2527TIP3    H229073   0.327   5.434  14.751  0.2177 -0.8036 -2.8963
 2528TIP3   OH229074   0.062   2.790  15.671  0.1798  0.1145 -0.3076
 2528TIP3    H129075   0.140   2.768  15.722 -0.9328 -1.5269  0.7543
 2528TIP3    H229076   0.021   2.861  15.721 -1.0239 -1.6293  1.3417
 2529TIP3   OH229077   2.519   4.651  14.357 -0.0940  0.1020 -0.1990
 2529TIP3    H129078   2.521   4.555  14.359 -0.0896  0.0092 -2.4356
 2529TIP3    H229079   2.611   4.677  14.348 -0.0121  0.3825  1.2271
 2530TIP3   OH229080   3.278   3.562  10.818  0.2457 -0.2065 -0.2146
 2530TIP3    H129081   3.188   3.529  10.814 -0.2756  1.1834 -0.4578
 2530TIP3    H229082   3.271   3.647  10.861  1.5390 -0.3544  0.3393
 2531TIP3   OH229083   1.152   0.111  14.201 -0.3108 -0.3919  0.1052
 2531TIP3    H129084   1.198   0.036  14.163  0.5982  1.5420 -3.0819
 2531TIP3    H229085   1.213   0.184  14.190 -1.5003  1.0264  2.2404
 2532TIP3   OH229086   6.819   1.814   5.167 -0.2680 -0.5802 -0.1783
 2532TIP3    H129087   6.879   1.803   5.092 -0.7543  1.9769 -1.0375
 2532TIP3    H229088   6.872   1.794   5.243  0.7937 -1.3917 -1.0954
 2533TIP3   OH229089   5.261   6.367   3.401 -0.0398 -0.2534  0.1628
 2533TIP3    H129090   5.295   6.448   3.439  0.6210 -1.2522  1.7686
 2533TIP3    H229091   5.166   6.378   3.405  0.0313  0.6654 -0.2021
 2534TIP3   OH229092   4.111   2.293   2.162  0.3651 -0.1430 -0.5615
 2534TIP3    H129093   4.146   2.212   2.124  2.5604  0.9130 -0.9456
 2534TIP3    H229094   4.075   2.341   2.087  0.5233 -0.0623 -0.5857
 2535TIP3   OH229095   1.516   3.918  11.453 -0.6306 -0.0524  0.7925
 2535TIP3    H129096   1.546   3.882  11.369 -0.8714  1.0653  0.2004
 2535TIP3    H229097   1.422   3.899  11.455 -1.2333  2.2962 -0.5367
 2536TIP3   OH229098   3.456   6.454  12.714  0.3315 -0.0065  0.7958
 2536TIP3    H129099   3.483   6.430  12.803  0.3186 -0.5500  0.6543
 2536TIP3    H229100   3.537   6.481  12.671  0.6201 -1.3239  0.4728
 2537TIP3   OH229101   6.792   4.257   2.883  0.1504 -0.2118  0.0195
 2537TIP3    H129102   6.870   4.230   2.931 -1.3861 -0.8539  2.3039
 2537TIP3    H229103   6.734   4.294   2.949 -1.0073  1.4402 -1.8120
 2538TIP3   OH229104   6.265   3.907  11.717 -0.1862  0.3054 -0.0812
 2538TIP3    H129105   6.292   3.999  11.722 -1.3534  0.7785 -1.7404
 2538TIP3    H229106   6.335   3.859  11.762  0.7627  1.9398  0.2637
 2539TIP3   OH229107   6.638   5.794  10.781  0.4009  0.0443 -0.2574
 2539TIP3    H129108   6.601   5.835  10.703 -3.3050 -0.3887  1.0493
 2539TIP3    H229109   6.585   5.715  10.794  2.5294 -1.2278  1.3655
 2540TIP3   OH229110   0.778   4.120   6.186  0.6495 -0.1349  0.5828
 2540TIP3    H129111   0.789   4.165   6.102  0.6311 -0.7555  0.2396
 2540TIP3    H229112   0.712   4.171   6.232 -0.0708 -0.3464 -0.1877
 2541TIP3   OH229113   2.305   1.211  11.537 -0.3669 -0.5619 -0.4375
 2541TIP3    H129114   2.350   1.294  11.522 -0.6213 -0.5499 -1.1787
 2541TIP3    H229115   2.367   1.144  11.509 -0.7689 -0.5487 -1.3832
 2542TIP3   OH229116   4.522   3.881   4.602  0.7182 -0.3150  0.1398
 2542TIP3    H129117   4.569   3.818   4.655 -0.5477 -1.8681 -0.4852
 2542TIP3    H229118   4.430   3.867   4.623  0.2580 -0.1742 -1.5577
 2543TIP3   OH229119   2.346   2.641  14.132 -0.0370 -0.5311 -0.1190
 2543TIP3    H129120   2.377   2.561  14.174  0.3287  0.3335  1.3165
 2543TIP3    H229121   2.338   2.704  14.203 -0.7358  0.5909 -1.1563
 2544TIP3   OH229122   3.958   1.372   5.589 -0.1509  0.2522 -0.5069
 2544TIP3    H129123   3.955   1.328   5.673  1.3322 -0.5123 -0.8161
 2544TIP3    H229124   4.045   1.354   5.555 -0.9335 -0.0756 -2.5317
 2545TIP3   OH229125   2.566   4.070  13.909  0.4794  0.0920 -0.4918
 2545TIP3    H129126   2.576   4.050  14.002  0.2815  1.0799 -0.2495
 2545TIP3    H229127   2.472   4.080  13.896  0.4939 -0.1743 -0.8364
 2546TIP3   OH229128   0.696   6.145   5.600 -0.0914 -0.2859  0.4287
 2546TIP3    H129129   0.659   6.090   5.530  1.0115 -0.5676  0.0407
 2546TIP3    H229130   0.776   6.181   5.562 -0.3593  0.9311  0.9814
 2547TIP3   OH229131   4.057   5.034  13.304  0.1389  0.5315 -0.0056
 2547TIP3    H129132   4.109   4.972  13.252  0.1904  1.6840 -1.3615
 2547TIP3    H229133   4.027   4.982  13.379 -0.6799 -1.4313 -1.6042
 2548TIP3   OH229134   3.589   5.031   4.925  0.0194 -0.6427  0.7471
 2548TIP3    H129135   3.519   4.966   4.921 -0.2423 -0.3221 -0.4357
 2548TIP3    H229136   3.583   5.068   5.013 -0.9910 -0.9584  0.8191
 2549TIP3   OH229137   1.212   5.030   1.517  0.6376 -0.0258  0.4184
 2549TIP3    H129138   1.214   4.957   1.455  2.1516 -0.9118  1.4654
 2549TIP3    H229139   1.236   4.991   1.601 -0.5205  1.3166  1.4242
 2550TIP3   OH229140   1.924   2.753  16.502 -0.4282  0.2845 -0.2270
 2550TIP3    H129141   1.949   2.832  16.454  0.9556 -0.3242 -0.5527
 2550TIP3    H229142   1.967   2.763  16.587 -0.0241 -0.2355 -0.3666
 2551TIP3   OH229143   5.404   6.651   5.564 -0.2357 -0.1410  0.5082
 2551TIP3    H129144   5.427   6.696   5.645  1.4038 -0.9758  0.5606
 2551TIP3    H229145   5.459   6.691   5.497 -0.2736 -0.6613  0.1576
 2552TIP3   OH229146   6.721   1.585  14.278 -0.0420 -0.9919 -0.0358
 2552TIP3    H129147   6.753   1.548  14.195  1.6779 -1.8191  0.9253
 2552TIP3    H229148   6.772   1.666  14.289 -1.0764 -0.2871 -0.3046
 2553TIP3   OH229149   0.122   5.160  16.503 -0.3768 -0.2493  0.5122
 2553TIP3    H129150   0.033   5.154  16.538  0.3173 -1.7378  2.1687
 2553TIP3    H229151   0.130   5.251  16.473 -1.9188  0.3593  1.7895
 2554TIP3   OH229152   4.150   2.417  12.552  0.1495 -0.2600 -0.8054
 2554TIP3    H129153   4.128   2.342  12.608  0.7089 -0.4356 -0.8137
 2554TIP3    H229154   4.245   2.424  12.558 -0.0162  1.5005  0.5354
 2555TIP3   OH229155   3.137   5.527  12.844  0.3524  0.1823  0.2602
 2555TIP3    H129156   3.123   5.512  12.938 -1.0093 -0.9228 -0.0795
 2555TIP3    H229157   3.065   5.586  12.819  1.2177  1.1810  0.0587
 2556TIP3   OH229158   3.955   0.422  10.742  0.4290 -0.3061 -0.5415
 2556TIP3    H129159   3.862   0.413  10.721  0.2423  0.2557  0.0243
 2556TIP3    H229160   3.969   0.516  10.750  0.9202 -0.4203 -0.0478
 2557TIP3   OH229161   0.899   2.499   3.298  0.6043  0.7093  0.3381
 2557TIP3    H129162   0.991   2.494   3.274  1.2784 -0.3017  2.8202
 2557TIP3    H229163   0.889   2.438   3.371 -2.5282 -0.8229 -1.1555
 2558TIP3   OH229164   6.204   2.823  11.039  0.5523  0.0830 -0.1541
 2558TIP3    H129165   6.204   2.854  10.949  0.3199 -2.7050 -1.2128
 2558TIP3    H229166   6.120   2.854  11.075 -0.4205 -0.6600 -1.6701
 2559TIP3   OH229167   6.162   1.125   4.027 -0.4626  0.6122  0.7000
 2559TIP3    H129168   6.191   1.098   4.114 -3.2236 -1.1544  1.1986
 2559TIP3    H229169   6.101   1.197   4.044 -0.5328  0.6787  0.1870
 2560TIP3   OH229170   0.541   0.433  12.114 -0.6120 -0.2452  0.2601
 2560TIP3    H129171   0.600   0.500  12.148 -2.6826  0.7054  2.2272
 2560TIP3    H229172   0.585   0.350  12.133  0.7406  0.4587  0.3046
 2561TIP3   OH229173   3.610   3.504   4.542 -0.2980  0.4059  0.1104
 2561TIP3    H129174   3.522   3.487   4.575 -0.2667 -1.0693 -0.4863
 2561TIP3    H229175   3.667   3.446   4.592 -0.0144 -0.5002 -1.2045
 2562TIP3   OH229176   2.899   6.195   3.631 -0.4149 -0.0728 -0.0849
 2562TIP3    H129177   2.958   6.250   3.683  0.0170 -0.0461 -0.5903
 2562TIP3    H229178   2.816   6.198   3.678 -0.0518 -0.0038  0.5739
 2563TIP3   OH229179   3.516   1.472  11.284 -0.2925 -0.1605 -1.1021
 2563TIP3    H129180   3.486   1.456  11.195  0.5118 -1.1392 -1.2162
 2563TIP3    H229181   3.604   1.508  11.274 -0.7585  1.1692 -0.7264
 2564TIP3   OH229182   5.913   1.542  16.335  0.0336  0.0818  0.5358
 2564TIP3    H129183   5.949   1.459  16.303  0.1965  1.3060 -2.8898
 2564TIP3    H229184   5.969   1.609  16.296 -1.6123  1.8463  1.0821
 2565TIP3   OH229185   5.382   1.525  11.501  0.1860  0.4859 -0.2347
 2565TIP3    H129186   5.457   1.466  11.490 -0.5090 -0.3673 -0.4859
 2565TIP3    H229187   5.377   1.572  11.417  0.3415  0.4336 -0.2746
 2566TIP3   OH229188   5.191   1.862   3.571  0.1861  0.2105  0.9048
 2566TIP3    H129189   5.206   1.783   3.520  0.0071  1.4985 -1.2750
 2566TIP3    H229190   5.122   1.838   3.633  1.0835 -1.6862  1.2397
 2567TIP3   OH229191   3.627   2.706  11.150 -0.2344  0.0654  0.1500
 2567TIP3    H129192   3.602   2.714  11.058 -0.0916 -1.4440 -0.0433
 2567TIP3    H229193   3.547   2.677  11.194 -0.2131  0.4542  0.4449
 2568TIP3   OH229194   6.806   4.506  16.135  0.2061  0.1407  0.5102
 2568TIP3    H129195   6.733   4.554  16.098  0.8090  1.6292  1.1724
 2568TIP3    H229196   6.772   4.468  16.215  0.3203  1.4167  1.1818
 2569TIP3   OH229197   1.408   3.342   3.882 -0.6774  0.1636  0.3192
 2569TIP3    H129198   1.326   3.360   3.928 -0.4250 -1.1797  1.3705
 2569TIP3    H229199   1.475   3.349   3.950  0.0492  0.8308 -0.4422
 2570TIP3   OH229200   0.281   2.730  13.331 -1.1314  0.1856  0.1649
 2570TIP3    H129201   0.224   2.758  13.259 -0.2389 -1.1709 -1.1533
 2570TIP3    H229202   0.369   2.753  13.301 -0.6706 -1.1630  0.4087
 2571TIP3   OH229203   3.636   6.430  16.790 -0.1779 -0.0485  0.5566
 2571TIP3    H129204   3.609   6.341  16.814  0.1140 -0.4134 -0.4175
 2571TIP3    H229205   3.721   6.442  16.833 -0.1996 -0.2591  0.6594
 2572TIP3   OH229206   3.374   5.128  12.387 -0.1983  0.4739 -0.6562
 2572TIP3    H129207   3.296   5.138  12.332 -1.5935 -0.9961  0.9624
 2572TIP3    H229208   3.350   5.063  12.452  1.8482  1.1579  0.8991
 2573TIP3   OH229209   0.630   5.840   1.394  0.2166  0.3529 -0.4378
 2573TIP3    H129210   0.650   5.748   1.377 -1.1789  0.0894 -0.8034
 2573TIP3    H229211   0.670   5.858   1.479 -0.9905 -1.1303  0.4991
 2574TIP3   OH229212   3.534   2.843   0.533 -0.2812 -0.6978 -0.1526
 2574TIP3    H129213   3.510   2.798   0.452  1.3753 -0.9986 -0.5089
 2574TIP3    H229214   3.607   2.900   0.508 -0.1544 -0.3255  1.0038
 2575TIP3   OH229215   1.076   1.483  16.063 -0.3531 -0.2066 -0.0475
 2575TIP3    H129216   1.099   1.394  16.089  1.9759  0.8729  2.0762
 2575TIP3    H229217   1.005   1.508  16.123  0.7573  0.1651  1.1695
 2576TIP3   OH229218   6.312   2.385  11.826 -0.2507  0.5373  0.2202
 2576TIP3    H129219   6.245   2.439  11.785  0.1498 -0.2112 -1.5309
 2576TIP3    H229220   6.395   2.422  11.795  0.0616 -2.1660 -2.8298
 2577TIP3   OH229221   6.493   2.470   1.943 -0.7250 -0.9094  0.2378
 2577TIP3    H129222   6.507   2.496   2.034 -0.0471 -0.8225  0.1074
 2577TIP3    H229223   6.557   2.401   1.927  0.8396  0.7243 -0.8970
 2578TIP3   OH229224   4.149   2.615  15.956  0.3394  0.0060 -0.1318
 2578TIP3    H129225   4.091   2.678  16.000 -1.3364 -1.1172 -0.6439
 2578TIP3    H229226   4.229   2.665  15.939  0.1406  1.1886  1.9629
 2579TIP3   OH229227   4.530   4.973  13.948  0.0860 -0.3319 -0.2655
 2579TIP3    H129228   4.450   4.952  13.996  1.2356 -0.7634  1.5423
 2579TIP3    H229229   4.499   4.992  13.859 -1.9666 -0.8899  0.2569
 2580TIP3   OH229230   0.568   6.526   4.956  0.7219  0.3631  0.0260
 2580TIP3    H129231   0.589   6.488   4.871 -0.2694 -0.1385 -0.0039
 2580TIP3    H229232   0.596   6.460   5.020  0.3428  0.2090  0.0347
 2581TIP3   OH229233   0.814   0.581  14.697  0.4883 -0.2230 -0.4432
 2581TIP3    H129234   0.767   0.501  14.721 -3.2865  1.6562 -0.8133
 2581TIP3    H229235   0.839   0.621  14.780 -1.3773  0.1805 -0.0338
 2582TIP3   OH229236   1.984   2.892   5.276  0.0742  0.1030 -0.0892
 2582TIP3    H129237   2.060   2.838   5.253 -1.3759 -2.0410 -0.0699
 2582TIP3    H229238   1.956   2.859   5.361 -1.1820  0.4993 -0.3333
 2583TIP3   OH229239   6.344   0.985   3.349  0.0928  0.1238  0.2728
 2583TIP3    H129240   6.416   0.981   3.286  0.0588  2.1352  0.0597
 2583TIP3    H229241   6.376   0.935   3.425  2.0163  1.5398  0.4612
 2584TIP3   OH229242   4.604   4.612   0.385 -0.0633  0.3432  0.4303
 2584TIP3    H129243   4.564   4.693   0.418 -2.5793 -0.3719 -0.6427
 2584TIP3    H229244   4.603   4.553   0.460  0.2381  0.7643  0.7717
 2585TIP3   OH229245   0.474   3.250  16.614 -0.3633  0.1946  0.0226
 2585TIP3    H129246   0.543   3.313  16.597  1.9390 -2.3307 -0.7903
 2585TIP3    H229247   0.405   3.271  16.551  0.2650  1.9196 -0.1211
 2586TIP3   OH229248   1.260   6.716  12.513 -0.3690  0.0405 -0.4001
 2586TIP3    H129249   1.205   6.753  12.582 -1.2933  1.1378 -1.7004
 2586TIP3    H229250   1.334   6.677  12.561 -1.7998 -0.7206  1.3201
 2587TIP3   OH229251   6.681   6.058   0.995 -0.2111 -0.1094  0.6105
 2587TIP3    H129252   6.681   6.090   1.085 -1.4349 -0.9647  0.9591
 2587TIP3    H229253   6.722   5.971   1.001 -0.2606 -0.1511  0.3469
 2588TIP3   OH229254   2.288   0.405   2.190 -0.0152  0.1537 -0.6363
 2588TIP3    H129255   2.238   0.465   2.247 -0.7498  0.5145 -1.6344
 2588TIP3    H229256   2.363   0.457   2.161  0.9575 -0.3763  0.8355
 2589TIP3   OH229257   6.780   0.848  15.571  0.1445  0.5477  0.1333
 2589TIP3    H129258   6.799   0.840  15.665  2.0861 -1.8616 -0.3505
 2589TIP3    H229259   6.774   0.943  15.556 -1.1486  0.9990  2.7916
 2590TIP3   OH229260   4.502   1.227  10.637 -0.1061 -0.0367 -0.5068
 2590TIP3    H129261   4.452   1.237  10.717  1.0138  1.3516  0.0547
 2590TIP3    H229262   4.492   1.135  10.613  3.2207 -1.8367  3.7673
 2591TIP3   OH229263   1.097   0.768   3.936 -0.3728  0.1441 -0.0662
 2591TIP3    H129264   1.078   0.788   4.027  0.4369 -0.6439  0.2912
 2591TIP3    H229265   1.148   0.843   3.905 -0.3348  0.2420  0.2335
 2592TIP3   OH229266   1.104   4.924  16.849 -0.4796  0.4098  0.1874
 2592TIP3    H129267   1.190   4.959  16.870 -1.3349  1.6784  1.7883
 2592TIP3    H229268   1.105   4.914  16.754  1.4949  0.1605  0.1882
 2593TIP3   OH229269   4.126   4.229   6.113  0.5015  0.0289 -0.0786
 2593TIP3    H129270   4.054   4.171   6.089 -0.9772  2.6138 -2.5154
 2593TIP3    H229271   4.084   4.311   6.138  2.5582  1.1276 -0.0253
 2594TIP3   OH229272   1.301   3.014  11.299 -0.3786  0.6124  0.3111
 2594TIP3    H129273   1.271   3.104  11.314 -2.2913  0.1340 -0.3239
 2594TIP3    H229274   1.222   2.968  11.269  0.7590 -1.0779 -0.1840
 2595TIP3   OH229275   3.101   5.463   2.722 -0.0262 -0.1118  0.1300
 2595TIP3    H129276   3.073   5.426   2.638  0.8699 -2.7892  0.8829
 2595TIP3    H229277   3.037   5.430   2.785  0.2428  0.4720  0.7141
 2596TIP3   OH229278   0.518   1.065  17.068 -0.0022 -0.2878 -0.4147
 2596TIP3    H129279   0.550   1.114  16.993  0.4387  1.2768  0.7565
 2596TIP3    H229280   0.595   1.050  17.122 -0.8279  2.0879  1.6265
 2597TIP3   OH229281   5.397   6.759  10.971  1.0459  0.0742  0.2266
 2597TIP3    H129282   5.380   6.845  10.931 -1.0187 -0.8540 -1.0338
 2597TIP3    H229283   5.467   6.721  10.917  1.4807  0.6550  0.3651
 2598TIP3   OH229284   3.219   5.209  14.726 -0.0515  0.5069 -0.1147
 2598TIP3    H129285   3.160   5.237  14.656 -0.0385 -0.9152 -0.7287
 2598TIP3    H229286   3.214   5.114  14.725  1.2782  0.4052  0.6926
 2599TIP3   OH229287   3.474   1.377  15.671 -0.2458 -0.3288 -0.0173
 2599TIP3    H129288   3.456   1.288  15.701  1.5393 -0.8066 -0.2582
 2599TIP3    H229289   3.559   1.399  15.709  0.3438  0.4454 -1.7014
 2600TIP3   OH229290   4.819   0.460  16.630 -0.4155  0.3710  0.1628
 2600TIP3    H129291   4.808   0.393  16.563  0.2367 -0.3433  0.7646
 2600TIP3    H229292   4.812   0.543  16.582  0.4706 -0.1237 -0.8612
 2601TIP3   OH229293   2.934   5.001  14.362  0.0721 -0.2647 -0.2038
 2601TIP3    H129294   2.968   5.078  14.316 -0.3916  0.7155  1.0231
 2601TIP3    H229295   2.967   4.927  14.312 -0.0800  0.7275 -1.8595
 2602TIP3   OH229296   3.350   5.787  11.917  0.4318  0.1137 -0.3245
 2602TIP3    H129297   3.314   5.870  11.949  0.5698 -0.3086  0.9886
 2602TIP3    H229298   3.302   5.721  11.967  1.8440 -0.5162  0.2256
 2603TIP3   OH229299   5.014   1.216   1.957 -0.1858  0.5079  0.4102
 2603TIP3    H129300   5.075   1.162   2.007  0.1151 -0.7246 -1.2060
 2603TIP3    H229301   4.928   1.195   1.993  0.0662  0.0313  0.7436
 2604TIP3   OH229302   1.949   0.810   0.630  0.3122  0.0994 -0.0060
 2604TIP3    H129303   1.899   0.776   0.556  1.2094  0.3341 -0.7516
 2604TIP3    H229304   2.028   0.847   0.590  1.2786 -0.6330  1.1645
 2605TIP3   OH229305   4.776   0.957   1.243  0.5586  0.4381  0.1934
 2605TIP3    H129306   4.786   0.930   1.334 -0.1012  1.6584  0.6412
 2605TIP3    H229307   4.692   0.921   1.216  0.5489  0.4454  0.2135
 2606TIP3   OH229308   4.716   0.817   0.093 -0.4947  0.5084 -0.2245
 2606TIP3    H129309   4.655   0.869   0.040  0.5223  2.4801  0.4340
 2606TIP3    H229310   4.798   0.818   0.043  0.0629  1.1561  0.6756
 2607TIP3   OH229311   1.310   5.032   1.987  0.1224  0.2535  0.4366
 2607TIP3    H129312   1.238   5.026   2.049  1.5134 -2.2830  1.9946
 2607TIP3    H229313   1.369   5.097   2.025  0.4510 -0.5001  1.2592
 2608TIP3   OH229314   1.003   0.953   1.421  0.3201 -0.2205 -0.3479
 2608TIP3    H129315   1.014   0.906   1.338  0.8028 -1.0055  0.1462
 2608TIP3    H229316   0.930   0.909   1.464 -1.2037  1.3937 -1.1537
 2609TIP3   OH229317   4.966   5.526  16.856  0.0249 -0.3750 -0.1674
 2609TIP3    H129318   4.972   5.601  16.914 -0.0664 -0.0639 -0.5547
 2609TIP3    H229319   4.873   5.512  16.843 -0.0014 -1.4965  1.0947
 2610TIP3   OH229320   2.967   2.063   2.076 -0.1081  0.5853  0.2034
 2610TIP3    H129321   2.998   2.140   2.029 -2.0434 -0.1058 -2.4236
 2610TIP3    H229322   3.036   1.997   2.061  0.9437  1.3588  1.3940
 2611TIP3   OH229323   5.162   0.619   2.925  0.5094 -0.3912  0.8353
 2611TIP3    H129324   5.177   0.529   2.897 -0.3178 -0.6783  1.2987
 2611TIP3    H229325   5.117   0.611   3.009  0.0280  0.4563  0.6699
 2612TIP3   OH229326   6.073   6.734   0.501 -0.1983 -0.2982 -0.1382
 2612TIP3    H129327   6.146   6.769   0.449  0.2792 -0.8426  0.1565
 2612TIP3    H229328   6.073   6.641   0.483  0.4171 -0.6176  1.3372
 2613TIP3   OH229329   2.282   0.944  15.211 -0.2710  0.0960  0.4446
 2613TIP3    H129330   2.213   0.878  15.216 -0.1903 -0.2396 -1.7361
 2613TIP3    H229331   2.362   0.897  15.235  0.0686 -1.1881 -2.6976
 2614TIP3   OH229332   1.926   5.993  15.315 -0.0504  0.1689  0.2037
 2614TIP3    H129333   1.833   6.015  15.311 -0.1725  0.2222  2.4142
 2614TIP3    H229334   1.928   5.904  15.349  0.6608 -1.3953 -3.4209
 2615TIP3   OH229335   3.620   2.309  13.539  0.0010 -0.1332 -0.2236
 2615TIP3    H129336   3.580   2.242  13.484  0.4707 -0.9428  0.4122
 2615TIP3    H229337   3.709   2.320  13.503  1.2384 -2.4996  1.8597
 2616TIP3   OH229338   4.195   0.427  14.506  0.1386 -0.0138  0.3807
 2616TIP3    H129339   4.119   0.465  14.463  1.2550  1.6044 -0.2669
 2616TIP3    H229340   4.201   0.339  14.471 -0.3991  0.4511 -0.9403
 2617TIP3   OH229341   5.386   0.090   2.450 -0.2991  0.4989 -0.3978
 2617TIP3    H129342   5.295   0.071   2.473 -0.4639 -1.1512 -2.1527
 2617TIP3    H229343   5.424   0.004   2.431  1.3590  1.2514 -0.6529
 2618TIP3   OH229344   1.998   6.129   0.448  0.5197 -0.5246  0.1016
 2618TIP3    H129345   2.087   6.164   0.454  0.1808  0.3352  0.1385
 2618TIP3    H229346   2.010   6.043   0.407  1.1698  0.4744 -1.9310
 2619TIP3   OH229347   0.115   3.772  15.293  0.4452  0.1927  0.0846
 2619TIP3    H129348   0.080   3.691  15.255  1.1177 -0.0898  0.0503
 2619TIP3    H229349   0.054   3.793  15.364  1.1898 -1.3187  1.2337
 2620TIP3   OH229350   4.597   0.755   4.676  0.4675 -0.2665 -0.0893
 2620TIP3    H129351   4.666   0.728   4.737  0.3300  2.3416  1.3578
 2620TIP3    H229352   4.643   0.769   4.593  1.2697 -0.6583  0.2734
 2621TIP3   OH229353   0.147   0.733   1.544  0.0360  1.0100 -0.0839
 2621TIP3    H129354   0.225   0.752   1.491 -1.1713 -0.2782 -2.4646
 2621TIP3    H229355   0.124   0.817   1.583  2.1653  1.5759  0.0559
 2622TIP3   OH229356   1.414   0.139  16.157 -0.0773  0.0575  0.0243
 2622TIP3    H129357   1.365   0.122  16.237  0.3209 -3.2769 -0.3061
 2622TIP3    H229358   1.377   0.079  16.092  1.7972  0.2887 -1.3448
 2623TIP3   OH229359   0.188   0.389   4.068  0.3151 -0.4097  0.1008
 2623TIP3    H129360   0.252   0.324   4.039  1.9669  0.6297  1.1937
 2623TIP3    H229361   0.135   0.344   4.133  2.8129 -0.2344  2.4703
 2624TIP3   OH229362   2.002   3.072  14.393 -0.0854 -0.3267  0.2896
 2624TIP3    H129363   1.925   3.032  14.353  0.1986  1.1183 -1.8560
 2624TIP3    H229364   1.987   3.166  14.388  1.7795 -0.0039 -0.1881
 2625TIP3   OH229365   5.112   1.634  12.699  0.3878  0.2480 -0.6324
 2625TIP3    H129366   5.124   1.708  12.639 -1.6663  1.3598  0.2085
 2625TIP3    H229367   5.021   1.607  12.685  0.9429 -1.8084 -0.5371
 2626TIP3   OH229368   0.038   5.973  11.203 -0.4511 -0.8189  0.0834
 2626TIP3    H129369  -0.003   5.942  11.122 -0.3168  0.2372 -0.4011
 2626TIP3    H229370   0.100   5.904  11.225 -1.2967 -1.6612 -0.0777
 2627TIP3   OH229371   6.022   4.303   5.063 -0.3164 -0.5062  0.0749
 2627TIP3    H129372   6.117   4.312   5.071 -0.5494  0.1827  3.2099
 2627TIP3    H229373   6.004   4.214   5.094 -0.8310  0.0986  1.5861
 2628TIP3   OH229374   2.560   0.534   2.119  0.2850 -0.4385 -0.2373
 2628TIP3    H129375   2.575   0.620   2.082  1.2473 -0.6248 -0.3074
 2628TIP3    H229376   2.583   0.543   2.212 -0.5030 -0.3927 -0.0402
 2629TIP3   OH229377   5.683   0.708  16.097  0.1599  0.1180  0.0310
 2629TIP3    H129378   5.739   0.739  16.169 -1.0408  0.6213  0.7860
 2629TIP3    H229379   5.594   0.714  16.132 -0.5375  1.1305 -1.7635
 2630TIP3   OH229380   1.341   1.282   0.099 -0.0187  0.5256 -0.8862
 2630TIP3    H129381   1.423   1.243   0.072  1.5263  1.4791  1.9771
 2630TIP3    H229382   1.276   1.213   0.085  1.9703 -1.8044  0.5316
 2631TIP3   OH229383   1.856   0.804   5.174  0.4552 -0.5512  0.8333
 2631TIP3    H129384   1.897   0.798   5.088 -0.2527 -0.3365  0.4742
 2631TIP3    H229385   1.884   0.889   5.208 -0.2981 -0.0665  0.2654
 2632TIP3   OH229386   4.434   4.629   4.706 -0.2198 -0.3222  0.6324
 2632TIP3    H129387   4.388   4.545   4.701 -0.7289  0.0107 -0.3612
 2632TIP3    H229388   4.452   4.640   4.800 -1.5899 -0.7676  0.9704
 2633TIP3   OH229389   2.093   4.652  10.807  0.3079 -0.0488 -0.4675
 2633TIP3    H129390   2.060   4.741  10.796 -3.8192 -1.2122  0.7980
 2633TIP3    H229391   2.092   4.615  10.719 -1.9914  0.0192 -0.5319
 2634TIP3   OH229392   2.092   4.905   3.717 -0.5908 -0.4503 -0.0449
 2634TIP3    H129393   2.148   4.959   3.661 -1.8693  2.1583  1.0007
 2634TIP3    H229394   2.008   4.904   3.673 -0.8444 -0.7918  0.4385
 2635TIP3   OH229395   6.409   6.084  15.962  0.2490 -0.6233 -0.0819
 2635TIP3    H129396   6.339   6.090  16.027 -0.4827  1.1509 -0.9500
 2635TIP3    H229397   6.470   6.154  15.986  0.8509 -1.0726 -0.2940
 2636TIP3   OH229398   1.805   5.721   5.088  0.5463 -0.2439 -0.7984
 2636TIP3    H129399   1.805   5.816   5.080  0.3271 -0.0192  1.4585
 2636TIP3    H229400   1.823   5.690   4.999  0.5903  1.8816 -1.5842
 2637TIP3   OH229401   4.716   5.554  11.957  0.1301 -0.0440 -0.3411
 2637TIP3    H129402   4.740   5.595  12.040  1.2553 -0.5026 -0.4343
 2637TIP3    H229403   4.657   5.482  11.982 -1.0798  0.9857 -0.1084
 2638TIP3   OH229404   0.895   3.001   1.877 -0.2508 -0.6620 -0.2627
 2638TIP3    H129405   0.849   2.946   1.941 -0.7035  0.7504  0.6577
 2638TIP3    H229406   0.911   3.083   1.923  0.6824 -0.1128 -1.5189
 2639TIP3   OH229407   1.490   1.660  17.187  0.2837 -0.2062  0.4662
 2639TIP3    H129408   1.423   1.644  17.254 -0.6932  1.1831 -0.1287
 2639TIP3    H229409   1.461   1.609  17.112  0.1106  0.0750  0.3418
 2640TIP3   OH229410   4.729   4.907  13.091  0.2275 -0.1158 -0.0460
 2640TIP3    H129411   4.728   4.992  13.136 -0.6779 -1.1468  2.0552
 2640TIP3    H229412   4.687   4.923  13.007  0.6339  1.6430  0.0605
 2641TIP3   OH229413   1.602   2.282  10.359  0.2433 -0.4323  0.4958
 2641TIP3    H129414   1.655   2.205  10.380 -0.2716 -0.5408  1.4774
 2641TIP3    H229415   1.520   2.246  10.325  1.1244 -0.2608 -2.0445
 2642TIP3   OH229416   0.998   1.728   2.739  1.0329  0.2458 -0.1358
 2642TIP3    H129417   1.081   1.680   2.738  0.7254 -0.2899  0.0099
 2642TIP3    H229418   0.931   1.661   2.743  0.6018  0.6947  0.3995
 2643TIP3   OH229419   6.301   4.028   3.533  0.0096  0.5156 -0.2544
 2643TIP3    H129420   6.240   4.100   3.547 -0.3335 -0.0889  1.5946
 2643TIP3    H229421   6.343   4.014   3.618 -0.2753 -1.7569 -0.4146
 2644TIP3   OH229422   6.324   2.910  12.718  0.3000 -0.1090  0.0240
 2644TIP3    H129423   6.321   2.877  12.628  0.6187  0.1029 -0.0653
 2644TIP3    H229424   6.235   2.944  12.733 -0.6071 -2.6035  0.7467
 2645TIP3   OH229425   1.393   2.887  13.883  0.0659  0.1727 -0.0572
 2645TIP3    H129426   1.340   2.909  13.806  0.0848  1.2292  0.2177
 2645TIP3    H229427   1.330   2.852  13.945 -0.1627  0.4934 -0.1017
 2646TIP3   OH229428   6.811   5.731   2.921  0.0327 -0.0967  0.2280
 2646TIP3    H129429   6.816   5.688   2.835  0.5879 -0.3331  0.3768
 2646TIP3    H229430   6.880   5.796   2.919 -0.1065  0.0548  0.4119
 2647TIP3   OH229431   3.648   1.662   1.549  0.0526 -0.3187 -0.3989
 2647TIP3    H129432   3.738   1.671   1.518  0.7280 -0.4411  1.3887
 2647TIP3    H229433   3.655   1.606   1.626 -1.6048 -0.5558 -0.3861
 2648TIP3   OH229434   3.599   4.669   4.863  0.1281 -0.0430 -0.0033
 2648TIP3    H129435   3.576   4.750   4.817  0.7718 -1.3709 -2.9378
 2648TIP3    H229436   3.552   4.674   4.946 -0.8655  2.7371 -0.6176
 2649TIP3   OH229437   2.119   6.660   3.773 -0.7200  0.0651 -0.5170
 2649TIP3    H129438   2.186   6.722   3.743 -0.1482 -0.8717 -1.2601
 2649TIP3    H229439   2.037   6.708   3.766 -0.2659  0.8139 -0.8448
 2650TIP3   OH229440   3.109   3.969  13.264 -0.2730  0.5481 -0.7021
 2650TIP3    H129441   3.055   3.977  13.343 -1.9426 -1.0041 -1.6316
 2650TIP3    H229442   3.091   3.881  13.231  1.9467  0.4100 -1.7399
 2651TIP3   OH229443   4.707   4.090   5.400  0.2026  0.2042  0.3436
 2651TIP3    H129444   4.721   3.997   5.384 -1.0293 -0.2925  1.8897
 2651TIP3    H229445   4.775   4.113   5.464 -1.0744 -0.3069  1.9411
 2652TIP3   OH229446   6.815   2.662  17.200 -0.0093 -0.2913  0.5259
 2652TIP3    H129447   6.737   2.684  17.250  0.1375 -1.7021  1.4434
 2652TIP3    H229448   6.781   2.633  17.115 -0.3380  0.9027  0.2252
 2653TIP3   OH229449   2.174   4.797  13.928 -0.3712  0.0016 -0.3840
 2653TIP3    H129450   2.238   4.732  13.957 -1.4412 -0.7588  0.3508
 2653TIP3    H229451   2.110   4.802  13.999 -0.8679  1.1108 -0.8786
 2654TIP3   OH229452   3.116   3.202  16.863 -0.1079 -0.5962 -0.1693
 2654TIP3    H129453   3.155   3.259  16.930 -3.7529  0.7232  1.0586
 2654TIP3    H229454   3.152   3.115  16.881  1.4912  0.3342  1.4046
 2655TIP3   OH229455   5.024   4.525   6.349  0.0340  0.1635  0.7393
 2655TIP3    H129456   5.010   4.611   6.390  1.1693  0.7566 -0.0774
 2655TIP3    H229457   5.117   4.508   6.360  0.0217 -0.4656 -0.0631
 2656TIP3   OH229458   2.887   4.548   1.460 -0.4185  0.2353  0.0079
 2656TIP3    H129459   2.812   4.543   1.400 -0.2787  0.5228 -0.1919
 2656TIP3    H229460   2.847   4.546   1.547 -0.8163  2.1696 -0.0784
 2657TIP3   OH229461   6.119   4.733   1.318  0.2625  0.3032 -0.1473
 2657TIP3    H129462   6.096   4.793   1.247 -0.5674  0.2509  0.0758
 2657TIP3    H229463   6.068   4.763   1.393  3.5357  2.4716  1.4582
 2658TIP3   OH229464   3.693   6.661   2.631 -0.7521 -0.2506  0.0252
 2658TIP3    H129465   3.674   6.751   2.604 -1.6923 -0.3179  0.3944
 2658TIP3    H229466   3.787   6.651   2.619 -0.9639  0.0225 -2.2932
 2659TIP3   OH229467   2.960   4.280  16.474 -0.0501  0.2112  0.0163
 2659TIP3    H129468   3.032   4.339  16.497 -0.2722  0.1690  0.8451
 2659TIP3    H229469   3.004   4.204  16.435  0.2572  0.7696 -0.7621
 2660TIP3   OH229470   5.718   1.048   2.726 -0.3596 -0.0234 -0.6767
 2660TIP3    H129471   5.775   1.009   2.792 -0.1753 -0.8072 -1.2807
 2660TIP3    H229472   5.656   1.101   2.775  0.8369  0.7934  0.0107
 2661TIP3   OH229473   1.297   1.640   2.500 -0.4235 -0.7426  0.3771
 2661TIP3    H129474   1.269   1.621   2.589 -1.8795 -1.0274 -0.1206
 2661TIP3    H229475   1.356   1.715   2.509 -2.7331  1.1067  1.3515
 2662TIP3   OH229476   5.728   2.297  17.042  0.1995 -0.3113  0.0427
 2662TIP3    H129477   5.756   2.224  17.096  0.3571 -0.3926 -0.1481
 2662TIP3    H229478   5.799   2.360  17.047  0.3959 -0.4955 -0.3981
 2663TIP3   OH229479   6.354   1.834  15.285 -0.2194 -0.6456  0.1377
 2663TIP3    H129480   6.433   1.847  15.233 -0.8676 -2.0842 -1.3116
 2663TIP3    H229481   6.369   1.884  15.366  2.0945 -0.7788 -0.1470
 2664TIP3   OH229482   6.065   0.038  14.195 -0.0360  0.2872 -0.3405
 2664TIP3    H129483   6.039   0.096  14.266 -1.3708  0.7984 -1.2144
 2664TIP3    H229484   5.990  -0.021  14.183  0.7837 -0.7859 -0.3302
 2665TIP3   OH229485   0.556   2.058  14.697 -0.1915 -0.8862  0.5072
 2665TIP3    H129486   0.552   1.968  14.729  0.8079 -0.5636  1.6360
 2665TIP3    H229487   0.637   2.063  14.647 -0.1125 -0.5558  0.6605
 2666TIP3   OH229488   1.535   3.700  12.214  0.3968 -0.0997  0.0530
 2666TIP3    H129489   1.497   3.783  12.184 -1.2993 -1.2062 -1.0125
 2666TIP3    H229490   1.602   3.680  12.148  0.8296  0.4225  0.3264
 2667TIP3   OH229491   6.373   5.080  11.773  0.0220 -0.0247 -0.7258
 2667TIP3    H129492   6.396   5.077  11.680 -1.3153 -1.7950 -1.0673
 2667TIP3    H229493   6.365   5.173  11.794  0.4907  0.4039 -2.3246
 2668TIP3   OH229494   5.759   0.802  11.301 -0.1435  0.3572  0.0082
 2668TIP3    H129495   5.678   0.774  11.343 -0.2032 -0.4335 -0.6109
 2668TIP3    H229496   5.735   0.821  11.211  0.7262 -2.0618 -0.8066
 2669TIP3   OH229497   5.158   1.726   2.140 -0.6130  0.0326 -0.1081
 2669TIP3    H129498   5.107   1.652   2.108 -0.7576 -0.2960  0.8433
 2669TIP3    H229499   5.093   1.787   2.175 -0.3780 -0.7437  1.8530
 2670TIP3   OH229500   2.762   2.814   5.616 -0.5232 -0.5445 -0.4890
 2670TIP3    H129501   2.782   2.843   5.527  0.6635 -1.5435 -0.5640
 2670TIP3    H229502   2.745   2.721   5.609 -0.8196 -0.5616  0.2762
 2671TIP3   OH229503   6.601   0.131   1.811  0.7655 -0.0890 -0.0902
 2671TIP3    H129504   6.677   0.138   1.869  0.5808  0.7076  0.0768
 2671TIP3    H229505   6.574   0.222   1.797 -0.5657 -0.3735  0.4177
 2672TIP3   OH229506   6.096   5.795  11.972 -0.0413  0.5623 -0.0249
 2672TIP3    H129507   6.106   5.711  12.016 -1.3832  0.9855  1.1668
 2672TIP3    H229508   6.046   5.849  12.033  1.6832  2.6208 -0.2751
 2673TIP3   OH229509   6.000   1.179  12.780 -0.3257  0.1977 -0.7413
 2673TIP3    H129510   5.912   1.215  12.766 -0.2995  0.3391 -0.5583
 2673TIP3    H229511   6.056   1.231  12.722 -0.2890  0.4512 -0.4841
 2674TIP3   OH229512   6.729   2.208   0.744  1.1457 -0.1024  0.2222
 2674TIP3    H129513   6.648   2.164   0.719 -0.9032  1.8955  2.6846
 2674TIP3    H229514   6.779   2.141   0.792  1.0904 -1.3827 -1.4011
 2675TIP3   OH229515   6.250   3.969   1.327  0.6864  0.0308 -0.3691
 2675TIP3    H129516   6.232   4.044   1.384 -0.0755 -0.3351 -0.1146
 2675TIP3    H229517   6.205   3.896   1.369  1.0974 -0.4946 -0.8238
 2676TIP3   OH229518   0.412   2.333  13.675  0.7348  0.5642  0.5252
 2676TIP3    H129519   0.419   2.419  13.715 -0.1836  0.7540  0.2907
 2676TIP3    H229520   0.484   2.283  13.713 -0.5800  0.4748  3.0807
 2677TIP3   OH229521   4.986   6.460  12.354 -0.0051  0.0504  0.2935
 2677TIP3    H129522   4.940   6.487  12.434  1.7736 -0.0733  1.4244
 2677TIP3    H229523   5.013   6.542  12.313 -0.3392  0.0991  0.1658
 2678TIP3   OH229524   3.441   1.318  11.481  0.3047  0.1408  0.2723
 2678TIP3    H129525   3.512   1.349  11.538 -0.8212 -0.4722  2.1313
 2678TIP3    H229526   3.454   1.364  11.398  2.3645  0.6667  0.8264
 2679TIP3   OH229527   2.184   1.628   4.465 -0.0821 -0.2429  0.4097
 2679TIP3    H129528   2.197   1.615   4.371 -0.5018  0.0972  0.3053
 2679TIP3    H229529   2.269   1.607   4.503  0.0050 -0.7041 -0.0117
 2680TIP3   OH229530   1.790   5.388   0.715  0.2496 -0.0173 -0.2512
 2680TIP3    H129531   1.825   5.446   0.782  0.8827  0.0206 -0.6092
 2680TIP3    H229532   1.695   5.397   0.723  0.2750 -0.8394  1.3622
 2681TIP3   OH229533   3.846   1.973   1.081  0.1662  0.1764  0.2119
 2681TIP3    H129534   3.829   1.939   0.993 -0.1066  1.6416 -0.3251
 2681TIP3    H229535   3.813   1.905   1.140  0.1920 -0.7439 -0.8122
 2682TIP3   OH229536   4.590   3.688  12.730  0.0214  0.2720  0.1794
 2682TIP3    H129537   4.528   3.706  12.660 -1.0141 -0.1008  0.9734
 2682TIP3    H229538   4.638   3.770  12.742 -0.6976  0.7308 -0.0728
 2683TIP3   OH229539   4.253   6.386   3.251 -0.5334 -0.2140 -0.1193
 2683TIP3    H129540   4.198   6.461   3.273  0.4623  0.6386 -0.4290
 2683TIP3    H229541   4.220   6.356   3.166  0.3359  1.1797 -0.9903
 2684TIP3   OH229542   0.762   0.571  12.755 -0.6304 -0.5849 -0.2369
 2684TIP3    H129543   0.766   0.477  12.734  3.8022 -0.5942 -0.3650
 2684TIP3    H229544   0.762   0.614  12.669  0.5363 -0.5314 -0.2227
 2685TIP3   OH229545   6.499   1.806   2.098 -0.2589  0.0756 -0.0333
 2685TIP3    H129546   6.406   1.820   2.078 -0.5240 -1.5152 -0.0627
 2685TIP3    H229547   6.499   1.774   2.189  0.1770 -0.7506 -0.3169
 2686TIP3   OH229548   5.979   3.293   5.056  0.2277  0.2900  0.4546
 2686TIP3    H129549   5.945   3.326   5.140 -1.2375 -0.3105  0.1326
 2686TIP3    H229550   6.064   3.335   5.047  0.5289  0.1824  2.3554
 2687TIP3   OH229551   5.919   3.050   3.304 -0.6448 -0.5637  0.3931
 2687TIP3    H129552   5.855   3.091   3.362 -1.9127 -1.3732 -0.3828
 2687TIP3    H229553   5.880   3.055   3.217  1.2284  0.6307 -0.4382
 2688TIP3   OH229554   6.288   3.786   0.179  0.0814 -0.0657 -0.4401
 2688TIP3    H129555   6.208   3.805   0.131  0.0702  0.3030 -0.2753
 2688TIP3    H229556   6.273   3.699   0.216 -0.5189  0.2840  0.1538
 2689TIP3   OH229557   2.195   6.033  13.865 -0.3962 -1.2084  0.4744
 2689TIP3    H129558   2.124   6.027  13.801  0.8032 -1.1230 -0.9139
 2689TIP3    H229559   2.252   5.959  13.845  0.3004 -0.8411  1.0661
 2690TIP3   OH229560   4.537   0.129   0.959 -0.1322  0.1312  0.0404
 2690TIP3    H129561   4.611   0.100   0.906 -0.1242  0.5035 -0.1574
 2690TIP3    H229562   4.576   0.189   1.023 -0.2927  0.5149 -0.2163
 2691TIP3   OH229563   3.378   0.192  14.691  0.4943 -0.2339 -0.0214
 2691TIP3    H129564   3.354   0.282  14.711 -1.6720 -0.8242  0.3449
 2691TIP3    H229565   3.316   0.139  14.741  2.1515 -1.9525  0.3132
 2692TIP3   OH229566   0.155   6.469   1.885 -0.0436 -0.3085 -0.5078
 2692TIP3    H129567   0.109   6.400   1.933  1.6275 -0.9479  0.2523
 2692TIP3    H229568   0.124   6.551   1.924  2.2685 -0.8251  2.7751
 2693TIP3   OH229569   1.314   5.539   6.043 -0.0766 -0.3213 -0.2642
 2693TIP3    H129570   1.270   5.469   5.995 -0.3167 -0.7250  0.5344
 2693TIP3    H229571   1.391   5.498   6.082 -0.6247 -0.3289  0.8350
 2694TIP3   OH229572   0.838   4.282  13.001 -0.7162 -0.0663 -0.5251
 2694TIP3    H129573   0.745   4.266  12.984 -0.5654  1.2129 -2.8750
 2694TIP3    H229574   0.881   4.266  12.917  1.1211  0.1183  0.3260
 2695TIP3   OH229575   3.818   2.921  14.881 -0.5634  0.0535 -0.1591
 2695TIP3    H129576   3.888   2.961  14.933 -1.2465  0.1648  0.7181
 2695TIP3    H229577   3.797   2.987  14.815  2.0391 -1.0841 -2.2958
 2696TIP3   OH229578   3.737   2.036  10.365  0.0417  1.0072  0.8243
 2696TIP3    H129579   3.829   2.059  10.380  0.2884  1.5932 -1.1821
 2696TIP3    H229580   3.738   1.941  10.350  0.6618  1.2527 -0.9946
 2697TIP3   OH229581   2.226   3.453  16.029  0.0202 -0.1004 -0.2478
 2697TIP3    H129582   2.173   3.389  15.981  0.3894 -0.4157 -0.2378
 2697TIP3    H229583   2.177   3.535  16.021  0.2063 -0.0805 -1.3836
 2698TIP3   OH229584   1.331   0.007  12.838 -0.2886  0.5276 -0.6302
 2698TIP3    H129585   1.254   0.035  12.788 -0.3165  0.4640 -0.6229
 2698TIP3    H229586   1.401   0.066  12.809 -0.3183  0.5274 -0.7043
 2699TIP3   OH229587   2.883   6.628   6.290  0.0931  0.4907  0.2939
 2699TIP3    H129588   2.908   6.610   6.200 -1.6625  2.5614 -0.7010
 2699TIP3    H229589   2.787   6.634   6.287 -0.2205 -1.5629  2.7607
 2700TIP3   OH229590   0.339   3.216   5.800 -0.4831  0.1294 -0.5031
 2700TIP3    H129591   0.331   3.274   5.876 -0.3939 -0.7484  0.1898
 2700TIP3    H229592   0.425   3.236   5.763 -0.7789  0.9893 -0.7402
 2701TIP3   OH229593   1.874   0.625  14.186 -0.3023 -1.0649 -0.1232
 2701TIP3    H129594   1.918   0.706  14.160  0.8185 -1.2541  1.0611
 2701TIP3    H229595   1.794   0.654  14.230 -0.4434 -0.6389 -0.6641
 2702TIP3   OH229596   6.794   5.963  12.735 -0.2028  0.3510 -0.0916
 2702TIP3    H129597   6.783   5.873  12.768  0.3013  0.6087  0.8010
 2702TIP3    H229598   6.752   5.961  12.649 -0.1992 -0.7441 -0.0921
 2703TIP3   OH229599   4.825   0.169   5.794  0.0389  0.1683 -0.4502
 2703TIP3    H129600   4.830   0.076   5.774 -1.6465  0.1411 -0.8506
 2703TIP3    H229601   4.791   0.210   5.715  0.0330  1.0251 -0.0247
 2704TIP3   OH229602   0.984   1.781  15.367 -0.6290  0.0938  0.2175
 2704TIP3    H129603   1.010   1.791  15.459 -1.0583  0.0086  0.3518
 2704TIP3    H229604   0.935   1.861  15.347  0.5722  0.7109 -0.3280
 2705TIP3   OH229605   0.114   2.595  14.812  0.4383  0.5053 -0.0791
 2705TIP3    H129606   0.080   2.535  14.879  0.4610  1.5030  0.8503
 2705TIP3    H229607   0.183   2.545  14.768 -0.7999 -0.8112 -0.6076
 2706TIP3   OH229608   1.284   1.017   1.495  0.2971 -0.1870  0.2234
 2706TIP3    H129609   1.202   0.987   1.533 -0.9720  1.8109 -0.7573
 2706TIP3    H229610   1.300   0.959   1.421 -2.0965  1.3266 -1.6477
 2707TIP3   OH229611   1.340   0.072  13.180  0.1789 -0.3696  0.0621
 2707TIP3    H129612   1.354  -0.017  13.149 -1.8710 -1.7975  2.7993
 2707TIP3    H229613   1.427   0.102  13.208  1.5277 -0.0994 -3.8298
 2708TIP3   OH229614   1.591   3.659   0.539  0.1061  0.2894 -0.1204
 2708TIP3    H129615   1.677   3.668   0.498  0.6737  0.2137  1.0183
 2708TIP3    H229616   1.589   3.570   0.574 -2.2828 -1.4863 -4.1257
 2709TIP3   OH229617   2.233   3.452   1.248 -0.2077  0.6283 -0.5254
 2709TIP3    H129618   2.269   3.371   1.283 -1.1608 -0.1046 -1.2005
 2709TIP3    H229619   2.305   3.490   1.197 -0.3947 -0.9357 -2.0633
 2710TIP3   OH229620   3.463   0.845   3.763 -0.6653 -0.1536  0.4735
 2710TIP3    H129621   3.553   0.869   3.742 -1.1749  0.1986 -1.6129
 2710TIP3    H229622   3.436   0.908   3.830  0.0079  1.1294 -0.4118
 2711TIP3   OH229623   5.806   3.540   4.468 -0.1278 -0.4389 -0.0806
 2711TIP3    H129624   5.768   3.531   4.381  0.4054 -2.3923 -0.1348
 2711TIP3    H229625   5.732   3.569   4.522 -0.9630 -1.1871 -0.7829
 2712TIP3   OH229626   6.721   5.585   4.599  0.4012  0.5540 -0.7557
 2712TIP3    H129627   6.810   5.615   4.578  1.7310 -1.0348  1.9416
 2712TIP3    H229628   6.716   5.498   4.558  0.2770  0.4506 -0.5199
 2713TIP3   OH229629   4.490   2.303   2.667 -0.3860  0.0481  0.2012
 2713TIP3    H129630   4.570   2.250   2.675 -0.1582  0.1014 -1.4103
 2713TIP3    H229631   4.421   2.246   2.702  0.4981  0.5121  2.8922
 2714TIP3   OH229632   3.094   3.464  12.332  0.1486  0.4390  0.0579
 2714TIP3    H129633   3.026   3.515  12.375 -0.3552  0.3781 -0.6570
 2714TIP3    H229634   3.140   3.526  12.276 -0.7460  0.0376 -1.1474
 2715TIP3   OH229635   1.829   2.521   2.745 -0.3326  0.6269 -0.6578
 2715TIP3    H129636   1.899   2.464   2.715  0.3656  0.7583  0.6248
 2715TIP3    H229637   1.749   2.470   2.735  0.0787  0.0680 -1.1086
 2716TIP3   OH229638   2.125   3.424   5.458  0.1794  0.6140  0.4014
 2716TIP3    H129639   2.056   3.365   5.487  0.0165  0.8275  0.4468
 2716TIP3    H229640   2.128   3.492   5.525 -1.2362  1.9628 -0.8231
 2717TIP3   OH229641   0.336   2.774   3.076 -0.2010 -0.0541 -0.5406
 2717TIP3    H129642   0.249   2.739   3.056 -1.0986  1.7048  0.0626
 2717TIP3    H229643   0.393   2.737   3.008 -1.8531  0.4898 -2.3061
 2718TIP3   OH229644   1.491   2.037  13.661  0.2105  0.3095  0.0829
 2718TIP3    H129645   1.460   2.053  13.572  1.5599  1.9678 -0.1514
 2718TIP3    H229646   1.575   1.994  13.650 -0.3050 -0.8859  0.6271
 2719TIP3   OH229647   5.981   1.417   6.310  0.1007  0.0679 -0.1894
 2719TIP3    H129648   5.958   1.352   6.377 -1.9862 -0.5916 -1.4343
 2719TIP3    H229649   6.074   1.434   6.323 -0.0067 -0.7917  2.2022
 2720TIP3   OH229650   0.697   2.841  11.892  0.0176 -0.2745 -0.1122
 2720TIP3    H129651   0.689   2.751  11.924  1.6436 -0.4732 -0.1827
 2720TIP3    H229652   0.760   2.881  11.951 -2.1466  1.4729  1.1902
 2721TIP3   OH229653   6.223   5.455  13.879 -0.5083  0.2414  0.1769
 2721TIP3    H129654   6.192   5.374  13.838 -2.0679  1.1887 -0.6166
 2721TIP3    H229655   6.160   5.522  13.851  0.5367  1.6709  1.0923
 2722TIP3   OH229656   3.901   3.696  12.226  0.5238 -0.2572 -0.1846
 2722TIP3    H129657   3.811   3.680  12.201  0.8391 -3.4059  0.2420
 2722TIP3    H229658   3.927   3.774  12.177 -2.0114 -0.0018 -1.2617
 2723TIP3   OH229659   1.220   0.600  11.139  0.2257 -0.1329  0.0703
 2723TIP3    H129660   1.272   0.653  11.200 -2.0585  0.4843  1.6231
 2723TIP3    H229661   1.224   0.511  11.175 -1.2615  0.2605  1.3507
 2724TIP3   OH229662   1.657   5.862  15.041  0.1437 -0.2537 -0.0487
 2724TIP3    H129663   1.721   5.933  15.039 -0.7607  0.5834 -0.0238
 2724TIP3    H229664   1.699   5.793  15.091  0.7188  0.5811  0.6475
 2725TIP3   OH229665   3.660   0.252   1.591  0.2598 -0.9559 -0.3531
 2725TIP3    H129666   3.650   0.175   1.647 -3.3861  0.0326  0.6388
 2725TIP3    H229667   3.716   0.311   1.642  0.4673 -1.7082  0.3194
 2726TIP3   OH229668   2.568   1.100  10.670 -0.9420  0.4022 -0.3924
 2726TIP3    H129669   2.498   1.145  10.717  1.5916  1.5593  2.6522
 2726TIP3    H229670   2.575   1.015  10.713  0.1040  0.6929  0.0612
 2727TIP3   OH229671   2.875   1.110  16.620 -0.3785  0.2312  0.0860
 2727TIP3    H129672   2.841   1.136  16.706 -1.2259 -1.0128  0.1523
 2727TIP3    H229673   2.829   1.167  16.558 -1.3841 -0.3231  0.3067
 2728TIP3   OH229674   1.366   4.011   3.280  0.2332  0.2933  0.0565
 2728TIP3    H129675   1.328   4.095   3.304  1.8438  1.2845 -0.7437
 2728TIP3    H229676   1.377   4.016   3.185 -1.4216 -1.6094 -0.3218
 2729TIP3   OH229677   0.916   6.357   4.058  0.0849  0.1909  0.3281
 2729TIP3    H129678   0.896   6.272   4.019 -0.1094  0.8641 -1.0835
 2729TIP3    H229679   1.012   6.363   4.055  0.1292 -0.1920  0.9096
 2730TIP3   OH229680   1.107   5.539   2.678  0.1747 -0.7383  0.0346
 2730TIP3    H129681   1.061   5.622   2.692  0.2203 -0.9256  1.4170
 2730TIP3    H229682   1.145   5.548   2.590 -0.8416  0.1988 -0.3414
 2731TIP3   OH229683   5.726   1.966   2.385 -0.3881  0.2432 -0.2175
 2731TIP3    H129684   5.766   1.952   2.471  0.9709 -0.8089 -0.9788
 2731TIP3    H229685   5.682   1.883   2.365  1.8901 -0.6922 -1.7963
 2732TIP3   OH229686   1.307   2.020  14.430 -0.4339 -0.4872  0.4310
 2732TIP3    H129687   1.310   2.014  14.335 -0.9151 -0.5506  0.4211
 2732TIP3    H229688   1.391   1.983  14.458 -0.3548 -0.6110  0.0412
 2733TIP3   OH229689   5.399   1.899   2.510 -0.8013 -0.0819 -0.2476
 2733TIP3    H129690   5.488   1.911   2.544 -0.8138  2.4012 -0.9107
 2733TIP3    H229691   5.360   1.834   2.569  0.2063  1.6706  2.5668
 2734TIP3   OH229692   1.440   3.789  14.154  0.4994 -0.1432 -0.5097
 2734TIP3    H129693   1.488   3.833  14.225 -1.2674 -1.1059  1.4096
 2734TIP3    H229694   1.483   3.704  14.145  0.2742 -0.3122 -0.0391
 2735TIP3   OH229695   0.740   5.922  15.358 -0.1592  0.5226  0.3795
 2735TIP3    H129696   0.819   5.976  15.354 -0.5070  1.0120 -0.0450
 2735TIP3    H229697   0.668   5.984  15.345 -0.4830 -0.2949 -2.6492
 2736TIP3   OH229698   3.630   3.341   5.387 -0.3844 -0.3248  0.2328
 2736TIP3    H129699   3.612   3.255   5.425  0.2806 -0.5834 -0.0284
 2736TIP3    H229700   3.546   3.386   5.390 -0.3400 -0.2789  2.1281
 2737TIP3   OH229701   3.969   3.050  15.062 -0.3077 -0.9609  0.0646
 2737TIP3    H129702   3.937   3.111  15.128 -1.2674 -0.7918 -0.5433
 2737TIP3    H229703   4.029   2.992  15.111  1.2080  0.8699  0.5078
 2738TIP3   OH229704   1.151   2.056   0.393 -0.3181 -0.3238  0.0219
 2738TIP3    H129705   1.222   2.119   0.399 -1.1702  0.6617 -0.0905
 2738TIP3    H229706   1.083   2.091   0.450 -2.1486  0.7010 -2.6231
 2739TIP3   OH229707   5.344   2.658  15.282  0.1413  0.2315 -0.2573
 2739TIP3    H129708   5.371   2.745  15.310 -1.6603  1.1289 -1.1416
 2739TIP3    H229709   5.381   2.649  15.194 -0.9371  0.7694 -0.7870
 2740TIP3   OH229710   0.783   4.025   1.860  0.2283  0.2062  0.0074
 2740TIP3    H129711   0.764   4.118   1.869 -0.8802  0.0406 -0.4010
 2740TIP3    H229712   0.739   3.999   1.779  0.2537 -0.7349  0.2745
 2741TIP3   OH229713   5.745   5.156  14.685  0.2168 -0.0717  0.0105
 2741TIP3    H129714   5.653   5.130  14.680  0.3398 -0.3580 -1.0080
 2741TIP3    H229715   5.745   5.249  14.662  0.1543  0.0025  0.3044
 2742TIP3   OH229716   0.093   0.565  16.532 -0.2333  1.1568  0.3237
 2742TIP3    H129717   0.056   0.485  16.496 -0.7230  1.6449 -0.2739
 2742TIP3    H229718   0.018   0.623  16.543 -0.1137  1.0210  2.1862
 2743TIP3   OH229719   1.460   4.230   0.132 -0.1141  1.0794 -0.3094
 2743TIP3    H129720   1.405   4.300   0.098 -1.6994  0.4023  0.7784
 2743TIP3    H229721   1.446   4.232   0.227  2.5181  1.5114  0.1631
 2744TIP3   OH229722   1.452   0.290   3.663  0.3306  0.1133 -0.6599
 2744TIP3    H129723   1.426   0.327   3.748  1.0915  1.9047 -1.1781
 2744TIP3    H229724   1.534   0.244   3.681  1.2196  1.6491 -0.6553
 2745TIP3   OH229725   6.765   0.343  16.107  0.5360 -0.3607  0.0883
 2745TIP3    H129726   6.826   0.417  16.104  2.3037 -1.7358  0.0917
 2745TIP3    H229727   6.722   0.344  16.022  1.4887 -0.0529 -0.4112
 2746TIP3   OH229728   2.535   2.949   4.159  0.4233 -0.3815  0.3654
 2746TIP3    H129729   2.615   2.928   4.110 -0.3070  0.0517 -1.0848
 2746TIP3    H229730   2.508   3.034   4.126 -0.5154 -0.4127  1.0051
 2747TIP3   OH229731   2.055   4.707  16.131  0.2611 -0.1437 -0.1772
 2747TIP3    H129732   1.971   4.751  16.144  0.1178 -0.5616  0.3858
 2747TIP3    H229733   2.075   4.719  16.038 -1.1432 -1.2877 -0.6789
 2748TIP3   OH229734   0.400   0.231   3.395  0.5073  0.2636  0.2487
 2748TIP3    H129735   0.381   0.144   3.360  0.1388  0.2492  0.4735
 2748TIP3    H229736   0.349   0.291   3.341  0.6310  0.3240  0.1990
 2749TIP3   OH229737   1.230   1.692  13.444  0.2044  0.2527 -0.4390
 2749TIP3    H129738   1.161   1.626  13.441  1.9372 -2.0413  3.0585
 2749TIP3    H229739   1.297   1.660  13.384  0.2286 -0.1410 -0.2040
 2750TIP3   OH229740   5.585   4.935   2.031  0.0105 -0.1161  0.0779
 2750TIP3    H129741   5.530   4.949   1.954  0.1810  3.2768  0.4320
 2750TIP3    H229742   5.538   4.869   2.082 -2.0213  0.2499 -1.1950
 2751TIP3   OH229743   6.341   5.279   2.443 -0.1661  0.7104 -0.2469
 2751TIP3    H129744   6.303   5.367   2.450  0.0222  0.6894  1.2131
 2751TIP3    H229745   6.298   5.241   2.366 -1.3909  1.5110  0.0131
 2752TIP3   OH229746   3.306   6.742   0.235  0.1940 -0.4424 -0.2268
 2752TIP3    H129747   3.249   6.818   0.232  1.2942  0.3608 -1.1833
 2752TIP3    H229748   3.259   6.675   0.185  0.1921  0.2865 -1.2267
 2753TIP3   OH229749   1.973   2.136   0.859  0.0612  0.0247  0.7231
 2753TIP3    H129750   1.913   2.133   0.933 -0.6810  3.5077  0.4398
 2753TIP3    H229751   1.924   2.097   0.787 -0.6306 -0.1053  1.2489
 2754TIP3   OH229752   1.624   0.146   5.062 -0.7233 -0.4298 -1.1907
 2754TIP3    H129753   1.609   0.103   4.977 -1.9024 -1.0998 -0.6670
 2754TIP3    H229754   1.537   0.148   5.103 -0.5690  1.7889 -0.8651
 2755TIP3   OH229755   3.717   3.842  14.860  0.1112 -0.3900  0.0183
 2755TIP3    H129756   3.786   3.850  14.926  1.3518 -1.1955 -1.1220
 2755TIP3    H229757   3.763   3.812  14.782 -1.5027 -0.6088 -0.8828
 2756TIP3   OH229758   3.719   0.276   0.514  0.0255 -0.2862  0.1599
 2756TIP3    H129759   3.720   0.312   0.426  0.3629 -1.3916 -0.3044
 2756TIP3    H229760   3.766   0.193   0.507  0.5946 -0.1083  1.5032
 2757TIP3   OH229761   3.194   6.207   6.061 -0.0878 -0.2172  0.0985
 2757TIP3    H129762   3.171   6.116   6.044  0.6568 -0.5403  0.7740
 2757TIP3    H229763   3.283   6.217   6.028 -0.9042  0.8710 -1.9420
 2758TIP3   OH229764   6.183   5.033  13.206 -0.1570  0.1004  0.4793
 2758TIP3    H129765   6.170   5.055  13.298 -0.6620  0.9248  0.2232
 2758TIP3    H229766   6.174   4.938  13.203  0.7095 -0.0283  1.4051
 2759TIP3   OH229767   3.283   3.556  14.208 -0.3879  0.3890  0.3812
 2759TIP3    H129768   3.260   3.463  14.208  0.0647  0.2647  1.1398
 2759TIP3    H229769   3.278   3.582  14.117 -1.7303 -0.0759  0.2961
 2760TIP3   OH229770   3.076   0.268  12.536  0.4172 -0.6386 -0.0665
 2760TIP3    H129771   3.011   0.202  12.563  0.1255 -1.0493 -1.6978
 2760TIP3    H229772   3.106   0.239  12.450  0.8599  0.9485 -0.4836
 2761TIP3   OH229773   4.598   1.504   4.668  0.0264  0.3376  0.6878
 2761TIP3    H129774   4.562   1.416   4.676 -0.0389  0.2466 -0.4511
 2761TIP3    H229775   4.524   1.562   4.688 -0.2992  0.1312  0.1360
 2762TIP3   OH229776   3.173   2.171  13.003  0.1278  0.0396 -0.8374
 2762TIP3    H129777   3.179   2.075  12.997  1.0060  0.1549 -2.8992
 2762TIP3    H229778   3.202   2.201  12.917 -0.0102  2.1824 -0.1778
 2763TIP3   OH229779   6.651   0.767  16.942  0.1549 -0.1031 -0.0757
 2763TIP3    H129780   6.723   0.735  16.997  0.1947 -0.8685 -0.5609
 2763TIP3    H229781   6.590   0.694  16.938  0.4582 -0.3085 -1.5708
 2764TIP3   OH229782   4.627   0.618   1.099  0.0210  0.0903 -0.4497
 2764TIP3    H129783   4.718   0.647   1.101  0.0039  0.1185  1.3098
 2764TIP3    H229784   4.589   0.664   1.024  1.4184  0.1263 -1.1754
 2765TIP3   OH229785   0.881   1.435  11.557 -0.2993  0.0646  0.5180
 2765TIP3    H129786   0.838   1.421  11.641  1.1006  0.2189  1.2825
 2765TIP3    H229787   0.816   1.482  11.505 -0.6448  1.3451  2.0375
 2766TIP3   OH229788   1.168   4.119  15.836 -0.4887  0.0201  0.1699
 2766TIP3    H129789   1.160   4.070  15.918 -0.3973  2.2475  1.5851
 2766TIP3    H229790   1.255   4.096  15.802 -0.9589 -1.7617  0.0762
 2767TIP3   OH229791   0.502   3.761   1.482  0.1419  0.5856  0.2970
 2767TIP3    H129792   0.515   3.682   1.534 -0.2119 -1.0759 -1.9880
 2767TIP3    H229793   0.497   3.730   1.392 -1.6013  3.0527 -0.5590
 2768TIP3   OH229794   1.944   0.840  16.331  0.3133  0.0077 -0.1700
 2768TIP3    H129795   1.962   0.925  16.292 -0.7902 -0.4250 -1.7323
 2768TIP3    H229796   2.002   0.835  16.407  0.4218  2.1159 -0.0687
 2769TIP3   OH229797   3.935   5.493  16.644 -0.0784  0.0591 -0.3575
 2769TIP3    H129798   3.890   5.544  16.712 -0.2344  0.2217 -0.5813
 2769TIP3    H229799   4.027   5.522  16.649 -0.2628  0.7515 -0.8327
 2770TIP3   OH229800   2.958   1.208   5.127 -0.2590  0.3376 -0.0704
 2770TIP3    H129801   3.054   1.215   5.128 -0.1975 -0.4998  0.5120
 2770TIP3    H229802   2.940   1.133   5.070 -0.5360  0.1171  0.3046
 2771TIP3   OH229803   0.755   1.486   1.250  0.1947 -0.3374  0.2123
 2771TIP3    H129804   0.770   1.516   1.160  0.6413  0.9423  0.6807
 2771TIP3    H229805   0.664   1.511   1.268 -0.0137 -0.9288  0.0033
 2772TIP3   OH229806   3.310   5.228   1.691  0.0357  0.0011  0.1888
 2772TIP3    H129807   3.276   5.310   1.653  0.2813  0.1994  0.3946
 2772TIP3    H229808   3.334   5.252   1.781 -1.6236 -0.7217  0.8748
 2773TIP3   OH229809   5.665   0.376  11.697  0.1074 -0.1330 -0.6065
 2773TIP3    H129810   5.625   0.458  11.668  0.3006 -0.4546 -1.8413
 2773TIP3    H229811   5.644   0.313  11.628  1.2042 -0.7589 -0.3994
 2774TIP3   OH229812   3.023   4.718  12.273 -0.2348 -0.5875 -1.1268
 2774TIP3    H129813   2.993   4.808  12.287  1.3406 -0.1878 -0.0976
 2774TIP3    H229814   2.953   4.663  12.307 -1.3568  0.2181 -2.0544
 2775TIP3   OH229815   0.299   1.626   3.901 -0.3412 -0.1390  0.4204
 2775TIP3    H129816   0.220   1.576   3.880  0.2302 -0.9430  0.1211
 2775TIP3    H229817   0.357   1.561   3.943  0.8002  0.0212 -0.8667
 2776TIP3   OH229818   1.151   0.046  13.898 -0.2192 -1.1225  0.5738
 2776TIP3    H129819   1.092  -0.029  13.906 -0.4257 -0.9655  0.5279
 2776TIP3    H229820   1.165   0.056  13.804 -1.7559  0.0999  0.4361
 2777TIP3   OH229821   0.180   4.430   3.187  0.1491  0.6086 -0.0807
 2777TIP3    H129822   0.226   4.469   3.113 -1.5868  0.2679 -1.4161
 2777TIP3    H229823   0.116   4.497   3.214 -0.0514  0.2614  0.3229
 2778TIP3   OH229824   2.588   6.329   0.614  0.2028 -0.4264 -0.1514
 2778TIP3    H129825   2.672   6.353   0.652 -0.1313  0.7592 -0.0947
 2778TIP3    H229826   2.601   6.242   0.577  1.1252 -0.7243  0.8409
 2779TIP3   OH229827   0.569   1.281   5.365 -0.5245 -0.1800  0.5207
 2779TIP3    H129828   0.480   1.273   5.330 -0.5693 -1.4524  0.8632
 2779TIP3    H229829   0.624   1.233   5.303 -0.3968 -1.1849  1.3778
 2780TIP3   OH229830   0.036   3.305  12.693  0.3235  0.0144  0.8025
 2780TIP3    H129831   0.031   3.296  12.788  2.0228  1.0761  1.0470
 2780TIP3    H229832  -0.050   3.277  12.661  0.2075 -1.7576  2.5078
 2781TIP3   OH229833   6.444   2.693  11.680 -0.2725  0.4823  0.3060
 2781TIP3    H129834   6.484   2.761  11.626  1.8735 -0.0983  1.0708
 2781TIP3    H229835   6.506   2.621  11.679 -1.1229 -0.3373  1.8713
 2782TIP3   OH229836   1.772   6.557  11.148  0.3935 -0.3408  0.0406
 2782TIP3    H129837   1.681   6.529  11.143 -0.0103  1.1026 -2.0375
 2782TIP3    H229838   1.813   6.516  11.072  1.0532  0.4310 -0.0270
 2783TIP3   OH229839   6.023   3.089   5.824 -0.4548 -0.2514 -0.7199
 2783TIP3    H129840   6.037   3.040   5.905  1.2614  1.3955  0.0683
 2783TIP3    H229841   6.030   3.181   5.850  2.4550  0.3450 -3.0260
 2784TIP3   OH229842   6.253   2.929  16.325 -0.3547  0.2168 -1.0367
 2784TIP3    H129843   6.169   2.955  16.364  1.1595  3.1804  0.6338
 2784TIP3    H229844   6.234   2.917  16.232 -3.1085 -1.9966 -0.3258
 2785TIP3   OH229845   4.613   2.573   5.730  0.2922 -0.3266 -0.3573
 2785TIP3    H129846   4.667   2.644   5.696 -0.3001  0.9876  1.2910
 2785TIP3    H229847   4.525   2.593   5.698 -0.1766  0.6465  1.4049
 2786TIP3   OH229848   1.660   5.103  16.974  0.7524  0.0502  0.1722
 2786TIP3    H129849   1.740   5.151  16.996  1.8880 -0.3856 -2.5604
 2786TIP3    H229850   1.616   5.158  16.909 -1.0949  0.1422  1.4121
 2787TIP3   OH229851   1.797   3.467  16.012  0.3509 -0.3695 -0.1285
 2787TIP3    H129852   1.730   3.505  15.957  0.1513 -0.1855  0.2355
 2787TIP3    H229853   1.872   3.453  15.954 -0.0433 -0.6972 -0.5618
 2788TIP3   OH229854   4.603   1.812  15.501 -0.1027  0.1050  0.2864
 2788TIP3    H129855   4.563   1.726  15.514 -0.9588  0.5299  0.4609
 2788TIP3    H229856   4.697   1.794  15.499 -0.2687 -0.8152  0.4785
 2789TIP3   OH229857   5.340   4.294  13.267 -0.0362 -0.5747  0.2367
 2789TIP3    H129858   5.294   4.213  13.291 -0.4634 -0.3920  0.0423
 2789TIP3    H229859   5.418   4.294  13.323  0.0802 -1.2284  0.0872
 2790TIP3   OH229860   2.389   1.233   2.426  0.0483 -0.2129 -0.5221
 2790TIP3    H129861   2.361   1.319   2.458  1.9993  0.3182 -0.1014
 2790TIP3    H229862   2.480   1.247   2.399 -0.1171 -1.7740 -1.9892
 2791TIP3   OH229863   3.864   5.647  16.867  0.1550  0.2089  0.4033
 2791TIP3    H129864   3.950   5.671  16.904 -0.1684  1.6904  0.2346
 2791TIP3    H229865   3.819   5.604  16.940  1.2389 -1.1678  0.3191
 2792TIP3   OH229866   0.778   4.548   1.979 -0.6424  0.2179  0.2135
 2792TIP3    H129867   0.725   4.573   2.055 -2.3481  0.6279 -1.0507
 2792TIP3    H229868   0.788   4.629   1.929  0.2693 -0.0935 -0.1345
 2793TIP3   OH229869   2.233   4.950  12.718  0.7009  0.4726  0.0483
 2793TIP3    H129870   2.254   5.037  12.685  1.3745  0.2407 -0.1626
 2793TIP3    H229871   2.138   4.944  12.714  0.5255  1.7711  1.5086
 2794TIP3   OH229872   6.726   5.036   0.953  0.2036 -0.6427 -0.4781
 2794TIP3    H129873   6.801   5.093   0.972 -0.1740 -0.3573  0.1992
 2794TIP3    H229874   6.759   4.974   0.889  1.7499 -2.0554  1.5466
 2795TIP3   OH229875   1.018   3.768  16.934 -0.2676 -0.1084  0.0396
 2795TIP3    H129876   0.925   3.753  16.915 -0.1389 -0.3797 -0.3890
 2795TIP3    H229877   1.021   3.780  17.029 -0.8933  1.0761 -0.0790
 2796TIP3   OH229878   5.871   2.786   1.352  0.7209  0.0977 -0.0288
 2796TIP3    H129879   5.818   2.761   1.428  0.3037  0.4270 -0.2068
 2796TIP3    H229880   5.834   2.737   1.279  0.1922  0.8635 -0.2907
 2797TIP3   OH229881   5.119   4.111   0.072  0.2519 -0.3661 -0.4228
 2797TIP3    H129882   5.098   4.022   0.043  1.0834 -0.3556 -1.0895
 2797TIP3    H229883   5.162   4.100   0.157 -0.2858 -0.5449 -0.1701
 2798TIP3   OH229884   4.891   1.789   2.391 -0.4237 -0.2899 -0.0323
 2798TIP3    H129885   4.909   1.784   2.297 -0.8339  0.6506 -0.1753
 2798TIP3    H229886   4.796   1.788   2.397 -0.4014 -0.0799  0.3597
 2799TIP3   OH229887   5.469   3.010   0.807  0.1697 -1.1613  0.3064
 2799TIP3    H129888   5.544   3.067   0.790  0.1826 -1.4444 -0.6422
 2799TIP3    H229889   5.507   2.924   0.825  0.0902 -1.2523  0.0511
 2800TIP3   OH229890   2.308   4.728  14.554 -0.5707  0.2039  0.1576
 2800TIP3    H129891   2.356   4.692  14.479 -0.9532 -1.4266  0.6476
 2800TIP3    H229892   2.242   4.785  14.515  0.0158  0.3240 -0.6758
 2801TIP3   OH229893   2.815   5.410   4.323 -0.4503 -0.1808 -0.6527
 2801TIP3    H129894   2.727   5.439   4.346 -0.1132  0.4590 -0.1559
 2801TIP3    H229895   2.856   5.385   4.406  0.5307  1.4945 -0.5716
 2802TIP3   OH229896   4.408   6.371   2.572  0.4425  0.7392  0.0706
 2802TIP3    H129897   4.404   6.295   2.630 -3.2053  0.1667 -0.6762
 2802TIP3    H229898   4.460   6.342   2.498  0.4382 -0.4594  0.5159
 2803TIP3   OH229899   2.461   2.557  10.438  0.5094  0.1186  0.0215
 2803TIP3    H129900   2.554   2.575  10.423  0.1691  0.4801 -2.0296
 2803TIP3    H229901   2.457   2.463  10.456  1.2062 -0.0723 -0.7617
 2804TIP3   OH229902   6.086   3.347   2.390  0.3684  0.3250  0.0296
 2804TIP3    H129903   6.145   3.411   2.349  0.2504  0.5706  0.2424
 2804TIP3    H229904   6.106   3.264   2.346 -0.2257  0.7098 -0.9955
 2805TIP3   OH229905   6.591   2.878   4.052  0.0580 -0.3675 -0.3934
 2805TIP3    H129906   6.537   2.843   4.123 -0.9202  0.7469 -0.5687
 2805TIP3    H229907   6.574   2.819   3.978  1.0640 -1.5201  0.2422
 2806TIP3   OH229908   1.694   6.274   4.925  0.7640  0.4044  0.3499
 2806TIP3    H129909   1.629   6.302   4.991  0.3462  0.9084 -0.2675
 2806TIP3    H229910   1.644   6.268   4.844  1.0453 -1.2561  0.2640
 2807TIP3   OH229911   3.987   3.207  16.812  0.1695  0.1981  0.1642
 2807TIP3    H129912   3.930   3.254  16.873  1.0540  0.8479  0.5123
 2807TIP3    H229913   3.929   3.179  16.742 -0.6680  0.4060  0.7592
 2808TIP3   OH229914   2.759   4.861  13.491  0.0180  0.0411 -0.1702
 2808TIP3    H129915   2.794   4.819  13.413 -1.7682  0.1734 -1.0918
 2808TIP3    H229916   2.716   4.940  13.459 -2.0665 -0.6698  0.7096
 2809TIP3   OH229917   6.375   6.583  15.516 -0.1123  0.3979 -0.5528
 2809TIP3    H129918   6.388   6.556  15.425 -0.1993  0.5799 -0.6206
 2809TIP3    H229919   6.338   6.671  15.510  1.1164  0.9521 -0.3290
 2810TIP3   OH229920   6.071   6.450   1.860  0.0722 -0.6823  0.2497
 2810TIP3    H129921   6.073   6.403   1.777  0.9677  1.3666 -0.9614
 2810TIP3    H229922   6.127   6.398   1.918 -0.0139 -1.7820 -0.6006
 2811TIP3   OH229923   4.024   3.376  14.181 -0.1445  0.3572 -0.0626
 2811TIP3    H129924   4.119   3.363  14.181 -0.1213  0.5171  0.2977
 2811TIP3    H229925   3.997   3.352  14.093  0.1302 -0.4318  0.0491
 2812TIP3   OH229926   1.456   4.566  13.545 -0.3476 -0.4121  0.4911
 2812TIP3    H129927   1.459   4.641  13.485  1.9393  1.0517  2.2529
 2812TIP3    H229928   1.546   4.533  13.547 -0.7863 -1.6252  1.6320
 2813TIP3   OH229929   1.813   3.311   0.652 -0.5423  0.0361 -0.3078
 2813TIP3    H129930   1.875   3.367   0.698 -0.3174  0.3185 -0.9408
 2813TIP3    H229931   1.817   3.340   0.561 -0.5012 -0.9241 -0.6315
 2814TIP3   OH229932   1.610   4.040   4.413 -0.0447 -0.0718 -0.1288
 2814TIP3    H129933   1.663   3.977   4.364  2.0641  0.8654  0.8170
 2814TIP3    H229934   1.662   4.060   4.491 -1.4153  1.5569  0.4339
 2815TIP3   OH229935   5.196   6.094   5.848  0.1256  0.3268  0.1357
 2815TIP3    H129936   5.222   6.186   5.856 -0.5895  0.3858  2.1821
 2815TIP3    H229937   5.279   6.045   5.846  0.4810  0.9250  0.1030
 2816TIP3   OH229938   0.210   3.423   4.737  0.2240 -0.3963 -0.1988
 2816TIP3    H129939   0.187   3.332   4.723  0.6627 -0.3399 -1.4174
 2816TIP3    H229940   0.302   3.422   4.761  1.2717 -0.1225 -3.6297
 2817TIP3   OH229941   3.211   5.856   0.249  0.0148  0.1292 -0.8146
 2817TIP3    H129942   3.135   5.908   0.273  0.2444  0.5636 -0.9961
 2817TIP3    H229943   3.217   5.788   0.316 -0.8043 -0.1993 -1.0624
 2818TIP3   OH229944   4.972   3.382   5.216 -0.8398 -0.5356 -0.1707
 2818TIP3    H129945   4.921   3.324   5.158 -1.0577 -0.1153 -0.4056
 2818TIP3    H229946   5.058   3.388   5.174 -1.0508 -0.0965 -0.5457
 2819TIP3   OH229947   5.832   1.636  13.194 -0.3769 -0.1092 -0.1966
 2819TIP3    H129948   5.828   1.543  13.214 -0.2164 -0.0773 -0.0183
 2819TIP3    H229949   5.908   1.668  13.242 -0.5985  0.1714 -0.0274
 2820TIP3   OH229950   2.727   1.742  16.378 -0.3049  0.3945 -0.2493
 2820TIP3    H129951   2.804   1.762  16.324  0.2743  0.6854  0.6546
 2820TIP3    H229952   2.705   1.652  16.355  0.7218  0.0735 -0.0534
 2821TIP3   OH229953   6.395   5.729  15.339  0.6255 -0.4029  0.8892
 2821TIP3    H129954   6.361   5.679  15.265  0.6873 -0.9647  1.2365
 2821TIP3    H229955   6.460   5.787  15.300  0.1482 -0.1781  0.3996
 2822TIP3   OH229956   0.682   2.375   5.174 -0.2630  0.4991 -0.3674
 2822TIP3    H129957   0.768   2.345   5.144 -1.0005 -0.0442 -2.0146
 2822TIP3    H229958   0.681   2.354   5.267  1.6278  1.1018 -0.1571
 2823TIP3   OH229959   3.612   4.307  13.578  0.0431 -0.1983  0.1346
 2823TIP3    H129960   3.601   4.369  13.651  1.2857  0.3304 -0.0934
 2823TIP3    H229961   3.543   4.330  13.516 -0.2958  0.1185  0.6170
 2824TIP3   OH229962   0.572   4.825  15.537  0.1170 -0.2787 -0.1583
 2824TIP3    H129963   0.501   4.802  15.477 -1.1715  2.5293  0.1291
 2824TIP3    H229964   0.572   4.755  15.602 -2.3498 -0.4410 -0.2431
 2825TIP3   OH229965   4.813   1.066   2.065 -0.4981 -0.0995  0.2989
 2825TIP3    H129966   4.783   1.046   1.976 -0.3543 -0.9754  0.4484
 2825TIP3    H229967   4.732   1.077   2.115 -0.5773 -0.5317  0.2678
 2826TIP3   OH229968   4.447   6.106  16.759  0.7718 -0.1643 -0.3939
 2826TIP3    H129969   4.471   6.194  16.731 -0.4812 -0.0592 -1.1784
 2826TIP3    H229970   4.409   6.118  16.846  1.3146 -0.0348 -0.1719
 2827TIP3   OH229971   6.272   3.494   2.120 -1.0580 -0.1086  0.6303
 2827TIP3    H129972   6.322   3.414   2.136 -0.8042  0.0266  0.5199
 2827TIP3    H229973   6.337   3.556   2.086 -1.4647 -0.2065 -0.3483
 2828TIP3   OH229974   3.995   3.228  14.878  0.2077 -0.0739  0.2117
 2828TIP3    H129975   3.913   3.211  14.832  0.8667 -2.2455 -0.2758
 2828TIP3    H229976   3.989   3.175  14.958  0.9513  0.0822  0.3811
 2829TIP3   OH229977   3.866   0.732  13.719 -0.0135  0.0794  0.1419
 2829TIP3    H129978   3.822   0.647  13.715  1.1543 -0.4846 -2.1227
 2829TIP3    H229979   3.818   0.786  13.656  1.3565 -0.0105 -1.0323
 2830TIP3   OH229980   3.735   3.272   4.606 -0.5230  0.0554  0.4039
 2830TIP3    H129981   3.659   3.241   4.556 -0.3954  0.9785 -0.3884
 2830TIP3    H229982   3.772   3.193   4.645  1.3891 -1.3350 -3.6696
 2831TIP3   OH229983   1.039   5.619  15.706 -0.7126  0.3249  0.4413
 2831TIP3    H129984   0.964   5.578  15.749 -1.9540  1.1096 -0.8758
 2831TIP3    H229985   1.035   5.711  15.734 -0.3909  0.4222  0.1775
 2832TIP3   OH229986   0.623   3.662   2.137 -0.0517  0.0931 -0.1809
 2832TIP3    H129987   0.531   3.639   2.144 -0.0627 -0.3360 -1.4388
 2832TIP3    H229988   0.646   3.643   2.046  0.6064  2.6008 -0.6274
 2833TIP3   OH229989   2.487   2.896  15.848 -0.0326  0.2102  0.4358
 2833TIP3    H129990   2.551   2.825  15.843 -0.1664  0.0495  0.9858
 2833TIP3    H229991   2.416   2.860  15.901  0.1578  0.9589  1.2046
 2834TIP3   OH229992   2.802   4.486  15.611  0.0482  0.2544  0.4267
 2834TIP3    H129993   2.780   4.517  15.524  0.7226 -1.4883 -0.4150
 2834TIP3    H229994   2.725   4.505  15.664  0.2460  2.8124 -0.1065
 2835TIP3   OH229995   5.014   0.735   2.384  0.4475 -1.1171  0.2379
 2835TIP3    H129996   5.095   0.747   2.335 -0.1523  2.9407 -0.0923
 2835TIP3    H229997   4.944   0.752   2.320 -0.4412  0.6619  1.6003
 2836TIP3   OH229998   4.918   5.398   3.035  0.1757 -0.2083  0.4629
 2836TIP3    H129999   4.893   5.312   3.070 -0.5791  0.2314  1.0254
 2836TIP3    H230000   4.962   5.442   3.107 -0.3818  0.2742  0.5146
 2837TIP3   OH230001   1.717   5.949   0.627  0.0396 -0.6541  0.2007
 2837TIP3    H130002   1.663   5.985   0.697 -0.5574  0.4087 -0.7901
 2837TIP3    H230003   1.772   6.022   0.599  0.6149 -1.2005 -0.1336
 2838TIP3   OH230004   6.198   3.560   3.535 -0.1487  0.3772  0.0563
 2838TIP3    H130005   6.157   3.607   3.463 -1.5260  1.6416  1.5896
 2838TIP3    H230006   6.139   3.486   3.551  0.5518 -0.3334 -0.5614
 2839TIP3   OH230007   3.741   0.349  14.382 -0.9418 -0.4053  0.0704
 2839TIP3    H130008   3.662   0.352  14.329 -0.5508  0.4381 -0.4940
 2839TIP3    H230009   3.796   0.283  14.339 -0.5970  0.3246 -0.6428
 2840TIP3   OH230010   2.092   5.508   0.605  0.0112  0.4011  0.1229
 2840TIP3    H130011   2.116   5.476   0.692  0.1807  1.1458  0.3548
 2840TIP3    H230012   2.026   5.575   0.621  3.0026  3.6449  0.0649
 2841TIP3   OH230013   6.559   3.049   3.120  0.6815 -0.5688  0.0163
 2841TIP3    H130014   6.619   2.977   3.140  0.4596 -0.0967  2.8388
 2841TIP3    H230015   6.546   3.093   3.204 -1.5424  0.9693 -1.0308
 2842TIP3   OH230016   4.574   1.850   0.230  0.1457  0.5330 -0.3455
 2842TIP3    H130017   4.570   1.942   0.205 -1.1120  1.0728  1.6479
 2842TIP3    H230018   4.594   1.804   0.148  0.8252  2.5412 -1.3821
 2843TIP3   OH230019   0.601   5.969  15.052 -0.5879 -0.0631  0.3377
 2843TIP3    H130020   0.555   5.920  14.984 -2.9692 -0.7380  2.2667
 2843TIP3    H230021   0.683   5.921  15.064 -0.4532 -0.3525 -1.5058
 2844TIP3   OH230022   6.554   3.467  17.109  0.2901  0.0666  0.1580
 2844TIP3    H130023   6.554   3.507  17.022  0.6565  0.8460  0.4949
 2844TIP3    H230024   6.566   3.542  17.168 -0.3040 -0.4164  0.8937
 2845TIP3   OH230025   6.619   3.599  11.329  0.2826  0.4204  0.1427
 2845TIP3    H130026   6.552   3.666  11.338 -0.7290 -0.4260 -0.8924
 2845TIP3    H230027   6.654   3.610  11.241  0.0149 -0.4840 -0.0905
 2846TIP3   OH230028   0.705   0.743   5.498 -0.9447  0.0918 -0.4175
 2846TIP3    H130029   0.695   0.824   5.448 -1.1764  0.2766 -0.0694
 2846TIP3    H230030   0.790   0.708   5.469 -0.6500  0.6664 -0.2612
 2847TIP3   OH230031   2.507   4.172  16.924 -0.1721 -0.2191 -0.6756
 2847TIP3    H130032   2.429   4.198  16.973 -0.5276 -0.6078 -1.0251
 2847TIP3    H230033   2.524   4.245  16.864  0.7482  0.6339  0.5589
 2848TIP3   OH230034   6.080   5.163  15.349  0.8063 -0.2857 -0.1922
 2848TIP3    H130035   6.097   5.256  15.339  2.4968 -0.6575 -1.1263
 2848TIP3    H230036   6.109   5.142  15.437  1.6709 -0.1596 -0.4360
 2849TIP3   OH230037   4.734   0.352   0.480  0.1309  0.1017 -0.2027
 2849TIP3    H130038   4.774   0.417   0.537 -0.3764 -0.4291  0.8011
 2849TIP3    H230039   4.805   0.294   0.455  0.8272  1.6373 -2.0439
 2850TIP3   OH230040   3.971   0.318   2.773  0.3661 -0.1466  0.5594
 2850TIP3    H130041   3.980   0.412   2.761 -1.2869  0.1463  1.3042
 2850TIP3    H230042   3.981   0.305   2.867 -0.9345 -0.4979  0.6617
 2851TIP3   OH230043   0.887   5.077  16.569  0.2070  0.1990  0.5605
 2851TIP3    H130044   0.960   5.135  16.590 -0.4372  1.7505 -1.2000
 2851TIP3    H230045   0.810   5.133  16.571 -0.2534 -0.0790 -2.8058
 2852TIP3   OH230046   2.512   5.634   3.861  0.6075  0.0123 -0.7892
 2852TIP3    H130047   2.511   5.555   3.914  1.1966 -0.0198 -0.8147
 2852TIP3    H230048   2.428   5.634   3.816  1.5846 -2.0018 -2.8212
 2853TIP3   OH230049   6.127   3.808   5.182 -0.0966 -0.8582  0.3142
 2853TIP3    H130050   6.142   3.832   5.273 -0.0359  0.4157 -0.0194
 2853TIP3    H230051   6.170   3.723   5.172  0.6399 -0.6108  1.2476
 2854TIP3   OH230052   0.860   5.948  13.191 -0.0714  0.4417  0.3755
 2854TIP3    H130053   0.889   5.947  13.282  3.0608  0.0518 -0.4894
 2854TIP3    H230054   0.844   5.856  13.170  2.2341  0.1002 -0.2038
 2855TIP3   OH230055   4.704   3.841  16.191 -0.8600  0.5354  0.0452
 2855TIP3    H130056   4.645   3.916  16.195 -2.5083 -0.5865 -1.4168
 2855TIP3    H230057   4.773   3.867  16.129 -1.7299  0.6768 -0.8968
 2856TIP3   OH230058   1.561   0.036   0.338 -0.0901 -0.6399 -0.1881
 2856TIP3    H130059   1.474   0.012   0.307 -1.0001  0.6565  1.2094
 2856TIP3    H230060   1.563   0.005   0.429 -0.7988  2.9722  1.2344
 2857TIP3   OH230061   5.148   2.547   2.740 -0.4131  0.0625  0.3456
 2857TIP3    H130062   5.129   2.454   2.752 -0.3681  0.0417  0.2516
 2857TIP3    H230063   5.074   2.591   2.783  0.8040  0.0183  2.6485
 2858TIP3   OH230064   3.080   4.496   3.184 -0.3480 -0.0159  0.6676
 2858TIP3    H130065   3.116   4.532   3.265 -0.3341  1.5258  0.0189
 2858TIP3    H230066   3.139   4.528   3.115 -1.6883  0.7427 -0.1855
 2859TIP3   OH230067   1.542   4.108   5.210 -0.3907  0.5303 -0.1378
 2859TIP3    H130068   1.559   4.198   5.182 -0.4060  0.2295 -1.1673
 2859TIP3    H230069   1.603   4.055   5.158  0.1222 -0.0022  0.9729
 2860TIP3   OH230070   6.015   6.308  16.024  0.2828 -0.1231  0.2676
 2860TIP3    H130071   6.043   6.244  16.089  2.5084 -0.4530 -0.9469
 2860TIP3    H230072   6.096   6.341  15.986 -0.9291  0.6883 -1.7601
 2861TIP3   OH230073   1.037   3.027  15.144 -0.6384  0.0023  0.3249
 2861TIP3    H130074   1.026   3.073  15.061 -1.3899  2.5364  1.6946
 2861TIP3    H230075   1.101   3.080  15.192 -1.1660 -0.6651  1.8303
 2862TIP3   OH230076   2.342   3.542  13.902  0.0565 -0.2455  0.2300
 2862TIP3    H130077   2.415   3.545  13.840 -0.3440 -0.2355 -0.2503
 2862TIP3    H230078   2.383   3.549  13.988  0.6691 -0.8296 -0.0042
 2863TIP3   OH230079   3.215   4.461  15.893  0.0467  0.6026  0.4054
 2863TIP3    H130080   3.139   4.426  15.847  0.4834  1.0244 -0.6459
 2863TIP3    H230081   3.207   4.425  15.982 -1.8250  1.3064  0.5734
 2864TIP3   OH230082   1.061   0.064  14.798  0.0378 -0.6612  0.2880
 2864TIP3    H130083   1.079  -0.030  14.809  0.7062 -0.6497 -0.6407
 2864TIP3    H230084   0.996   0.083  14.866 -3.7673 -2.8012 -2.3665
 2865TIP3   OH230085   3.096   3.013   4.856  0.1178 -0.4221  0.0380
 2865TIP3    H130086   3.099   2.947   4.786 -0.3444  1.1519 -1.5571
 2865TIP3    H230087   3.016   3.062   4.838  1.9979  2.5810 -0.7981
 2866TIP3   OH230088   2.004   0.780   4.955  0.2648 -0.1527  0.4244
 2866TIP3    H130089   2.057   0.712   4.996  0.2163  0.7314  2.0029
 2866TIP3    H230090   2.068   0.841   4.918  0.3513  0.3019  1.3063
 2867TIP3   OH230091   5.496   5.695  15.071 -0.4777 -0.5737  0.0093
 2867TIP3    H130092   5.428   5.722  15.009  0.8866  0.9035 -0.9350
 2867TIP3    H230093   5.512   5.773  15.124  0.9151 -0.6580 -0.2362
 2868TIP3   OH230094   4.723   5.799  14.458  0.1297 -0.3222  0.3773
 2868TIP3    H130095   4.717   5.894  14.453  0.4243 -0.2914  0.5907
 2868TIP3    H230096   4.793   5.775  14.398 -1.6370 -0.6399 -1.7018
 2869TIP3   OH230097   4.312   6.117   4.723 -0.1496  0.1902  0.8247
 2869TIP3    H130098   4.401   6.152   4.714  0.1383 -0.7797 -0.3137
 2869TIP3    H230099   4.258   6.178   4.673  0.3270 -0.8156 -1.0014
 2870TIP3   OH230100   0.793   4.503  11.573  0.1355  0.7374 -1.4799
 2870TIP3    H130101   0.796   4.593  11.607  0.8674  0.4555 -0.7664
 2870TIP3    H230102   0.864   4.499  11.509  0.2722  0.5963 -1.3207
 2871TIP3   OH230103   4.999   2.750   0.650 -0.0800 -0.0576 -0.5949
 2871TIP3    H130104   4.953   2.757   0.734 -0.3194 -2.0439 -0.5208
 2871TIP3    H230105   5.088   2.779   0.669 -0.0801 -0.6769  0.4017
 2872TIP3   OH230106   6.721   0.328  12.992  0.0367 -0.0707 -0.1848
 2872TIP3    H130107   6.743   0.294  12.905 -0.0609 -1.2019  0.2104
 2872TIP3    H230108   6.792   0.389  13.012 -0.3155  0.7518 -1.3445
 2873TIP3   OH230109   0.226   3.515   4.466  0.3423 -0.3290  0.0203
 2873TIP3    H130110   0.317   3.545   4.465  0.0558  0.5709 -0.1321
 2873TIP3    H230111   0.212   3.485   4.556  0.9336 -0.9410 -0.0893
 2874TIP3   OH230112   4.832   0.454  14.526 -0.5559  0.5233  0.2788
 2874TIP3    H130113   4.888   0.527  14.554 -0.2874  0.5592 -0.3444
 2874TIP3    H230114   4.788   0.426  14.607  1.4059 -0.4172  1.0885
 2875TIP3   OH230115   4.248   1.776   5.493 -0.1771 -0.2720  0.0705
 2875TIP3    H130116   4.280   1.740   5.410 -2.7760 -1.6623 -0.4285
 2875TIP3    H230117   4.237   1.870   5.475  0.3105 -0.3725 -0.8161
 2876TIP3   OH230118   2.065   2.330  12.166  0.1152  0.1876 -0.5418
 2876TIP3    H130119   2.044   2.311  12.258 -1.6287 -1.5617 -1.2052
 2876TIP3    H230120   2.059   2.425  12.159  0.2733  0.3553  1.1476
 2877TIP3   OH230121   5.538   4.618  13.274 -0.1868  0.0224  0.4015
 2877TIP3    H130122   5.443   4.620  13.289 -0.2311 -2.6614  1.0218
 2877TIP3    H230123   5.575   4.586  13.356  1.4520  2.1431  0.5871
 2878TIP3   OH230124   1.705   2.686   3.929  0.4756 -0.7665 -0.3056
 2878TIP3    H130125   1.799   2.684   3.912  0.2867 -0.6421 -1.4218
 2878TIP3    H230126   1.675   2.597   3.910  0.3364 -0.7577 -0.1324
 2879TIP3   OH230127   3.720   4.125  14.304 -0.0804 -0.1486 -0.7859
 2879TIP3    H130128   3.671   4.075  14.238 -1.6610  0.9627 -0.5152
 2879TIP3    H230129   3.658   4.191  14.335  0.7898 -0.2861  1.4378
 2880TIP3   OH230130   1.014   2.344  11.797 -0.1839  0.5379  0.3390
 2880TIP3    H130131   1.036   2.425  11.751  0.6899  0.9958  1.5141
 2880TIP3    H230132   1.094   2.291  11.791 -0.6784 -0.1719 -0.2343
 2881TIP3   OH230133   5.688   6.689   4.792 -0.1090  0.2437 -0.4001
 2881TIP3    H130134   5.632   6.763   4.768 -0.3831  0.3172  0.4297
 2881TIP3    H230135   5.710   6.705   4.884  1.6961  0.4709 -0.8485
 2882TIP3   OH230136   1.587   4.810   0.665  0.0476  0.0288 -0.2020
 2882TIP3    H130137   1.559   4.897   0.636 -1.0432 -0.1694  0.2211
 2882TIP3    H230138   1.672   4.797   0.622 -0.4024  0.7393 -1.3565
 2883TIP3   OH230139   4.792   3.230  16.611  0.4495 -0.0956 -0.0384
 2883TIP3    H130140   4.703   3.259  16.632  0.5568 -0.1395  0.4864
 2883TIP3    H230141   4.796   3.140  16.641  1.1685  0.3970  1.4348
 2884TIP3   OH230142   4.153   2.158   3.204 -0.7047  0.2709 -0.3392
 2884TIP3    H130143   4.144   2.218   3.130 -2.1124  0.5187 -0.0037
 2884TIP3    H230144   4.085   2.187   3.266 -0.4749 -0.7968  0.4333
 2885TIP3   OH230145   2.447   4.071   6.025 -0.2478 -0.1996  0.1319
 2885TIP3    H130146   2.526   4.020   6.046  0.9973  1.7982  0.5634
 2885TIP3    H230147   2.389   4.056   6.099 -0.7751 -2.5323 -0.6722
 2886TIP3   OH230148   4.797   1.209  13.143 -0.1978 -0.1504  0.3929
 2886TIP3    H130149   4.729   1.237  13.082  1.6465 -0.2740 -1.8319
 2886TIP3    H230150   4.847   1.289  13.161 -0.0978 -0.3286  0.9110
 2887TIP3   OH230151   5.070   2.656  15.390  0.6351  0.3296 -0.0752
 2887TIP3    H130152   5.149   2.681  15.341  2.2905 -0.6329  1.9622
 2887TIP3    H230153   5.034   2.583  15.340  1.6547  0.0753 -0.4641
 2888TIP3   OH230154   4.646   5.271   5.526  0.3137  0.0046  0.0593
 2888TIP3    H130155   4.592   5.248   5.601 -0.4896 -1.4886 -0.9350
 2888TIP3    H230156   4.729   5.226   5.541  1.6057  2.7008  1.8395
 2889TIP3   OH230157   3.185   0.455  11.717  0.1193 -0.1417 -0.4278
 2889TIP3    H130158   3.131   0.474  11.640 -0.8018 -1.1645 -0.0637
 2889TIP3    H230159   3.243   0.530  11.724 -1.7723  1.3963 -0.4015
 2890TIP3   OH230160   6.578   5.164  13.489  0.9110 -0.0384  0.4117
 2890TIP3    H130161   6.577   5.068  13.494  2.0619 -0.0520  0.6537
 2890TIP3    H230162   6.504   5.192  13.544 -0.2112 -0.8047 -0.6595
 2891TIP3   OH230163   1.092   4.737   4.667  0.3999  0.7240 -0.2636
 2891TIP3    H130164   1.089   4.645   4.691  3.2164  0.6796  0.3657
 2891TIP3    H230165   1.101   4.783   4.751 -0.1105  1.5073 -0.6253
 2892TIP3   OH230166   5.221   4.109  14.318 -0.0532  0.3124 -0.2418
 2892TIP3    H130167   5.299   4.088  14.266 -1.5356  0.2647 -2.6249
 2892TIP3    H230168   5.212   4.036  14.379 -0.0917 -1.5059 -2.2851
 2893TIP3   OH230169   5.239   2.320   0.587 -0.0090 -0.6778 -0.5527
 2893TIP3    H130170   5.241   2.251   0.654  1.1985 -0.5854 -0.4637
 2893TIP3    H230171   5.179   2.386   0.622  2.2426  0.4307  1.5680
 2894TIP3   OH230172   6.070   6.456  13.846  0.4443 -0.0639  0.0896
 2894TIP3    H130173   6.049   6.446  13.938 -1.3232 -1.5585 -0.4203
 2894TIP3    H230174   5.988   6.480  13.804  0.3819 -2.6801 -1.5226
 2895TIP3   OH230175   4.539   2.097   0.060  0.1333  0.1150 -0.0090
 2895TIP3    H130176   4.455   2.098   0.014  1.1860  0.5943 -2.0441
 2895TIP3    H230177   4.603   2.083  -0.009  1.9550  2.4869  1.0650
 2896TIP3   OH230178   6.701   5.975  12.013 -0.2053  0.0681 -0.5282
 2896TIP3    H130179   6.644   5.916  11.963 -2.1861  1.6945 -0.3349
 2896TIP3    H230180   6.688   5.949  12.104 -0.4487  0.2537 -0.5072
 2897TIP3   OH230181   6.536   1.251  13.836 -0.3019 -0.4682  0.0861
 2897TIP3    H130182   6.629   1.226  13.834 -0.2349 -0.1988 -0.4164
 2897TIP3    H230183   6.520   1.288  13.749 -1.4919 -2.6710 -0.6929
 2898TIP3   OH230184   5.211   1.188  14.503 -0.3051  0.0034 -0.0722
 2898TIP3    H130185   5.189   1.159  14.592  1.8101 -1.3458  0.1006
 2898TIP3    H230186   5.239   1.108  14.459  0.7203  0.9946 -1.2867
 2899TIP3   OH230187   2.469   2.607  15.900  0.2808 -0.7614  0.0235
 2899TIP3    H130188   2.403   2.607  15.970 -0.3360  0.6554 -0.5205
 2899TIP3    H230189   2.428   2.558  15.829  0.6598 -1.6612  0.4082
 2900TIP3   OH230190   6.290   6.073   3.874  0.1655  0.0593 -0.1775
 2900TIP3    H130191   6.200   6.094   3.897  0.4507  0.8844  0.2483
 2900TIP3    H230192   6.290   5.979   3.858 -0.8556  0.1234 -0.6088
 2901TIP3   OH230193   2.671   4.886   1.874  0.2083  0.2032 -0.0670
 2901TIP3    H130194   2.627   4.926   1.948 -0.6802 -0.2792 -0.3204
 2901TIP3    H230195   2.660   4.949   1.802 -1.1774 -0.4510 -0.4619
 2902TIP3   OH230196   0.785   2.798   2.051 -0.1573  0.7195 -0.4369
 2902TIP3    H130197   0.778   2.808   2.146 -0.4379  1.9346 -0.5676
 2902TIP3    H230198   0.748   2.712   2.034 -0.6338  0.7164  0.5025
 2903TIP3   OH230199   4.418   2.311   4.091 -0.1109 -0.0134  0.5886
 2903TIP3    H130200   4.488   2.256   4.126  0.5422  0.2423 -0.3017
 2903TIP3    H230201   4.450   2.340   4.006 -1.5142 -0.3324 -0.0849
 2904TIP3   OH230202   6.056   1.347   3.766  0.2645 -0.0735  0.4524
 2904TIP3    H130203   5.987   1.323   3.704  0.1916  1.7895 -0.2325
 2904TIP3    H230204   6.111   1.269   3.772 -1.0115 -1.0646 -0.1793
 2905TIP3   OH230205   5.788   3.620  16.484  0.0169  0.2805 -0.2224
 2905TIP3    H130206   5.872   3.585  16.516  0.9864  1.6454 -1.1570
 2905TIP3    H230207   5.784   3.709  16.518 -0.9237  0.3397 -0.4543
 2906TIP3   OH230208   5.711   0.407  16.699 -0.3977  0.1948  0.4974
 2906TIP3    H130209   5.801   0.408  16.732 -0.7108  0.9138  1.3762
 2906TIP3    H230210   5.717   0.365  16.614  0.5155 -1.3005  1.2614
 2907TIP3   OH230211   6.311   3.451   5.280 -0.3406 -0.0935  0.1761
 2907TIP3    H130212   6.271   3.417   5.360  0.5304  1.6222  1.4096
 2907TIP3    H230213   6.349   3.374   5.238 -3.1436 -1.4716 -0.0605
 2908TIP3   OH230214   5.847   3.987   5.409  0.4922  0.0512  0.1141
 2908TIP3    H130215   5.848   3.982   5.313 -0.4825 -0.4918  0.1120
 2908TIP3    H230216   5.938   3.977   5.435  0.6693 -0.6703 -0.7330
 2909TIP3   OH230217   2.248   3.493  11.473  0.3241  0.7023  0.0516
 2909TIP3    H130218   2.291   3.578  11.464  2.4731 -0.1265  1.7145
 2909TIP3    H230219   2.303   3.444  11.533 -1.1607 -1.7023 -0.4049
 2910TIP3   OH230220   0.388   6.106   1.864  0.2895 -0.3557 -0.2826
 2910TIP3    H130221   0.451   6.166   1.904  0.8965 -0.6208 -0.8248
 2910TIP3    H230222   0.310   6.115   1.918  0.9322 -0.3508  0.6766
 2911TIP3   OH230223   5.326   6.529   4.552 -0.0250 -0.0845 -0.4724
 2911TIP3    H130224   5.296   6.555   4.640  1.7876  0.2964  0.0710
 2911TIP3    H230225   5.291   6.441   4.540  0.6708 -0.6122  1.1377
 2912TIP3   OH230226   5.336   6.610  14.432 -0.3334 -0.2610 -0.7809
 2912TIP3    H130227   5.314   6.703  14.434 -0.5791 -0.3231 -0.3052
 2912TIP3    H230228   5.305   6.577  14.517  0.0620 -0.7023 -0.8066
 2913TIP3   OH230229   1.901   2.934   2.108  0.4437  0.1895 -0.1395
 2913TIP3    H130230   1.920   2.987   2.031 -0.5420  0.3594 -0.2748
 2913TIP3    H230231   1.983   2.935   2.158  2.6433 -3.4352 -3.1376
 2914TIP3   OH230232   4.139   6.348  15.310  0.3585  0.3459  0.7951
 2914TIP3    H130233   4.085   6.387  15.241 -0.2178 -3.4256 -1.1822
 2914TIP3    H230234   4.228   6.352  15.275  0.2495 -0.3649  0.4202
 2915TIP3   OH230235   5.064   4.795  16.502 -0.2287  0.4003  0.2110
 2915TIP3    H130236   4.976   4.826  16.526 -1.9754 -2.2324 -2.1482
 2915TIP3    H230237   5.103   4.867  16.453 -2.1077  0.7944 -0.8009
 2916TIP3   OH230238   2.698   1.504   3.088  0.6054 -0.1822 -0.0054
 2916TIP3    H130239   2.677   1.509   2.994 -1.3408 -0.3297  0.3748
 2916TIP3    H230240   2.674   1.589   3.123 -0.0666 -0.5990  0.5881
 2917TIP3   OH230241   6.732   3.405   3.292 -0.0775 -0.0562  0.2324
 2917TIP3    H130242   6.749   3.495   3.320 -1.5728  0.2952  0.0949
 2917TIP3    H230243   6.755   3.404   3.199  0.2737  0.0785  0.3161
 2918TIP3   OH230244   1.447   6.645  11.960 -0.2838  0.3170  0.4446
 2918TIP3    H130245   1.473   6.590  11.886  0.8351  0.6621  0.5711
 2918TIP3    H230246   1.356   6.669  11.941 -0.0178  0.3822 -0.8007
 2919TIP3   OH230247   4.025   6.230  11.884  0.5706 -0.9482 -0.2038
 2919TIP3    H130248   4.109   6.276  11.882 -0.0427  0.2373  0.1805
 2919TIP3    H230249   3.966   6.289  11.931 -0.9677 -0.9202 -2.0468
 2920TIP3   OH230250   3.501   0.437  11.825  0.2259  0.5285 -0.0456
 2920TIP3    H130251   3.578   0.476  11.783  0.3774 -0.2396 -0.4969
 2920TIP3    H230252   3.528   0.348  11.848 -0.3510  0.4349  0.2942
 2921TIP3   OH230253   3.303   1.127   6.229 -0.2529 -0.3996  0.6814
 2921TIP3    H130254   3.354   1.053   6.196  0.8221  0.5295  0.1940
 2921TIP3    H230255   3.277   1.176   6.151  0.6626  0.7566  1.0683
 2922TIP3   OH230256   0.757   5.898  12.930 -0.7099  0.9417  0.1530
 2922TIP3    H130257   0.790   5.918  13.017 -1.2439 -0.8733  0.8104
 2922TIP3    H230258   0.723   5.809  12.936 -0.5887  0.6879 -1.9692
 2923TIP3   OH230259   3.193   3.444  11.141  1.1542  1.0217 -0.0184
 2923TIP3    H130260   3.249   3.389  11.085 -0.3363  0.0014 -0.5827
 2923TIP3    H230261   3.158   3.511  11.082  0.7311  0.8322  0.0121
 2924TIP3   OH230262   6.563   3.538  11.014  0.1685 -0.3470  0.1312
 2924TIP3    H130263   6.553   3.455  10.967  0.6089 -0.6303  0.5371
 2924TIP3    H230264   6.474   3.573  11.019  0.0380 -0.5832 -0.4185
 2925TIP3   OH230265   3.640   2.017  11.382 -0.0819  0.5171 -0.1387
 2925TIP3    H130266   3.609   1.989  11.469  0.9345 -0.8476 -0.1863
 2925TIP3    H230267   3.561   2.026  11.330 -0.6092 -0.1437  0.5253
 2926TIP3   OH230268   5.756   3.544   5.133 -0.0782  0.3790  0.0901
 2926TIP3    H130269   5.785   3.635   5.139  0.6271  0.1204  0.8140
 2926TIP3    H230270   5.805   3.499   5.201 -0.6069 -0.5023 -0.0965
 2927TIP3   OH230271   4.624   3.949   1.881 -0.4322 -0.1518  0.2842
 2927TIP3    H130272   4.665   3.980   1.962 -0.6011  1.7006 -0.2821
 2927TIP3    H230273   4.557   4.014   1.862 -0.4540 -0.5924 -1.3006
 2928TIP3   OH230274   1.485   6.543  14.344  0.4917  0.2411  0.3290
 2928TIP3    H130275   1.421   6.546  14.415 -0.5841 -1.1978 -0.5120
 2928TIP3    H230276   1.442   6.588  14.272  0.0412 -1.3758 -0.4746
 2929TIP3   OH230277   3.039   6.184  15.800 -0.0370 -0.4737  0.1407
 2929TIP3    H130278   3.126   6.224  15.801 -0.3931  0.4999 -1.9313
 2929TIP3    H230279   2.984   6.248  15.755 -1.6171 -1.4704  0.5996
 2930TIP3   OH230280   1.893   1.647   2.697  0.6349 -0.2552 -0.0837
 2930TIP3    H130281   1.891   1.690   2.611  0.5626 -0.1980 -0.0538
 2930TIP3    H230282   1.961   1.695   2.745  0.6863 -0.2975 -0.1142
 2931TIP3   OH230283   5.387   4.164  11.595  0.0626  0.5656 -0.3321
 2931TIP3    H130284   5.466   4.216  11.583 -0.2049  1.1599  0.4258
 2931TIP3    H230285   5.405   4.082  11.548  2.0891 -0.2898  1.7348
 2932TIP3   OH230286   0.787   2.293  13.433 -0.3545  0.3503  0.3986
 2932TIP3    H130287   0.730   2.223  13.467  0.5453  0.4391  2.1482
 2932TIP3    H230288   0.864   2.292  13.490  0.6098  1.4293 -0.8218
 2933TIP3   OH230289   2.087   2.395  11.727 -0.5395 -0.0311 -0.0618
 2933TIP3    H130290   2.160   2.458  11.722  0.7974 -1.4517  0.5634
 2933TIP3    H230291   2.107   2.342  11.805 -1.7507 -1.0598 -0.4212
 2934TIP3   OH230292   0.244   5.852  10.797 -0.2310  0.1355  0.2106
 2934TIP3    H130293   0.229   5.768  10.839 -0.0323 -0.9867 -1.8025
 2934TIP3    H230294   0.161   5.899  10.806  0.7769  1.4871  4.7923
 2935TIP3   OH230295   2.881   3.479  11.808  0.1666  0.4297  0.1482
 2935TIP3    H130296   2.899   3.408  11.747  0.6930  1.0127 -0.3853
 2935TIP3    H230297   2.785   3.489  11.806  0.1700  0.3309 -0.4451
 2936TIP3   OH230298   0.698   2.813  14.924  0.0581  0.0807  0.0155
 2936TIP3    H130299   0.716   2.871  14.998  2.3544  1.4743 -1.4762
 2936TIP3    H230300   0.746   2.733  14.944 -1.0035 -0.3669  0.9012
 2937TIP3   OH230301   3.023   5.625  10.719  0.1287 -0.2837 -0.3288
 2937TIP3    H130302   3.063   5.673  10.792 -0.7544  0.9699 -0.6399
 2937TIP3    H230303   3.095   5.611  10.658  0.5080  0.2092 -0.0047
 2938TIP3   OH230304   6.010   4.797  12.613  0.2853 -0.5645 -0.3026
 2938TIP3    H130305   6.075   4.865  12.630  0.0463  0.1283 -2.0554
 2938TIP3    H230306   5.927   4.836  12.639  0.4333 -1.2442  1.3747
 2939TIP3   OH230307   6.128   1.422  11.148  0.3275 -0.0767  0.4648
 2939TIP3    H130308   6.210   1.383  11.178  1.1575  1.6006  0.4811
 2939TIP3    H230309   6.102   1.481  11.219  0.5853  1.4668 -0.6816
 2940TIP3   OH230310   4.380   3.225  12.377 -0.5253 -0.2318  0.6632
 2940TIP3    H130311   4.346   3.313  12.391 -0.4441 -0.0020 -0.4831
 2940TIP3    H230312   4.336   3.195  12.297 -0.4846 -1.1935  0.9908
 2941TIP3   OH230313   4.958   4.290  15.112 -0.0230 -0.0347  0.1728
 2941TIP3    H130314   5.013   4.286  15.190 -0.2192  0.4097  0.3367
 2941TIP3    H230315   4.998   4.359  15.058 -0.4735  0.3694  0.3418
 2942TIP3   OH230316   4.972   2.766   4.891 -0.1719 -0.1890 -0.0574
 2942TIP3    H130317   5.022   2.838   4.853 -0.3506  0.2996  0.6179
 2942TIP3    H230318   4.996   2.766   4.983  0.0927 -1.2278 -0.1136
 2943TIP3   OH230319   2.462   2.885  10.934  0.2577 -0.2976  0.1410
 2943TIP3    H130320   2.550   2.853  10.954 -0.3292 -1.7835  0.4990
 2943TIP3    H230321   2.458   2.972  10.974  2.2253  0.6883 -1.6391
 2944TIP3   OH230322   3.665   4.922  15.947  0.2761  0.2505 -0.6586
 2944TIP3    H130323   3.727   4.950  15.880  0.2690 -1.1058 -1.2530
 2944TIP3    H230324   3.620   4.847  15.909  1.7106 -1.8904  1.5838
 2945TIP3   OH230325   4.978   5.894  11.736 -0.2139  0.1032 -0.8273
 2945TIP3    H130326   5.073   5.907  11.738 -0.3958  2.1849 -2.3018
 2945TIP3    H230327   4.963   5.832  11.665  0.0515 -0.4378 -0.4127
 2946TIP3   OH230328   2.254   5.535  13.111 -0.4982 -0.0887 -0.5825
 2946TIP3    H130329   2.320   5.495  13.168 -1.2427 -0.4766  0.0198
 2946TIP3    H230330   2.214   5.603  13.166 -0.2317  0.5189 -1.1284
 2947TIP3   OH230331   6.234   3.487  12.311 -0.2338 -0.4748 -0.3285
 2947TIP3    H130332   6.162   3.473  12.372  0.2421  0.2060  0.4140
 2947TIP3    H230333   6.193   3.527  12.234 -0.9968 -2.2570 -0.8958
 2948TIP3   OH230334   1.470   1.048   4.726  0.5615  0.0502 -0.0925
 2948TIP3    H130335   1.495   1.072   4.637  1.1016 -1.4228 -0.3645
 2948TIP3    H230336   1.497   0.957   4.735 -0.2891 -0.0963  1.2866
 2949TIP3   OH230337   2.685   4.206  15.857 -0.0187 -0.2695  0.4099
 2949TIP3    H130338   2.622   4.140  15.888  0.0682 -1.2924 -1.3950
 2949TIP3    H230339   2.770   4.168  15.875  0.0397 -0.3098  0.0564
 2950TIP3   OH230340   5.645   5.702  17.071  0.2100 -0.1965  0.0407
 2950TIP3    H130341   5.591   5.761  17.123 -1.2987 -1.4948 -0.0025
 2950TIP3    H230342   5.730   5.746  17.066 -0.4661  1.3113  1.1449
 2951TIP3   OH230343   3.545   6.611  15.096  0.0596 -0.2392 -0.4508
 2951TIP3    H130344   3.577   6.702  15.098 -1.0619  0.1754  1.5857
 2951TIP3    H230345   3.617   6.560  15.132  0.5894 -0.1225 -1.3320
 2952TIP3   OH230346   4.684   1.769   5.613 -0.2561 -0.0735  0.0704
 2952TIP3    H130347   4.760   1.715   5.636 -0.2881 -0.2425 -0.2155
 2952TIP3    H230348   4.707   1.857   5.643 -0.3509 -0.3098  0.8633
 2953TIP3   OH230349   0.622   0.121   1.951 -0.9689  0.6197  0.5785
 2953TIP3    H130350   0.695   0.067   1.923 -1.3099 -0.0176  0.8964
 2953TIP3    H230351   0.549   0.096   1.894 -0.7561  1.7923 -0.2421
 2954TIP3   OH230352   4.941   3.384   1.690 -0.1759  0.0335  0.1763
 2954TIP3    H130353   4.897   3.415   1.770  1.8864 -1.7537  2.1381
 2954TIP3    H230354   4.995   3.458   1.662  0.5742  0.0602  1.6216
 2955TIP3   OH230355   0.986   0.241  16.783 -0.9001 -0.2210  0.0026
 2955TIP3    H130356   1.004   0.262  16.692  0.6830  0.0969  0.3574
 2955TIP3    H230357   0.909   0.294  16.805 -0.2724  1.0173 -0.6782
 2956TIP3   OH230358   2.583   2.257  12.776 -0.4317  0.3987  0.5192
 2956TIP3    H130359   2.587   2.174  12.823 -3.1393 -0.3383 -0.3739
 2956TIP3    H230360   2.621   2.321  12.837 -0.7678 -1.0431  2.3224
 2957TIP3   OH230361   5.254   1.099   1.185 -0.0989  0.7830 -0.1694
 2957TIP3    H130362   5.254   1.028   1.249 -3.2779  0.0047 -0.8468
 2957TIP3    H230363   5.195   1.165   1.222  0.0009  1.4423 -1.1397
 2958TIP3   OH230364   0.506   1.911  15.505 -0.4509  0.2243 -0.0542
 2958TIP3    H130365   0.457   1.938  15.583  2.1867 -0.5892  2.0251
 2958TIP3    H230366   0.440   1.907  15.436 -3.5340 -1.7558  2.6982
 2959TIP3   OH230367   4.557   1.299  16.305 -0.2196  0.4980 -0.1363
 2959TIP3    H130368   4.564   1.254  16.389 -4.0798 -1.1154 -0.4912
 2959TIP3    H230369   4.596   1.239  16.242  1.7233  1.2513  0.2749
 2960TIP3   OH230370   4.969   1.769  14.693 -0.6419  0.0893  0.6038
 2960TIP3    H130371   5.019   1.812  14.623  0.3396 -0.7079  0.7868
 2960TIP3    H230372   4.919   1.701  14.648  0.0508 -0.4765  0.6549
 2961TIP3   OH230373   0.556   2.631   1.704 -0.1768  0.0165 -0.0335
 2961TIP3    H130374   0.602   2.621   1.788  2.2672  1.5023 -1.0858
 2961TIP3    H230375   0.488   2.563   1.705  0.2541 -0.4897  2.8045
 2962TIP3   OH230376   5.374   4.069   4.232 -0.2288  0.3717 -0.0673
 2962TIP3    H130377   5.330   4.088   4.149  1.4490 -1.2714 -1.4269
 2962TIP3    H230378   5.438   4.139   4.241  0.7168 -0.3301 -1.0671
 2963TIP3   OH230379   1.975   5.471  13.927  0.2135 -0.5176 -0.2122
 2963TIP3    H130380   1.989   5.448  14.019  0.7727 -1.0590 -0.4207
 2963TIP3    H230381   1.912   5.543  13.929  0.4875 -0.2909  0.6092
 2964TIP3   OH230382   2.351   4.409  12.351 -0.1468  0.0557 -0.6182
 2964TIP3    H130383   2.440   4.372  12.351  0.2583  0.9091  1.3081
 2964TIP3    H230384   2.302   4.353  12.412 -0.6108  0.3284 -0.7390
 2965TIP3   OH230385   5.652   5.946   1.420  0.7598 -0.1872  0.3124
 2965TIP3    H130386   5.575   5.905   1.381  0.4249  0.7141 -0.0132
 2965TIP3    H230387   5.721   5.936   1.354  0.7287 -0.3626  0.3056
 2966TIP3   OH230388   3.191   4.417  14.473 -0.5446 -0.2404  0.0648
 2966TIP3    H130389   3.119   4.440  14.530 -0.8071  0.6498 -0.5994
 2966TIP3    H230390   3.150   4.377  14.396 -0.5895  2.3538 -1.3722
 2967TIP3   OH230391   2.489   0.789  12.431  0.2574 -0.0746 -0.4404
 2967TIP3    H130392   2.469   0.735  12.508  1.2259  1.5331  0.9983
 2967TIP3    H230393   2.564   0.842  12.457 -0.2834  1.5522 -1.9958
 2968TIP3   OH230394   5.050   6.203   2.142 -0.3306 -0.3341  0.3638
 2968TIP3    H130395   5.067   6.292   2.110  2.9169 -0.8016  0.4499
 2968TIP3    H230396   4.972   6.176   2.095 -1.3292  2.4769  0.2058
 2969TIP3   OH230397   2.289   4.974   6.936 -0.3034  0.5272  0.1574
 2969TIP3    H130398   2.193   4.973   6.940 -0.4004 -1.3902 -1.0389
 2969TIP3    H230399   2.309   4.933   6.851  1.5808  0.3510  0.6539
 2970TIP3   OH230400   2.344   3.458  16.609 -0.5176  0.3489 -0.6098
 2970TIP3    H130401   2.263   3.410  16.621  0.4007 -0.7378  1.8966
 2970TIP3    H230402   2.406   3.394  16.574  0.0821  0.2804  0.5214
 2971TIP3   OH230403   3.745   5.316   5.538 -0.0447 -0.8169 -0.2326
 2971TIP3    H130404   3.673   5.254   5.522  0.2887 -1.5692  1.0360
 2971TIP3    H230405   3.715   5.398   5.497 -0.7768 -1.6159 -1.3842
 2972TIP3   OH230406   5.174   5.879   6.102 -0.5089 -0.4480 -0.0302
 2972TIP3    H130407   5.103   5.943   6.098  0.0186  0.1132 -0.6821
 2972TIP3    H230408   5.253   5.930   6.087  0.0588 -1.0406  0.8628
 2973TIP3   OH230409   2.968   0.097  11.592  1.3169 -0.2015 -0.0292
 2973TIP3    H130410   2.986   0.018  11.541 -0.0736  0.0248 -0.9382
 2973TIP3    H230411   2.910   0.068  11.662  0.3524  0.0875 -0.6912
 2974TIP3   OH230412   1.509   6.379  13.838 -0.0756  0.2307  0.3384
 2974TIP3    H130413   1.445   6.450  13.839 -0.7613 -0.2555 -2.4116
 2974TIP3    H230414   1.459   6.302  13.865 -0.0399  0.2734  0.5287
 2975TIP3   OH230415   1.828   6.477   1.033  0.2449 -0.7767 -0.0602
 2975TIP3    H130416   1.923   6.470   1.038  0.3364 -0.3906 -0.9663
 2975TIP3    H230417   1.800   6.393   0.996  0.3447 -0.4899 -0.8115
 2976TIP3   OH230418   6.422   1.432   5.784 -0.3569  0.0785  0.2980
 2976TIP3    H130419   6.477   1.474   5.850  1.0975 -0.5594 -0.4546
 2976TIP3    H230420   6.334   1.466   5.800  0.1832  0.8636  1.7723
 2977TIP3   OH230421   6.423   3.277  11.379 -0.7961  0.2075 -0.0513
 2977TIP3    H130422   6.493   3.217  11.407 -1.6384 -0.6378  0.3132
 2977TIP3    H230423   6.452   3.310  11.294 -0.2240 -0.6030 -0.1861
 2978TIP3   OH230424   3.200   3.373   0.432  0.0393  0.0969 -0.0459
 2978TIP3    H130425   3.169   3.312   0.364  3.0506 -1.3250 -0.2863
 2978TIP3    H230426   3.123   3.388   0.487 -1.0913 -3.3500 -0.4280
 2979TIP3   OH230427   4.809   4.272   1.094 -0.3705 -1.0124 -0.2347
 2979TIP3    H130428   4.869   4.317   1.153 -1.0091 -1.2161  0.5775
 2979TIP3    H230429   4.865   4.215   1.041  0.1394 -1.2970  0.6003
 2980TIP3   OH230430   2.047   3.147  13.907  0.2112  0.1165  0.2372
 2980TIP3    H130431   2.072   3.236  13.930  0.6900  0.9878 -3.0657
 2980TIP3    H230432   2.102   3.091  13.960 -1.2019  1.6357  3.5944
 2981TIP3   OH230433   3.138   2.022   0.800 -0.0397  0.0916 -0.4945
 2981TIP3    H130434   3.180   2.059   0.722  0.6704 -0.6377 -0.4661
 2981TIP3    H230435   3.105   2.098   0.847  3.6466  1.0494  0.9002
 2982TIP3   OH230436   0.184   2.531  11.383 -0.9711 -0.1815 -0.3641
 2982TIP3    H130437   0.168   2.579  11.464  1.7334 -0.4587  0.4453
 2982TIP3    H230438   0.241   2.589  11.332  1.5258 -1.9381  0.2075
 2983TIP3   OH230439   4.710   6.602   4.313 -0.4691  0.5050 -0.9981
 2983TIP3    H130440   4.678   6.692   4.324 -0.8087  0.4426 -1.4316
 2983TIP3    H230441   4.762   6.605   4.232  0.7199  0.6240 -0.2663
 2984TIP3   OH230442   3.454   1.112  15.743  0.1961  0.0902 -0.5329
 2984TIP3    H130443   3.505   1.035  15.720  0.5433 -0.2485  1.2314
 2984TIP3    H230444   3.373   1.078  15.781  0.0165  0.6093 -0.4364
 2985TIP3   OH230445   3.226   4.212  13.019  0.3068 -0.4868 -0.0605
 2985TIP3    H130446   3.287   4.286  13.019 -2.2655  1.7755  0.0128
 2985TIP3    H230447   3.194   4.207  13.109 -0.0539 -1.2849 -0.2188
 2986TIP3   OH230448   5.352   6.251   0.785  0.0419 -0.3694  0.4506
 2986TIP3    H130449   5.331   6.337   0.748 -0.3296 -0.8337 -0.4424
 2986TIP3    H230450   5.385   6.270   0.873  0.1523  0.7010  0.1914
 2987TIP3   OH230451   3.530   3.744  16.752 -0.0118 -0.8321  0.1536
 2987TIP3    H130452   3.607   3.741  16.695  0.7506 -0.7988  1.1509
 2987TIP3    H230453   3.493   3.656  16.746 -0.8261 -0.4169 -1.5390
 2988TIP3   OH230454   2.149   4.350   4.632  0.7709  0.0152  0.1369
 2988TIP3    H130455   2.105   4.294   4.696 -0.0410  0.1156 -0.3194
 2988TIP3    H230456   2.078   4.386   4.579  1.5033 -1.8235 -2.2783
 2989TIP3   OH230457   6.348   0.545   5.397 -0.3956  0.2539 -0.2988
 2989TIP3    H130458   6.307   0.477   5.344  0.6057  0.1247 -0.9430
 2989TIP3    H230459   6.289   0.557   5.470 -1.6832  0.2349 -1.2988
 2990TIP3   OH230460   0.468   6.420  16.831 -0.2677  0.1743  0.3150
 2990TIP3    H130461   0.555   6.455  16.849 -0.6142  0.7458  0.9394
 2990TIP3    H230462   0.468   6.333  16.871  0.9031 -0.9829 -2.0279
 2991TIP3   OH230463   5.734   2.189   4.108  0.7661 -0.2681  0.1578
 2991TIP3    H130464   5.684   2.194   4.189  0.5066 -0.6755  0.0291
 2991TIP3    H230465   5.758   2.096   4.100  1.2227 -0.1451  0.0261
 2992TIP3   OH230466   5.320   6.335   2.857 -0.3525 -0.3318 -0.3742
 2992TIP3    H130467   5.330   6.379   2.941  0.6657  0.9610 -1.1313
 2992TIP3    H230468   5.360   6.249   2.869  0.6501  0.1988  0.2094
 2993TIP3   OH230469   1.055   1.442  14.810 -0.0827  0.2106  0.1048
 2993TIP3    H130470   1.098   1.527  14.813 -1.7601  1.0927  3.1172
 2993TIP3    H230471   0.981   1.455  14.750 -0.3392  0.9195  0.5622
 2994TIP3   OH230472   4.736   6.586   3.902  0.0300 -0.2225 -0.6624
 2994TIP3    H130473   4.668   6.646   3.872  0.5138  0.4148 -0.5132
 2994TIP3    H230474   4.800   6.642   3.947 -0.3079 -1.0476  0.9380
 2995TIP3   OH230475   5.223   1.172   3.936  0.1159 -0.6152  0.0505
 2995TIP3    H130476   5.245   1.081   3.918  0.9467 -0.2419 -0.8624
 2995TIP3    H230477   5.291   1.202   3.996 -0.3278 -0.6668  0.5946
 2996TIP3   OH230478   0.300   2.224   4.543 -0.5009  0.3007 -0.5086
 2996TIP3    H130479   0.256   2.238   4.627 -0.5491  1.8281 -0.7589
 2996TIP3    H230480   0.230   2.235   4.478 -0.0488  1.3365 -0.8371
 2997TIP3   OH230481   1.954   0.364   1.833  0.3390 -0.1723  0.8714
 2997TIP3    H130482   1.946   0.440   1.891  0.4443  0.3083  0.2618
 2997TIP3    H230483   2.004   0.301   1.885  1.4750  0.6925  0.8895
 2998TIP3   OH230484   2.168   5.065  11.379  0.3712 -0.0338 -0.4785
 2998TIP3    H130485   2.158   5.160  11.391 -0.7169 -0.2831  0.8686
 2998TIP3    H230486   2.196   5.055  11.288  1.4970  1.6283 -0.3718
 2999TIP3   OH230487   4.679   2.356   1.764  0.0893  0.3981 -0.2888
 2999TIP3    H130488   4.613   2.407   1.812 -1.1843 -1.4546  0.0478
 2999TIP3    H230489   4.686   2.274   1.814 -0.9621 -1.4412 -2.9331
 3000TIP3   OH230490   5.420   6.260   4.011 -0.0464  0.2571 -0.3820
 3000TIP3    H130491   5.341   6.215   3.981 -0.3073  0.6215 -0.2461
 3000TIP3    H230492   5.400   6.353   4.002  0.4499  0.3478 -0.5518
 3001TIP3   OH230493   0.856   6.290   4.328  0.0669  0.4670 -0.0635
 3001TIP3    H130494   0.900   6.344   4.263  0.9347  2.6986  2.2128
 3001TIP3    H230495   0.870   6.200   4.299  0.3830  1.3521 -2.9075
 3002TIP3   OH230496   4.670   4.618  13.614 -0.1682  0.6184  0.7321
 3002TIP3    H130497   4.687   4.654  13.527  1.4097 -0.0835  0.7160
 3002TIP3    H230498   4.693   4.689  13.674 -0.0440  0.6830  0.6099
 3003TIP3   OH230499   4.425   1.993  15.618 -0.4576  0.1521 -0.0649
 3003TIP3    H130500   4.470   2.069  15.653 -1.1861 -0.1412  1.5841
 3003TIP3    H230501   4.488   1.954  15.556 -0.0829  2.0538 -0.9399
 3004TIP3   OH230502   3.528   0.234  11.018 -0.3528  0.1891 -0.3394
 3004TIP3    H130503   3.465   0.294  11.055 -0.7953 -0.4834  0.0166
 3004TIP3    H230504   3.477   0.156  10.996  0.4729 -0.6926  0.7288
 3005TIP3   OH230505   4.102   4.807  11.611  0.0270  0.1505 -0.1501
 3005TIP3    H130506   4.045   4.843  11.679 -0.2296 -1.6285  0.6145
 3005TIP3    H230507   4.171   4.762  11.658  1.5210  1.3414 -1.0873
 3006TIP3   OH230508   3.418   4.831   1.568 -0.2539  0.0782  0.4870
 3006TIP3    H130509   3.477   4.897   1.604  2.0271 -0.2131 -2.3571
 3006TIP3    H230510   3.344   4.881   1.534  1.2842  1.2564 -1.3403
 3007TIP3   OH230511   2.257   5.778  12.945 -0.0896  0.2180 -0.5219
 3007TIP3    H130512   2.240   5.713  13.012 -1.6922  2.0554  0.9705
 3007TIP3    H230513   2.350   5.767  12.924  0.5898 -0.2158  2.2751
 3008TIP3   OH230514   1.490   3.280  15.856 -0.0572 -0.4228  0.0846
 3008TIP3    H130515   1.459   3.345  15.919  1.1734 -0.3661  0.6550
 3008TIP3    H230516   1.410   3.239  15.822 -0.7457 -0.4811  1.7046
 3009TIP3   OH230517   6.520   5.841   2.073 -0.4554  0.2502  0.2277
 3009TIP3    H130518   6.462   5.779   2.115 -1.1449  0.7713  0.0675
 3009TIP3    H230519   6.583   5.865   2.141  1.8255 -2.9432 -0.5209
 3010TIP3   OH230520   4.152   2.300  11.969 -0.1025 -0.1084 -0.0324
 3010TIP3    H130521   4.070   2.255  11.988  0.3279 -1.3231 -0.8825
 3010TIP3    H230522   4.217   2.255  12.024  0.5028 -1.2270 -1.5903
 3011TIP3   OH230523   5.361   5.153  12.864 -0.0604  0.5224  0.6135
 3011TIP3    H130524   5.335   5.163  12.955  0.3387 -1.8387  1.0720
 3011TIP3    H230525   5.456   5.154  12.866 -0.0549  1.5550  0.0532
 3012TIP3   OH230526   0.789   6.822   2.263  0.4558 -0.3706  0.2874
 3012TIP3    H130527   0.801   6.806   2.356  0.4797  1.7692  0.7097
 3012TIP3    H230528   0.847   6.896   2.244  1.1197 -1.3390 -1.6323
 3013TIP3   OH230529   0.828   4.098   2.686  0.2077  0.6016  0.0877
 3013TIP3    H130530   0.870   4.059   2.763  1.6100  0.3800 -0.7357
 3013TIP3    H230531   0.897   4.152   2.646 -0.6928  1.2405 -0.6426
 3014TIP3   OH230532   3.880   4.394   1.110  0.1147 -0.1926  0.2913
 3014TIP3    H130533   3.793   4.427   1.089 -0.2467 -1.0863  0.3480
 3014TIP3    H230534   3.910   4.449   1.182 -0.5074 -0.0525  0.4434
 3015TIP3   OH230535   4.050   1.082   1.526 -0.1073 -0.0698 -0.3013
 3015TIP3    H130536   4.118   1.044   1.581  0.1739 -0.5902 -0.9774
 3015TIP3    H230537   4.095   1.150   1.475 -0.4324  0.6204  0.3284
 3016TIP3   OH230538   5.760   2.785   3.686 -0.6990 -0.1003 -0.5933
 3016TIP3    H130539   5.687   2.834   3.649  1.8386  2.9284 -2.1533
 3016TIP3    H230540   5.804   2.746   3.611  0.9160  0.6593 -0.0851
 3017TIP3   OH230541   2.810   3.533  15.073  0.4069  0.1040  0.0639
 3017TIP3    H130542   2.904   3.530  15.088  0.7431 -0.5138 -1.8950
 3017TIP3    H230543   2.799   3.593  15.000 -0.8087  0.7278  0.7251
 3018TIP3   OH230544   5.030   0.712  13.185 -0.3317  0.5752  0.3958
 3018TIP3    H130545   5.063   0.643  13.127 -2.4881 -0.8397  0.7492
 3018TIP3    H230546   5.061   0.794  13.145  0.7518 -0.4892 -1.0539
 3019TIP3   OH230547   5.925   1.716  14.855 -0.6594 -0.1260 -0.2120
 3019TIP3    H130548   5.952   1.698  14.765  2.2057  2.4291 -0.0398
 3019TIP3    H230549   5.960   1.642  14.906  2.9028  1.1111 -0.5834
 3020TIP3   OH230550   6.013   4.609  10.859 -0.7000  0.2053 -0.1305
 3020TIP3    H130551   6.094   4.567  10.832 -1.5722 -0.9182 -1.0571
 3020TIP3    H230552   5.978   4.648  10.779 -2.8151 -2.3236 -0.5513
 3021TIP3   OH230553   0.395   0.204   4.862  0.2579  0.3900 -0.3112
 3021TIP3    H130554   0.328   0.187   4.929  1.8330 -1.6214  0.9023
 3021TIP3    H230555   0.474   0.160   4.896  1.8141  1.4419 -2.3412
 3022TIP3   OH230556   2.570   4.977  17.042  0.0950 -0.5719 -0.2414
 3022TIP3    H130557   2.530   4.901  16.999  1.0336 -0.6927 -0.9366
 3022TIP3    H230558   2.648   4.996  16.990  0.4925  0.1729  0.5927
 3023TIP3   OH230559   1.158   4.454  10.937  0.1760  0.3428  0.4334
 3023TIP3    H130560   1.130   4.368  10.907  2.8960 -1.0655  1.5996
 3023TIP3    H230561   1.249   4.460  10.911  1.0494  1.3914  3.3396
 3024TIP3   OH230562   3.089   4.704  11.991  0.2156 -0.1154  0.1941
 3024TIP3    H130563   3.065   4.725  12.081 -2.9142 -1.4466 -0.2200
 3024TIP3    H230564   3.158   4.638  11.999 -0.4362 -0.6557  1.6739
 3025TIP3   OH230565   1.461   1.859   5.058  0.4764  0.0810 -0.3662
 3025TIP3    H130566   1.378   1.906   5.059 -0.3308 -1.2589 -1.3063
 3025TIP3    H230567   1.468   1.820   5.145 -0.0021 -0.0068 -0.3660
 3026TIP3   OH230568   2.182   0.651  13.116  0.2304 -0.3744 -0.1965
 3026TIP3    H130569   2.268   0.622  13.146  0.9868  0.9224 -1.0086
 3026TIP3    H230570   2.122   0.625  13.187  1.3078 -1.0972  0.4827
 3027TIP3   OH230571   3.359   5.914  13.307  0.0076 -0.2473  0.5087
 3027TIP3    H130572   3.437   5.890  13.357 -0.8029 -0.8991  1.4981
 3027TIP3    H230573   3.388   5.986  13.251  1.4620 -0.8493  0.4363
 3028TIP3   OH230574   1.076   3.738   4.546 -0.2449  0.0922  0.6555
 3028TIP3    H130575   0.990   3.776   4.531 -1.9223 -2.4633  2.8670
 3028TIP3    H230576   1.100   3.768   4.634  2.4386  2.7894 -0.8000
 3029TIP3   OH230577   1.270   0.036  14.534  0.5661  0.5393  0.1831
 3029TIP3    H130578   1.239   0.076  14.616 -0.4001  1.2907 -0.5227
 3029TIP3    H230579   1.296   0.110  14.480  2.0933  0.0000  0.1302
 3030TIP3   OH230580   6.525   3.563   1.281  0.8122 -0.2610  0.2363
 3030TIP3    H130581   6.490   3.623   1.215 -1.6298 -1.7288  0.0622
 3030TIP3    H230582   6.594   3.613   1.324  0.7301  1.6705 -1.6799
 3031TIP3   OH230583   1.235   6.765   6.027  0.1398 -0.2631 -0.1571
 3031TIP3    H130584   1.193   6.850   6.038  1.2888  0.2526  0.4546
 3031TIP3    H230585   1.299   6.761   6.098 -0.5254 -2.0452  0.3938
 3032TIP3   OH230586   3.762   3.859   6.368 -0.3848  0.2018 -0.4312
 3032TIP3    H130587   3.782   3.949   6.394 -2.5734  0.8591 -0.7676
 3032TIP3    H230588   3.838   3.831   6.318  0.7154  1.5504  0.4009
 3033TIP3   OH230589   1.350   5.164  14.707 -0.0210  0.1688 -0.2202
 3033TIP3    H130590   1.347   5.259  14.716  2.1838  0.1832  1.1490
 3033TIP3    H230591   1.259   5.136  14.713 -0.5511  2.0286  1.6958
 3034TIP3   OH230592   6.629   0.238  15.869  0.8468 -0.0499 -0.6687
 3034TIP3    H130593   6.551   0.183  15.859  0.5754  0.0953  0.5148
 3034TIP3    H230594   6.600   0.326  15.844  0.5114  0.0828  0.1731
 3035TIP3   OH230595   6.125   4.440  12.062  0.0454  0.1570 -0.0532
 3035TIP3    H130596   6.204   4.493  12.074 -0.8559  1.4725  0.3195
 3035TIP3    H230597   6.107   4.445  11.968 -0.4864  1.1955  0.1006
 3036TIP3   OH230598   3.897   6.453  15.997 -0.0249  0.5691 -0.0263
 3036TIP3    H130599   3.981   6.438  16.039 -0.3468 -2.3876 -0.2307
 3036TIP3    H230600   3.918   6.459  15.903 -0.1298 -2.3308 -0.3236
 3037TIP3   OH230601   1.729   1.262  15.619 -0.1883 -0.0951  0.1111
 3037TIP3    H130602   1.783   1.340  15.632 -0.1714 -0.3120  1.5272
 3037TIP3    H230603   1.757   1.202  15.688 -0.4475 -1.2286 -0.7369
 3038TIP3   OH230604   6.353   6.211  11.299  0.0671  0.6672 -0.2283
 3038TIP3    H130605   6.390   6.133  11.341 -0.2417  0.3635 -0.5093
 3038TIP3    H230606   6.415   6.281  11.319  1.7792 -0.1707 -2.1732
 3039TIP3   OH230607   0.504   4.279  13.984  0.9014  0.2203 -0.3029
 3039TIP3    H130608   0.480   4.187  13.994 -1.0799  0.7924  0.9562
 3039TIP3    H230609   0.542   4.303  14.068  0.1111  0.8566 -0.1050
 3040TIP3   OH230610   5.592   2.712   2.748  0.4265  0.4253 -0.3350
 3040TIP3    H130611   5.685   2.690   2.755  0.8100  1.4731 -1.6965
 3040TIP3    H230612   5.587   2.804   2.776 -0.0150  0.6887 -1.2308
 3041TIP3   OH230613   4.833   6.781  12.812 -0.2465  0.1937 -0.2922
 3041TIP3    H130614   4.820   6.851  12.749 -0.3080  1.4045  1.0147
 3041TIP3    H230615   4.925   6.788  12.837 -0.1297 -0.5087 -0.4981
 3042TIP3   OH230616   2.192   3.803   1.667  0.1248  0.6683 -0.4752
 3042TIP3    H130617   2.250   3.879   1.654 -0.5186  1.2326 -0.0900
 3042TIP3    H230618   2.250   3.727   1.655  2.1070  1.0811  4.2774
 3043TIP3   OH230619   3.940   5.224  14.727 -0.2016  0.2946  0.3956
 3043TIP3    H130620   4.006   5.196  14.664 -1.5410 -0.1614 -0.8732
 3043TIP3    H230621   3.930   5.149  14.786  0.1160  0.2017  0.3328
 3044TIP3   OH230622   5.972   1.040  15.070  0.1963 -0.3705  0.1982
 3044TIP3    H130623   6.017   1.084  14.998 -1.2682  0.0310 -0.5175
 3044TIP3    H230624   6.040   1.022  15.134  1.5446 -0.6810 -1.2563
 3045TIP3   OH230625   1.772   1.766   1.163  0.9291  0.1364 -0.5544
 3045TIP3    H130626   1.694   1.796   1.210  0.2353  1.4843 -2.4244
 3045TIP3    H230627   1.820   1.714   1.226 -1.0066  0.0869  0.9589
 3046TIP3   OH230628   4.294   2.947   6.357  0.0296 -0.3598  0.0380
 3046TIP3    H130629   4.223   2.967   6.296 -1.2337 -0.6095  1.3581
 3046TIP3    H230630   4.370   2.995   6.323 -0.7626 -0.0753 -1.4081
 3047TIP3   OH230631   6.783   2.335   3.406  0.0077  0.1605 -0.1259
 3047TIP3    H130632   6.693   2.366   3.408  0.5672  1.9846 -1.0067
 3047TIP3    H230633   6.777   2.242   3.428 -1.9759  0.4370  0.6826
 3048TIP3   OH230634   3.393   6.717  13.825 -0.7147 -0.0612  0.3428
 3048TIP3    H130635   3.343   6.750  13.751 -0.6813  0.3469  0.5040
 3048TIP3    H230636   3.467   6.671  13.785  0.5269  2.0039  0.1081
 3049TIP3   OH230637   1.008   0.368  12.762 -0.2950 -0.2608 -0.5313
 3049TIP3    H130638   1.077   0.350  12.698 -0.8814  1.5111 -1.7382
 3049TIP3    H230639   0.927   0.348  12.716 -0.7024  0.5728 -0.1994
 3050TIP3   OH230640   1.530   0.701   2.836 -0.0641  0.2422 -0.1934
 3050TIP3    H130641   1.492   0.767   2.778 -1.3836 -0.8125 -0.5764
 3050TIP3    H230642   1.624   0.717   2.832 -0.2404  1.1114 -1.4928
 3051TIP3   OH230643   2.280   6.624  14.099 -0.2638  0.1081  0.3014
 3051TIP3    H130644   2.247   6.541  14.136 -0.6926  0.5222  0.8637
 3051TIP3    H230645   2.358   6.598  14.051  0.1987 -0.4923  1.3203
 3052TIP3   OH230646   3.625   2.569   4.365 -0.6221  0.7322 -0.7666
 3052TIP3    H130647   3.655   2.656   4.391 -1.4072  0.7954 -0.0428
 3052TIP3    H230648   3.678   2.548   4.288  0.7767  1.1319  0.0366
 3053TIP3   OH230649   3.020   5.583   2.187 -0.2437  0.0076  0.1093
 3053TIP3    H130650   3.012   5.671   2.152  0.2531 -0.1460 -0.4057
 3053TIP3    H230651   2.996   5.591   2.279  1.5070  1.0149  0.5057
 3054TIP3   OH230652   5.889   2.889  16.841 -0.1860  0.2856 -0.2181
 3054TIP3    H130653   5.843   2.967  16.873 -1.1454 -0.3238 -0.0453
 3054TIP3    H230654   5.818   2.829  16.816  0.5357 -0.5579 -0.2667
 3055TIP3   OH230655   6.782   2.886  14.331 -0.2826  0.2140 -0.0731
 3055TIP3    H130656   6.855   2.931  14.373 -1.0452  1.2542  0.1963
 3055TIP3    H230657   6.769   2.934  14.249  0.0480 -0.6726 -0.6529
 3056TIP3   OH230658   6.588   4.382  14.564 -0.5352 -0.1243  0.1910
 3056TIP3    H130659   6.646   4.457  14.572  1.6657 -1.7666  0.5966
 3056TIP3    H230660   6.525   4.392  14.635  1.2198  0.1372  1.8018
 3057TIP3   OH230661   4.443   2.430  17.117 -0.3231  0.0875 -0.0884
 3057TIP3    H130662   4.483   2.478  17.044 -1.8256  1.7485  0.1310
 3057TIP3    H230663   4.377   2.375  17.076  0.6050 -0.9880 -0.2090
 3058TIP3   OH230664   2.258   1.764   4.201 -0.0183  0.5201  0.6558
 3058TIP3    H130665   2.164   1.768   4.180 -0.8296 -1.0871  3.5501
 3058TIP3    H230666   2.274   1.845   4.250 -0.6087 -0.4210  2.4860
 3059TIP3   OH230667   1.141   5.252   2.486 -0.0463  0.0209  0.3898
 3059TIP3    H130668   1.183   5.337   2.476  0.6388 -0.3822 -0.2761
 3059TIP3    H230669   1.118   5.247   2.579 -3.0892  2.2970 -0.0960
 3060TIP3   OH230670   4.535   3.817   4.316  0.1519  0.0173 -0.1318
 3060TIP3    H130671   4.531   3.825   4.412 -0.8055  0.8928 -0.2216
 3060TIP3    H230672   4.510   3.904   4.284 -0.9010 -0.6325 -1.1830
 3061TIP3   OH230673   0.913   1.337  12.043 -0.4357 -0.4979  0.1466
 3061TIP3    H130674   0.949   1.310  11.959 -0.2978 -1.3701  0.4774
 3061TIP3    H230675   0.862   1.262  12.073  1.3842 -1.1347  1.9026
 3062TIP3   OH230676   6.253   4.165   1.504  0.0239 -0.0044 -0.6390
 3062TIP3    H130677   6.266   4.127   1.591 -0.3133  0.5518 -0.3431
 3062TIP3    H230678   6.172   4.214   1.511 -0.2887 -0.3940 -1.4287
 3063TIP3   OH230679   5.899   6.699   1.386  0.3737 -0.1583  0.3222
 3063TIP3    H130680   5.947   6.746   1.455  0.9135  0.1014 -0.2197
 3063TIP3    H230681   5.850   6.767   1.340  0.3122 -0.2771  0.2105
 3064TIP3   OH230682   3.311   5.478   3.887 -0.2614 -0.0054 -0.2542
 3064TIP3    H130683   3.339   5.408   3.828 -0.8285 -0.1823 -0.3185
 3064TIP3    H230684   3.218   5.464   3.899 -0.4454  0.9012 -0.4906
 3065TIP3   OH230685   6.227   0.647  15.475  0.1250  0.8101 -0.2233
 3065TIP3    H130686   6.294   0.624  15.411 -0.8486  0.0776 -1.0166
 3065TIP3    H230687   6.239   0.585  15.547  0.0399  0.4204 -0.5461
 3066TIP3   OH230688   1.661   6.548  13.610  0.3878 -0.0603 -0.1160
 3066TIP3    H130689   1.650   6.640  13.587  1.9622  0.4999  1.2050
 3066TIP3    H230690   1.678   6.548  13.704 -0.6969 -1.8213  0.1469
 3067TIP3   OH230691   1.975   0.861   2.211  0.0503 -0.3800  0.6319
 3067TIP3    H130692   1.969   0.872   2.306 -1.0050  0.1681  0.5238
 3067TIP3    H230693   1.897   0.811   2.187  1.1844 -2.0559  0.2359
 3068TIP3   OH230694   5.815   6.254  11.702  0.3061 -0.0473 -0.3615
 3068TIP3    H130695   5.751   6.256  11.773 -1.8124 -2.1525 -2.0531
 3068TIP3    H230696   5.871   6.178  11.723  0.8891  0.4657 -0.0182
 3069TIP3   OH230697   4.646   4.167   0.576  0.6167  0.1255  0.4980
 3069TIP3    H130698   4.609   4.247   0.613 -1.5509  0.7951 -2.7106
 3069TIP3    H230699   4.718   4.198   0.521  1.5173 -0.4729  1.3068
 3070TIP3   OH230700   0.696   2.557  13.411 -0.0494 -0.1442  0.5248
 3070TIP3    H130701   0.702   2.462  13.419 -0.4241 -0.2287 -0.0646
 3070TIP3    H230702   0.770   2.591  13.461 -0.4724 -0.7003  1.5566
 3071TIP3   OH230703   0.927   1.989  16.546 -0.4560  0.5190 -0.4080
 3071TIP3    H130704   0.868   1.965  16.617 -1.8151  1.9085 -1.0007
 3071TIP3    H230705   0.956   2.078  16.568  0.2990  0.3868 -0.8390
 3072TIP3   OH230706   6.654   1.820   4.785 -0.1078 -0.2153 -0.2233
 3072TIP3    H130707   6.729   1.763   4.802 -0.2439 -0.0197  1.1668
 3072TIP3    H230708   6.692   1.902   4.755  0.2136 -0.2988 -0.0503
 3073TIP3   OH230709   1.238   1.063  14.935 -0.0633  0.2510 -0.0757
 3073TIP3    H130710   1.296   1.032  15.003  0.3407 -0.9159 -0.9252
 3073TIP3    H230711   1.150   1.047  14.970  0.1218 -1.8661 -0.4470
 3074TIP3   OH230712   3.259   1.762   1.332 -0.2410 -0.1866  0.0840
 3074TIP3    H130713   3.261   1.857   1.318 -1.2294 -0.2596 -0.6742
 3074TIP3    H230714   3.350   1.739   1.348  0.1548  0.7623 -0.6638
 3075TIP3   OH230715   1.190   3.237   6.642 -0.3371 -0.2392  0.3878
 3075TIP3    H130716   1.122   3.267   6.583  2.8815  2.5710 -2.3649
 3075TIP3    H230717   1.194   3.142   6.629 -2.2004 -0.1692 -1.0371
 3076TIP3   OH230718   1.692   0.914  15.887 -0.3945  0.3720 -0.3971
 3076TIP3    H130719   1.623   0.854  15.860 -1.0052  0.4818  0.8904
 3076TIP3    H230720   1.650   0.975  15.948  0.7359  0.7071  0.0865
 3077TIP3   OH230721   2.165   0.280   2.827  0.4320 -0.6649 -0.5877
 3077TIP3    H130722   2.085   0.325   2.853 -0.1600 -0.7641 -2.1170
 3077TIP3    H230723   2.209   0.259   2.909  0.2396  1.7832  0.2126
 3078TIP3   OH230724   4.450   3.638  12.460 -0.0742 -0.2499  0.1478
 3078TIP3    H130725   4.393   3.709  12.489 -0.3346  0.3125 -1.6550
 3078TIP3    H230726   4.392   3.562  12.456 -0.6039  0.1948 -1.1323
 3079TIP3   OH230727   3.570   4.691  10.775 -0.1329 -0.2907 -0.0147
 3079TIP3    H130728   3.526   4.606  10.771 -0.2071 -0.3018  0.8426
 3079TIP3    H230729   3.654   4.677  10.730 -0.8252 -0.3587 -1.3551
 3080TIP3   OH230730   5.434   3.437  16.253  0.0822  0.6222  0.0292
 3080TIP3    H130731   5.413   3.486  16.333  0.8474 -0.1995  0.7626
 3080TIP3    H230732   5.429   3.502  16.183  1.0490  1.7495  0.9676
 3081TIP3   OH230733   6.762   5.081  12.509 -0.0360  0.0215 -0.2488
 3081TIP3    H130734   6.839   5.030  12.484 -0.6730 -0.5559 -1.0757
 3081TIP3    H230735   6.723   5.108  12.426 -0.8564  0.1148  0.1576
 3082TIP3   OH230736   6.813   2.545  12.760 -1.0241 -0.1480  0.0305
 3082TIP3    H130737   6.881   2.533  12.694  0.1062  1.0535  0.9225
 3082TIP3    H230738   6.805   2.460  12.803  0.1606 -0.2080  0.1424
 3083TIP3   OH230739   1.362   4.151  14.686  0.4104 -0.4830 -0.0959
 3083TIP3    H130740   1.427   4.207  14.727  0.0286 -0.0672 -0.0460
 3083TIP3    H230741   1.410   4.072  14.661  0.8893 -0.2575  0.1004
 3084TIP3   OH230742   2.889   0.027   0.429 -0.3651  0.6328 -0.5108
 3084TIP3    H130743   2.878  -0.019   0.513  0.4834  3.2121  1.1420
 3084TIP3    H230744   2.821   0.095   0.430  0.1636  1.2060 -1.5393
 3085TIP3   OH230745   2.012   3.906  14.074 -0.7385 -0.0376 -0.0410
 3085TIP3    H130746   2.107   3.903  14.062 -0.8424  0.9287 -1.4754
 3085TIP3    H230747   1.997   3.987  14.122 -0.7782 -0.7262  1.1280
 3086TIP3   OH230748   1.605   1.495   0.347  0.3013 -0.1176 -0.2566
 3086TIP3    H130749   1.564   1.412   0.369 -0.5399  0.0849 -1.0335
 3086TIP3    H230750   1.536   1.560   0.355  0.3066  0.1643 -2.0285
 3087TIP3   OH230751   0.412   4.023  14.732  0.3005 -0.0735 -0.0500
 3087TIP3    H130752   0.409   4.000  14.639  0.6899  0.2500 -0.1441
 3087TIP3    H230753   0.415   3.938  14.777  0.6713 -0.2297 -0.3582
 3088TIP3   OH230754   5.189   3.155   2.324  0.4558 -0.4972  0.2133
 3088TIP3    H130755   5.269   3.155   2.271  0.1793 -2.1394 -0.2547
 3088TIP3    H230756   5.217   3.188   2.409  1.6929 -1.2045  0.1082
 3089TIP3   OH230757   4.393   3.108   5.352  0.2028 -0.2971  0.5570
 3089TIP3    H130758   4.452   3.122   5.426  2.9469 -1.4580 -1.2520
 3089TIP3    H230759   4.380   3.195   5.314  2.2580 -0.1868 -0.0052
 3090TIP3   OH230760   5.959   4.627   2.145 -0.7520  0.2466 -0.0096
 3090TIP3    H130761   5.902   4.604   2.071  0.6336 -1.6454 -0.5744
 3090TIP3    H230762   5.922   4.708   2.180 -1.6143  1.0802 -2.6244
 3091TIP3   OH230763   6.158   3.229  15.006  0.4494  0.1354  0.6078
 3091TIP3    H130764   6.206   3.146  15.013 -0.2548 -0.4560 -1.1107
 3091TIP3    H230765   6.158   3.264  15.095  1.3752 -1.3570  1.2356
 3092TIP3   OH230766   3.404   6.697   1.690  0.2791  0.2223  0.1373
 3092TIP3    H130767   3.486   6.740   1.715  1.0535 -1.3321  0.4056
 3092TIP3    H230768   3.337   6.762   1.706  1.4221  1.4136  0.2676
 3093TIP3   OH230769   6.360   0.806  14.856  0.0992 -0.5092  0.1274
 3093TIP3    H130770   6.376   0.893  14.820  1.7184 -1.0964 -0.6562
 3093TIP3    H230771   6.345   0.750  14.779  0.7272 -1.2262  0.5098
 3094TIP3   OH230772   2.212   0.067   4.290  0.5839  0.3322 -0.1708
 3094TIP3    H130773   2.167   0.147   4.317 -0.4322 -0.1612 -0.3490
 3094TIP3    H230774   2.291   0.098   4.246 -0.4557  1.3093 -1.4535
 3095TIP3   OH230775   6.258   2.632   2.170  0.0058 -0.4259  0.2128
 3095TIP3    H130776   6.319   2.687   2.121  0.1183 -0.7916 -0.0655
 3095TIP3    H230777   6.307   2.552   2.188 -0.8254 -1.3087 -1.2334
 3096TIP3   OH230778   0.578   5.203   1.029  0.0001 -0.2546 -0.7145
 3096TIP3    H130779   0.549   5.199   1.121 -1.2715  1.8773 -0.9485
 3096TIP3    H230780   0.668   5.236   1.034 -0.0885 -0.0786 -0.2304
 3097TIP3   OH230781   0.869   6.589   2.099 -0.2768  0.0510 -0.1472
 3097TIP3    H130782   0.846   6.663   2.154 -0.4506  1.5304 -2.0917
 3097TIP3    H230783   0.959   6.606   2.071 -0.4095 -0.3078 -0.8203
 3098TIP3   OH230784   4.573   1.918   3.754 -0.3585 -0.4083  0.2992
 3098TIP3    H130785   4.610   2.001   3.785 -1.8592  0.5704 -0.4065
 3098TIP3    H230786   4.590   1.856   3.826  0.9050  0.4627  0.7797
 3099TIP3   OH230787   2.373   2.949  12.593 -0.5119 -0.3405  0.6700
 3099TIP3    H130788   2.370   3.044  12.606  1.2755  0.0741 -1.3465
 3099TIP3    H230789   2.305   2.931  12.529  0.5284 -0.0474 -0.5563
 3100TIP3   OH230790   0.660   2.236  14.888 -0.4702  0.2303  0.6227
 3100TIP3    H130791   0.624   2.176  14.823 -0.7322  0.1713  0.8236
 3100TIP3    H230792   0.677   2.316  14.839  2.9508 -0.9774 -0.4512
 3101TIP3   OH230793   0.269   0.770   6.296  0.0930 -0.6786 -0.7585
 3101TIP3    H130794   0.202   0.709   6.325  0.0288 -0.3528 -0.2169
 3101TIP3    H230795   0.284   0.748   6.204 -1.1437 -0.4033 -1.0340
 3102TIP3   OH230796   4.974   1.001  12.508  0.1534  0.1662  0.2176
 3102TIP3    H130797   4.911   1.005  12.435  1.4204  0.5020 -0.9005
 3102TIP3    H230798   5.002   1.092  12.520  2.5765 -0.2924 -1.2980
 3103TIP3   OH230799   5.088   5.404   3.228 -1.3121  0.5949  0.0943
 3103TIP3    H130800   5.164   5.366   3.184 -1.2744 -0.8041  1.3169
 3103TIP3    H230801   5.125   5.453   3.302 -1.5922 -0.5607  1.0329
 3104TIP3   OH230802   6.704   5.683   3.484  0.1187  0.7438 -0.8119
 3104TIP3    H130803   6.662   5.705   3.567  0.2668  0.9197 -0.7841
 3104TIP3    H230804   6.795   5.665   3.507 -0.1210 -0.5221 -0.7298
 3105TIP3   OH230805   1.454   0.020   4.504 -0.0243 -0.4255 -1.0078
 3105TIP3    H130806   1.368  -0.021   4.516 -1.7126  2.5598 -1.9483
 3105TIP3    H230807   1.447   0.104   4.548  1.8574  0.5793 -2.4773
 3106TIP3   OH230808   5.462   3.870   0.609  0.6618 -0.0495 -0.1434
 3106TIP3    H130809   5.479   3.957   0.646  0.6132  0.5474 -1.4880
 3106TIP3    H230810   5.366   3.865   0.604  0.6829  0.9782 -2.6523
 3107TIP3   OH230811   5.579   3.412  17.066  0.0832 -0.0255 -0.4343
 3107TIP3    H130812   5.485   3.409  17.046 -0.0190 -2.3245  0.1185
 3107TIP3    H230813   5.597   3.327  17.106  1.8208  1.4224  2.1298
 3108TIP3   OH230814   3.002   5.106  14.979  0.2817  0.4602 -0.5730
 3108TIP3    H130815   3.043   5.193  14.978  2.0863 -0.3386 -2.0767
 3108TIP3    H230816   2.977   5.093  15.071  0.3883  2.3478 -0.2204
 3109TIP3   OH230817   3.627   0.375   2.870 -0.0879  0.0389 -0.3062
 3109TIP3    H130818   3.706   0.393   2.920 -1.7115  1.3128  2.0124
 3109TIP3    H230819   3.658   0.339   2.787  2.8537 -0.0493  0.7242
 3110TIP3   OH230820   5.702   5.619  12.330 -0.1186  0.7312 -0.6909
 3110TIP3    H130821   5.670   5.592  12.244 -1.3617 -1.8050  0.4593
 3110TIP3    H230822   5.624   5.649  12.376 -0.0445 -0.6897  0.4502
 3111TIP3   OH230823   4.148   1.178   0.851  0.0517  0.0126 -0.3000
 3111TIP3    H130824   4.135   1.145   0.940 -0.2889 -0.4649 -0.5236
 3111TIP3    H230825   4.089   1.126   0.797  0.6245 -0.0530 -0.8829
 3112TIP3   OH230826   2.384   5.275  16.579 -0.3028  0.0149 -0.4944
 3112TIP3    H130827   2.470   5.314  16.565 -0.9002  1.3233 -0.6805
 3112TIP3    H230828   2.393   5.185  16.548  0.9350  0.1873 -0.6855
 3113TIP3   OH230829   6.420   6.023   0.897  0.2845  0.2899  0.0580
 3113TIP3    H130830   6.510   6.037   0.925  0.1360 -1.1467  1.3959
 3113TIP3    H230831   6.406   6.087   0.827  2.9681 -0.8289 -1.6453
 3114TIP3   OH230832   0.836   5.629   1.936  0.0025  0.0858  0.3511
 3114TIP3    H130833   0.811   5.573   1.862 -0.9781  0.1762  0.5968
 3114TIP3    H230834   0.754   5.670   1.963  0.3009 -0.1360  1.6409
 3115TIP3   OH230835   4.175   1.990   2.301  0.2398  0.4687  0.1767
 3115TIP3    H130836   4.214   2.059   2.356  1.5563  0.6472 -0.9178
 3115TIP3    H230837   4.148   1.922   2.364  1.8220  0.6022  1.0586
 3116TIP3   OH230838   0.657   4.276  17.157  0.1256 -0.4554 -0.0983
 3116TIP3    H130839   0.721   4.226  17.207  1.8108  0.5641 -1.1398
 3116TIP3    H230840   0.709   4.340  17.109 -1.9389  3.4162  2.2909
 3117TIP3   OH230841   4.138   6.135   3.907  0.1688  0.7700 -0.2274
 3117TIP3    H130842   4.055   6.131   3.858 -2.2301 -1.8883  3.4508
 3117TIP3    H230843   4.116   6.186   3.985  3.3508  3.4582 -0.8679
 3118TIP3   OH230844   2.478   5.936   6.521  0.0135 -0.8727 -0.4418
 3118TIP3    H130845   2.401   5.981   6.555  0.8835 -0.1966  0.7055
 3118TIP3    H230846   2.496   5.867   6.585  0.1281 -1.2942 -0.9185
 3119TIP3   OH230847   1.068   0.044  12.697  0.7993 -0.1514  0.0698
 3119TIP3    H130848   0.990   0.016  12.650 -0.9666  0.5032  2.3850
 3119TIP3    H230849   1.071   0.139  12.685  1.6121 -0.2348 -0.4776
 3120TIP3   OH230850   0.342   1.381   5.897  0.4234  0.7098  0.2754
 3120TIP3    H130851   0.383   1.457   5.857  2.0998  0.8731  2.1677
 3120TIP3    H230852   0.394   1.363   5.975  0.7742 -3.0512 -0.6293
 3121TIP3   OH230853   1.422   0.033  13.957  0.2479 -0.4571  0.0686
 3121TIP3    H130854   1.470   0.109  13.924 -0.1365  0.5773  1.8135
 3121TIP3    H230855   1.333   0.044  13.922  0.3014 -0.3486 -0.0350
 3122TIP3   OH230856   6.277   5.951   5.601  0.3789 -0.5567 -0.4201
 3122TIP3    H130857   6.264   5.971   5.509 -0.0012  0.2548 -0.1957
 3122TIP3    H230858   6.226   6.017   5.648 -0.1248 -1.4663  0.3581
 3123TIP3   OH230859   2.569   2.108  11.377 -0.0249  0.2958 -0.4535
 3123TIP3    H130860   2.532   2.056  11.449  1.2729 -0.2984 -0.1877
 3123TIP3    H230861   2.663   2.104  11.391  0.1510  2.1361 -0.8559
 3124TIP3   OH230862   2.771   0.927   4.240 -0.0658 -0.2055  0.4287
 3124TIP3    H130863   2.847   0.980   4.266  0.0111  0.0655 -0.3377
 3124TIP3    H230864   2.759   0.866   4.313 -0.5273  1.2376  1.6214
 3125TIP3   OH230865   3.100   0.714   4.388 -0.0536 -0.0840  0.1729
 3125TIP3    H130866   3.128   0.736   4.300 -0.1447  1.1400  0.4353
 3125TIP3    H230867   3.119   0.620   4.397  0.7841 -0.0161 -0.8209
 3126TIP3   OH230868   4.732   3.115  11.018 -0.0039  0.1329  0.3988
 3126TIP3    H130869   4.682   3.194  11.040 -0.6155 -0.0797 -0.1706
 3126TIP3    H230870   4.795   3.143  10.952  0.0094  0.2216  0.4507
 3127TIP3   OH230871   6.668   5.988   5.891  0.1671  0.4759  0.2825
 3127TIP3    H130872   6.581   6.017   5.919  1.1824  2.8436  1.2893
 3127TIP3    H230873   6.703   5.944   5.968  0.4676  1.0431  0.4780
 3128TIP3   OH230874   5.828   4.394  17.142 -0.2560 -0.0492 -0.1054
 3128TIP3    H130875   5.838   4.487  17.162 -1.7861 -0.3278  2.3258
 3128TIP3    H230876   5.772   4.360  17.212  1.2994 -3.0791 -0.1607
 3129TIP3   OH230877   3.816   4.916   3.797 -0.1085 -0.1699 -0.2341
 3129TIP3    H130878   3.834   4.946   3.886 -0.6832  0.9585 -0.4794
 3129TIP3    H230879   3.895   4.868   3.772  0.4793  0.3687  0.5203
 3130TIP3   OH230880   1.434   1.590   3.747 -0.3193  0.1405 -0.4387
 3130TIP3    H130881   1.521   1.615   3.779  0.0140 -1.5394  0.0614
 3130TIP3    H230882   1.374   1.618   3.816  0.2486 -2.1056  1.1077
 3131TIP3   OH230883   3.024   6.321   5.317 -0.4790 -0.2963  0.2443
 3131TIP3    H130884   3.100   6.378   5.326 -0.9647  0.1880  1.4067
 3131TIP3    H230885   3.033   6.284   5.229  2.2503 -1.9307  1.0997
 3132TIP3   OH230886   0.962   2.739  11.235  0.1037 -0.7092  0.1770
 3132TIP3    H130887   0.985   2.789  11.157 -0.4696  0.3844  0.6850
 3132TIP3    H230888   0.875   2.770  11.259 -0.1558 -1.7817  0.6566
 3133TIP3   OH230889   0.202   3.764   1.130  0.2584 -0.8935 -0.9479
 3133TIP3    H130890   0.209   3.802   1.218 -1.5986 -1.5873 -0.4634
 3133TIP3    H230891   0.184   3.839   1.073 -2.1891 -0.8275 -0.1744
 3134TIP3   OH230892   3.097   6.482  13.379  0.1769 -0.2421 -0.1986
 3134TIP3    H130893   3.142   6.430  13.445  2.7433  2.0008  0.0017
 3134TIP3    H230894   3.087   6.569  13.418 -0.7761  0.4172 -1.7624
 3135TIP3   OH230895   4.011   5.943  10.881  0.0426  0.2678  0.5247
 3135TIP3    H130896   4.069   5.987  10.819 -2.0152  1.2039 -0.8311
 3135TIP3    H230897   3.988   5.861  10.838 -1.6940  1.0892 -0.1553
 3136TIP3   OH230898   3.922   2.655   2.883  0.2813  0.1555 -0.2771
 3136TIP3    H130899   3.930   2.746   2.912  3.3240 -0.4168  1.0180
 3136TIP3    H230900   3.907   2.606   2.963  0.2040 -0.6595 -0.7826
 3137TIP3   OH230901   1.399   1.010   3.411 -0.0394  0.1345  0.3178
 3137TIP3    H130902   1.466   0.942   3.423  0.1562  0.0827 -0.9221
 3137TIP3    H230903   1.349   1.010   3.493  1.5822  0.2976  1.3533
 3138TIP3   OH230904   0.092   4.782  14.597 -0.2557 -0.0423  0.0107
 3138TIP3    H130905   0.162   4.729  14.560 -0.3180  0.5483 -0.9787
 3138TIP3    H230906   0.126   4.814  14.680 -0.2326 -1.6600  0.6540
 3139TIP3   OH230907   4.518   6.377   3.624 -0.4737  0.0055  0.2792
 3139TIP3    H130908   4.442   6.385   3.681  0.0738 -1.2095  1.2122
 3139TIP3    H230909   4.481   6.349   3.539 -1.3684  2.5489 -0.2643
 3140TIP3   OH230910   5.560   0.307   4.870 -0.0014 -0.0993  0.2922
 3140TIP3    H130911   5.494   0.365   4.830  0.7884  1.4973  1.1828
 3140TIP3    H230912   5.529   0.219   4.852 -0.4601  0.5429 -2.5344
 3141TIP3   OH230913   6.614   3.455   5.312 -0.2847  0.4512  0.0279
 3141TIP3    H130914   6.605   3.382   5.250  0.0720  0.1982  0.2699
 3141TIP3    H230915   6.636   3.413   5.395  0.2645  0.8597  0.0940
 3142TIP3   OH230916   2.596   0.328   1.507  0.1146  0.4872 -0.0333
 3142TIP3    H130917   2.569   0.419   1.494 -0.9696  0.6336  2.6155
 3142TIP3    H230918   2.656   0.331   1.581 -0.7152 -1.0287  0.7438
 3143TIP3   OH230919   1.666   6.420   2.457  0.4109 -0.1071 -0.2771
 3143TIP3    H130920   1.712   6.389   2.379 -2.2453  0.9200 -2.4257
 3143TIP3    H230921   1.578   6.381   2.449 -0.9996  2.7341  0.2973
 3144TIP3   OH230922   4.665   2.172  16.019  0.0139 -0.0637  0.0440
 3144TIP3    H130923   4.615   2.095  16.047  1.3517 -1.1119 -0.3536
 3144TIP3    H230924   4.618   2.204  15.942 -0.5847 -0.4416  0.2422
 3145TIP3   OH230925   0.507   6.815   2.273 -0.0583 -0.5868 -0.4074
 3145TIP3    H130926   0.603   6.806   2.271 -0.0922 -0.8659 -1.2726
 3145TIP3    H230927   0.477   6.770   2.194 -0.8892 -0.2993 -0.2666
 3146TIP3   OH230928   1.740   0.667  13.202  0.3721  0.1740  0.0965
 3146TIP3    H130929   1.825   0.667  13.247 -0.1304 -0.8908  1.0974
 3146TIP3    H230930   1.751   0.605  13.130  0.3603 -0.1936  0.4082
 3147TIP3   OH230931   0.583   0.586  17.121  0.0436 -0.2096 -0.1543
 3147TIP3    H130932   0.564   0.498  17.154  0.0893 -0.3591 -0.5242
 3147TIP3    H230933   0.511   0.605  17.060 -0.3595  0.3001  0.4626
 3148TIP3   OH230934   6.008   0.716   5.387 -0.5821 -0.4170  0.1783
 3148TIP3    H130935   6.053   0.765   5.317  0.1206  0.2284  1.0593
 3148TIP3    H230936   6.000   0.627   5.352 -1.7432  0.2576 -1.3879
 3149TIP3   OH230937   1.622   1.718  15.873 -0.3890  0.2059  0.1388
 3149TIP3    H130938   1.643   1.789  15.933  0.7390 -1.3173  1.6127
 3149TIP3    H230939   1.558   1.665  15.920  0.8013 -1.2222  0.1850
 3150TIP3   OH230940   5.164   3.386   5.902 -0.0006 -0.2588 -0.0406
 3150TIP3    H130941   5.150   3.427   5.988  1.5364  1.1590 -0.4259
 3150TIP3    H230942   5.118   3.443   5.840 -0.1853 -0.6701 -0.2878
 3151TIP3   OH230943   2.254   0.825  11.315  0.0950  0.3869  0.2930
 3151TIP3    H130944   2.248   0.920  11.302  0.7699  0.2086 -1.5281
 3151TIP3    H230945   2.167   0.801  11.348 -0.7453  1.3859 -1.0414
 3152TIP3   OH230946   2.781   4.613   0.187 -0.2476  0.0301 -0.0947
 3152TIP3    H130947   2.820   4.532   0.220 -0.4172  0.0349  0.1195
 3152TIP3    H230948   2.750   4.658   0.266 -2.3400 -0.8111 -0.3916
 3153TIP3   OH230949   1.948   4.960   1.522 -0.2177 -0.0387 -0.3785
 3153TIP3    H130950   1.857   4.989   1.516 -0.5339 -0.4087  1.9293
 3153TIP3    H230951   1.947   4.872   1.484 -1.1261 -0.5816  0.8472
 3154TIP3   OH230952   2.485   5.174   0.514 -0.3211  0.1544  0.3860
 3154TIP3    H130953   2.453   5.244   0.458 -0.0911  0.1409  0.2365
 3154TIP3    H230954   2.409   5.148   0.566 -0.7882 -0.4666 -0.5757
 3155TIP3   OH230955   4.017   4.349   0.295  0.3607 -0.5846  0.2470
 3155TIP3    H130956   4.041   4.420   0.355  0.6866  0.1951 -0.7743
 3155TIP3    H230957   4.100   4.323   0.256 -0.1363  0.9498 -2.0371
 3156TIP3   OH230958   0.308   4.686  12.808  0.5808  0.2466 -0.2777
 3156TIP3    H130959   0.214   4.668  12.801  0.5176 -0.3069  1.5861
 3156TIP3    H230960   0.332   4.718  12.721 -1.2435  0.0247 -0.9149
 3157TIP3   OH230961   3.250   1.054  14.285 -0.1807  0.8153 -1.2486
 3157TIP3    H130962   3.240   1.138  14.330 -1.1691 -0.7812  1.8311
 3157TIP3    H230963   3.162   1.016  14.285  0.5132 -0.9015 -0.9625
 3158TIP3   OH230964   0.341   4.212  16.186 -0.1903  0.3161  0.3714
 3158TIP3    H130965   0.369   4.120  16.184 -0.0789  0.3514  0.3034
 3158TIP3    H230966   0.412   4.259  16.143 -0.5440  0.3556 -0.1707
 3159TIP3   OH230967   1.569   3.774  14.986  0.4442  0.2199 -0.3058
 3159TIP3    H130968   1.660   3.756  14.964  0.7873 -0.9650  1.7577
 3159TIP3    H230969   1.531   3.687  15.002 -0.9682  0.7159 -0.8312
 3160TIP3   OH230970   4.324   5.433   0.330 -0.1486 -0.0095 -0.4203
 3160TIP3    H130971   4.248   5.378   0.348 -1.2637  1.4240 -0.5187
 3160TIP3    H230972   4.320   5.501   0.397  0.3457  0.7695 -1.1668
 3161TIP3   OH230973   5.453   5.896  12.293 -0.2549  0.2376  0.1201
 3161TIP3    H130974   5.452   5.809  12.333  2.3553 -0.3318 -0.8551
 3161TIP3    H230975   5.361   5.920  12.285 -0.9880 -1.7079  1.9344
 3162TIP3   OH230976   0.816   5.859  14.749 -0.6097  0.2831  0.3544
 3162TIP3    H130977   0.735   5.896  14.784 -0.3794  0.7005  0.4500
 3162TIP3    H230978   0.805   5.859  14.654 -0.7599  0.2463  0.3719
 3163TIP3   OH230979   1.661   4.850   4.843  0.5647 -0.0335 -0.2618
 3163TIP3    H130980   1.717   4.854   4.765  0.5258  0.3060 -0.2710
 3163TIP3    H230981   1.711   4.894   4.911  0.4738 -0.0731 -0.1689
 3164TIP3   OH230982   0.978   3.778  10.201 -0.1389 -0.1020  0.0241
 3164TIP3    H130983   0.895   3.735  10.223 -0.1209 -0.5203 -0.7041
 3164TIP3    H230984   1.044   3.710  10.214 -0.2177 -0.6900 -2.2013
 3165TIP3   OH230985   1.030   5.027  10.735 -0.5668  0.2789 -0.4556
 3165TIP3    H130986   1.064   5.078  10.661  0.4227 -0.3641 -0.4614
 3165TIP3    H230987   0.954   5.077  10.765 -1.8699 -0.1346 -2.7961
 3166TIP3   OH230988   4.682   1.956  16.817  0.2232 -0.2191  0.1086
 3166TIP3    H130989   4.705   1.864  16.806 -2.5512 -0.8191 -1.8711
 3166TIP3    H230990   4.729   2.001  16.746 -0.2302 -0.5102 -0.3859
 3167TIP3   OH230991   0.737   4.307   0.397  0.5262  0.0978 -0.7407
 3167TIP3    H130992   0.703   4.220   0.418  1.2119 -0.0774 -0.3333
 3167TIP3    H230993   0.784   4.334   0.476 -0.8292  1.4233 -0.3522
 3168TIP3   OH230994   2.493   4.089   3.586  0.2813  0.1207  0.3952
 3168TIP3    H130995   2.542   4.062   3.663  0.8855 -1.1323 -0.4104
 3168TIP3    H230996   2.428   4.151   3.620  1.9163  1.2786  1.5909
 3169TIP3   OH230997   3.841   0.890  16.745 -0.0273 -0.1829 -0.2687
 3169TIP3    H130998   3.834   0.812  16.689 -0.2312 -0.3883  0.0402
 3169TIP3    H230999   3.756   0.933  16.735 -0.9601 -1.4273  1.6450
 3170TIP3   OH231000   5.901   6.492   3.375 -0.1034  0.3198  0.7012
 3170TIP3    H131001   5.879   6.577   3.412  1.3106  0.8506  0.3730
 3170TIP3    H231002   5.869   6.496   3.284 -0.0311  0.4983  0.6851
 3171TIP3   OH231003   2.026   1.831   3.579  0.1537  0.3590 -0.9038
 3171TIP3    H131004   1.944   1.862   3.618 -0.0154  0.0929 -1.0467
 3171TIP3    H231005   2.083   1.815   3.654  0.5563  1.8652 -0.8575
 3172TIP3   OH231006   5.505   5.913  17.192 -0.2737 -0.0861 -0.0508
 3172TIP3    H131007   5.435   5.894  17.129 -0.4619 -0.4982  0.2769
 3172TIP3    H231008   5.510   6.009  17.194 -1.9184  0.0286  1.0710
 3173TIP3   OH231009   1.519   6.446  11.425  0.5425  0.1208  0.3605
 3173TIP3    H131010   1.493   6.355  11.440  2.1411 -0.5401 -0.5587
 3173TIP3    H231011   1.513   6.457  11.330  0.2312  1.0239  0.4754
 3174TIP3   OH231012   5.019   6.077   3.452  0.4651  0.1747  0.0519
 3174TIP3    H131013   4.982   6.163   3.436  0.5899  0.6282  2.0293
 3174TIP3    H231014   5.074   6.088   3.529 -0.9935 -2.0666  1.5094
 3175TIP3   OH231015   6.089   1.846  16.551  0.0276  0.3713 -0.0575
 3175TIP3    H131016   6.124   1.848  16.462 -0.4055 -0.6680 -0.2633
 3175TIP3    H231017   6.138   1.775  16.594 -0.1582  0.4956  0.3604
 3176TIP3   OH231018   3.838   5.561  11.415 -0.3108  0.0080 -0.5606
 3176TIP3    H131019   3.924   5.538  11.450 -0.0540 -0.7012 -1.5980
 3176TIP3    H231020   3.837   5.656  11.412  1.6997  0.0609 -3.4475
 3177TIP3   OH231021   5.801   2.536  12.859 -0.0694  0.0456  0.0517
 3177TIP3    H131022   5.719   2.493  12.882 -0.9187  2.1685  1.3472
 3177TIP3    H231023   5.866   2.495  12.917 -0.3987 -0.8770 -0.2051
 3178TIP3   OH231024   6.720   6.187   2.119 -0.0479 -0.8311  0.4571
 3178TIP3    H131025   6.768   6.265   2.144 -0.9019  0.1702 -0.8892
 3178TIP3    H231026   6.649   6.181   2.183 -0.0660 -0.4105  0.4794
 3179TIP3   OH231027   5.616   2.369  14.913 -0.2887  0.1273 -0.2296
 3179TIP3    H131028   5.699   2.327  14.937 -0.4538 -0.5273 -0.7696
 3179TIP3    H231029   5.618   2.371  14.817 -0.8945  0.1144 -0.2434
 3180TIP3   OH231030   1.679   4.269  11.797  0.2392  0.2647  0.1131
 3180TIP3    H131031   1.637   4.251  11.713  0.9763 -0.5835 -0.0962
 3180TIP3    H231032   1.720   4.355  11.785  0.3016  0.1690 -0.3895
 3181TIP3   OH231033   2.329   5.756  12.046  0.1488 -0.5667 -0.1566
 3181TIP3    H131034   2.325   5.764  12.141  0.9089 -3.3180  0.2030
 3181TIP3    H231035   2.239   5.738  12.020 -0.1607  0.7438 -0.0687
 3182TIP3   OH231036   4.643   4.590   6.443  0.1167  0.4106  0.0075
 3182TIP3    H131037   4.722   4.540   6.459 -0.7555 -0.7632  0.8001
 3182TIP3    H231038   4.674   4.671   6.402  1.6589 -0.2476 -0.1958
 3183TIP3   OH231039   1.174   4.334  14.335 -0.1675 -0.5750  0.5966
 3183TIP3    H131040   1.207   4.397  14.272 -0.9656  0.6195  1.3431
 3183TIP3    H231041   1.194   4.248  14.296 -0.4033  0.1166 -1.1405
 3184TIP3   OH231042   6.152   4.958   5.007 -0.2119 -0.2502  0.3524
 3184TIP3    H131043   6.175   4.951   4.915 -0.3993 -1.0743  0.3661
 3184TIP3    H231044   6.187   4.879   5.048 -1.0602 -0.4247  0.7827
 3185TIP3   OH231045   1.160   1.674   5.315 -0.0502 -0.1733  0.2401
 3185TIP3    H131046   1.152   1.581   5.293 -0.2902  0.2634 -1.6568
 3185TIP3    H231047   1.069   1.704   5.321  0.0289 -0.0304  0.7440
 3186TIP3   OH231048   1.404   6.468  17.170 -0.4549 -0.3868 -0.2401
 3186TIP3    H131049   1.348   6.486  17.244 -1.6887 -1.5593 -0.8404
 3186TIP3    H231050   1.484   6.432  17.208 -0.8986 -0.5541  0.5444
 3187TIP3   OH231051   6.248   0.652   6.142  0.0585  0.1631  0.1186
 3187TIP3    H131052   6.155   0.674   6.150 -0.2822 -0.7759 -1.0086
 3187TIP3    H231053   6.288   0.692   6.218 -1.3604  0.0914  0.9452
 3188TIP3   OH231054   4.871   2.813   0.893  0.4074  0.2682  0.5743
 3188TIP3    H131055   4.867   2.817   0.989  0.4050 -1.2923  0.6633
 3188TIP3    H231056   4.790   2.856   0.864  0.3264  0.6034  1.2631
 3189TIP3   OH231057   1.067   3.447  11.228  0.2412  0.0298  0.0747
 3189TIP3    H131058   1.076   3.432  11.134 -1.4648  2.7335 -0.6303
 3189TIP3    H231059   0.978   3.419  11.249 -0.0550  1.1731  0.4428
 3190TIP3   OH231060   5.531   5.924  16.270  0.0545  0.1733  0.2270
 3190TIP3    H131061   5.598   5.916  16.201  0.7402  1.7537  0.6435
 3190TIP3    H231062   5.453   5.953  16.223  0.1464 -0.0357 -0.0609
 3191TIP3   OH231063   3.183   5.016   0.266  0.1302 -0.5064 -0.7528
 3191TIP3    H131064   3.170   5.105   0.235 -1.1733 -0.8951 -1.4018
 3191TIP3    H231065   3.096   4.976   0.261  0.4914 -1.5196  0.4848
 3192TIP3   OH231066   1.423   5.490  15.615 -0.2834 -0.5972  0.1220
 3192TIP3    H131067   1.385   5.573  15.641  1.8000  0.8007 -0.9802
 3192TIP3    H231068   1.396   5.428  15.683 -3.5099  0.4675 -0.0600
 3193TIP3   OH231069   4.510   2.000  11.487 -0.2635  0.8917 -0.3867
 3193TIP3    H131070   4.514   2.003  11.391 -2.0332  0.0134 -0.5333
 3193TIP3    H231071   4.439   1.938  11.506  0.7830  0.1938  1.5126
 3194TIP3   OH231072   0.049   4.329  11.856  0.1861  0.0493  0.4159
 3194TIP3    H131073   0.045   4.283  11.772 -1.4562  0.9930 -0.0524
 3194TIP3    H231074   0.081   4.416  11.834  0.0365  0.2093  0.8202
 3195TIP3   OH231075   1.718   4.404   4.241 -0.3364  0.0601  0.5434
 3195TIP3    H131076   1.654   4.353   4.192 -0.4787  0.6215  0.1356
 3195TIP3    H231077   1.796   4.349   4.244 -0.2612  0.1003 -0.4802
 3196TIP3   OH231078   5.311   1.673  12.145 -0.3995  0.3397  0.1807
 3196TIP3    H131079   5.236   1.728  12.169 -0.1897  1.6420 -1.9038
 3196TIP3    H231080   5.290   1.641  12.057  1.2213  0.2564 -0.2037
 3197TIP3   OH231081   1.340   2.599  13.918  0.0632 -0.0724 -0.6697
 3197TIP3    H131082   1.294   2.667  13.967  1.1352 -0.4374  0.9547
 3197TIP3    H231083   1.426   2.636  13.900 -0.5433  0.3236 -2.9995
 3198TIP3   OH231084   2.855   4.869  13.745 -0.1537 -0.6472 -0.0274
 3198TIP3    H131085   2.905   4.790  13.763 -0.9521 -1.1367  0.1230
 3198TIP3    H231086   2.796   4.844  13.674 -0.9663 -0.4413  0.5534
 3199TIP3   OH231087   3.909   4.514  13.370 -0.1609  0.2018 -0.0716
 3199TIP3    H131088   3.901   4.418  13.374 -3.7243  0.2016 -2.4672
 3199TIP3    H231089   3.844   4.545  13.434  0.5592  1.0331  0.2678
 3200TIP3   OH231090   5.090   2.363  12.426  0.2819  0.0124  0.4140
 3200TIP3    H131091   5.099   2.353  12.332  0.1912 -0.1737  0.4240
 3200TIP3    H231092   5.087   2.457  12.441  0.6767  0.0492  0.2670
 3201TIP3   OH231093   2.193   4.196   0.814 -0.0869  0.2754  0.6822
 3201TIP3    H131094   2.156   4.130   0.872  0.5327 -0.6747  0.0069
 3201TIP3    H231095   2.163   4.172   0.727  0.9081  0.3400  0.3086
 3202TIP3   OH231096   4.622   1.107   4.187  0.5201  0.1955  0.3619
 3202TIP3    H131097   4.579   1.178   4.140  1.2161  0.6051  0.3430
 3202TIP3    H231098   4.632   1.140   4.276  1.4636  0.3961  0.1900
 3203TIP3   OH231099   5.027   1.504   0.659  0.2077  0.0057  0.1512
 3203TIP3    H131100   4.956   1.507   0.723  1.4762  0.7348  1.5780
 3203TIP3    H231101   5.012   1.580   0.603 -0.3249 -0.0463  0.2148
 3204TIP3   OH231102   1.131   2.012  16.846  0.5499 -0.8641  0.2279
 3204TIP3    H131103   1.151   2.106  16.852  1.1199 -1.0038  0.5659
 3204TIP3    H231104   1.054   2.001  16.902 -0.2532 -0.3961 -0.7496
 3205TIP3   OH231105   5.233   2.391   5.382  0.0016  0.0553 -0.1801
 3205TIP3    H131106   5.229   2.432   5.296 -2.2453  0.2450 -0.0541
 3205TIP3    H231107   5.324   2.402   5.410  1.0037 -0.7089 -2.8236
 3206TIP3   OH231108   4.709   5.082  10.708  0.2814  0.4896  0.3174
 3206TIP3    H131109   4.781   5.142  10.688 -0.5659  1.3575 -0.2402
 3206TIP3    H231110   4.638   5.111  10.651 -0.8390  0.3067  1.5711
 3207TIP3   OH231111   4.125   6.004   6.280  0.3029 -0.3272 -0.4863
 3207TIP3    H131112   4.213   5.968   6.265 -0.0473 -2.3764  1.7309
 3207TIP3    H231113   4.088   6.015   6.193  2.0958 -1.1422 -1.4007
 3208TIP3   OH231114   5.601   3.207  14.256 -0.1358  0.3200  0.6843
 3208TIP3    H131115   5.652   3.157  14.193  0.8524  2.1020 -0.0092
 3208TIP3    H231116   5.667   3.252  14.310 -0.9651  0.6819  1.4274
 3209TIP3   OH231117   4.065   1.265  13.417 -0.2161  0.1922  0.2903
 3209TIP3    H131118   4.160   1.254  13.426 -0.1228 -0.3810 -1.0640
 3209TIP3    H231119   4.027   1.196  13.471  0.2513 -1.8684 -1.8170
 3210TIP3   OH231120   4.825   1.423   2.251  0.6605  0.5282  0.7203
 3210TIP3    H131121   4.901   1.367   2.236 -0.4351 -0.7577 -0.2753
 3210TIP3    H231122   4.847   1.506   2.208  1.5261  0.1885  0.4970
 3211TIP3   OH231123   1.823   6.621   4.144 -0.4009  0.2635  0.0797
 3211TIP3    H131124   1.798   6.604   4.053  1.4236 -1.9563 -0.0981
 3211TIP3    H231125   1.887   6.553   4.164  0.9579  2.0644  2.3160
 3212TIP3   OH231126   6.708   5.134  11.280 -0.7065  0.1619  0.0930
 3212TIP3    H131127   6.699   5.212  11.335 -2.8065 -1.5951  2.4811
 3212TIP3    H231128   6.799   5.106  11.293 -0.3937  1.3076  0.4839
 3213TIP3   OH231129   3.098   4.203  16.203 -0.5033 -0.0467  0.2648
 3213TIP3    H131130   3.072   4.124  16.251  1.2525  0.4317  2.1357
 3213TIP3    H231131   3.171   4.175  16.149 -0.1028  0.2074  0.6692
 3214TIP3   OH231132   4.416   1.582  14.974  0.1801 -0.1576 -0.2306
 3214TIP3    H131133   4.459   1.530  14.906  0.5888 -2.0340  1.3613
 3214TIP3    H231134   4.331   1.540  14.986  0.1886  0.0281  0.5211
 3215TIP3   OH231135   2.115   5.561   3.394 -0.1096 -0.2990  0.6469
 3215TIP3    H131136   2.204   5.568   3.359  0.8481 -0.6837  2.8694
 3215TIP3    H231137   2.060   5.601   3.327  1.7396  0.0843 -0.7199
 3216TIP3   OH231138   0.348   1.450  14.126  0.1269 -0.1809 -0.0596
 3216TIP3    H131139   0.365   1.532  14.170 -2.0307  1.7482 -2.4783
 3216TIP3    H231140   0.270   1.415  14.169 -0.9185  0.7979 -1.0834
 3217TIP3   OH231141   0.474   6.725   1.488  0.2617  0.4904  0.3549
 3217TIP3    H131142   0.519   6.641   1.495 -0.6742 -0.1767 -1.0533
 3217TIP3    H231143   0.384   6.702   1.464 -0.3715  1.8533  1.3047
 3218TIP3   OH231144   5.250   3.356   2.571  0.2459 -0.3408 -0.3781
 3218TIP3    H131145   5.324   3.306   2.603  0.4943  0.2721  0.0268
 3218TIP3    H231146   5.287   3.414   2.504  0.2134  0.2444  0.1009
 3219TIP3   OH231147   5.564   4.495   1.222 -0.0471 -0.4002 -0.3555
 3219TIP3    H131148   5.641   4.535   1.263 -0.6387 -0.3130  0.6989
 3219TIP3    H231149   5.570   4.521   1.130  0.6637  0.4084 -0.0943
 3220TIP3   OH231150   5.224   6.133  10.759  0.1363  0.2126 -0.4403
 3220TIP3    H131151   5.237   6.038  10.762 -0.3551  0.0836 -1.6036
 3220TIP3    H231152   5.144   6.148  10.809 -0.6611 -0.1904 -1.5708
 3221TIP3   OH231153   5.739   6.112  13.163  0.7839  0.4689  0.2136
 3221TIP3    H131154   5.672   6.159  13.212  2.6340  1.3608  2.0796
 3221TIP3    H231155   5.717   6.019  13.173 -1.2985  0.7841 -1.0382
 3222TIP3   OH231156   3.178   6.522   3.757 -0.5995  0.3651 -0.6123
 3222TIP3    H131157   3.228   6.449   3.718 -0.6800 -0.3942  0.6455
 3222TIP3    H231158   3.230   6.600   3.736  0.6418 -0.2999 -0.1509
 3223TIP3   OH231159   2.671   1.155   0.682 -0.3557 -0.3374 -0.0324
 3223TIP3    H131160   2.628   1.213   0.619  1.3321 -0.4608 -1.3553
 3223TIP3    H231161   2.694   1.213   0.755 -0.2102  0.3040 -0.5734
 3224TIP3   OH231162   6.133   0.413  12.351 -0.1940 -0.3381  0.5678
 3224TIP3    H131163   6.042   0.401  12.378 -1.0478 -0.9345 -2.3055
 3224TIP3    H231164   6.137   0.504  12.321 -0.3591 -0.8287 -1.0008
 3225TIP3   OH231165   0.259   0.567  15.402  0.9713  0.0362 -0.3706
 3225TIP3    H131166   0.175   0.555  15.447  0.1881  0.9997 -1.5027
 3225TIP3    H231167   0.321   0.587  15.472 -0.3043  1.9779  0.3103
 3226TIP3   OH231168   0.573   1.882   4.187  0.0527  0.1068  0.6620
 3226TIP3    H131169   0.591   1.799   4.231 -0.2345 -0.1264  0.3480
 3226TIP3    H231170   0.544   1.941   4.257  1.1961  0.2426  1.0455
 3227TIP3   OH231171   3.334   2.439  11.740 -0.1610 -0.2915 -0.1424
 3227TIP3    H131172   3.363   2.460  11.828  1.5879  0.5406 -0.8740
 3227TIP3    H231173   3.410   2.455  11.685 -1.6252  0.6052 -2.0112
 3228TIP3   OH231174   2.533   0.191   1.286 -0.4468 -0.1653 -0.2058
 3228TIP3    H131175   2.571   0.258   1.229 -2.8772  1.7714  0.2949
 3228TIP3    H231176   2.553   0.220   1.375  1.4199 -2.0124  0.0647
 3229TIP3   OH231177   0.909   5.001   1.925  0.7290  0.4156  0.3335
 3229TIP3    H131178   0.989   4.953   1.945  0.0459 -0.8701  0.1098
 3229TIP3    H231179   0.917   5.083   1.972  2.0064  0.1372  0.6170
 3230TIP3   OH231180   4.160   5.493   2.002  0.5083 -0.3782 -0.0421
 3230TIP3    H131181   4.200   5.559   2.058  1.7829 -0.9118 -0.2841
 3230TIP3    H231182   4.091   5.455   2.056 -1.0238  1.8642 -0.2708
 3231TIP3   OH231183   0.432   6.365   4.184  0.1977  0.1058  0.0098
 3231TIP3    H131184   0.338   6.381   4.184  0.0898 -0.4508  0.9223
 3231TIP3    H231185   0.470   6.446   4.151 -0.6143  0.2040 -0.7260
 3232TIP3   OH231186   1.369   6.533   5.384 -0.2513  0.0504 -0.2518
 3232TIP3    H131187   1.358   6.456   5.328  1.1377 -0.2255 -0.1915
 3232TIP3    H231188   1.455   6.567   5.360 -0.5996  1.2635  0.1329
 3233TIP3   OH231189   0.244   3.796  12.597  0.1677  0.1214 -0.5494
 3233TIP3    H131190   0.257   3.747  12.515 -1.2093 -0.6455 -0.3313
 3233TIP3    H231191   0.199   3.734  12.655 -1.1575  1.4703 -0.0852
 3234TIP3   OH231192   4.885   5.351  14.372  0.6187  0.5640  0.1945
 3234TIP3    H131193   4.959   5.368  14.314  0.9254  0.6336  0.5960
 3234TIP3    H231194   4.909   5.394  14.454  0.7723 -0.6004  0.7773
 3235TIP3   OH231195   3.642   3.447   5.110 -0.1024  0.1745 -0.2080
 3235TIP3    H131196   3.614   3.403   5.191  0.3519  0.4367  0.0969
 3235TIP3    H231197   3.596   3.400   5.040  1.7049 -1.9783 -0.0683
 3236TIP3   OH231198   6.514   4.455  12.437  0.6240 -0.0493 -0.0407
 3236TIP3    H131199   6.429   4.452  12.482  0.4744 -1.8698 -0.3464
 3236TIP3    H231200   6.518   4.372  12.390  2.1128  0.4961 -0.9200
 3237TIP3   OH231201   3.108   2.958  13.444 -0.3079 -0.1766  0.2360
 3237TIP3    H131202   3.045   2.982  13.376  1.3828  2.5638 -0.5012
 3237TIP3    H231203   3.166   2.894  13.403 -0.1599  0.3861 -0.4368
 3238TIP3   OH231204   6.435   4.046   1.733 -0.6175  0.0210  0.4626
 3238TIP3    H131205   6.376   3.971   1.728 -2.4982  1.4992 -0.9153
 3238TIP3    H231206   6.412   4.089   1.815 -0.2511 -0.3180  0.7492
 3239TIP3   OH231207   3.428   5.026  16.890  0.2290 -0.4383 -0.4303
 3239TIP3    H131208   3.458   5.103  16.841 -0.0233  0.5162  0.8650
 3239TIP3    H231209   3.438   5.050  16.982  0.8984 -2.2731  0.0238
 3240TIP3   OH231210   6.197   1.917  12.859 -0.1949  0.0422  0.1098
 3240TIP3    H131211   6.105   1.917  12.831 -0.3284  0.7969  0.5236
 3240TIP3    H231212   6.200   1.980  12.931  0.8727  0.9304 -0.6723
 3241TIP3   OH231213   0.121   4.890  12.443  0.0698 -0.3354 -0.2666
 3241TIP3    H131214   0.178   4.844  12.505 -0.5136  1.8163  2.0324
 3241TIP3    H231215   0.141   4.850  12.359  1.6617 -2.7407  1.1092
 3242TIP3   OH231216   6.733   6.771  13.175  0.0049  0.0467 -0.0787
 3242TIP3    H131217   6.638   6.777  13.175  0.0521  1.0599  0.2164
 3242TIP3    H231218   6.758   6.790  13.266  0.4372 -1.4500  0.1437
 3243TIP3   OH231219   2.607   0.687  17.061  0.1333 -0.3513 -0.3250
 3243TIP3    H131220   2.577   0.661  16.974 -0.6764 -0.7219  0.0600
 3243TIP3    H231221   2.578   0.778  17.069 -1.3110 -0.8389  0.2139
 3244TIP3   OH231222   1.578   1.020  14.482  0.7819 -0.0686  0.7168
 3244TIP3    H131223   1.499   0.968  14.468 -0.9353  1.7092  3.0008
 3244TIP3    H231224   1.636   0.963  14.534 -0.5968 -0.1402  2.2360
 3245TIP3   OH231225   4.626   2.708  14.579  0.0308  0.2291  0.1436
 3245TIP3    H131226   4.632   2.783  14.637 -2.2825 -0.9235  2.0488
 3245TIP3    H231227   4.714   2.670  14.578  0.3950  0.9365  2.0198
 3246TIP3   OH231228   2.536   5.840   0.826 -0.2764 -0.4811  0.7075
 3246TIP3    H131229   2.536   5.772   0.894  2.0562 -0.4668  0.7948
 3246TIP3    H231230   2.498   5.917   0.869  2.6298  0.0267  2.6138
 3247TIP3   OH231231   0.375   6.034  11.307  0.2731  0.0373  0.4008
 3247TIP3    H131232   0.308   5.974  11.338  0.3584  1.0193  2.6538
 3247TIP3    H231233   0.438   6.040  11.379  1.2979  1.3060 -0.5477
 3248TIP3   OH231234   1.238   3.436   1.419  0.1384  0.3520 -0.0125
 3248TIP3    H131235   1.242   3.499   1.491 -0.7833  0.9880 -0.4888
 3248TIP3    H231236   1.154   3.391   1.432 -0.1780  0.6784 -0.8348
 3249TIP3   OH231237   1.993   5.552  11.043  0.4197  0.2035 -0.4262
 3249TIP3    H131238   2.015   5.642  11.018 -1.5556  0.4514 -1.4885
 3249TIP3    H231239   1.899   5.555  11.060  0.3979 -1.5920 -0.1355
 3250TIP3   OH231240   1.480   6.702  14.881 -0.7265  0.4271  0.0952
 3250TIP3    H131241   1.488   6.780  14.827 -0.0930 -0.1808 -0.7180
 3250TIP3    H231242   1.554   6.647  14.856 -1.6559 -0.8321 -0.0163
 3251TIP3   OH231243   3.918   0.808  13.441  0.1909  0.1197  0.3185
 3251TIP3    H131244   4.012   0.794  13.427  0.2037  0.8306 -0.3920
 3251TIP3    H231245   3.913   0.896  13.479 -0.0768 -0.6018  2.0508
 3252TIP3   OH231246   1.449   2.640  15.417  0.0742  0.2376  0.2117
 3252TIP3    H131247   1.517   2.667  15.479 -0.9336 -1.2610  2.0591
 3252TIP3    H231248   1.456   2.703  15.345  0.9651  2.3834  2.0480
 3253TIP3   OH231249   3.100   3.835   0.366  0.6938  0.0124 -0.1678
 3253TIP3    H131250   3.050   3.754   0.353 -0.4792  0.6366  0.3094
 3253TIP3    H231251   3.063   3.874   0.445  2.1895  0.3362  0.3998
 3254TIP3   OH231252   1.355   6.756   2.500 -0.1692 -0.4254 -0.0857
 3254TIP3    H131253   1.336   6.681   2.443 -0.2484  0.5952 -1.4301
 3254TIP3    H231254   1.403   6.817   2.444 -0.9919  0.9726  0.7073
 3255TIP3   OH231255   4.099   0.557   2.671 -0.1837 -0.7153 -0.1869
 3255TIP3    H131256   4.163   0.627   2.663  0.4883 -1.3096 -0.0487
 3255TIP3    H231257   4.041   0.568   2.595  0.5916 -0.6914 -0.7831
 3256TIP3   OH231258   3.091   6.457  16.288 -1.0255 -0.2093  0.3422
 3256TIP3    H131259   3.107   6.482  16.379 -1.4154 -0.3681  0.4560
 3256TIP3    H231260   3.173   6.418  16.259 -0.5315  0.8306  0.2844
 3257TIP3   OH231261   3.300   3.940   0.986  0.0364 -0.0195 -0.2227
 3257TIP3    H131262   3.392   3.963   0.977  0.7801 -2.0486  1.3274
 3257TIP3    H231263   3.276   3.902   0.902 -0.5188  3.6632 -1.9281
 3258TIP3   OH231264   5.967   6.551   0.274  0.4723 -0.0447  0.2563
 3258TIP3    H131265   5.960   6.626   0.215  1.3612 -0.5411 -0.5067
 3258TIP3    H231266   5.878   6.515   0.277 -0.1803  1.5542  1.3718
 3259TIP3   OH231267   0.556   4.550  11.305 -0.0680  0.5551 -0.4756
 3259TIP3    H131268   0.522   4.559  11.394  0.4416  0.7620 -0.3009
 3259TIP3    H231269   0.554   4.638  11.269 -0.1927  0.4856 -0.6374
 3260TIP3   OH231270   4.271   6.688  12.153 -0.0997  0.5872  0.3565
 3260TIP3    H131271   4.262   6.612  12.210 -1.9245  0.7512  0.3304
 3260TIP3    H231272   4.220   6.757  12.196 -0.4938  1.0745 -0.8635
 3261TIP3   OH231273   6.153   5.844   3.181  0.3478 -0.6041  0.5339
 3261TIP3    H131274   6.187   5.765   3.139 -0.2800 -0.2861 -0.6066
 3261TIP3    H231275   6.190   5.842   3.269  1.4139 -1.4780  0.0918
 3262TIP3   OH231276   0.679   6.452  15.834  0.2940 -0.2160  0.0667
 3262TIP3    H131277   0.708   6.363  15.854 -1.3630 -0.3342  2.4125
 3262TIP3    H231278   0.584   6.450  15.850  0.3000  2.0916  0.7369
 3263TIP3   OH231279   1.720   1.374  12.563  0.1117 -0.3206 -0.2963
 3263TIP3    H131280   1.710   1.450  12.506 -0.4148 -0.0406  0.1597
 3263TIP3    H231281   1.813   1.375  12.588 -0.1474  0.9236  0.7248
 3264TIP3   OH231282   3.363   0.836  12.028  0.0600 -0.6332 -0.1596
 3264TIP3    H131283   3.295   0.866  11.967  0.4565 -1.4753 -1.0391
 3264TIP3    H231284   3.365   0.903  12.096 -2.7400 -1.3147  0.7430
 3265TIP3   OH231285   0.465   5.370   0.488  0.0109  0.2142  0.2883
 3265TIP3    H131286   0.454   5.440   0.552  0.2468 -0.2331  0.8286
 3265TIP3    H231287   0.550   5.387   0.448 -0.3472  0.7639 -0.2492
 3266TIP3   OH231288   3.035   2.106  10.411  0.4283 -0.4678 -0.5781
 3266TIP3    H131289   3.052   2.062  10.494  1.7204 -4.2720 -2.6283
 3266TIP3    H231290   3.121   2.140  10.384  0.1212  0.2653 -0.6606
 3267TIP3   OH231291   1.531   2.887  14.831  0.2271  0.5257  0.2976
 3267TIP3    H131292   1.565   2.964  14.784  3.1643 -0.4320  0.6254
 3267TIP3    H231293   1.578   2.813  14.791 -0.9579 -0.8765  1.4084
 3268TIP3   OH231294   3.646   0.574  13.904  0.4194  0.5106 -0.6942
 3268TIP3    H131295   3.682   0.521  13.832  0.8227 -1.0771  0.6097
 3268TIP3    H231296   3.600   0.645  13.860 -0.5847 -1.1828 -2.5825
 3269TIP3   OH231297   6.267   5.381   2.958 -0.5135 -0.5880 -0.4397
 3269TIP3    H131298   6.208   5.332   2.901 -0.3777 -0.3135 -0.8161
 3269TIP3    H231299   6.223   5.465   2.973 -0.5931 -0.6950 -0.0617
 3270TIP3   OH231300   1.628   5.124   4.502 -0.2455  0.2054  0.6699
 3270TIP3    H131301   1.668   5.075   4.431 -0.2183  0.3666  0.5739
 3270TIP3    H231302   1.672   5.093   4.581  0.1324  0.4448  0.5579
 3271TIP3   OH231303   4.878   1.670  11.370  0.1364  0.2428  0.3414
 3271TIP3    H131304   4.956   1.707  11.412 -0.6715  0.3479  1.7915
 3271TIP3    H231305   4.909   1.642  11.283  1.4692  1.5085  0.3711
 3272TIP3   OH231306   1.123   2.941   2.171  0.1347 -0.5975 -0.3922
 3272TIP3    H131307   1.166   2.983   2.097  0.3598 -0.7000 -0.3209
 3272TIP3    H231308   1.188   2.945   2.242 -0.3377  0.1411  0.0136
 3273TIP3   OH231309   1.933   1.774  12.148  0.2970  0.5968 -0.1229
 3273TIP3    H131310   1.941   1.762  12.054  0.7884  1.3627 -0.1876
 3273TIP3    H231311   1.886   1.857  12.158 -1.7176 -0.5362  0.3076
 3274TIP3   OH231312   3.557   5.980  11.932 -0.4909 -0.6139  1.0308
 3274TIP3    H131313   3.570   6.059  11.880  2.1406 -0.2032  2.1758
 3274TIP3    H231314   3.469   5.990  11.969 -1.2188  0.4915 -0.8981
 3275TIP3   OH231315   6.001   0.590   3.015  0.1064 -0.3039 -0.4719
 3275TIP3    H131316   6.009   0.685   3.005 -1.7507 -0.0366  0.1929
 3275TIP3    H231317   5.956   0.562   2.935 -4.8443  0.3224  1.7559
 3276TIP3   OH231318   4.697   2.036  14.714 -0.3097  0.3654  0.0326
 3276TIP3    H131319   4.674   2.041  14.807 -2.5628 -1.6095 -0.3289
 3276TIP3    H231320   4.644   1.964  14.680  1.1551  0.4194 -2.6141
 3277TIP3   OH231321   4.355   5.711   1.071  0.7683  0.1322 -0.2891
 3277TIP3    H131322   4.264   5.701   1.042 -0.3606  2.5084  2.0374
 3277TIP3    H231323   4.402   5.739   0.993 -1.4253  3.0050 -0.7247
 3278TIP3   OH231324   1.567   2.838   4.675 -0.1347  0.0257 -0.3094
 3278TIP3    H131325   1.639   2.805   4.729 -1.3320  0.1481  1.4623
 3278TIP3    H231326   1.542   2.764   4.621 -0.2903 -0.8215  0.8727
 3279TIP3   OH231327   2.894   5.197   2.311 -0.2759  0.1264 -0.0758
 3279TIP3    H131328   2.961   5.239   2.365  0.8801  1.9150 -2.7083
 3279TIP3    H231329   2.931   5.111   2.292  0.1186  0.1601  0.4873
 3280TIP3   OH231330   5.487   1.948  10.772 -0.3473 -0.3440 -0.3078
 3280TIP3    H131331   5.487   2.036  10.809 -0.3084 -0.4984  0.0695
 3280TIP3    H231332   5.477   1.890  10.848 -1.3130 -0.6346 -0.6366
 3281TIP3   OH231333   5.000   3.118   4.077 -0.2181  0.0908  0.0650
 3281TIP3    H131334   4.959   3.126   3.992 -2.6423 -0.8889  1.0511
 3281TIP3    H231335   4.976   3.198   4.124  1.2736  0.7223 -0.1742
 3282TIP3   OH231336   0.144   5.944  11.647 -0.3636  0.5346 -0.7871
 3282TIP3    H131337   0.106   5.963  11.732 -1.0384  0.4383 -1.0580
 3282TIP3    H231338   0.234   5.918  11.665 -0.4770  0.6071 -0.1178
 3283TIP3   OH231339   6.490   0.399   6.828 -0.3263 -0.5574  0.4362
 3283TIP3    H131340   6.444   0.396   6.744 -0.0549 -0.2571  0.2746
 3283TIP3    H231341   6.559   0.463   6.815  1.0046 -1.9847  0.2565
 3284TIP3   OH231342   3.613   1.072   0.193 -0.6245 -0.3670  0.4314
 3284TIP3    H131343   3.617   1.138   0.124 -2.6847  1.7576  2.1781
 3284TIP3    H231344   3.680   1.099   0.256 -1.5652  0.2417  1.2161
 3285TIP3   OH231345   2.053   2.453  13.717 -0.0142  0.2768 -0.4323
 3285TIP3    H131346   2.079   2.526  13.661  2.6462 -0.4514 -0.2572
 3285TIP3    H231347   2.109   2.460  13.793  0.2602 -1.9042 -0.3784
 3286TIP3   OH231348   0.428   0.009  15.973  0.2924 -0.4675  0.8562
 3286TIP3    H131349   0.374   0.084  15.946  2.1759  1.5377  2.2969
 3286TIP3    H231350   0.369  -0.047  16.023 -1.0397  0.3077  0.2106
 3287TIP3   OH231351   4.212   4.266  15.135 -0.5152 -0.3279 -0.1013
 3287TIP3    H131352   4.130   4.253  15.183 -0.5387  1.9161  0.6040
 3287TIP3    H231353   4.194   4.234  15.047 -2.4242  0.7522 -0.1597
 3288TIP3   OH231354   5.935   4.546  13.686 -0.1185 -0.1080  0.4485
 3288TIP3    H131355   5.924   4.541  13.781 -1.2620  1.7478  0.4471
 3288TIP3    H231356   5.993   4.472  13.665  1.2556  0.2219  2.7448
 3289TIP3   OH231357   5.405   4.632  11.449  0.6170 -0.1761  0.2400
 3289TIP3    H131358   5.404   4.546  11.407  0.6020  0.4671 -1.1369
 3289TIP3    H231359   5.440   4.616  11.536  0.6079 -1.5776  0.0043
 3290TIP3   OH231360   1.778   2.688  16.084  0.4545 -0.0143  0.1647
 3290TIP3    H131361   1.806   2.647  16.003  1.1400  0.6668  0.0438
 3290TIP3    H231362   1.844   2.661  16.148 -0.6685 -1.4355  0.7701
 3291TIP3   OH231363   3.666   2.936  16.109  0.1992 -0.1771 -0.1388
 3291TIP3    H131364   3.616   3.010  16.142 -0.9718 -0.5041 -1.0892
 3291TIP3    H231365   3.749   2.974  16.078 -0.3271  0.7150 -0.4810
 3292TIP3   OH231366   6.640   3.080  13.532  0.0922 -0.0557  0.1421
 3292TIP3    H131367   6.613   3.169  13.556  1.9173  0.4266  0.5003
 3292TIP3    H231368   6.679   3.089  13.445  0.2845 -0.5063  0.1780
 3293TIP3   OH231369   1.125   5.310   4.469  0.2177 -0.5179 -0.2297
 3293TIP3    H131370   1.054   5.287   4.410 -0.3627 -0.2716  0.3582
 3293TIP3    H231371   1.190   5.241   4.457 -1.0619 -1.9788  0.7941
 3294TIP3   OH231372   4.195   2.120  14.545  0.3910 -0.0973 -0.3934
 3294TIP3    H131373   4.191   2.113  14.641  0.1005  0.3678 -0.3672
 3294TIP3    H231374   4.289   2.122  14.526  0.4699 -1.3037 -0.2149
 3295TIP3   OH231375   2.078   2.931   0.405 -0.0885  0.2236 -0.3627
 3295TIP3    H131376   2.088   2.986   0.328  3.0712  0.8448  0.3316
 3295TIP3    H231377   2.105   2.844   0.376 -0.4214  0.1111 -0.3338
 3296TIP3   OH231378   4.402   3.784  17.082 -0.0342  0.4155 -0.2978
 3296TIP3    H131379   4.358   3.736  17.152  1.2506  0.7249  0.7881
 3296TIP3    H231380   4.490   3.746  17.079 -0.1986  0.1146 -2.0788
 3297TIP3   OH231381   1.259   1.258  14.498 -0.4130 -0.0380  0.5630
 3297TIP3    H131382   1.221   1.344  14.485  0.4955  0.0447 -2.2143
 3297TIP3    H231383   1.192   1.209  14.547 -2.0193  1.4685 -0.0322
 3298TIP3   OH231384   2.201   0.865  11.600  0.0135 -0.3629 -0.0057
 3298TIP3    H131385   2.281   0.915  11.615  1.1478 -1.2697 -2.4757
 3298TIP3    H231386   2.202   0.798  11.668  0.9386  0.1082  0.4705
 3299TIP3   OH231387   3.509   6.379   1.653  0.0281  0.3961 -0.0553
 3299TIP3    H131388   3.442   6.393   1.720  0.5869 -1.3795  0.9599
 3299TIP3    H231389   3.564   6.309   1.688  2.7261  2.0651 -0.6363
 3300TIP3   OH231390   2.289   5.196  15.599 -0.2189  0.2872 -0.4401
 3300TIP3    H131391   2.354   5.231  15.538  0.2024  0.6186  0.1854
 3300TIP3    H231392   2.210   5.245  15.579 -0.1743  0.1654 -0.9378
 3301TIP3   OH231393   3.020   1.932  11.723  0.1099 -0.5026  0.2474
 3301TIP3    H131394   3.114   1.923  11.737  0.3349  0.4281 -0.5409
 3301TIP3    H231395   3.010   1.936  11.628 -0.7088 -0.3924  0.3314
 3302TIP3   OH231396   4.175   0.660  15.470  0.2324 -0.2472 -0.1727
 3302TIP3    H131397   4.224   0.668  15.388  0.2561 -1.1623 -0.2576
 3302TIP3    H231398   4.224   0.713  15.533 -0.9979  2.3638 -1.2471
 3303TIP3   OH231399   2.453   5.488   1.309  0.1117  0.3645  0.5849
 3303TIP3    H131400   2.485   5.557   1.366 -0.2847  0.5163  0.6222
 3303TIP3    H231401   2.368   5.464   1.345  0.0871  0.1073  0.3594
 3304TIP3   OH231402   4.274   0.988  12.406  0.1463 -0.0088  0.1912
 3304TIP3    H131403   4.249   0.962  12.318 -1.2013  0.6115  0.3503
 3304TIP3    H231404   4.369   0.997  12.403  0.0389  0.9753 -1.4731
 3305TIP3   OH231405   5.219   3.362  11.665 -0.8302  0.1296 -0.0290
 3305TIP3    H131406   5.138   3.380  11.712  0.0500  0.9849  1.2373
 3305TIP3    H231407   5.206   3.403  11.579 -1.8551 -0.0522  0.0239
 3306TIP3   OH231408   3.632   3.007  13.384 -0.4493  0.3619  0.6269
 3306TIP3    H131409   3.706   2.946  13.378 -1.1790 -0.6305  1.3194
 3306TIP3    H231410   3.672   3.092  13.402  0.5839  0.0564 -0.1278
 3307TIP3   OH231411   6.809   5.561  11.769  0.2545  0.0457  0.2128
 3307TIP3    H131412   6.900   5.583  11.787  0.0600  0.8191  0.2539
 3307TIP3    H231413   6.791   5.598  11.683  0.9340 -2.9418 -1.3645
 3308TIP3   OH231414   2.958   0.289   5.009  0.2639  0.1205 -0.7796
 3308TIP3    H131415   2.900   0.252   4.943 -0.0240  0.1321 -0.5322
 3308TIP3    H231416   2.954   0.383   4.994  0.5882  0.0929 -1.0667
 3309TIP3   OH231417   6.326   4.665   1.053  0.5056 -0.2414 -0.2882
 3309TIP3    H131418   6.387   4.721   1.100  1.8162 -0.3946 -1.7152
 3309TIP3    H231419   6.244   4.671   1.102  1.2039  1.2795  0.7481
 3310TIP3   OH231420   3.860   4.194   4.684  0.1492 -0.6474  0.2753
 3310TIP3    H131421   3.764   4.191   4.688 -0.0124  2.0930  0.1252
 3310TIP3    H231422   3.881   4.170   4.594 -0.5807  0.8813 -0.3277
 3311TIP3   OH231423   6.769   0.716   2.569 -0.3149  0.2294  0.4374
 3311TIP3    H131424   6.857   0.731   2.602 -0.0445  1.4544 -0.7858
 3311TIP3    H231425   6.781   0.661   2.492 -0.6732 -0.0291  0.5596
 3312TIP3   OH231426   4.120   5.759  14.140  0.3716  0.1292  0.0897
 3312TIP3    H131427   4.157   5.678  14.105 -0.3679 -0.4977  0.7247
 3312TIP3    H231428   4.087   5.735  14.226  0.3147  1.1570  0.3652
 3313TIP3   OH231429   0.435   5.201   3.725  0.0699 -0.0707 -0.2010
 3313TIP3    H131430   0.528   5.179   3.716  0.1468  0.7394 -1.7517
 3313TIP3    H231431   0.391   5.141   3.664 -0.0865  1.4763 -1.6854
 3314TIP3   OH231432   2.781   2.715   2.705 -0.3480 -0.1672 -0.4745
 3314TIP3    H131433   2.799   2.803   2.673  0.4815 -0.1996 -0.1391
 3314TIP3    H231434   2.780   2.660   2.627 -1.9485  0.2812 -0.8053
 3315TIP3   OH231435   3.875   0.932   5.211 -0.4934  0.1650  0.1360
 3315TIP3    H131436   3.894   0.898   5.299  0.6547  1.5006  0.4458
 3315TIP3    H231437   3.925   0.875   5.152 -1.1365 -0.6370  0.3499
 3316TIP3   OH231438   3.494   0.064  13.997 -0.2521  0.1929 -0.0205
 3316TIP3    H131439   3.582   0.070  13.960  0.2805  1.1476  1.3174
 3316TIP3    H231440   3.458  -0.018  13.963  1.5725 -0.7686  0.2731
 3317TIP3   OH231441   2.302   4.008  11.881 -0.1611 -0.0279 -0.3394
 3317TIP3    H131442   2.323   4.082  11.823 -1.6269 -0.6886 -1.7714
 3317TIP3    H231443   2.215   4.028  11.914  0.1751 -0.2630  0.7052
 3318TIP3   OH231444   5.788   2.302   3.804  0.1357  0.4489  0.2250
 3318TIP3    H131445   5.831   2.278   3.886 -0.7747 -1.5740  0.1652
 3318TIP3    H231446   5.750   2.389   3.821  2.4220  1.4040  0.9305
 3319TIP3   OH231447   0.193   5.420  15.494  0.1378 -0.4462  0.0652
 3319TIP3    H131448   0.271   5.475  15.487  1.1956 -1.5275  2.4344
 3319TIP3    H231449   0.206   5.353  15.427  0.3758  0.3352 -0.7006
 3320TIP3   OH231450   3.920   3.479   4.115  0.3767  0.3033  0.1417
 3320TIP3    H131451   3.859   3.552   4.114  0.7805  0.6840  1.5647
 3320TIP3    H231452   3.901   3.433   4.197 -0.5916 -1.8454 -1.1730
 3321TIP3   OH231453   1.511   0.660  15.090  0.1871 -0.3410 -0.1678
 3321TIP3    H131454   1.563   0.646  15.169 -1.5030  0.7329  1.1861
 3321TIP3    H231455   1.427   0.619  15.108 -0.2004 -0.1902 -1.4847
 3322TIP3   OH231456   1.501   6.050   2.238  0.4274 -0.5449 -0.4024
 3322TIP3    H131457   1.581   5.998   2.250  1.1258 -0.4237 -3.7345
 3322TIP3    H231458   1.445   5.995   2.183 -2.0674 -0.7675  2.1079
 3323TIP3   OH231459   1.597   2.144   2.327 -0.6124  0.0923  0.2700
 3323TIP3    H131460   1.602   2.231   2.366  2.4785  2.0161 -3.6357
 3323TIP3    H231461   1.510   2.140   2.288 -0.3167  2.1326 -0.7156
 3324TIP3   OH231462   4.068   6.349   0.668 -0.6162  0.2079  0.3849
 3324TIP3    H131463   4.126   6.272   0.665 -2.4616 -1.2442 -0.0204
 3324TIP3    H231464   4.120   6.419   0.630  0.6670 -1.1752 -0.5618
 3325TIP3   OH231465   5.554   2.969  13.859  0.0074 -0.4982  0.0073
 3325TIP3    H131466   5.623   3.003  13.916  0.6536 -0.7684 -0.6074
 3325TIP3    H231467   5.588   2.886  13.827 -0.6090 -0.6349 -0.3043
 3326TIP3   OH231468   5.925   4.005  15.421 -0.8248  0.1128 -0.2434
 3326TIP3    H131469   5.863   4.078  15.419 -0.2127  0.6404 -0.1661
 3326TIP3    H231470   5.870   3.928  15.438 -1.3632  0.6832  0.7509
 3327TIP3   OH231471   0.561   1.115  13.951  0.4974 -0.0157  0.2652
 3327TIP3    H131472   0.569   1.158  13.866 -1.5133  0.9656  0.5210
 3327TIP3    H231473   0.502   1.041  13.935 -0.6184  0.6991  0.9434
 3328TIP3   OH231474   4.425   6.089   6.482 -0.3160 -0.8461 -0.1800
 3328TIP3    H131475   4.452   6.034   6.408 -0.6971 -1.0883 -0.1386
 3328TIP3    H231476   4.386   6.028   6.544 -0.2940 -0.5950  0.0804
 3329TIP3   OH231477   3.717   6.383  15.625 -0.3782 -0.3272  0.4633
 3329TIP3    H131478   3.664   6.321  15.574  0.8848 -0.8062 -0.3254
 3329TIP3    H231479   3.808   6.365  15.598  0.2145  0.3315  1.9056
 3330TIP3   OH231480   2.277   3.040   5.812 -0.0585  0.2363 -0.1360
 3330TIP3    H131481   2.242   2.964   5.766  0.5983 -0.7909  1.0130
 3330TIP3    H231482   2.261   3.113   5.752 -2.3305 -0.4784 -0.5233
 3331TIP3   OH231483   0.485   3.603   5.971  0.2280  0.8568 -0.1275
 3331TIP3    H131484   0.477   3.637   5.882  0.6406  0.2789 -0.3956
 3331TIP3    H231485   0.554   3.537   5.965 -1.4158 -0.9660  0.0723
 3332TIP3   OH231486   4.118   4.103  14.404  0.3926  0.2026 -0.0792
 3332TIP3    H131487   4.192   4.061  14.447 -0.8026 -0.4986  1.4049
 3332TIP3    H231488   4.068   4.030  14.367  0.3498  0.6562 -0.9382
 3333TIP3   OH231489   3.754   4.556  14.613 -0.0928 -0.7020  0.3337
 3333TIP3    H131490   3.701   4.633  14.592 -1.9672 -1.7852  0.8760
 3333TIP3    H231491   3.822   4.589  14.672 -1.0041  0.4948  0.7501
 3334TIP3   OH231492   5.670   5.510  16.890  0.3836 -0.4205 -0.2170
 3334TIP3    H131493   5.620   5.532  16.811  3.3479 -0.3493 -2.2323
 3334TIP3    H231494   5.640   5.572  16.956 -0.7034  0.9564 -1.9182
 3335TIP3   OH231495   1.835   3.759   2.592 -0.3643 -0.4211  0.8539
 3335TIP3    H131496   1.875   3.787   2.510 -1.8373  0.4331  0.4043
 3335TIP3    H231497   1.836   3.836   2.648  1.2543 -1.1691  1.9400
 3336TIP3   OH231498   5.441   3.917  13.917  0.4007 -0.5197  0.3330
 3336TIP3    H131499   5.467   4.008  13.903  0.3563 -0.6679 -0.8066
 3336TIP3    H231500   5.349   3.913  13.891 -0.1614 -0.5050  2.1715
 3337TIP3   OH231501   2.446   6.112   2.332 -0.3575  0.3619 -0.2635
 3337TIP3    H131502   2.379   6.154   2.385  1.3149  1.8254  0.7867
 3337TIP3    H231503   2.483   6.183   2.279  2.4684  0.3808  1.4855
 3338TIP3   OH231504   6.325   1.032  14.143 -0.1258  0.0380 -0.0102
 3338TIP3    H131505   6.306   1.111  14.193  0.4622  0.2236 -0.0661
 3338TIP3    H231506   6.338   0.964  14.209  2.8401  0.7423  0.2869
 3339TIP3   OH231507   1.351   3.037   2.714 -0.4812 -0.0167  0.3121
 3339TIP3    H131508   1.430   2.995   2.682 -1.3688 -1.7460  0.2724
 3339TIP3    H231509   1.352   3.020   2.809 -0.7789 -0.0341  0.3137
 3340TIP3   OH231510   4.666   2.960   1.304 -0.7756 -0.6130  0.3447
 3340TIP3    H131511   4.751   2.988   1.337 -1.3903  0.5845  0.9841
 3340TIP3    H231512   4.619   2.927   1.381 -1.5816  0.5409  0.3674
 3341TIP3   OH231513   0.972   0.469  11.520  1.0643 -0.4546 -0.4039
 3341TIP3    H131514   0.922   0.551  11.527  0.5270 -0.7819 -0.2724
 3341TIP3    H231515   1.036   0.475  11.591  0.6530 -0.3903 -0.0254
 3342TIP3   OH231516   1.107   5.281  11.208  0.3827 -0.9520 -0.1048
 3342TIP3    H131517   1.066   5.307  11.291 -0.1568  0.4677 -0.7755
 3342TIP3    H231518   1.055   5.206  11.179 -2.9778  1.6530 -1.6599
 3343TIP3   OH231519   0.516   1.186  12.762 -0.3626 -0.2892 -0.4262
 3343TIP3    H131520   0.490   1.094  12.756 -2.1636 -0.0568  2.0228
 3343TIP3    H231521   0.605   1.184  12.797 -0.2279 -1.0887 -0.7964
 3344TIP3   OH231522   3.842   4.855  15.144  0.4767 -0.4606 -0.1286
 3344TIP3    H131523   3.861   4.806  15.223 -0.2548 -0.7403 -0.1229
 3344TIP3    H231524   3.870   4.798  15.072  2.6700  0.4339 -0.0761
 3345TIP3   OH231525   3.628   0.532   3.259  0.2907  0.1680  0.1908
 3345TIP3    H131526   3.634   0.555   3.351 -0.6085 -0.8953  0.5428
 3345TIP3    H231527   3.562   0.462   3.256 -0.0090  0.4791 -1.3022
 3346TIP3   OH231528   2.286   2.661  15.064  0.5016 -0.0544 -0.1316
 3346TIP3    H131529   2.284   2.625  15.152  1.5872  1.1215  0.4021
 3346TIP3    H231530   2.282   2.584  15.007 -0.5617 -0.8134  0.9123
 3347TIP3   OH231531   6.161   5.050  11.972  0.1565  0.2877  0.8377
 3347TIP3    H131532   6.200   4.983  12.027  0.6268 -1.1161 -1.1255
 3347TIP3    H231533   6.219   5.057  11.896 -1.6727  0.4501 -0.6292
 3348TIP3   OH231534   6.574   0.531  13.108  0.0925 -0.2817 -0.3955
 3348TIP3    H131535   6.642   0.597  13.123  1.1302 -1.6604  1.3022
 3348TIP3    H231536   6.622   0.450  13.090 -1.1335 -0.9755 -0.7118
 3349TIP3   OH231537   3.174   5.864  15.352 -0.0922  0.4467 -0.3970
 3349TIP3    H131538   3.237   5.880  15.422  1.7442  0.0763 -1.8615
 3349TIP3    H231539   3.099   5.920  15.373 -0.1431 -0.5382  2.4455
 3350TIP3   OH231540   1.820   6.405  11.403 -0.0049 -0.2939  0.0962
 3350TIP3    H131541   1.742   6.414  11.457 -1.6591 -1.8277 -1.8738
 3350TIP3    H231542   1.795   6.441  11.317  1.3053 -1.1656 -0.6998
 3351TIP3   OH231543   0.442   0.468   5.878 -0.0148  0.1972  0.1855
 3351TIP3    H131544   0.363   0.444   5.831  0.6439 -1.3798 -0.1995
 3351TIP3    H231545   0.468   0.552   5.841  0.8144 -1.2423 -2.8194
 3352TIP3   OH231546   3.903   1.207  13.859 -0.4239  0.2058 -0.3769
 3352TIP3    H131547   3.980   1.256  13.830 -0.5141  1.2097  0.9805
 3352TIP3    H231548   3.931   1.115  13.858  1.1866  0.6274  1.1535
 3353TIP3   OH231549   3.900   2.813  11.829 -0.0308  0.5605 -0.0382
 3353TIP3    H131550   3.858   2.728  11.845 -1.4644  1.2333 -0.0829
 3353TIP3    H231551   3.912   2.850  11.917 -1.8419  1.4145 -0.1031
 3354TIP3   OH231552   6.396   2.259  12.131 -0.6312  0.2725 -0.1508
 3354TIP3    H131553   6.350   2.192  12.182 -0.3821 -1.5529 -2.1640
 3354TIP3    H231554   6.326   2.318  12.102 -1.2472 -0.5092 -0.3205
 3355TIP3   OH231555   4.014   2.297   1.698  0.3155  0.2492 -0.1690
 3355TIP3    H131556   3.922   2.303   1.670  0.4757  1.2320 -0.5438
 3355TIP3    H231557   4.062   2.282   1.617  0.6138  1.2896 -0.2061
 3356TIP3   OH231558   2.635   5.916  16.985  0.0170  0.1635 -0.1092
 3356TIP3    H131559   2.543   5.897  17.001  0.4722 -1.2146  1.2159
 3356TIP3    H231560   2.635   5.989  16.924 -1.9517  1.2457  1.0745
 3357TIP3   OH231561   0.538   5.904  14.531  0.2524 -0.3464 -0.0796
 3357TIP3    H131562   0.487   5.833  14.493 -1.1375  0.3387  0.4389
 3357TIP3    H231563   0.530   5.891  14.626 -1.4090  1.3722  0.0883
 3358TIP3   OH231564   4.614   2.961   1.853 -0.3235  0.1626 -0.4740
 3358TIP3    H131565   4.539   2.940   1.796  0.3113  0.5124 -1.4720
 3358TIP3    H231566   4.682   2.900   1.826  0.0803  0.5278 -0.2857
 3359TIP3   OH231567   3.010   1.154   1.109  0.0576  0.4679 -0.0694
 3359TIP3    H131568   3.058   1.236   1.101  2.4578 -0.5288  2.5421
 3359TIP3    H231569   3.043   1.100   1.037  2.3735  0.1202  1.1594
 3360TIP3   OH231570   5.937   5.104   0.152 -0.6031 -0.1363  0.2554
 3360TIP3    H131571   6.032   5.099   0.141 -0.7655 -1.4697 -0.7119
 3360TIP3    H231572   5.912   5.018   0.186 -1.5411 -0.0297 -0.1421
 3361TIP3   OH231573   5.135   2.949  16.497 -0.1643 -0.2715  0.0752
 3361TIP3    H131574   5.127   2.981  16.407 -0.0964 -1.3429 -0.3237
 3361TIP3    H231575   5.133   3.029  16.551  0.2529  0.4203 -0.8958
 3362TIP3   OH231576   2.282   2.729   1.495  0.6849 -0.7741 -0.2254
 3362TIP3    H131577   2.364   2.775   1.480 -0.7520  1.5948 -1.4881
 3362TIP3    H231578   2.282   2.709   1.589  1.9109  0.8416  0.1625
 3363TIP3   OH231579   6.814   6.184  15.810  0.1713  0.1121  0.5011
 3363TIP3    H131580   6.872   6.255  15.780 -0.0144 -1.0302 -2.9187
 3363TIP3    H231581   6.871   6.107  15.815 -0.7139 -0.7635 -1.7584
 3364TIP3   OH231582   0.394   1.555  12.671 -0.2746 -0.3427 -0.1385
 3364TIP3    H131583   0.361   1.467  12.657 -0.1176 -0.5658  0.8435
 3364TIP3    H231584   0.458   1.547  12.742 -0.1752  0.5381 -0.1100
 3365TIP3   OH231585   6.778   5.517   0.238 -0.0598  0.4248 -0.1483
 3365TIP3    H131586   6.858   5.469   0.219 -0.7321 -1.1844  0.9145
 3365TIP3    H231587   6.748   5.548   0.153  1.5119  0.8190 -0.5951
 3366TIP3   OH231588   4.783   6.758  10.740 -0.0157 -0.1678  0.1639
 3366TIP3    H131589   4.843   6.764  10.666 -0.8659 -0.6411 -0.5735
 3366TIP3    H231590   4.701   6.726  10.703 -0.0516 -1.7852  1.5389
 3367TIP3   OH231591   6.158   5.222  13.452  0.0633  0.7035 -0.0342
 3367TIP3    H131592   6.100   5.151  13.480  1.5298 -0.0954  1.1447
 3367TIP3    H231593   6.201   5.251  13.533  0.1337  2.3817 -0.6294
 3368TIP3   OH231594   5.426   3.049  16.144 -0.0688 -0.6522  0.3742
 3368TIP3    H131595   5.374   3.048  16.224 -0.1761 -1.7838  0.3021
 3368TIP3    H231596   5.367   3.016  16.076  0.1050  0.0456 -0.1236
 3369TIP3   OH231597   0.322   5.869  12.763  0.3191  0.0954 -0.1269
 3369TIP3    H131598   0.261   5.800  12.737  0.6761 -0.0057 -0.7088
 3369TIP3    H231599   0.404   5.823  12.779  1.0409  0.5746 -2.2040
 3370TIP3   OH231600   4.403   4.763   3.248 -0.6007  0.3219 -0.3156
 3370TIP3    H131601   4.458   4.738   3.174 -0.8027  0.7535 -0.6194
 3370TIP3    H231602   4.465   4.788   3.317 -0.4117 -0.0199 -0.3596
 3371TIP3   OH231603   0.316   2.334  12.837  0.0687 -0.2782  0.4611
 3371TIP3    H131604   0.246   2.292  12.887  1.1036 -1.7191  0.7536
 3371TIP3    H231605   0.397   2.300  12.876  1.0357  2.9551  1.5589
 3372TIP3   OH231606   0.836   1.017   0.309 -0.4827  0.1698 -0.5873
 3372TIP3    H131607   0.846   1.029   0.403 -1.3488 -0.5833 -0.3819
 3372TIP3    H231608   0.882   0.935   0.290 -0.5035  0.2023 -0.7832
 3373TIP3   OH231609   0.988   5.510   4.898 -0.5882 -0.1238  0.4777
 3373TIP3    H131610   0.964   5.440   4.838 -1.2213  1.5132 -1.2835
 3373TIP3    H231611   1.054   5.560   4.850 -2.0276  1.9657  0.5717
 3374TIP3   OH231612   2.974   3.051  13.954  0.4030 -0.4689 -0.3156
 3374TIP3    H131613   3.031   3.048  13.877  1.8821  1.4650  0.6081
 3374TIP3    H231614   2.893   3.092  13.922  1.2270  0.8884 -0.7655
 3375TIP3   OH231615   5.504   6.566  10.508  0.2369  0.1292 -0.6415
 3375TIP3    H131616   5.480   6.486  10.556 -0.4268 -0.8459 -2.5302
 3375TIP3    H231617   5.599   6.573  10.520  0.1278 -0.1658  0.6383
 3376TIP3   OH231618   1.816   2.065  12.230  0.0022  0.0429  0.5466
 3376TIP3    H131619   1.739   2.041  12.180 -0.7741 -0.8100  2.0647
 3376TIP3    H231620   1.807   2.159  12.245 -0.2426  0.1242 -0.0776
 3377TIP3   OH231621   2.747   0.146   4.789  0.1065 -0.0591  0.0488
 3377TIP3    H131622   2.710   0.150   4.701  1.0946  1.7492 -0.3390
 3377TIP3    H231623   2.706   0.069   4.829 -1.8832  0.2335 -1.2868
 3378TIP3   OH231624   2.611   6.529  12.629  0.0223 -0.2263  0.3201
 3378TIP3    H131625   2.517   6.543  12.645  0.1407  0.3908  0.5095
 3378TIP3    H231626   2.614   6.450  12.576 -0.4893 -1.3771  1.9127
 3379TIP3   OH231627   1.896   0.578   3.052  0.0245  0.4329 -0.2774
 3379TIP3    H131628   1.824   0.609   3.105 -1.2897  0.9981 -2.2800
 3379TIP3    H231629   1.911   0.647   2.987  0.9112 -0.6171 -1.2470
 3380TIP3   OH231630   0.053   4.578   0.537 -0.0410 -0.1414 -0.1100
 3380TIP3    H131631   0.089   4.662   0.564 -0.1715 -0.0864 -0.1098
 3380TIP3    H231632  -0.020   4.562   0.598 -1.0890  0.5238 -1.1603
 3381TIP3   OH231633   3.903   2.833   5.184 -0.1616 -0.2952  0.4682
 3381TIP3    H131634   3.857   2.913   5.160 -0.4187 -0.1096  1.5417
 3381TIP3    H231635   3.987   2.862   5.219 -0.1954 -0.5002  0.7256
 3382TIP3   OH231636   1.985   1.089   3.620  0.3563  0.8985 -0.6217
 3382TIP3    H131637   1.926   1.086   3.545 -0.0686  0.4104 -0.2804
 3382TIP3    H231638   1.995   0.998   3.647  0.5950  1.0548 -0.1631
 3383TIP3   OH231639   6.059   0.359   3.719  0.2770 -0.0261 -0.6715
 3383TIP3    H131640   5.999   0.285   3.714 -0.7226  0.7875 -1.3146
 3383TIP3    H231641   6.112   0.352   3.639 -0.7492  0.6872 -1.4453
 3384TIP3   OH231642   1.284   2.750  16.639 -0.5759 -0.4903  0.1551
 3384TIP3    H131643   1.211   2.812  16.642 -0.9849 -0.8556 -1.4248
 3384TIP3    H231644   1.298   2.734  16.546 -0.6412 -2.9546  0.5019
 3385TIP3   OH231645   1.070   0.349  10.908 -0.6951 -0.3314  0.0693
 3385TIP3    H131646   0.983   0.381  10.931  0.5969  1.7939  2.4665
 3385TIP3    H231647   1.099   0.407  10.838 -1.2502 -1.2110 -0.9206
 3386TIP3   OH231648   4.760   0.920   5.096  0.8243 -0.3313 -0.3339
 3386TIP3    H131649   4.765   1.016   5.104 -0.9701 -0.1874 -0.4612
 3386TIP3    H231650   4.797   0.902   5.010  1.6471  0.1802 -0.1048
 3387TIP3   OH231651   4.254   0.472   2.291 -0.0926 -0.1260 -0.0068
 3387TIP3    H131652   4.278   0.537   2.225  1.0916  0.4861  0.9864
 3387TIP3    H231653   4.324   0.476   2.356 -0.1603 -2.1575  0.2806
 3388TIP3   OH231654   0.961   6.508  16.514  0.1747  0.2156  0.1037
 3388TIP3    H131655   1.032   6.473  16.568 -1.6245  1.2914  3.4352
 3388TIP3    H231656   0.916   6.431  16.480  2.0663 -0.4824 -0.9791
 3389TIP3   OH231657   0.440   5.560  12.797 -0.4403  0.4787 -0.0670
 3389TIP3    H131658   0.350   5.558  12.765  0.0339  0.3216 -1.4304
 3389TIP3    H231659   0.454   5.472  12.835  0.0295 -0.5492 -2.4695
 3390TIP3   OH231660   4.286   4.657   2.967 -0.1799 -0.6310 -0.6191
 3390TIP3    H131661   4.370   4.704   2.962 -0.2501 -0.2450  1.2181
 3390TIP3    H231662   4.297   4.595   3.039 -1.2265 -1.0958 -0.8398
 3391TIP3   OH231663   6.388   0.860  16.507 -0.6102 -0.4345 -0.0167
 3391TIP3    H131664   6.447   0.827  16.439 -0.3304 -0.7325  0.3607
 3391TIP3    H231665   6.320   0.793  16.513 -1.3951  0.2569 -0.9524
 3392TIP3   OH231666   4.786   4.843  14.860 -0.1907 -1.0109  0.1225
 3392TIP3    H131667   4.822   4.920  14.815  0.7190 -0.8840  1.0335
 3392TIP3    H231668   4.691   4.855  14.858 -0.1028 -0.3943 -0.6584
 3393TIP3   OH231669   0.438   4.794   4.346 -0.4832  0.1949 -0.3078
 3393TIP3    H131670   0.423   4.759   4.434  0.1050  0.1682 -0.2142
 3393TIP3    H231671   0.470   4.719   4.296  1.3471  0.7049  0.0444
 3394TIP3   OH231672   4.613   5.847  10.791  0.3352  0.0173 -0.0956
 3394TIP3    H131673   4.685   5.895  10.833  0.4870  0.3852 -0.7698
 3394TIP3    H231674   4.594   5.897  10.712 -0.4416 -0.2646 -0.0959
 3395TIP3   OH231675   5.153   4.191   3.164  0.2112  0.0901 -0.7015
 3395TIP3    H131676   5.114   4.236   3.239  4.1919  0.1024  1.6428
 3395TIP3    H231677   5.115   4.103   3.167  0.2197  0.0861  1.4026
 3396TIP3   OH231678   2.354   1.072   1.090 -0.5472 -0.1998 -0.8042
 3396TIP3    H131679   2.316   1.147   1.044 -2.6184  0.0289  1.1015
 3396TIP3    H231680   2.282   1.009   1.096  0.4369 -1.3041 -0.1760
 3397TIP3   OH231681   3.861   1.607  16.302 -0.2075 -0.2147  0.2886
 3397TIP3    H131682   3.865   1.685  16.247 -1.6854 -0.2310  0.1041
 3397TIP3    H231683   3.919   1.626  16.376  0.9440  0.2578 -0.6974
 3398TIP3   OH231684   4.178   1.594  11.489 -0.3643  0.5791  0.3831
 3398TIP3    H131685   4.095   1.553  11.464 -0.5798  0.8532  0.6353
 3398TIP3    H231686   4.244   1.527  11.474 -0.4069  0.9006 -1.4327
 3399TIP3   OH231687   3.374   6.081  16.563 -0.2485 -0.2199 -0.1351
 3399TIP3    H131688   3.332   6.000  16.535 -1.2416 -0.6186  2.2967
 3399TIP3    H231689   3.306   6.148  16.554 -0.3282 -0.2074  0.5217
 3400TIP3   OH231690   0.720   3.339   2.227 -0.9610 -0.5153 -0.3412
 3400TIP3    H131691   0.636   3.320   2.185 -0.3197 -0.7143 -1.5882
 3400TIP3    H231692   0.727   3.435   2.223 -0.3093 -0.5940 -1.9730
 3401TIP3   OH231693   4.708   6.683   0.257 -0.0878  0.4374 -0.6054
 3401TIP3    H131694   4.643   6.711   0.193 -0.6482 -1.9637 -1.1514
 3401TIP3    H231695   4.667   6.701   0.342 -0.2635  1.5392 -0.9010
 3402TIP3   OH231696   2.918   1.434  10.474 -0.5107 -0.4197 -0.3462
 3402TIP3    H131697   2.925   1.408  10.566  0.2475  0.5333 -0.1233
 3402TIP3    H231698   2.823   1.442  10.458 -0.6169  0.4201  0.6409
 3403TIP3   OH231699   0.150   4.580  11.078  0.2845  0.5941  0.2657
 3403TIP3    H131700   0.061   4.565  11.046  0.1273 -0.8066  1.2565
 3403TIP3    H231701   0.200   4.604  11.000 -1.1336  2.3538 -0.1592
 3404TIP3   OH231702   3.994   5.664  13.129  0.3277  0.1566  0.0272
 3404TIP3    H131703   4.020   5.730  13.065  1.0308  2.7451  2.7430
 3404TIP3    H231704   3.898   5.663  13.124  0.3803 -1.5618 -2.6583
 3405TIP3   OH231705   4.095   4.994   0.694  0.2540 -0.0697  0.1050
 3405TIP3    H131706   4.046   5.076   0.686  1.2640  0.5474  0.0692
 3405TIP3    H231707   4.044   4.931   0.644 -0.0826  0.7460 -0.6189
 3406TIP3   OH231708   5.174   6.290   4.651 -0.1590  0.1102  0.1772
 3406TIP3    H131709   5.268   6.272   4.659 -0.3732 -1.3439 -0.3855
 3406TIP3    H231710   5.133   6.228   4.711 -0.8282 -0.1786 -0.5650
 3407TIP3   OH231711   4.111   4.020  16.441 -0.0819  0.0169  0.7770
 3407TIP3    H131712   4.070   4.104  16.465  0.4276  0.2421  0.8692
 3407TIP3    H231713   4.188   4.014  16.497  1.8860  1.1708 -1.5653
 3408TIP3   OH231714   3.964   6.619   2.303  0.6259 -0.2558  0.2269
 3408TIP3    H131715   4.003   6.628   2.216  2.2222 -1.3635  0.7697
 3408TIP3    H231716   3.957   6.524   2.316  2.1794 -0.1810  1.9973
 3409TIP3   OH231717   4.756   5.104  13.260  0.7840  0.4887 -0.7914
 3409TIP3    H131718   4.805   5.084  13.340  0.0538 -1.9198 -0.8661
 3409TIP3    H231719   4.688   5.165  13.289  0.6133 -0.2380  0.4403
 3410TIP3   OH231720   5.586   4.064  12.796  0.0085 -0.0763  0.2311
 3410TIP3    H131721   5.520   4.066  12.727 -0.4976 -0.0441  0.7053
 3410TIP3    H231722   5.669   4.063  12.750 -0.3293 -0.9733 -0.3993
 3411TIP3   OH231723   0.130   4.384   2.435  0.5018 -0.1848 -0.0280
 3411TIP3    H131724   0.218   4.379   2.472  0.0159  0.9519  1.3613
 3411TIP3    H231725   0.079   4.434   2.499 -0.7897  0.4800 -1.5038
 3412TIP3   OH231726   0.606   2.264  15.252 -0.4708 -0.0358  0.0386
 3412TIP3    H131727   0.589   2.206  15.177 -1.7518  1.4014 -0.8440
 3412TIP3    H231728   0.561   2.222  15.325 -1.5960 -0.0742 -0.6434
 3413TIP3   OH231729   2.764   5.732  11.613 -0.0005  0.5004 -0.4723
 3413TIP3    H131730   2.853   5.756  11.638 -0.1472  0.3527  0.1994
 3413TIP3    H231731   2.773   5.648  11.568  0.1392  0.2302  0.0614
 3414TIP3   OH231732   5.105   1.994   2.353  0.1025 -0.0219  0.1141
 3414TIP3    H131733   5.145   1.990   2.440 -0.2785 -0.4285  0.2739
 3414TIP3    H231734   5.023   1.946   2.362 -1.0059  1.8008  0.0911
 3415TIP3   OH231735   0.158   5.907   3.089  0.0048 -0.1926 -0.2721
 3415TIP3    H131736   0.077   5.947   3.119  1.7911  2.9565  0.8642
 3415TIP3    H231737   0.192   5.859   3.164  0.6815  1.2067  0.3639
 3416TIP3   OH231738   5.707   3.428   4.886 -0.2193  0.9131 -0.2898
 3416TIP3    H131739   5.707   3.476   4.969 -0.6323  1.2516 -0.4798
 3416TIP3    H231740   5.795   3.440   4.851 -0.1318  1.0104 -0.0344
 3417TIP3   OH231741   6.328   1.701  16.571  0.2802  0.3613  0.6263
 3417TIP3    H131742   6.392   1.674  16.505  0.8370 -0.1078  1.3466
 3417TIP3    H231743   6.324   1.627  16.631 -0.8006  0.4657  0.6979
 3418TIP3   OH231744   5.208   1.141  15.321 -0.1168  0.3952  0.9750
 3418TIP3    H131745   5.235   1.089  15.245 -1.4980  0.3669  0.4762
 3418TIP3    H231746   5.216   1.081  15.395  0.1848  0.0903  0.7024
 3419TIP3   OH231747   5.525   1.349   1.985  0.3862 -0.3646 -0.0586
 3419TIP3    H131748   5.510   1.261   1.951 -0.5690 -0.1859 -0.1277
 3419TIP3    H231749   5.554   1.399   1.909  4.0183 -1.2895  0.5420
 3420TIP3   OH231750   6.718   4.307   0.322  0.0321 -0.8047  0.1867
 3420TIP3    H131751   6.646   4.256   0.361 -0.6217 -0.0175  0.0410
 3420TIP3    H231752   6.786   4.307   0.389 -0.0358 -1.6932  0.2714
 3421TIP3   OH231753   1.546   3.015  12.018 -0.2192 -0.2210  0.6671
 3421TIP3    H131754   1.606   3.063  12.075  0.7017 -3.0091  2.2297
 3421TIP3    H231755   1.593   3.005  11.935 -0.0351  0.6632  0.6549
 3422TIP3   OH231756   2.918   5.970  13.565 -0.5346  0.2366  0.1320
 3422TIP3    H131757   2.916   5.880  13.596  0.5484  0.5034  1.0173
 3422TIP3    H231758   2.833   6.006  13.591 -0.9336 -0.4914 -0.1399
 3423TIP3   OH231759   2.437   3.315  10.942 -0.2879 -0.2891  0.0127
 3423TIP3    H131760   2.385   3.387  10.977  1.2017 -0.5199  3.0205
 3423TIP3    H231761   2.490   3.354  10.872 -0.6967  1.1337  0.4757
 3424TIP3   OH231762   6.667   4.282   6.329 -0.5059 -0.0943  0.2911
 3424TIP3    H131763   6.606   4.286   6.256 -0.4813  1.4006  0.3039
 3424TIP3    H231764   6.643   4.356   6.384  1.0399  0.3072  0.4921
 3425TIP3   OH231765   4.493   5.764   5.658 -0.0191  0.1275 -0.0500
 3425TIP3    H131766   4.546   5.710   5.717  0.6704 -0.0774 -0.8426
 3425TIP3    H231767   4.542   5.845   5.649 -1.1402  1.0000  1.2745
 3426TIP3   OH231768   6.038   4.906   1.123  0.4932 -0.0715  0.3680
 3426TIP3    H131769   6.111   4.915   1.062  1.0591  0.9013  1.1545
 3426TIP3    H231770   5.984   4.983   1.107 -0.3904 -0.7887 -0.2141
 3427TIP3   OH231771   5.940   1.729   0.606  0.6828 -0.3651 -0.1238
 3427TIP3    H131772   5.845   1.736   0.615  0.8205  0.6000  0.8742
 3427TIP3    H231773   5.965   1.657   0.663  0.5396 -0.7294 -0.5170
 3428TIP3   OH231774   6.796   5.094  13.707 -0.0930 -0.5855 -0.0570
 3428TIP3    H131775   6.851   5.068  13.632 -0.6732 -1.4149 -0.2007
 3428TIP3    H231776   6.765   5.182  13.683  1.0919 -0.1298 -0.0108
 3429TIP3   OH231777   0.094   4.593   1.362  0.1087 -0.1243  0.2778
 3429TIP3    H131778   0.154   4.612   1.290 -0.1188  1.3067  0.4323
 3429TIP3    H231779   0.141   4.620   1.441 -0.4788  0.3966  0.4586
 3430TIP3   OH231780   6.587   3.142  14.623 -0.1678 -0.3002  0.6120
 3430TIP3    H131781   6.673   3.109  14.599  0.5478  2.5707 -1.2688
 3430TIP3    H231782   6.531   3.122  14.548 -0.4576  0.2107  0.6870
 3431TIP3   OH231783   1.052   4.856  11.779  0.0895 -0.1946 -0.1435
 3431TIP3    H131784   1.130   4.804  11.764  0.7217  0.6162  0.2411
 3431TIP3    H231785   1.072   4.941  11.739 -1.1209 -0.3939 -1.2344
 3432TIP3   OH231786   0.708   5.627  12.834  0.0121  0.2667 -0.3997
 3432TIP3    H131787   0.633   5.602  12.780  0.7899  0.4310 -1.6072
 3432TIP3    H231788   0.743   5.544  12.866 -0.8696  0.2100  0.4474
 3433TIP3   OH231789   6.467   1.667  14.196 -0.1168 -0.2715  0.4981
 3433TIP3    H131790   6.559   1.670  14.223 -1.0288  0.6342  3.9882
 3433TIP3    H231791   6.467   1.609  14.120  3.4494  0.5620 -0.3583
 3434TIP3   OH231792   1.110   0.003   3.721 -0.2773  0.6997 -0.0305
 3434TIP3    H131793   1.064  -0.081   3.715  0.4631  0.2103  0.9120
 3434TIP3    H231794   1.041   0.067   3.742 -0.6252  0.0740  0.7706
 3435TIP3   OH231795   6.635   0.841  11.522 -0.3139  0.7767  0.0994
 3435TIP3    H131796   6.617   0.747  11.517  1.8719  0.1144  2.6738
 3435TIP3    H231797   6.670   0.862  11.436 -0.4733 -0.8415 -0.4071
 3436TIP3   OH231798   1.878   5.230  17.091  0.3176  0.0544 -0.1012
 3436TIP3    H131799   1.878   5.290  17.016 -1.0047 -0.1900 -0.3162
 3436TIP3    H231800   1.950   5.261  17.146  0.1704  1.3452 -0.6011
 3437TIP3   OH231801   1.545   4.335   5.753  0.2181  0.1670  0.5919
 3437TIP3    H131802   1.513   4.245   5.763 -0.0758  0.1202 -0.6106
 3437TIP3    H231803   1.522   4.378   5.836 -2.6409  0.0223 -0.0155
 3438TIP3   OH231804   6.319   4.177   0.774  0.1687 -0.2373 -0.0791
 3438TIP3    H131805   6.348   4.210   0.689  0.0444  0.6887  0.2151
 3438TIP3    H231806   6.400   4.159   0.822  0.2553  0.3848  0.0198
 3439TIP3   OH231807   6.561   4.701  15.546  0.1749 -0.1788  0.0373
 3439TIP3    H131808   6.609   4.725  15.625 -0.6491  1.7674  0.0234
 3439TIP3    H231809   6.620   4.643  15.498  0.8681 -1.0570  1.8485
 3440TIP3   OH231810   4.876   6.189  16.342 -0.2764 -0.1966 -0.4272
 3440TIP3    H131811   4.829   6.202  16.425 -0.6581  1.8817 -0.9170
 3440TIP3    H231812   4.811   6.152  16.283 -0.1725 -1.0799 -0.0175
 3441TIP3   OH231813   4.068   5.623  13.427 -0.3154 -0.1304 -0.0105
 3441TIP3    H131814   4.090   5.692  13.489 -1.8399 -0.4923  1.0079
 3441TIP3    H231815   4.014   5.666  13.360 -2.1386 -0.4641  1.1790
 3442TIP3   OH231816   1.865   1.297  15.964 -0.0512 -1.0928 -0.1839
 3442TIP3    H131817   1.794   1.299  15.900  0.3721 -0.5680 -0.6447
 3442TIP3    H231818   1.934   1.352  15.926 -0.4697  0.7214  1.4760
 3443TIP3   OH231819   1.249   0.789  16.249  0.3753 -0.6323 -0.2976
 3443TIP3    H131820   1.180   0.742  16.295  1.6072 -0.1665  2.1520
 3443TIP3    H231821   1.286   0.724  16.189  0.1300 -1.9403  0.9257
 3444TIP3   OH231822   0.144   5.470  12.260  0.2244  0.5336 -0.2873
 3444TIP3    H131823   0.168   5.379  12.246  0.4813  0.5461  0.0633
 3444TIP3    H231824   0.094   5.494  12.181 -1.7414 -0.5350  0.5461
 3445TIP3   OH231825   5.303   4.913  14.449  0.0794  0.3588 -0.0258
 3445TIP3    H131826   5.238   4.868  14.394 -0.3157 -0.1214  0.8212
 3445TIP3    H231827   5.311   4.858  14.526  0.4558  1.1517  0.5063
 3446TIP3   OH231828   5.548   2.679  12.842 -0.0158 -0.2011  0.5706
 3446TIP3    H131829   5.596   2.678  12.760 -1.6141  0.5736 -0.4257
 3446TIP3    H231830   5.589   2.748  12.894  0.6895 -0.3640  0.2375
 3447TIP3   OH231831   3.375   3.141   3.549  0.3748  0.8864  0.2866
 3447TIP3    H131832   3.357   3.086   3.472  1.4479 -1.1195  1.3674
 3447TIP3    H231833   3.468   3.126   3.568 -0.3876 -0.8707  3.4588
 3448TIP3   OH231834   2.206   4.208  14.329  0.4188 -0.0200 -0.2449
 3448TIP3    H131835   2.181   4.287  14.377  0.2316 -0.3383  0.1912
 3448TIP3    H231836   2.288   4.231  14.286  0.5436  0.3042  0.1555
 3449TIP3   OH231837   5.976   2.190  11.854  0.1353 -0.0878 -0.1264
 3449TIP3    H131838   6.048   2.167  11.912  0.5304 -0.1234 -0.6257
 3449TIP3    H231839   5.897   2.159  11.899  0.4113  0.1221  0.5090
 3450TIP3   OH231840   3.403   6.741   0.761  0.9812 -0.5144  0.7672
 3450TIP3    H131841   3.352   6.724   0.681 -1.0243  2.1851  1.3385
 3450TIP3    H231842   3.494   6.744   0.731  0.5790 -2.3991 -0.8560
 3451TIP3   OH231843   6.036   4.059  11.211 -0.2823 -0.0539  0.2237
 3451TIP3    H131844   6.067   4.077  11.300 -0.5063  1.0083  0.1061
 3451TIP3    H231845   5.966   3.995  11.223  0.5422 -0.8829  0.6855
 3452TIP3   OH231846   5.984   3.487   4.786  0.2702  0.2521  0.1274
 3452TIP3    H131847   6.059   3.532   4.826  1.5378 -1.9205  0.3162
 3452TIP3    H231848   5.986   3.514   4.694  1.3816  0.1127  0.0981
 3453TIP3   OH231849   4.424   6.168  15.353  0.1584 -0.1472 -0.0624
 3453TIP3    H131850   4.378   6.085  15.338 -0.7318  0.4226 -0.5564
 3453TIP3    H231851   4.392   6.226  15.284  2.0446  0.1114 -0.7941
 3454TIP3   OH231852   2.716   2.611  10.377  0.3737  0.2542  0.1155
 3454TIP3    H131853   2.742   2.546  10.311  1.6180  0.8173  0.0153
 3454TIP3    H231854   2.788   2.674  10.377  0.0918  0.5974  1.5839
 3455TIP3   OH231855   2.320   5.285   3.604 -0.3075  0.8561 -0.1261
 3455TIP3    H131856   2.230   5.313   3.624 -0.0431  1.3467  0.3959
 3455TIP3    H231857   2.354   5.253   3.688  0.7789  2.8340  0.2655
 3456TIP3   OH231858   5.547   0.524   6.570 -0.2480 -0.4039 -0.5460
 3456TIP3    H131859   5.496   0.460   6.520  0.4550 -1.1701 -0.3008
 3456TIP3    H231860   5.509   0.609   6.546 -1.0031 -0.8853 -1.0986
 3457TIP3   OH231861   5.427   1.762   2.276 -0.2608 -0.1821 -0.0685
 3457TIP3    H131862   5.345   1.770   2.227  0.0820  1.5609 -0.4467
 3457TIP3    H231863   5.413   1.815   2.355  0.7402  0.8102 -0.5200
 3458TIP3   OH231864   3.508   3.438   3.118 -0.0133 -0.0574  0.3764
 3458TIP3    H131865   3.574   3.488   3.164 -0.7987 -0.3567  1.8845
 3458TIP3    H231866   3.432   3.496   3.114 -0.3526 -0.4814  0.5753
 3459TIP3   OH231867   0.948   4.237  10.959  0.3194  0.1345  0.0730
 3459TIP3    H131868   0.959   4.215  11.051  0.9002 -3.5469 -0.7389
 3459TIP3    H231869   0.978   4.160  10.911 -1.2621  1.3308 -3.1990
 3460TIP3   OH231870   3.821   0.809   5.469 -0.6080 -0.1455 -0.0011
 3460TIP3    H131871   3.862   0.725   5.489  2.9112  1.1898 -0.9287
 3460TIP3    H231872   3.761   0.790   5.397  1.4448 -1.6301 -1.4305
 3461TIP3   OH231873   4.265   6.485  11.389 -0.0788 -0.1053  0.2462
 3461TIP3    H131874   4.282   6.579  11.399  1.6516 -0.3484 -0.1524
 3461TIP3    H231875   4.240   6.475  11.298  2.7743 -0.3886 -0.5911
 3462TIP3   OH231876   2.229   1.092   0.244 -0.0761  0.9549 -0.5603
 3462TIP3    H131877   2.190   1.005   0.239 -1.2512  1.3648  0.7215
 3462TIP3    H231878   2.215   1.129   0.156 -0.4503  0.2149 -0.8213
 3463TIP3   OH231879   1.341   4.155  16.870 -0.1150  0.0966  0.4313
 3463TIP3    H131880   1.259   4.106  16.869 -1.1614  1.7639 -0.3724
 3463TIP3    H231881   1.363   4.167  16.778  0.6203  0.3256  0.6350
 3464TIP3   OH231882   0.573   4.735  14.700 -0.1677 -0.4652 -0.1196
 3464TIP3    H131883   0.505   4.790  14.661 -0.2614  0.5486  1.3880
 3464TIP3    H231884   0.565   4.751  14.794  1.8093 -0.7545  0.1367
 3465TIP3   OH231885   4.435   4.935   4.916  0.4405 -0.5798 -0.5851
 3465TIP3    H131886   4.347   4.936   4.954  0.8381 -0.1858  0.3434
 3465TIP3    H231887   4.421   4.905   4.826 -0.6776 -0.2754 -0.5364
 3466TIP3   OH231888   3.548   4.034  13.523  0.8062  0.1457 -0.4274
 3466TIP3    H131889   3.573   4.085  13.446 -0.6509 -0.2095 -1.1778
 3466TIP3    H231890   3.554   4.096  13.595 -3.6920  2.4867 -1.6581
 3467TIP3   OH231891   6.052   5.643  13.277 -0.1799 -0.3012 -1.0166
 3467TIP3    H131892   6.114   5.578  13.243  1.0043  0.6584 -0.7322
 3467TIP3    H231893   6.006   5.675  13.199 -0.1917 -0.8869 -1.2546
 3468TIP3   OH231894   0.501   4.916  16.914 -0.1451 -0.5447  0.5842
 3468TIP3    H131895   0.498   4.854  16.842 -0.9023  1.5425 -1.2664
 3468TIP3    H231896   0.586   4.959  16.906 -1.4368  1.8796 -1.0791
 3469TIP3   OH231897   4.863   0.313   1.808 -0.3357 -0.6735  0.0455
 3469TIP3    H131898   4.903   0.393   1.842  0.4987 -0.8481 -0.5045
 3469TIP3    H231899   4.849   0.259   1.885 -0.1001 -0.3558  0.3153
 3470TIP3   OH231900   0.016   2.160   1.681  0.2646 -0.6909  0.3005
 3470TIP3    H131901  -0.009   2.163   1.773 -1.9565 -1.1223 -0.2407
 3470TIP3    H231902   0.078   2.087   1.675 -0.4534 -1.4011  1.2726
 3471TIP3   OH231903   4.447   1.857  11.901  0.2190 -0.0182 -0.2508
 3471TIP3    H131904   4.443   1.779  11.845 -0.5666 -0.0330 -0.1864
 3471TIP3    H231905   4.476   1.824  11.985 -2.4541 -0.6985  0.5008
 3472TIP3   OH231906   0.631   6.639  11.938  0.4139  0.0186 -0.1019
 3472TIP3    H131907   0.617   6.712  11.877 -0.9193 -0.7167 -0.7125
 3472TIP3    H231908   0.724   6.645  11.961  1.3784 -0.5336 -3.3497
 3473TIP3   OH231909   6.407   6.414   5.352 -0.0309  0.1499 -0.1255
 3473TIP3    H131910   6.391   6.380   5.440  0.1396 -0.5437 -0.3604
 3473TIP3    H231911   6.322   6.411   5.309  0.0432 -0.2797 -0.2467
 3474TIP3   OH231912   5.435   3.525   1.362  0.2001 -0.1966  0.2213
 3474TIP3    H131913   5.410   3.457   1.425 -0.8437  0.8811  0.9963
 3474TIP3    H231914   5.431   3.607   1.411 -0.3837  0.6493 -1.1765
 3475TIP3   OH231915   6.659   5.403   4.380 -0.0899  0.0038  0.4846
 3475TIP3    H131916   6.626   5.313   4.374 -0.4570  0.2156 -0.8083
 3475TIP3    H231917   6.738   5.403   4.327 -0.4963  0.6197 -0.1349
 3476TIP3   OH231918   1.313   5.637   4.215  0.5760 -0.5608  0.0042
 3476TIP3    H131919   1.314   5.547   4.248  1.5809 -0.9777 -1.0836
 3476TIP3    H231920   1.390   5.643   4.159  0.2643  0.8472 -0.3223
 3477TIP3   OH231921   3.357   2.173  12.103 -0.1252 -0.2685 -0.7352
 3477TIP3    H131922   3.339   2.082  12.126 -1.6916  0.3198  0.5080
 3477TIP3    H231923   3.280   2.202  12.056  0.1932  0.5335 -0.7846
 3478TIP3   OH231924   6.000   0.632   3.776 -0.1868  0.0777  0.0988
 3478TIP3    H131925   5.990   0.540   3.751 -2.0165  0.1492  0.4306
 3478TIP3    H231926   6.007   0.630   3.872  0.1891  0.2527  0.0746
 3479TIP3   OH231927   1.421   3.226   5.446  1.1719  0.3335  0.0483
 3479TIP3    H131928   1.457   3.222   5.357  0.4969  0.2520 -0.2295
 3479TIP3    H231929   1.483   3.279   5.495  0.4253  2.3244 -1.0220
 3480TIP3   OH231930   3.866   4.949   5.502 -0.4930  0.4486  0.9840
 3480TIP3    H131931   3.829   5.018   5.448 -0.2801  0.0983  0.3796
 3480TIP3    H231932   3.827   4.963   5.588 -2.9550 -0.5650  0.1312
 3481TIP3   OH231933   5.984   0.626   4.443  0.8987 -0.4560 -0.0601
 3481TIP3    H131934   5.916   0.580   4.491  0.9454  0.9495  1.4434
 3481TIP3    H231935   6.062   0.618   4.498  1.4994 -0.5616 -0.9137
 3482TIP3   OH231936   4.507   3.828  15.630  0.9974  0.4101  0.2526
 3482TIP3    H131937   4.452   3.902  15.656  0.4186  0.8252 -1.9375
 3482TIP3    H231938   4.596   3.858  15.648  0.7392  1.4308 -0.0546
 3483TIP3   OH231939   4.182   0.414  11.293  0.6244  0.5128 -0.1906
 3483TIP3    H131940   4.121   0.340  11.288  0.2516  0.8071 -0.0019
 3483TIP3    H231941   4.179   0.453  11.206 -0.0005  0.9614  0.0335
 3484TIP3   OH231942   2.730   0.508   4.430  0.1361 -0.3386 -0.4727
 3484TIP3    H131943   2.761   0.599   4.436  1.0750 -0.7495  1.7988
 3484TIP3    H231944   2.701   0.486   4.519  0.5166 -2.4620 -0.8234
 3485TIP3   OH231945   5.481   4.819   2.830 -0.1326  0.0554 -0.4096
 3485TIP3    H131946   5.419   4.779   2.891 -0.8462  1.9133  0.1428
 3485TIP3    H231947   5.534   4.746   2.799 -1.8256 -1.4309  0.0010
 3486TIP3   OH231948   4.901   1.573  13.864  0.0645  0.3009 -0.8034
 3486TIP3    H131949   4.984   1.563  13.911 -0.8382  1.5217  1.2214
 3486TIP3    H231950   4.838   1.523  13.916 -1.0794  2.1095 -0.3393
 3487TIP3   OH231951   3.044   3.602  10.982 -0.6925 -0.7972 -0.0277
 3487TIP3    H131952   2.969   3.553  10.950 -0.3390 -2.2789  1.2930
 3487TIP3    H231953   3.023   3.693  10.963 -3.3814 -1.0253  1.3204
 3488TIP3   OH231954   6.286   2.519  15.040 -0.5381 -0.4054  0.1568
 3488TIP3    H131955   6.379   2.507  15.022 -0.5030  1.1129 -0.8706
 3488TIP3    H231956   6.278   2.510  15.135  0.6083 -0.7758  0.2277
 3489TIP3   OH231957   1.720   4.550  13.577  0.3355 -0.5429  0.7317
 3489TIP3    H131958   1.758   4.634  13.603  2.5123 -1.1888 -0.1024
 3489TIP3    H231959   1.748   4.490  13.646 -0.8507 -0.6880  1.1031
 3490TIP3   OH231960   6.767   5.255  12.905 -0.1669  0.2144  0.1347
 3490TIP3    H131961   6.771   5.291  12.994 -2.0575 -0.3383  0.4880
 3490TIP3    H231962   6.846   5.200  12.898 -0.3697 -0.3526  1.7729
 3491TIP3   OH231963   5.696   3.116   2.444  0.3990 -0.0965  0.5238
 3491TIP3    H131964   5.771   3.082   2.493  1.0749  1.7683  0.8842
 3491TIP3    H231965   5.632   3.140   2.511 -0.1945 -0.9102  0.2626
 3492TIP3   OH231966   6.555   0.057   4.727  0.1435 -0.2670 -0.6572
 3492TIP3    H131967   6.556   0.104   4.643 -2.0680 -0.6408 -0.9376
 3492TIP3    H231968   6.612  -0.019   4.712  0.3818  0.0690 -1.5559
 3493TIP3   OH231969   4.688   0.179  10.534  0.4338 -0.1670  0.1820
 3493TIP3    H131970   4.719   0.166  10.444 -0.4140 -0.8459 -0.0290
 3493TIP3    H231971   4.726   0.105  10.583 -0.1044 -0.4894  0.1162
 3494TIP3   OH231972   3.812   3.010   1.109  0.3071 -0.2386  0.2080
 3494TIP3    H131973   3.758   2.981   1.183  1.0476 -0.2675  0.7487
 3494TIP3    H231974   3.864   3.083   1.144  1.1650 -0.6982 -0.0815
 3495TIP3   OH231975   6.315   3.639  11.108  0.0965 -0.3122 -0.2658
 3495TIP3    H131976   6.296   3.731  11.093  1.1151  0.1336  1.0277
 3495TIP3    H231977   6.255   3.614  11.179  0.0793 -0.5521 -0.3642
 3496TIP3   OH231978   0.517   0.142  11.477  0.3853 -0.0726 -0.5521
 3496TIP3    H131979   0.443   0.158  11.418  0.3213  1.1901 -0.1688
 3496TIP3    H231980   0.565   0.225  11.477  0.3216  0.0045  1.2447
 3497TIP3   OH231981   3.810   5.672   3.132 -0.0625  0.4654  0.5476
 3497TIP3    H131982   3.866   5.667   3.054 -1.0354 -1.5175 -0.1058
 3497TIP3    H231983   3.721   5.661   3.098 -0.8306  2.5377  1.6652
 3498TIP3   OH231984   3.415   1.586  16.503 -0.0241  0.0769 -0.2217
 3498TIP3    H131985   3.507   1.610  16.511 -0.3891  2.6992 -2.5050
 3498TIP3    H231986   3.417   1.495  16.473  1.8597  0.2680 -0.8001
 3499TIP3   OH231987   3.974   6.687   2.768 -0.0639  0.2881  0.1382
 3499TIP3    H131988   4.026   6.607   2.762 -0.0574  0.3120 -0.1150
 3499TIP3    H231989   3.974   6.709   2.861 -0.7218 -0.4506  0.3273
 3500TIP3   OH231990   5.127   2.793   3.104 -0.2586  0.1163  0.2944
 3500TIP3    H131991   5.128   2.885   3.076 -0.2036  0.3150  0.9327
 3500TIP3    H231992   5.214   2.761   3.082  0.1128  0.5409  1.0904
 3501TIP3   OH231993   4.138   6.335   2.179 -0.0915 -0.5854  0.3460
 3501TIP3    H131994   4.061   6.355   2.126 -1.2091 -4.4750  0.1658
 3501TIP3    H231995   4.103   6.325   2.268  0.8528  0.7233  0.9058
 3502TIP3   OH231996   1.919   5.067  11.533  0.2629  0.5329 -0.0831
 3502TIP3    H131997   1.833   5.095  11.500 -0.3018  1.2446  1.8506
 3502TIP3    H231998   1.965   5.035  11.455 -1.2601  1.3629 -1.3954
 3503TIP3   OH231999   4.549   6.003  11.731  0.3487 -0.5900  0.2448
 3503TIP3    H132000   4.490   6.029  11.802 -0.1318 -2.1636  0.4531
 3503TIP3    H232001   4.630   5.977  11.775  0.4986 -0.3403  0.1165
 3504TIP3   OH232002   4.957   5.195  11.570 -0.1938 -0.2586 -0.6166
 3504TIP3    H132003   5.010   5.179  11.492  0.2110 -1.2722 -0.1562
 3504TIP3    H232004   4.876   5.234  11.537  0.0951 -0.3985 -1.5141
 3505TIP3   OH232005   5.721   4.091  16.919 -0.1379  0.1885 -0.0134
 3505TIP3    H132006   5.724   4.071  17.013  1.8752  0.7627  0.0840
 3505TIP3    H232007   5.636   4.135  16.907 -0.1605  0.6722  1.6605
 3506TIP3   OH232008   3.310   3.337  11.725  0.2116 -0.7357  0.0447
 3506TIP3    H132009   3.367   3.387  11.667  1.4210  0.7166  2.3205
 3506TIP3    H232010   3.245   3.399  11.756 -0.3380 -1.4335  0.3270
 3507TIP3   OH232011   3.999   3.853  14.289  0.4430 -0.2822  0.0245
 3507TIP3    H132012   3.997   3.787  14.220 -0.1600 -0.4504  0.1944
 3507TIP3    H232013   3.907   3.880  14.299  0.6292  0.3086  0.2162
 3508TIP3   OH232014   0.022   4.351  12.228  0.0059 -0.3704  0.0335
 3508TIP3    H132015   0.031   4.388  12.316 -2.6754 -3.2269  1.6940
 3508TIP3    H232016   0.009   4.428  12.171  1.0556  1.5172  2.1760
 3509TIP3   OH232017   3.835   1.529   3.316  0.2647 -0.2676  0.1911
 3509TIP3    H132018   3.756   1.476   3.328  0.3536 -0.4766 -0.1180
 3509TIP3    H232019   3.812   1.615   3.352 -0.8202  0.3107 -1.7210
 3510TIP3   OH232020   0.400   0.726  14.324 -0.1760  0.0052 -0.0256
 3510TIP3    H132021   0.418   0.713  14.231 -2.5762 -0.1542 -0.5282
 3510TIP3    H232022   0.401   0.637  14.361  0.3044  0.0251  0.0144
 3511TIP3   OH232023   3.301   4.127  11.354  0.0472 -0.4129  0.2565
 3511TIP3    H132024   3.373   4.171  11.309 -2.6571  1.1005 -3.0401
 3511TIP3    H232025   3.294   4.042  11.311  0.3543 -0.9424  1.2088
 3512TIP3   OH232026   3.377   1.267   3.916  0.3778 -0.6611 -0.1104
 3512TIP3    H132027   3.450   1.314   3.956 -0.1135 -0.7609  0.9421
 3512TIP3    H232028   3.314   1.335   3.894  0.2499 -0.6920  0.1554
 3513TIP3   OH232029   3.870   3.044   4.751  0.2284 -0.3880 -0.2189
 3513TIP3    H132030   3.953   3.088   4.731 -0.3040  0.2914 -0.9850
 3513TIP3    H232031   3.885   2.953   4.726  1.1128 -0.5302  0.7287
 3514TIP3   OH232032   3.819   4.806  12.169  0.1481  1.2815  0.8962
 3514TIP3    H132033   3.751   4.774  12.229 -0.6835  3.2073  1.0532
 3514TIP3    H232034   3.780   4.796  12.082  1.7687 -2.5574  0.3861
 3515TIP3   OH232035   6.565   1.881   1.320 -0.2264  0.0738  0.2766
 3515TIP3    H132036   6.539   1.944   1.387  1.5061 -0.6841  1.7200
 3515TIP3    H232037   6.657   1.901   1.302  0.0744 -1.3898  0.0412
 3516TIP3   OH232038   1.487   2.394   5.524  0.5727 -0.0335 -0.1799
 3516TIP3    H132039   1.405   2.394   5.475  0.2129 -1.0318  0.3981
 3516TIP3    H232040   1.549   2.348   5.467  0.2338 -0.9266  0.1553
 3517TIP3   OH232041   2.581   0.408   4.920  0.0053 -0.0394 -0.2288
 3517TIP3    H132042   2.581   0.315   4.897  1.1180 -0.4281  1.2135
 3517TIP3    H232043   2.656   0.444   4.874  1.7211 -0.6442  1.9077
 3518TIP3   OH232044   1.788   6.567   3.133  0.3037  0.5897  0.2276
 3518TIP3    H132045   1.789   6.615   3.216  0.7442  0.6422  0.1938
 3518TIP3    H232046   1.787   6.474   3.159  0.0539  0.6104  0.2919
 3519TIP3   OH232047   5.636   4.023   1.619 -0.7403  0.5389 -0.0617
 3519TIP3    H132048   5.611   3.986   1.533 -1.6046 -1.4463  0.9666
 3519TIP3    H232049   5.557   4.014   1.672  0.5044 -0.7431  1.6901
 3520TIP3   OH232050   5.036   1.620   3.797 -0.3741 -0.6413  0.2644
 3520TIP3    H132051   5.005   1.634   3.887 -0.5235  1.0696 -0.0114
 3520TIP3    H232052   4.957   1.613   3.745 -0.3140 -2.7774  0.3572
 3521TIP3   OH232053   0.446   3.333  14.228 -0.3397 -0.0972  0.2646
 3521TIP3    H132054   0.437   3.263  14.293  2.7419  2.0524  3.3876
 3521TIP3    H232055   0.419   3.412  14.275 -2.1318  1.1760 -2.6151
 3522TIP3   OH232056   1.193   2.959  16.970 -0.0128 -0.0307 -0.5463
 3522TIP3    H132057   1.108   2.972  16.929  0.5222  1.4790 -1.2431
 3522TIP3    H232058   1.252   3.017  16.923  1.0757  0.1840  0.9849
 3523TIP3   OH232059   5.246   5.001   4.123  0.4115  0.1857  0.1031
 3523TIP3    H132060   5.278   5.002   4.033 -2.3237  0.5206 -0.9810
 3523TIP3    H232061   5.249   4.909   4.149 -0.2075 -0.1372 -0.9266
 3524TIP3   OH232062   0.101   2.994   3.434 -0.3994  0.6583 -0.4126
 3524TIP3    H132063   0.125   3.085   3.452 -0.1250  0.7993 -1.4335
 3524TIP3    H232064   0.180   2.955   3.399 -0.8492  0.3515 -1.1038
 3525TIP3   OH232065   1.197   4.239   6.202  0.1888 -0.0499 -0.5072
 3525TIP3    H132066   1.228   4.149   6.189  1.4177  0.4936 -1.5592
 3525TIP3    H232067   1.257   4.276   6.266 -1.5714 -0.5547  1.5470
 3526TIP3   OH232068   5.226   5.267  17.134 -0.2651  0.3648  0.3789
 3526TIP3    H132069   5.197   5.301  17.050 -0.7355  1.1110  0.8267
 3526TIP3    H232070   5.320   5.255  17.124 -0.6633 -2.3373 -1.1926
 3527TIP3   OH232071   4.064   6.266   4.128  0.3655  0.2835  0.7090
 3527TIP3    H132072   4.057   6.233   4.218 -2.4362  0.9869  0.8547
 3527TIP3    H232073   3.993   6.331   4.121 -0.3427 -0.6597 -2.3586
 3528TIP3   OH232074   5.018   5.692  16.616  0.1356  0.3468  0.5708
 3528TIP3    H132075   4.976   5.721  16.697 -0.0734  0.0949  0.5516
 3528TIP3    H232076   5.000   5.763  16.554  0.5688  0.6913  0.8259
 3529TIP3   OH232077   4.404   6.438  14.372  0.1244  0.2688 -0.2247
 3529TIP3    H132078   4.358   6.521  14.358 -0.7640 -0.2192 -0.2945
 3529TIP3    H232079   4.386   6.387  14.293  0.0948 -0.2449  0.1085
 3530TIP3   OH232080   1.064   6.619  11.403  0.2435 -0.3725 -0.1190
 3530TIP3    H132081   1.005   6.674  11.352  0.9174 -0.6075 -1.1965
 3530TIP3    H232082   1.008   6.576  11.467 -0.5142  0.4980 -0.1693
 3531TIP3   OH232083   4.735   3.180  14.845 -0.1867  0.1683  0.4499
 3531TIP3    H132084   4.814   3.182  14.792 -1.6322  2.2134 -1.8174
 3531TIP3    H232085   4.679   3.115  14.802 -0.0323 -0.8051  1.6667
 3532TIP3   OH232086   4.096   2.456  13.399 -0.4222  0.2140  0.0250
 3532TIP3    H132087   4.129   2.378  13.444 -0.1998  0.7435  0.8093
 3532TIP3    H232088   4.005   2.464  13.429 -0.0679  0.9590  0.9533
 3533TIP3   OH232089   2.495   0.922  13.036 -0.2453  0.1407 -0.0598
 3533TIP3    H132090   2.556   0.975  13.089  0.6993  0.6713 -1.6220
 3533TIP3    H232091   2.521   0.832  13.053  0.1928  0.3124  0.2051
 3534TIP3   OH232092   4.135   5.165   2.381 -0.4088  0.6803  0.8027
 3534TIP3    H132093   4.124   5.072   2.399 -0.6716  0.2761 -1.2242
 3534TIP3    H232094   4.058   5.189   2.330  0.3356  1.6481  0.1002
 3535TIP3   OH232095   6.571   2.451   6.065 -0.0241 -0.4589 -0.0256
 3535TIP3    H132096   6.667   2.453   6.061  0.0487  1.2192  1.6707
 3535TIP3    H232097   6.550   2.461   6.157 -1.8625 -0.2444 -0.4308
 3536TIP3   OH232098   6.347   3.247   4.089  0.3344  0.9708 -0.1615
 3536TIP3    H132099   6.269   3.247   4.144 -0.3212 -0.8019 -1.0225
 3536TIP3    H232100   6.417   3.279   4.146 -0.2037 -1.2753  1.8908
 3537TIP3   OH232101   4.378   3.072   4.725  0.6699  0.2212  0.2061
 3537TIP3    H132102   4.445   3.004   4.722  1.8644  1.3697 -0.2371
 3537TIP3    H232103   4.428   3.154   4.732 -0.7198  1.0607  0.6542
 3538TIP3   OH232104   5.525   6.368  11.688  0.5282 -0.4135  0.4088
 3538TIP3    H132105   5.544   6.462  11.696 -2.3662  0.2171  1.2918
 3538TIP3    H232106   5.558   6.330  11.769  1.4999 -0.1243  0.1572
 3539TIP3   OH232107   5.905   5.474  13.616  0.2377 -0.2582 -0.3462
 3539TIP3    H132108   5.951   5.396  13.647 -0.1797 -0.0889  0.7457
 3539TIP3    H232109   5.974   5.536  13.596  0.5158 -0.0610  1.1360
 3540TIP3   OH232110   4.177   1.634   3.617 -0.7137 -0.5251  0.0372
 3540TIP3    H132111   4.260   1.649   3.662 -0.4390 -1.0761 -0.2677
 3540TIP3    H232112   4.127   1.580   3.679 -0.9438  0.0162  0.3251
 3541TIP3   OH232113   6.705   3.807   0.457  0.0376 -0.2121 -0.1378
 3541TIP3    H132114   6.724   3.863   0.382 -1.6150 -0.0653 -0.4948
 3541TIP3    H232115   6.669   3.727   0.418 -0.5349 -0.2589  0.4617
 3542TIP3   OH232116   5.402   5.548   3.002 -0.4345  0.0765  0.1165
 3542TIP3    H132117   5.397   5.477   3.066  0.2525  0.6116  0.7926
 3542TIP3    H232118   5.493   5.550   2.975 -0.3287  1.0272  0.4991
 3543TIP3   OH232119   2.507   4.026  10.817 -0.6645 -0.1021  0.2723
 3543TIP3    H132120   2.522   4.102  10.874  0.5516  0.0420 -0.1976
 3543TIP3    H232121   2.450   4.059  10.747 -0.9553  0.1130  0.6103
 3544TIP3   OH232122   5.728   2.925   4.286 -0.0537  0.0756  0.0413
 3544TIP3    H132123   5.817   2.944   4.256  0.7331 -0.7531  1.7019
 3544TIP3    H232124   5.675   2.925   4.206  1.5526 -0.0836 -1.0691
 3545TIP3   OH232125   0.109   3.916  12.361 -0.2955  0.2320  0.4281
 3545TIP3    H132126   0.187   3.876  12.322  0.4152 -0.7844  2.7180
 3545TIP3    H232127   0.127   4.010  12.361  0.9018  0.0181  0.8274
 3546TIP3   OH232128   0.441   0.559  12.460 -0.3094  0.1955  0.0523
 3546TIP3    H132129   0.421   0.593  12.373  0.2527 -0.5929 -0.3958
 3546TIP3    H232130   0.444   0.636  12.516  0.3681  0.8249 -0.8306
 3547TIP3   OH232131   1.364   3.558   0.171  0.0181  0.1234  0.4910
 3547TIP3    H132132   1.288   3.566   0.113 -0.5987 -2.2437  0.8431
 3547TIP3    H232133   1.328   3.568   0.259  0.5092  1.1623  0.5809
 3548TIP3   OH232134   0.255   2.768   5.789  0.2323  0.8221 -0.6784
 3548TIP3    H132135   0.256   2.783   5.883  0.7037  0.9983 -0.7084
 3548TIP3    H232136   0.274   2.854   5.750  0.8443  0.5895 -0.9085
 3549TIP3   OH232137   2.449   3.810  14.338  0.3274  0.3268 -0.1129
 3549TIP3    H132138   2.521   3.765  14.381  1.3509  1.8282 -0.1493
 3549TIP3    H232139   2.378   3.810  14.402  0.3358 -1.1763 -0.0777
 3550TIP3   OH232140   5.434   5.622   5.185  0.1747 -0.4517 -0.1684
 3550TIP3    H132141   5.481   5.539   5.179  1.4456  0.3382 -2.8106
 3550TIP3    H232142   5.492   5.679   5.234  0.4237 -0.4574 -0.4505
 3551TIP3   OH232143   6.810   6.559   0.848 -0.9159 -0.0935 -0.3646
 3551TIP3    H132144   6.889   6.541   0.796 -0.5226  0.6849 -0.0630
 3551TIP3    H232145   6.768   6.632   0.801 -1.2076 -0.1971 -0.2634
 3552TIP3   OH232146   6.222   4.666   2.597  0.3633  0.0626 -0.4061
 3552TIP3    H132147   6.280   4.739   2.576  0.4144  0.2109  0.2259
 3552TIP3    H232148   6.198   4.680   2.689  0.2549 -0.6298 -0.3217
 3553TIP3   OH232149   6.549   4.952   3.960 -0.3416  0.2893  0.0170
 3553TIP3    H132150   6.613   5.017   3.991  0.0275 -0.3260  0.5996
 3553TIP3    H232151   6.468   5.001   3.947  0.5199  1.3077 -1.8124
 3554TIP3   OH232152   4.555   0.260  17.069  0.3739 -0.2595  0.0631
 3554TIP3    H132153   4.509   0.340  17.093  0.7556  0.4416 -1.3893
 3554TIP3    H232154   4.637   0.263  17.119  0.2302  0.0800  0.2798
 3555TIP3   OH232155   0.548   6.735   3.498  0.2900  0.2313 -0.3911
 3555TIP3    H132156   0.472   6.689   3.462  0.2757  0.0456 -0.1291
 3555TIP3    H232157   0.533   6.734   3.593  0.5569  0.3076 -0.3479
 3556TIP3   OH232158   3.429   1.304  13.952 -0.1391  0.2911  0.0805
 3556TIP3    H132159   3.493   1.351  14.004  0.5342 -0.8683  0.3383
 3556TIP3    H232160   3.345   1.344  13.975  0.4168  1.4547  0.1526
 3557TIP3   OH232161   4.586   4.212   0.109 -0.5471  0.4326 -0.3410
 3557TIP3    H132162   4.654   4.265   0.150 -0.1275  0.2605 -0.8089
 3557TIP3    H232163   4.521   4.198   0.179  0.2221  0.0338  0.3117
 3558TIP3   OH232164   1.582   0.369  14.051  0.1185  0.8121  0.7672
 3558TIP3    H132165   1.607   0.373  14.144  0.5652 -0.1654  0.7111
 3558TIP3    H232166   1.623   0.446  14.012  2.8809 -0.5319  0.7531
 3559TIP3   OH232167   2.250   0.051  14.033  0.1281 -0.1890 -0.2105
 3559TIP3    H132168   2.274  -0.037  14.062  1.9908  0.7893  1.4990
 3559TIP3    H232169   2.332   0.089  14.002 -0.0908  1.7226  1.3395
 3560TIP3   OH232170   5.948   4.942   4.040 -0.3789 -0.4670 -0.4335
 3560TIP3    H132171   5.916   5.033   4.044  1.2885  0.1496 -0.2278
 3560TIP3    H232172   5.886   4.892   4.092 -1.6092  0.4700 -0.9637
 3561TIP3   OH232173   3.030   1.907   4.729 -0.3047 -0.5555 -0.1279
 3561TIP3    H132174   2.995   1.962   4.799  1.0097 -0.7798  0.7448
 3561TIP3    H232175   3.087   1.965   4.679  1.3395 -1.1541  0.9872
 3562TIP3   OH232176   0.834   2.862  11.015  0.3051  0.2430 -0.4664
 3562TIP3    H132177   0.898   2.825  10.955 -0.3690 -1.1934 -0.3459
 3562TIP3    H232178   0.854   2.955  11.016  2.9437 -0.2485  0.2545
 3563TIP3   OH232179   3.600   1.535   2.249 -0.1832  0.2658 -0.1898
 3563TIP3    H132180   3.528   1.471   2.249 -0.9831  1.1232 -1.1925
 3563TIP3    H232181   3.654   1.511   2.324 -0.1869 -1.8807 -0.8066
 3564TIP3   OH232182   1.314   5.651  15.818  0.1668  0.5225 -0.5420
 3564TIP3    H132183   1.236   5.618  15.773 -0.5178  1.9717 -0.4710
 3564TIP3    H232184   1.313   5.607  15.903  0.0279 -0.2748 -0.9513
 3565TIP3   OH232185   4.719   0.074  15.842  0.0187  0.1364  0.5759
 3565TIP3    H132186   4.711   0.064  15.747 -3.0460 -1.5865  0.8803
 3565TIP3    H232187   4.775   0.001  15.869  0.5725  0.3976  0.1637
 3566TIP3   OH232188   2.191   1.161  12.574 -0.2338  0.3847  0.0014
 3566TIP3    H132189   2.170   1.091  12.636  0.1145  0.0470 -0.2549
 3566TIP3    H232190   2.220   1.234  12.628 -0.0107  0.1199  0.2425
 3567TIP3   OH232191   0.906   0.737   3.732 -0.0146 -0.0267 -0.1947
 3567TIP3    H132192   0.842   0.677   3.770  1.6179 -1.5875  0.2049
 3567TIP3    H232193   0.965   0.759   3.804  1.1130 -0.2780 -1.0123
 3568TIP3   OH232194   2.025   5.830  14.693 -0.3841 -0.4994 -0.0789
 3568TIP3    H132195   1.955   5.883  14.730  0.7859  0.5632  0.6882
 3568TIP3    H232196   2.068   5.887  14.629  1.2699 -0.2469  1.1750
 3569TIP3   OH232197   2.933   5.069  15.601 -0.6338  0.2215 -0.2678
 3569TIP3    H132198   3.015   5.061  15.650 -1.2159  0.1943  0.7325
 3569TIP3    H232199   2.928   5.162  15.577 -1.1041  0.5763  1.1216
 3570TIP3   OH232200   4.380   1.536   4.343 -0.1609 -0.7691  0.6337
 3570TIP3    H132201   4.404   1.454   4.386  0.3575 -0.6091  0.6584
 3570TIP3    H232202   4.400   1.604   4.408  0.5502 -0.5327  0.1861
 3571TIP3   OH232203   4.282   1.261   5.533 -0.3910 -0.1782 -0.2858
 3571TIP3    H132204   4.377   1.271   5.526 -0.3900 -0.8939 -1.6154
 3571TIP3    H232205   4.270   1.193   5.600 -0.0721  1.2714  1.3179
 3572TIP3   OH232206   0.022   6.709  14.271  0.3303  0.2792 -0.5256
 3572TIP3    H132207  -0.000   6.784  14.216 -0.9057  0.9552  0.8185
 3572TIP3    H232208  -0.055   6.697  14.327  0.8960 -1.3895 -0.0394
 3573TIP3   OH232209   5.612   1.630  13.730  0.0716 -0.8389 -0.3448
 3573TIP3    H132210   5.587   1.545  13.692 -1.6880  0.7425 -3.0824
 3573TIP3    H232211   5.706   1.637  13.713  0.2477 -2.2151 -0.0582
 3574TIP3   OH232212   5.283   5.306   5.036 -0.2378  0.4743 -0.1997
 3574TIP3    H132213   5.196   5.293   5.075 -0.2542 -0.2494 -0.4689
 3574TIP3    H232214   5.337   5.335   5.110 -0.1708 -1.2754  0.4739
 3575TIP3   OH232215   3.475   2.120  13.392 -0.6154  0.3171 -0.3351
 3575TIP3    H132216   3.396   2.114  13.446  0.2641  3.6512  1.5782
 3575TIP3    H232217   3.446   2.165  13.312 -1.1042 -0.7898 -0.7966
 3576TIP3   OH232218   4.071   2.403   4.175  0.3268 -0.4933 -0.3546
 3576TIP3    H132219   4.051   2.476   4.117 -0.9155 -1.3545 -1.0676
 3576TIP3    H232220   3.995   2.396   4.233 -0.4450 -2.3147 -1.5011
 3577TIP3   OH232221   3.638   4.584   6.647 -0.4220  0.1288  0.2610
 3577TIP3    H132222   3.656   4.668   6.688  0.2979  0.2628 -0.3095
 3577TIP3    H232223   3.721   4.537   6.650  0.2549  0.8996 -2.7427
 3578TIP3   OH232224   1.871   4.814  16.895  0.3617  0.1778 -0.2366
 3578TIP3    H132225   1.855   4.887  16.834  2.1113 -0.1050 -1.1078
 3578TIP3    H232226   1.964   4.820  16.916  0.1374 -0.7206  1.1595
 3579TIP3   OH232227   5.285   6.538   0.762  0.2351 -0.7563 -0.7994
 3579TIP3    H132228   5.301   6.627   0.795 -1.1242 -1.4031  1.8388
 3579TIP3    H232229   5.245   6.552   0.676 -0.9999  1.2308  0.0204
 3580TIP3   OH232230   2.036   0.808  15.735  0.1159 -0.3453 -0.8627
 3580TIP3    H132231   2.045   0.722  15.694  1.2352 -0.7086  0.0645
 3580TIP3    H232232   2.107   0.860  15.697  1.3393 -0.7717  0.7474
 3581TIP3   OH232233   3.654   2.370   5.785  0.0935  0.2489 -0.5902
 3581TIP3    H132234   3.602   2.291   5.775  1.6567 -0.5914 -2.8519
 3581TIP3    H232235   3.722   2.346   5.848 -0.1491  0.2051 -0.3428
 3582TIP3   OH232236   2.048   6.390   5.460 -0.3670  0.6234  0.0775
 3582TIP3    H132237   2.116   6.428   5.404  0.8966  0.0573  1.1707
 3582TIP3    H232238   2.070   6.419   5.548 -0.9525 -0.4022  0.5842
 3583TIP3   OH232239   1.332   1.868  14.893  0.6567  0.1966 -0.4077
 3583TIP3    H132240   1.328   1.964  14.897  0.2649  0.1874 -0.5812
 3583TIP3    H232241   1.375   1.842  14.974  0.0037  0.4679  0.0240
 3584TIP3   OH232242   5.108   2.684   1.635 -0.0719  0.3258  0.1281
 3584TIP3    H132243   5.135   2.593   1.640 -1.1621 -0.2442 -2.7160
 3584TIP3    H232244   5.013   2.681   1.619 -0.0067  1.9009 -0.8125
 3585TIP3   OH232245   5.773   6.090  14.497 -0.1622 -0.2820 -0.6968
 3585TIP3    H132246   5.682   6.097  14.524  0.1121  0.7808  0.0451
 3585TIP3    H232247   5.821   6.143  14.561  0.8909 -0.2306 -1.4972
 3586TIP3   OH232248   1.977   1.693  16.765 -0.2220  0.1454  0.0298
 3586TIP3    H132249   2.072   1.690  16.781  0.2525 -2.0670 -2.4818
 3586TIP3    H232250   1.940   1.633  16.830  0.2274  0.1012  0.2503
 3587TIP3   OH232251   5.045   4.303   3.987  0.5731 -0.2486 -0.5677
 3587TIP3    H132252   4.983   4.303   4.059  2.2467 -0.8038  0.9429
 3587TIP3    H232253   5.117   4.248   4.017  1.3549 -0.4572 -2.6535
 3588TIP3   OH232254   5.528   5.334   3.994  0.8682  1.1700 -0.7257
 3588TIP3    H132255   5.609   5.351   4.043  1.5799  0.0144 -1.4660
 3588TIP3    H232256   5.471   5.408   4.016  0.5880  0.0573  3.0068
 3589TIP3   OH232257   0.765   4.744  14.189 -0.0401  0.3118 -0.2558
 3589TIP3    H132258   0.770   4.839  14.193  1.6140  0.2265  0.9715
 3589TIP3    H232259   0.708   4.719  14.262  2.0663  0.2802  1.4748
 3590TIP3   OH232260   3.390   0.828  11.023 -0.2528  0.7459  0.7168
 3590TIP3    H132261   3.450   0.899  11.000 -2.0208  1.7569 -1.1903
 3590TIP3    H232262   3.445   0.749  11.023  1.0455  1.5404 -1.4268
 3591TIP3   OH232263   4.784   6.282   5.131  0.4034  0.0746 -0.1355
 3591TIP3    H132264   4.840   6.346   5.088 -0.1703 -0.0136 -1.0460
 3591TIP3    H232265   4.797   6.202   5.081 -0.7104  0.1183 -0.5189
 3592TIP3   OH232266   3.381   2.662   3.357  0.2957 -0.2449 -0.1704
 3592TIP3    H132267   3.355   2.606   3.284  2.2045  1.2434 -2.1646
 3592TIP3    H232268   3.451   2.717   3.320  0.1520  1.7829  2.3220
 3593TIP3   OH232269   0.630   0.053   3.887 -0.2163  0.0286  0.0843
 3593TIP3    H132270   0.697   0.080   3.824 -0.0494 -0.3507  0.1010
 3593TIP3    H232271   0.658   0.094   3.970  0.9120 -1.4719  0.4875
 3594TIP3   OH232272   1.497   5.523  11.887 -0.2619 -0.4542  0.1403
 3594TIP3    H132273   1.467   5.458  11.951  0.3391 -0.1828  0.7082
 3594TIP3    H232274   1.524   5.598  11.940  3.5793 -1.4929 -0.0924
 3595TIP3   OH232275   3.312   6.773  16.269  0.0362 -0.1733 -0.4365
 3595TIP3    H132276   3.377   6.830  16.310 -1.4401  1.7375 -0.6068
 3595TIP3    H232277   3.343   6.764  16.178 -0.0159  0.9168 -0.5829
 3596TIP3   OH232278   6.566   1.598   3.551 -0.2214 -0.4278 -0.0420
 3596TIP3    H132279   6.506   1.672   3.549 -1.3002 -1.2338  0.9176
 3596TIP3    H232280   6.553   1.559   3.638  0.1867 -1.8307 -0.5872
 3597TIP3   OH232281   3.392   1.410   0.578  0.0710 -0.1303  0.5065
 3597TIP3    H132282   3.311   1.439   0.620  0.5455 -1.0407  2.1006
 3597TIP3    H232283   3.370   1.325   0.540 -0.6166  1.0584 -2.0394
 3598TIP3   OH232284   1.265   6.781   4.225 -0.3071  0.0130 -0.3559
 3598TIP3    H132285   1.278   6.687   4.236  0.7370  0.0345 -1.2260
 3598TIP3    H232286   1.302   6.800   4.139  0.9665  1.4735  0.4715
 3599TIP3   OH232287   6.033   5.202  15.908 -0.0859 -0.3260  0.2769
 3599TIP3    H132288   6.091   5.139  15.949 -0.6877 -0.2701  1.2471
 3599TIP3    H232289   6.045   5.283  15.957 -0.9954 -0.3235  0.5273
 3600TIP3   OH232290   5.914   3.771  15.947 -0.2419 -0.7616  0.1082
 3600TIP3    H132291   5.850   3.706  15.917 -0.3153 -0.9152  0.5926
 3600TIP3    H232292   5.999   3.729  15.931 -0.2298 -0.3371 -1.0489
 3601TIP3   OH232293   1.438   4.564   5.616 -0.0349  0.6603 -0.4216
 3601TIP3    H132294   1.502   4.614   5.665 -0.0078  0.1618  0.0636
 3601TIP3    H232295   1.453   4.473   5.642  0.0458  0.3700 -1.4297
 3602TIP3   OH232296   3.778   4.337   0.821 -0.1408 -0.1974 -0.5587
 3602TIP3    H132297   3.832   4.414   0.804 -0.3272  0.0809  0.0841
 3602TIP3    H232298   3.817   4.268   0.768  0.2007  0.2697 -0.9187
 3603TIP3   OH232299   0.522   2.676  16.887  0.4208 -0.5544 -0.3009
 3603TIP3    H132300   0.518   2.634  16.801 -1.4486 -0.9540 -0.0576
 3603TIP3    H232301   0.590   2.628  16.935 -0.0306 -1.7359 -0.8247
 3604TIP3   OH232302   1.834   1.904  16.698 -0.3748  0.5754 -0.3616
 3604TIP3    H132303   1.860   1.824  16.744 -0.6584 -0.0298 -1.2317
 3604TIP3    H232304   1.739   1.907  16.709 -0.3836  0.6964 -0.4816
 3605TIP3   OH232305   4.525   1.385  13.774  0.2900  0.2465  0.2465
 3605TIP3    H132306   4.455   1.439  13.737  2.0409  1.5817 -1.3018
 3605TIP3    H232307   4.551   1.430  13.854  1.6467  1.7195 -0.9655
 3606TIP3   OH232308   0.851   2.065   6.004  0.5433 -0.3984  0.3806
 3606TIP3    H132309   0.800   2.071   5.923  1.8639  0.0803 -0.4610
 3606TIP3    H232310   0.832   1.978   6.038 -1.2045 -0.0481  0.3733
 3607TIP3   OH232311   6.815   4.618   5.178 -0.1836  0.0998 -0.3447
 3607TIP3    H132312   6.778   4.652   5.260 -0.8624  2.1076 -1.4455
 3607TIP3    H232313   6.783   4.528   5.174 -1.7891  0.5776  0.6467
 3608TIP3   OH232314   1.703   4.845  13.118 -0.3108 -0.6947 -0.5266
 3608TIP3    H132315   1.661   4.792  13.050 -1.4864 -0.9021  0.3365
 3608TIP3    H232316   1.631   4.877  13.172  0.5550  0.0083  0.2511
 3609TIP3   OH232317   1.673   1.813  17.027  0.6061  0.3313  0.1388
 3609TIP3    H132318   1.599   1.771  17.072  0.6621  0.2368  0.1440
 3609TIP3    H232319   1.743   1.815  17.093 -0.4413  3.5367  1.3043
 3610TIP3   OH232320   6.001   2.115  13.779 -0.0490  0.0353 -0.5574
 3610TIP3    H132321   5.942   2.047  13.811 -1.7665  2.0364  0.8378
 3610TIP3    H232322   5.945   2.172  13.726  1.1697  0.7726 -1.1121
 3611TIP3   OH232323   2.893   3.912   0.525 -0.0211 -0.0118 -0.0407
 3611TIP3    H132324   2.844   3.993   0.530  0.1396  0.1123 -0.4014
 3611TIP3    H232325   2.854   3.855   0.592 -3.1038 -1.2485 -2.6399
 3612TIP3   OH232326   2.510   2.157   4.255  0.1246  0.6872  0.1273
 3612TIP3    H132327   2.576   2.102   4.296 -0.0775  0.7166  0.4996
 3612TIP3    H232328   2.468   2.203   4.328 -1.3776 -0.5029  0.0527
 3613TIP3   OH232329   0.754   0.818  17.126 -0.5932  0.2243  0.1157
 3613TIP3    H132330   0.780   0.832  17.035 -2.5377  1.5760 -0.3004
 3613TIP3    H232331   0.686   0.751  17.122  0.8858 -1.3972  0.8791
 3614TIP3   OH232332   0.483   4.310  14.482 -0.3513  0.2929 -0.3237
 3614TIP3    H132333   0.392   4.290  14.507 -0.2045 -1.8754 -1.3348
 3614TIP3    H232334   0.519   4.354  14.559 -1.8840  0.0252  0.5986
 3615TIP3   OH232335   0.853   0.332   1.619 -0.6111  0.1172  0.0432
 3615TIP3    H132336   0.919   0.401   1.617 -0.4831  0.0496  1.3853
 3615TIP3    H232337   0.837   0.312   1.527 -0.3280  1.6277 -0.3638
 3616TIP3   OH232338   6.677   3.728  10.195 -0.3147 -0.3050  0.0925
 3616TIP3    H132339   6.631   3.698  10.117 -1.6466 -0.5223  0.9288
 3616TIP3    H232340   6.672   3.654  10.256  0.4107 -0.0184  0.5085
 3617TIP3   OH232341   4.230   1.894  14.182  0.0747  0.7801  0.6870
 3617TIP3    H132342   4.239   1.942  14.100  0.3590  1.3755  1.0640
 3617TIP3    H232343   4.136   1.877  14.189  0.1400 -0.0958 -0.2150
 3618TIP3   OH232344   3.497   2.581   2.521 -0.0917 -0.6540  0.4620
 3618TIP3    H132345   3.560   2.575   2.592  0.6867 -2.0248 -0.2984
 3618TIP3    H232346   3.411   2.584   2.564  0.3398 -1.8112  1.4446
 3619TIP3   OH232347   3.387   0.483  12.366 -0.1578  0.0254 -0.0659
 3619TIP3    H132348   3.352   0.544  12.430  2.4715  0.2974  1.2330
 3619TIP3    H232349   3.312   0.427  12.343 -1.2917  0.1473  2.9528
 3620TIP3   OH232350   2.781   3.744  11.032  0.2218 -0.0172  0.2494
 3620TIP3    H132351   2.858   3.792  11.001 -1.3338  1.8484 -0.9150
 3620TIP3    H232352   2.746   3.701  10.954 -1.0583  0.8655  0.3025
 3621TIP3   OH232353   3.194   4.992  13.835  0.5874 -0.6103 -0.1427
 3621TIP3    H132354   3.287   5.003  13.851  0.3708 -0.9555  1.5082
 3621TIP3    H232355   3.175   4.903  13.866 -0.8078  0.4391  2.2271
 3622TIP3   OH232356   0.379   5.170  13.646  0.6800 -0.4199 -0.2622
 3622TIP3    H132357   0.470   5.193  13.661  0.8176 -0.0242 -1.5901
 3622TIP3    H232358   0.334   5.254  13.633  0.1589 -0.6191  0.2050
 3623TIP3   OH232359   6.192   2.183  17.164  0.4718 -0.7972 -0.1947
 3623TIP3    H132360   6.121   2.118  17.169 -0.1020 -0.1288  1.0141
 3623TIP3    H232361   6.159   2.257  17.216  2.2138 -0.6255  0.7433
 3624TIP3   OH232362   1.721   0.413   4.236 -0.4941  0.2181  0.1037
 3624TIP3    H132363   1.681   0.327   4.238 -0.6525  0.3012  0.6321
 3624TIP3    H232364   1.676   0.462   4.305  1.5151 -0.1380  1.7585
 3625TIP3   OH232365   0.896   3.756  14.167  0.0068  0.1917 -0.4393
 3625TIP3    H132366   0.984   3.723  14.185  0.8927  2.7396  0.3567
 3625TIP3    H232367   0.911   3.839  14.122 -2.0358  0.2344 -1.1409
 3626TIP3   OH232368   2.520   6.458  12.212 -0.3958  0.2982  0.7592
 3626TIP3    H132369   2.463   6.513  12.158  1.5984  0.1538 -1.6871
 3626TIP3    H232370   2.478   6.372  12.210 -1.1751  0.6685  0.7810
 3627TIP3   OH232371   6.242   4.481  11.550 -0.0373  0.3064 -0.4704
 3627TIP3    H132372   6.238   4.425  11.472 -0.3337  2.0419 -1.7517
 3627TIP3    H232373   6.335   4.488  11.570 -0.0726 -2.7197  1.3463
 3628TIP3   OH232374   4.948   1.868   5.943 -0.0018 -0.2071 -0.4680
 3628TIP3    H132375   4.945   1.912   6.028 -0.4116 -0.6061 -0.2692
 3628TIP3    H232376   4.926   1.777   5.963 -1.0865 -0.0988 -1.1398
 3629TIP3   OH232377   5.851   3.668  14.077 -0.0717 -0.2727  0.0211
 3629TIP3    H132378   5.892   3.732  14.020  0.4376  0.3073  1.0113
 3629TIP3    H232379   5.903   3.588  14.066  2.1186  0.7537  2.0909
 3630TIP3   OH232380   4.239   4.118   2.198 -0.0022 -0.1428 -0.0295
 3630TIP3    H132381   4.331   4.094   2.209  1.0584  2.7897 -1.2151
 3630TIP3    H232382   4.207   4.132   2.287  0.6763 -1.2315  0.4009
 3631TIP3   OH232383   1.445   5.022   3.033  0.2532  0.1045 -0.3409
 3631TIP3    H132384   1.447   5.085   3.105  0.4288 -1.6175  1.2214
 3631TIP3    H232385   1.525   4.970   3.044 -0.6709 -1.4246 -0.6182
 3632TIP3   OH232386   2.163   5.130   1.614 -0.3616 -0.0058 -0.1266
 3632TIP3    H132387   2.073   5.105   1.594 -0.5230  0.0330  0.5369
 3632TIP3    H232388   2.197   5.058   1.668  0.3350 -0.5051 -1.2032
 3633TIP3   OH232389   4.311   1.856  16.312 -0.9621  0.1657 -0.3692
 3633TIP3    H132390   4.272   1.769  16.322 -0.5365 -0.0497 -0.5471
 3633TIP3    H232391   4.278   1.906  16.386  0.7800 -0.8763  1.1831
 3634TIP3   OH232392   5.891   4.800  14.312 -0.3019  0.0306  0.2908
 3634TIP3    H132393   5.899   4.834  14.222 -0.0270 -2.5336 -0.7322
 3634TIP3    H232394   5.820   4.851  14.350  1.7260  3.5913 -0.1283
 3635TIP3   OH232395   5.752   2.064  13.614 -0.0833  0.2361 -0.0459
 3635TIP3    H132396   5.819   2.004  13.583 -0.4539 -1.0695  1.4824
 3635TIP3    H232397   5.678   2.007  13.636 -1.3002  1.5135 -0.6436
 3636TIP3   OH232398   4.302   4.976  13.469 -0.0474 -0.7586  0.0406
 3636TIP3    H132399   4.218   4.936  13.490 -0.8483  1.7209  2.0688
 3636TIP3    H232400   4.302   4.985  13.374 -2.5524  0.0875  0.0619
 3637TIP3   OH232401   1.739   3.669   3.240 -0.1755 -0.5761  0.3383
 3637TIP3    H132402   1.771   3.666   3.330 -0.8981 -0.2988  0.6076
 3637TIP3    H232403   1.668   3.733   3.242 -0.1770 -0.5448 -0.4363
 3638TIP3   OH232404   4.049   1.259  12.185  0.3813 -0.3204  0.3802
 3638TIP3    H132405   3.990   1.329  12.212 -0.0406 -0.8456  0.8415
 3638TIP3    H232406   4.126   1.270  12.241 -0.2483 -1.0491  1.4153
 3639TIP3   OH232407   0.525   0.302  12.535  0.3584 -0.5398 -0.0583
 3639TIP3    H132408   0.446   0.247  12.541 -0.6797  0.8574 -0.3598
 3639TIP3    H232409   0.493   0.386  12.503  1.9382  0.1812  0.1716
 3640TIP3   OH232410   6.692   1.805  15.534  0.2515 -0.6228 -0.3675
 3640TIP3    H132411   6.638   1.728  15.513 -0.5297 -0.8328  2.1346
 3640TIP3    H232412   6.679   1.819  15.628  0.0917  2.7878 -0.7710
 3641TIP3   OH232413   4.018   5.949  11.947 -0.5738  0.2839  0.0508
 3641TIP3    H132414   4.104   5.914  11.970 -0.0437 -0.2545 -2.4418
 3641TIP3    H232415   4.036   6.035  11.910 -1.0789  0.0925 -0.6588
 3642TIP3   OH232416   4.549   0.719  13.020  0.8000  0.2677  0.0479
 3642TIP3    H132417   4.604   0.789  12.985 -0.0890 -0.0062 -2.0724
 3642TIP3    H232418   4.611   0.656  13.057  1.6764  1.5676  0.8704
 3643TIP3   OH232419   4.332   5.906  12.888  0.0672  0.6774 -0.0630
 3643TIP3    H132420   4.329   6.002  12.893 -0.7039  0.6776 -0.4158
 3643TIP3    H232421   4.425   5.886  12.876  0.0479  1.4751 -1.7512
 3644TIP3   OH232422   4.169   1.888   4.590  0.3430  0.2476  0.4759
 3644TIP3    H132423   4.136   1.863   4.677  0.9912  0.2978  0.7382
 3644TIP3    H232424   4.106   1.849   4.529  0.1636 -0.2156  0.9484
 3645TIP3   OH232425   0.120   3.785   4.417  0.1724 -0.2632  0.4641
 3645TIP3    H132426   0.042   3.790   4.361 -0.8705  0.3914  1.9019
 3645TIP3    H232427   0.149   3.694   4.409 -0.6578 -0.4836 -0.2089
 3646TIP3   OH232428   0.491   5.870   4.581  0.1583 -0.4274 -0.1469
 3646TIP3    H132429   0.564   5.926   4.553 -0.4744 -0.0909 -1.1594
 3646TIP3    H232430   0.506   5.787   4.534 -1.4126  0.4419 -2.3326
 3647TIP3   OH232431   1.550   1.064   0.600  0.0351 -0.0785 -0.4199
 3647TIP3    H132432   1.639   1.075   0.633 -0.9183  0.5598  2.2281
 3647TIP3    H232433   1.495   1.105   0.667 -2.3299 -1.5587 -1.3342
 3648TIP3   OH232434   4.245   3.159  13.693  0.1259 -0.2476 -0.3935
 3648TIP3    H132435   4.301   3.193  13.624  0.1407  0.8855  0.1459
 3648TIP3    H232436   4.304   3.143  13.767 -0.3146  1.8071  0.4866
 3649TIP3   OH232437   3.291   3.335  12.082 -0.1137  0.1287 -0.6807
 3649TIP3    H132438   3.210   3.287  12.102  0.3644 -0.0282  1.0869
 3649TIP3    H232439   3.357   3.266  12.070  0.4078  0.2535  1.1041
 3650TIP3   OH232440   2.872   4.553  15.991 -0.0495 -0.0913 -0.0924
 3650TIP3    H132441   2.913   4.624  15.941  0.4903  2.1915  3.2264
 3650TIP3    H232442   2.945   4.502  16.025 -0.3117 -0.5381 -0.1967
 3651TIP3   OH232443   1.070   1.324  15.046  0.5280  0.0005 -0.3891
 3651TIP3    H132444   1.112   1.384  15.107  1.2223 -0.4814 -0.3728
 3651TIP3    H232445   1.086   1.362  14.960 -0.7967  0.8880 -0.2587
 3652TIP3   OH232446   6.655   2.419  16.223 -0.9329  0.2433  0.6761
 3652TIP3    H132447   6.621   2.480  16.157  0.1694  0.4837  0.3124
 3652TIP3    H232448   6.745   2.448  16.239  0.5549 -2.6729 -1.3372
 3653TIP3   OH232449   0.950   1.127   2.230  0.0636  0.0774  0.0678
 3653TIP3    H132450   0.868   1.145   2.184  0.4876 -0.1751 -0.8228
 3653TIP3    H232451   0.923   1.105   2.319 -0.6979  1.6758  0.2578
 3654TIP3   OH232452   3.560   6.582   5.687 -0.2143  0.1319 -0.3613
 3654TIP3    H132453   3.499   6.636   5.737  0.0760 -0.3382  0.5099
 3654TIP3    H232454   3.524   6.494   5.693  1.6818 -0.5846  2.0951
 3655TIP3   OH232455   0.447   4.681   0.642 -0.8229 -0.5987  0.0678
 3655TIP3    H132456   0.428   4.722   0.558 -1.0991 -1.0745 -0.1078
 3655TIP3    H232457   0.540   4.658   0.637 -0.8635 -0.7163 -0.1473
 3656TIP3   OH232458   0.732   6.099   1.357 -0.1355  0.0449  0.2510
 3656TIP3    H132459   0.669   6.028   1.362 -1.5044  1.0925 -1.0069
 3656TIP3    H232460   0.786   6.089   1.435 -0.9381 -1.7444  0.6282
 3657TIP3   OH232461   0.212   1.158   4.532  0.1962 -0.5644 -0.1009
 3657TIP3    H132462   0.151   1.098   4.489  0.5958 -0.5307 -0.7181
 3657TIP3    H232463   0.292   1.152   4.480  0.2282  0.5316 -0.1962
 3658TIP3   OH232464   1.291   2.361   2.384  0.9783 -0.0012 -0.3339
 3658TIP3    H132465   1.205   2.349   2.343  1.4681 -0.3106 -1.3106
 3658TIP3    H232466   1.272   2.375   2.477 -0.0743 -0.8524 -0.4086
 3659TIP3   OH232467   5.953   2.424  13.045  0.0073  0.0725  0.4258
 3659TIP3    H132468   5.943   2.354  13.111 -0.6105  0.6744  0.9912
 3659TIP3    H232469   6.047   2.441  13.043  0.0714 -0.1768  0.9231
 3660TIP3   OH232470   6.097   0.688   0.712  0.5056 -0.3327 -0.3988
 3660TIP3    H132471   6.046   0.684   0.793  1.2999 -0.5108  0.1042
 3660TIP3    H232472   6.076   0.773   0.675  0.3789 -0.1134  0.1641
 3661TIP3   OH232473   2.679   6.625  11.103  0.0133  0.3562 -0.1449
 3661TIP3    H132474   2.732   6.630  11.182  0.5609  2.3165 -0.5783
 3661TIP3    H232475   2.740   6.642  11.031 -0.6202 -0.5713 -0.9312
 3662TIP3   OH232476   2.480   1.905  12.011 -0.0106  0.4758  0.2733
 3662TIP3    H132477   2.390   1.874  12.002 -0.1640  0.1744  2.3438
 3662TIP3    H232478   2.519   1.849  12.077  2.4905 -0.9056 -2.1338
 3663TIP3   OH232479   5.291   3.912  13.408 -0.1511  0.0061 -0.5552
 3663TIP3    H132480   5.251   3.851  13.470 -0.9687  1.8392  0.8066
 3663TIP3    H232481   5.365   3.863  13.370  0.5121 -1.1317  2.0047
 3664TIP3   OH232482   0.537   5.911  16.671  0.2450 -0.8210 -0.5669
 3664TIP3    H132483   0.479   5.846  16.631 -0.7184 -0.1135 -0.3684
 3664TIP3    H232484   0.479   5.964  16.725  0.9781  0.3039 -0.8561
 3665TIP3   OH232485   6.240   2.475   3.977  0.3554  0.5135 -0.0005
 3665TIP3    H132486   6.231   2.380   3.968 -0.5053  0.6712 -0.9298
 3665TIP3    H232487   6.246   2.489   4.072 -0.5107 -0.3847  0.2032
 3666TIP3   OH232488   0.256   2.159  12.173  0.1791 -0.2828  0.1958
 3666TIP3    H132489   0.241   2.240  12.221 -0.6843 -1.2751  1.6842
 3666TIP3    H232490   0.206   2.093  12.221 -0.0877 -1.4958 -1.6361
 3667TIP3   OH232491   5.840   3.171  11.594 -0.2644  0.3541  0.3583
 3667TIP3    H132492   5.821   3.082  11.621 -0.6910  0.0074 -0.9897
 3667TIP3    H232493   5.907   3.162  11.526  0.5758  1.1553  1.0493
 3668TIP3   OH232494   6.435   5.047   5.102  0.1039 -0.1121  0.2241
 3668TIP3    H132495   6.409   4.994   5.177 -0.5248  0.0118  0.1047
 3668TIP3    H232496   6.410   5.136   5.126 -0.7018 -0.1603 -0.3819
 3669TIP3   OH232497   0.085   0.060   1.011  0.5592  0.2251  0.2805
 3669TIP3    H132498   0.075   0.132   0.949 -0.0396  0.8132  1.0425
 3669TIP3    H232499  -0.003   0.044   1.044  0.6816 -0.8697  0.1234
 3670TIP3   OH232500   6.536   5.930   1.580 -0.0045 -0.0833 -0.5669
 3670TIP3    H132501   6.453   5.974   1.565  0.1058  0.9411  1.4355
 3670TIP3    H232502   6.602   5.993   1.552  0.1584  1.2825  2.4310
 3671TIP3   OH232503   5.463   0.825  13.049  0.1051 -0.1738 -0.1804
 3671TIP3    H132504   5.553   0.855  13.036  0.0970 -0.0612  0.0039
 3671TIP3    H232505   5.429   0.884  13.117 -0.5788  0.7374 -1.2852
 3672TIP3   OH232506   6.041   0.885   3.651  0.4962 -0.4752  0.7009
 3672TIP3    H132507   6.015   0.829   3.578  0.9012 -1.4263  1.2529
 3672TIP3    H232508   6.005   0.840   3.728  0.7491  0.0781  1.1461
 3673TIP3   OH232509   5.724   5.927  10.994 -0.0471 -0.0717 -0.3849
 3673TIP3    H132510   5.743   6.021  11.000  1.3222 -0.3471 -0.0572
 3673TIP3    H232511   5.629   5.922  10.988 -0.2483  1.2729  1.1015
 3674TIP3   OH232512   5.871   0.791   2.137  0.4596  0.6524  0.2924
 3674TIP3    H132513   5.914   0.707   2.120  0.3964  0.1902  2.2140
 3674TIP3    H232514   5.906   0.850   2.070  0.6413 -0.8430 -0.9780
 3675TIP3   OH232515   2.727   3.508   5.848 -0.2030 -0.6865 -0.2443
 3675TIP3    H132516   2.663   3.552   5.904  2.7264 -0.4148  3.3345
 3675TIP3    H232517   2.709   3.541   5.760 -2.4256  2.4042  1.1672
 3676TIP3   OH232518   3.954   0.327  14.658 -0.3571  0.1829 -0.0312
 3676TIP3    H132519   3.875   0.379  14.642 -0.3583  0.5335  0.9878
 3676TIP3    H232520   4.025   0.378  14.618 -0.1260  1.8274  2.2476
 3677TIP3   OH232521   3.828   2.441  10.988  0.4678 -0.0730  0.9194
 3677TIP3    H132522   3.845   2.374  10.922  0.6622  1.2791 -0.4621
 3677TIP3    H232523   3.733   2.448  10.991  0.4349 -0.6387  1.3199
 3678TIP3   OH232524   5.983   5.814   2.252 -0.6152  0.4929  0.7380
 3678TIP3    H132525   6.036   5.814   2.172 -1.1717 -1.4857  0.2985
 3678TIP3    H232526   5.939   5.899   2.252  0.5258  1.1224 -0.2699
 3679TIP3   OH232527   1.292   1.138  11.099  0.6140  0.1896 -0.0597
 3679TIP3    H132528   1.239   1.063  11.072 -0.4658  1.3559 -1.3007
 3679TIP3    H232529   1.371   1.133  11.045 -0.3901  1.0764 -1.6540
 3680TIP3   OH232530   3.020   0.040   2.817 -0.2090  0.3327 -0.3347
 3680TIP3    H132531   2.985  -0.041   2.780  1.1708 -0.0144 -0.9492
 3680TIP3    H232532   3.086   0.068   2.754  0.9134  0.7117  0.9733
 3681TIP3   OH232533   4.201   5.108   1.493 -0.1742  0.0915 -0.1398
 3681TIP3    H132534   4.248   5.062   1.562 -0.4010 -1.3566 -0.8993
 3681TIP3    H232535   4.256   5.183   1.473 -0.0608  0.4882  1.5262
 3682TIP3   OH232536   3.256   6.058   4.902  0.0534  0.1355 -0.8472
 3682TIP3    H132537   3.284   6.082   4.813  1.0744  1.9008 -0.0940
 3682TIP3    H232538   3.218   6.139   4.937  2.6587  0.4812  1.4430
 3683TIP3   OH232539   2.341   1.248   2.097  0.2760  0.1151 -0.2737
 3683TIP3    H132540   2.352   1.196   2.017 -0.4667  0.1116 -0.3830
 3683TIP3    H232541   2.250   1.233   2.122  0.4033  0.4066  0.3731
 3684TIP3   OH232542   4.250   6.011  14.145  0.0943 -0.0089  0.3343
 3684TIP3    H132543   4.292   6.057  14.218  0.1355 -0.6152  0.7031
 3684TIP3    H232544   4.244   5.920  14.175  1.5510 -0.5984 -1.0388
 3685TIP3   OH232545   2.714   1.154   1.194  0.1874 -0.0604  0.2087
 3685TIP3    H132546   2.805   1.122   1.200  0.5394  1.0637  1.1929
 3685TIP3    H232547   2.662   1.083   1.230  0.7673 -0.3298  0.5372
 3686TIP3   OH232548   5.683   5.015   4.453  0.0292 -0.0446  0.8420
 3686TIP3    H132549   5.683   4.995   4.546 -0.8653 -0.6280  0.7376
 3686TIP3    H232550   5.628   4.946   4.414  0.5047  0.0993 -0.1324
 3687TIP3   OH232551   4.217   1.234   3.938  0.1485 -0.1461  0.3165
 3687TIP3    H132552   4.202   1.180   3.860  0.6358 -0.6754  0.5887
 3687TIP3    H232553   4.151   1.204   4.000  0.0610 -0.0414  0.2752
 3688TIP3   OH232554   2.762   1.274  13.661 -0.2946  0.2890  0.5242
 3688TIP3    H132555   2.848   1.232  13.656  1.2168  3.1069  0.7859
 3688TIP3    H232556   2.758   1.310  13.749 -1.0090  1.6048 -0.0221
 3689TIP3   OH232557   1.466   1.509  16.940  0.5661  0.3760 -0.2791
 3689TIP3    H132558   1.557   1.479  16.940  0.7164  0.7796  1.1364
 3689TIP3    H232559   1.427   1.469  16.862  1.6091 -0.8482 -0.1898
 3690TIP3   OH232560   1.666   5.065   2.619 -0.1316 -1.2104  0.2325
 3690TIP3    H132561   1.698   4.993   2.564  3.9471 -1.0154  1.9671
 3690TIP3    H232562   1.711   5.143   2.585 -2.2513  0.0509  0.1685
 3691TIP3   OH232563   3.452   0.504   5.971  0.6345  0.6175  0.7800
 3691TIP3    H132564   3.401   0.458   5.905  0.7135  3.3442 -1.3863
 3691TIP3    H232565   3.418   0.474   6.055 -1.1408 -1.2216 -0.5296
 3692TIP3   OH232566   4.964   6.460   6.420  0.0363 -0.2003 -0.3191
 3692TIP3    H132567   4.904   6.454   6.494 -1.5200  1.1605 -1.3975
 3692TIP3    H232568   5.007   6.546   6.432 -0.4789  0.1800 -1.1638
 3693TIP3   OH232569   6.813   2.279   2.290 -0.2856 -0.1274 -0.1538
 3693TIP3    H132570   6.802   2.187   2.313 -0.5881 -0.4699 -1.5337
 3693TIP3    H232571   6.726   2.306   2.258 -0.5203  0.9894  1.3491
 3694TIP3   OH232572   2.113   6.311   4.499 -0.4765 -0.2037  0.3666
 3694TIP3    H132573   2.198   6.352   4.518 -0.9502  1.1913 -0.3970
 3694TIP3    H232574   2.068   6.311   4.583  0.2951 -1.0318  0.8003
 3695TIP3   OH232575   5.321   3.866  12.720  0.4251  0.2913 -0.1208
 3695TIP3    H132576   5.388   3.930  12.695 -1.4674  1.8061 -1.6916
 3695TIP3    H232577   5.239   3.903  12.687 -1.0660 -1.9889  0.7525
 3696TIP3   OH232578   2.351   3.137  10.596 -0.3439 -0.0255 -0.1872
 3696TIP3    H132579   2.431   3.189  10.588 -0.0925 -0.4413 -0.4869
 3696TIP3    H232580   2.290   3.177  10.535  0.8096 -1.7903 -2.6890
 3697TIP3   OH232581   4.889   5.822   3.106  0.1623  0.0418 -0.4988
 3697TIP3    H132582   4.944   5.828   3.184  0.1367 -1.2301 -0.3581
 3697TIP3    H232583   4.894   5.909   3.066 -0.9662  1.2029  1.6711
 3698TIP3   OH232584   5.178   6.576  11.381 -0.1169  0.1690 -0.1212
 3698TIP3    H132585   5.103   6.635  11.394 -0.1380  0.7779 -2.6567
 3698TIP3    H232586   5.255   6.630  11.399 -0.1917  0.5689 -0.9528
 3699TIP3   OH232587   4.164   1.827  13.593  0.0828  0.1684 -0.0429
 3699TIP3    H132588   4.103   1.821  13.520  0.7399 -0.3470 -0.5639
 3699TIP3    H232589   4.246   1.858  13.554  0.3523  0.1988  0.5270
 3700TIP3   OH232590   6.232   4.837   5.750  0.2013  0.1844  0.7513
 3700TIP3    H132591   6.248   4.809   5.840  2.5129 -0.3022  0.2458
 3700TIP3    H232592   6.183   4.918   5.758  0.5813  0.2780  2.4487
 3701TIP3   OH232593   3.843   0.370  13.283  0.1294  0.2614  0.6315
 3701TIP3    H132594   3.824   0.464  13.277  1.0445  0.4297  0.2428
 3701TIP3    H232595   3.868   0.345  13.194  1.3137 -0.0290  1.0320
 3702TIP3   OH232596   3.502   3.803  15.015  0.4330 -0.3589  0.5266
 3702TIP3    H132597   3.558   3.772  14.944  0.2471 -1.1388  0.7087
 3702TIP3    H232598   3.494   3.727  15.073  1.2135  0.5050  1.7815
 3703TIP3   OH232599   1.845   1.478   0.944  0.2120  0.6011  0.2987
 3703TIP3    H132600   1.770   1.470   1.003 -1.0133  0.5682 -1.2067
 3703TIP3    H232601   1.900   1.403   0.965 -0.1860  0.5877  1.3791
 3704TIP3   OH232602   1.358   4.551   3.213  0.0747  0.4405 -0.1755
 3704TIP3    H132603   1.327   4.486   3.149  0.6983 -0.1915  0.1518
 3704TIP3    H232604   1.293   4.621   3.209 -0.5917 -0.1809 -0.5781
 3705TIP3   OH232605   2.942   6.536   2.417  0.3696  0.4731  0.4302
 3705TIP3    H132606   2.967   6.476   2.346 -0.3229  0.6033  0.0665
 3705TIP3    H232607   2.997   6.613   2.402  0.4687  0.3655  0.2282
 3706TIP3   OH232608   1.628   3.497  12.365 -0.3113 -0.3938  0.2023
 3706TIP3    H132609   1.579   3.568  12.323  0.4813  0.1127  0.1021
 3706TIP3    H232610   1.711   3.495  12.318  0.5264  0.0501  1.6012
 3707TIP3   OH232611   2.536   1.467   2.100  0.2092 -0.0837 -0.2477
 3707TIP3    H132612   2.485   1.396   2.139 -0.7232  1.7048  2.0133
 3707TIP3    H232613   2.474   1.515   2.046  0.7534 -0.7472 -1.4944
 3708TIP3   OH232614   0.624   4.527   4.422  0.3731  0.0855  0.3701
 3708TIP3    H132615   0.650   4.483   4.503 -0.2768  0.1166  0.5974
 3708TIP3    H232616   0.707   4.550   4.380  0.7192 -0.9736  0.4526
 3709TIP3   OH232617   2.464   5.355   5.643 -0.7022 -0.4983  0.3073
 3709TIP3    H132618   2.487   5.438   5.603 -1.1741 -0.2541  0.5381
 3709TIP3    H232619   2.503   5.359   5.731  0.3659 -1.0487 -0.1142
 3710TIP3   OH232620   2.283   4.644  12.147  0.3192  0.2921 -0.1462
 3710TIP3    H132621   2.293   4.574  12.212 -0.7057 -0.5782 -0.8833
 3710TIP3    H232622   2.292   4.725  12.197  0.7982 -0.3629  0.8604
 3711TIP3   OH232623   6.385   2.851   2.026  0.0412 -0.0607 -0.2624
 3711TIP3    H132624   6.412   2.813   1.942  1.3490  0.0986  0.0591
 3711TIP3    H232625   6.382   2.945   2.010 -1.6647 -0.1499 -0.6393
 3712TIP3   OH232626   4.729   0.400  13.009  0.1504 -0.1493  0.4129
 3712TIP3    H132627   4.680   0.327  13.048  1.4526  0.3046  3.1057
 3712TIP3    H232628   4.757   0.453  13.083  3.3605  0.4853 -1.0677
 3713TIP3   OH232629   6.766   5.974   0.110  0.2505 -0.1661 -0.2090
 3713TIP3    H132630   6.737   5.977   0.201  1.0714  0.5548  0.0387
 3713TIP3    H232631   6.861   5.966   0.115  0.2151 -1.4660 -1.0081
 3714TIP3   OH232632   0.425   2.522   6.318 -0.4172 -0.7373 -0.2835
 3714TIP3    H132633   0.339   2.547   6.285  0.7194  2.0838 -1.4323
 3714TIP3    H232634   0.440   2.581   6.392  0.4950 -1.2349 -0.0566
 3715TIP3   OH232635   5.047   0.631  11.752 -0.2995 -0.3262  0.2432
 3715TIP3    H132636   4.964   0.635  11.705 -0.9177  0.6775  1.3503
 3715TIP3    H232637   5.101   0.699  11.711 -0.2343 -0.5909 -0.1070
 3716TIP3   OH232638   0.720   5.534   3.793 -0.0645  0.0607 -0.8200
 3716TIP3    H132639   0.784   5.587   3.745 -0.7637  1.0300 -0.7141
 3716TIP3    H232640   0.687   5.472   3.729  0.5597 -0.0709 -1.0230
 3717TIP3   OH232641   1.116   0.189   6.051  0.2763  0.7528  0.5659
 3717TIP3    H132642   1.056   0.125   6.089  0.3720  0.3102 -0.0247
 3717TIP3    H232643   1.106   0.266   6.107  0.5479  0.0582  1.6103
 3718TIP3   OH232644   6.611   4.514   6.455 -0.2127  0.0450 -0.1211
 3718TIP3    H132645   6.635   4.553   6.371  1.5677 -0.3818  0.1424
 3718TIP3    H232646   6.524   4.549   6.474  0.3592  2.0747 -0.9652
 3719TIP3   OH232647   5.263   2.804   3.957 -0.4425 -0.1477 -0.6465
 3719TIP3    H132648   5.237   2.744   4.026 -3.0208  2.2998  0.6834
 3719TIP3    H232649   5.240   2.758   3.876  1.4990 -2.5437  0.0116
 3720TIP3   OH232650   3.053   2.263   0.376  0.4371 -0.1984 -0.0246
 3720TIP3    H132651   2.970   2.218   0.358  0.0397  0.0031  1.1996
 3720TIP3    H232652   3.057   2.332   0.311  0.0463 -0.7226 -0.6233
 3721TIP3   OH232653   5.973   0.516   2.095 -0.2745 -0.2466  0.5537
 3721TIP3    H132654   5.953   0.467   2.175  0.0218 -1.6273 -0.1887
 3721TIP3    H232655   6.066   0.499   2.079  0.0362  1.1872  0.6772
 3722TIP3   OH232656   6.675   0.320   2.015  0.9077  0.6189  0.1612
 3722TIP3    H132657   6.588   0.332   1.977  1.0492  0.6799 -0.1532
 3722TIP3    H232658   6.666   0.245   2.073  0.6450  0.6242  0.1289
 3723TIP3   OH232659   5.501   4.309   1.729 -0.1558  0.2937  0.6170
 3723TIP3    H132660   5.543   4.341   1.649 -1.6994  1.1292  0.1071
 3723TIP3    H232661   5.527   4.370   1.797 -1.4833  1.5552  0.0488
 3724TIP3   OH232662   3.490   4.486  11.515  0.1542  0.4143  0.7072
 3724TIP3    H132663   3.403   4.448  11.528 -0.1386  0.4852 -0.8141
 3724TIP3    H232664   3.549   4.427  11.561 -0.2400 -2.2267 -1.8917
 3725TIP3   OH232665   1.795   1.123   0.777  0.7190 -0.5367  0.5307
 3725TIP3    H132666   1.847   1.046   0.752  1.2258 -0.0459  0.0678
 3725TIP3    H232667   1.789   1.118   0.873  1.6192 -0.5964  0.5883
 3726TIP3   OH232668   6.585   5.036   3.597 -0.4823 -0.2499 -0.0211
 3726TIP3    H132669   6.599   5.050   3.503  1.1315 -0.4971  0.1545
 3726TIP3    H232670   6.673   5.035   3.635 -1.0917 -0.3658  1.4762
 3727TIP3   OH232671   1.439   1.895  15.382 -0.1567 -0.4679  0.5284
 3727TIP3    H132672   1.473   1.944  15.456  1.5808 -0.2247 -0.3711
 3727TIP3    H232673   1.442   1.803  15.410  1.1104 -0.4374  0.5697
 3728TIP3   OH232674   2.934   4.466   0.645 -0.0471  0.1290  0.0010
 3728TIP3    H132675   2.987   4.417   0.707  1.5506  0.2509 -1.1999
 3728TIP3    H232676   2.987   4.542   0.622 -0.6397  0.1622 -1.4087
 3729TIP3   OH232677   2.939   4.109  15.868 -0.1734  0.8129  0.4327
 3729TIP3    H132678   2.985   4.123  15.951  1.0873  1.2251 -0.3220
 3729TIP3    H232679   2.978   4.029  15.833 -2.0012 -0.4385  1.0796
 3730TIP3   OH232680   0.202   3.650   0.073 -0.0375 -0.1381  0.0557
 3730TIP3    H132681   0.191   3.712   0.001 -0.0496 -0.5254 -0.2753
 3730TIP3    H232682   0.235   3.704   0.146 -2.5299  0.7566  0.6042
 3731TIP3   OH232683   2.811   5.565   5.518 -0.2208  0.0285  0.0471
 3731TIP3    H132684   2.897   5.606   5.521  0.0709 -0.6055  0.5017
 3731TIP3    H232685   2.811   5.502   5.590 -0.5436 -0.9689 -0.7962
 3732TIP3   OH232686   1.520   3.959  13.934  0.4793 -0.2721  0.8027
 3732TIP3    H132687   1.529   4.051  13.958  1.8716 -0.2823  0.4201
 3732TIP3    H232688   1.461   3.922  14.000 -0.5591  1.0024  0.6267
 3733TIP3   OH232689   3.333   3.181  13.488 -0.1494 -0.0883 -0.5479
 3733TIP3    H132690   3.388   3.107  13.512 -0.2299  0.0537  0.0964
 3733TIP3    H232691   3.314   3.168  13.395 -0.4137 -1.0329 -0.3743
 3734TIP3   OH232692   6.269   0.356   4.532  0.0091  0.1086 -0.3191
 3734TIP3    H132693   6.271   0.347   4.437  2.1018  1.8425 -0.5232
 3734TIP3    H232694   6.238   0.271   4.564  0.5715 -0.9900 -2.4907
 3735TIP3   OH232695   5.425   0.699  13.490 -0.1939 -0.1094 -0.3398
 3735TIP3    H132696   5.365   0.645  13.439 -1.7586  0.4677  0.7928
 3735TIP3    H232697   5.370   0.737  13.559  1.4407  0.6449  0.6095
 3736TIP3   OH232698   3.244   1.624  17.058 -0.1695  0.4929  0.0454
 3736TIP3    H132699   3.318   1.672  17.094 -1.3054  2.0109  0.4931
 3736TIP3    H232700   3.273   1.596  16.971  1.0835  0.6326  0.4092
 3737TIP3   OH232701   6.769   0.212  10.990 -0.4367  0.4870 -0.0247
 3737TIP3    H132702   6.711   0.265  10.935  0.1535  2.2897  0.9957
 3737TIP3    H232703   6.764   0.124  10.953 -3.3106  0.6915 -0.3675
 3738TIP3   OH232704   6.046   6.069   1.188  0.0563 -0.0078  0.0545
 3738TIP3    H132705   5.958   6.103   1.203 -0.2401 -0.9405  0.4934
 3738TIP3    H232706   6.038   5.975   1.201  1.1102 -0.1125  0.0349
 3739TIP3   OH232707   2.525   4.297   1.397 -0.5047  0.0245  0.7806
 3739TIP3    H132708   2.551   4.278   1.487 -0.6957 -2.3492  0.4198
 3739TIP3    H232709   2.525   4.392   1.391  1.3628  0.2333  2.7396
 3740TIP3   OH232710   0.428   2.596  12.987  0.3917 -0.3619  0.2301
 3740TIP3    H132711   0.425   2.514  13.037  1.1514 -0.2750  0.4375
 3740TIP3    H232712   0.495   2.648  13.032  0.7263 -0.0829 -0.5784
 3741TIP3   OH232713   3.393   5.527   3.263  0.2246  0.0538  0.0862
 3741TIP3    H132714   3.488   5.539   3.265  0.7014 -2.9795  0.5276
 3741TIP3    H232715   3.371   5.523   3.170  0.8682 -1.0880 -0.0379
 3742TIP3   OH232716   5.806   3.253  16.552  0.5128 -0.2919 -0.1922
 3742TIP3    H132717   5.842   3.272  16.639 -0.1776  1.2356 -0.2040
 3742TIP3    H232718   5.882   3.257  16.493  0.7465  0.2429  0.1408
 3743TIP3   OH232719   3.996   2.407   5.440  0.1793  0.1548 -0.3888
 3743TIP3    H132720   4.088   2.423   5.423  0.3223  1.0092  1.0064
 3743TIP3    H232721   3.950   2.480   5.398  0.3751  1.1707  1.0810
 3744TIP3   OH232722   4.764   4.835  10.816 -0.0390  0.3001 -0.4718
 3744TIP3    H132723   4.753   4.921  10.776 -1.1809  0.1741 -0.4560
 3744TIP3    H232724   4.709   4.777  10.764  1.7642 -0.7254 -1.3360
 3745TIP3   OH232725   3.791   1.526  12.415 -0.2428 -0.5498 -0.0061
 3745TIP3    H132726   3.705   1.506  12.378 -1.3257 -1.3627  2.6969
 3745TIP3    H232727   3.823   1.442  12.447  0.5630  0.1154  0.9837
 3746TIP3   OH232728   6.109   0.120  12.957  0.9783 -0.2464  0.1885
 3746TIP3    H132729   6.169   0.155  13.022 -0.3170  2.5300  0.0302
 3746TIP3    H232730   6.105   0.188  12.889 -0.2476 -1.5750 -1.1471
 3747TIP3   OH232731   3.913   3.362  13.937  0.5050  0.1901 -0.7387
 3747TIP3    H132732   3.857   3.401  13.870 -0.6657 -0.0237  0.0766
 3747TIP3    H232733   3.966   3.297  13.890  0.1871  0.5038 -1.5503
 3748TIP3   OH232734   4.008   2.270  14.359 -0.1571  0.0860  0.0458
 3748TIP3    H132735   4.068   2.221  14.417 -0.8190 -1.1436 -0.2689
 3748TIP3    H232736   3.950   2.203  14.323 -0.3216  0.9559 -1.3665
 3749TIP3   OH232737   0.550   5.003  11.009 -0.2288  0.8744  0.2024
 3749TIP3    H132738   0.617   4.951  10.964 -0.0817 -0.3320  1.7485
 3749TIP3    H232739   0.555   5.089  10.966  0.9891  0.2573 -0.9884
 3750TIP3   OH232740   3.960   6.039  14.312 -0.0844 -0.0656 -0.5506
 3750TIP3    H132741   3.992   6.124  14.342 -1.1622  0.4151 -0.7211
 3750TIP3    H232742   4.020   5.976  14.352  1.2926  0.8026 -1.1568
 3751TIP3   OH232743   3.872   2.088  15.184 -0.5554 -0.3057 -0.2034
 3751TIP3    H132744   3.798   2.113  15.239 -1.1374 -1.7387 -0.2858
 3751TIP3    H232745   3.861   2.139  15.104  0.8493  2.5601  1.2677
 3752TIP3   OH232746   5.436   5.530  16.057  0.0951 -0.5534  0.0134
 3752TIP3    H132747   5.372   5.512  16.126  0.8296  0.9722  1.1480
 3752TIP3    H232748   5.521   5.525  16.101  0.7101 -1.3606 -1.2071
 3753TIP3   OH232749   1.942   4.985  12.172  0.0946  0.3209 -0.0599
 3753TIP3    H132750   1.896   5.018  12.095  1.5488  1.2603 -0.5707
 3753TIP3    H232751   2.001   4.918  12.137 -0.9891 -1.0422  0.6194
 3754TIP3   OH232752   6.312   3.167   2.645 -0.0067  0.5903  0.6507
 3754TIP3    H132753   6.347   3.132   2.564 -0.3636 -0.1606  0.8111
 3754TIP3    H232754   6.351   3.113   2.714 -0.8385  0.2635  0.8792
 3755TIP3   OH232755   6.340   5.258   5.311 -0.6223  0.7797 -0.7964
 3755TIP3    H132756   6.248   5.273   5.333 -0.5443 -0.5928  0.6942
 3755TIP3    H232757   6.388   5.287   5.389 -0.1986 -2.6983  0.4306
 3756TIP3   OH232758   5.915   1.431   0.501  0.2942 -0.0022 -0.0295
 3756TIP3    H132759   5.858   1.505   0.482 -1.7256 -1.7794 -1.2435
 3756TIP3    H232760   5.924   1.385   0.418  1.1462 -1.3745  0.7801
 3757TIP3   OH232761   5.807   0.776  16.333  0.5163 -0.1153 -0.3077
 3757TIP3    H132762   5.858   0.706  16.374 -0.5371 -2.0298 -2.0749
 3757TIP3    H232763   5.738   0.796  16.396 -0.6098 -2.4340 -0.7321
 3758TIP3   OH232764   4.003   6.413  11.622 -0.5676  0.1353  0.4193
 3758TIP3    H132765   3.935   6.456  11.674  0.7387  0.1926  2.1693
 3758TIP3    H232766   3.993   6.320  11.641 -0.2156  0.1384  0.6402
 3759TIP3   OH232767   4.793   4.049   3.599 -0.3227  0.6182  0.4250
 3759TIP3    H132768   4.882   4.084   3.606 -0.2288  0.4405  0.1196
 3759TIP3    H232769   4.758   4.056   3.688  0.4689 -0.5878  0.8599
 3760TIP3   OH232770   4.286   3.703   4.970 -0.0455 -0.4174 -0.3033
 3760TIP3    H132771   4.341   3.626   4.985  0.0304 -0.4010 -0.4924
 3760TIP3    H232772   4.333   3.753   4.903  1.4937  1.3399  1.9161
 3761TIP3   OH232773   3.181   6.689  16.479  0.0256 -0.2749 -0.0282
 3761TIP3    H132774   3.128   6.768  16.474  0.3489 -0.0903 -0.7232
 3761TIP3    H232775   3.241   6.696  16.405  0.0580 -1.1749 -0.0993
 3762TIP3   OH232776   1.619   6.209  14.502 -0.7780 -0.4587 -0.0666
 3762TIP3    H132777   1.575   6.189  14.420 -0.3938  1.9479 -0.9390
 3762TIP3    H232778   1.551   6.247  14.557 -0.8365 -1.2451  0.4217
 3763TIP3   OH232779   0.712   1.271   0.778  0.5810  0.1813 -0.0651
 3763TIP3    H132780   0.768   1.255   0.701 -0.1015  0.0273 -0.5418
 3763TIP3    H232781   0.631   1.224   0.759 -0.3770  1.7707 -0.1774
 3764TIP3   OH232782   6.531   6.012   5.538 -0.5456  0.3479 -0.0187
 3764TIP3    H132783   6.439   5.994   5.553 -0.9642  1.7314 -0.8101
 3764TIP3    H232784   6.536   6.040   5.447  0.8392 -0.8036 -0.3514
 3765TIP3   OH232785   3.998   4.926  17.113 -0.2755  0.2106 -0.4488
 3765TIP3    H132786   3.941   4.897  17.042 -2.6103 -0.0071  1.4002
 3765TIP3    H232787   4.032   5.010  17.083 -0.9965  0.0113 -1.9195
 3766TIP3   OH232788   2.174   5.784  16.882 -0.7400 -0.3471  0.3363
 3766TIP3    H132789   2.134   5.804  16.797 -0.9051 -0.9422  0.2677
 3766TIP3    H232790   2.120   5.714  16.919  1.1552 -2.3992 -0.5066
 3767TIP3   OH232791   1.343   4.860   3.495  0.0897  0.2308  0.7577
 3767TIP3    H132792   1.396   4.787   3.462  1.8717  0.2526  3.3295
 3767TIP3    H232793   1.261   4.818   3.522  0.0524 -0.3585 -0.2092
 3768TIP3   OH232794   1.756   3.145   1.482 -0.1581  0.3151 -0.1173
 3768TIP3    H132795   1.808   3.184   1.553 -0.6250 -0.6170  0.7544
 3768TIP3    H232796   1.813   3.078   1.445 -0.9731 -1.2463  1.3492
 3769TIP3   OH232797   2.523   1.909   3.766 -0.2487 -0.7288 -0.1006
 3769TIP3    H132798   2.512   1.849   3.839  1.9956  1.0856  1.9188
 3769TIP3    H232799   2.608   1.886   3.728 -0.0621  0.1656 -0.2603
 3770TIP3   OH232800   4.698   3.376   4.966  0.0525 -0.3011  0.0932
 3770TIP3    H132801   4.770   3.356   4.906  1.8040  0.8650  1.7030
 3770TIP3    H232802   4.720   3.328   5.046  0.8372  2.5396  1.7233
 3771TIP3   OH232803   5.997   6.230   4.431  0.0596 -0.1574  0.8258
 3771TIP3    H132804   6.051   6.281   4.371  1.5964 -1.9747  0.5649
 3771TIP3    H232805   5.907   6.240   4.398  0.4115  1.7128  0.3641
 3772TIP3   OH232806   5.243   2.495  13.512  0.0623  0.1123 -0.0519
 3772TIP3    H132807   5.290   2.445  13.445 -2.2081  1.3213 -2.7458
 3772TIP3    H232808   5.173   2.437  13.541  0.7744 -0.2415  1.0489
 3773TIP3   OH232809   4.343   4.961  16.478 -0.1862 -0.0348 -0.5488
 3773TIP3    H132810   4.416   4.902  16.496 -1.1680 -1.3945 -0.8419
 3773TIP3    H232811   4.371   5.009  16.400  1.3736  1.2403  0.7163
 3774TIP3   OH232812   2.393   3.389   3.502  0.3125  0.0334 -0.2420
 3774TIP3    H132813   2.392   3.353   3.413  0.5270  0.9666 -0.6274
 3774TIP3    H232814   2.384   3.483   3.490 -0.4610  0.1074  0.7688
 3775TIP3   OH232815   0.568   3.485  14.855 -0.0387 -0.0824  0.0015
 3775TIP3    H132816   0.636   3.550  14.836 -0.1567  0.3991  1.1539
 3775TIP3    H232817   0.492   3.514  14.804  0.7091 -0.8748 -1.6607
 3776TIP3   OH232818   2.034   0.811   3.695 -0.3089 -0.2128  0.6391
 3776TIP3    H132819   2.045   0.748   3.624 -1.2677  0.9634 -0.5866
 3776TIP3    H232820   2.122   0.822   3.731  0.3340 -0.2120 -0.8874
 3777TIP3   OH232821   5.661   4.027   4.339 -0.1235  1.1539 -0.2927
 3777TIP3    H132822   5.740   4.068   4.374  0.3292  1.1878 -1.3252
 3777TIP3    H232823   5.692   3.950   4.291 -0.6272  1.5926 -1.3662
 3778TIP3   OH232824   0.845   6.763  13.384  0.1473  0.1356 -0.4644
 3778TIP3    H132825   0.911   6.794  13.322 -0.4840 -0.7874 -1.6117
 3778TIP3    H232826   0.774   6.826  13.376  0.7674  1.0291  0.6444
 3779TIP3   OH232827   0.452   0.549   4.041  0.3805 -0.0172 -0.4558
 3779TIP3    H132828   0.431   0.461   4.072  1.3830  0.2288  0.9950
 3779TIP3    H232829   0.393   0.607   4.089 -1.5060  0.0345 -2.6646
 3780TIP3   OH232830   1.329   0.400   0.993  0.1054  0.0297 -0.0703
 3780TIP3    H132831   1.404   0.459   0.994 -0.3124  0.5832  1.1905
 3780TIP3    H232832   1.307   0.390   0.901  1.3693  0.3071 -0.4219
 3781TIP3   OH232833   2.735   2.653   1.150 -0.3547 -0.4515  0.0164
 3781TIP3    H132834   2.737   2.622   1.241  1.5754 -1.9571 -0.4886
 3781TIP3    H232835   2.654   2.615   1.114 -0.4940 -0.8797  0.7510
 3782TIP3   OH232836   0.646   3.396   3.047  0.1020  0.0681 -0.1971
 3782TIP3    H132837   0.634   3.371   2.956 -0.3502 -0.6093  0.0415
 3782TIP3    H232838   0.741   3.393   3.061  0.0658 -3.8868  0.4311
 3783TIP3   OH232839   3.733   3.685   5.239  0.1074 -0.1415 -0.0152
 3783TIP3    H132840   3.697   3.618   5.181  0.3814  0.5595 -1.0356
 3783TIP3    H232841   3.681   3.679   5.319 -1.6550  0.2293 -1.0861
 3784TIP3   OH232842   3.082   4.925   1.160  0.3359  0.2384 -1.2398
 3784TIP3    H132843   3.139   4.931   1.083 -0.7162 -0.6837 -2.1184
 3784TIP3    H232844   3.077   4.831   1.179  1.7213  0.5139  0.8765
 3785TIP3   OH232845   4.220   4.976  11.440  0.4693  0.6553 -0.0452
 3785TIP3    H132846   4.251   4.938  11.358 -1.3115 -0.2396 -0.3367
 3785TIP3    H232847   4.183   4.903  11.488 -2.4145  1.8198 -0.3122
 3786TIP3   OH232848   2.661   0.345  12.727  0.3672 -0.3776 -0.1817
 3786TIP3    H132849   2.602   0.321  12.656 -1.8175  1.8011  0.7485
 3786TIP3    H232850   2.724   0.405  12.687 -0.3721  0.2174 -0.4899
 3787TIP3   OH232851   3.798   2.699   1.161  0.1754  0.0342 -0.1074
 3787TIP3    H132852   3.845   2.664   1.236  2.2920  0.7242 -1.0428
 3787TIP3    H232853   3.741   2.767   1.199  0.2004 -0.5289  1.0007
 3788TIP3   OH232854   6.096   0.188  11.457 -0.5169  0.5237  0.7157
 3788TIP3    H132855   6.042   0.230  11.524  0.2243  2.6907  0.0447
 3788TIP3    H232856   6.035   0.168  11.386 -0.8844  0.4881  1.0381
 3789TIP3   OH232857   3.316   3.436   2.021 -0.0748  0.0478  0.2161
 3789TIP3    H132858   3.377   3.496   2.063 -1.0054  0.1094  1.5616
 3789TIP3    H232859   3.297   3.477   1.936  1.6237  0.0743 -0.1906
 3790TIP3   OH232860   2.037   5.500  12.636 -0.2931  0.3824 -0.8283
 3790TIP3    H132861   2.043   5.469  12.545 -0.9958 -1.2346 -0.3654
 3790TIP3    H232862   1.976   5.439  12.678 -1.1168  1.9678  0.3911
 3791TIP3   OH232863   0.100   4.149  16.766 -0.1837  0.2432 -0.0485
 3791TIP3    H132864   0.145   4.067  16.785 -0.0503  0.1141 -0.8906
 3791TIP3    H232865   0.153   4.217  16.808  1.0862  0.1472 -1.4219
 3792TIP3   OH232866   5.560   3.389  10.865 -0.4253 -0.3864 -0.1740
 3792TIP3    H132867   5.608   3.389  10.782  0.0945  2.1516  0.0431
 3792TIP3    H232868   5.498   3.462  10.857  0.3928  0.6302  2.0530
 3793TIP3   OH232869   1.434   5.381  13.912  0.3764 -0.3170 -0.1739
 3793TIP3    H132870   1.395   5.309  13.864  1.2698 -0.1281 -1.2186
 3793TIP3    H232871   1.478   5.340  13.986  0.3440 -0.7889 -0.4122
 3794TIP3   OH232872   5.483   0.976  11.801  0.2178  0.0399 -0.4007
 3794TIP3    H132873   5.554   0.966  11.737  0.7612  0.4483  0.1330
 3794TIP3    H232874   5.466   1.070  11.804  0.2573  0.0301  0.1220
 3795TIP3   OH232875   3.049   0.203   2.316  0.2144 -0.0004  0.3955
 3795TIP3    H132876   3.012   0.251   2.389 -0.1734  0.2828  0.0211
 3795TIP3    H232877   3.139   0.235   2.309  0.1696  0.1671  0.5854
 3796TIP3   OH232878   0.867   1.254  16.864  0.2081  0.4868 -0.2798
 3796TIP3    H132879   0.807   1.254  16.939  0.7119  0.7694  0.1254
 3796TIP3    H232880   0.851   1.170  16.821 -0.4095  0.5173 -0.1198
 3797TIP3   OH232881   3.938   4.134   4.440  0.4646  0.4230 -0.1933
 3797TIP3    H132882   3.931   4.054   4.388  0.6623  1.3862 -1.7621
 3797TIP3    H232883   3.960   4.202   4.377 -0.8990  1.9566  0.8986
 3798TIP3   OH232884   2.938   4.850  11.305  0.0558  0.7033  0.0960
 3798TIP3    H132885   2.922   4.931  11.353 -0.2006  1.6463 -1.5294
 3798TIP3    H232886   3.013   4.810  11.349  0.4657  2.0369  0.6392
 3799TIP3   OH232887   3.209   1.329   1.311  0.3866 -0.0460 -0.5296
 3799TIP3    H132888   3.292   1.375   1.315 -0.6740  1.9136  1.0211
 3799TIP3    H232889   3.147   1.394   1.278 -0.8837 -0.7888  0.2907
 3800TIP3   OH232890   1.413   2.856   1.995  0.2092  0.2519 -0.5892
 3800TIP3    H132891   1.390   2.777   2.045 -0.2898 -0.3242 -1.7044
 3800TIP3    H232892   1.508   2.850   1.983  0.3564  0.4586  0.3684
 3801TIP3   OH232893   3.552   3.226  14.195  0.6938  0.3405 -0.2085
 3801TIP3    H132894   3.619   3.160  14.182  1.0683  0.3470  1.4533
 3801TIP3    H232895   3.471   3.177  14.208  0.8144  0.2342  0.1510
 3802TIP3   OH232896   4.994   2.845  13.355 -0.4798 -0.3052  0.2618
 3802TIP3    H132897   4.950   2.929  13.370  0.1501  0.2580 -0.9058
 3802TIP3    H232898   5.069   2.846  13.414 -1.0656 -0.5375  1.0342
 3803TIP3   OH232899   4.102   3.937   0.177  0.3502  0.2573 -0.4043
 3803TIP3    H132900   4.190   3.902   0.192  0.5655  0.0584 -1.9228
 3803TIP3    H232901   4.113   4.000   0.105 -0.8345 -0.2571 -1.0703
 3804TIP3   OH232902   6.136   6.283   1.334 -0.0302  0.3256  0.8060
 3804TIP3    H132903   6.092   6.253   1.414 -0.2357  1.1895  1.0332
 3804TIP3    H232904   6.094   6.234   1.264  0.4613 -0.7708  1.2641
 3805TIP3   OH232905   3.756   1.942  15.789 -0.8182  0.4827 -0.1593
 3805TIP3    H132906   3.736   2.030  15.820 -0.1495  0.7478 -0.4700
 3805TIP3    H232907   3.759   1.889  15.869 -0.3260  0.9214  0.1228
 3806TIP3   OH232908   2.984   2.268  14.266 -0.0387 -0.1273  0.9244
 3806TIP3    H132909   2.917   2.311  14.318 -0.4383  0.7496 -0.2792
 3806TIP3    H232910   2.943   2.186  14.237 -1.4468  1.3424 -1.5566
 3807TIP3   OH232911   2.116   2.290   2.258  0.0412  0.1602  0.3169
 3807TIP3    H132912   2.023   2.274   2.272 -0.3630  2.5739  0.8515
 3807TIP3    H232913   2.128   2.282   2.163 -0.8872  0.5839  0.1524
 3808TIP3   OH232914   1.500   1.226  13.834 -0.4850 -0.0085  0.1166
 3808TIP3    H132915   1.473   1.144  13.875 -1.8816  0.4121  0.0935
 3808TIP3    H232916   1.436   1.291  13.865  0.9523  1.2205  0.6229
 3809TIP3   OH232917   3.962   2.354  17.062  0.0367  0.2459 -0.0300
 3809TIP3    H132918   3.965   2.449  17.065  2.3522  0.2419  2.8678
 3809TIP3    H232919   4.045   2.328  17.022  0.2225 -0.5174  0.7949
 3810TIP3   OH232920   4.923   5.288   2.268 -0.6006 -0.5454 -0.2955
 3810TIP3    H132921   4.888   5.204   2.297  0.1220 -0.7628 -0.0421
 3810TIP3    H232922   4.880   5.353   2.324  0.2899 -0.9040  0.8435
 3811TIP3   OH232923   3.006   1.044   1.404  0.1424  0.3896  0.8578
 3811TIP3    H132924   2.978   1.119   1.457 -0.2760 -0.7643  2.3340
 3811TIP3    H232925   3.016   1.080   1.316 -5.1537  1.1936  0.2762
 3812TIP3   OH232926   6.654   5.446  10.955  0.6918  0.6130 -0.0324
 3812TIP3    H132927   6.565   5.417  10.937  0.1480  0.5518  2.3591
 3812TIP3    H232928   6.703   5.365  10.969  1.3314  0.6171 -1.9459
 3813TIP3   OH232929   6.443   0.795  10.804 -0.4761 -0.3124  0.1641
 3813TIP3    H132930   6.450   0.703  10.831 -1.3143 -0.5626 -0.4241
 3813TIP3    H232931   6.532   0.819  10.781 -0.0149 -0.5833  1.5254
 3814TIP3   OH232932   6.452   2.534  11.117 -0.3881  0.0182 -0.3435
 3814TIP3    H132933   6.369   2.546  11.072 -0.9006 -0.9276  0.3072
 3814TIP3    H232934   6.478   2.444  11.097  0.5617  0.3495 -0.6623
 3815TIP3   OH232935   6.218   0.880   2.189 -0.2077 -0.2131 -0.6601
 3815TIP3    H132936   6.193   0.928   2.110 -0.4248  0.4607 -0.1881
 3815TIP3    H232937   6.309   0.903   2.204 -0.8708  1.7400  0.7301
 3816TIP3   OH232938   1.873   1.535   5.591  0.0906  0.7677  0.2202
 3816TIP3    H132939   1.799   1.564   5.538  0.0720  1.1868  0.4659
 3816TIP3    H232940   1.877   1.599   5.662 -0.5646 -0.4116  1.3489
 3817TIP3   OH232941   6.281   1.290   4.480 -0.0285 -0.0098 -0.0744
 3817TIP3    H132942   6.305   1.221   4.542 -0.7654 -0.3560 -0.1657
 3817TIP3    H232943   6.195   1.265   4.448  0.2392  0.2836 -1.0740
 3818TIP3   OH232944   0.186   4.283   2.156 -0.2121 -0.2789  0.4851
 3818TIP3    H132945   0.090   4.280   2.152 -0.2598  0.3359  1.0802
 3818TIP3    H232946   0.207   4.282   2.249  0.3151  0.6939  0.3930
 3819TIP3   OH232947   4.737   6.213   3.164 -0.4472  0.3408 -0.4548
 3819TIP3    H132948   4.645   6.218   3.138 -0.2224  1.8593 -1.0522
 3819TIP3    H232949   4.740   6.251   3.252 -0.3495  0.4575 -0.5093
 3820TIP3   OH232950   0.806   1.124   1.898 -0.3793  0.4323 -0.0899
 3820TIP3    H132951   0.726   1.118   1.845 -1.0953  0.4851  0.9627
 3820TIP3    H232952   0.876   1.108   1.835 -1.2100  0.3332 -1.0348
 3821TIP3   OH232953   4.126   0.062   5.884 -0.4204  0.0954  0.5470
 3821TIP3    H132954   4.118   0.000   5.956 -1.0107  0.1339  0.5170
 3821TIP3    H232955   4.181   0.132   5.918  0.2578 -0.4447  0.5779
 3822TIP3   OH232956   3.603   4.364  16.446  0.1170  0.2489  0.6596
 3822TIP3    H132957   3.606   4.284  16.498  1.4452 -0.4166 -0.3529
 3822TIP3    H232958   3.530   4.414  16.481 -0.2816 -1.0849  1.7948
 3823TIP3   OH232959   3.587   2.929  13.104  0.6874 -0.0379 -0.5212
 3823TIP3    H132960   3.635   2.978  13.038 -1.1325  1.4731 -0.7776
 3823TIP3    H232961   3.613   2.969  13.187  0.3359  0.3827 -0.6117
 3824TIP3   OH232962   1.844   0.773   0.056 -0.7661  0.0928  0.0572
 3824TIP3    H132963   1.748   0.775   0.064 -0.8222 -3.4629  2.6130
 3824TIP3    H232964   1.866   0.680   0.054  2.7597  0.7173  2.0165
 3825TIP3   OH232965   4.522   4.519  10.971 -0.1897 -0.6591  0.3092
 3825TIP3    H132966   4.546   4.601  11.014  0.1809 -0.7158  0.2173
 3825TIP3    H232967   4.444   4.541  10.919  0.4776 -0.1099 -0.4961
 3826TIP3   OH232968   0.011   2.152  15.239 -0.1839 -0.2889 -0.7506
 3826TIP3    H132969   0.036   2.240  15.265 -1.3331  0.7370 -2.8368
 3826TIP3    H232970   0.042   2.144  15.149  1.2828 -2.6324 -0.1161
 3827TIP3   OH232971   2.040   5.604  17.044  0.1509  0.6341 -0.5804
 3827TIP3    H132972   1.978   5.591  17.116 -0.7006 -0.3309 -1.4574
 3827TIP3    H232973   2.028   5.528  16.988  1.6491  0.7820 -1.1460
 3828TIP3   OH232974   4.606   1.530  12.373 -0.0316 -0.1471  0.0754
 3828TIP3    H132975   4.620   1.456  12.433 -0.7756 -0.5585 -0.2563
 3828TIP3    H232976   4.692   1.545  12.335  0.2199 -0.5746  0.4513
 3829TIP3   OH232977   0.365   3.616  11.561 -0.6907 -0.2435  0.0584
 3829TIP3    H132978   0.443   3.643  11.513 -0.7704  0.3566  0.2483
 3829TIP3    H232979   0.312   3.569  11.497 -0.6524  0.2736 -0.3655
 3830TIP3   OH232980   4.935   1.824  12.152 -0.4277 -0.4735 -0.0189
 3830TIP3    H132981   5.021   1.831  12.194 -0.8775 -1.0557  1.0123
 3830TIP3    H232982   4.892   1.908  12.171 -1.4264 -1.4789  2.5251
 3831TIP3   OH232983   6.436   6.699  16.221  0.9146  0.5830 -0.4552
 3831TIP3    H132984   6.350   6.715  16.183  0.8173  1.4829  0.1316
 3831TIP3    H232985   6.492   6.766  16.183  1.3110  0.1498 -0.6460
 3832TIP3   OH232986   4.115   6.297  13.626  0.0967  0.0483 -0.2776
 3832TIP3    H132987   4.092   6.389  13.619  0.0713  0.0784  0.1706
 3832TIP3    H232988   4.209   6.294  13.610 -0.0695  0.0232 -1.3180
 3833TIP3   OH232989   4.687   4.847   2.650  0.5384 -0.7265 -0.1207
 3833TIP3    H132990   4.686   4.795   2.730  1.3085  0.7001  0.8712
 3833TIP3    H232991   4.596   4.845   2.620 -0.2328  0.2400  1.8840
 3834TIP3   OH232992   6.239   2.510   1.220  0.4812  0.4384 -0.1819
 3834TIP3    H132993   6.216   2.602   1.237  0.0161 -0.0296  2.1138
 3834TIP3    H232994   6.280   2.481   1.302  0.3880 -1.4757 -0.7765
 3835TIP3   OH232995   3.680   3.338   0.019 -0.0927 -0.3707  0.1870
 3835TIP3    H132996   3.599   3.290   0.035  0.7635 -2.0295 -0.2702
 3835TIP3    H232997   3.655   3.408  -0.041 -1.1656 -0.9572 -0.0723
 3836TIP3   OH232998   4.175   5.670  15.334 -0.3191  0.7533 -0.2699
 3836TIP3    H132999   4.134   5.584  15.345 -1.4437  1.3017  0.0236
 3836TIP3    H233000   4.103   5.728  15.308  0.3066  1.7268  0.0780
 3837TIP3   OH233001   0.308   0.172  14.944  0.6686  0.4944 -0.1006
 3837TIP3    H133002   0.251   0.128  14.881  0.9650  0.5325 -0.4027
 3837TIP3    H233003   0.252   0.237  14.986  0.8575  1.6413 -1.5305
 3838TIP3   OH233004   1.382   4.574   1.200 -0.0483  0.7103  0.2754
 3838TIP3    H133005   1.351   4.507   1.262  0.1119  1.4253  1.1569
 3838TIP3    H233006   1.387   4.528   1.116 -1.2631 -0.0208  0.5713
 3839TIP3   OH233007   1.360   0.643   3.321  0.4074 -0.7441 -0.3925
 3839TIP3    H133008   1.360   0.634   3.226 -0.4177 -0.2048 -0.4521
 3839TIP3    H233009   1.273   0.679   3.342  1.6840  2.1890  0.2708
 3840TIP3   OH233010   5.702   5.700   0.320 -0.4316 -0.4994  0.2159
 3840TIP3    H133011   5.768   5.770   0.315 -0.3741 -0.5259  0.5795
 3840TIP3    H233012   5.723   5.643   0.247 -0.7748  0.1235 -0.3801
 3841TIP3   OH233013   6.270   3.113   1.998 -0.0080  0.0027 -0.4961
 3841TIP3    H133014   6.192   3.058   1.999  0.0334 -0.1066 -1.5813
 3841TIP3    H233015   6.251   3.179   1.930 -0.3365  1.7586  1.2169
 3842TIP3   OH233016   4.343   2.520   1.670 -0.2653  0.1037 -0.1169
 3842TIP3    H133017   4.349   2.591   1.606 -0.8130  0.9359  0.7355
 3842TIP3    H233018   4.414   2.538   1.732 -1.8691  1.3224  1.4598
 3843TIP3   OH233019   6.638   6.156   3.521 -0.2894 -0.3115  0.1276
 3843TIP3    H133020   6.650   6.083   3.581 -0.7973 -0.1101  0.4718
 3843TIP3    H233021   6.546   6.180   3.529 -0.2973 -0.0949 -0.5164
 3844TIP3   OH233022   0.578   4.751   1.519  0.3311 -0.4618  0.4519
 3844TIP3    H133023   0.513   4.804   1.473 -0.0681 -1.1206  0.2524
 3844TIP3    H233024   0.662   4.794   1.498 -0.0407  0.5339  0.9177
 3845TIP3   OH233025   4.262   0.143   3.174 -0.3841 -0.0905  0.2006
 3845TIP3    H133026   4.279   0.094   3.254 -1.3310  1.3740  1.3428
 3845TIP3    H233027   4.349   0.154   3.134  0.1040 -0.8305  1.0146
 3846TIP3   OH233028   2.819   5.571  14.632 -0.1406 -0.1959 -0.0154
 3846TIP3    H133029   2.859   5.517  14.699  1.7629  0.0026 -0.9406
 3846TIP3    H233030   2.740   5.523  14.607  0.5172 -1.6010  0.4963
 3847TIP3   OH233031   5.515   4.961   3.720  0.1528 -0.2436  0.6056
 3847TIP3    H133032   5.606   4.969   3.692 -0.0720  0.0341 -0.0838
 3847TIP3    H233033   5.465   4.974   3.639 -0.5964  2.0935  1.3645
 3848TIP3   OH233034   6.448   1.920  16.236  0.0921 -0.2920 -0.4751
 3848TIP3    H133035   6.533   1.954  16.210  0.6106 -0.5556  0.8124
 3848TIP3    H233036   6.467   1.835  16.275 -0.7814 -0.4242 -0.3054
 3849TIP3   OH233037   4.055   0.010  12.524  0.1047  0.0918  0.5912
 3849TIP3    H133038   4.049  -0.046  12.602  0.6984 -0.3615  0.3175
 3849TIP3    H233039   4.124   0.073  12.545  0.2636 -0.0293  0.4375
 3850TIP3   OH233040   2.639   4.658   4.204 -0.3484 -0.5253  0.0510
 3850TIP3    H133041   2.581   4.589   4.172  1.0398 -0.8867 -1.8697
 3850TIP3    H233042   2.698   4.614   4.265 -0.7116 -0.6080  0.3456
 3851TIP3   OH233043   4.715   2.317   3.013  0.4304  0.5278  0.0351
 3851TIP3    H133044   4.712   2.238   2.958 -0.2143  0.3754  0.2772
 3851TIP3    H233045   4.806   2.324   3.039  1.2194  1.7656 -2.7042
 3852TIP3   OH233046   4.054   6.146  14.698  0.3899 -0.8702 -0.3521
 3852TIP3    H133047   3.994   6.088  14.652  0.7178 -0.5179 -1.2523
 3852TIP3    H233048   4.045   6.230  14.653  0.0285 -0.2517  0.8346
 3853TIP3   OH233049   5.563   4.740   2.376  0.0667 -0.0034 -0.0591
 3853TIP3    H133050   5.512   4.804   2.426  0.6063 -0.1262  0.6723
 3853TIP3    H233051   5.502   4.703   2.313 -0.6912 -0.0184  0.6791
 3854TIP3   OH233052   3.218   1.079  15.879 -0.0662 -0.2316 -0.1521
 3854TIP3    H133053   3.256   1.040  15.958 -0.6417 -1.4639 -0.4706
 3854TIP3    H233054   3.149   1.019  15.852  0.0436  0.2192 -1.5423
 3855TIP3   OH233055   2.641   5.381  15.255 -0.0376  0.9995  0.0047
 3855TIP3    H133056   2.663   5.366  15.163  1.0815 -0.3770  0.4577
 3855TIP3    H233057   2.660   5.473  15.270  2.2719  0.6697 -0.5258
 3856TIP3   OH233058   6.281   2.829  13.954  0.2113  0.4843 -0.5371
 3856TIP3    H133059   6.241   2.796  13.873 -1.4642  1.1478 -0.0289
 3856TIP3    H233060   6.207   2.860  14.006  1.4504  2.2582  0.2633
 3857TIP3   OH233061   3.120   4.628  11.211  0.3071  0.1122  0.1138
 3857TIP3    H133062   3.048   4.613  11.150  0.0259  2.3375 -0.1746
 3857TIP3    H233063   3.172   4.547  11.208 -0.3845 -0.3068 -2.1173
 3858TIP3   OH233064   0.492   3.680  11.942  0.3953  0.4089 -0.4982
 3858TIP3    H133065   0.400   3.700  11.962  0.2570  0.5138 -1.2212
 3858TIP3    H233066   0.536   3.684  12.027 -0.4159 -0.4962 -0.0105
 3859TIP3   OH233067   6.538   1.959  10.679 -0.3090  0.1808 -0.9383
 3859TIP3    H133068   6.503   2.016  10.610  1.0043  0.1118 -1.6830
 3859TIP3    H233069   6.620   1.926  10.644  0.3493  0.0691  0.6416
 3860TIP3   OH233070   1.548   5.838  17.168 -0.3479  0.1485  0.2147
 3860TIP3    H133071   1.519   5.889  17.092  0.4855  1.9718  1.0753
 3860TIP3    H233072   1.473   5.839  17.227 -0.0389  1.1895  0.6107
 3861TIP3   OH233073   4.144   5.439   5.233  0.0031 -0.1772  0.6971
 3861TIP3    H133074   4.131   5.397   5.148 -1.5249  2.1918 -0.3507
 3861TIP3    H233075   4.082   5.394   5.291 -0.0814 -0.7631  0.1629
 3862TIP3   OH233076   5.510   3.400  15.462 -1.2784 -0.2620 -0.4838
 3862TIP3    H133077   5.547   3.411  15.374 -0.4062 -2.4349 -0.4615
 3862TIP3    H233078   5.436   3.460  15.465 -1.4682 -0.2918 -2.8004
 3863TIP3   OH233079   5.243   4.907   3.590  0.6977  0.1246  0.1049
 3863TIP3    H133080   5.212   4.994   3.615 -1.4921 -0.3371 -0.8119
 3863TIP3    H233081   5.187   4.847   3.639  2.3618 -0.8170  0.9419
 3864TIP3   OH233082   1.828   5.057   0.089 -0.1037 -0.0942  0.4815
 3864TIP3    H133083   1.833   5.089  -0.001 -1.9605 -1.5099 -0.2138
 3864TIP3    H233084   1.865   4.969   0.085 -2.4061 -1.1519  0.4591
 3865TIP3   OH233085   5.760   1.218  14.758  0.0218  0.1470  0.0523
 3865TIP3    H133086   5.846   1.177  14.754 -0.7221 -1.3675 -1.8720
 3865TIP3    H233087   5.709   1.163  14.818  0.0397  0.3516  0.2584
 3866TIP3   OH233088   0.112   1.188   2.315 -0.8593 -0.4715  0.4272
 3866TIP3    H133089   0.087   1.280   2.311  0.9915  0.0797  0.6063
 3866TIP3    H233090   0.039   1.142   2.273 -1.7024  1.0832  0.0927
 3867TIP3   OH233091   0.705   0.089  16.633 -0.2147 -0.5240  0.1013
 3867TIP3    H133092   0.708   0.049  16.546  0.6943 -0.5589  0.1443
 3867TIP3    H233093   0.750   0.027  16.690  0.3556  0.1057  0.3471
 3868TIP3   OH233094   3.805   1.814  15.494  0.2570  0.1326  0.1224
 3868TIP3    H133095   3.718   1.843  15.523  0.4008 -0.4574  1.1930
 3868TIP3    H233096   3.860   1.892  15.501  0.2252  0.0665  1.2298
 3869TIP3   OH233097   4.610   6.043   4.049  0.4543 -0.1614 -0.5508
 3869TIP3    H133098   4.666   6.119   4.065 -1.3373  0.7509  2.0989
 3869TIP3    H233099   4.530   6.080   4.012 -0.3321 -0.7471  0.5142
 3870TIP3   OH233100   5.415   0.236   3.523 -0.0741 -0.4848  0.3344
 3870TIP3    H133101   5.404   0.306   3.587  1.8902  0.2419 -0.0394
 3870TIP3    H233102   5.349   0.171   3.547 -1.8336  1.3681  0.8192
 3871TIP3   OH233103   2.558   1.875   5.683 -0.7283 -0.0617  0.1724
 3871TIP3    H133104   2.552   1.861   5.588 -1.8781 -1.5797  0.4330
 3871TIP3    H233105   2.573   1.969   5.692 -0.7221  0.1410 -1.5065
 3872TIP3   OH233106   6.533   4.781  14.080  0.7167  0.1806 -0.1398
 3872TIP3    H133107   6.614   4.762  14.128  0.8925  0.6841 -0.2249
 3872TIP3    H233108   6.558   4.850  14.018  0.2915  0.1283 -0.3690
 3873TIP3   OH233109   1.520   4.791   5.963  0.0001  0.1795 -0.1612
 3873TIP3    H133110   1.591   4.778   6.026 -0.4595  0.2550  0.3864
 3873TIP3    H233111   1.447   4.824   6.016  0.0772  1.7779 -0.9676
 3874TIP3   OH233112   1.542   0.517   2.328 -0.0047  0.3560  0.3011
 3874TIP3    H133113   1.569   0.473   2.408  1.7855  0.6584 -0.0912
 3874TIP3    H233114   1.477   0.459   2.289 -0.2678 -0.1999  1.5379
 3875TIP3   OH233115   0.504   6.624   0.672  0.2259  0.1438 -0.8088
 3875TIP3    H133116   0.449   6.662   0.741 -3.5378 -2.8554 -1.7932
 3875TIP3    H233117   0.497   6.686   0.600 -2.0813 -0.1192 -0.8975
 3876TIP3   OH233118   5.561   2.253   3.453  0.3019  0.9405 -0.3228
 3876TIP3    H133119   5.611   2.171   3.458 -0.0968  0.7616  0.8275
 3876TIP3    H233120   5.472   2.226   3.430 -0.5806  0.7093  2.9318
 3877TIP3   OH233121   0.716   1.574  13.274 -0.0951 -0.2428  0.6844
 3877TIP3    H133122   0.795   1.580  13.328 -0.5939 -1.1613  1.5369
 3877TIP3    H233123   0.653   1.631  13.317  0.1881  0.7743 -0.1977
 3878TIP3   OH233124   2.545   5.200  11.351 -0.3184 -0.0992  0.2092
 3878TIP3    H133125   2.516   5.187  11.260 -1.1690  2.4038  0.0494
 3878TIP3    H233126   2.488   5.269  11.385  0.9850  0.0987  2.1669
 3879TIP3   OH233127   5.623   6.329   6.329 -0.1740  0.3255 -0.0330
 3879TIP3    H133128   5.713   6.298   6.320 -0.3350 -0.6215  1.3376
 3879TIP3    H233129   5.573   6.251   6.350 -1.8270  0.3398 -3.3521
 3880TIP3   OH233130   1.327   3.697   3.273 -0.2601  0.1754  0.6291
 3880TIP3    H133131   1.343   3.773   3.217  1.1477  0.7991  1.8042
 3880TIP3    H233132   1.313   3.625   3.211  1.8199  0.7199 -0.5793
 3881TIP3   OH233133   5.006   0.285  12.435  0.1035  0.1681 -0.7353
 3881TIP3    H133134   5.087   0.315  12.476  0.3383  0.4773 -1.4152
 3881TIP3    H233135   4.956   0.365  12.418 -0.2817 -0.0108 -0.4448
 3882TIP3   OH233136   6.538   2.027   6.488  0.1817  0.3154 -0.5169
 3882TIP3    H133137   6.526   1.974   6.567 -2.2395  2.2453  0.5276
 3882TIP3    H233138   6.466   2.001   6.431  0.4582  0.7011 -1.0439
 3883TIP3   OH233139   5.070   6.122  12.406  0.2155  0.0335  0.4478
 3883TIP3    H133140   4.990   6.145  12.454 -0.4724 -0.8205 -0.2454
 3883TIP3    H233141   5.099   6.040  12.447  1.1566  0.7051  1.1656
 3884TIP3   OH233142   3.289   2.152  11.791  0.5738  0.4030 -0.0085
 3884TIP3    H133143   3.226   2.184  11.856 -0.3191  0.0382 -0.6684
 3884TIP3    H233144   3.285   2.216  11.720  0.8353  0.2934 -0.1243
 3885TIP3   OH233145   1.211   2.816  14.576  0.3107  0.0224 -0.5531
 3885TIP3    H133146   1.268   2.883  14.615 -0.0865  0.0547 -0.0092
 3885TIP3    H233147   1.268   2.766  14.518  1.6972 -1.9442  2.2736
 3886TIP3   OH233148   0.537   0.275   2.171  0.5072  0.3272  0.4586
 3886TIP3    H133149   0.570   0.223   2.097 -0.5060  0.3980 -0.0570
 3886TIP3    H233150   0.476   0.217   2.216 -0.2667  0.8845  0.1600
 3887TIP3   OH233151   3.975   5.466   2.905 -0.3705 -0.1373 -0.7473
 3887TIP3    H133152   4.004   5.555   2.922  1.5632 -0.3217 -2.5619
 3887TIP3    H233153   3.954   5.431   2.991 -0.6393  1.8798  0.0616
 3888TIP3   OH233154   6.192   5.322   0.103  0.1941  0.1922  0.3271
 3888TIP3    H133155   6.210   5.357   0.191 -1.6071  0.5517  0.5945
 3888TIP3    H233156   6.185   5.227   0.116  1.4266  0.0812  0.2770
 3889TIP3   OH233157   2.244   5.263   3.290  0.1699 -0.2395  0.2718
 3889TIP3    H133158   2.317   5.203   3.276  0.7303  0.5818 -0.5028
 3889TIP3    H233159   2.225   5.257   3.384  0.7557 -0.9914  0.3520
 3890TIP3   OH233160   1.576   6.662  12.471  0.1789 -0.3880 -0.4341
 3890TIP3    H133161   1.582   6.636  12.379 -1.1286  0.5417 -0.8042
 3890TIP3    H233162   1.514   6.599  12.509  2.3593 -2.1862  0.4066
 3891TIP3   OH233163   2.817   5.271  13.843 -0.0489  0.1697  0.3112
 3891TIP3    H133164   2.732   5.246  13.878  0.0268 -1.6293 -0.6830
 3891TIP3    H233165   2.880   5.241  13.909 -0.1578  1.8728  1.2467
 3892TIP3   OH233166   4.990   2.035   1.519  0.4190  0.3396 -0.7638
 3892TIP3    H133167   5.005   2.008   1.428  0.4914 -0.1066 -0.6210
 3892TIP3    H233168   4.922   2.103   1.513 -0.2997 -0.3939 -1.0568
 3893TIP3   OH233169   4.494   5.281   4.630  0.1875 -0.0015 -0.5385
 3893TIP3    H133170   4.522   5.193   4.604  1.4842  0.2625 -0.1094
 3893TIP3    H233171   4.532   5.339   4.564 -0.4568  0.2684 -0.6804
 3894TIP3   OH233172   0.352   1.019  12.344  0.6460  0.1494 -0.1155
 3894TIP3    H133173   0.298   0.944  12.369  2.5681 -1.1873  0.2519
 3894TIP3    H233174   0.304   1.060  12.272 -1.2373 -0.4659  0.7388
 3895TIP3   OH233175   1.634   5.416   5.500 -0.2061 -0.2542 -0.1852
 3895TIP3    H133176   1.617   5.453   5.587 -2.0244  0.0786 -0.6463
 3895TIP3    H233177   1.728   5.403   5.499 -0.0342  0.4348  1.5653
 3896TIP3   OH233178   2.562   1.016  13.483 -0.0129  0.0790 -0.8037
 3896TIP3    H133179   2.508   1.027  13.561  1.6132 -3.6841  1.1124
 3896TIP3    H233180   2.546   0.925  13.456  3.2648 -0.3320 -1.7292
 3897TIP3   OH233181   5.577   1.417  15.723 -0.4044 -0.7970  0.2640
 3897TIP3    H133182   5.667   1.450  15.726 -1.0124  1.0945 -0.3688
 3897TIP3    H233183   5.531   1.465  15.792 -1.3447 -0.2831 -0.6875
 3898TIP3   OH233184   6.509   0.151   3.144  0.6960  0.1241 -0.0170
 3898TIP3    H133185   6.425   0.114   3.117  1.3576 -1.5328  0.0442
 3898TIP3    H233186   6.533   0.210   3.073 -0.8846  1.2772  0.3558
 3899TIP3   OH233187   1.100   5.352  14.631  0.2733 -0.4398 -0.0819
 3899TIP3    H133188   1.170   5.402  14.589  0.0930  0.2521  0.4424
 3899TIP3    H233189   1.023   5.408  14.627  0.3537 -0.1667  1.5591
 3900TIP3   OH233190   0.310   5.185   2.664  0.1376 -0.0874  0.5890
 3900TIP3    H133191   0.308   5.177   2.568  1.5115  1.4018  0.3886
 3900TIP3    H233192   0.222   5.162   2.692 -0.5534  0.3067 -1.1162
 3901TIP3   OH233193   4.524   4.933  11.815 -0.4423  0.3927 -0.5123
 3901TIP3    H133194   4.441   4.930  11.766  0.1918  2.7016 -1.8758
 3901TIP3    H233195   4.576   4.862  11.777 -1.4085 -0.4371 -0.3426
 3902TIP3   OH233196   4.594   2.606   5.309 -0.1110 -0.2979 -0.1489
 3902TIP3    H133197   4.555   2.689   5.282 -1.9843 -0.8617  0.6422
 3902TIP3    H233198   4.625   2.622   5.398  0.3850 -0.1900 -0.3393
 3903TIP3   OH233199   1.458   1.784  16.822  0.1783 -0.4810 -0.3816
 3903TIP3    H133200   1.477   1.690  16.821  2.6779 -0.0733 -2.0690
 3903TIP3    H233201   1.522   1.821  16.883  1.0033  0.3440 -1.6823
 3904TIP3   OH233202   0.099   3.764   0.713 -0.4105 -0.1429 -0.0863
 3904TIP3    H133203   0.086   3.674   0.745 -0.5825 -0.5340 -1.2159
 3904TIP3    H233204   0.022   3.782   0.660 -0.2527  0.5818 -0.0797
 3905TIP3   OH233205   6.688   6.244   0.797 -0.1086  0.1645  0.0006
 3905TIP3    H133206   6.672   6.198   0.880 -0.8472  1.4273  0.5962
 3905TIP3    H233207   6.689   6.337   0.822 -0.1704  0.5536 -1.3853
 3906TIP3   OH233208   0.378   3.603   0.497 -0.0924 -0.6297 -0.1796
 3906TIP3    H133209   0.300   3.556   0.528 -1.0580 -0.0321 -1.5814
 3906TIP3    H233210   0.354   3.695   0.501  1.8355 -0.1156  2.6644
 3907TIP3   OH233211   5.761   4.731   1.980  0.4992  0.3605 -0.1567
 3907TIP3    H133212   5.696   4.796   2.008 -0.1433 -0.3314  0.0196
 3907TIP3    H233213   5.712   4.674   1.920  0.7730 -0.5432  0.4660
 3908TIP3   OH233214   2.726   2.969   6.258  0.3988 -0.6103  0.1883
 3908TIP3    H133215   2.692   2.956   6.170  1.3006 -1.4688 -0.0549
 3908TIP3    H233216   2.670   2.914   6.313 -3.1786  3.3224  0.9662
 3909TIP3   OH233217   0.056   3.298  11.604  0.1158  0.2418 -0.0423
 3909TIP3    H133218   0.038   3.388  11.579 -1.2293  0.2685  0.9292
 3909TIP3    H233219  -0.030   3.258  11.617  0.6971 -0.9196  0.4723
 3910TIP3   OH233220   1.329   3.925   5.180 -0.6924 -0.1519 -0.4097
 3910TIP3    H133221   1.319   3.892   5.091  0.4672  2.0017 -1.3812
 3910TIP3    H233222   1.407   3.980   5.178  0.8169 -1.9176  2.5409
 3911TIP3   OH233223   2.567   2.150   6.388  0.6702  0.5032  1.1718
 3911TIP3    H133224   2.580   2.056   6.400 -2.1852 -0.0735  0.6001
 3911TIP3    H233225   2.582   2.188   6.475 -0.0130 -0.7895  1.8852
 3912TIP3   OH233226   0.800   1.488  13.527 -0.6040  0.3177  0.3087
 3912TIP3    H133227   0.815   1.437  13.448 -2.6933  0.9411 -0.5339
 3912TIP3    H233228   0.881   1.539  13.538 -0.2226  0.1208 -1.3328
 3913TIP3   OH233229   1.015   3.100  14.889 -0.6251  0.0225  0.2339
 3913TIP3    H133230   0.968   3.181  14.911  0.5079  0.2738  1.9008
 3913TIP3    H233231   0.994   3.085  14.797 -1.9835  1.4481  0.2624
 3914TIP3   OH233232   3.359   5.265   0.705 -0.3390  0.3453 -0.0637
 3914TIP3    H133233   3.306   5.298   0.632  0.3363 -0.4832 -0.9623
 3914TIP3    H233234   3.395   5.182   0.673  1.0027  0.5769  0.7339
 3915TIP3   OH233235   1.487   4.872  10.935  0.1110 -0.1008  0.3364
 3915TIP3    H133236   1.535   4.950  10.908 -0.1543 -0.2963 -0.7640
 3915TIP3    H233237   1.512   4.858  11.027  0.6049  0.9325  0.3658
 3916TIP3   OH233238   4.999   4.049  12.176  0.1420 -0.4281 -0.1702
 3916TIP3    H133239   4.937   3.976  12.179 -1.2044  0.6647 -0.4926
 3916TIP3    H233240   4.970   4.102  12.101  1.8448 -0.1919 -0.7019
 3917TIP3   OH233241   3.475   5.373   0.300  0.0725 -0.4333 -0.4361
 3917TIP3    H133242   3.436   5.295   0.340 -1.8614  0.3218 -0.7113
 3917TIP3    H233243   3.444   5.445   0.355  1.2127  0.2254 -0.6195
 3918TIP3   OH233244   4.302   2.746   0.086  0.1930  0.0689 -0.1747
 3918TIP3    H133245   4.382   2.796   0.103  0.1937 -0.1435  0.4603
 3918TIP3    H233246   4.261   2.736   0.172 -0.7654  0.5806 -0.5666
 3919TIP3   OH233247   2.257   1.453  10.489 -0.2237  0.0672  0.4986
 3919TIP3    H133248   2.232   1.545  10.502  0.5341 -0.0173  3.0834
 3919TIP3    H233249   2.174   1.407  10.475 -0.6953  0.9975  0.1405
 3920TIP3   OH233250   4.881   3.873  14.307  0.4481  0.0013 -0.1181
 3920TIP3    H133251   4.931   3.862  14.226 -0.8294  0.4521 -1.0076
 3920TIP3    H233252   4.937   3.927  14.363  0.8010  0.8370 -1.2341
 3921TIP3   OH233253   1.366   4.530   0.527 -0.1627  0.1496  0.2062
 3921TIP3    H133254   1.381   4.557   0.618  1.4015  0.1327 -0.0173
 3921TIP3    H233255   1.445   4.557   0.481 -0.9406  0.1537 -1.1659
 3922TIP3   OH233256   6.453   4.407   1.043 -0.0901  0.7126 -0.2933
 3922TIP3    H133257   6.448   4.502   1.031  0.0179  0.8879  0.9892
 3922TIP3    H233258   6.382   4.386   1.104  0.6051  0.1356  0.3415
 3923TIP3   OH233259   5.290   3.200   0.692 -0.4892  0.1671 -0.1119
 3923TIP3    H133260   5.348   3.156   0.755 -1.6694 -1.0858  0.1611
 3923TIP3    H233261   5.348   3.232   0.624  0.7617  0.9852  1.2689
 3924TIP3   OH233262   1.691   6.704   1.147  0.0609  0.2699  0.4692
 3924TIP3    H133263   1.722   6.614   1.157  1.0931  0.4062 -1.0894
 3924TIP3    H233264   1.601   6.695   1.116  0.3001 -0.2367 -0.0886
 3925TIP3   OH233265   1.104   6.701   3.203 -0.1833  0.0348 -0.5936
 3925TIP3    H133266   1.035   6.637   3.219  0.2615  0.0299  1.7141
 3925TIP3    H233267   1.060   6.786   3.211  0.0418  0.0335  0.9946
 3926TIP3   OH233268   1.468   6.179   5.948  0.1824  0.2291 -0.5141
 3926TIP3    H133269   1.513   6.255   5.910  0.9037 -0.1139 -0.3534
 3926TIP3    H233270   1.477   6.190   6.042 -0.6749  0.5133 -0.4565
 3927TIP3   OH233271   1.560   5.351  14.170  0.5530  0.3869  0.1026
 3927TIP3    H133272   1.539   5.307  14.253  0.9527  0.6178  0.3249
 3927TIP3    H233273   1.626   5.416  14.193 -0.1324  1.2112 -0.2000
 3928TIP3   OH233274   0.736   3.714   2.976  0.4063  0.1604 -0.3930
 3928TIP3    H133275   0.785   3.642   3.016  1.3464 -0.8827 -3.2321
 3928TIP3    H233276   0.644   3.688   2.986  0.6140 -0.2043  0.7473
 3929TIP3   OH233277   4.975   2.642  16.324  0.2422  0.5030 -0.1247
 3929TIP3    H133278   4.915   2.713  16.303 -0.2969  0.0752 -0.0598
 3929TIP3    H233279   4.923   2.562  16.310  1.2223  0.0671 -1.4965
 3930TIP3   OH233280   0.779   3.683  14.697  0.6307  0.5067 -0.1563
 3930TIP3    H133281   0.755   3.722  14.613  1.4661 -0.4121 -0.8542
 3930TIP3    H233282   0.799   3.592  14.676  0.5742  0.1781  1.1031
 3931TIP3   OH233283   4.126   1.114   3.688  0.1043  0.3482 -0.2772
 3931TIP3    H133284   4.085   1.147   3.608  0.1553  0.7345 -0.1423
 3931TIP3    H233285   4.058   1.059   3.728  0.2576 -0.2733 -0.8488
 3932TIP3   OH233286   5.755   4.873   3.585 -0.3239  0.3139  0.1044
 3932TIP3    H133287   5.724   4.790   3.549 -0.5183 -0.6881  2.4474
 3932TIP3    H233288   5.790   4.851   3.671 -1.6330  2.8237  1.3992
 3933TIP3   OH233289   6.093   1.008   6.255  0.8073 -0.5956 -0.2489
 3933TIP3    H133290   6.127   0.945   6.319 -0.6783 -0.8860  0.2990
 3933TIP3    H233291   6.043   1.070   6.307 -1.6370 -1.6309 -1.1902
 3934TIP3   OH233292   5.141   0.339   2.549  0.1315 -0.4003 -0.3767
 3934TIP3    H133293   5.078   0.403   2.582  1.0616 -0.2411  1.2585
 3934TIP3    H233294   5.220   0.391   2.530  1.0388 -1.0350  1.3767
 3935TIP3   OH233295   6.122   5.663  13.557 -0.3674 -0.4724  0.7786
 3935TIP3    H133296   6.085   5.680  13.471  1.7659 -1.0136 -0.3063
 3935TIP3    H233297   6.216   5.654  13.542  0.1844  0.2673  3.2921
 3936TIP3   OH233298   4.775   0.609  13.175  0.4067  0.3363 -0.2259
 3936TIP3    H133299   4.863   0.645  13.166  0.4654  0.6839  1.4122
 3936TIP3    H233300   4.742   0.645  13.258 -2.0120  1.7477 -1.6587
 3937TIP3   OH233301   6.462   3.960  12.912  0.0974  0.1690 -0.3473
 3937TIP3    H133302   6.469   3.865  12.902  1.7058  0.2983 -0.6912
 3937TIP3    H233303   6.432   3.973  13.002 -0.6886 -0.6760 -0.4834
 3938TIP3   OH233304   4.353   6.804  11.886 -0.5376 -0.1318 -0.7028
 3938TIP3    H133305   4.263   6.775  11.868 -0.4862 -0.5188 -0.3684
 3938TIP3    H233306   4.366   6.782  11.979  0.9813 -3.0002 -1.4901
 3939TIP3   OH233307   2.812   2.373   2.008 -0.1516  0.5383  0.1777
 3939TIP3    H133308   2.785   2.351   2.097  1.0652 -0.4074  0.3461
 3939TIP3    H233309   2.892   2.322   1.994 -0.6708  0.1524 -1.6954
 3940TIP3   OH233310   0.297   1.085  12.977 -0.1840  0.5609  0.2273
 3940TIP3    H133311   0.371   1.030  13.005  0.7926  0.2376 -2.7040
 3940TIP3    H233312   0.319   1.172  13.010  2.6209  0.9174 -2.1268
 3941TIP3   OH233313   4.528   4.256  14.353 -0.7532  0.4649 -0.2702
 3941TIP3    H133314   4.522   4.243  14.448 -2.1880  0.4471 -0.3395
 3941TIP3    H233315   4.501   4.346  14.339  0.7296  0.8953 -0.5780
 3942TIP3   OH233316   3.230   2.219  15.616  0.2357 -0.0087 -0.1547
 3942TIP3    H133317   3.177   2.145  15.587  0.6808 -0.3106 -0.2037
 3942TIP3    H233318   3.249   2.200  15.708 -0.9485  0.8124  0.2981
 3943TIP3   OH233319   1.752   2.059   4.228  0.6163 -0.1806  0.5183
 3943TIP3    H133320   1.775   2.095   4.314 -0.8999 -1.2653  1.4512
 3943TIP3    H233321   1.696   1.984   4.249 -1.1256  0.4803 -1.4518
 3944TIP3   OH233322   6.169   0.683   4.655  0.1438 -0.2473  0.4586
 3944TIP3    H133323   6.240   0.620   4.670  0.0383 -1.2972 -2.6867
 3944TIP3    H233324   6.118   0.681   4.736  1.7393 -2.1113  1.5154
 3945TIP3   OH233325   1.243   5.214  13.831  0.0894  0.5000 -0.0694
 3945TIP3    H133326   1.212   5.159  13.904 -0.5203  1.2092  0.2228
 3945TIP3    H233327   1.166   5.266  13.807  0.9462  2.0298  0.4061
 3946TIP3   OH233328   1.571   0.813   3.525  0.1315 -0.5381  0.0191
 3946TIP3    H133329   1.532   0.739   3.571  2.7918 -0.7507  2.2044
 3946TIP3    H233330   1.630   0.772   3.461 -0.8793 -0.2345 -1.1478
 3947TIP3   OH233331   5.165   4.906  15.667 -0.3674  0.2252  0.1965
 3947TIP3    H133332   5.151   4.832  15.608 -1.9440 -0.3418  1.2287
 3947TIP3    H233333   5.206   4.973  15.611 -0.6389 -0.7397 -1.2221
 3948TIP3   OH233334   6.304   2.589  15.655  0.2109 -0.2847  0.1677
 3948TIP3    H133335   6.223   2.631  15.684 -0.1988  0.6556 -2.1127
 3948TIP3    H233336   6.368   2.611  15.722 -0.4428  2.5593 -0.0100
 3949TIP3   OH233337   5.672   3.336  10.633  0.3828 -0.0958  0.3276
 3949TIP3    H133338   5.664   3.428  10.607  1.9293 -0.0490 -0.0672
 3949TIP3    H233339   5.634   3.287  10.561  1.5494  0.1685 -0.4888
 3950TIP3   OH233340   2.405   5.389   0.848  0.2322 -0.0834  0.6063
 3950TIP3    H133341   2.324   5.426   0.883  0.7112  0.8225  0.8174
 3950TIP3    H233342   2.379   5.309   0.803 -0.6989 -0.0914  1.1432
 3951TIP3   OH233343   3.298   3.484  15.092  0.2986 -0.0285  0.8051
 3951TIP3    H133344   3.288   3.554  15.028  1.5622 -0.8489 -0.3830
 3951TIP3    H233345   3.327   3.527  15.172  1.3828  0.7885 -0.0057
 3952TIP3   OH233346   1.951   0.822  13.342  0.3129  0.0865 -0.6052
 3952TIP3    H133347   1.895   0.893  13.308  0.1147  1.9743  3.1215
 3952TIP3    H233348   2.024   0.868  13.383  0.8765 -1.9611  0.7896
 3953TIP3   OH233349   6.681   1.997  12.355  0.4974  0.5769  0.4860
 3953TIP3    H133350   6.695   2.072  12.413 -1.8948  3.1020 -1.9068
 3953TIP3    H233351   6.724   2.021  12.273 -0.5101 -0.5528 -0.4238
 3954TIP3   OH233352   6.480   6.404   3.856  0.0756 -0.1313 -0.5001
 3954TIP3    H133353   6.456   6.454   3.934 -0.5201  0.9499 -1.3452
 3954TIP3    H233354   6.574   6.388   3.866 -0.1512 -0.7997  0.8513
 3955TIP3   OH233355   6.818   3.064  17.001 -0.3273  0.7808  0.1586
 3955TIP3    H133356   6.786   3.125  17.068 -0.8992  1.8488 -1.0465
 3955TIP3    H233357   6.749   2.998  16.993 -1.3778  1.9661 -1.0161
 3956TIP3   OH233358   0.870   5.286   2.103 -0.6819  0.4915  0.3719
 3956TIP3    H133359   0.805   5.292   2.173  0.2328 -1.7335  1.5235
 3956TIP3    H233360   0.937   5.351   2.126 -0.7320  0.2621  1.1855
 3957TIP3   OH233361   2.161   0.095   5.613  0.3210  0.2596  0.1204
 3957TIP3    H133362   2.121   0.182   5.617 -0.7758 -0.0208 -2.5725
 3957TIP3    H233363   2.255   0.111   5.622  0.0517  1.5840  0.8325
 3958TIP3   OH233364   4.539   0.812  12.521 -0.3087 -0.3394 -0.2383
 3958TIP3    H133365   4.624   0.817  12.564 -0.2214 -2.2155 -0.1109
 3958TIP3    H233366   4.491   0.745  12.569 -1.5310  0.0315 -0.8838
 3959TIP3   OH233367   5.205   0.898   5.772 -0.5673  0.5365 -0.7629
 3959TIP3    H133368   5.158   0.928   5.849 -0.5277  0.1306 -0.5781
 3959TIP3    H233369   5.279   0.958   5.763  1.6771 -1.5669  1.7650
 3960TIP3   OH233370   1.166   3.793   1.187  0.0216 -0.1001  0.1219
 3960TIP3    H133371   1.160   3.840   1.104  1.0889  0.2839  0.2541
 3960TIP3    H233372   1.218   3.715   1.167  0.0135 -0.1669  0.3585
 3961TIP3   OH233373   1.616   3.199  12.300 -0.2838  0.2640 -0.5512
 3961TIP3    H133374   1.571   3.279  12.329  0.3487  0.2244  0.6165
 3961TIP3    H233375   1.709   3.220  12.308 -0.1111 -0.4600 -0.6230
 3962TIP3   OH233376   0.463   2.971   4.374  0.1452  0.6264  0.2057
 3962TIP3    H133377   0.416   2.891   4.353 -1.5629  1.4881  0.5854
 3962TIP3    H233378   0.401   3.023   4.424  1.1839  2.2158 -0.0853
 3963TIP3   OH233379   6.450   1.623  12.615  0.6380  0.5591 -0.5319
 3963TIP3    H133380   6.507   1.589  12.684  0.0942  0.5537 -0.0739
 3963TIP3    H233381   6.440   1.716  12.637  2.9621  1.3526 -2.3527
 3964TIP3   OH233382   6.487   2.386  15.551 -0.0057 -0.2403  0.2876
 3964TIP3    H133383   6.474   2.298  15.587 -1.5498 -0.5664 -0.9715
 3964TIP3    H233384   6.455   2.445  15.619  2.9695 -0.4472  2.0566
 3965TIP3   OH233385   1.283   6.396   5.676  0.4519 -0.1850  0.2449
 3965TIP3    H133386   1.250   6.439   5.597  0.5639 -1.2607 -0.4082
 3965TIP3    H233387   1.229   6.432   5.747 -1.3924 -1.0328 -0.6404
 3966TIP3   OH233388   4.258   2.881   3.563  0.5084 -0.7569  0.2715
 3966TIP3    H133389   4.327   2.867   3.627 -0.1449 -0.3062  1.0982
 3966TIP3    H233390   4.304   2.892   3.480  1.3682 -1.3962  0.6481
 3967TIP3   OH233391   5.556   6.275  16.126  0.6048  0.8435  0.0451
 3967TIP3    H133392   5.548   6.221  16.048 -0.6312  0.1662  0.6101
 3967TIP3    H233393   5.484   6.247  16.182  0.8662  2.0122  1.0102
 3968TIP3   OH233394   5.889   4.385  14.553  0.2834 -0.3727  0.3265
 3968TIP3    H133395   5.891   4.397  14.648 -0.4643  0.3607  0.2664
 3968TIP3    H233396   5.924   4.467  14.518 -1.2034  0.1266 -0.0525
 3969TIP3   OH233397   1.677   1.863   5.802 -0.3658  0.1413 -0.2284
 3969TIP3    H133398   1.588   1.871   5.768 -1.1500 -0.8910  1.4396
 3969TIP3    H233399   1.665   1.857   5.897  1.3583 -1.7512 -0.0768
 3970TIP3   OH233400   4.313   3.506   3.389 -0.0475  0.0072 -0.0769
 3970TIP3    H133401   4.388   3.458   3.424  0.2823 -0.3243 -1.1959
 3970TIP3    H233402   4.241   3.486   3.449  0.1295 -1.7071 -0.3873
 3971TIP3   OH233403   3.599   4.534   5.470  0.1844  0.3098 -0.3301
 3971TIP3    H133404   3.685   4.575   5.480  0.0672  1.4230 -3.1522
 3971TIP3    H233405   3.540   4.606   5.450 -1.3617 -0.5151  0.9962
 3972TIP3   OH233406   6.452   1.793  11.034 -0.3623  0.5631 -0.4811
 3972TIP3    H133407   6.526   1.799  11.094 -0.8152  2.5691 -0.0676
 3972TIP3    H233408   6.475   1.721  10.975  2.4058  1.7663 -1.0063
 3973TIP3   OH233409   6.584   5.282   4.008 -0.0915  0.3307 -0.0161
 3973TIP3    H133410   6.652   5.316   3.950 -0.4230  0.7860 -0.1352
 3973TIP3    H233411   6.530   5.358   4.030  0.5305  0.3675  1.5890
 3974TIP3   OH233412   3.041   1.728   1.556 -0.1585  0.0680  0.0200
 3974TIP3    H133413   2.990   1.774   1.489  1.1325  1.1994 -0.2401
 3974TIP3    H233414   3.132   1.744   1.532  0.3572 -2.4146  0.1224
 3975TIP3   OH233415   2.849   4.570   2.088 -0.8126 -0.3664 -0.5543
 3975TIP3    H133416   2.849   4.482   2.124 -0.9167 -0.1358  0.0264
 3975TIP3    H233417   2.903   4.565   2.009  2.2657 -0.1835  1.3919
 3976TIP3   OH233418   4.360   0.308  15.728 -0.2307 -0.6600 -0.0260
 3976TIP3    H133419   4.347   0.216  15.701 -1.4417 -0.7751  0.8560
 3976TIP3    H233420   4.363   0.304  15.824  0.6148  0.1321 -0.0131
 3977TIP3   OH233421   0.448   2.654  14.158  0.2028 -0.0356 -0.2262
 3977TIP3    H133422   0.438   2.744  14.127 -2.7963 -0.1466  0.1212
 3977TIP3    H233423   0.392   2.650  14.236  0.5750 -2.1146 -0.0247
 3978TIP3   OH233424   5.137   5.632  11.607 -0.1432 -0.4011 -0.3529
 3978TIP3    H133425   5.062   5.659  11.553 -0.7969 -0.9625  0.2568
 3978TIP3    H233426   5.192   5.581  11.548  0.5075  1.2021 -1.2027
 3979TIP3   OH233427   0.329   4.505  13.337  0.3497 -0.5385 -0.5188
 3979TIP3    H133428   0.273   4.568  13.292 -0.7815 -0.5649  0.7877
 3979TIP3    H233429   0.399   4.486  13.274 -0.6540  0.1169 -1.8908
 3980TIP3   OH233430   1.995   6.464  12.375  0.0459  0.3710  0.5155
 3980TIP3    H133431   2.049   6.409  12.432  0.8138  0.3214 -0.2347
 3980TIP3    H233432   1.966   6.536  12.432  1.4562  0.7605  0.7925
 3981TIP3   OH233433   2.903   4.520   4.733  0.4604 -0.2646  0.1147
 3981TIP3    H133434   2.975   4.463   4.705  0.1071 -0.5535 -0.2160
 3981TIP3    H233435   2.945   4.587   4.787  1.1084  0.1407 -0.8683
 3982TIP3   OH233436   3.237   3.414  13.906  0.3289  0.2065  0.6110
 3982TIP3    H133437   3.333   3.405  13.903  0.2550 -1.7139  2.0256
 3982TIP3    H233438   3.208   3.377  13.823  0.8184  1.0849  0.0365
 3983TIP3   OH233439   0.540   5.550   4.919  0.3555 -0.5164 -0.4057
 3983TIP3    H133440   0.623   5.572   4.877 -0.8616  2.9551 -1.3898
 3983TIP3    H233441   0.473   5.576   4.856 -1.5014  0.6616  1.8598
 3984TIP3   OH233442   2.597   6.075  14.472 -0.6829  0.0764 -0.5706
 3984TIP3    H133443   2.566   6.047  14.558 -3.0524  0.6886 -1.1382
 3984TIP3    H233444   2.575   6.002  14.414 -0.8320  0.4211 -0.9518
 3985TIP3   OH233445   3.513   2.820  15.783  0.1580  0.3000 -0.8176
 3985TIP3    H133446   3.483   2.862  15.863 -0.2998  1.6650 -1.6710
 3985TIP3    H233447   3.436   2.821  15.725  0.2390 -1.4055 -0.9970
 3986TIP3   OH233448   3.103   3.335  14.112 -0.4377 -0.9852 -0.0299
 3986TIP3    H133449   3.100   3.244  14.083  1.8323 -1.0412 -0.3152
 3986TIP3    H233450   3.140   3.382  14.037 -0.7936  0.0216  0.4160
 3987TIP3   OH233451   0.700   1.321  16.312 -0.0197 -0.2165 -0.7853
 3987TIP3    H133452   0.672   1.351  16.399 -2.4891  1.3907 -2.0453
 3987TIP3    H233453   0.702   1.226  16.319  1.1768 -0.1075  1.3693
 3988TIP3   OH233454   6.121   5.995   2.094  0.3291 -0.4333  0.4748
 3988TIP3    H133455   6.059   6.064   2.117  1.3920  1.4691 -1.9109
 3988TIP3    H233456   6.185   5.995   2.165 -0.1469  0.4465  0.9209
 3989TIP3   OH233457   4.246   3.376   2.733  0.3186  0.4422  0.1449
 3989TIP3    H133458   4.268   3.468   2.720  3.2757 -0.4220 -1.9569
 3989TIP3    H233459   4.216   3.346   2.647 -0.2549 -0.6763  0.7129
 3990TIP3   OH233460   1.731   3.784  12.468  0.3271 -0.0807  0.0749
 3990TIP3    H133461   1.671   3.743  12.407 -0.0239  0.1094  0.2924
 3990TIP3    H233462   1.675   3.825  12.534  0.6979 -1.2940  1.1967
 3991TIP3   OH233463   6.257   0.692   3.801 -0.0968  0.0195  0.6105
 3991TIP3    H133464   6.257   0.718   3.893 -1.2505  3.0053 -0.0920
 3991TIP3    H233465   6.164   0.681   3.779 -0.0409  1.5442 -0.6393
 3992TIP3   OH233466   3.076   1.100   6.444  0.5588  0.1512 -0.0060
 3992TIP3    H133467   3.003   1.108   6.383 -0.5417  0.8882  1.3422
 3992TIP3    H233468   3.121   1.184   6.439  0.7139  0.0603 -0.1170
 3993TIP3   OH233469   3.990   3.077   4.358 -0.3497  0.2945  0.2940
 3993TIP3    H133470   4.021   3.020   4.428  3.0268 -0.8395 -1.8241
 3993TIP3    H233471   3.949   3.017   4.295 -0.6026  0.8305 -0.0634
 3994TIP3   OH233472   0.188   3.291  11.854  0.3654  0.2201 -0.4488
 3994TIP3    H133473   0.114   3.267  11.909  1.2012 -1.5444 -0.0261
 3994TIP3    H233474   0.156   3.281  11.764 -0.4809  1.4505 -0.3155
 3995TIP3   OH233475   6.518   2.371  11.421 -0.1232 -0.1306  0.3660
 3995TIP3    H133476   6.614   2.366  11.420 -0.1435 -0.5812 -0.4942
 3995TIP3    H233477   6.495   2.395  11.331 -0.7570  1.6572  0.9687
 3996TIP3   OH233478   2.011   1.160  15.541 -0.2600 -0.3921  0.5702
 3996TIP3    H133479   1.945   1.101  15.577 -1.9283  0.3068 -1.1286
 3996TIP3    H233480   2.033   1.219  15.613  0.9583 -2.5743  2.1092
 3997TIP3   OH233481   0.169   5.050   0.755  0.1931  0.2276 -0.3071
 3997TIP3    H133482   0.258   5.014   0.765  0.2983  0.8131  1.0858
 3997TIP3    H233483   0.183   5.143   0.737 -0.1411  0.2076 -0.6920
 3998TIP3   OH233484   6.135   5.989   0.721  0.5538 -0.1401 -0.0325
 3998TIP3    H133485   6.206   5.933   0.751  2.0572  1.6087 -0.1665
 3998TIP3    H233486   6.144   5.991   0.626  0.6061  0.4376 -0.0171
 3999TIP3   OH233487   2.921   5.852  13.918  0.1164 -0.7568  0.4480
 3999TIP3    H133488   2.988   5.807  13.969 -1.2009 -1.3737  1.7398
 3999TIP3    H233489   2.931   5.817  13.829  1.3414 -0.9992  0.6652
 4000TIP3   OH233490   4.981   0.163  16.164  0.0235 -0.7530  0.4177
 4000TIP3    H133491   5.022   0.250  16.170 -0.1013 -0.7005  0.5122
 4000TIP3    H233492   5.050   0.107  16.129 -0.7100 -0.0573 -2.4561
 4001TIP3   OH233493   3.807   5.968  12.877  0.0291 -0.0222  1.0192
 4001TIP3    H133494   3.779   6.021  12.802 -1.2257 -0.7178  0.9889
 4001TIP3    H233495   3.785   5.878  12.853  0.5804 -0.3747  1.7926
 4002TIP3   OH233496   3.759   4.626   3.570 -0.3339 -0.1294  0.1314
 4002TIP3    H133497   3.790   4.542   3.535 -1.6257 -0.8829  0.7247
 4002TIP3    H233498   3.786   4.690   3.504  0.1438 -1.0801 -0.6390
 4003TIP3   OH233499   3.427   6.482  11.128 -0.4266 -0.5133  0.8543
 4003TIP3    H133500   3.505   6.534  11.105 -0.3027 -1.3073 -0.6603
 4003TIP3    H233501   3.365   6.500  11.057 -1.7016  0.2047  2.1065
 4004TIP3   OH233502   6.791   0.668   5.537 -0.3219  0.0197 -0.1702
 4004TIP3    H133503   6.753   0.740   5.587  1.6184  1.5775 -0.7903
 4004TIP3    H233504   6.745   0.590   5.568 -2.4019  1.4775  0.6403
 4005TIP3   OH233505   3.607   5.299   3.107  0.3858  0.3091 -0.0795
 4005TIP3    H133506   3.653   5.378   3.138 -0.5509  1.5693 -1.7729
 4005TIP3    H233507   3.632   5.292   3.015 -1.8978  0.3938 -0.7462
 4006TIP3   OH233508   5.674   5.903   5.653  0.0035  0.1668 -0.3109
 4006TIP3    H133509   5.749   5.938   5.700 -0.0793 -0.5185  0.3592
 4006TIP3    H233510   5.701   5.815   5.627  0.3505  0.8169 -2.2876
 4007TIP3   OH233511   1.527   5.294   5.273 -0.2361 -0.4253  0.2958
 4007TIP3    H133512   1.547   5.350   5.348 -0.8290  0.4534 -0.1928
 4007TIP3    H233513   1.570   5.211   5.294 -0.7314 -0.3368  1.7964
 4008TIP3   OH233514   1.234   4.604  16.533  0.1076 -0.3244 -0.0967
 4008TIP3    H133515   1.176   4.529  16.524 -0.5281  0.1823 -0.2910
 4008TIP3    H233516   1.258   4.606  16.625 -0.1909 -0.5319 -0.0153
 4009TIP3   OH233517   2.916   4.947   1.994 -0.4832  0.1690 -0.1486
 4009TIP3    H133518   2.837   4.894   2.003 -0.9907  1.0488  0.7320
 4009TIP3    H233519   2.896   5.009   1.923 -0.3756  0.0401 -0.2931
 4010TIP3   OH233520   6.116   0.233   2.493 -0.1978 -0.1434 -0.0510
 4010TIP3    H133521   6.035   0.252   2.541  0.3559  0.2876  0.7312
 4010TIP3    H233522   6.094   0.253   2.402 -0.6809  0.9585  0.2861
 4011TIP3   OH233523   5.939   0.473   0.581 -0.0033 -0.4204 -0.2930
 4011TIP3    H133524   6.022   0.514   0.603  0.6237 -2.2490  0.9786
 4011TIP3    H233525   5.876   0.545   0.580  1.1398  0.6647  1.1829
 4012TIP3   OH233526   3.194   4.231   3.058  0.2939  0.1245  0.4698
 4012TIP3    H133527   3.147   4.300   3.104 -1.9374 -0.5850 -0.6141
 4012TIP3    H233528   3.183   4.251   2.966  0.1617 -1.3126  0.1437
 4013TIP3   OH233529   6.645   3.078   2.160 -0.5417  0.1525  0.4357
 4013TIP3    H133530   6.652   3.022   2.236 -4.1519  0.0584  0.8638
 4013TIP3    H233531   6.562   3.124   2.171 -0.6318  1.0647 -2.8296
 4014TIP3   OH233532   2.758   1.622   4.078 -0.4088 -0.2330 -0.5574
 4014TIP3    H133533   2.703   1.554   4.037 -1.6749  0.9066 -0.8393
 4014TIP3    H233534   2.846   1.605   4.044 -0.9369 -0.9422 -1.6590
 4015TIP3   OH233535   2.920   0.763  12.272  0.2132  0.2881  0.4471
 4015TIP3    H133536   2.939   0.685  12.325 -0.2876 -0.4930 -0.4833
 4015TIP3    H233537   2.981   0.757  12.198 -0.0054  0.6308  0.2371
 4016TIP3   OH233538   4.979   5.768  16.133  0.1147 -0.1704 -0.0544
 4016TIP3    H133539   5.018   5.688  16.098 -0.8392 -0.6397 -0.0755
 4016TIP3    H233540   5.023   5.839  16.085  1.8097 -0.5998  0.7981
 4017TIP3   OH233541   6.779   0.114  13.393  0.0163 -0.3184 -0.3865
 4017TIP3    H133542   6.872   0.131  13.407 -0.2007  2.1264 -1.4659
 4017TIP3    H233543   6.743   0.104  13.482  0.7551  2.1992  0.2698
 4018TIP3   OH233544   0.923   5.056   5.306  0.1370 -0.2158  0.4496
 4018TIP3    H133545   0.933   4.963   5.285 -2.0108 -0.2295 -0.8735
 4018TIP3    H233546   0.920   5.100   5.220 -1.0883  0.7665  0.9571
 4019TIP3   OH233547   0.840   5.154   2.883 -0.0038  0.2382 -0.0689
 4019TIP3    H133548   0.821   5.154   2.789  2.1713 -2.5292 -0.6592
 4019TIP3    H233549   0.829   5.063   2.909 -0.0294  0.8583  2.2825
 4020TIP3   OH233550   2.878   3.308  11.566  0.2691 -0.8731  0.3162
 4020TIP3    H133551   2.956   3.344  11.524  0.4040 -1.6017 -0.0788
 4020TIP3    H233552   2.805   3.349  11.520  0.4107 -1.9789 -0.9546
 4021TIP3   OH233553   2.032   0.573   5.566  0.2786  0.9384 -0.2160
 4021TIP3    H133554   1.958   0.622   5.531 -1.5616 -2.1317 -0.9255
 4021TIP3    H233555   2.009   0.555   5.657 -0.6170 -1.1844 -0.7983
 4022TIP3   OH233556   5.460   2.737  15.725  0.3797  0.1998 -0.1022
 4022TIP3    H133557   5.466   2.821  15.771 -2.6785  1.3634 -1.6008
 4022TIP3    H233558   5.372   2.735  15.689  0.1473 -3.9418  0.2585
 4023TIP3   OH233559   5.312   5.359   1.422 -0.5701 -0.3597 -0.0381
 4023TIP3    H133560   5.275   5.338   1.337  0.4758 -3.5853  0.1888
 4023TIP3    H233561   5.403   5.382   1.403 -1.4418  3.9030 -0.1774
 4024TIP3   OH233562   6.322   6.384   3.451 -0.0928  0.0693  0.1474
 4024TIP3    H133563   6.368   6.328   3.513 -1.3841  0.5655  1.6068
 4024TIP3    H233564   6.270   6.324   3.398  0.4721 -0.2934 -0.0131
 4025TIP3   OH233565   1.140   1.234   3.390 -0.6314  0.1099  0.1836
 4025TIP3    H133566   1.071   1.298   3.377 -0.1243  0.6575  0.1478
 4025TIP3    H233567   1.101   1.167   3.447 -0.6600  1.2624  1.5468
 4026TIP3   OH233568   6.540   3.592   2.309 -0.4312 -0.0834 -0.2451
 4026TIP3    H133569   6.472   3.611   2.245 -1.0661 -1.3698  0.0126
 4026TIP3    H233570   6.535   3.497   2.322  1.5617 -0.2436 -0.3784
 4027TIP3   OH233571   6.323   0.875  11.211 -0.1860 -0.3338 -0.2833
 4027TIP3    H133572   6.390   0.807  11.203 -1.9848 -2.1770 -0.4413
 4027TIP3    H233573   6.294   0.891  11.121 -1.4042 -1.1339 -0.0615
 4028TIP3   OH233574   2.364   5.326  14.749  0.4237  0.5061  0.1919
 4028TIP3    H133575   2.448   5.286  14.725 -0.8622 -0.9874 -2.1279
 4028TIP3    H233576   2.371   5.416  14.719  1.4304  0.5978  0.6595
 4029TIP3   OH233577   0.052   2.346  12.028 -0.6689  0.3983 -0.3163
 4029TIP3    H133578   0.079   2.345  11.936 -2.2219 -4.2822 -1.0289
 4029TIP3    H233579  -0.041   2.369  12.025 -0.9783 -0.7502 -0.1236
 4030TIP3   OH233580   0.561   5.581   4.561 -0.8700 -0.3645 -0.1526
 4030TIP3    H133581   0.573   5.502   4.508  3.0281  1.1726 -1.9092
 4030TIP3    H233582   0.621   5.571   4.634 -2.2002 -0.0323  1.0439
 4031TIP3   OH233583   5.460   5.112  12.145  0.2032  0.5364  0.0829
 4031TIP3    H133584   5.527   5.160  12.194  1.3366 -0.3702 -0.5302
 4031TIP3    H233585   5.453   5.159  12.062 -1.5441  1.9292  0.9531
 4032TIP3   OH233586   2.963   3.897   5.406  0.8002 -0.2310 -0.9195
 4032TIP3    H133587   2.954   3.829   5.473 -2.8522  0.4454 -0.5136
 4032TIP3    H233588   3.005   3.970   5.452 -0.6178 -0.1854  0.3943
 4033TIP3   OH233589   3.609   0.893  15.632  0.5630  0.0357 -0.4027
 4033TIP3    H133590   3.599   0.837  15.708 -0.1023  0.9854  0.2296
 4033TIP3    H233591   3.704   0.902  15.621  0.7512 -2.7168 -1.6874
 4034TIP3   OH233592   4.118   6.091  12.719 -0.0738  0.0147 -0.1274
 4034TIP3    H133593   4.116   6.159  12.652 -0.3914 -0.6073 -0.7634
 4034TIP3    H233594   4.088   6.012  12.674 -0.3634 -0.3984  0.7667
 4035TIP3   OH233595   1.420   3.081   2.254  0.0707  0.1120 -0.0496
 4035TIP3    H133596   1.472   3.094   2.175  2.6896 -1.6179  1.2638
 4035TIP3    H233597   1.373   3.163   2.266  0.3901  0.7698 -2.8102
 4036TIP3   OH233598   4.683   2.937  11.547  0.1096  0.1153  0.1169
 4036TIP3    H133599   4.734   2.935  11.628 -0.1302 -0.5961  0.2553
 4036TIP3    H233600   4.726   3.003  11.494 -0.0892  1.0319  1.0618
 4037TIP3   OH233601   5.884   4.968  15.378  0.1774  0.0653  0.1396
 4037TIP3    H133602   5.925   5.055  15.381 -0.2276  0.2768 -0.3226
 4037TIP3    H233603   5.957   4.907  15.374  0.4545  0.4269 -0.3647
 4038TIP3   OH233604   6.260   0.289   3.519  0.5894  0.1370  0.5851
 4038TIP3    H133605   6.317   0.218   3.492 -0.0474  0.0868 -0.6757
 4038TIP3    H233606   6.320   0.363   3.535  1.0028  0.1984 -1.0836
 4039TIP3   OH233607   6.142   0.827  13.492  1.1201 -0.1563  0.3498
 4039TIP3    H133608   6.140   0.922  13.478  0.6262 -0.3859 -1.3015
 4039TIP3    H233609   6.151   0.790  13.405 -2.6534 -1.7290  0.4235
 4040TIP3   OH233610   5.217   6.387   6.511  0.3223  0.5171  0.2231
 4040TIP3    H133611   5.209   6.457   6.576  1.3777  0.1380  0.7868
 4040TIP3    H233612   5.133   6.387   6.465  0.4054  2.3545  0.0020
 4041TIP3   OH233613   3.773   5.767   2.797 -0.0764  0.5377  0.3316
 4041TIP3    H133614   3.787   5.765   2.702  1.1240 -1.2099  0.4940
 4041TIP3    H233615   3.680   5.747   2.808 -0.2032  0.6511 -0.4855
 4042TIP3   OH233616   0.626   5.872   1.112 -0.1155  0.5324 -0.3419
 4042TIP3    H133617   0.587   5.864   1.199  0.6382  1.2594  0.0784
 4042TIP3    H233618   0.606   5.961   1.084  0.7744  0.7496 -0.3328
 4043TIP3   OH233619   1.359   0.874   2.335 -0.3737  0.7347  0.1004
 4043TIP3    H133620   1.448   0.869   2.370 -0.2009  1.1855 -0.2627
 4043TIP3    H233621   1.358   0.811   2.263 -0.7538 -0.2542  0.9348
 4044TIP3   OH233622   5.163   5.240  14.972 -0.0320 -0.5875  0.3913
 4044TIP3    H133623   5.191   5.331  14.969  0.4559 -0.7343  0.4153
 4044TIP3    H233624   5.176   5.208  14.882 -4.0461  0.4677 -0.7706
 4045TIP3   OH233625   1.892   2.346  13.087 -0.6588  0.2693 -0.0180
 4045TIP3    H133626   1.906   2.376  12.997 -1.5693  0.2888 -0.1643
 4045TIP3    H233627   1.896   2.426  13.140 -0.6336  0.3259 -0.1062
 4046TIP3   OH233628   0.446   2.957  13.836  0.2777  0.4265  0.0460
 4046TIP3    H133629   0.372   2.960  13.776 -0.4317  1.1165  0.9271
 4046TIP3    H233630   0.411   2.986  13.920  1.3831  0.0639  0.6644
 4047TIP3   OH233631   1.938   4.729  13.237 -0.1223  0.4141  0.0502
 4047TIP3    H133632   1.989   4.711  13.159  0.2336  0.3617  0.2917
 4047TIP3    H233633   1.863   4.780  13.206  0.8028  1.7286 -0.1260
 4048TIP3   OH233634   1.200   1.835   5.824 -0.6374 -0.1341  0.1343
 4048TIP3    H133635   1.188   1.891   5.901 -0.0057  0.7515 -0.3877
 4048TIP3    H233636   1.133   1.768   5.832 -1.2600  0.5613  0.9091
 4049TIP3   OH233637   3.598   6.045   5.300 -0.0933 -0.2246 -0.6092
 4049TIP3    H133638   3.529   6.050   5.366  0.7339 -0.7141  0.3210
 4049TIP3    H233639   3.670   6.096   5.337  0.5943 -0.9965 -0.8658
 4050TIP3   OH233640   4.476   5.984  14.925  0.1377 -0.2032  0.1268
 4050TIP3    H133641   4.389   6.023  14.937  0.3226  1.0716 -2.0455
 4050TIP3    H233642   4.533   6.059  14.906  1.5333 -1.1109  0.5921
 4051TIP3   OH233643   5.548   6.317  12.604 -0.3676 -0.3027 -0.3511
 4051TIP3    H133644   5.606   6.264  12.550 -0.9982  1.2438 -2.6855
 4051TIP3    H233645   5.465   6.317  12.558 -2.4611 -2.6292  2.9976
 4052TIP3   OH233646   1.019   3.357  13.915  0.2501  0.0595  0.1980
 4052TIP3    H133647   1.089   3.334  13.854  0.7758 -0.3156  0.9234
 4052TIP3    H233648   1.052   3.328  14.001  0.6490  2.8535  1.0863
 4053TIP3   OH233649   4.335   4.401  16.701 -0.2767  0.3357  0.0945
 4053TIP3    H133650   4.249   4.362  16.689  0.8435 -2.5470  0.4695
 4053TIP3    H233651   4.357   4.386  16.793  1.4704 -1.0857 -0.4806
 4054TIP3   OH233652   2.501   6.098  12.569 -0.2277 -0.1670  0.1084
 4054TIP3    H133653   2.577   6.156  12.566 -0.9760  0.7915 -0.9731
 4054TIP3    H233654   2.430   6.149  12.530 -0.6971 -2.1031 -1.7562
 4055TIP3   OH233655   0.861   0.442  13.200  0.0040  0.8897 -0.3318
 4055TIP3    H133656   0.775   0.402  13.193  0.3787 -1.3052  4.1029
 4055TIP3    H233657   0.845   0.531  13.231 -0.6856  0.7094 -0.1673
 4056TIP3   OH233658   1.231   5.840   6.702 -0.1462 -0.1012  0.1232
 4056TIP3    H133659   1.164   5.886   6.651  0.2622  0.5318  0.1539
 4056TIP3    H233660   1.218   5.871   6.792  1.7135  1.9189 -0.2129
 4057TIP3   OH233661   0.024   0.632   0.162  0.4650 -0.0139 -0.6004
 4057TIP3    H133662  -0.056   0.586   0.188 -0.8983  1.9857 -0.9272
 4057TIP3    H233663   0.095   0.586   0.206 -0.9653 -1.3752  0.3723
 4058TIP3   OH233664   0.014   4.981  16.249  0.1617  0.4301 -0.1418
 4058TIP3    H133665  -0.014   5.010  16.162  0.5659 -0.9981 -0.7774
 4058TIP3    H233666  -0.057   4.925  16.279  0.4946  0.0911  0.0103
 4059TIP3   OH233667   2.149   4.076   5.497  0.0369 -0.2937 -0.1012
 4059TIP3    H133668   2.162   4.018   5.572  1.1844  0.3470  0.2278
 4059TIP3    H233669   2.142   4.164   5.536 -1.5852 -0.1829 -0.5911
 4060TIP3   OH233670   5.236   2.671  11.522 -0.5678  0.5583  0.5205
 4060TIP3    H133671   5.150   2.637  11.497  0.2948 -1.6038  0.2639
 4060TIP3    H233672   5.247   2.750  11.469 -1.4735 -0.3838 -1.1561
 4061TIP3   OH233673   5.755   6.458   1.418  0.4054 -0.3662 -0.2191
 4061TIP3    H133674   5.699   6.493   1.349 -0.0720 -0.5262  0.0747
 4061TIP3    H233675   5.823   6.524   1.431 -0.5644  0.5372  0.4273
 4062TIP3   OH233676   2.315   4.738   5.172 -0.1661 -0.4044 -0.2021
 4062TIP3    H133677   2.234   4.765   5.216 -0.7847  0.1010 -1.6116
 4062TIP3    H233678   2.334   4.651   5.208 -0.3523  0.2011  1.4427
 4063TIP3   OH233679   6.525   2.965  16.836  0.1347 -0.0782  0.5358
 4063TIP3    H133680   6.442   2.932  16.804 -0.2501  2.0602 -0.9086
 4063TIP3    H233681   6.517   2.964  16.931 -2.1708  1.4359  0.4290
 4064TIP3   OH233682   2.603   5.109   5.597 -0.1917  0.3555  0.0530
 4064TIP3    H133683   2.570   5.198   5.607 -1.1306  0.5355 -3.2801
 4064TIP3    H233684   2.560   5.076   5.518  2.1975 -2.0476 -0.4116
 4065TIP3   OH233685   4.496   1.174  15.701 -0.7038  0.1692  0.7092
 4065TIP3    H133686   4.440   1.134  15.635 -0.8168 -1.2466  1.6188
 4065TIP3    H233687   4.498   1.267  15.678  1.4725 -0.5957 -2.8953
 4066TIP3   OH233688   2.992   0.545  12.460  0.1484 -0.0788 -0.7642
 4066TIP3    H133689   3.014   0.455  12.437 -2.4632 -1.2211  0.7850
 4066TIP3    H233690   2.910   0.538  12.508 -0.2119  3.1747 -0.7001
 4067TIP3   OH233691   3.050   5.251  12.080  0.2174 -0.4445  0.7087
 4067TIP3    H133692   3.137   5.245  12.040  1.1108 -1.1934  2.6249
 4067TIP3    H233693   3.066   5.283  12.169 -1.4087 -0.9693  1.2459
 4068TIP3   OH233694   0.320   3.868   2.532  0.1708 -0.1667 -0.2191
 4068TIP3    H133695   0.356   3.934   2.472  0.4952  1.4144  1.6485
 4068TIP3    H233696   0.231   3.897   2.550  0.3499 -0.1731  0.7048
 4069TIP3   OH233697   1.478   3.715   4.299  0.1459 -0.2925 -0.6686
 4069TIP3    H133698   1.570   3.693   4.315  1.1486  1.6466 -3.1324
 4069TIP3    H233699   1.460   3.789   4.358  0.1850 -0.5874 -0.2822
 4070TIP3   OH233700   4.563   3.217   0.728  0.4095  0.0648 -0.5101
 4070TIP3    H133701   4.637   3.267   0.695  1.5361 -0.1184  1.5696
 4070TIP3    H233702   4.591   3.126   0.723  0.3659 -0.0032  0.3115
 4071TIP3   OH233703   6.187   1.471   0.469 -1.0307  0.2328 -0.6226
 4071TIP3    H133704   6.092   1.474   0.474 -0.9940  1.6996 -0.3123
 4071TIP3    H233705   6.207   1.510   0.384 -0.7243 -1.0619 -1.1697
 4072TIP3   OH233706   3.834   1.175   3.668  0.4405  0.2266  0.0627
 4072TIP3    H133707   3.847   1.201   3.760 -1.6980 -3.9620  1.8256
 4072TIP3    H233708   3.783   1.246   3.630 -0.6832  1.0832  2.8735
 4073TIP3   OH233709   5.543   5.027  14.962 -0.0429 -0.1489  0.5414
 4073TIP3    H133710   5.580   5.096  15.017  0.4136 -0.8306  1.1215
 4073TIP3    H233711   5.477   4.985  15.018  0.2981 -0.7331  0.5122
 4074TIP3   OH233712   1.595   1.533   2.424  0.0867  0.4409 -0.2283
 4074TIP3    H133713   1.590   1.439   2.438 -0.2310  0.5219  0.2504
 4074TIP3    H233714   1.508   1.565   2.448  0.5502  0.9972  0.7563
 4075TIP3   OH233715   3.435   5.281  10.931 -0.0348  0.2136 -0.5387
 4075TIP3    H133716   3.483   5.213  10.882  1.5819 -0.8772  2.2928
 4075TIP3    H233717   3.346   5.246  10.939 -0.2374  0.2440 -2.2626
 4076TIP3   OH233718   4.901   5.281   4.393 -0.0781 -0.3322  0.0521
 4076TIP3    H133719   4.881   5.211   4.331 -1.8366  0.1166  0.0624
 4076TIP3    H233720   4.898   5.238   4.479  0.6204 -0.5892 -0.0425
 4077TIP3   OH233721   1.068   3.830   2.692  0.5872  0.4295  0.3110
 4077TIP3    H133722   1.090   3.747   2.734  1.8330  0.4900 -0.2005
 4077TIP3    H233723   1.146   3.884   2.702 -0.3058  1.6536  0.8846
 4078TIP3   OH233724   2.256   6.121  11.780  0.2562 -0.2840 -0.3577
 4078TIP3    H133725   2.292   6.208  11.797  2.0190 -0.6802 -1.8195
 4078TIP3    H233726   2.312   6.061  11.829 -1.0675 -0.6238  0.7971
 4079TIP3   OH233727   0.775   1.146  15.492  0.0201 -0.0408  0.8323
 4079TIP3    H133728   0.849   1.173  15.438  1.6791 -1.6495  2.1842
 4079TIP3    H233729   0.769   1.051  15.480 -0.7919 -0.1665  1.9918
 4080TIP3   OH233730   5.319   3.385  16.594  0.4764  0.3320  0.5360
 4080TIP3    H133731   5.410   3.404  16.614 -0.3886  1.5924  3.8801
 4080TIP3    H233732   5.276   3.470  16.594 -1.1311 -0.4243  1.7400
 4081TIP3   OH233733   5.828   0.374  17.067  0.0138  0.0646 -0.3561
 4081TIP3    H133734   5.786   0.432  17.131 -0.6178  0.6935 -1.3123
 4081TIP3    H233735   5.913   0.415  17.050 -0.1935  0.4075 -0.5912
 4082TIP3   OH233736   5.961   2.634   4.069 -0.0345  0.3533  0.3877
 4082TIP3    H133737   5.941   2.725   4.092  2.0240  0.2842  2.8500
 4082TIP3    H233738   6.034   2.641   4.007  0.9097  0.4037  1.4771
 4083TIP3   OH233739   2.831   1.656  11.196 -0.0285  0.0459 -0.0656
 4083TIP3    H133740   2.871   1.697  11.120  0.5024 -0.2231  0.0685
 4083TIP3    H233741   2.805   1.569  11.165 -1.3104  0.5229 -0.4008
 4084TIP3   OH233742   3.535   0.838  13.855  0.1091  0.7447  0.0744
 4084TIP3    H133743   3.554   0.931  13.868 -4.1288  1.6335  1.3838
 4084TIP3    H233744   3.494   0.834  13.768  0.5308 -0.0065 -0.1021
 4085TIP3   OH233745   1.216   6.327   2.171 -0.5656 -0.1807  0.1806
 4085TIP3    H133746   1.187   6.239   2.197 -0.6739  0.0163  0.7432
 4085TIP3    H233747   1.215   6.325   2.075  0.7673 -1.2267  0.1681
 4086TIP3   OH233748   2.328   1.101  11.860 -0.5209 -0.2247  0.3838
 4086TIP3    H133749   2.233   1.108  11.870 -0.6373 -0.2619 -0.5857
 4086TIP3    H233750   2.362   1.172  11.915 -1.1700  0.5320 -0.1539
 4087TIP3   OH233751   4.257   6.204  14.900  0.4047  0.4915 -0.4778
 4087TIP3    H133752   4.185   6.188  14.839  0.0830 -0.1503  0.0498
 4087TIP3    H233753   4.321   6.253  14.850  0.5506 -0.7994 -1.5995
 4088TIP3   OH233754   3.362   2.908  16.047 -0.2410  0.1816 -0.5946
 4088TIP3    H133755   3.407   2.992  16.059 -1.0978  0.5339  0.3083
 4088TIP3    H233756   3.333   2.884  16.134 -0.2927 -0.9093 -0.8989
 4089TIP3   OH233757   2.608   1.999   3.334  0.7461  0.2301 -0.2922
 4089TIP3    H133758   2.558   1.957   3.404 -1.7900  0.0873 -2.0601
 4089TIP3    H233759   2.588   2.092   3.341 -0.2221  0.1190 -1.2934
 4090TIP3   OH233760   2.774   3.915   4.140 -0.3505  0.5244  0.8562
 4090TIP3    H133761   2.744   3.900   4.230 -1.2094  1.1869  0.6934
 4090TIP3    H233762   2.693   3.919   4.089  0.0385  1.7034  0.2985
 4091TIP3   OH233763   1.385   1.345  12.111  0.0375 -0.2817 -0.4507
 4091TIP3    H133764   1.384   1.361  12.017 -0.0515 -0.5822 -0.5011
 4091TIP3    H233765   1.297   1.370  12.141  0.7759  2.0830 -0.0601
 4092TIP3   OH233766   0.380   5.591  15.965 -0.1403 -0.0586  0.3400
 4092TIP3    H133767   0.467   5.628  15.951 -0.8783  1.6297 -0.0308
 4092TIP3    H233768   0.382   5.508  15.917  0.4615  1.1725 -1.9380
 4093TIP3   OH233769   6.316   0.133  16.310  0.2797  0.1764  0.3435
 4093TIP3    H133770   6.389   0.083  16.346  1.3011 -0.4249 -2.3004
 4093TIP3    H233771   6.279   0.076  16.243 -0.6518  1.6876 -0.4794
 4094TIP3   OH233772   5.208   5.170  15.242  0.6600 -0.6066 -0.1916
 4094TIP3    H133773   5.121   5.208  15.259 -0.4733 -3.2679  0.4186
 4094TIP3    H233774   5.225   5.190  15.150 -0.4858  0.1753 -0.2558
 4095TIP3   OH233775   6.561   2.949   6.724 -0.9383 -0.3206 -0.0622
 4095TIP3    H133776   6.470   2.975   6.712 -0.5449  1.4090  0.4402
 4095TIP3    H233777   6.612   3.024   6.694  0.3841 -1.6373 -1.2750
 4096TIP3   OH233778   1.775   0.415  11.755 -0.7023  0.6109  0.5026
 4096TIP3    H133779   1.851   0.423  11.697 -0.8654 -0.1008  0.1785
 4096TIP3    H233780   1.765   0.321  11.768 -0.9898  0.7423  1.2680
 4097TIP3   OH233781   1.283   4.621  11.854 -0.4355  0.4402 -0.2649
 4097TIP3    H133782   1.321   4.555  11.912 -0.5785 -0.2185 -0.9064
 4097TIP3    H233783   1.324   4.703  11.882 -1.0099  0.2629  1.2202
 4098TIP3   OH233784   5.241   5.522  15.087  0.4824 -0.0245  0.2731
 4098TIP3    H133785   5.327   5.490  15.113  0.0671 -0.3072  1.3626
 4098TIP3    H233786   5.199   5.548  15.169 -0.3218  0.4881 -0.2817
 4099TIP3   OH233787   0.955   5.477   1.445 -0.4082  0.1603  0.1935
 4099TIP3    H133788   1.009   5.407   1.409  0.1643  0.8789 -0.3550
 4099TIP3    H233789   0.974   5.476   1.539  1.4461  1.1375 -0.1315
 4100TIP3   OH233790   5.630   5.113  12.894  0.4632  0.1192  0.4238
 4100TIP3    H133791   5.636   5.018  12.889 -3.3797 -0.3439  1.5369
 4100TIP3    H233792   5.662   5.135  12.981 -0.2031 -0.3691  0.7962
 4101TIP3   OH233793   3.318   1.959  13.787  0.0516  0.3253 -0.2049
 4101TIP3    H133794   3.306   1.912  13.869  1.1801 -0.3655 -0.4195
 4101TIP3    H233795   3.265   2.039  13.797  0.0757  0.1885  1.1305
 4102TIP3   OH233796   6.806   1.965   2.474  0.1602  0.2689  0.3625
 4102TIP3    H133797   6.736   1.911   2.510  2.7049 -2.1249  2.1569
 4102TIP3    H233798   6.815   1.936   2.384 -0.7010  0.1389  0.3117
 4103TIP3   OH233799   1.990   1.371  12.596 -0.3614  0.3561  0.2678
 4103TIP3    H133800   2.021   1.300  12.653 -1.4702  1.0631  1.8031
 4103TIP3    H233801   2.035   1.449  12.628 -0.9774  0.7588  0.1594
 4104TIP3   OH233802   0.724   0.657  12.494  0.5299  0.1577 -0.7527
 4104TIP3    H133803   0.650   0.709  12.525  1.9948  2.0541 -0.2140
 4104TIP3    H233804   0.705   0.640  12.402 -1.4620 -1.1014 -0.1690
 4105TIP3   OH233805   6.097   5.616  12.605  0.0629  0.3122  0.7491
 4105TIP3    H133806   6.093   5.700  12.651 -0.7497  0.1497  0.9825
 4105TIP3    H233807   6.006   5.592  12.590  0.2962  0.3956 -1.0477
 4106TIP3   OH233808   6.212   0.343   5.271  0.2178 -0.2840  0.2293
 4106TIP3    H133809   6.167   0.278   5.324 -0.1352  0.2084  0.5378
 4106TIP3    H233810   6.269   0.292   5.213  1.5155 -0.8046  1.8823
 4107TIP3   OH233811   5.071   1.498  12.948  0.2584  0.6328 -0.8610
 4107TIP3    H133812   5.104   1.508  12.858 -1.8563 -0.7563 -1.8925
 4107TIP3    H233813   5.144   1.459  12.996  0.7143 -0.8592 -2.6113
 4108TIP3   OH233814   6.437   3.427   3.265  0.2556 -0.4781 -0.0280
 4108TIP3    H133815   6.524   3.394   3.285  0.1506  0.1540  1.6367
 4108TIP3    H233816   6.388   3.418   3.347 -0.2303  2.2898  0.0884
 4109TIP3   OH233817   4.103   2.893  12.008  0.4725 -0.1057 -0.2454
 4109TIP3    H133818   4.095   2.828  12.077  0.2751 -0.3422 -0.4877
 4109TIP3    H233819   4.184   2.869  11.962  2.1165  1.6586  1.5581
 4110TIP3   OH233820   0.359   2.753   1.947  0.9031  0.3751 -0.0767
 4110TIP3    H133821   0.405   2.827   1.908 -0.1409  0.0503 -2.0534
 4110TIP3    H233822   0.429   2.694   1.976  1.7308  1.3072 -0.1214
 4111TIP3   OH233823   4.625   3.074   3.574 -0.0700 -0.1404 -0.2151
 4111TIP3    H133824   4.576   3.151   3.546 -0.3823 -0.9849 -2.1054
 4111TIP3    H233825   4.624   3.015   3.499 -0.6584 -2.4141  1.4448
 4112TIP3   OH233826   6.315   6.341   1.950  0.5652  0.3593  0.4545
 4112TIP3    H133827   6.387   6.403   1.937  1.3571 -0.8076 -1.0152
 4112TIP3    H233828   6.349   6.277   2.012  0.1304  0.7706  1.1352
 4113TIP3   OH233829   3.906   2.116   1.414  0.2860 -0.0702  1.0914
 4113TIP3    H133830   3.938   2.157   1.495  0.0325  1.4585  0.4553
 4113TIP3    H233831   3.939   2.172   1.344  0.1397 -1.1309  0.1532
 4114TIP3   OH233832   4.901   2.188   0.641  0.0652  0.6486  0.2460
 4114TIP3    H133833   4.806   2.193   0.650  0.0437  0.1466  0.3569
 4114TIP3    H233834   4.930   2.279   0.643 -0.4878  0.8654 -0.7175
 4115TIP3   OH233835   3.256   1.414  14.672 -0.2897 -0.1852 -0.0610
 4115TIP3    H133836   3.251   1.510  14.673 -0.6547 -0.2013 -0.1113
 4115TIP3    H233837   3.343   1.394  14.705 -1.0853  0.1013  2.3787
 4116TIP3   OH233838   2.195   4.051   4.396  0.1086  0.1287 -0.0891
 4116TIP3    H133839   2.270   4.079   4.448 -0.8574  0.4958  1.1637
 4116TIP3    H233840   2.202   4.100   4.314  2.2137 -1.2078 -0.7803
 4117TIP3   OH233841   5.074   2.305   5.795  0.0927 -0.1073  0.1706
 4117TIP3    H133842   5.038   2.317   5.707 -0.8544 -0.6705  0.4694
 4117TIP3    H233843   5.168   2.292   5.780  0.1277  0.9073 -0.6575
 4118TIP3   OH233844   0.027   0.135  10.562 -0.5098  0.0189 -0.6156
 4118TIP3    H133845  -0.050   0.096  10.519  1.0179 -2.5949 -1.2013
 4118TIP3    H233846   0.091   0.064  10.565  1.0945  1.4297  1.9468
 4119TIP3   OH233847   2.824   6.447   2.044  0.4322 -0.0109 -0.3198
 4119TIP3    H133848   2.866   6.508   1.984  0.0487  0.2877 -0.2874
 4119TIP3    H233849   2.897   6.407   2.092  0.8137 -0.8481 -1.5250
 4120TIP3   OH233850   4.878   4.057  11.157  0.2976  0.2756 -0.3784
 4120TIP3    H133851   4.917   3.970  11.164  1.0221  0.2309 -3.7083
 4120TIP3    H233852   4.798   4.043  11.107 -0.3616  1.3686  0.3216
 4121TIP3   OH233853   4.410   0.530   3.513 -0.0335 -0.1170  0.3084
 4121TIP3    H133854   4.428   0.440   3.487  0.5889 -0.7511  2.6672
 4121TIP3    H233855   4.386   0.524   3.605 -2.5238  1.8851 -0.1083
 4122TIP3   OH233856   2.828   3.436   1.193 -0.3828 -0.7569  0.6534
 4122TIP3    H133857   2.829   3.530   1.175 -1.3845 -0.5233  1.7097
 4122TIP3    H233858   2.812   3.429   1.287 -0.8912 -1.9976  0.4996
 4123TIP3   OH233859   1.811   3.420  12.567  0.4166 -0.0916 -0.4096
 4123TIP3    H133860   1.743   3.459  12.513  0.7122 -0.3400 -0.9653
 4123TIP3    H233861   1.869   3.375  12.505 -0.2662 -1.9470  0.2353
 4124TIP3   OH233862   1.760   0.064   4.053  0.0080 -0.3867  0.2561
 4124TIP3    H133863   1.691   0.100   4.108  2.2376  3.4244  0.9503
 4124TIP3    H233864   1.801  -0.004   4.107  0.6081  1.5844  2.4437
 4125TIP3   OH233865   1.160   4.760  13.323 -0.0757 -0.5157 -0.8014
 4125TIP3    H133866   1.066   4.747  13.338  0.2040  0.5316  2.5258
 4125TIP3    H233867   1.188   4.681  13.276 -2.1532 -2.1031  0.4648
 4126TIP3   OH233868   0.415   2.061   1.720 -0.2975 -0.1069  0.2062
 4126TIP3    H133869   0.426   1.971   1.751 -1.5705 -0.2170  0.3824
 4126TIP3    H233870   0.489   2.074   1.661 -0.4151 -1.4786 -0.2919
 4127TIP3   OH233871   4.134   2.900   5.956 -0.6107 -0.1293  0.1518
 4127TIP3    H133872   4.131   2.972   6.019 -0.8017  0.5851 -0.6587
 4127TIP3    H233873   4.058   2.845   5.979 -0.4870 -0.0635  0.7448
 4128TIP3   OH233874   0.570   1.559   5.429  0.0043  0.1477  0.2617
 4128TIP3    H133875   0.655   1.555   5.474  0.7885 -1.0632 -1.2196
 4128TIP3    H233876   0.535   1.471   5.436 -0.1499  0.1006 -0.9062
 4129TIP3   OH233877   5.752   2.103  11.991  1.0217 -0.2109 -0.2644
 4129TIP3    H133878   5.675   2.082  11.937 -1.2664  2.8850  1.4502
 4129TIP3    H233879   5.759   2.030  12.052 -0.4266 -0.7102 -0.6449
 4130TIP3   OH233880   6.429   0.793  13.214  0.1374  0.0660  0.7881
 4130TIP3    H133881   6.523   0.781  13.225  0.3764  1.1679  0.0779
 4130TIP3    H233882   6.416   0.887  13.213 -1.0592 -0.0695  1.4644
 4131TIP3   OH233883   3.125   2.156   2.928 -0.0205 -0.1534 -0.7814
 4131TIP3    H133884   3.186   2.223   2.958 -0.4486  0.5875 -1.5234
 4131TIP3    H233885   3.051   2.205   2.892 -0.4495 -1.0278 -1.1182
 4132TIP3   OH233886   6.602   5.849  14.851 -0.3865 -0.7422 -0.3819
 4132TIP3    H133887   6.681   5.850  14.904  0.3828  0.0124 -1.4946
 4132TIP3    H233888   6.602   5.763  14.808 -0.3755 -0.8830 -0.1024
 4133TIP3   OH233889   3.979   4.342   4.219 -0.2356 -0.4399 -0.3878
 4133TIP3    H133890   4.075   4.343   4.214 -0.1440  0.3791  1.1459
 4133TIP3    H233891   3.954   4.434   4.222 -0.9656 -0.6611  0.8115
 4134TIP3   OH233892   0.658   0.816   0.837 -0.6118 -0.3694 -0.1877
 4134TIP3    H133893   0.705   0.886   0.884 -0.0776  0.5836 -2.0522
 4134TIP3    H233894   0.647   0.747   0.902  1.3097  0.3321  0.9674
 4135TIP3   OH233895   2.724   3.592  13.340  0.2159 -0.2870  0.1807
 4135TIP3    H133896   2.793   3.647  13.304 -0.5786  1.1021  0.7067
 4135TIP3    H233897   2.756   3.565  13.426 -0.7188  2.1836  1.4095
 4136TIP3   OH233898   2.707   2.860  13.763 -0.0341  0.2120 -0.3979
 4136TIP3    H133899   2.650   2.918  13.712 -2.1104 -1.2318  0.1481
 4136TIP3    H233900   2.660   2.845  13.845 -0.3901 -3.3305 -1.0707
 4137TIP3   OH233901   1.660   1.477   1.894  0.4919 -0.3487 -0.5350
 4137TIP3    H133902   1.583   1.523   1.929  1.2160 -0.0302  0.6873
 4137TIP3    H233903   1.723   1.547   1.877  0.8132 -0.6891 -0.7457
 4138TIP3   OH233904   0.351   0.897  13.946  0.1824  0.5952 -0.6085
 4138TIP3    H133905   0.329   0.859  13.861 -1.2495  0.8393 -0.3753
 4138TIP3    H233906   0.383   0.823  13.998 -3.3246 -0.6274  0.1138
 4139TIP3   OH233907   0.594   2.408   4.027 -0.3649  0.4497  0.7400
 4139TIP3    H133908   0.686   2.426   4.047  0.0080  0.6212 -0.9397
 4139TIP3    H233909   0.582   2.317   4.053  0.1948  0.5109  1.2479
 4140TIP3   OH233910   1.670   4.260   1.795  0.4557 -0.4491 -0.0109
 4140TIP3    H133911   1.650   4.182   1.846 -0.0627 -0.1733  0.2118
 4140TIP3    H233912   1.587   4.309   1.792  1.2174  1.0236  1.4488
 4141TIP3   OH233913   6.452   3.198  14.154  0.4551 -0.1211 -0.0910
 4141TIP3    H133914   6.401   3.118  14.170  0.1096  0.2947  1.0120
 4141TIP3    H233915   6.465   3.235  14.241  1.0049  0.7933 -0.5494
 4142TIP3   OH233916   1.367   6.250  16.599 -0.1532 -0.2414 -0.4566
 4142TIP3    H133917   1.444   6.291  16.639  0.2909  0.3321 -1.8189
 4142TIP3    H233918   1.335   6.189  16.664  1.1284 -0.0661  0.3606
 4143TIP3   OH233919   0.790   3.537  13.744  0.0337 -0.3803  0.4191
 4143TIP3    H133920   0.785   3.632  13.730 -1.8955 -0.4515  0.3934
 4143TIP3    H233921   0.855   3.526  13.813  1.2020  0.8505 -0.4231
 4144TIP3   OH233922   0.403   3.690   6.233 -0.7233  0.2687  0.0064
 4144TIP3    H133923   0.374   3.779   6.249  0.0367  0.7467 -1.1633
 4144TIP3    H233924   0.438   3.691   6.144  1.3444 -0.6644  0.7487
 4145TIP3   OH233925   0.964   3.227  12.886 -0.1379  0.1739  0.0663
 4145TIP3    H133926   0.947   3.152  12.943 -0.5021 -0.4159 -0.7827
 4145TIP3    H233927   1.005   3.292  12.942 -0.3598 -0.4405  0.9579
 4146TIP3   OH233928   0.360   1.558   5.254 -0.0443 -0.6058  0.3420
 4146TIP3    H133929   0.431   1.587   5.311  0.3041  1.5921 -1.0941
 4146TIP3    H233930   0.307   1.637   5.240 -1.9463 -1.8504  0.1783
 4147TIP3   OH233931   1.650   1.675   2.935  0.4581  0.3799  0.6960
 4147TIP3    H133932   1.647   1.585   2.904  1.2041  0.6737 -0.2742
 4147TIP3    H233933   1.649   1.729   2.856 -0.6622  1.2716  1.2651
 4148TIP3   OH233934   4.979   2.005   3.234  0.0037 -0.3938  0.7000
 4148TIP3    H133935   4.998   2.090   3.273  1.3047  0.5987 -1.8542
 4148TIP3    H233936   4.920   2.024   3.162  2.6918 -1.0899 -1.8603
 4149TIP3   OH233937   2.423   3.564   4.153  0.0085 -0.2085  0.3336
 4149TIP3    H133938   2.475   3.516   4.217 -0.5847  1.2062  1.9622
 4149TIP3    H233939   2.447   3.526   4.068  2.0543 -1.0186  1.2227
 4150TIP3   OH233940   5.988   3.240  14.657 -0.2719 -0.3908 -0.0016
 4150TIP3    H133941   5.958   3.178  14.591  1.5507 -3.9265  2.1591
 4150TIP3    H233942   6.082   3.248  14.641 -0.7120  4.3119 -1.9051
 4151TIP3   OH233943   1.132   2.722  15.363  0.3501  0.0677 -0.1720
 4151TIP3    H133944   1.068   2.789  15.386 -0.1051 -0.7351  1.0072
 4151TIP3    H233945   1.214   2.771  15.352 -0.4447  1.1225 -1.8305
 4152TIP3   OH233946   5.470   4.219  16.871 -0.2348  0.2819 -0.1664
 4152TIP3    H133947   5.467   4.274  16.792 -1.3515 -0.9141 -0.9972
 4152TIP3    H233948   5.384   4.231  16.911 -0.6086 -1.0465 -0.5198
 4153TIP3   OH233949   6.497   1.256  14.412 -0.3880 -0.0085 -0.2549
 4153TIP3    H133950   6.533   1.226  14.328  1.1601 -3.2160  1.4029
 4153TIP3    H233951   6.409   1.285  14.391  0.0767 -0.3472 -3.0477
 4154TIP3   OH233952   1.802   1.536  14.571 -0.3270  0.3377 -0.2672
 4154TIP3    H133953   1.745   1.462  14.549 -0.6126  0.7307 -0.8334
 4154TIP3    H233954   1.802   1.591  14.493 -0.7846  1.3709  0.4411
 4155TIP3   OH233955   1.915   1.493  15.594  0.0036  0.3520  0.2168
 4155TIP3    H133956   1.983   1.505  15.527  0.7815  0.3421  0.9978
 4155TIP3    H233957   1.855   1.566  15.580 -0.2778 -0.0663 -0.9814
 4156TIP3   OH233958   6.018   2.654   5.114  0.5954  0.2885 -0.2444
 4156TIP3    H133959   6.006   2.670   5.020 -1.4915  3.7225  0.4051
 4156TIP3    H233960   6.103   2.693   5.133  0.6821  0.2823 -0.6009
 4157TIP3   OH233961   4.115   5.883  14.496 -0.0625 -0.0085 -0.4037
 4157TIP3    H133962   4.034   5.910  14.539  0.2208  0.4628 -0.1640
 4157TIP3    H233963   4.114   5.787  14.501 -0.3742  0.0183  0.0291
 4158TIP3   OH233964   3.290   6.398  13.899 -0.7144  0.2713 -0.1183
 4158TIP3    H133965   3.306   6.454  13.975 -1.8584 -0.4110  0.6738
 4158TIP3    H233966   3.232   6.330  13.933 -1.4312  0.0781 -1.6634
 4159TIP3   OH233967   5.522   0.453  14.314 -0.0550  0.4472  0.6018
 4159TIP3    H133968   5.445   0.415  14.272  0.5996  0.6135 -0.8070
 4159TIP3    H233969   5.582   0.473  14.242  1.5746 -0.2514  1.6987
 4160TIP3   OH233970   1.326   2.029   0.668  0.1433 -0.4975 -0.1587
 4160TIP3    H133971   1.328   2.054   0.760 -1.7812 -0.0798 -0.2048
 4160TIP3    H233972   1.237   1.997   0.653 -0.3648  1.6718 -2.4320
 4161TIP3   OH233973   4.220   6.495   6.443 -0.2056  0.3111  0.3184
 4161TIP3    H133974   4.290   6.560   6.435 -0.8527  1.2353  1.7185
 4161TIP3    H233975   4.140   6.546   6.439 -0.7465 -0.4909  0.7354
 4162TIP3   OH233976   3.574   5.968  15.569  0.0792 -0.0594  0.1999
 4162TIP3    H133977   3.661   5.978  15.608 -0.3199  1.6941  0.7162
 4162TIP3    H233978   3.523   5.921  15.636  0.7643 -1.7507 -0.3912
 4163TIP3   OH233979   3.043   6.680   4.908 -0.0560 -0.1310 -0.0213
 4163TIP3    H133980   3.030   6.634   4.991  0.6062  0.5800  0.4946
 4163TIP3    H233981   3.008   6.621   4.842 -1.4094 -0.3356  0.8444
 4164TIP3   OH233982   6.105   1.992   1.401 -0.1441 -0.5493  0.5368
 4164TIP3    H133983   6.105   1.911   1.351  1.0802  0.2730 -0.8978
 4164TIP3    H233984   6.051   2.052   1.350  0.1127 -0.0478  0.8414
 4165TIP3   OH233985   1.647   2.687   2.924  0.0722  0.6620  0.1429
 4165TIP3    H133986   1.723   2.649   2.881 -0.5582 -1.8384  1.0856
 4165TIP3    H233987   1.643   2.776   2.890  1.8017  0.0051 -2.0290
 4166TIP3   OH233988   5.670   5.688   6.152  0.7007  0.5317 -0.1313
 4166TIP3    H133989   5.761   5.718   6.141  0.6175  0.0636 -2.7564
 4166TIP3    H233990   5.622   5.766   6.178  1.7205  0.9551  0.5451
 4167TIP3   OH233991   1.588   1.581   4.101  0.5736 -0.4903 -0.5375
 4167TIP3    H133992   1.579   1.673   4.124  0.8513 -1.0834  2.3870
 4167TIP3    H233993   1.653   1.579   4.030  2.3817  1.4172  0.9609
 4168TIP3   OH233994   0.985   3.501   4.349 -0.1724  0.2937 -0.0865
 4168TIP3    H133995   0.907   3.494   4.293  1.9304  0.0155 -3.2494
 4168TIP3    H233996   1.001   3.595   4.356 -1.3657  0.4156  1.5726
 4169TIP3   OH233997   0.755   4.292   0.894 -0.4352 -0.4579  0.3125
 4169TIP3    H133998   0.674   4.255   0.860  0.2476 -2.8300  1.0549
 4169TIP3    H233999   0.730   4.377   0.929 -2.5815 -1.0650  0.3937
 4170TIP3   OH234000   0.750   3.780   5.642 -0.1103  0.2911  0.6004
 4170TIP3    H134001   0.735   3.856   5.697 -0.1333  0.0847  0.8821
 4170TIP3    H234002   0.683   3.717   5.669 -0.3698  0.3289  0.0679
 4171TIP3   OH234003   2.785   4.133  13.736 -0.0247 -0.7451  0.2053
 4171TIP3    H134004   2.776   4.070  13.664  0.1733 -1.2488  0.6173
 4171TIP3    H234005   2.717   4.109  13.798 -0.6214  0.1010 -0.1074
 4172TIP3   OH234006   6.422   2.195  14.539  0.9530  0.2659 -0.0160
 4172TIP3    H134007   6.381   2.281  14.539  1.3439  0.4734 -1.3332
 4172TIP3    H234008   6.505   2.208  14.494  0.0514 -1.2301 -2.2693
 4173TIP3   OH234009   2.694   0.794   5.561  0.2723  0.0949 -0.2093
 4173TIP3    H134010   2.653   0.881   5.565  0.1434  0.0028  0.5595
 4173TIP3    H234011   2.748   0.797   5.482 -0.9733  0.3223 -1.0832
 4174TIP3   OH234012   1.810   3.680   5.029  0.2394 -0.3488 -0.0807
 4174TIP3    H134013   1.879   3.632   5.075  0.1110 -1.2391 -0.7890
 4174TIP3    H234014   1.798   3.760   5.081  1.6218 -0.2911  0.1877
 4175TIP3   OH234015   3.816   4.299  10.807 -0.6614  0.3275 -0.0095
 4175TIP3    H134016   3.771   4.272  10.887 -1.5774  0.2377 -0.5428
 4175TIP3    H234017   3.885   4.359  10.837 -0.0853 -0.7760  0.9756
 4176TIP3   OH234018   1.642   3.333   5.589  0.1331  0.1757 -0.2411
 4176TIP3    H134019   1.679   3.387   5.520  0.5595  0.7304  0.4105
 4176TIP3    H234020   1.671   3.244   5.568 -2.2706 -0.2125 -2.4770
 4177TIP3   OH234021   5.643   6.597  16.229  0.2081 -0.4693  0.1726
 4177TIP3    H134022   5.728   6.555  16.217 -0.0045 -1.1914  1.0544
 4177TIP3    H234023   5.582   6.543  16.179 -0.0218 -1.0830  1.0865
 4178TIP3   OH234024   4.012   5.507   0.058 -0.1733 -0.5328  0.6293
 4178TIP3    H134025   4.056   5.467   0.134  0.1131  0.0663  0.7858
 4178TIP3    H234026   4.070   5.488  -0.016 -1.7153 -3.4515  0.0013
 4179TIP3   OH234027   6.683   1.092  14.565  0.6986 -0.3159 -0.3918
 4179TIP3    H134028   6.611   1.136  14.521  1.3082 -0.6225 -1.7380
 4179TIP3    H234029   6.685   1.004  14.528 -0.1256 -1.3470  1.8365
 4180TIP3   OH234030   5.914   2.325   4.785  0.3297 -0.1542  0.0944
 4180TIP3    H134031   5.860   2.346   4.708 -0.7909 -1.4553  0.4872
 4180TIP3    H234032   5.899   2.231   4.800  1.5778 -0.2189  1.1108
 4181TIP3   OH234033   4.827   1.596  12.045  0.1253  0.1250  0.2377
 4181TIP3    H134034   4.780   1.608  11.962  2.1118  0.2970 -0.9302
 4181TIP3    H234035   4.869   1.681  12.060 -0.3604  0.1454  1.5283
 4182TIP3   OH234036   4.188   3.136   1.837 -0.0196 -0.3971  0.0641
 4182TIP3    H134037   4.225   3.209   1.888  1.4973 -0.4107 -0.9712
 4182TIP3    H234038   4.101   3.124   1.874  0.5275  0.4686  1.7716
 4183TIP3   OH234039   3.269   6.664  12.727  0.0985 -0.0901 -0.4878
 4183TIP3    H134040   3.316   6.585  12.755  0.8439 -0.3661 -2.3833
 4183TIP3    H234041   3.337   6.723  12.694 -0.5817  0.8022 -0.3253
 4184TIP3   OH234042   3.368   3.357   4.462 -0.1436  0.6031  0.1825
 4184TIP3    H134043   3.418   3.322   4.389 -0.3418 -0.3515  0.4870
 4184TIP3    H234044   3.343   3.445   4.435  2.5915  1.5686  0.4337
 4185TIP3   OH234045   3.902   2.452   5.083  0.5361  0.5723  0.4831
 4185TIP3    H134046   3.818   2.488   5.113 -0.5019  0.0194 -1.5485
 4185TIP3    H234047   3.879   2.367   5.044  2.0304  0.4344 -0.1631
 4186TIP3   OH234048   0.534   3.288  14.596 -0.4932 -0.3588 -0.0463
 4186TIP3    H134049   0.553   3.200  14.563  0.4029 -0.1143 -0.1978
 4186TIP3    H234050   0.614   3.315  14.641 -1.2512 -0.1913  1.2692
 4187TIP3   OH234051   2.131   6.539  11.677  0.2256  0.0172 -0.3554
 4187TIP3    H134052   2.222   6.526  11.650  0.3030 -1.0197  0.3655
 4187TIP3    H234053   2.084   6.466  11.638 -0.0569 -0.2204  0.4230
 4188TIP3   OH234054   5.962   1.708   5.507 -0.0553  0.2069  0.6733
 4188TIP3    H134055   5.911   1.649   5.562 -0.7631 -0.0812 -0.2876
 4188TIP3    H234056   5.923   1.794   5.523  0.0893  0.2141  1.0158
 4189TIP3   OH234057   5.177   3.960   2.792  0.2764  0.3578  0.2481
 4189TIP3    H134058   5.174   4.054   2.809 -2.1770  0.1138  1.6180
 4189TIP3    H234059   5.088   3.938   2.764  1.1462 -1.3700 -1.3728
 4190TIP3   OH234060   3.574   4.133   0.726 -0.6023 -0.0681  0.3672
 4190TIP3    H134061   3.518   4.202   0.763 -1.5150  0.0740 -1.1952
 4190TIP3    H234062   3.602   4.168   0.642 -0.0245 -1.0861  0.1267
 4191TIP3   OH234063   4.041   0.903   1.852  0.3580  0.2686 -0.2448
 4191TIP3    H134064   4.034   0.990   1.812 -0.3829 -0.5926 -2.0622
 4191TIP3    H234065   4.097   0.853   1.793  1.3822 -0.3246  1.1575
 4192TIP3   OH234066   1.844   3.616   0.335 -0.2257  0.5332 -0.0871
 4192TIP3    H134067   1.907   3.545   0.323  0.7765  1.4190 -0.2023
 4192TIP3    H234068   1.828   3.650   0.247 -1.4562 -0.1545 -0.1527
 4193TIP3   OH234069   4.616   1.160  11.722 -0.3163  0.2483  0.2982
 4193TIP3    H134070   4.688   1.192  11.776 -1.5283  0.5849  1.7796
 4193TIP3    H234071   4.636   1.068  11.706  0.6056  0.4281  0.3917
 4194TIP3   OH234072   0.449   6.343  11.251 -0.1428 -0.4124  0.0716
 4194TIP3    H134073   0.459   6.360  11.345 -2.9849 -0.6241  0.5097
 4194TIP3    H234074   0.485   6.421  11.208 -0.6477  0.6331  1.4648
 4195TIP3   OH234075   2.188   5.396   4.323  0.2926 -0.5025  0.0407
 4195TIP3    H134076   2.180   5.449   4.243 -1.5543 -1.9343 -0.8064
 4195TIP3    H234077   2.105   5.408   4.368  0.2125 -1.8823  0.3079
 4196TIP3   OH234078   5.620   5.434  13.684  0.3685  0.3702 -0.1887
 4196TIP3    H134079   5.640   5.361  13.626 -2.3036 -1.1617  0.6377
 4196TIP3    H234080   5.705   5.473  13.704  1.6969 -1.2224 -2.2680
 4197TIP3   OH234081   4.829   3.632  16.372 -0.3033  0.2070 -0.5970
 4197TIP3    H134082   4.787   3.703  16.323 -2.2056 -0.1891  0.3575
 4197TIP3    H234083   4.881   3.586  16.306 -0.1131  1.6670 -1.5171
 4198TIP3   OH234084   0.185   5.944   1.296 -0.3215 -0.2270 -0.1602
 4198TIP3    H134085   0.231   5.861   1.279 -1.1142 -0.7854  0.3292
 4198TIP3    H234086   0.186   5.953   1.391  0.1190  0.5492 -0.2301
 4199TIP3   OH234087   2.083   0.798   6.253 -0.3521  0.1607  0.1941
 4199TIP3    H134088   2.111   0.878   6.208  1.0136 -0.2326  0.2961
 4199TIP3    H234089   2.070   0.824   6.344 -1.3632  0.5726 -0.0582
 4200TIP3   OH234090   2.715   2.878  10.671  0.2008 -0.1104  0.0652
 4200TIP3    H134091   2.693   2.971  10.673 -0.5382 -0.1915 -1.9788
 4200TIP3    H234092   2.654   2.840  10.608  3.3366 -1.1088 -2.6761
 4201TIP3   OH234093   3.708   0.725   3.056  0.8964 -0.1789 -0.3392
 4201TIP3    H134094   3.701   0.646   3.110 -0.4689  0.2455  0.1485
 4201TIP3    H234095   3.675   0.796   3.111  1.1948  0.5811 -1.1041
 4202TIP3   OH234096   4.949   6.113  15.392 -0.0205 -0.1002 -0.6784
 4202TIP3    H134097   4.857   6.121  15.419  0.8611 -0.5223  2.9789
 4202TIP3    H234098   4.987   6.198  15.411  0.4954 -0.1092 -1.6155
 4203TIP3   OH234099   6.335   2.292  10.772  0.0935  0.4071  0.3693
 4203TIP3    H134100   6.278   2.269  10.699 -0.6082 -2.2068  1.6277
 4203TIP3    H234101   6.285   2.270  10.851  1.3700  1.7777  1.6567
 4204TIP3   OH234102   5.387   2.586   1.487  0.1460  0.4391 -0.0078
 4204TIP3    H134103   5.419   2.563   1.574 -0.3836  1.3090  0.4369
 4204TIP3    H234104   5.317   2.523   1.469  1.8949 -1.3642 -0.9161
 4205TIP3   OH234105   1.715   1.254  11.000  0.0349  0.0012 -0.1654
 4205TIP3    H134106   1.634   1.205  10.991 -0.3483  0.6810 -0.5128
 4205TIP3    H234107   1.701   1.311  11.076  0.3021 -0.0849 -0.0467
 4206TIP3   OH234108   0.789   4.144   4.246  0.0182  1.2154  0.1027
 4206TIP3    H134109   0.741   4.146   4.329 -0.6194  1.0020 -0.2557
 4206TIP3    H234110   0.772   4.229   4.206 -0.6190  0.8875 -0.3328
 4207TIP3   OH234111   1.008   4.764  14.992  0.2953 -0.6614  0.1157
 4207TIP3    H134112   1.095   4.750  14.954  0.9294  1.9357  0.4269
 4207TIP3    H234113   0.967   4.827  14.934 -0.5484 -0.2120  1.1735
 4208TIP3   OH234114   0.691   1.715   0.380 -0.1574  0.2626 -0.2268
 4208TIP3    H134115   0.627   1.783   0.401 -0.8390  0.1295 -1.7568
 4208TIP3    H234116   0.709   1.727   0.287 -0.7315 -1.9932 -0.6911
 4209TIP3   OH234117   6.254   2.874   0.991 -0.0898  0.3379 -0.2589
 4209TIP3    H134118   6.334   2.821   0.993 -0.3035  0.0163  1.3710
 4209TIP3    H234119   6.202   2.841   1.064 -2.0669  0.0408 -1.7265
 4210TIP3   OH234120   5.537   6.284   3.584 -0.7791  0.2191  0.1474
 4210TIP3    H134121   5.447   6.293   3.616 -0.9558  0.9068 -0.4836
 4210TIP3    H234122   5.574   6.371   3.595  0.0594 -0.2550  1.1026
 4211TIP3   OH234123   0.345   0.860  15.104  0.2281  0.1929  0.2255
 4211TIP3    H134124   0.323   0.886  15.194 -0.6536  0.8542 -0.1632
 4211TIP3    H234125   0.264   0.822  15.070  0.3648  0.5455 -0.5027
 4212TIP3   OH234126   1.257   3.663  16.631  0.2552  0.2474  0.7944
 4212TIP3    H134127   1.334   3.711  16.663 -0.7588  1.7485  1.0509
 4212TIP3    H234128   1.243   3.595  16.697  2.1659 -0.9781  0.0393
 4213TIP3   OH234129   5.755   4.620  16.850  0.0290 -0.6223  0.2889
 4213TIP3    H134130   5.783   4.531  16.832 -0.4429 -0.7915  0.3960
 4213TIP3    H234131   5.833   4.663  16.886  0.3787 -0.8631 -0.1792
 4214TIP3   OH234132   2.730   1.609   3.519 -0.5104  0.3310  0.3008
 4214TIP3    H134133   2.688   1.549   3.458  0.2615 -1.0088  1.0366
 4214TIP3    H234134   2.817   1.625   3.480 -1.0857  1.8995 -0.4529
 4215TIP3   OH234135   2.294   5.058   5.102  0.3515 -0.3813 -0.2017
 4215TIP3    H134136   2.268   4.980   5.053  2.0876 -1.4120  0.4082
 4215TIP3    H234137   2.296   5.128   5.037  0.1921 -1.1775 -1.0845
 4216TIP3   OH234138   1.987   0.632  11.266 -0.1077 -0.0147  0.3401
 4216TIP3    H134139   1.899   0.600  11.248  0.7506 -1.3219 -1.9144
 4216TIP3    H234140   2.043   0.555  11.260  1.3808  1.0301  0.0866
 4217TIP3   OH234141   3.806   4.137   3.717  0.6615 -0.0367 -0.3010
 4217TIP3    H134142   3.732   4.167   3.771  0.3292  1.6334 -1.6197
 4217TIP3    H234143   3.778   4.152   3.627  0.7691 -3.7789 -1.1254
 4218TIP3   OH234144   1.606   2.971   0.320 -0.1150 -0.2230 -0.0112
 4218TIP3    H134145   1.572   3.009   0.239  0.0405 -0.0469  0.0063
 4218TIP3    H234146   1.627   2.880   0.296  0.1948 -0.0920 -0.2429
 4219TIP3   OH234147   2.666   0.775   2.022  0.3606 -0.2121 -0.0381
 4219TIP3    H134148   2.750   0.756   1.979 -0.1243 -0.4849 -0.8846
 4219TIP3    H234149   2.632   0.852   1.977  0.6850  0.6180  1.0823
 4220TIP3   OH234150   0.371   5.018  15.622 -0.3380 -0.0811  0.1898
 4220TIP3    H134151   0.299   4.996  15.562  0.0526  0.1347 -0.3672
 4220TIP3    H234152   0.445   4.969  15.589  0.4001  1.5478 -0.7202
 4221TIP3   OH234153   0.297   3.250  11.042 -0.2201  0.9479  0.3799
 4221TIP3    H134154   0.287   3.316  10.974  2.1229  1.5309  0.5247
 4221TIP3    H234155   0.349   3.180  11.000 -0.8092  0.2027  0.8664
 4222TIP3   OH234156   2.791   2.346  14.695 -0.3524  0.1212 -0.1736
 4222TIP3    H134157   2.809   2.275  14.756 -1.2722 -0.8814 -1.0555
 4222TIP3    H234158   2.700   2.370  14.711 -0.1034  0.9909 -0.0069
 4223TIP3   OH234159   4.334   5.327  13.462  0.1395 -0.1273 -0.4227
 4223TIP3    H134160   4.333   5.390  13.534  0.0804 -0.5671 -0.0316
 4223TIP3    H234161   4.245   5.290  13.461  0.5629 -1.2147  0.2654
 4224TIP3   OH234162   4.850   0.831  11.696  0.3270  0.3675  0.4193
 4224TIP3    H134163   4.859   0.921  11.728 -2.8112  0.5611  1.0775
 4224TIP3    H234164   4.822   0.841  11.605  2.9886 -0.0941 -0.5410
 4225TIP3   OH234165   1.389   5.207   0.770  0.8075  0.3967  0.6874
 4225TIP3    H134166   1.298   5.214   0.798  1.0692 -0.4865  1.8555
 4225TIP3    H234167   1.434   5.166   0.845  1.8937 -0.4602 -0.3924
 4226TIP3   OH234168   5.897   0.287  13.275 -0.1570  0.7457 -0.1595
 4226TIP3    H134169   5.932   0.198  13.278 -0.6089  0.5016 -1.5823
 4226TIP3    H234170   5.924   0.326  13.358 -1.2967 -1.1954  1.1844
 4227TIP3   OH234171   3.268   4.248  11.790 -0.4417  0.1809 -0.5579
 4227TIP3    H134172   3.219   4.293  11.721  0.7377  0.6806 -1.0891
 4227TIP3    H234173   3.238   4.289  11.871 -0.2412  1.1204 -0.9460
 4228TIP3   OH234174   6.549   0.548   5.204 -0.0576  0.4426  0.0493
 4228TIP3    H134175   6.543   0.597   5.122 -0.3711  1.9474  0.9201
 4228TIP3    H234176   6.467   0.568   5.250  0.6392  0.6582  1.2487
 4229TIP3   OH234177   0.616   3.374  11.334 -0.6723  0.1917  0.5871
 4229TIP3    H134178   0.702   3.340  11.309 -0.6219 -0.7382  1.9501
 4229TIP3    H234179   0.611   3.359  11.428 -2.3553  0.1990  0.5142
 4230TIP3   OH234180   2.930   2.191   5.779 -0.5314 -0.5138 -0.3477
 4230TIP3    H134181   2.876   2.116   5.804 -0.1062 -0.8311 -0.3738
 4230TIP3    H234182   2.987   2.205   5.854  0.4620 -1.2054 -0.9512
 4231TIP3   OH234183   2.146   5.206   5.266  0.3450  0.3150 -0.1679
 4231TIP3    H134184   2.202   5.162   5.203 -0.8533 -0.8465 -0.4818
 4231TIP3    H234185   2.199   5.278   5.300  1.0629  0.9273 -2.4050
 4232TIP3   OH234186   3.342   1.096   0.935  0.6225  0.1393  0.1609
 4232TIP3    H134187   3.356   1.172   0.878 -1.5977  0.1624 -0.4379
 4232TIP3    H234188   3.304   1.030   0.877 -1.2347 -0.0218  1.4921
 4233TIP3   OH234189   4.788   2.416  14.746 -0.1666  0.6734  0.0650
 4233TIP3    H134190   4.765   2.478  14.677  1.8012 -0.5017 -1.8019
 4233TIP3    H234191   4.881   2.398  14.732 -0.5547 -2.4648  0.6324
 4234TIP3   OH234192   1.960   3.032   1.879  0.3630 -0.2806  0.8305
 4234TIP3    H134193   2.008   2.982   1.813  1.0181 -1.7327  2.3254
 4234TIP3    H234194   1.877   3.054   1.837  1.7331  1.1328 -1.3575
 4235TIP3   OH234195   6.814   3.914   1.257 -0.6073  0.5047 -0.4629
 4235TIP3    H134196   6.769   3.830   1.251 -1.4496  0.9855 -1.1710
 4235TIP3    H234197   6.892   3.896   1.309 -0.4166 -0.8696 -1.1797
 4236TIP3   OH234198   5.196   5.627  16.390  0.5750 -0.1072  0.5902
 4236TIP3    H134199   5.251   5.549  16.381  0.9316  0.2675 -0.7020
 4236TIP3    H234200   5.144   5.611  16.469  1.0216 -1.4112  0.6423
 4237TIP3   OH234201   1.886   2.641  16.969  0.0060 -0.3806 -0.0452
 4237TIP3    H134202   1.853   2.567  17.021  0.4685 -1.0487 -0.6771
 4237TIP3    H234203   1.981   2.630  16.970  0.1993  1.0818  1.1115
 4238TIP3   OH234204   2.590   1.899  14.282 -0.3498 -0.6186  0.1782
 4238TIP3    H134205   2.613   1.826  14.225 -1.6077  1.0264 -2.6765
 4238TIP3    H234206   2.504   1.876  14.317  0.0206 -1.2239  0.7195
 4239TIP3   OH234207   0.356   2.092  11.494  0.3403  0.1080 -0.0533
 4239TIP3    H134208   0.299   2.109  11.569 -0.0696 -1.3471 -0.0107
 4239TIP3    H234209   0.429   2.041  11.530  0.9505  0.7311 -0.3744
 4240TIP3   OH234210   5.751   2.888   0.584 -0.2599  0.0947  0.1481
 4240TIP3    H134211   5.669   2.838   0.589  0.8730 -1.8606 -0.0519
 4240TIP3    H234212   5.723   2.979   0.598 -2.4383 -0.5159  0.2614
 4241TIP3   OH234213   3.014   2.562   2.755  0.3247 -0.1622  0.1498
 4241TIP3    H134214   2.927   2.598   2.775 -0.0943 -0.5227 -0.9365
 4241TIP3    H234215   3.052   2.623   2.692 -1.5633 -2.8292 -4.0559
 4242TIP3   OH234216   5.926   6.563  11.792 -0.2520 -0.2200 -0.6265
 4242TIP3    H134217   5.837   6.529  11.781 -0.8364  0.2579  1.9439
 4242TIP3    H234218   5.979   6.513  11.729 -2.4258  0.1489 -2.9199
 4243TIP3   OH234219   4.953   0.950  14.102  0.3811 -0.1527  0.2288
 4243TIP3    H134220   5.007   1.029  14.094  2.3886 -1.5062 -0.3769
 4243TIP3    H234221   4.865   0.978  14.075  0.8972  1.9700  0.5436
 4244TIP3   OH234222   3.982   3.615  16.862  0.0306  0.1399 -0.4773
 4244TIP3    H134223   4.020   3.536  16.899 -2.7430 -0.6719  0.9476
 4244TIP3    H234224   3.954   3.667  16.938 -0.3220  1.3632 -1.4049
 4245TIP3   OH234225   0.930   6.228  12.051 -0.5197 -0.1000 -0.2359
 4245TIP3    H134226   0.860   6.286  12.080  0.1460 -0.3632  2.1360
 4245TIP3    H234227   0.934   6.160  12.119  2.4732  0.3016  0.1408
 4246TIP3   OH234228   4.492   3.129  11.604 -0.0177  0.2562 -0.3907
 4246TIP3    H134229   4.555   3.057  11.612 -0.2423  0.0874 -0.1273
 4246TIP3    H234230   4.504   3.180  11.684  0.1098  0.4904 -0.5567
 4247TIP3   OH234231   5.637   5.552  15.417  0.5029 -0.2078 -0.0334
 4247TIP3    H134232   5.704   5.494  15.453  0.7493 -0.1743 -0.4322
 4247TIP3    H234233   5.622   5.519  15.329 -0.0538 -0.2516  0.0762
 4248TIP3   OH234234   3.915   2.612   1.587 -0.6491  0.3065 -0.0533
 4248TIP3    H134235   3.902   2.595   1.681 -2.7263  1.0850 -0.1456
 4248TIP3    H234236   3.850   2.679   1.566 -1.3036 -0.9609 -2.4023
 4249TIP3   OH234237   2.118   3.681  12.844 -0.3992  0.2713  0.0882
 4249TIP3    H134238   2.084   3.734  12.916  0.4532  2.3366 -0.9377
 4249TIP3    H234239   2.180   3.621  12.885 -1.2493  0.1657  1.2738
 4250TIP3   OH234240   5.921   2.221  10.773  0.5878 -1.2380 -0.5740
 4250TIP3    H134241   5.842   2.272  10.793 -0.8871 -3.0637 -1.4689
 4250TIP3    H234242   5.922   2.214  10.678  1.9375 -1.1199 -0.5857
 4251TIP3   OH234243   0.739   2.226  16.536 -0.0322  0.1594  0.8663
 4251TIP3    H134244   0.806   2.289  16.562 -0.1950  1.0050 -0.6871
 4251TIP3    H234245   0.663   2.279  16.514 -0.7217 -0.7000  1.1048
 4252TIP3   OH234246   6.070   4.910  10.692  0.0141  0.1276  0.3329
 4252TIP3    H134247   6.101   4.871  10.610 -0.9969  1.2766 -0.6306
 4252TIP3    H234248   6.102   5.000  10.690  1.2251 -0.2231  1.9278
 4253TIP3   OH234249   4.867   3.508   5.889 -0.7496  0.5223  0.0308
 4253TIP3    H134250   4.829   3.457   5.818  0.8243  1.0909 -1.2810
 4253TIP3    H234251   4.868   3.598   5.856 -0.3846  0.8724  0.9599
 4254TIP3   OH234252   3.078   2.590  11.870  0.1932 -0.1980  0.1376
 4254TIP3    H134253   3.141   2.661  11.855  0.6868  0.1725  3.1622
 4254TIP3    H234254   3.119   2.513  11.833  1.0012  0.5987 -0.6736
 4255TIP3   OH234255   5.267   2.715  13.924 -0.2547 -0.2283 -0.0021
 4255TIP3    H134256   5.296   2.775  13.993  0.3567 -0.1443 -0.3237
 4255TIP3    H234257   5.344   2.704  13.868 -0.4245 -1.1238 -0.0793
 4256TIP3   OH234258   0.099   4.784  13.867  0.8326  0.0627 -0.0285
 4256TIP3    H134259   0.124   4.697  13.834 -0.3662  0.2404 -1.5237
 4256TIP3    H234260   0.154   4.845  13.818 -1.5502  0.3852 -2.5646
 4257TIP3   OH234261   0.930   4.405  15.536  0.1673 -0.4287  0.2209
 4257TIP3    H134262   0.927   4.478  15.474  1.6431 -0.0800  0.5270
 4257TIP3    H234263   0.860   4.346  15.507  0.5192 -0.0564 -1.4912
 4258TIP3   OH234264   2.790   5.237   3.376  0.0551  0.1219  0.0993
 4258TIP3    H134265   2.800   5.150   3.415 -1.0623 -0.3535 -0.6180
 4258TIP3    H234266   2.786   5.297   3.450 -2.0622 -0.7563  0.7757
 4259TIP3   OH234267   2.809   2.864   5.345 -0.3239 -0.6577 -0.1174
 4259TIP3    H134268   2.796   2.955   5.318 -1.2960 -1.1803 -1.5672
 4259TIP3    H234269   2.752   2.813   5.287 -0.4614 -2.1302  1.2309
 4260TIP3   OH234270   5.220   4.845  11.734 -0.4856 -0.6428 -0.2267
 4260TIP3    H134271   5.131   4.813  11.717 -0.2814 -0.8476 -0.9543
 4260TIP3    H234272   5.249   4.881  11.650 -0.3004  0.4638  0.2923
 4261TIP3   OH234273   0.235   1.822   3.703 -0.2011 -0.5560 -0.1437
 4261TIP3    H134274   0.269   1.773   3.777 -0.8481 -2.1353 -0.8507
 4261TIP3    H234275   0.254   1.767   3.627  1.3581  1.4709 -1.3130
 4262TIP3   OH234276   4.486   0.304  14.609  0.7517 -0.8093  0.1564
 4262TIP3    H134277   4.548   0.361  14.654  0.1030  0.6386 -0.7367
 4262TIP3    H234278   4.534   0.221  14.598  2.0430 -0.1533  0.6463
 4263TIP3   OH234279   6.170   4.720  16.116 -0.2242 -0.6460 -0.7747
 4263TIP3    H134280   6.179   4.643  16.172 -0.4568 -1.1637 -1.4344
 4263TIP3    H234281   6.095   4.767  16.153  2.2741  1.4784  2.1431
 4264TIP3   OH234282   5.031   2.181   1.981  0.9903  0.0828 -0.3780
 4264TIP3    H134283   5.067   2.094   1.996 -0.9323 -0.3828  2.4083
 4264TIP3    H234284   4.941   2.166   1.954  0.9333  1.1979 -0.8601
 4265TIP3   OH234285   6.271   5.636   5.596 -0.0041  0.1895 -0.5218
 4265TIP3    H134286   6.303   5.614   5.508  2.5536  0.8178  0.1675
 4265TIP3    H234287   6.275   5.731   5.600  3.1759  0.1083  1.2847
 4266TIP3   OH234288   5.101   0.801   0.694 -0.5800  0.4465 -0.1564
 4266TIP3    H134289   5.164   0.873   0.694 -1.2876  1.0836 -0.9853
 4266TIP3    H234290   5.020   0.839   0.729 -0.2579 -0.6169  1.8659
 4267TIP3   OH234291   3.521   0.787  16.552  0.2058 -0.4511  0.2579
 4267TIP3    H134292   3.515   0.708  16.606  1.3547 -1.3726 -0.8724
 4267TIP3    H234293   3.558   0.853  16.610  0.1195 -1.0181  0.9748
 4268TIP3   OH234294   1.640   4.391   4.510  0.2771  0.2683 -0.1464
 4268TIP3    H134295   1.612   4.362   4.423  1.2781 -0.8041 -0.1300
 4268TIP3    H234296   1.717   4.445   4.494 -0.0961  0.8544  0.0132
 4269TIP3   OH234297   1.635   4.519  10.692 -0.0414  0.6772  0.1299
 4269TIP3    H134298   1.642   4.438  10.741  1.9207  2.0207  2.2957
 4269TIP3    H234299   1.578   4.498  10.618 -1.3488 -2.0391  1.7731
 4270TIP3   OH234300   2.422   5.030   0.923  0.2549 -0.4621 -0.4413
 4270TIP3    H134301   2.422   5.033   1.018 -1.4170 -1.4650 -0.3685
 4270TIP3    H234302   2.484   4.959   0.901  1.6763  0.6621 -0.1960
 4271TIP3   OH234303   3.090   6.014  17.072  0.1893  0.1205 -0.7073
 4271TIP3    H134304   3.009   6.027  17.122  2.5622  1.9197  3.0956
 4271TIP3    H234305   3.128   5.934  17.107  0.4945 -0.2953 -1.9196
 4272TIP3   OH234306   5.718   2.380   6.092 -0.2635 -0.3664 -0.1476
 4272TIP3    H134307   5.696   2.375   6.185 -1.6179  0.7787 -0.3734
 4272TIP3    H234308   5.812   2.398   6.091 -0.8287  3.9126  1.2101
 4273TIP3   OH234309   5.445   6.637   5.177  0.0696  0.8745  0.1709
 4273TIP3    H134310   5.428   6.571   5.110  1.3128  1.2396 -0.5313
 4273TIP3    H234311   5.455   6.587   5.258  0.5870  0.2195 -0.2846
 4274TIP3   OH234312   6.676   3.364  14.110  0.1563  0.1191  0.0879
 4274TIP3    H134313   6.723   3.370  14.027  0.1043 -0.4390  0.0144
 4274TIP3    H234314   6.630   3.280  14.105 -0.1983  0.2858  0.4974
 4275TIP3   OH234315   2.407   3.074  15.670 -0.3326 -0.1822  0.6026
 4275TIP3    H134316   2.491   3.121  15.672  0.9434 -2.2899 -0.3051
 4275TIP3    H234317   2.417   3.004  15.734 -2.3316  0.8776  2.1851
 4276TIP3   OH234318   3.098   0.065  13.123  0.1852  0.1714 -0.2591
 4276TIP3    H134319   3.166   0.072  13.055  1.3942 -1.4667  0.7012
 4276TIP3    H234320   3.068  -0.026  13.117  0.1980  0.0500  1.2919
 4277TIP3   OH234321   6.309   1.810  10.454 -0.3618 -0.0479 -0.3690
 4277TIP3    H134322   6.388   1.863  10.443 -1.0030  1.0176  0.0264
 4277TIP3    H234323   6.242   1.872  10.483 -0.2422 -1.6454  4.0386
 4278TIP3   OH234324   5.872   0.862   2.560 -0.1894  0.4290 -0.2755
 4278TIP3    H134325   5.944   0.863   2.623 -1.5646 -1.0050  1.4139
 4278TIP3    H234326   5.915   0.872   2.475  1.8851  0.7312  0.7407
 4279TIP3   OH234327   3.889   1.063  12.089 -0.0381  0.2266  0.0218
 4279TIP3    H134328   3.810   1.107  12.058 -0.1119  1.0867  1.3997
 4279TIP3    H234329   3.944   1.133  12.124  0.8339 -0.5037  0.1432
 4280TIP3   OH234330   3.172   2.888  16.990  0.1364 -0.0654 -0.4048
 4280TIP3    H134331   3.230   2.934  17.050 -2.4782  1.1194  1.4135
 4280TIP3    H234332   3.184   2.795  17.010  0.8541  0.1964  0.4183
 4281TIP3   OH234333   5.569   2.942   3.543 -0.0233 -0.2731 -0.3805
 4281TIP3    H134334   5.593   2.995   3.467 -0.2946 -0.4835 -0.6144
 4281TIP3    H234335   5.479   2.967   3.563 -0.3653 -1.0588 -0.8592
 4282TIP3   OH234336   1.141   1.630   1.500  0.5352 -0.1483  0.3804
 4282TIP3    H134337   1.222   1.646   1.452  1.2252 -1.1620  1.1547
 4282TIP3    H234338   1.092   1.570   1.443  0.6512 -0.0967  0.2257
 4283TIP3   OH234339   3.801   5.584   3.652  0.2425 -0.1259  0.0527
 4283TIP3    H134340   3.749   5.599   3.572  0.2226  1.8369  0.3755
 4283TIP3    H234341   3.888   5.560   3.620  0.0916  0.1307 -0.5640
 4284TIP3   OH234342   1.833   3.711  12.778 -0.4280  0.7761  0.1094
 4284TIP3    H134343   1.794   3.660  12.707 -1.3074  1.7087 -0.1013
 4284TIP3    H234344   1.926   3.686  12.778 -0.6323 -0.0241 -0.6620
 4285TIP3   OH234345   0.890   5.947  13.472  0.5574  0.1752 -0.2367
 4285TIP3    H134346   0.941   5.991  13.540  0.0537  0.6472 -0.1602
 4285TIP3    H234347   0.908   5.854  13.486  0.8712  0.2968  0.2073
 4286TIP3   OH234348   2.438   2.326   0.880 -0.7996 -0.4783  0.4253
 4286TIP3    H134349   2.408   2.342   0.791  0.3471 -2.8648 -0.4604
 4286TIP3    H234350   2.437   2.231   0.890  2.8817 -0.5458  1.5451
 4287TIP3   OH234351   4.825   4.901   4.504  0.3319  0.0350  0.1706
 4287TIP3    H134352   4.881   4.877   4.579  1.4571 -0.3322 -0.7637
 4287TIP3    H234353   4.748   4.941   4.544  1.1708  0.3729  1.5103
 4288TIP3   OH234354   5.871   0.480  14.456  0.1321  0.0756 -0.0710
 4288TIP3    H134355   5.828   0.558  14.421  1.0809  0.5093 -0.3045
 4288TIP3    H234356   5.939   0.514  14.514 -1.7909 -0.6219  2.7993
 4289TIP3   OH234357   3.525   6.142   4.417  0.2079  0.1543 -0.2579
 4289TIP3    H134358   3.535   6.222   4.468 -0.1137  0.8290 -1.2154
 4289TIP3    H234359   3.561   6.073   4.473 -0.0305  0.8711  0.8244
 4290TIP3   OH234360   5.624   6.808  16.698 -0.2029 -0.7926  0.6024
 4290TIP3    H134361   5.592   6.886  16.743 -0.3121 -1.9826  2.7056
 4290TIP3    H234362   5.546   6.766  16.663 -0.2593 -0.5349  0.4168
 4291TIP3   OH234363   1.918   4.676   1.462  0.6729  0.1353  0.8941
 4291TIP3    H134364   1.940   4.623   1.385  0.7582  2.5225 -0.8715
 4291TIP3    H234365   1.997   4.675   1.516  1.1086 -0.5034  0.2551
 4292TIP3   OH234366   2.676   6.727   5.337  0.9233  0.4870 -0.4641
 4292TIP3    H134367   2.740   6.743   5.406  0.3807  0.0992  0.1382
 4292TIP3    H234368   2.665   6.812   5.294  0.4888  0.9971  0.6080
 4293TIP3   OH234369   1.222   0.832   4.588 -0.5851  0.5762  0.0931
 4293TIP3    H134370   1.256   0.849   4.500  0.5491 -0.8179  0.2338
 4293TIP3    H234371   1.270   0.893   4.644 -0.7186  0.8957 -0.1335
 4294TIP3   OH234372   0.856   2.503   2.236  0.5780  0.3667 -0.0492
 4294TIP3    H134373   0.828   2.414   2.259  1.8666  0.2100  1.0105
 4294TIP3    H234374   0.793   2.531   2.169 -0.3362 -1.0291  0.1812
 4295TIP3   OH234375   3.136   4.039  16.445  0.2418  0.1165 -0.0476
 4295TIP3    H134376   3.228   4.062  16.456  1.1332 -2.4335 -1.2341
 4295TIP3    H234377   3.110   4.002  16.530  0.8236 -0.6070 -0.1729
 4296TIP3   OH234378   5.074   0.420  16.211  0.1383  0.0779  0.1843
 4296TIP3    H134379   5.119   0.473  16.146  1.7218 -1.3233  0.0672
 4296TIP3    H234380   5.145   0.378  16.261 -1.0441 -0.5556  1.4018
 4297TIP3   OH234381   1.813   5.255  13.824 -0.0728 -0.1517  0.2805
 4297TIP3    H134382   1.737   5.308  13.803 -0.2046 -0.6527 -0.5545
 4297TIP3    H234383   1.888   5.310  13.800 -0.1548  0.4048  1.2589
 4298TIP3   OH234384   6.240   0.602   2.101 -0.4980 -0.2342 -0.0160
 4298TIP3    H134385   6.241   0.696   2.120  1.9657 -0.4637  1.3524
 4298TIP3    H234386   6.223   0.597   2.007 -0.1000  1.6189 -0.2248
 4299TIP3   OH234387   3.690   1.233   0.742 -0.7461 -0.2518  0.0149
 4299TIP3    H134388   3.669   1.286   0.665  0.0063  1.6909  1.0863
 4299TIP3    H234389   3.614   1.244   0.800 -0.0593  0.6639  0.7524
 4300TIP3   OH234390   0.726   4.591   3.449  0.2044 -0.2572  0.6404
 4300TIP3    H134391   0.799   4.532   3.438  0.7580  0.4218  0.5853
 4300TIP3    H234392   0.752   4.649   3.522  0.7641  1.4951 -0.8740
 4301TIP3   OH234393   1.708   4.663   1.209 -0.4832 -0.2993 -0.3449
 4301TIP3    H134394   1.766   4.617   1.149 -0.2757 -0.5588  0.0550
 4301TIP3    H234395   1.634   4.603   1.223  0.6144 -1.2974  1.5599
 4302TIP3   OH234396   6.816   4.802  11.742  0.0500 -0.2553  0.1920
 4302TIP3    H134397   6.755   4.753  11.687  1.1204 -1.9206  0.4255
 4302TIP3    H234398   6.884   4.834  11.681  0.1942 -0.4151  0.2690
 4303TIP3   OH234399   3.298   4.093  16.056 -0.4508  0.1330  0.2437
 4303TIP3    H134400   3.384   4.098  16.014 -1.3629 -1.8902 -2.0941
 4303TIP3    H234401   3.292   4.003  16.088 -1.6894  0.2186  0.3203
 4304TIP3   OH234402   3.288   0.116   3.530  0.2853  0.5964 -1.3300
 4304TIP3    H134403   3.337   0.196   3.548 -0.7748  1.0786 -0.4768
 4304TIP3    H234404   3.238   0.135   3.451 -0.9584  1.2729 -0.4118
 4305TIP3   OH234405   3.045   6.289   0.238 -0.0285  0.4496 -0.3757
 4305TIP3    H134406   2.952   6.285   0.217 -0.0521  0.5196 -0.2856
 4305TIP3    H234407   3.089   6.254   0.161 -0.0871  1.1360 -0.7278
 4306TIP3   OH234408   5.032   2.245   3.310 -0.2923 -0.4954 -0.1511
 4306TIP3    H134409   5.095   2.274   3.245 -0.3013  0.4309  0.2509
 4306TIP3    H234410   5.011   2.323   3.360  0.9345 -1.4782  2.0243
 4307TIP3   OH234411   1.804   5.773  11.274  0.0403 -0.6832 -0.2479
 4307TIP3    H134412   1.897   5.752  11.283  0.1954  0.2057  0.3054
 4307TIP3    H234413   1.781   5.818  11.356 -0.4891  0.5166 -1.0256
 4308TIP3   OH234414   6.284   0.730   0.464 -0.4987  0.0096 -0.0395
 4308TIP3    H134415   6.274   0.825   0.475 -2.5889 -0.1270 -0.2961
 4308TIP3    H234416   6.226   0.692   0.530  0.9321 -1.1399  0.6070
 4309TIP3   OH234417   3.187   2.480  13.761 -0.4360  0.2016 -0.7172
 4309TIP3    H134418   3.143   2.534  13.827 -0.4743  0.0047 -0.5803
 4309TIP3    H234419   3.262   2.533  13.732 -0.2422  0.1616 -0.2930
 4310TIP3   OH234420   5.068   5.195   6.341  0.3867 -0.0287  0.6079
 4310TIP3    H134421   4.999   5.257   6.364 -1.0080 -1.4778  0.4314
 4310TIP3    H234422   5.115   5.238   6.269 -0.8305  0.6454  0.1952
 4311TIP3   OH234423   1.891   2.507   5.352 -0.6280 -1.0150 -0.2974
 4311TIP3    H134424   1.970   2.543   5.311 -1.8215  1.4255 -0.6402
 4311TIP3    H234425   1.898   2.535   5.444 -1.8644  0.8291 -0.6977
 4312TIP3   OH234426   5.399   1.623   4.906  0.5775 -0.2027  0.3949
 4312TIP3    H134427   5.371   1.605   4.996  0.7431 -1.0700  0.2863
 4312TIP3    H234428   5.327   1.673   4.868 -0.0343 -0.8694  0.6521
 4313TIP3   OH234429   1.996   1.125   6.446 -0.1267 -0.6333  0.2305
 4313TIP3    H134430   1.940   1.186   6.496  1.0201  0.4720  0.2040
 4313TIP3    H234431   2.053   1.182   6.395 -0.4292 -1.7596 -1.4215
 4314TIP3   OH234432   4.193   6.813   1.129 -0.5397  0.2847 -0.3913
 4314TIP3    H134433   4.244   6.878   1.178 -2.0688  0.6557  0.8250
 4314TIP3    H234434   4.128   6.865   1.082  0.4015 -0.1462 -2.2215
 4315TIP3   OH234435   1.659   4.695   3.515  0.0385  0.0816 -0.0275
 4315TIP3    H134436   1.652   4.785   3.484  2.0077  0.1035 -0.5392
 4315TIP3    H234437   1.712   4.651   3.449  0.3668 -1.0775  0.9690
 4316TIP3   OH234438   0.336   1.643   4.412  0.3201 -0.3148  0.0590
 4316TIP3    H134439   0.278   1.583   4.458 -2.0450 -0.6580 -2.9954
 4316TIP3    H234440   0.374   1.590   4.342  2.5978  0.4987  0.5866
 4317TIP3   OH234441   3.967   5.460  16.071 -0.1707  0.6330  0.0006
 4317TIP3    H134442   3.989   5.372  16.101 -1.1707  0.6322  0.8169
 4317TIP3    H234443   4.007   5.519  16.135 -1.1167  0.6861  0.5638
 4318TIP3   OH234444   4.059   4.509  11.905 -0.3677 -0.8808 -0.2506
 4318TIP3    H134445   4.022   4.468  11.983 -1.6164 -3.1183 -1.9006
 4318TIP3    H234446   4.004   4.585  11.888 -0.9168 -1.1546  0.2937
 4319TIP3   OH234447   0.799   1.634  12.655  0.5315  0.1266 -0.0666
 4319TIP3    H134448   0.807   1.652  12.749  0.7048  0.6031 -0.1717
 4319TIP3    H234449   0.861   1.563  12.639  1.3020  0.7785 -0.0232
 4320TIP3   OH234450   1.883   2.667   1.575 -0.5555 -0.4452  0.5902
 4320TIP3    H134451   1.904   2.675   1.668  0.5692  0.4635  0.2888
 4320TIP3    H234452   1.923   2.584   1.548 -0.5244 -0.5079  0.8284
 4321TIP3   OH234453   0.876   1.494   5.558  0.2920 -0.1801 -0.0410
 4321TIP3    H134454   0.791   1.482   5.599  0.0142 -1.6272 -0.9629
 4321TIP3    H234455   0.932   1.428   5.599  1.0404  0.8623  0.6716
 4322TIP3   OH234456   1.621   6.133  16.451  0.1296 -0.0915  0.9316
 4322TIP3    H134457   1.634   6.153  16.358 -1.6424 -1.3335  0.3539
 4322TIP3    H234458   1.542   6.182  16.475 -0.4429 -1.1360  1.2614
 4323TIP3   OH234459   0.264   5.581  14.681  0.3171  0.2804  0.2693
 4323TIP3    H134460   0.226   5.575  14.594  0.4985 -0.7252  0.2568
 4323TIP3    H234461   0.314   5.662  14.680  2.1328 -0.7942 -1.2787
 4324TIP3   OH234462   5.560   5.757   4.597  0.4510 -0.7822 -0.1070
 4324TIP3    H134463   5.624   5.828   4.608  0.2390 -0.3971 -1.2128
 4324TIP3    H234464   5.575   5.726   4.508 -1.0010 -0.5885 -0.4366
 4325TIP3   OH234465   5.141   1.519   2.858  0.3254  0.3426  0.4007
 4325TIP3    H134466   5.154   1.582   2.930 -0.2249 -0.4452  1.2059
 4325TIP3    H234467   5.222   1.468   2.856  0.4624  0.5621  0.2534
 4326TIP3   OH234468   1.760   4.041   4.669 -0.3935 -0.1689 -0.4093
 4326TIP3    H134469   1.754   3.985   4.747  0.9300 -1.4242 -1.1617
 4326TIP3    H234470   1.746   4.129   4.703 -0.9565 -0.7801  1.0745
 4327TIP3   OH234471   3.451   6.487  15.661 -0.0588  0.3050 -0.1673
 4327TIP3    H134472   3.429   6.465  15.570  0.3999 -0.3951 -0.1191
 4327TIP3    H234473   3.543   6.460  15.670  0.4957  2.1256 -0.0447
 4328TIP3   OH234474   5.835   4.377   3.863  0.1031 -0.1646 -0.1704
 4328TIP3    H134475   5.822   4.295   3.814 -0.1532  0.2929 -0.8943
 4328TIP3    H234476   5.792   4.443   3.809  4.2005  1.2774 -2.0424
 4329TIP3   OH234477   5.988   0.439  16.778  0.0159  0.3394 -0.2382
 4329TIP3    H134478   6.043   0.499  16.827  1.3531 -1.6606  0.8697
 4329TIP3    H234479   6.025   0.352  16.795 -1.3856 -0.7757 -2.2912
 4330TIP3   OH234480   3.820   5.975   0.987 -0.2096 -0.1639 -0.2715
 4330TIP3    H134481   3.840   5.958   1.079  0.9288 -1.6734 -0.7726
 4330TIP3    H234482   3.864   6.058   0.968 -0.0884 -0.0656  0.4240
 4331TIP3   OH234483   2.374   0.358   4.495  0.0977 -0.1253  0.2417
 4331TIP3    H134484   2.389   0.448   4.525 -1.3265 -0.2100  1.3059
 4331TIP3    H234485   2.294   0.363   4.443 -0.7080 -0.9573  1.3502
 4332TIP3   OH234486   4.856   5.301  10.627 -0.4331 -0.4402  0.4372
 4332TIP3    H134487   4.920   5.310  10.556  0.0687  1.0528  1.0508
 4332TIP3    H234488   4.910   5.291  10.706 -0.9890 -1.3151  0.7276
 4333TIP3   OH234489   5.369   5.949   4.618  0.1719  0.1402 -0.0840
 4333TIP3    H134490   5.423   5.874   4.593  1.5454  0.0030  2.8756
 4333TIP3    H234491   5.289   5.910   4.655  0.5253  0.1131  0.6815
 4334TIP3   OH234492   6.614   0.492   1.416  0.0762 -0.2204 -0.1230
 4334TIP3    H134493   6.700   0.457   1.392 -0.0172 -0.9697  0.5879
 4334TIP3    H234494   6.613   0.580   1.379  1.8870  0.5130  1.3805
 4335TIP3   OH234495   6.284   0.998   1.266  0.3226 -0.3371 -0.0227
 4335TIP3    H134496   6.281   1.092   1.249  1.4277 -0.4546 -1.0404
 4335TIP3    H234497   6.361   0.986   1.322  2.4838 -0.9621 -2.8735
 4336TIP3   OH234498   0.076   1.565  14.945  1.3884  0.4272 -0.7617
 4336TIP3    H134499   0.125   1.513  15.009 -0.3708  1.3356  1.4517
 4336TIP3    H234500  -0.014   1.534  14.954  0.8212  1.7840 -1.5648
 4337TIP3   OH234501   2.927   0.579   5.605 -0.0150 -0.5769  0.0466
 4337TIP3    H134502   2.874   0.542   5.534  0.1402  2.2372 -1.7038
 4337TIP3    H234503   2.862   0.617   5.665 -0.0893 -1.6327  0.6626
 4338TIP3   OH234504   1.354   5.920   0.544 -0.2929  0.0196  0.1164
 4338TIP3    H134505   1.299   5.974   0.601 -2.0917 -0.3179 -1.2181
 4338TIP3    H234506   1.306   5.838   0.534  1.5553 -1.1936  0.6807
 4339TIP3   OH234507   0.577   4.710  15.014  0.1478 -0.3787 -0.0817
 4339TIP3    H134508   0.631   4.748  15.083  1.4808 -1.1390 -0.6688
 4339TIP3    H234509   0.574   4.616  15.036 -0.8293 -0.3679 -0.1404
 4340TIP3   OH234510   5.152   0.045  15.559  0.3446 -0.1804  0.1136
 4340TIP3    H134511   5.184   0.120  15.610 -0.9109 -0.2034  0.9707
 4340TIP3    H234512   5.205  -0.029  15.589 -0.8369 -0.3356  1.9512
 4341TIP3   OH234513   4.808   2.451   2.738 -0.1260 -0.0279  0.7873
 4341TIP3    H134514   4.787   2.462   2.830  2.5489 -0.0537  1.4933
 4341TIP3    H234515   4.842   2.361   2.732 -2.2794 -0.8102 -0.7069
 4342TIP3   OH234516   2.574   1.734  11.289 -0.0125 -0.0226  0.2549
 4342TIP3    H134517   2.591   1.777  11.373  0.4364  0.9874 -0.3246
 4342TIP3    H234518   2.661   1.708  11.258  0.1905  1.9782 -1.0827
 4343TIP3   OH234519   0.176   1.824   3.300  0.0986 -0.3071  0.0948
 4343TIP3    H134520   0.171   1.751   3.361 -1.7391  0.1238  0.5253
 4343TIP3    H234521   0.165   1.902   3.354  0.5650  0.2100 -0.5353
 4344TIP3   OH234522   0.211   3.608  11.789  0.4646 -0.4684  0.5089
 4344TIP3    H134523   0.265   3.595  11.712  0.7397 -1.9149  0.9183
 4344TIP3    H234524   0.195   3.520  11.823 -2.3946 -0.1423  0.2471
 4345TIP3   OH234525   0.299   6.404  12.893 -0.7968  0.0468 -0.7991
 4345TIP3    H134526   0.346   6.411  12.810 -0.1222 -4.0521 -0.9881
 4345TIP3    H234527   0.237   6.333  12.879  0.0855 -1.5489  2.4318
 4346TIP3   OH234528   5.378   3.435  13.621  0.7072 -0.1905  0.0276
 4346TIP3    H134529   5.460   3.484  13.628  1.2851 -0.7610 -2.0413
 4346TIP3    H234530   5.341   3.462  13.537  0.2170 -2.0376 -0.3912
 4347TIP3   OH234531   3.793   3.491  16.096 -0.2412 -0.2182 -0.8551
 4347TIP3    H134532   3.773   3.423  16.160 -0.4701 -0.6119 -1.3296
 4347TIP3    H234533   3.881   3.521  16.118 -0.5592  0.0853  0.0105
 4348TIP3   OH234534   2.407   1.624   1.569 -0.4556 -0.1699  0.7783
 4348TIP3    H134535   2.329   1.596   1.521  1.5253 -3.2597 -0.9909
 4348TIP3    H234536   2.378   1.632   1.660 -2.2821 -4.4824  0.7924
 4349TIP3   OH234537   6.209   5.270   4.071 -0.2622  0.0860  0.1805
 4349TIP3    H134538   6.115   5.258   4.088 -0.7030  1.2975 -1.2650
 4349TIP3    H234539   6.232   5.350   4.119 -0.3206  0.6089 -0.6483
 4350TIP3   OH234540   2.707   2.856   2.267  0.1282 -0.0663 -0.1025
 4350TIP3    H134541   2.665   2.872   2.183  2.3906 -0.2929 -1.3638
 4350TIP3    H234542   2.747   2.769   2.257  1.7679  0.5716  0.5946
 4351TIP3   OH234543   0.376   2.086  15.714 -0.2736 -0.4109  0.5265
 4351TIP3    H134544   0.304   2.135  15.754 -0.5522 -0.7648  0.4592
 4351TIP3    H234545   0.400   2.021  15.780 -0.7573 -1.0204  0.1230
 4352TIP3   OH234546   0.710   2.620  14.175 -0.2654  0.4316  0.1972
 4352TIP3    H134547   0.614   2.626  14.176 -0.1681  3.1453  1.2805
 4352TIP3    H234548   0.735   2.606  14.266  0.3947  1.0306  0.1211
 4353TIP3   OH234549   5.021   1.460   1.832 -0.4707 -0.1740 -0.1639
 4353TIP3    H134550   5.032   1.380   1.884 -2.1540  0.2663  0.9462
 4353TIP3    H234551   5.111   1.489   1.813  0.2937  0.2903  3.5365
 4354TIP3   OH234552   5.016   0.274   4.867 -0.0920  0.6273  0.0171
 4354TIP3    H134553   5.079   0.202   4.863  0.9918  1.6061 -1.9382
 4354TIP3    H234554   4.948   0.249   4.804  0.2907  1.2744 -0.6704
 4355TIP3   OH234555   0.396   3.649  15.101 -0.6591  0.6041  0.1506
 4355TIP3    H134556   0.356   3.562  15.104 -1.7130  1.0913  1.4239
 4355TIP3    H234557   0.479   3.639  15.148 -1.6201  0.6323  1.9719
 4356TIP3   OH234558   1.373   0.687   2.111  0.4385  0.0815  0.0113
 4356TIP3    H134559   1.375   0.611   2.053 -1.2592 -0.8986  1.1555
 4356TIP3    H234560   1.399   0.760   2.055  3.2380 -1.4227 -0.8740
 4357TIP3   OH234561   1.237   6.241  13.705  0.0729 -0.2488 -0.0973
 4357TIP3    H134562   1.240   6.335  13.721  0.2290 -0.2868  0.1027
 4357TIP3    H234563   1.144   6.218  13.714 -0.1636  0.1012 -1.4604
 4358TIP3   OH234564   0.735   3.903  14.966  0.3025  0.2693  0.1410
 4358TIP3    H134565   0.729   3.839  14.895  0.3566  0.3974  0.0203
 4358TIP3    H234566   0.828   3.926  14.969  0.1667  0.9290 -0.3394
 4359TIP3   OH234567   1.855   4.021   0.760 -0.1457 -0.9437 -0.3151
 4359TIP3    H134568   1.919   3.956   0.787 -0.8202 -2.0391 -1.2275
 4359TIP3    H234569   1.770   3.976   0.769 -0.6791  0.0392 -0.3209
 4360TIP3   OH234570   5.851   2.038  10.559  0.0549  0.5956 -0.3571
 4360TIP3    H134571   5.773   2.034  10.503 -0.8117  2.1515  0.6622
 4360TIP3    H234572   5.890   2.123  10.540 -0.4487  1.3197  1.5818
 4361TIP3   OH234573   2.898   1.637  15.642 -0.1658  0.5944 -0.5744
 4361TIP3    H134574   2.803   1.630  15.629 -0.6426  0.9569  2.1682
 4361TIP3    H234575   2.909   1.712  15.700  1.3869 -1.5151  2.1374
 4362TIP3   OH234576   4.749   2.844   5.098  0.6231 -0.0187 -0.4203
 4362TIP3    H134577   4.674   2.902   5.082  1.2074  0.5665 -1.1217
 4362TIP3    H234578   4.717   2.757   5.076  0.2173  0.2521 -0.9338
 4363TIP3   OH234579   0.119   2.355  12.571  0.5428  0.2054  0.1508
 4363TIP3    H134580   0.055   2.343  12.500  0.3853  1.9491 -0.0386
 4363TIP3    H234581   0.137   2.266  12.601 -0.7609 -0.4490 -0.8609
 4364TIP3   OH234582   6.024   1.226   4.413 -0.5165  0.2663 -0.1079
 4364TIP3    H134583   6.071   1.182   4.342 -0.9469  1.4828 -1.1788
 4364TIP3    H234584   5.937   1.185   4.412  1.0521 -3.9322  3.6148
 4365TIP3   OH234585   1.486   1.782   1.672  0.4735  0.4246  0.1329
 4365TIP3    H134586   1.565   1.832   1.695  0.4739  0.0133  1.1032
 4365TIP3    H234587   1.508   1.740   1.589  1.0863  0.7401  0.1250
 4366TIP3   OH234588   3.319   4.066   7.077  0.5602  0.7650 -0.1237
 4366TIP3    H134589   3.339   4.066   6.984  0.3915  0.0103 -0.1625
 4366TIP3    H234590   3.287   4.155   7.095 -2.4079  0.1063 -1.4455
 4367TIP3   OH234591   2.524   4.692   1.055 -0.6810 -0.4028 -0.0859
 4367TIP3    H134592   2.559   4.733   0.976 -1.6442 -1.0528 -0.8813
 4367TIP3    H234593   2.515   4.764   1.117  2.3894 -0.2539  0.3506
 4368TIP3   OH234594   5.639   5.760  12.723  0.0237 -0.2098 -0.1166
 4368TIP3    H134595   5.589   5.696  12.773  0.6671 -1.2942 -0.8287
 4368TIP3    H234596   5.680   5.710  12.653  0.2784  1.0386 -0.9058
 4369TIP3   OH234597   0.126   5.648   3.270  0.0804 -0.9484 -0.1984
 4369TIP3    H134598   0.081   5.564   3.261 -1.2088 -0.2652 -0.4003
 4369TIP3    H234599   0.150   5.653   3.362  0.1243 -1.5176 -0.1754
 4370TIP3   OH234600   3.739   3.636   0.903 -0.0270 -0.0976  0.2127
 4370TIP3    H134601   3.741   3.660   0.810  0.2472  0.0459  0.2559
 4370TIP3    H234602   3.696   3.550   0.904  0.7620 -0.5101 -0.1399
 4371TIP3   OH234603   1.127   6.027   1.391  0.0145  0.3135  0.4432
 4371TIP3    H134604   1.205   6.003   1.342  0.0214 -0.3390  0.7612
 4371TIP3    H234605   1.084   6.093   1.338  0.1019 -0.2729 -0.3679
 4372TIP3   OH234606   0.910   0.857  14.550  0.5375  0.1849 -0.6109
 4372TIP3    H134607   0.977   0.797  14.583  0.6641 -0.2165 -1.5853
 4372TIP3    H234608   0.956   0.940  14.536  0.6769  0.1027 -0.6356
 4373TIP3   OH234609   4.368   4.605   3.579 -0.0015 -0.1131 -0.4114
 4373TIP3    H134610   4.282   4.614   3.621 -0.3393 -1.7470 -0.6644
 4373TIP3    H234611   4.381   4.510   3.572  1.2911  0.1101 -1.4705
 4374TIP3   OH234612   4.133   2.305  11.254  0.4636  0.2977  0.0760
 4374TIP3    H134613   4.156   2.293  11.346  1.6259  3.0282  0.2436
 4374TIP3    H234614   4.211   2.278  11.206  1.6190  3.0297  0.2409
 4375TIP3   OH234615   2.739   6.194  12.079  0.1600  0.1172  0.0440
 4375TIP3    H134616   2.786   6.134  12.020 -0.5980  0.7996 -1.3104
 4375TIP3    H234617   2.749   6.156  12.166  1.1238 -1.0592 -0.5565
 4376TIP3   OH234618   3.563   0.038  15.186 -0.2652  0.4664 -0.7311
 4376TIP3    H134619   3.554   0.069  15.276  1.3734 -2.0651  0.4117
 4376TIP3    H234620   3.592   0.115  15.137  3.7813  0.9690  1.9482
 4377TIP3   OH234621   5.376   4.384  11.287  0.7342 -0.1545  0.4252
 4377TIP3    H134622   5.283   4.399  11.269 -0.5609 -3.8664  2.8524
 4377TIP3    H234623   5.412   4.358  11.203  0.6069  4.5283 -1.3608
 4378TIP3   OH234624   1.538   1.593  11.745 -0.1151 -0.1552 -0.0541
 4378TIP3    H134625   1.525   1.499  11.735  0.0936 -0.3448  1.2821
 4378TIP3    H234626   1.449   1.629  11.747 -0.2285 -0.4458  0.3972
 4379TIP3   OH234627   2.050   3.619  14.102  0.1427  0.1212  0.2645
 4379TIP3    H134628   2.015   3.704  14.079  1.3941  0.5969  0.0067
 4379TIP3    H234629   1.986   3.556  14.070  1.0443  0.7795 -3.2987
 4380TIP3   OH234630   5.198   0.483  17.155 -0.0029 -0.0104 -0.3993
 4380TIP3    H134631   5.206   0.569  17.113  0.3445  0.8066  1.2400
 4380TIP3    H234632   5.110   0.483  17.193  0.1676 -0.1651  0.0067
 4381TIP3   OH234633   0.644   6.023  12.574  0.3335  0.6300 -0.0577
 4381TIP3    H134634   0.572   6.084  12.593 -0.0010 -0.3035  2.0015
 4381TIP3    H234635   0.605   5.958  12.515 -0.5620  0.1570  1.0029
 4382TIP3   OH234636   4.768   6.036   2.054  0.0249  0.0549 -0.2169
 4382TIP3    H134637   4.720   6.097   1.999  0.0614 -0.0229 -0.3353
 4382TIP3    H234638   4.751   5.950   2.017 -1.7441 -0.2602  1.1953
 4383TIP3   OH234639   5.636   0.155  13.336 -0.1775  0.0829  0.0405
 4383TIP3    H134640   5.665   0.213  13.406 -0.2170  0.0934  0.0491
 4383TIP3    H234641   5.705   0.158  13.270 -0.0990  0.0045  0.1191
 4384TIP3   OH234642   0.118   1.139  17.089  0.7966  0.1727 -0.0846
 4384TIP3    H134643   0.029   1.129  17.125  1.1042  0.6007  0.8276
 4384TIP3    H234644   0.159   1.053  17.102  0.9444  0.3608  0.7044
 4385TIP3   OH234645   3.023   5.529   0.805  0.1535  0.1145 -0.0724
 4385TIP3    H134646   2.970   5.511   0.727  0.0536  0.1197 -0.0057
 4385TIP3    H234647   3.021   5.447   0.854  2.0444 -0.6270 -1.1434
 4386TIP3   OH234648   5.675   1.866   5.362  0.0728  0.4693 -0.3738
 4386TIP3    H134649   5.641   1.955   5.373  0.5231  0.4921  1.0307
 4386TIP3    H234650   5.633   1.815   5.431  1.0910 -0.0234 -0.0994
 4387TIP3   OH234651   4.363   1.241  15.132 -0.1472  0.2506 -0.2874
 4387TIP3    H134652   4.449   1.204  15.151 -0.6414 -0.1359  1.4713
 4387TIP3    H234653   4.311   1.219  15.210 -1.9466  0.1185 -1.4722
 4388TIP3   OH234654   4.181   1.102  14.859  0.1536 -0.2261  0.6285
 4388TIP3    H134655   4.270   1.088  14.890  0.4831  0.6781  0.1262
 4388TIP3    H234656   4.126   1.062  14.926  0.9364 -1.0951  0.7782
 4389TIP3   OH234657   5.676   1.187   5.867 -0.1221  0.2461  0.3440
 4389TIP3    H134658   5.745   1.235   5.913 -0.9551  0.7442  1.0976
 4389TIP3    H234659   5.657   1.240   5.790  1.1210 -0.4757 -0.4913
 4390TIP3   OH234660   0.009   3.500  10.889 -0.4006 -0.8967 -0.6959
 4390TIP3    H134661  -0.081   3.484  10.860 -0.3863 -1.4807 -0.4299
 4390TIP3    H234662   0.014   3.459  10.975 -0.3021  0.4066 -0.0545
 4391TIP3   OH234663   2.058   3.148   1.535 -0.1027 -0.5216  0.0292
 4391TIP3    H134664   2.075   3.094   1.458  2.1409  0.5841 -0.3197
 4391TIP3    H234665   2.076   3.090   1.609 -2.0923 -1.5341 -0.1987
 4392TIP3   OH234666   3.571   1.062  10.951  0.3281 -0.4270 -0.3297
 4392TIP3    H134667   3.661   1.041  10.928  0.0370 -2.0579 -0.1424
 4392TIP3    H234668   3.546   1.132  10.890  1.5304 -0.3326 -0.7437
 4393TIP3   OH234669   4.295   0.691  12.882 -0.0390 -0.3263 -0.1051
 4393TIP3    H134670   4.389   0.700  12.894  0.1232 -2.8106  1.1051
 4393TIP3    H234671   4.277   0.738  12.800  2.2317  0.1760 -0.3920
 4394TIP3   OH234672   2.812   6.432   0.755  0.3941 -1.0334  0.1093
 4394TIP3    H134673   2.788   6.518   0.721  0.1477 -0.8023  0.8522
 4394TIP3    H234674   2.865   6.450   0.833 -3.0539 -1.4258  2.8371
 4395TIP3   OH234675   3.887   3.023  12.092  0.0588  0.1073  0.6633
 4395TIP3    H134676   3.957   2.998  12.031 -0.3512  0.8260 -0.1271
 4395TIP3    H234677   3.860   2.940  12.132 -0.1529 -0.5061 -0.6755
 4396TIP3   OH234678   5.695   3.356  11.091 -0.0809  0.2603  0.2803
 4396TIP3    H134679   5.632   3.346  11.020 -0.4673  2.9933  0.1184
 4396TIP3    H234680   5.643   3.383  11.166  0.4728 -1.4280  1.3416
 4397TIP3   OH234681   5.467   1.294   4.631 -0.2280  0.4648  0.2204
 4397TIP3    H134682   5.420   1.228   4.579 -1.4187 -0.1136  1.9399
 4397TIP3    H234683   5.543   1.248   4.665 -0.7793  0.0916  0.9889
 4398TIP3   OH234684   0.422   0.654  14.066  0.1188  0.6572  0.1057
 4398TIP3    H134685   0.508   0.611  14.069 -0.3260 -0.3099 -0.5382
 4398TIP3    H234686   0.365   0.590  14.022 -1.1771  0.8562  1.4383
 4399TIP3   OH234687   0.742   5.486   5.125 -0.1685  0.6694 -0.4156
 4399TIP3    H134688   0.659   5.493   5.078 -0.5164 -0.3040  0.0308
 4399TIP3    H234689   0.719   5.447   5.209  0.6902  0.7698 -0.1257
 4400TIP3   OH234690   5.449   4.911  11.586 -0.4583  0.3192  0.2085
 4400TIP3    H134691   5.516   4.865  11.535  0.0472  1.9557 -0.6844
 4400TIP3    H234692   5.496   4.943  11.663  0.1012  2.3108 -0.8919
 4401TIP3   OH234693   5.162   2.528   1.156 -0.1679  0.4601  0.0386
 4401TIP3    H134694   5.217   2.598   1.121 -0.2662  1.0630  1.0429
 4401TIP3    H234695   5.117   2.493   1.079  1.4233  0.1044 -0.7783
 4402TIP3   OH234696   1.025   1.601  13.656 -0.1373 -0.5178 -0.2368
 4402TIP3    H134697   1.106   1.649  13.638 -0.5517 -0.0780 -0.9800
 4402TIP3    H234698   0.994   1.636  13.740  0.2379 -0.4278 -0.1334
 4403TIP3   OH234699   1.894   5.709   0.700 -0.1467  0.4022 -0.2207
 4403TIP3    H134700   1.940   5.760   0.766  0.9684  1.0897 -1.4831
 4403TIP3    H234701   1.856   5.775   0.641  1.8284 -0.1267 -2.2384
 4404TIP3   OH234702   6.270   6.713   5.034 -0.1009 -0.2923  0.7753
 4404TIP3    H134703   6.311   6.664   4.963  1.5677 -0.4846  1.8131
 4404TIP3    H234704   6.190   6.750   4.995 -0.1316 -1.7944 -0.6921
 4405TIP3   OH234705   2.534   5.576  16.448  0.8947 -0.4426 -0.2384
 4405TIP3    H134706   2.592   5.505  16.475  1.0056 -0.9589 -1.7206
 4405TIP3    H234707   2.513   5.622  16.529  3.2272 -0.3310  0.3770
 4406TIP3   OH234708   6.613   3.131  13.874  0.0929  0.0151  0.3000
 4406TIP3    H134709   6.611   3.226  13.859 -0.3891  0.1955  1.4198
 4406TIP3    H234710   6.591   3.093  13.788 -0.1678  0.9195 -0.0469
 4407TIP3   OH234711   2.926   6.609  13.077  0.6355 -0.3809  0.1415
 4407TIP3    H134712   2.887   6.638  13.159  0.9680 -1.5336  0.7306
 4407TIP3    H234713   2.882   6.527  13.057  2.4801 -1.5377  0.6497
 4408TIP3   OH234714   4.347   4.693   1.215  0.2542  0.1498 -0.0154
 4408TIP3    H134715   4.402   4.684   1.136 -1.7772  1.5656 -1.6902
 4408TIP3    H234716   4.324   4.786   1.218 -1.0236 -0.1776  1.3471
 4409TIP3   OH234717   2.027   0.516  14.821 -0.1457  0.2766  0.2106
 4409TIP3    H134718   2.052   0.445  14.879  1.8147  0.7465 -0.0141
 4409TIP3    H234719   2.038   0.480  14.733  0.8285  0.8335  0.0968
 4410TIP3   OH234720   3.085   3.231   4.276 -0.5642  0.1447 -0.5288
 4410TIP3    H134721   3.138   3.284   4.217 -0.4200 -1.0355 -1.5037
 4410TIP3    H234722   3.148   3.198   4.341 -0.7067  1.3644  0.2616
 4411TIP3   OH234723   3.892   6.026   3.655  0.1737  0.2718  0.8835
 4411TIP3    H134724   3.821   6.026   3.590  0.2531  0.6181  0.7960
 4411TIP3    H234725   3.916   5.934   3.664  2.4312  0.4408 -2.0415
 4412TIP3   OH234726   5.309   6.323  12.449  0.2790 -0.3388  0.7558
 4412TIP3    H134727   5.303   6.413  12.418  0.7879 -0.0522  1.4430
 4412TIP3    H234728   5.220   6.288  12.440  0.4705 -0.4139 -1.3364
 4413TIP3   OH234729   4.050   6.780   3.375 -0.0957 -0.0028 -0.9344
 4413TIP3    H134730   4.034   6.686   3.383 -0.1960  0.0415 -0.6036
 4413TIP3    H234731   3.964   6.817   3.352  0.5230 -0.3581 -4.5373
 4414TIP3   OH234732   3.741   6.163  16.080 -0.1191  0.1938 -0.0671
 4414TIP3    H134733   3.678   6.174  16.152 -0.3680 -0.3571 -0.2001
 4414TIP3    H234734   3.691   6.185  16.001  0.3418  1.4856 -0.0278
 4415TIP3   OH234735   6.602   1.552  15.471  0.0114 -0.1964 -0.4198
 4415TIP3    H134736   6.614   1.484  15.537  0.1546  1.2433  1.1180
 4415TIP3    H234737   6.513   1.538  15.437 -0.3388 -0.5644  0.6050
 4416TIP3   OH234738   4.538   3.117  15.486 -0.1738 -0.3296  0.0757
 4416TIP3    H134739   4.603   3.187  15.491  0.2928 -0.4107 -2.8574
 4416TIP3    H234740   4.589   3.038  15.475 -0.6591 -0.4126 -2.1312
 4417TIP3   OH234741   2.401   4.650   5.866 -0.4564  0.7864  0.1187
 4417TIP3    H134742   2.463   4.581   5.890 -1.1083  0.1689  0.0625
 4417TIP3    H234743   2.344   4.610   5.800 -1.7303  0.9004  1.0977
 4418TIP3   OH234744   0.087   0.146   2.570  0.3045  0.6770 -0.8116
 4418TIP3    H134745   0.153   0.215   2.578  0.0523  0.9271 -0.8589
 4418TIP3    H234746   0.132   0.076   2.523  0.0901  1.4569 -2.2585
 4419TIP3   OH234747   4.616   6.013   1.689  0.0454 -0.7094  0.4976
 4419TIP3    H134748   4.698   5.979   1.726  0.2048 -1.2977 -0.3646
 4419TIP3    H234749   4.584   6.075   1.755  1.7715  0.3875  0.3593
 4420TIP3   OH234750   5.094   6.045  16.097 -0.0457 -0.6370 -0.1359
 4420TIP3    H134751   5.161   5.979  16.082 -0.5685 -0.9329 -1.2354
 4420TIP3    H234752   5.134   6.127  16.068  0.1150 -0.6856 -0.0533
 4421TIP3   OH234753   3.366   1.298  15.095  0.8755 -0.4818  0.2279
 4421TIP3    H134754   3.368   1.376  15.151  0.3320  0.3890 -0.9113
 4421TIP3    H234755   3.294   1.245  15.129 -2.3742  2.0358 -2.0586
 4422TIP3   OH234756   5.215   0.893  14.354  0.2830 -0.8849  0.2694
 4422TIP3    H134757   5.244   0.858  14.269 -0.3263  1.5021 -1.0070
 4422TIP3    H234758   5.144   0.836  14.381  0.3354 -1.5516 -0.9472
 4423TIP3   OH234759   4.055   6.773  11.844  0.0981 -0.4879 -0.4948
 4423TIP3    H134760   3.998   6.841  11.808  0.7657 -0.1857 -0.9795
 4423TIP3    H234761   4.021   6.759  11.933 -0.0926  0.4183 -0.4167
 4424TIP3   OH234762   6.574   4.872  13.511  0.0904 -0.8975 -0.1574
 4424TIP3    H134763   6.498   4.815  13.514 -0.5185 -0.1723 -1.1376
 4424TIP3    H234764   6.629   4.843  13.584 -1.9384 -0.3033  1.7052
 4425TIP3   OH234765   1.308   4.772  15.335  0.4333  0.2385  0.6916
 4425TIP3    H134766   1.263   4.819  15.265 -0.8785 -0.8857  0.7411
 4425TIP3    H234767   1.354   4.701  15.291  0.4335  0.1404  0.8494
 4426TIP3   OH234768   5.391   3.129  15.352  0.5399 -0.1152  0.0952
 4426TIP3    H134769   5.381   3.049  15.301 -0.3235 -0.4382  0.7420
 4426TIP3    H234770   5.474   3.166  15.323  1.3136 -1.6244  0.2958
 4427TIP3   OH234771   2.994   5.898  16.644 -1.3435  0.3044  0.1028
 4427TIP3    H134772   2.998   5.946  16.561  1.4899 -1.0845 -0.6922
 4427TIP3    H234773   2.957   5.961  16.706 -0.2791  2.6113 -1.4504
 4428TIP3   OH234774   4.842   6.522   2.555  0.9241  0.0451  0.1082
 4428TIP3    H134775   4.795   6.595   2.595  1.4733  0.3069  0.2795
 4428TIP3    H234776   4.934   6.541   2.570  1.1387  0.0845 -1.1700
 4429TIP3   OH234777   4.785   5.055   2.350 -0.1977 -0.2441 -0.1660
 4429TIP3    H134778   4.833   5.001   2.413  0.1870 -0.1363 -0.3683
 4429TIP3    H234779   4.694   5.027   2.360  0.1312 -1.7095 -1.0472
 4430TIP3   OH234780   2.740   5.818  15.792  0.6698  0.0597 -0.3327
 4430TIP3    H134781   2.779   5.888  15.844  1.0535  0.9639 -1.7651
 4430TIP3    H234782   2.807   5.749  15.790  0.7124  0.0831  0.2178
 4431TIP3   OH234783   0.075   5.081   5.196  0.1602 -0.4463  0.2063
 4431TIP3    H134784   0.098   5.050   5.109 -1.4985  1.4943 -1.0095
 4431TIP3    H234785  -0.011   5.121   5.186 -0.2692 -0.5145  2.8373
 4432TIP3   OH234786   4.753   0.005  16.286 -0.0082  0.2406  0.1020
 4432TIP3    H134787   4.837  -0.012  16.244  0.9819  0.7251  1.7873
 4432TIP3    H234788   4.689   0.000  16.215  1.4848  0.3146 -1.3041
 4433TIP3   OH234789   3.771   2.089   0.583 -0.4943 -0.5576  0.4678
 4433TIP3    H134790   3.867   2.087   0.574 -0.6094 -1.5736 -0.8069
 4433TIP3    H234791   3.743   2.155   0.520 -0.7611 -1.9234 -0.9028
 4434TIP3   OH234792   5.234   5.478  11.405 -0.2800 -0.0750  0.5598
 4434TIP3    H134793   5.317   5.436  11.386  0.1422  1.0795 -0.2883
 4434TIP3    H234794   5.175   5.407  11.429  0.3363 -1.1681 -1.0349
 4435TIP3   OH234795   2.301   0.528   4.887  0.4680 -0.2367  0.6560
 4435TIP3    H134796   2.277   0.557   4.799 -2.9556 -0.2775  1.4529
 4435TIP3    H234797   2.374   0.467   4.873  1.8490  1.8139 -1.8347
 4436TIP3   OH234798   0.733   5.268   5.363  0.2799 -0.0632  0.1725
 4436TIP3    H134799   0.800   5.205   5.337  1.1620  0.7619  0.3744
 4436TIP3    H234800   0.668   5.216   5.411 -0.5744 -1.3370 -2.1909
 4437TIP3   OH234801   4.444   5.616  15.310  0.1493 -0.0512  0.3505
 4437TIP3    H134802   4.350   5.615  15.297  0.1467  1.5874  0.0689
 4437TIP3    H234803   4.480   5.597  15.223  0.0799  0.4932  0.2007
 4438TIP3   OH234804   5.077   2.462  17.094  0.2687  0.5648  0.5181
 4438TIP3    H134805   5.153   2.436  17.042  0.0298  1.8431 -0.5348
 4438TIP3    H234806   5.114   2.493  17.177  1.0008  1.7963 -0.2294
 4439TIP3   OH234807   3.392   1.817   5.024 -0.1571  0.3609 -0.1877
 4439TIP3    H134808   3.357   1.787   4.941  1.5506  1.2745 -1.2919
 4439TIP3    H234809   3.414   1.909   5.009  1.6441  0.1279  0.7748
 4440TIP3   OH234810   4.683   0.624   6.179 -0.3852  0.0613  0.1909
 4440TIP3    H134811   4.719   0.539   6.206 -0.3698 -0.1331 -0.4195
 4440TIP3    H234812   4.685   0.677   6.258 -0.2638 -0.4660  0.5484
 4441TIP3   OH234813   5.074   6.480  16.809  0.3706 -0.0879  0.3996
 4441TIP3    H134814   5.144   6.488  16.743 -0.7490 -1.0814 -0.9717
 4441TIP3    H234815   4.996   6.459  16.758 -0.6238 -0.5135  2.0376
 4442TIP3   OH234816   4.929   6.300   2.781  0.0898  0.0956  0.2793
 4442TIP3    H134817   4.996   6.239   2.810  0.7910 -0.0398 -1.5276
 4442TIP3    H234818   4.977   6.370   2.737 -0.8863  0.4477 -0.2670
 4443TIP3   OH234819   4.396   5.628  11.174 -0.0766  0.2182  0.0324
 4443TIP3    H134820   4.430   5.602  11.089  2.8263  0.8482  0.8995
 4443TIP3    H234821   4.309   5.588  11.178  0.0295 -0.5360 -2.8396
 4444TIP3   OH234822   5.204   2.606   4.791  0.2863 -0.0149 -0.5836
 4444TIP3    H134823   5.201   2.513   4.811  0.1145 -0.4476 -2.3852
 4444TIP3    H234824   5.116   2.638   4.813  0.1920 -0.3947 -0.4026
 4445TIP3   OH234825   5.378   6.328   2.218  0.1778  0.0356 -0.0157
 4445TIP3    H134826   5.374   6.294   2.307 -2.0654 -0.9231 -0.3949
 4445TIP3    H234827   5.348   6.419   2.226  0.0291 -0.0326  0.2247
 4446TIP3   OH234828   3.588   4.403   4.742 -0.1356 -0.0589 -0.2033
 4446TIP3    H134829   3.627   4.360   4.817 -0.6122  0.0458  0.1111
 4446TIP3    H234830   3.575   4.494   4.770  0.6068  0.2274 -0.7624
 4447TIP3   OH234831   1.153   6.286  14.809 -0.3066  0.3039  0.6239
 4447TIP3    H134832   1.063   6.308  14.835 -0.5545 -0.6693  0.6087
 4447TIP3    H234833   1.197   6.371  14.802 -2.0934  1.1343 -2.5913
 4448TIP3   OH234834   2.968   6.541   3.570  0.2888 -0.4473  0.6011
 4448TIP3    H134835   3.050   6.528   3.617  0.7648 -0.3248 -0.1828
 4448TIP3    H234836   2.991   6.595   3.494 -0.9025  1.4893  1.5264
 4449TIP3   OH234837   6.348   4.615  14.891  0.2411 -0.0342  0.1249
 4449TIP3    H134838   6.261   4.617  14.852 -0.5003  0.0030  1.6747
 4449TIP3    H234839   6.332   4.597  14.984  1.9746 -1.3892  0.2157
 4450TIP3   OH234840   4.607   5.312  14.509  0.2385 -0.4492  0.2300
 4450TIP3    H134841   4.587   5.402  14.483 -1.6766 -1.1490 -0.9579
 4450TIP3    H234842   4.696   5.298  14.479  0.0553  0.6013 -0.9029
 4451TIP3   OH234843   3.653   2.982   2.468  0.0269  0.8053  0.1480
 4451TIP3    H134844   3.628   2.916   2.403 -0.1967 -0.1209  1.1395
 4451TIP3    H234845   3.747   2.971   2.477 -0.2028 -0.4656  1.4078
 4452TIP3   OH234846   6.673   0.985   0.766  0.0280  0.0012 -0.1261
 4452TIP3    H134847   6.755   1.019   0.803 -0.0707 -0.2457  0.3196
 4452TIP3    H234848   6.666   1.028   0.681 -0.9710  2.5195  1.1052
 4453TIP3   OH234849   2.848   5.961  15.990 -0.7151  0.0293 -0.2030
 4453TIP3    H134850   2.814   5.978  16.078  1.3558  1.6787  0.3825
 4453TIP3    H234851   2.867   6.049  15.955  1.0368 -0.6839 -1.1817
 4454TIP3   OH234852   2.144   3.258  11.254  0.8738 -0.5399 -0.2987
 4454TIP3    H134853   2.076   3.211  11.207 -0.3428 -0.5108  1.3652
 4454TIP3    H234854   2.172   3.198  11.323  1.5563 -0.0206 -0.1093
 4455TIP3   OH234855   5.387   1.844  11.054  0.0537 -0.3468 -0.2886
 4455TIP3    H134856   5.372   1.779  10.985 -3.3584  0.9692 -1.0326
 4455TIP3    H234857   5.318   1.910  11.039  1.7238  2.1201  1.9543
 4456TIP3   OH234858   1.739   0.471  11.328  0.3105 -0.2925  0.0117
 4456TIP3    H134859   1.700   0.480  11.415  0.8908 -0.7244  0.3221
 4456TIP3    H234860   1.757   0.378  11.320 -1.2223 -0.5165 -1.2313
 4457TIP3   OH234861   1.951   1.828  14.985  0.1609  0.1839  0.1138
 4457TIP3    H134862   1.962   1.734  14.971 -1.1492  0.1016 -0.5779
 4457TIP3    H234863   2.010   1.869  14.921 -0.0475 -0.1800 -0.3174
 4458TIP3   OH234864   5.070   3.866   3.453 -0.3983 -0.1601 -0.3322
 4458TIP3    H134865   5.056   3.945   3.505 -0.1555  0.4909 -1.2269
 4458TIP3    H234866   5.122   3.809   3.510 -0.0252  0.5860  0.0965
 4459TIP3   OH234867   6.567   5.547   0.403  0.2438  0.2790 -0.1709
 4459TIP3    H134868   6.534   5.574   0.317  0.7512  2.5038  0.2538
 4459TIP3    H234869   6.661   5.534   0.389  0.2525  0.2140 -0.0492
 4460TIP3   OH234870   0.963   0.697  12.211  0.7950 -0.3010 -0.1148
 4460TIP3    H134871   0.967   0.702  12.307  1.2510 -2.3606  0.0232
 4460TIP3    H234872   1.029   0.759  12.181  0.2606  0.8041  0.8534
 4461TIP3   OH234873   6.473   6.150  16.985  0.1879  0.0937  0.7180
 4461TIP3    H134874   6.513   6.154  16.899  1.1327  0.5662  1.1648
 4461TIP3    H234875   6.399   6.090  16.975 -0.9390  1.6532 -0.8917
 4462TIP3   OH234876   3.049   2.197   6.059  0.2945  0.2211 -0.3476
 4462TIP3    H134877   3.115   2.250   6.103  0.3306 -1.9851  2.5825
 4462TIP3    H234878   2.970   2.207   6.112  0.0623 -1.8374 -0.2079
 4463TIP3   OH234879   1.305   0.525  17.092 -0.0568 -0.0745 -0.0548
 4463TIP3    H134880   1.339   0.445  17.051 -1.6706 -0.4384 -0.7711
 4463TIP3    H234881   1.330   0.595  17.032  0.5460 -0.1611  0.0904
 4464TIP3   OH234882   2.767   2.295   1.270 -0.1078  0.3305  0.5634
 4464TIP3    H134883   2.691   2.249   1.306  0.1522 -1.3367 -0.8998
 4464TIP3    H234884   2.809   2.335   1.347 -0.5789 -1.5571  1.8773
 4465TIP3   OH234885   4.362   2.519  14.794  0.1227  0.0020 -0.3506
 4465TIP3    H134886   4.406   2.600  14.818 -0.3455  0.1667 -0.0440
 4465TIP3    H234887   4.343   2.476  14.878 -0.6565  0.1195 -0.4639
 4466TIP3   OH234888   1.996   3.019  16.394  0.1277 -0.1385  0.2739
 4466TIP3    H134889   2.006   3.098  16.447 -0.0438  0.4450 -0.5335
 4466TIP3    H234890   1.907   3.024  16.360  0.0849 -0.7335  0.2913
 4467TIP3   OH234891   2.802   5.541  12.506 -0.4879  0.2054 -0.1950
 4467TIP3    H134892   2.868   5.532  12.438  1.0364 -1.0034  1.3234
 4467TIP3    H234893   2.747   5.462  12.497 -0.0799 -0.1239  0.1628
 4468TIP3   OH234894   1.929   4.986   4.720 -0.2274  0.2177 -0.0363
 4468TIP3    H134895   1.965   5.075   4.713  1.4661 -0.4927 -1.0132
 4468TIP3    H234896   1.898   4.980   4.810  1.4893  1.1509  0.6842
 4469TIP3   OH234897   0.252   5.264   2.006  0.5752  0.1429 -0.2162
 4469TIP3    H134898   0.245   5.169   1.996 -1.4334  0.4003 -1.7529
 4469TIP3    H234899   0.346   5.281   1.996  1.0812 -1.7111  0.7814
 4470TIP3   OH234900   1.431   2.917   5.486 -0.5956  0.1159 -0.2455
 4470TIP3    H134901   1.433   3.013   5.484  0.7206  0.0903 -1.2202
 4470TIP3    H234902   1.522   2.890   5.477 -0.7672 -1.2357  1.5111
 4471TIP3   OH234903   5.670   3.693  11.988 -0.4080  0.4799 -0.7326
 4471TIP3    H134904   5.751   3.724  12.028 -2.6212  1.9111  3.2219
 4471TIP3    H234905   5.630   3.772  11.953 -0.9043  0.0975 -1.0329
 4472TIP3   OH234906   3.564   5.987  15.916 -0.0962  0.3505  0.1462
 4472TIP3    H134907   3.587   5.941  15.997  1.1712 -1.9682 -1.3995
 4472TIP3    H234908   3.472   5.965  15.901  0.4218 -1.5800 -0.4282
 4473TIP3   OH234909   2.289   4.232  17.082 -0.6654 -0.2744 -0.2431
 4473TIP3    H134910   2.282   4.229  17.177  0.4204  0.6482 -0.1138
 4473TIP3    H234911   2.204   4.264  17.052 -0.2824  1.6701  0.5904
 4474TIP3   OH234912   4.901   0.868  14.964  0.2030  0.1048  0.7121
 4474TIP3    H134913   4.924   0.929  15.034  0.2962  0.3098  0.5053
 4474TIP3    H234914   4.809   0.846  14.980 -0.4490  1.8559 -0.3412
 4475TIP3   OH234915   1.004   1.692   3.373 -0.2001  0.3493 -0.3483
 4475TIP3    H134916   1.008   1.768   3.315 -2.2134  0.3472 -0.5609
 4475TIP3    H234917   0.957   1.724   3.451  2.2606  0.2963  1.2743
 4476TIP3   OH234918   5.847   5.320   2.586 -0.1059  0.3544  0.7403
 4476TIP3    H134919   5.766   5.368   2.568 -0.9272 -0.5789  1.7884
 4476TIP3    H234920   5.880   5.295   2.500  0.0361  2.2576  0.1961
 4477TIP3   OH234921   2.154   5.791  11.002  0.1677 -0.0059 -0.0315
 4477TIP3    H134922   2.232   5.771  10.951 -0.2441  2.2890 -1.7367
 4477TIP3    H234923   2.187   5.820  11.087  0.9946 -1.6657  0.2316
 4478TIP3   OH234924   4.993   2.191  11.679 -0.7260  0.0564  0.3857
 4478TIP3    H134925   5.072   2.244  11.692  0.4624 -1.6289  0.5757
 4478TIP3    H234926   5.008   2.114  11.735 -1.9689 -0.8692 -0.5056
 4479TIP3   OH234927   1.435   4.961   2.726  0.4216 -0.5208  0.2675
 4479TIP3    H134928   1.427   4.981   2.819  0.1824 -2.7558  0.7801
 4479TIP3    H234929   1.515   5.005   2.698 -0.4186  1.6263  1.0658
 4480TIP3   OH234930   1.801   0.694   3.383  0.6360 -0.6247 -0.0849
 4480TIP3    H134931   1.874   0.712   3.325  0.0928  0.0817 -0.5712
 4480TIP3    H234932   1.832   0.625   3.441  1.9956  0.3005  0.3293
 4481TIP3   OH234933   6.377   0.816  14.295  0.0129 -0.2283  1.0064
 4481TIP3    H134934   6.398   0.744  14.235 -0.9632 -0.5912  1.0825
 4481TIP3    H234935   6.285   0.802  14.317 -0.5470  1.7341  0.0787
 4482TIP3   OH234936   2.030   6.455   4.788 -0.0073 -0.3096 -0.4036
 4482TIP3    H134937   1.978   6.496   4.857 -0.4598 -0.6797 -0.5187
 4482TIP3    H234938   1.972   6.452   4.712 -0.0052 -1.2139 -0.3773
 4483TIP3   OH234939   5.475   1.989   4.788 -0.1205 -0.2153  0.0332
 4483TIP3    H134940   5.550   1.941   4.823 -0.8014 -2.8673 -1.7906
 4483TIP3    H234941   5.434   2.028   4.865  1.7423 -0.7115  1.3723
 4484TIP3   OH234942   0.957   2.981  11.498  0.1917 -0.9907 -0.0159
 4484TIP3    H134943   1.032   2.927  11.472  1.6674  1.0736 -0.3218
 4484TIP3    H234944   0.893   2.919  11.531  1.3336 -3.0190 -1.3762
 4485TIP3   OH234945   2.979   4.624   5.655 -0.2440  0.2114 -0.4392
 4485TIP3    H134946   3.015   4.709   5.628  0.4915  0.5705  1.5316
 4485TIP3    H234947   2.896   4.646   5.698  0.0633 -0.0270  0.2848
 4486TIP3   OH234948   5.951   5.308  12.876  0.3067  0.0818 -0.2657
 4486TIP3    H134949   5.895   5.379  12.908 -0.2520 -0.0905 -0.8450
 4486TIP3    H234950   5.960   5.325  12.782  0.6901 -0.2658 -0.2954
 4487TIP3   OH234951   0.787   2.916   0.917  0.6346 -0.0147 -0.1230
 4487TIP3    H134952   0.783   3.008   0.890 -0.4224 -0.5875 -2.2033
 4487TIP3    H234953   0.702   2.900   0.957  0.2932 -0.3770 -0.9602
 4488TIP3   OH234954   5.757   3.991   0.396  1.0267 -0.0144 -0.0382
 4488TIP3    H134955   5.807   4.014   0.317 -0.1479  0.9258 -0.5385
 4488TIP3    H234956   5.816   4.009   0.468  1.8430 -0.1063 -0.6662
 4489TIP3   OH234957   4.452   4.088   2.511  0.0140 -0.2215  0.4576
 4489TIP3    H134958   4.453   4.030   2.587 -1.8426 -0.0217  0.6907
 4489TIP3    H234959   4.363   4.124   2.510  0.4289  0.8467 -1.0113
 4490TIP3   OH234960   6.018   1.014   1.368 -0.4526 -0.6603  0.5929
 4490TIP3    H134961   6.109   0.995   1.347 -0.3928  0.1491  0.0497
 4490TIP3    H234962   5.994   0.949   1.434  0.5625 -0.7888  0.8578
 4491TIP3   OH234963   0.756   5.594   4.773 -0.1297 -0.3805  0.4410
 4491TIP3    H134964   0.814   5.661   4.736  0.2205 -1.6746 -1.5760
 4491TIP3    H234965   0.810   5.548   4.837  0.7552 -0.8627 -0.6218
 4492TIP3   OH234966   3.942   4.901  13.902  0.1465 -0.0887 -0.4093
 4492TIP3    H134967   4.035   4.880  13.912  0.0447 -0.6082 -0.5179
 4492TIP3    H234968   3.928   4.976  13.961  0.8075  0.5286 -1.0134
 4493TIP3   OH234969   3.225   4.371  11.517  0.4471  0.1031 -0.9732
 4493TIP3    H134970   3.134   4.399  11.528  0.4781  0.3151 -1.2488
 4493TIP3    H234971   3.220   4.295  11.460  0.4047 -0.1768 -0.6053
 4494TIP3   OH234972   1.089   5.671  11.718  0.3150 -0.6292 -0.2446
 4494TIP3    H134973   1.054   5.648  11.804 -1.2572 -0.4513 -0.8036
 4494TIP3    H234974   1.059   5.600  11.660 -0.6888  0.4370 -1.0865
 4495TIP3   OH234975   6.495   3.982   5.638  0.3316  0.1680 -0.8426
 4495TIP3    H134976   6.479   4.070   5.604  1.7015  1.0945  0.7740
 4495TIP3    H234977   6.563   3.994   5.704 -1.0934 -1.7443  1.0949
 4496TIP3   OH234978   2.601   4.972   0.375 -0.7378 -0.0433 -0.8225
 4496TIP3    H134979   2.587   5.008   0.288 -0.5690  0.8828 -0.4689
 4496TIP3    H234980   2.552   5.030   0.433  0.3439  0.2110 -0.1366
 4497TIP3   OH234981   0.902   3.740   1.739 -0.3504  0.0653  0.0452
 4497TIP3    H134982   0.831   3.781   1.788  0.2411  1.0906  0.0705
 4497TIP3    H234983   0.964   3.811   1.723 -0.0838 -0.4590 -1.3636
 4498TIP3   OH234984   4.413   5.683   4.068 -0.2832  0.0933 -0.3056
 4498TIP3    H134985   4.477   5.644   4.008 -0.8229 -0.8284 -0.3061
 4498TIP3    H234986   4.456   5.683   4.153  1.4264  3.5948 -0.9991
 4499TIP3   OH234987   5.105   2.087   3.845  0.2441 -0.1547  0.5774
 4499TIP3    H134988   5.164   2.013   3.858  1.3751  0.8823  1.5243
 4499TIP3    H234989   5.139   2.132   3.768  0.6981  0.4488  1.1283
 4500TIP3   OH234990   6.647   0.469  15.258  0.0157 -0.2154 -0.4797
 4500TIP3    H134991   6.560   0.507  15.244 -0.1897 -0.9198 -1.0951
 4500TIP3    H234992   6.706   0.525  15.207 -0.3471 -0.9829 -1.7740
 4501TIP3   OH234993   0.006   0.982  11.739  0.0577  0.5708 -0.5658
 4501TIP3    H134994  -0.072   0.972  11.683 -0.7804 -0.1967  0.6776
 4501TIP3    H234995   0.040   0.893  11.748 -1.2355  0.2374  2.0232
 4502TIP3   OH234996   5.481   5.632  11.592 -0.3235  0.2178 -0.0561
 4502TIP3    H134997   5.444   5.716  11.564 -2.2452 -0.4224  0.4284
 4502TIP3    H234998   5.474   5.577  11.514 -0.5036  0.0493  0.0809
 4503TIP3   OH234999   5.487   5.984  16.875  0.1117 -0.0211  0.8599
 4503TIP3    H135000   5.582   5.990  16.886  0.4624 -2.6863  0.0651
 4503TIP3    H235001   5.475   5.968  16.781 -0.9248 -1.6500  1.2325
 4504TIP3   OH235002   0.423   2.356   0.906 -0.0478 -0.7564  0.2123
 4504TIP3    H135003   0.507   2.345   0.862  0.7176  0.4884  1.2907
 4504TIP3    H235004   0.360   2.375   0.836  1.2446  1.8510 -0.3518
 4505TIP3   OH235005   5.636   3.926  14.551 -0.3205 -0.4846 -0.0965
 4505TIP3    H135006   5.635   3.893  14.641  0.9752  2.5527  1.1745
 4505TIP3    H235007   5.676   4.013  14.558  3.5221 -1.5863 -4.1156
 4506TIP3   OH235008   0.946   0.872   1.170  0.1979  0.1864  0.0811
 4506TIP3    H135009   0.867   0.861   1.117 -0.2742  1.2838  0.5450
 4506TIP3    H235010   1.015   0.890   1.106 -0.1632  0.4355 -0.2458
 4507TIP3   OH235011   4.716   5.633   1.033 -0.1244 -0.8014  0.3973
 4507TIP3    H135012   4.750   5.572   0.968 -0.7116 -0.3152 -0.3857
 4507TIP3    H235013   4.784   5.700   1.041  0.2808 -1.2524  0.8605
 4508TIP3   OH235014   3.597   4.716  16.452 -0.5976  0.2839  0.7208
 4508TIP3    H135015   3.562   4.647  16.508  0.8012  0.8288  2.3476
 4508TIP3    H235016   3.622   4.671  16.371  0.0062 -1.0701  1.6317
 4509TIP3   OH235017   4.081   3.202   2.970  1.0150  0.4772 -0.0266
 4509TIP3    H135018   4.159   3.209   2.915  1.8258  0.1290  1.0533
 4509TIP3    H235019   4.083   3.280   3.026 -0.3342  1.3475 -1.0967
 4510TIP3   OH235020   5.834   5.268   3.911  0.2451  0.2529  0.2318
 4510TIP3    H135021   5.875   5.245   3.828  2.3338  0.4458  1.1528
 4510TIP3    H235022   5.747   5.227   3.906  0.8331 -0.9252 -1.4662
 4511TIP3   OH235023   0.887   4.017  10.319  0.0364 -0.1650  0.2029
 4511TIP3    H135024   0.892   3.942  10.260  0.8894 -1.4108  1.7867
 4511TIP3    H235025   0.804   4.060  10.296 -0.2048 -1.2667 -1.1033
 4512TIP3   OH235026   6.650   0.570  16.620 -0.5037  0.3170 -0.2100
 4512TIP3    H135027   6.627   0.627  16.546  0.0485 -0.5700 -1.0938
 4512TIP3    H235028   6.668   0.485  16.580  0.6665  0.0318  0.8624
 4513TIP3   OH235029   5.688   4.811  11.318  0.3935 -0.0050 -0.0203
 4513TIP3    H135030   5.728   4.781  11.400  2.2237  1.1521 -0.4061
 4513TIP3    H235031   5.748   4.880  11.288 -0.9306  0.4580 -1.6831
 4514TIP3   OH235032   0.916   6.042  11.263 -0.5720 -0.3355 -0.2062
 4514TIP3    H135033   0.891   6.033  11.171 -2.2394 -2.0470  0.3496
 4514TIP3    H235034   0.963   5.961  11.283 -0.2997 -0.0164  0.4800
 4515TIP3   OH235035   3.730   0.347   4.761  0.1363  0.1119  0.2841
 4515TIP3    H135036   3.710   0.384   4.675  1.1661  1.0473  0.4272
 4515TIP3    H235037   3.661   0.380   4.819 -0.4526 -0.3687 -0.1362
 4516TIP3   OH235038   5.800   5.613  13.957  0.6609 -0.0361  0.1977
 4516TIP3    H135039   5.793   5.527  14.000 -2.2372  0.4798  0.9836
 4516TIP3    H235040   5.880   5.607  13.906  1.9337 -2.3041  2.1998
 4517TIP3   OH235041   4.577   2.906  14.129  0.1489  0.1824  0.8228
 4517TIP3    H135042   4.626   2.924  14.209  0.6388  2.0723  0.1476
 4517TIP3    H235043   4.498   2.959  14.137 -0.7605 -1.1446  0.9114
 4518TIP3   OH235044   1.133   2.132  12.492  0.0158  0.4481 -0.1737
 4518TIP3    H135045   1.120   2.044  12.457  0.1883  0.5717 -0.5613
 4518TIP3    H235046   1.046   2.159  12.522 -0.5896  1.1034 -2.3341
 4519TIP3   OH235047   5.348   4.801   3.844 -0.1573 -0.1811 -0.0230
 4519TIP3    H135048   5.295   4.880   3.839 -0.5554 -0.3924  0.7033
 4519TIP3    H235049   5.428   4.822   3.795 -0.0341  0.8495  0.5863
 4520TIP3   OH235050   3.456   5.615  12.267  0.1969 -0.1627 -0.2413
 4520TIP3    H135051   3.416   5.528  12.259  1.6078 -0.9916  1.1754
 4520TIP3    H235052   3.386   5.671  12.298 -1.1374 -0.4044 -2.5417
 4521TIP3   OH235053   2.080   0.845   0.155 -0.4666  0.2799  0.2063
 4521TIP3    H135054   1.989   0.843   0.125 -0.1310  0.8747 -0.9346
 4521TIP3    H235055   2.101   0.753   0.174 -1.0270  0.0135 -0.4087
 4522TIP3   OH235056   1.869   0.466  12.627  0.1373 -0.2749  0.2755
 4522TIP3    H135057   1.876   0.494  12.718  1.5266 -0.1662  0.1614
 4522TIP3    H235058   1.862   0.548  12.577 -0.6363 -0.3345  0.2813
 4523TIP3   OH235059   5.515   5.165  15.952 -0.0318 -0.4653  0.4926
 4523TIP3    H135060   5.604   5.138  15.974  0.4302  0.0577 -0.6142
 4523TIP3    H235061   5.527   5.248  15.905 -0.9632 -1.1411 -1.0158
 4524TIP3   OH235062   6.270   6.034  11.992  0.1311  0.0537 -0.1086
 4524TIP3    H135063   6.321   5.982  11.931 -0.3917  0.7172 -1.1437
 4524TIP3    H235064   6.199   5.977  12.020  0.2998 -0.2124 -0.2283
 4525TIP3   OH235065   4.296   6.801  13.657 -0.0599 -0.2496 -0.0043
 4525TIP3    H135066   4.329   6.834  13.573  2.7500  0.4608  1.2487
 4525TIP3    H235067   4.352   6.842  13.722 -1.8527 -1.1458  2.2295
 4526TIP3   OH235068   3.615   6.693  15.482 -0.4262  0.0483  0.3206
 4526TIP3    H135069   3.556   6.656  15.416  0.6121  0.2786 -0.7590
 4526TIP3    H235070   3.624   6.785  15.458 -0.8799  0.3926  1.4239
 4527TIP3   OH235071   3.892   3.652  12.571 -0.2010 -0.1884  0.3908
 4527TIP3    H135072   3.832   3.718  12.535 -0.4362 -0.6644 -0.0974
 4527TIP3    H235073   3.883   3.661  12.666 -0.5290  0.2107  0.3252
 4528TIP3   OH235074   4.050   3.860  13.822  0.0076 -0.2928 -0.0328
 4528TIP3    H135075   4.049   3.817  13.907  0.8781 -1.2766 -0.4858
 4528TIP3    H235076   4.107   3.936  13.834 -0.5128  0.0193  0.4599
 4529TIP3   OH235077   1.382   6.172  14.895 -0.1932 -0.2476 -0.2576
 4529TIP3    H135078   1.406   6.087  14.859 -0.6647  0.0208 -1.2575
 4529TIP3    H235079   1.305   6.198  14.844  0.2446  1.0038 -0.3071
 4530TIP3   OH235080   3.354   1.296   3.429  0.0240 -0.1155 -0.3487
 4530TIP3    H135081   3.390   1.284   3.517 -0.5332  1.0618  0.0605
 4530TIP3    H235082   3.273   1.345   3.442  1.5163  3.0601 -1.6715
 4531TIP3   OH235083   2.515   6.058   3.680 -0.5328  0.2068  0.1480
 4531TIP3    H135084   2.578   6.069   3.751 -2.4635  0.2527  1.9607
 4531TIP3    H235085   2.535   5.973   3.642  1.4501  0.8128 -0.2553
 4532TIP3   OH235086   5.681   1.866   2.637  0.0070  0.4445  0.4744
 4532TIP3    H135087   5.732   1.785   2.643  0.6274  0.8807  1.3080
 4532TIP3    H235088   5.654   1.883   2.727 -2.6580 -0.4123 -0.0785
 4533TIP3   OH235089   0.081   3.502   0.820  0.3335 -0.3056  0.0139
 4533TIP3    H135090  -0.003   3.498   0.865  0.0574  1.1077 -0.3358
 4533TIP3    H235091   0.092   3.414   0.783 -0.6787 -0.6940  0.5830
 4534TIP3   OH235092   4.260   4.577  13.253 -0.1458  0.4049 -0.2102
 4534TIP3    H135093   4.350   4.562  13.221  0.0681 -0.4272  0.7298
 4534TIP3    H235094   4.231   4.490  13.281 -0.2499  1.1092  2.0009
 4535TIP3   OH235095   3.864   2.495   2.045 -0.1913 -0.1319  0.2397
 4535TIP3    H135096   3.857   2.530   2.134 -2.0901  1.6982 -0.5274
 4535TIP3    H235097   3.820   2.410   2.048  1.4903 -1.0074  1.4241
 4536TIP3   OH235098   1.396   5.370   4.287  0.2377 -0.2781  0.7652
 4536TIP3    H135099   1.356   5.292   4.325  1.2906 -1.2681 -0.0672
 4536TIP3    H235100   1.478   5.339   4.248  1.1373  1.4204  1.1969
 4537TIP3   OH235101   3.662   1.753   5.595  0.2968  0.1895  0.5772
 4537TIP3    H135102   3.640   1.809   5.669 -0.5219  0.4040  0.1913
 4537TIP3    H235103   3.612   1.791   5.522 -1.1546 -1.6650  0.5339
 4538TIP3   OH235104   1.182   2.701  16.188  0.1327  0.0685 -0.3363
 4538TIP3    H135105   1.107   2.652  16.155 -0.2272  0.7361 -0.5372
 4538TIP3    H235106   1.239   2.712  16.111 -0.3143  0.9076 -0.5666
 4539TIP3   OH235107   1.503   6.179  14.237 -0.0353  0.1762 -0.2249
 4539TIP3    H135108   1.549   6.138  14.164  0.4008 -0.3403  0.3228
 4539TIP3    H235109   1.421   6.131  14.244 -0.1070  0.2731 -0.4277
 4540TIP3   OH235110   4.496   3.324   4.762  0.0655 -0.2440  0.1709
 4540TIP3    H135111   4.431   3.382   4.723  0.5216 -0.3250 -0.7349
 4540TIP3    H235112   4.534   3.375   4.834  1.6135  1.2489 -1.6002
 4541TIP3   OH235113   2.112   4.638  12.722 -0.0044  0.2165  0.5616
 4541TIP3    H135114   2.164   4.562  12.747  1.5071  0.4753 -1.5435
 4541TIP3    H235115   2.151   4.711  12.771 -2.1085 -0.3517  3.4080
 4542TIP3   OH235116   3.934   2.934   2.984  0.1416 -0.0755  0.5221
 4542TIP3    H135117   3.998   2.883   3.034 -0.8484  0.8391  2.8621
 4542TIP3    H235118   3.979   3.017   2.965  0.1432  0.0078  0.8901
 4543TIP3   OH235119   2.538   3.585  13.072  0.2030 -0.4716  0.6050
 4543TIP3    H135120   2.582   3.501  13.061  1.0265  0.0698 -0.4313
 4543TIP3    H235121   2.609   3.649  13.081 -0.3549  0.3085 -0.2185
 4544TIP3   OH235122   1.108   5.058  13.992  0.2081 -0.2646 -0.4662
 4544TIP3    H135123   1.202   5.053  14.010 -0.0430 -0.0348  1.0496
 4544TIP3    H235124   1.070   4.983  14.038 -0.6384  1.1329  1.1905
 4545TIP3   OH235125   0.650   6.687  14.859  0.6070 -0.3262 -0.5197
 4545TIP3    H135126   0.556   6.696  14.876  1.1430  1.2208  2.3113
 4545TIP3    H235127   0.656   6.666  14.766 -2.5417 -1.0034 -0.6786
 4546TIP3   OH235128   6.823   0.920   2.260 -0.3877  0.0709 -0.7289
 4546TIP3    H135129   6.763   0.977   2.308  0.0584  0.1839 -0.2967
 4546TIP3    H235130   6.800   0.831   2.288  1.0365  0.2184  1.1090
 4547TIP3   OH235131   4.132   1.952   1.404  0.0624 -0.7278 -0.1619
 4547TIP3    H135132   4.143   1.962   1.498 -2.3122 -0.5922  0.1648
 4547TIP3    H235133   4.040   1.973   1.388  1.1265  2.7401 -3.0015
 4548TIP3   OH235134   2.470   2.085  10.889 -0.1859 -0.0686  0.2499
 4548TIP3    H135135   2.536   2.098  10.957 -1.0621  2.4235  0.7227
 4548TIP3    H235136   2.500   2.139  10.816 -0.9111 -0.1055 -0.0844
 4549TIP3   OH235137   2.459   5.631  15.477  0.1249 -0.2361  0.5075
 4549TIP3    H135138   2.468   5.536  15.469  1.6435 -0.2567  1.7929
 4549TIP3    H235139   2.498   5.666  15.397 -0.7304 -0.6745 -0.1200
 4550TIP3   OH235140   4.905   2.230  11.087  0.0328  0.6742 -0.0969
 4550TIP3    H135141   4.877   2.309  11.041  1.7547  1.2754 -0.1689
 4550TIP3    H235142   4.967   2.188  11.027 -2.1594 -1.7719 -0.8822
 4551TIP3   OH235143   5.724   1.511   2.276 -0.1473 -0.4873 -0.0663
 4551TIP3    H135144   5.773   1.465   2.207  0.9526 -0.5262  0.7125
 4551TIP3    H235145   5.716   1.601   2.243  0.4785 -0.4725 -0.2066
 4552TIP3   OH235146   3.111   2.503  15.345 -0.1778  0.4759 -0.5284
 4552TIP3    H135147   3.186   2.537  15.393 -0.7796 -0.2118  0.9637
 4552TIP3    H235148   3.038   2.508  15.407 -0.8467 -1.0444 -1.1336
 4553TIP3   OH235149   5.853   1.861  16.000  0.2587 -0.1381 -0.9107
 4553TIP3    H135150   5.879   1.952  15.983  0.8414  0.0057  0.5815
 4553TIP3    H235151   5.936   1.816  16.017 -0.0998 -0.7351 -0.7380
 4554TIP3   OH235152   1.917   5.616  16.520  0.1521  0.7455  0.0307
 4554TIP3    H135153   2.008   5.645  16.525  0.0065  1.7801 -2.1439
 4554TIP3    H235154   1.866   5.697  16.517 -0.6275  0.2466 -1.1713
 4555TIP3   OH235155   5.030   5.858  16.403 -0.3073 -0.3611 -0.5840
 4555TIP3    H135156   5.061   5.791  16.344 -0.8364 -1.4382  0.3220
 4555TIP3    H235157   5.053   5.941  16.361  3.5183 -1.0309 -0.1440
 4556TIP3   OH235158   1.794   4.899   4.482 -0.2027 -0.1937  0.1180
 4556TIP3    H135159   1.841   4.931   4.559  2.6228 -0.7301 -1.2563
 4556TIP3    H235160   1.796   4.804   4.491 -1.1302 -0.2200  0.0800
 4557TIP3   OH235161   1.369   5.529  11.222 -0.4385  0.1376  0.0644
 4557TIP3    H135162   1.396   5.617  11.250  0.0961 -0.2094  0.6648
 4557TIP3    H235163   1.395   5.524  11.130 -0.6814  0.6925 -0.0361
 4558TIP3   OH235164   4.490   4.898   4.659  0.4740  0.0033  0.1434
 4558TIP3    H135165   4.467   4.806   4.675 -0.4085  0.0707 -0.6083
 4558TIP3    H235166   4.423   4.928   4.597  0.7051  1.1785  0.4434
 4559TIP3   OH235167   5.022   1.876  16.079 -0.6340 -0.5464  0.6387
 4559TIP3    H135168   5.001   1.794  16.033 -0.6195 -0.0278 -0.3323
 4559TIP3    H235169   5.049   1.935  16.009 -0.5155  0.2501  1.3491
 4560TIP3   OH235170   3.038   3.856  15.756  0.3690 -0.1930  0.0576
 4560TIP3    H135171   3.116   3.863  15.701 -0.3602 -1.7849 -1.2744
 4560TIP3    H235172   3.027   3.762  15.771 -1.5356 -0.0623 -0.1933
 4561TIP3   OH235173   4.432   4.136  12.232 -0.0317 -0.3129 -0.0758
 4561TIP3    H135174   4.447   4.224  12.266  1.3031 -0.8816  0.8967
 4561TIP3    H235175   4.343   4.113  12.261 -1.2165  1.4329 -2.0661
 4562TIP3   OH235176   2.892   1.747  13.246  0.0358  0.4569  0.0367
 4562TIP3    H135177   2.977   1.786  13.265  1.1256 -1.4430 -0.6572
 4562TIP3    H235178   2.835   1.822  13.226  0.9512  1.9384  2.4584
 4563TIP3   OH235179   1.646   1.049   2.336  0.0259 -0.5029  0.0207
 4563TIP3    H135180   1.617   1.062   2.246  2.7868 -1.3089 -1.1204
 4563TIP3    H235181   1.636   1.134   2.378 -0.7937  0.0405 -1.2281
 4564TIP3   OH235182   5.935   4.202   6.645  0.4407 -0.1172  0.0745
 4564TIP3    H135183   5.949   4.148   6.568  2.5732  2.4423 -1.5117
 4564TIP3    H235184   6.022   4.213   6.683 -0.2873  0.2587  1.7223
 4565TIP3   OH235185   2.005   0.293   1.385 -0.6169  0.2108 -0.4918
 4565TIP3    H135186   2.056   0.362   1.341  0.5038 -0.9527 -1.0850
 4565TIP3    H235187   1.929   0.280   1.328 -0.6222  0.6631 -0.5931
 4566TIP3   OH235188   4.870   0.872   2.833 -0.3383 -0.2341 -0.1069
 4566TIP3    H135189   4.840   0.809   2.898 -0.7867  0.3524  0.2609
 4566TIP3    H235190   4.846   0.957   2.869  1.3107  0.2328 -0.0400
 4567TIP3   OH235191   6.397   3.578  14.350 -0.2177 -0.2752  0.4808
 4567TIP3    H135192   6.488   3.601  14.334 -0.4172  0.5585  0.4632
 4567TIP3    H235193   6.368   3.638  14.418 -1.8867  2.4131 -2.3122
 4568TIP3   OH235194   6.321   6.744   4.658  0.9308 -0.4546  0.2430
 4568TIP3    H135195   6.398   6.795   4.683 -0.4322  0.8687  1.9504
 4568TIP3    H235196   6.339   6.656   4.693  1.3707  0.0175  1.2298
 4569TIP3   OH235197   2.363   1.163   5.057 -0.4638  0.1735  0.6237
 4569TIP3    H135198   2.332   1.203   5.138 -0.9376 -0.6426  0.8533
 4569TIP3    H235199   2.420   1.092   5.084  0.2411  0.5697  0.2180
 4570TIP3   OH235200   0.841   3.591  11.802  0.6338 -0.1253 -0.4962
 4570TIP3    H135201   0.795   3.670  11.771  1.4280  1.6315  2.3776
 4570TIP3    H235202   0.907   3.574  11.736 -0.1427  1.0852 -1.6339
 4571TIP3   OH235203   5.948   2.664  13.255  0.0932 -0.3217 -0.0690
 4571TIP3    H135204   5.968   2.602  13.185  0.1104  0.5360 -0.8447
 4571TIP3    H235205   5.961   2.614  13.336 -0.7867 -1.5911 -0.6784
 4572TIP3   OH235206   6.742   4.335  10.756  0.3302  0.1779 -0.3980
 4572TIP3    H135207   6.799   4.262  10.731  0.7029  0.8715 -1.6768
 4572TIP3    H235208   6.668   4.330  10.695  0.4062  0.9107 -0.5592
 4573TIP3   OH235209   0.891   6.092   2.835  0.3620 -0.0617 -0.4536
 4573TIP3    H135210   0.976   6.055   2.810  1.4747  1.6138  0.5817
 4573TIP3    H235211   0.878   6.165   2.774 -1.3416 -1.4722 -1.8748
 4574TIP3   OH235212   5.340   5.415  15.676  0.0901 -0.2753  0.0354
 4574TIP3    H135213   5.291   5.335  15.658  0.6290 -0.2336 -1.7876
 4574TIP3    H235214   5.304   5.479  15.615  1.4376  0.1402 -0.3547
 4575TIP3   OH235215   1.822   0.056  15.259  0.3311 -0.9221  0.5656
 4575TIP3    H135216   1.844   0.034  15.169 -1.5413  1.0566 -0.4415
 4575TIP3    H235217   1.727   0.062  15.261  0.4219  1.7293  1.9597
 4576TIP3   OH235218   3.877   0.572  15.433  0.7815  0.0611 -0.0370
 4576TIP3    H135219   3.965   0.605  15.412  1.4974 -2.7389 -1.9215
 4576TIP3    H235220   3.893   0.504  15.498 -0.2153  0.5803  0.7710
 4577TIP3   OH235221   0.014   3.455   2.500 -0.2262  0.1381 -0.2957
 4577TIP3    H135222   0.096   3.418   2.466 -0.3715  1.0471 -1.7494
 4577TIP3    H235223  -0.015   3.393   2.566  2.5268  0.6254  1.5743
 4578TIP3   OH235224   1.753   0.758   1.787 -0.0754 -0.8072 -0.2237
 4578TIP3    H135225   1.799   0.825   1.838 -2.1812 -1.0897  2.2257
 4578TIP3    H235226   1.743   0.797   1.700 -1.0872  2.0435  1.0595
 4579TIP3   OH235227   5.330   1.259   6.041 -0.4901  0.0373  0.1321
 4579TIP3    H135228   5.261   1.193   6.054  0.2499 -0.3355  2.9442
 4579TIP3    H235229   5.311   1.297   5.955 -3.4842 -0.8505  0.2709
 4580TIP3   OH235230   5.827   3.946  12.267 -0.3272 -0.1297 -0.4824
 4580TIP3    H135231   5.825   3.948  12.171 -0.8516  1.4471 -0.4628
 4580TIP3    H235232   5.759   3.883  12.291 -0.4898 -0.2143 -1.1339
 4581TIP3   OH235233   3.878   3.573  16.438 -1.1390  0.4966  0.0637
 4581TIP3    H135234   3.926   3.655  16.429  0.9710 -0.5268  1.2204
 4581TIP3    H235235   3.797   3.597  16.481 -0.6210  2.0011  0.2550
 4582TIP3   OH235236   6.802   0.316   6.311  0.2728 -0.4239 -0.3383
 4582TIP3    H135237   6.846   0.334   6.394  0.7393  1.7288 -0.9966
 4582TIP3    H235238   6.709   0.326   6.330  0.1062 -2.8569  0.5483
 4583TIP3   OH235239   1.159   6.819   4.468 -0.0951  0.2979  0.4056
 4583TIP3    H135240   1.105   6.898   4.468 -0.7783 -0.1622 -0.1780
 4583TIP3    H235241   1.200   6.817   4.382 -0.6838 -0.3826  0.1313
 4584TIP3   OH235242   5.699   1.125   1.534  0.2032 -0.2267  0.1795
 4584TIP3    H135243   5.752   1.202   1.555  0.1227 -0.1559  0.1221
 4584TIP3    H235244   5.611   1.159   1.524 -0.1334 -0.5483  1.7384
 4585TIP3   OH235245   1.504   0.078  14.705 -0.1919 -0.0503  0.3538
 4585TIP3    H135246   1.490   0.166  14.671 -1.8472 -0.7231 -0.8355
 4585TIP3    H235247   1.494   0.021  14.628 -3.0881 -1.5739  1.6868
 4586TIP3   OH235248   3.737   2.423   4.169 -0.0874 -0.4982 -0.1241
 4586TIP3    H135249   3.725   2.339   4.125 -1.1031 -0.0350 -0.7714
 4586TIP3    H235250   3.777   2.401   4.253 -0.1236 -1.6029 -0.3834
 4587TIP3   OH235251   0.854   4.110   4.868 -0.5865 -0.8326  0.0831
 4587TIP3    H135252   0.921   4.169   4.902 -0.3471 -1.2263  0.2960
 4587TIP3    H235253   0.825   4.061   4.944 -2.9858  1.1178  0.5494
 4588TIP3   OH235254   1.225   4.547  14.842 -0.2795 -0.5490  0.2585
 4588TIP3    H135255   1.242   4.526  14.750  1.6130 -2.4619  0.9642
 4588TIP3    H235256   1.243   4.641  14.849 -0.3024 -0.4094 -1.2812
 4589TIP3   OH235257   4.680   2.550   1.355  0.0784  0.1687 -0.3995
 4589TIP3    H135258   4.775   2.554   1.365  0.2128  0.3855 -1.6120
 4589TIP3    H235259   4.663   2.463   1.319 -0.1088  0.4161 -0.9129
 4590TIP3   OH235260   3.517   1.496  13.527 -0.0397  0.6347 -0.5094
 4590TIP3    H135261   3.439   1.552  13.523 -1.1984 -0.9642 -0.9737
 4590TIP3    H235262   3.488   1.411  13.495  1.2100 -0.8059  1.9322
 4591TIP3   OH235263   6.807   1.928  15.974 -0.3592  0.1647  0.4241
 4591TIP3    H135264   6.751   1.878  15.914  0.9820  0.5223 -1.1982
 4591TIP3    H235265   6.779   2.019  15.962 -0.3704  0.1907  0.6564
 4592TIP3   OH235266   5.299   3.361   2.867  0.0455 -0.4083  0.2719
 4592TIP3    H135267   5.380   3.374   2.916  0.2517 -1.0903  0.1210
 4592TIP3    H235268   5.233   3.347   2.935 -0.0552  0.6757  0.4135
 4593TIP3   OH235269   3.815   1.908  10.927 -0.2736 -0.5433 -0.1014
 4593TIP3    H135270   3.818   1.956  10.844  1.0185 -1.2842 -0.5145
 4593TIP3    H235271   3.861   1.965  10.989  0.1189 -0.6727 -0.2731
 4594TIP3   OH235272   0.649   6.338  17.164 -0.5944  0.2365 -0.0391
 4594TIP3    H135273   0.697   6.332  17.247  0.2748 -0.1496 -0.5550
 4594TIP3    H235274   0.638   6.432  17.149 -1.1419  0.3051  0.7182
 4595TIP3   OH235275   6.050   4.087  12.024  0.4244 -0.4477  0.0229
 4595TIP3    H135276   6.113   4.084  12.096 -0.6960 -2.0332  0.9832
 4595TIP3    H235277   6.016   4.177  12.026  1.2756 -0.1210  0.6657
 4596TIP3   OH235278   1.339   1.447   4.034 -0.0805 -0.1112 -0.2044
 4596TIP3    H135279   1.281   1.512   3.995 -0.1038 -0.1461 -0.2272
 4596TIP3    H235280   1.423   1.493   4.045 -0.2578  0.1014  0.3165
 4597TIP3   OH235281   3.770   1.589  16.910  0.3412  0.1163  0.1232
 4597TIP3    H135282   3.848   1.573  16.962  0.9193  2.9385  0.2789
 4597TIP3    H235283   3.720   1.653  16.960 -1.5885 -0.8506 -0.4748
 4598TIP3   OH235284   5.531   1.325   5.665  0.2372  0.3127 -0.0504
 4598TIP3    H135285   5.580   1.340   5.585  0.8838 -0.2868  0.2175
 4598TIP3    H235286   5.479   1.404   5.677  1.7684  1.3506  0.1018
 4599TIP3   OH235287   2.936   2.424  13.972 -0.3618  0.4455 -0.0015
 4599TIP3    H135288   3.022   2.433  14.014 -1.3390  2.3154  1.7334
 4599TIP3    H235289   2.938   2.487  13.900  0.2891 -0.7737 -1.1148
 4600TIP3   OH235290   3.968   6.663   5.773 -0.5412 -0.1516 -0.1108
 4600TIP3    H135291   3.943   6.617   5.853  0.7677 -1.1486 -0.2315
 4600TIP3    H235292   3.995   6.750   5.803  0.0942 -0.5683  0.5638
 4601TIP3   OH235293   4.979   4.910   4.755 -0.2940 -0.5970 -0.6015
 4601TIP3    H135294   5.034   4.906   4.834 -0.8713 -1.4888 -0.2295
 4601TIP3    H235295   4.895   4.944   4.787 -0.8527 -1.9015 -0.6267
 4602TIP3   OH235296   3.148   0.494   1.796 -0.3539  0.7373 -0.1595
 4602TIP3    H135297   3.076   0.513   1.856  0.5533  0.6353  0.9888
 4602TIP3    H235298   3.204   0.572   1.800 -0.3593  0.7930 -1.0012
 4603TIP3   OH235299   5.628   1.680   6.414  0.3857  0.2916  0.3452
 4603TIP3    H135300   5.597   1.743   6.349  0.9405 -0.5586 -0.7760
 4603TIP3    H235301   5.724   1.687   6.410  0.4607 -0.6643  0.1474
 4604TIP3   OH235302   4.199   4.807   6.528  0.8808 -0.3180  0.2200
 4604TIP3    H135303   4.114   4.822   6.571  1.7723 -0.6088  2.1941
 4604TIP3    H235304   4.198   4.715   6.503  0.4502 -0.2056 -0.2001
 4605TIP3   OH235305   3.765   2.806  12.179  0.1341  0.5854  0.2694
 4605TIP3    H135306   3.683   2.854  12.196 -0.6268 -0.4751 -0.2879
 4605TIP3    H235307   3.737   2.717  12.158  1.5262 -0.1354  1.3306
 4606TIP3   OH235308   3.953   5.446  15.726 -0.3432 -0.1822  0.0222
 4606TIP3    H135309   3.881   5.472  15.668  0.5156  2.1920 -0.1107
 4606TIP3    H235310   3.916   5.454  15.814 -0.8868 -1.2435 -0.0936
 4607TIP3   OH235311   5.455   6.764   4.059  0.4309 -1.1824 -0.5226
 4607TIP3    H135312   5.465   6.706   4.135  0.3739  0.9177  1.1897
 4607TIP3    H235313   5.382   6.822   4.082  1.4377  0.5619 -1.4545
 4608TIP3   OH235314   0.930   1.759   5.842 -0.5042 -0.2367  0.2178
 4608TIP3    H135315   0.868   1.736   5.772  0.2345 -0.8526 -0.2399
 4608TIP3    H235316   0.874   1.780   5.917 -1.2587 -1.8728  0.1554
 4609TIP3   OH235317   3.625   4.169   3.116 -0.1017  0.0004 -0.2041
 4609TIP3    H135318   3.593   4.245   3.066 -1.1978 -0.5547 -0.3752
 4609TIP3    H235319   3.673   4.117   3.052  0.5298  0.4679 -0.1195
 4610TIP3   OH235320   1.399   0.715   3.736  0.4523  0.4440 -0.0559
 4610TIP3    H135321   1.425   0.790   3.790  0.9633  0.6013 -0.5071
 4610TIP3    H235322   1.404   0.640   3.795  0.2024  0.7260  0.3306
 4611TIP3   OH235323   1.878   3.445  13.934  0.0502  0.2376  0.3719
 4611TIP3    H135324   1.822   3.375  13.969 -2.5282  3.4218  3.3254
 4611TIP3    H235325   1.819   3.500  13.884  1.1613  2.0856  1.0072
 4612TIP3   OH235326   3.275   6.561   1.450  0.2870  0.6114 -0.1881
 4612TIP3    H135327   3.315   6.586   1.534  0.7921  3.3398 -1.1595
 4612TIP3    H235328   3.186   6.536   1.473  1.0659 -0.9788  1.4101
 4613TIP3   OH235329   1.934   3.252   6.052 -0.0254 -0.0928 -0.4060
 4613TIP3    H135330   1.855   3.283   6.096  0.2055 -0.0168 -0.0413
 4613TIP3    H235331   1.945   3.162   6.083  0.2679  0.0389 -0.1251
 4614TIP3   OH235332   5.805   4.175  15.143 -0.1585 -0.8522  0.0735
 4614TIP3    H135333   5.742   4.130  15.086  0.4035  0.5365 -1.7361
 4614TIP3    H235334   5.753   4.201  15.219 -1.0830 -2.1963 -0.0486
 4615TIP3   OH235335   4.677   0.706   5.598 -0.6216  0.5817  0.1053
 4615TIP3    H135336   4.676   0.802   5.595 -1.1365  0.5722 -3.1759
 4615TIP3    H235337   4.656   0.679   5.509  0.3613 -2.6148  0.7307
 4616TIP3   OH235338   2.302   1.360  15.892  0.3477 -0.2994  0.4076
 4616TIP3    H135339   2.380   1.406  15.861 -0.6908 -0.0950 -2.1718
 4616TIP3    H235340   2.335   1.278  15.929  1.7892 -0.5363 -1.2629
 4617TIP3   OH235341   5.332   1.526  12.809  0.4162 -0.0204 -0.3176
 4617TIP3    H135342   5.258   1.575  12.773 -0.2963 -0.4205  0.5692
 4617TIP3    H235343   5.376   1.489  12.732 -0.6946 -0.3360 -0.8169
 4618TIP3   OH235344   6.256   3.770   2.634 -0.5279 -0.3303  0.6728
 4618TIP3    H135345   6.176   3.822   2.623 -0.7567 -0.4790  1.5681
 4618TIP3    H235346   6.226   3.680   2.636 -0.0784 -0.5570 -1.3602
 4619TIP3   OH235347   3.259   1.330  14.420  0.1155  0.6386  0.1283
 4619TIP3    H135348   3.261   1.339  14.515  2.1721  1.6908  0.0514
 4619TIP3    H235349   3.350   1.346  14.393 -0.3185 -0.1717 -1.9692
 4620TIP3   OH235350   1.170   0.740  15.278  0.2362  0.0511  0.2735
 4620TIP3    H135351   1.201   0.651  15.262 -1.2679 -0.4955  0.2213
 4620TIP3    H235352   1.148   0.741  15.371 -0.2857  0.1817  0.1534
 4621TIP3   OH235353   3.444   4.908   3.523  0.4565 -0.3038  0.1272
 4621TIP3    H135354   3.470   4.970   3.455 -3.4210  1.4993  0.0271
 4621TIP3    H235355   3.415   4.831   3.474 -0.8231  0.3759 -0.2319
 4622TIP3   OH235356   4.399   0.852   6.471  0.1158 -0.8015 -0.4369
 4622TIP3    H135357   4.342   0.863   6.395  0.4548 -0.9622 -0.7165
 4622TIP3    H235358   4.353   0.791   6.528  0.5482 -1.8651 -1.2040
 4623TIP3   OH235359   4.376   2.128   5.900  0.7427  0.3582 -0.7066
 4623TIP3    H135360   4.450   2.067   5.902  0.5464  0.1281  0.0471
 4623TIP3    H235361   4.336   2.119   5.987  0.9984  1.9400 -0.4083
 4624TIP3   OH235362   6.633   5.910  11.403 -0.4486  0.0292  0.0911
 4624TIP3    H135363   6.647   5.899  11.309  1.0491 -2.0029  0.4907
 4624TIP3    H235364   6.539   5.898  11.414 -0.5771 -0.2029 -1.0929
 4625TIP3   OH235365   4.760   2.959  16.704  0.5004 -0.5939 -0.0234
 4625TIP3    H135366   4.684   2.934  16.651  0.8910  0.7406 -1.2882
 4625TIP3    H235367   4.833   2.911  16.666  0.6633 -0.1570 -0.2708
 4626TIP3   OH235368   0.506   4.495  12.949  0.5618  0.0735  0.7133
 4626TIP3    H135369   0.432   4.537  12.906  1.4561 -1.4138 -2.6890
 4626TIP3    H235370   0.579   4.556  12.937  0.7058 -0.1291  0.5393
 4627TIP3   OH235371   1.678   1.574   4.408 -0.1508 -0.4148 -0.2358
 4627TIP3    H135372   1.754   1.517   4.415 -0.2868 -0.4577  1.4747
 4627TIP3    H235373   1.644   1.579   4.498 -0.8363  1.3999 -0.5532
 4628TIP3   OH235374   6.815   4.410   2.661  0.5020 -0.2351  0.2448
 4628TIP3    H135375   6.779   4.497   2.677 -0.6467 -0.6556  0.0297
 4628TIP3    H235376   6.795   4.360   2.740  2.7182  0.1544  1.1174
 4629TIP3   OH235377   0.023   1.133  15.990 -0.1751  0.5033  0.2836
 4629TIP3    H135378   0.048   1.144  16.082 -0.1812 -0.5581  0.4272
 4629TIP3    H235379  -0.022   1.215  15.967 -1.9793  0.0091  1.8337
 4630TIP3   OH235380   1.544   0.983   0.085  0.5006 -0.6575 -0.7839
 4630TIP3    H135381   1.476   0.919   0.064 -0.2355  0.2143 -1.1500
 4630TIP3    H235382   1.534   0.999   0.179 -1.2079  0.9787 -1.1800
 4631TIP3   OH235383   0.184   2.779   5.163  0.2281  0.5453 -0.4152
 4631TIP3    H135384   0.265   2.808   5.121  2.3756 -2.7733  1.0078
 4631TIP3    H235385   0.190   2.811   5.253 -0.1602  0.4913 -0.3682
 4632TIP3   OH235386   6.526   5.229  16.164 -0.4383  0.3460 -0.6203
 4632TIP3    H135387   6.611   5.188  16.149 -1.4907 -2.4021  0.2910
 4632TIP3    H235388   6.475   5.210  16.086 -1.1411 -0.6904  0.0701
 4633TIP3   OH235389   1.942   1.803   2.058  0.5825  0.0386 -0.9050
 4633TIP3    H135390   1.919   1.896   2.055  1.7788  0.4162  0.4063
 4633TIP3    H235391   1.866   1.761   2.099  1.1048  0.8853  1.0663
 4634TIP3   OH235392   6.576   6.152   2.966 -0.5359 -0.4420 -0.6188
 4634TIP3    H135393   6.515   6.201   3.021  0.8798 -1.3736  1.9376
 4634TIP3    H235394   6.622   6.219   2.915 -0.2838  0.7376  1.0788
 4635TIP3   OH235395   2.708   6.018   6.368 -0.3916 -0.0336 -0.2148
 4635TIP3    H135396   2.732   6.079   6.438 -0.3808  1.4037 -1.4040
 4635TIP3    H235397   2.662   5.947   6.411  0.5262  0.2889  1.3635
 4636TIP3   OH235398   1.722   1.322  14.175 -0.7003 -0.7861  0.3071
 4636TIP3    H135399   1.736   1.321  14.080  0.3459  1.1236  0.4008
 4636TIP3    H235400   1.790   1.263  14.209 -0.3096 -0.5607 -0.0627
 4637TIP3   OH235401   5.265   6.452   6.762  0.3234  0.3709  0.1503
 4637TIP3    H135402   5.343   6.501   6.790  1.2142 -0.3368 -0.9842
 4637TIP3    H235403   5.194   6.516   6.768  1.1082  1.2396  0.5606
 4638TIP3   OH235404   1.714   5.200   4.771 -0.4413 -0.0479  0.5935
 4638TIP3    H135405   1.706   5.195   4.867  1.1908 -1.1520  0.7280
 4638TIP3    H235406   1.700   5.292   4.750  0.2361  0.4137  2.0243
 4639TIP3   OH235407   5.336   3.843  11.093 -0.1032  0.3216 -0.6957
 4639TIP3    H135408   5.273   3.798  11.036 -0.1245  1.0367 -1.2580
 4639TIP3    H235409   5.407   3.780  11.106 -0.6551 -0.2782 -0.5426
 4640TIP3   OH235410   6.643   1.806   0.391  0.4860 -0.0788 -0.4088
 4640TIP3    H135411   6.681   1.734   0.340 -0.0939 -0.4684 -0.2978
 4640TIP3    H235412   6.608   1.866   0.325 -1.1121 -1.0371 -0.5043
 4641TIP3   OH235413   5.697   3.616  14.933 -0.3896 -0.1405 -0.4007
 4641TIP3    H135414   5.605   3.604  14.957  0.2072 -0.4605  2.0166
 4641TIP3    H235415   5.729   3.527  14.915 -0.3415 -0.1360 -0.3392
 4642TIP3   OH235416   0.094   4.897   3.406 -0.0838  0.0641 -0.1407
 4642TIP3    H135417   0.001   4.877   3.411  0.0416 -0.2042  2.7030
 4642TIP3    H235418   0.137   4.814   3.427  0.8978 -0.1212 -2.5646
 4643TIP3   OH235419   4.618   1.622  13.512  0.1835 -0.2384  0.5251
 4643TIP3    H135420   4.563   1.633  13.589  0.4190  2.0197  0.4318
 4643TIP3    H235421   4.627   1.710  13.476  1.1675 -1.0418 -1.3376
 4644TIP3   OH235422   4.643   1.314  12.920 -0.0355  0.1218  0.4262
 4644TIP3    H135423   4.714   1.330  12.859  1.2571 -1.7966  1.3115
 4644TIP3    H235424   4.564   1.345  12.875  1.1348  0.7294 -1.2895
 4645TIP3   OH235425   2.354   4.640   4.012  0.4059 -0.0552  0.0523
 4645TIP3    H135426   2.261   4.662   4.017  0.2714 -0.7388  0.7120
 4645TIP3    H235427   2.369   4.580   4.085  0.9272 -1.5276 -1.2168
 4646TIP3   OH235428   5.512   1.109  14.165  0.2940  0.3767  0.0056
 4646TIP3    H135429   5.583   1.172  14.180 -2.6311  3.5352  2.4754
 4646TIP3    H235430   5.471   1.138  14.084 -0.3235  0.9331  0.5063
 4647TIP3   OH235431   3.710   2.830   1.533 -0.0150  0.0601 -0.3847
 4647TIP3    H135432   3.671   2.822   1.446 -1.4067 -1.9114  0.3454
 4647TIP3    H235433   3.635   2.827   1.593  1.0445 -0.5985  0.9559
 4648TIP3   OH235434   1.198   0.224  15.207  0.8744 -0.0699  0.2082
 4648TIP3    H135435   1.132   0.293  15.210 -0.6563 -1.4441 -0.6603
 4648TIP3    H235436   1.210   0.205  15.114  1.5346 -0.7515  0.4203
 4649TIP3   OH235437   2.810   0.066   3.174 -0.0542  0.0551 -0.0757
 4649TIP3    H135438   2.751   0.029   3.109  1.8709  0.4346 -2.1748
 4649TIP3    H235439   2.867   0.125   3.124  0.2105  1.9774  2.3161
 4650TIP3   OH235440   1.644   4.759   5.721 -0.5049 -0.7925 -0.8772
 4650TIP3    H135441   1.606   4.772   5.808  1.0169  2.6356 -0.5740
 4650TIP3    H235442   1.729   4.719   5.737 -0.0178  0.2830 -0.6953
 4651TIP3   OH235443   6.064   2.463  14.864 -0.2159  0.1281  0.0495
 4651TIP3    H135444   6.060   2.370  14.886  0.7738  0.3377  1.2117
 4651TIP3    H235445   6.127   2.500  14.926 -0.5266  1.5625 -0.4479
 4652TIP3   OH235446   0.529   5.876  13.331 -0.4207  0.2169 -0.1497
 4652TIP3    H135447   0.496   5.825  13.404  1.5446  0.9860  1.3720
 4652TIP3    H235448   0.546   5.812  13.262 -2.2098 -0.5321  0.0492
 4653TIP3   OH235449   6.479   3.195  12.114  0.1123 -0.0238 -0.1579
 4653TIP3    H135450   6.546   3.260  12.092  0.4011  1.3962  4.1016
 4653TIP3    H235451   6.522   3.111  12.103  2.3511  0.8244  1.4786
 4654TIP3   OH235452   2.737   3.098   5.692 -0.2870 -0.1366 -0.5726
 4654TIP3    H135453   2.806   3.159   5.664 -1.1101  0.8135 -0.5722
 4654TIP3    H235454   2.784   3.016   5.707  0.6755  0.1710 -1.6770
 4655TIP3   OH235455   2.136   1.614  13.673 -0.0837  0.6272  0.2225
 4655TIP3    H135456   2.206   1.600  13.737 -1.0188 -1.6536  0.8542
 4655TIP3    H235457   2.060   1.639  13.724 -0.3725  0.5946 -0.1821
 4656TIP3   OH235458   5.843   4.926  10.933 -0.1511  0.3574 -0.2083
 4656TIP3    H135459   5.915   4.916  10.995 -0.3607  0.4262  0.0465
 4656TIP3    H235460   5.867   5.003  10.881  0.8559 -0.6794 -1.3499
 4657TIP3   OH235461   1.289   4.880   1.754 -0.5450 -0.1999  0.0852
 4657TIP3    H135462   1.241   4.805   1.790  0.6424 -0.7122  0.6667
 4657TIP3    H235463   1.303   4.938   1.829  0.7466 -0.6184  0.1844
 4658TIP3   OH235464   3.262   5.200  13.505  0.0059 -0.1855  0.7894
 4658TIP3    H135465   3.183   5.211  13.558 -0.5267 -1.4117  0.3136
 4658TIP3    H235466   3.328   5.255  13.546 -0.6027 -0.5314  2.2680
 4659TIP3   OH235467   1.359   0.041  12.155 -0.1808 -0.3848 -0.5058
 4659TIP3    H135468   1.268   0.055  12.126 -1.1587 -2.5907  1.1808
 4659TIP3    H235469   1.394  -0.021  12.092 -0.4854 -0.9552 -0.1242
 4660TIP3   OH235470   3.308   3.499  17.013  0.5490  0.1465 -0.4085
 4660TIP3    H135471   3.251   3.475  17.086  1.4957 -1.2848 -0.1088
 4660TIP3    H235472   3.297   3.594  17.004  0.4510  0.3685  1.6140
 4661TIP3   OH235473   6.064   5.281  15.624 -0.1969 -0.3487  0.6383
 4661TIP3    H135474   6.145   5.230  15.623 -0.4084 -0.6972 -0.1423
 4661TIP3    H235475   6.019   5.255  15.705  0.2524 -0.5069  0.8362
 4662TIP3   OH235476   4.756   5.615   2.977 -0.3717  0.5420 -0.0054
 4662TIP3    H135477   4.786   5.673   3.048  1.0564  1.4111 -1.2611
 4662TIP3    H235478   4.801   5.532   2.994 -1.4068  0.1823  1.0701
 4663TIP3   OH235479   4.718   6.172  16.564 -0.3268  0.1045  0.1950
 4663TIP3    H135480   4.672   6.238  16.617  1.3404  1.2783  0.2861
 4663TIP3    H235481   4.651   6.109  16.539 -1.7688  1.2361  1.0791
 4664TIP3   OH235482   6.394   1.724  15.586 -0.1815 -0.0071  0.4038
 4664TIP3    H135483   6.419   1.703  15.676 -0.4677 -0.3900  0.3983
 4664TIP3    H235484   6.367   1.640  15.549 -1.8723  0.4303  0.5435
 4665TIP3   OH235485   3.985   5.752   3.467  0.7164 -0.6091 -0.2257
 4665TIP3    H135486   3.936   5.670   3.467 -1.1552  0.4565 -0.7102
 4665TIP3    H235487   3.984   5.781   3.558 -0.0377 -0.3194 -0.3252
 4666TIP3   OH235488   0.440   0.023   0.478  0.0587 -0.0504  0.1026
 4666TIP3    H135489   0.521   0.034   0.429 -0.2017  1.5855  0.0024
 4666TIP3    H235490   0.443   0.091   0.546 -0.8940 -0.4413  0.5564
 4667TIP3   OH235491   1.711   5.019   5.750  0.0681  0.0951 -0.0590
 4667TIP3    H135492   1.665   5.086   5.700 -2.0919 -1.4255 -0.2439
 4667TIP3    H235493   1.677   4.936   5.716  1.5368 -1.0683  1.1840
 4668TIP3   OH235494   4.507   5.362   0.649 -0.3566  0.2585  0.6019
 4668TIP3    H135495   4.466   5.294   0.596 -1.9727  1.0997  0.7167
 4668TIP3    H235496   4.501   5.330   0.739 -2.8121  1.2814  0.8839
 4669TIP3   OH235497   1.522   0.314   5.286  0.3118 -0.6967  0.2442
 4669TIP3    H135498   1.444   0.262   5.266 -0.1643  0.6236 -1.5659
 4669TIP3    H235499   1.491   0.383   5.345  0.6293 -1.5239  1.4117
 4670TIP3   OH235500   1.393   5.199   2.195  0.1149 -0.1955  0.3655
 4670TIP3    H135501   1.335   5.268   2.164  0.9254 -0.6858 -2.5515
 4670TIP3    H235502   1.447   5.241   2.262 -1.1420  1.2250  0.5471
 4671TIP3   OH235503   4.670   0.009  12.342  0.0648 -0.6601 -0.2158
 4671TIP3    H135504   4.708  -0.047  12.274  0.7524 -0.6720  0.1591
 4671TIP3    H235505   4.637   0.086  12.296  0.4932 -0.6856 -0.5659
 4672TIP3   OH235506   5.560   2.321   1.359  0.1959 -0.4557  0.1224
 4672TIP3    H135507   5.480   2.373   1.359  0.9150  0.7044  0.8200
 4672TIP3    H235508   5.549   2.260   1.286 -1.6730 -0.9198  0.7573
 4673TIP3   OH235509   0.360   0.493   3.212 -0.0363  0.3533  0.5266
 4673TIP3    H135510   0.365   0.551   3.288 -1.0143 -0.4690  1.2448
 4673TIP3    H235511   0.354   0.552   3.137  1.9727  1.2049  0.9529
 4674TIP3   OH235512   2.586   6.769  12.250 -0.0141  0.1192 -0.9408
 4674TIP3    H135513   2.586   6.782  12.156  0.2812  0.1338 -0.9404
 4674TIP3    H235514   2.674   6.736  12.270 -0.6752 -1.8098 -0.9384
 4675TIP3   OH235515   5.678   0.290  14.507 -0.1298 -0.5825 -0.0422
 4675TIP3    H135516   5.760   0.336  14.491 -0.6281 -0.0672 -1.1890
 4675TIP3    H235517   5.614   0.333  14.451 -1.2755 -0.7611  1.0749
 4676TIP3   OH235518   3.744   1.800  12.369  0.3416  0.2444  0.2920
 4676TIP3    H135519   3.763   1.715  12.408  0.6998 -0.1944 -0.8067
 4676TIP3    H235520   3.705   1.851  12.440  1.6147 -0.2941  1.4242
 4677TIP3   OH235521   2.156   3.935  12.212  0.0645 -0.0835 -0.4479
 4677TIP3    H135522   2.111   3.957  12.131  0.3230  0.8828 -0.3412
 4677TIP3    H235523   2.224   3.873  12.185 -0.1746 -0.1571 -0.8904
 4678TIP3   OH235524   5.977   1.402  13.257  0.0081 -0.0202 -0.3802
 4678TIP3    H135525   6.062   1.436  13.287 -0.9543  2.5255 -0.2328
 4678TIP3    H235526   5.998   1.319  13.214  1.8136 -2.8347  5.0550
 4679TIP3   OH235527   5.014   5.411   5.486  0.3668 -0.4421  0.7602
 4679TIP3    H135528   4.965   5.492   5.500  0.3719 -0.8124  3.5196
 4679TIP3    H235529   5.080   5.433   5.420 -2.0960  0.6492 -1.5095
 4680TIP3   OH235530   4.778   3.530   0.956  0.3066 -0.2113  0.0758
 4680TIP3    H135531   4.804   3.574   0.875 -0.6299  0.2540  0.0161
 4680TIP3    H235532   4.853   3.544   1.015  1.9183 -2.3324 -1.3170
 4681TIP3   OH235533   3.214   4.759  13.933  0.0522  0.2198 -0.3752
 4681TIP3    H135534   3.285   4.731  13.991 -0.0608  0.1399 -0.2743
 4681TIP3    H235535   3.199   4.684  13.875  0.1183  0.2741 -0.4622
 4682TIP3   OH235536   5.135   6.203  16.798 -0.3757 -0.1367  0.1008
 4682TIP3    H135537   5.223   6.229  16.770 -0.3385 -0.1999  0.1586
 4682TIP3    H235538   5.119   6.254  16.878  0.3717 -1.5355  1.1811
 4683TIP3   OH235539   0.492   4.172  15.960  0.0318  0.0027  0.7187
 4683TIP3    H135540   0.466   4.216  15.879 -0.0426  1.5837  1.5589
 4683TIP3    H235541   0.583   4.198  15.973 -0.0075 -0.1089  1.2241
 4684TIP3   OH235542   4.157   1.647  14.668 -0.8230 -0.1336  0.3648
 4684TIP3    H135543   4.138   1.740  14.681  0.0095 -0.1195  1.7220
 4684TIP3    H235544   4.253   1.641  14.673 -0.9372 -1.4207  3.5468
 4685TIP3   OH235545   6.402   4.150   2.675 -0.1962  0.2785 -0.0180
 4685TIP3    H135546   6.444   4.093   2.610 -0.6100 -2.5265  2.0152
 4685TIP3    H235547   6.444   4.235   2.662  2.6048 -1.1571 -1.2946
 4686TIP3   OH235548   1.907   0.813   3.953 -0.6003 -0.3044  0.2335
 4686TIP3    H135549   1.978   0.861   3.997 -0.7594  1.7336 -1.5012
 4686TIP3    H235550   1.942   0.797   3.865 -2.4738  1.4081 -0.9045
 4687TIP3   OH235551   1.052   4.992  12.091 -0.2211  0.1812  0.2299
 4687TIP3    H135552   1.103   4.928  12.139 -1.0271  0.6698  1.8037
 4687TIP3    H235553   1.117   5.050  12.051  0.5070 -1.4669 -1.0856
 4688TIP3   OH235554   2.764   3.870   4.873 -0.4224  0.0863 -0.3233
 4688TIP3    H135555   2.695   3.874   4.807 -0.7084 -1.0929 -0.1164
 4688TIP3    H235556   2.718   3.868   4.957 -0.1511 -1.0113 -0.1952
 4689TIP3   OH235557   3.350   4.275   0.249 -0.2663  0.0432  0.3902
 4689TIP3    H135558   3.364   4.199   0.192 -0.8650  0.3257 -0.1528
 4689TIP3    H235559   3.412   4.341   0.217  1.1962 -0.6421  1.7137
 4690TIP3   OH235560   1.444   1.025   3.733  0.1858 -0.1872 -0.5993
 4690TIP3    H135561   1.501   1.073   3.673  0.3429 -0.6949 -0.8679
 4690TIP3    H235562   1.505   0.976   3.788  0.0205 -0.4337 -0.6345
 4691TIP3   OH235563   5.879   3.873  11.938  0.2230 -0.9153 -0.4839
 4691TIP3    H135564   5.931   3.806  11.893  1.5476 -0.3267  0.1201
 4691TIP3    H235565   5.939   3.946  11.952 -0.5690 -0.4630  0.8466
 4692TIP3   OH235566   4.780   5.377   1.938 -0.1451  0.3252  0.7246
 4692TIP3    H135567   4.743   5.296   1.905 -0.3639  0.6086  0.2582
 4692TIP3    H235568   4.732   5.395   2.019 -0.5255  0.3079  0.5054
 4693TIP3   OH235569   2.403   2.126  12.515 -0.3955 -0.1632  0.0740
 4693TIP3    H135570   2.308   2.115  12.520 -0.8182  0.5706 -3.3106
 4693TIP3    H235571   2.439   2.050  12.560 -2.6460 -1.4257 -0.1254
 4694TIP3   OH235572   4.015   2.674   4.932 -0.2792 -0.1071  0.5180
 4694TIP3    H135573   4.040   2.723   5.010  2.0147 -0.7173  0.2433
 4694TIP3    H235574   3.978   2.592   4.964 -1.0138  0.3707  0.9348
 4695TIP3   OH235575   5.433   1.667  11.285  0.3753 -0.1158 -0.6509
 4695TIP3    H135576   5.436   1.582  11.241 -1.7405 -0.9912  0.7614
 4695TIP3    H235577   5.388   1.725  11.224 -0.4194 -0.6853 -0.6089
 4696TIP3   OH235578   4.459   4.619   5.000 -0.2016 -0.1411  0.1462
 4696TIP3    H135579   4.540   4.670   4.997  0.6926 -1.4815 -3.1746
 4696TIP3    H235580   4.487   4.528   4.986 -2.1769 -0.7277 -0.2979
 4697TIP3   OH235581   1.170   6.097   4.083 -0.0314 -0.6986 -0.8502
 4697TIP3    H135582   1.206   6.186   4.078  2.0032 -1.4455 -0.3237
 4697TIP3    H235583   1.241   6.044   4.120 -2.2787 -1.9437  2.1472
 4698TIP3   OH235584   2.167   6.566   1.705 -0.1137  0.0914 -0.7261
 4698TIP3    H135585   2.077   6.559   1.738  0.8259 -0.2024  2.0676
 4698TIP3    H235586   2.208   6.483   1.728  0.9028  0.2257 -1.9317
 4699TIP3   OH235587   0.261   3.523  16.368  0.1328 -0.3667 -0.6061
 4699TIP3    H135588   0.282   3.555  16.456  1.5548  0.8625 -1.3506
 4699TIP3    H235589   0.292   3.432  16.368  0.5753 -0.2231  0.0113
 4700TIP3   OH235590   4.479   5.540   3.166  0.4205  0.3687  0.0600
 4700TIP3    H135591   4.501   5.480   3.238 -0.0313 -0.2039 -0.2772
 4700TIP3    H235592   4.505   5.626   3.199 -0.3898  0.2121  1.1818
 4701TIP3   OH235593   0.869   6.721  12.557 -0.2911 -1.0291 -0.0964
 4701TIP3    H135594   0.923   6.671  12.617  2.6007  2.0381  0.1469
 4701TIP3    H235595   0.891   6.687  12.470  1.6844 -0.2239  0.0504
 4702TIP3   OH235596   2.939   1.389   3.874 -0.0659  0.0996 -0.0433
 4702TIP3    H135597   2.911   1.328   3.942 -0.0065  0.1083 -0.0106
 4702TIP3    H235598   2.996   1.337   3.817  0.8143  0.3746  0.5595
 4703TIP3   OH235599   4.452   0.822   3.038  0.5332 -0.3195 -0.8034
 4703TIP3    H135600   4.508   0.744   3.038 -1.7528 -2.0674 -0.7263
 4703TIP3    H235601   4.465   0.861   3.124  2.1139 -0.2468 -1.0369
 4704TIP3   OH235602   3.597   6.357   2.875  0.6148 -0.0459  0.2117
 4704TIP3    H135603   3.512   6.354   2.832  2.0403 -0.1562 -2.9300
 4704TIP3    H235604   3.605   6.446   2.909 -0.9012 -0.1902  1.0167
 4705TIP3   OH235605   4.244   3.152  12.154 -0.3327 -0.0045  0.2216
 4705TIP3    H135606   4.206   3.073  12.115  0.4571 -0.6864  0.8059
 4705TIP3    H235607   4.272   3.204  12.079  1.2951 -1.3676 -0.1733
 4706TIP3   OH235608   4.575   2.848  15.311  0.0432 -0.1047 -0.0300
 4706TIP3    H135609   4.517   2.913  15.270 -1.0924  0.3798  2.2140
 4706TIP3    H235610   4.558   2.767  15.262 -4.3424 -0.6058  1.8571
 4707TIP3   OH235611   6.521   2.092   0.478 -0.7500  0.0761  0.3706
 4707TIP3    H135612   6.608   2.061   0.452 -0.3927  0.6909  0.8078
 4707TIP3    H235613   6.484   2.019   0.528 -0.1047  0.1627  0.9894
 4708TIP3   OH235614   5.401   1.152  16.537 -0.5368 -0.4731 -0.1415
 4708TIP3    H135615   5.496   1.145  16.548 -0.2030  0.8985 -1.7106
 4708TIP3    H235616   5.374   1.067  16.502  0.5466 -0.1036 -2.0256
 4709TIP3   OH235617   2.282   6.516  17.109 -0.0241  0.7111  0.4695
 4709TIP3    H135618   2.284   6.423  17.089  0.1135  0.8830 -0.3300
 4709TIP3    H235619   2.306   6.521  17.202 -0.4401 -0.0730  0.6223
 4710TIP3   OH235620   5.985   3.657  15.215 -0.2067 -0.1507  0.4933
 4710TIP3    H135621   6.000   3.608  15.296 -1.5696  0.1509  0.9537
 4710TIP3    H235622   5.984   3.590  15.147  0.1785 -0.5026  0.8280
 4711TIP3   OH235623   5.106   0.845  13.428  0.5746 -0.1812 -0.0643
 4711TIP3    H135624   5.100   0.789  13.351  1.8052  1.2151 -1.2450
 4711TIP3    H235625   5.066   0.928  13.401  1.2191  0.4023  0.7031
 4712TIP3   OH235626   4.652   4.786   4.988 -0.2774  0.7049 -0.2132
 4712TIP3    H135627   4.704   4.851   5.036  1.3946 -0.8286  0.1661
 4712TIP3    H235628   4.576   4.835   4.956  0.0963  2.4784  1.3990
 4713TIP3   OH235629   2.297   3.903  14.577  0.0211 -0.3167  0.0061
 4713TIP3    H135630   2.366   3.967  14.562  0.3679 -0.2774  1.5332
 4713TIP3    H235631   2.289   3.898  14.673 -1.4062 -1.0560 -0.1111
 4714TIP3   OH235632   5.150   0.728  16.986  0.1401  0.2603  0.5173
 4714TIP3    H135633   5.226   0.785  16.993  0.1673  0.4644 -1.0168
 4714TIP3    H235634   5.177   0.660  16.925 -1.1363  0.7895 -0.6943
 4715TIP3   OH235635   5.335   0.066  14.453  0.3757 -0.0198  0.2680
 4715TIP3    H135636   5.400   0.074  14.382  1.0837  3.3733  1.0952
 4715TIP3    H235637   5.257   0.110  14.418  0.5608  1.2202  1.3275
 4716TIP3   OH235638   5.668   3.979  17.170  0.1041  0.5768 -0.5453
 4716TIP3    H135639   5.674   3.901  17.116 -0.0483  0.1686  0.0146
 4716TIP3    H235640   5.709   3.955  17.253  0.4439  1.2292 -0.5153
 4717TIP3   OH235641   4.093   0.398  15.080 -0.7043  0.0960 -0.0209
 4717TIP3    H135642   4.064   0.336  15.013 -0.8823  1.1512 -0.9481
 4717TIP3    H235643   4.060   0.362  15.162 -0.4522 -1.2414 -0.4810
 4718TIP3   OH235644   1.931   6.532  16.629 -0.0802 -0.0069  0.7965
 4718TIP3    H135645   1.913   6.441  16.605 -1.1187  0.3952  0.0131
 4718TIP3    H235646   1.844   6.571  16.640  0.3627  0.8606  1.2635
 4719TIP3   OH235647   4.658   2.654   3.059  0.0511  0.5404 -0.6253
 4719TIP3    H135648   4.605   2.729   3.030 -0.2995  0.1737 -0.9435
 4719TIP3    H235649   4.616   2.578   3.019  0.8275  0.2395 -0.8910
 4720TIP3   OH235650   0.463   3.803  15.539 -0.0269  0.1944  0.1044
 4720TIP3    H135651   0.534   3.740  15.525  0.2786  0.4155  0.6415
 4720TIP3    H235652   0.482   3.843  15.624  0.1287  1.4522 -0.4999
 4721TIP3   OH235653   0.154   6.495  12.178 -0.0215 -0.6630  0.4066
 4721TIP3    H135654   0.186   6.466  12.264  0.7053 -0.7383  0.1154
 4721TIP3    H235655   0.059   6.492  12.186  0.0297 -2.0030  0.7609
 4722TIP3   OH235656   0.324   1.937   0.176 -0.4827 -0.6821 -0.6111
 4722TIP3    H135657   0.330   1.929   0.081  1.1777  1.2074 -0.7443
 4722TIP3    H235658   0.256   2.003   0.191 -1.6874 -1.9343 -0.3849
 4723TIP3   OH235659   3.501   4.555  14.836 -0.0520 -0.4902  0.1321
 4723TIP3    H135660   3.509   4.465  14.868  1.4465 -0.0972  0.9453
 4723TIP3    H235661   3.481   4.546  14.743  2.3148 -1.7170 -0.3280
 4724TIP3   OH235662   4.775   2.636  11.831 -0.1958 -0.3474 -0.2051
 4724TIP3    H135663   4.730   2.583  11.765 -0.3776 -1.0803  0.4863
 4724TIP3    H235664   4.868   2.624  11.812 -0.2491 -0.5240 -0.3614
 4725TIP3   OH235665   0.046   0.001  11.955  0.0733 -0.4369 -0.3360
 4725TIP3    H135666  -0.040  -0.008  11.996 -0.5373  0.0120 -1.4847
 4725TIP3    H235667   0.085   0.076  12.000 -0.0488 -0.7443  0.3088
 4726TIP3   OH235668   5.829   4.588   4.037 -0.5845  0.5467 -0.1158
 4726TIP3    H135669   5.825   4.500   3.997  0.6812  0.7904 -0.8436
 4726TIP3    H235670   5.739   4.619   4.034 -1.3162 -1.2406  1.3905
 4727TIP3   OH235671   3.598   2.040  14.340 -0.5861  0.0163  0.2400
 4727TIP3    H135672   3.665   2.011  14.401 -0.7019  2.3196  1.5803
 4727TIP3    H235673   3.645   2.055  14.258 -0.3488 -2.6443 -0.1913
 4728TIP3   OH235674   2.956   6.351  12.454  0.1423 -0.2276  0.2390
 4728TIP3    H135675   2.890   6.374  12.389  0.8509  0.4450 -0.2588
 4728TIP3    H235676   2.949   6.421  12.520  0.6595  0.1008 -0.0484
 4729TIP3   OH235677   3.576   2.969  10.708  0.0084  0.0634 -0.3413
 4729TIP3    H135678   3.624   3.016  10.776 -0.3206 -0.6310  0.3988
 4729TIP3    H235679   3.508   3.030  10.679  0.9718  0.8517 -1.0073
 4730TIP3   OH235680   4.478   4.845   1.004 -0.3336  0.0021  0.1344
 4730TIP3    H135681   4.548   4.840   0.938 -1.3794 -1.9490 -0.9503
 4730TIP3    H235682   4.433   4.927   0.986  0.6279  0.4582 -0.2556
 4731TIP3   OH235683   5.017   1.977  13.892  0.7389 -0.6342  0.2141
 4731TIP3    H135684   5.046   1.917  13.960 -1.3003 -0.2923  1.4561
 4731TIP3    H235685   5.044   2.064  13.924  1.7340 -0.6632 -0.5117
 4732TIP3   OH235686   6.203   6.779  11.290  0.1800 -0.3979 -0.3379
 4732TIP3    H135687   6.186   6.782  11.385 -0.6701  0.7187 -0.5017
 4732TIP3    H235688   6.166   6.696  11.262 -1.2152  0.0663  0.0426
 4733TIP3   OH235689   1.223   2.283  12.111 -0.2148 -0.1853  0.2370
 4733TIP3    H135690   1.266   2.304  12.194 -1.4471  0.2878  0.7713
 4733TIP3    H235691   1.168   2.207  12.130 -0.7725  0.1369 -0.0500
 4734TIP3   OH235692   1.161   6.064   2.030  0.0645 -0.0341 -0.1670
 4734TIP3    H135693   1.222   6.000   2.067 -0.3610  0.2536  1.0558
 4734TIP3    H235694   1.181   6.063   1.936  1.9771  0.0785  0.1871
 4735TIP3   OH235695   1.017   3.225   2.438 -0.1584 -0.0066 -0.0562
 4735TIP3    H135696   0.972   3.164   2.498 -0.6168  0.8654  0.4998
 4735TIP3    H235697   0.962   3.302   2.436  0.3014  0.3115 -0.9505
 4736TIP3   OH235698   5.014   4.967   0.293 -0.1741 -0.0225 -0.0658
 4736TIP3    H135699   5.006   4.938   0.202  1.5661  0.1516 -0.3031
 4736TIP3    H235700   4.966   5.050   0.297  0.9712  0.7125 -1.2053
 4737TIP3   OH235701   2.578   1.808   1.633  0.6158  0.2343 -0.1179
 4737TIP3    H135702   2.513   1.876   1.648  0.1427 -0.3390  0.4471
 4737TIP3    H235703   2.534   1.743   1.578  0.7202 -0.1408  0.2389
 4738TIP3   OH235704   0.198   1.451   4.599  0.1496 -0.2528  0.4681
 4738TIP3    H135705   0.221   1.361   4.624 -2.8071 -0.6215  2.4388
 4738TIP3    H235706   0.150   1.441   4.517  0.7557 -0.3064  0.1112
 4739TIP3   OH235707   0.154   1.776  15.604  0.2956 -0.5081 -0.6237
 4739TIP3    H135708   0.064   1.744  15.603  1.8082 -5.5884 -0.5477
 4739TIP3    H235709   0.171   1.800  15.695 -0.3504 -1.7016 -0.1854
 4740TIP3   OH235710   1.944   5.300   0.463 -0.3102  0.0606  0.2884
 4740TIP3    H135711   1.859   5.291   0.506 -0.3058  0.7697  0.4577
 4740TIP3    H235712   1.997   5.349   0.526 -0.0003  0.2490 -0.1204
 4741TIP3   OH235713   1.888   3.599  15.787  0.6530  0.0577 -0.0859
 4741TIP3    H135714   1.837   3.601  15.707  0.2659 -0.8659  0.1333
 4741TIP3    H235715   1.974   3.632  15.761  0.5822 -0.3862 -0.9113
 4742TIP3   OH235716   3.829   5.283   5.109 -0.3668  0.3294  0.4700
 4742TIP3    H135717   3.786   5.306   5.027  2.1650  0.3289 -0.9828
 4742TIP3    H235718   3.922   5.300   5.092  0.1819  1.2287  3.6745
 4743TIP3   OH235719   4.167   1.535  16.754 -0.6766  0.3484 -0.7176
 4743TIP3    H135720   4.157   1.446  16.722 -1.2684  0.6520 -1.3877
 4743TIP3    H235721   4.242   1.531  16.814 -0.2778 -0.4521 -1.2684
 4744TIP3   OH235722   3.732   0.104   3.785  0.4607 -0.6228  0.4836
 4744TIP3    H135723   3.805   0.115   3.724 -0.2152  0.3854 -0.1748
 4744TIP3    H235724   3.770   0.122   3.871  1.6035 -2.7911  0.5183
 4745TIP3   OH235725   4.926   4.979  15.464 -0.2432  0.1507  0.5244
 4745TIP3    H135726   4.899   4.945  15.549  1.1951 -2.3310  0.0920
 4745TIP3    H235727   4.876   5.060  15.453 -0.3693  0.6428  3.7633
 4746TIP3   OH235728   4.467   5.266   2.097  0.2493 -0.2312 -0.6387
 4746TIP3    H135729   4.521   5.233   2.025 -0.5247 -2.8624 -0.1279
 4746TIP3    H235730   4.462   5.192   2.158 -0.2258  1.4735  1.4793
 4747TIP3   OH235731   4.265   6.374   3.726  0.5611 -0.6416  0.1638
 4747TIP3    H135732   4.237   6.385   3.817 -0.1201  0.4038 -0.1522
 4747TIP3    H235733   4.203   6.311   3.689 -0.2896  0.2995 -0.0468
 4748TIP3   OH235734   5.553   0.991  12.061  0.6383  0.2446 -0.1078
 4748TIP3    H135735   5.561   1.086  12.065  1.5985  0.1736 -0.0877
 4748TIP3    H235736   5.536   0.972  11.968 -1.1059  0.5189  0.1199
 4749TIP3   OH235737   2.652   2.725   0.833  0.0795  0.0748  0.2013
 4749TIP3    H135738   2.602   2.669   0.892 -0.3571 -0.5916 -0.7663
 4749TIP3    H235739   2.722   2.668   0.799  0.0118  0.2872 -0.3097
 4750TIP3   OH235740   4.277   1.569  13.620 -0.5063 -0.2236  0.2690
 4750TIP3    H135741   4.235   1.644  13.662 -0.8510 -1.0441  1.4304
 4750TIP3    H235742   4.250   1.574  13.529 -0.5884  1.0131  0.3427
 4751TIP3   OH235743   1.718   0.731   2.198 -0.1706 -0.1994  0.2580
 4751TIP3    H135744   1.654   0.661   2.190  0.2973 -0.6303  0.2819
 4751TIP3    H235745   1.684   0.785   2.270 -0.4655 -0.4683  0.3251
 4752TIP3   OH235746   4.624   0.254   3.251 -0.2276  0.4291  0.0413
 4752TIP3    H135747   4.685   0.319   3.286 -0.9490  0.0685  2.0714
 4752TIP3    H235748   4.615   0.278   3.158  0.1260  2.7537  0.5358
 4753TIP3   OH235749   1.098   4.928   4.316 -0.3574 -0.2033 -0.3788
 4753TIP3    H135750   1.102   4.881   4.233  0.4470  1.3364 -1.2492
 4753TIP3    H235751   1.181   4.906   4.360  0.2268  0.7333 -0.9889
 4754TIP3   OH235752   5.442   3.379  11.815 -0.3118 -0.0496 -0.0886
 4754TIP3    H135753   5.451   3.461  11.766 -2.4698  0.0129 -0.5139
 4754TIP3    H235754   5.355   3.347  11.790 -0.1804 -1.6267  1.3409
 4755TIP3   OH235755   1.107   6.091   0.596 -0.1260  0.0488 -0.2161
 4755TIP3    H135756   1.043   6.041   0.545 -0.4683 -0.4835  0.6974
 4755TIP3    H235757   1.057   6.123   0.671  0.5348  0.1762  0.1707
 4756TIP3   OH235758   2.598   2.718  15.276  0.8019  0.5577  0.8338
 4756TIP3    H135759   2.668   2.690  15.216 -2.0445 -3.1410 -1.2157
 4756TIP3    H235760   2.546   2.639  15.290 -2.8627  2.9859  2.3670
 4757TIP3   OH235761   6.772   4.772   3.911  0.3509 -0.0617  0.0085
 4757TIP3    H135762   6.708   4.841   3.929  1.1300  0.9281 -0.8591
 4757TIP3    H235763   6.734   4.694   3.950 -0.4656  0.8864  1.2073
 4758TIP3   OH235764   4.754   3.749   1.723 -0.4130 -0.1979 -0.5369
 4758TIP3    H135765   4.826   3.756   1.786 -0.2826  2.5661 -0.8565
 4758TIP3    H235766   4.675   3.762   1.775 -0.5588 -1.1059 -0.5114
 4759TIP3   OH235767   0.622   6.392   2.841 -0.2516 -0.3566 -0.1893
 4759TIP3    H135768   0.673   6.372   2.763  0.3630 -0.4264  0.2228
 4759TIP3    H235769   0.655   6.477   2.870  0.2805 -0.8150  0.5916
 4760TIP3   OH235770   0.682   0.109   3.071  0.5228 -0.3340 -0.1428
 4760TIP3    H135771   0.672   0.166   3.147  2.0268 -1.1875  0.7564
 4760TIP3    H235772   0.630   0.031   3.092 -1.0031  0.3793 -1.0844
 4761TIP3   OH235773   4.592   4.512  11.367  0.2992 -0.3970  0.1343
 4761TIP3    H135774   4.515   4.566  11.381  1.0892  1.5183 -2.1241
 4761TIP3    H235775   4.659   4.574  11.337  1.5767 -2.4858 -1.6151
 4762TIP3   OH235776   0.740   1.740   5.657 -0.3853  0.1469  0.2116
 4762TIP3    H135777   0.708   1.659   5.697 -2.2304 -0.1283 -1.6486
 4762TIP3    H235778   0.672   1.804   5.675  0.6812  1.1253  0.9487
 4763TIP3   OH235779   3.053   2.795   5.524  0.5211 -0.3162  0.3287
 4763TIP3    H135780   2.993   2.740   5.474  1.1941 -0.4381 -0.3593
 4763TIP3    H235781   3.023   2.884   5.508  0.5437 -0.3744 -0.0629
 4764TIP3   OH235782   0.281   6.265   5.611 -0.5997 -0.2518 -0.3719
 4764TIP3    H135783   0.322   6.351   5.610 -1.7694  0.3135 -0.2631
 4764TIP3    H235784   0.198   6.276   5.565 -2.0698 -0.6259  2.0272
 4765TIP3   OH235785   6.529   3.204  15.538  0.3692  0.3215  0.4384
 4765TIP3    H135786   6.489   3.139  15.481 -0.7001  0.2642  1.2391
 4765TIP3    H235787   6.552   3.276  15.479 -0.1533  0.0109 -0.1574
 4766TIP3   OH235788   0.523   2.727   0.890 -0.0485 -0.0847  0.6947
 4766TIP3    H135789   0.594   2.675   0.853  0.2005 -0.2790  1.4423
 4766TIP3    H235790   0.474   2.758   0.813  0.6995 -0.1404  0.1814
 4767TIP3   OH235791   1.728   0.558  15.208 -0.1614  0.6928 -0.5754
 4767TIP3    H135792   1.727   0.605  15.125 -0.0781  0.0602 -0.9428
 4767TIP3    H235793   1.810   0.585  15.250 -1.8719  3.9075  1.0308
 4768TIP3   OH235794   2.118   4.817   4.067 -0.0239 -0.4011  0.3561
 4768TIP3    H135795   2.067   4.869   4.130 -1.4695 -0.3504 -0.8144
 4768TIP3    H235796   2.052   4.773   4.013  1.1853 -1.2178 -0.5005
 4769TIP3   OH235797   0.979   2.728  13.529 -0.0874  0.4071  0.2166
 4769TIP3    H135798   1.016   2.658  13.476  1.9636  0.7808  1.0807
 4769TIP3    H235799   1.052   2.787  13.546 -1.1494  1.3639  1.7631
 4770TIP3   OH235800   6.382   2.483   4.565 -0.6088 -0.5779 -0.3986
 4770TIP3    H135801   6.383   2.579   4.568 -0.4325 -0.5373 -1.5213
 4770TIP3    H235802   6.411   2.461   4.477  0.6653 -1.7028  0.2579
 4771TIP3   OH235803   6.425   4.124   4.269 -0.0421  0.0397  0.2649
 4771TIP3    H135804   6.403   4.144   4.360  1.3832  0.2673  0.5716
 4771TIP3    H235805   6.520   4.131   4.264 -0.1829  1.6124 -1.6027
 4772TIP3   OH235806   6.134   6.344   4.925 -0.0435 -0.1612  0.4662
 4772TIP3    H135807   6.205   6.409   4.925  0.1418 -0.3607  0.2792
 4772TIP3    H235808   6.135   6.309   4.836 -1.5140  1.0671 -0.0879
 4773TIP3   OH235809   0.371   0.010  10.711  0.3467  0.4134  0.2134
 4773TIP3    H135810   0.367  -0.052  10.784  1.1164 -0.9959 -0.9036
 4773TIP3    H235811   0.329  -0.036  10.638 -0.1076  1.6717 -0.3457
 4774TIP3   OH235812   5.807   3.097  15.656 -0.8301  0.5427 -0.0612
 4774TIP3    H135813   5.774   3.174  15.703 -0.4696  0.2644  0.6715
 4774TIP3    H235814   5.763   3.100  15.571 -2.1034  0.6422  0.5694
 4775TIP3   OH235815   3.074   3.623  15.491 -0.1415  0.0394 -0.2823
 4775TIP3    H135816   3.011   3.581  15.432 -0.9649  1.4424 -0.4517
 4775TIP3    H235817   3.097   3.555  15.554 -1.1102 -0.7760 -0.7816
 4776TIP3   OH235818   1.809   3.353  16.570  0.4774  0.3666 -0.3424
 4776TIP3    H135819   1.817   3.354  16.475 -1.2629 -1.9973 -0.6065
 4776TIP3    H235820   1.857   3.275  16.598 -0.8376 -0.1978  0.4420
 4777TIP3   OH235821   4.406   4.755   2.594  0.2886 -0.0333  0.1843
 4777TIP3    H135822   4.348   4.716   2.529  0.3052 -0.7000  0.5681
 4777TIP3    H235823   4.362   4.836   2.620 -0.1905 -0.2519  0.0533
 4778TIP3   OH235824   1.557   6.345   4.285  0.6127  0.1850 -0.0080
 4778TIP3    H135825   1.646   6.316   4.306  0.7894  2.0302  2.1395
 4778TIP3    H235826   1.563   6.440   4.276 -0.8879  0.1930 -1.4720
 4779TIP3   OH235827   4.392   4.548   4.103  0.5037 -0.4165  0.2750
 4779TIP3    H135828   4.343   4.466   4.101  1.2848 -0.8911  0.1037
 4779TIP3    H235829   4.387   4.576   4.195  1.1077 -1.2048  0.5592
 4780TIP3   OH235830   6.585   6.108  14.716 -0.0900 -0.2237 -0.2966
 4780TIP3    H135831   6.571   6.162  14.794 -0.0645 -1.9326  0.9599
 4780TIP3    H235832   6.591   6.019  14.750  0.4046 -0.9735 -2.2302
 4781TIP3   OH235833   2.755   0.873  11.981 -0.0080 -0.1956 -0.2804
 4781TIP3    H135834   2.752   0.908  11.892  0.9366  1.1085  0.1551
 4781TIP3    H235835   2.843   0.837  11.989 -0.3401 -0.9730 -0.1064
 4782TIP3   OH235836   1.264   3.302  16.635 -0.8932 -0.2747  0.0529
 4782TIP3    H135837   1.306   3.313  16.550 -0.2204  0.5247  0.4699
 4782TIP3    H235838   1.173   3.281  16.614 -0.3495 -1.8447 -0.8580
 4783TIP3   OH235839   5.672   2.818  15.543  0.4027 -0.0469 -0.4377
 4783TIP3    H135840   5.627   2.902  15.553  2.5431  0.9156  2.2348
 4783TIP3    H235841   5.614   2.755  15.587  0.0037  0.5012 -0.1572
 4784TIP3   OH235842   3.186   2.749   3.516  0.3621  0.2022  0.1637
 4784TIP3    H135843   3.267   2.729   3.470 -0.5658 -2.4390 -0.5057
 4784TIP3    H235844   3.213   2.764   3.607  1.5659 -1.5205  0.1451
 4785TIP3   OH235845   0.392   4.343   3.538 -0.4743 -0.0137 -0.1878
 4785TIP3    H135846   0.413   4.276   3.603  0.0938  0.8999  0.6047
 4785TIP3    H235847   0.454   4.328   3.467  0.4667  0.4098  0.5262
 4786TIP3   OH235848   5.827   6.298  15.567  0.0473 -0.1382  0.0527
 4786TIP3    H135849   5.816   6.335  15.655  0.3561 -0.2312  0.1336
 4786TIP3    H235850   5.910   6.336  15.536  0.3441 -0.7259  0.1162
 4787TIP3   OH235851   1.485   2.467  14.601  0.1466  0.1578  0.2573
 4787TIP3    H135852   1.520   2.442  14.686  0.0434  0.0098  0.2577
 4787TIP3    H235853   1.402   2.419  14.595  1.1644 -1.6057 -0.8457
 4788TIP3   OH235854   0.906   2.055   5.098 -0.0960  0.1234  0.1860
 4788TIP3    H135855   0.877   1.974   5.140 -0.8643  0.2283 -0.1353
 4788TIP3    H235856   0.858   2.058   5.016 -0.6476  1.2858  0.5379
 4789TIP3   OH235857   3.027   2.533  13.508  0.6595  0.7744  0.2331
 4789TIP3    H135858   2.983   2.602  13.558 -1.6099  0.2268 -0.8930
 4789TIP3    H235859   3.092   2.497  13.569 -1.3633  0.7476  2.5053
 4790TIP3   OH235860   1.890   6.770  15.652  0.2077  0.1202 -0.1212
 4790TIP3    H135861   1.983   6.793  15.648 -0.4250  2.9527 -0.1440
 4790TIP3    H235862   1.887   6.692  15.708  2.4447  1.0159  1.3857
 4791TIP3   OH235863   0.450   0.889  10.752  0.5021 -0.7184 -0.3413
 4791TIP3    H135864   0.417   0.920  10.837 -2.2546  0.8220 -1.8252
 4791TIP3    H235865   0.382   0.830  10.720  1.1060 -0.6604 -1.8100
 4792TIP3   OH235866   1.985   5.902   0.275  0.0442 -0.3624 -0.1752
 4792TIP3    H135867   2.077   5.925   0.257 -0.2020  0.5538 -0.3266
 4792TIP3    H235868   1.990   5.820   0.324  1.0008  0.2724  0.8360
 4793TIP3   OH235869   4.955   1.237  15.373 -0.0928  0.2438 -0.8205
 4793TIP3    H135870   4.937   1.331  15.370  0.2423  0.2815 -2.5358
 4793TIP3    H235871   5.051   1.232  15.374 -0.0849 -0.0746  1.4697
 4794TIP3   OH235872   4.592   1.338   2.720 -0.2000  0.0290 -0.4038
 4794TIP3    H135873   4.551   1.403   2.775  0.5145 -0.2070  0.4240
 4794TIP3    H235874   4.629   1.387   2.647 -2.5722  0.1761 -1.6071
 4795TIP3   OH235875   1.245   1.184   1.246 -0.4283 -0.8417  0.0235
 4795TIP3    H135876   1.250   1.108   1.303  2.1576 -1.0488 -0.3851
 4795TIP3    H235877   1.274   1.257   1.301  0.4077 -0.7507 -0.5226
 4796TIP3   OH235878   0.394   6.576  14.980 -0.3669  0.3569 -0.0902
 4796TIP3    H135879   0.341   6.580  14.901 -0.2185 -1.1510 -0.2947
 4796TIP3    H235880   0.443   6.494  14.972 -1.1086 -0.3557  2.0209
 4797TIP3   OH235881   2.062   0.421   4.517  0.2700 -0.3225 -0.5638
 4797TIP3    H135882   1.971   0.444   4.539 -0.3766 -0.3041 -3.0045
 4797TIP3    H235883   2.099   0.502   4.483  1.6206 -0.0324  1.4032
 4798TIP3   OH235884   1.995   2.096   4.662  0.2342  0.1734  0.4380
 4798TIP3    H135885   2.054   2.151   4.714 -0.6655  0.3075  1.3523
 4798TIP3    H235886   2.040   2.013   4.654  1.6694  1.0328 -1.0471
 4799TIP3   OH235887   2.722   2.772   3.981  1.0600 -0.0906  0.6230
 4799TIP3    H135888   2.817   2.770   3.969  0.6778 -1.5580 -3.6913
 4799TIP3    H235889   2.687   2.799   3.896 -2.4648 -0.0314  1.9030
 4800TIP3   OH235890   3.155   4.663  14.834  0.5057  0.0111  0.4391
 4800TIP3    H135891   3.232   4.638  14.885  0.2763  2.5976  2.2147
 4800TIP3    H235892   3.140   4.755  14.856 -1.1321  0.5466 -2.4356
 4801TIP3   OH235893   2.637   4.979  11.189 -0.9988  0.3237 -0.0904
 4801TIP3    H135894   2.718   4.949  11.148  0.0212  0.1134  1.9499
 4801TIP3    H235895   2.596   5.036  11.124  0.4480 -0.0992 -1.4201
 4802TIP3   OH235896   5.659   4.176   1.249  0.4678  0.3310 -0.3014
 4802TIP3    H135897   5.599   4.128   1.306  0.6846  0.0811 -0.2801
 4802TIP3    H235898   5.631   4.155   1.160  0.6938 -0.0115 -0.2957
 4803TIP3   OH235899   6.621   0.738   1.825 -0.4381  0.2261 -0.2141
 4803TIP3    H135900   6.610   0.706   1.915  1.7061 -2.2776 -0.7419
 4803TIP3    H235901   6.692   0.802   1.831  0.2249 -0.4933 -0.1944
 4804TIP3   OH235902   4.179   6.634  15.052  0.3143  0.1560  0.1200
 4804TIP3    H135903   4.124   6.712  15.056 -2.1926 -1.2526 -2.6018
 4804TIP3    H235904   4.123   6.563  15.085  1.1830 -1.0262 -0.8461
 4805TIP3   OH235905   3.717   3.796   4.164  0.0723  0.2543  0.2280
 4805TIP3    H135906   3.702   3.765   4.254 -0.9768 -1.9205 -0.6175
 4805TIP3    H235907   3.657   3.870   4.154 -1.1357 -0.5992  0.8041
 4806TIP3   OH235908   2.969   2.120  16.961 -0.9196  0.2448  0.4488
 4806TIP3    H135909   2.967   2.169  16.879  0.5445  1.3576  1.0235
 4806TIP3    H235910   2.965   2.028  16.934 -3.0934  0.6211 -0.6883
 4807TIP3   OH235911   2.050   0.546  14.395 -0.6396  0.3692 -0.5956
 4807TIP3    H135912   2.092   0.612  14.450  0.4466 -0.2282 -0.6792
 4807TIP3    H235913   1.990   0.595  14.339  1.1207  1.4648 -1.5907
 4808TIP3   OH235914   5.444   2.916  12.339  0.0063 -0.1038  0.3194
 4808TIP3    H135915   5.471   2.865  12.262 -0.7476  1.2847 -0.9214
 4808TIP3    H235916   5.514   2.980  12.351  1.6820 -2.1838  2.7576
 4809TIP3   OH235917   2.397   0.963   2.351 -0.3696 -0.3246 -0.6968
 4809TIP3    H135918   2.342   0.962   2.272  1.0634  2.0937 -1.8618
 4809TIP3    H235919   2.402   1.056   2.375  0.3233 -0.8700  1.4823
 4810TIP3   OH235920   6.325   0.263   2.824 -0.2947  0.1974  0.4123
 4810TIP3    H135921   6.417   0.250   2.848  0.1766 -1.2882 -1.9174
 4810TIP3    H235922   6.287   0.310   2.899  2.3060  0.7489  1.4855
 4811TIP3   OH235923   1.238   4.246  12.127 -0.6971 -0.3521  0.2823
 4811TIP3    H135924   1.323   4.268  12.165 -0.8289  0.6506  0.0266
 4811TIP3    H235925   1.191   4.202  12.198 -0.8292  1.2173  1.2213
 4812TIP3   OH235926   3.516   6.432  13.003  0.1035  0.3518  0.0559
 4812TIP3    H135927   3.512   6.346  13.044 -0.6876 -0.7600 -2.1997
 4812TIP3    H235928   3.609   6.455  13.004  0.4532 -0.9894 -0.2279
 4813TIP3   OH235929   3.780   2.211   4.941  0.0625  0.2752 -0.0750
 4813TIP3    H135930   3.724   2.265   4.885 -0.7774  1.8830  2.1862
 4813TIP3    H235931   3.868   2.222   4.906 -0.3672  1.6216 -0.7743
 4814TIP3   OH235932   6.109   1.799   4.001  0.0209 -0.0486  0.0203
 4814TIP3    H135933   6.158   1.814   4.082  0.9798 -2.4545 -0.0005
 4814TIP3    H235934   6.034   1.746   4.028 -0.0303 -0.2732 -0.5405
 4815TIP3   OH235935   3.643   6.406  14.683  0.0883  0.3626 -0.2615
 4815TIP3    H135936   3.733   6.420  14.710 -0.2179  1.8726  0.0210
 4815TIP3    H235937   3.636   6.448  14.598 -0.1086 -0.6197 -0.7531
 4816TIP3   OH235938   2.254   3.779   6.611 -0.1544 -0.6807 -0.1997
 4816TIP3    H135939   2.286   3.847   6.670 -0.1237 -1.0719  0.2401
 4816TIP3    H235940   2.303   3.793   6.530 -1.0151  0.5875 -0.5451
 4817TIP3   OH235941   2.132   6.190  10.971  0.4235  0.2154 -0.1906
 4817TIP3    H135942   2.154   6.276  10.936 -0.2730  0.4865  0.0110
 4817TIP3    H235943   2.060   6.206  11.032  0.9238 -0.3829  0.5853
 4818TIP3   OH235944   3.445   1.322   2.101 -0.2540  0.0276 -0.4089
 4818TIP3    H135945   3.350   1.323   2.085 -0.0964 -3.1175 -2.5099
 4818TIP3    H235946   3.457   1.253   2.167  0.6679 -0.9995 -1.6134
 4819TIP3   OH235947   6.331   6.268   2.731 -0.2232 -0.0336 -0.3814
 4819TIP3    H135948   6.362   6.332   2.795  0.8243 -1.2892  0.4128
 4819TIP3    H235949   6.323   6.317   2.649  0.9076  1.0271  0.1149
 4820TIP3   OH235950   1.049   5.433  13.333  0.1821 -0.2499  0.2693
 4820TIP3    H135951   1.092   5.511  13.297 -1.2015  0.6744  0.5151
 4820TIP3    H235952   0.956   5.445  13.312  0.1194 -2.7242 -1.2467
 4821TIP3   OH235953   5.834   5.581  12.923 -0.5525  0.2947  0.4773
 4821TIP3    H135954   5.811   5.673  12.913  0.8574  0.5940 -0.2249
 4821TIP3    H235955   5.764   5.544  12.977 -3.1710  0.8921 -2.2539
 4822TIP3   OH235956   6.472   0.771  12.543 -0.8259  0.3436 -0.1085
 4822TIP3    H135957   6.396   0.764  12.602 -1.2331  0.8305 -0.5667
 4822TIP3    H235958   6.442   0.827  12.472  0.2053  1.1804  0.0870
 4823TIP3   OH235959   2.749   5.208   5.118 -0.1223  0.4810 -0.1647
 4823TIP3    H135960   2.676   5.269   5.128 -0.7000 -0.4109  1.3959
 4823TIP3    H235961   2.823   5.251   5.160 -0.5185  0.1551  0.8990
 4824TIP3   OH235962   4.673   6.118  14.156  0.2895  0.3819 -0.4195
 4824TIP3    H135963   4.751   6.136  14.104  0.5648 -0.9783 -0.5027
 4824TIP3    H235964   4.614   6.192  14.137  1.4902  1.3752 -0.4203
 4825TIP3   OH235965   6.093   2.074  14.610  0.3278  0.3212  0.2759
 4825TIP3    H135966   6.160   2.028  14.559  0.0167  1.3551 -1.1159
 4825TIP3    H235967   6.089   2.161  14.572 -0.1273  1.0577  1.9155
 4826TIP3   OH235968   2.710   4.317  11.563  0.1029 -0.5298 -0.1535
 4826TIP3    H135969   2.661   4.314  11.481 -0.0538 -0.8806 -0.0469
 4826TIP3    H235970   2.790   4.268  11.545  0.5977  0.3665 -0.4444
 4827TIP3   OH235971   3.280   2.051  15.279 -0.1265 -0.6393 -0.6099
 4827TIP3    H135972   3.245   2.067  15.366 -0.2979 -0.6476 -0.6766
 4827TIP3    H235973   3.287   2.138  15.239  1.9081 -0.4032  0.1457
 4828TIP3   OH235974   3.240   4.365  11.204  0.2449  0.4355 -0.1538
 4828TIP3    H135975   3.326   4.380  11.165  0.7905  1.1630  1.2619
 4828TIP3    H235976   3.253   4.295  11.267 -0.1546  0.6735  0.2004
 4829TIP3   OH235977   0.064   1.847  13.501 -0.6331 -0.1983 -0.4322
 4829TIP3    H135978   0.117   1.859  13.422  1.4951  1.2045  1.0882
 4829TIP3    H235979   0.116   1.789  13.557 -2.3675 -1.6460 -0.2081
 4830TIP3   OH235980   1.467   6.496  11.704 -0.5199  0.0906  0.2256
 4830TIP3    H135981   1.377   6.475  11.678 -0.0514  0.9618 -2.3649
 4830TIP3    H235982   1.521   6.441  11.648  0.5914 -0.1454  1.4999
 4831TIP3   OH235983   5.674   0.145  17.031  0.0934 -0.4994  0.4140
 4831TIP3    H135984   5.612   0.191  16.973  0.1500 -1.6898 -0.6228
 4831TIP3    H235985   5.735   0.213  17.059 -1.7308  0.7557  1.5972
 4832TIP3   OH235986   4.228   5.860   2.368 -0.0316  0.5161  0.2298
 4832TIP3    H135987   4.170   5.904   2.431  1.2224  1.0898  1.0266
 4832TIP3    H235988   4.211   5.903   2.285 -1.3522  0.0949  0.2583
 4833TIP3   OH235989   3.623   3.863  11.862  0.2786  0.1128 -0.0067
 4833TIP3    H135990   3.604   3.789  11.804 -0.6792 -0.7074  1.2896
 4833TIP3    H235991   3.618   3.940  11.806  0.8476 -0.7489 -1.3058
 4834TIP3   OH235992   6.574   3.105  15.803  0.2654  0.7084  0.0010
 4834TIP3    H135993   6.600   3.182  15.853  0.1088  1.3479 -0.8617
 4834TIP3    H235994   6.588   3.131  15.711 -0.8820  0.1280 -0.3605
 4835TIP3   OH235995   0.292   6.585  16.709  0.3616 -0.1507  0.6537
 4835TIP3    H135996   0.343   6.520  16.757  0.0989 -0.8177  0.0467
 4835TIP3    H235997   0.351   6.616  16.641  1.0979  1.5613  1.9886
 4836TIP3   OH235998   0.655   0.366   3.175  0.7526  0.0058 -0.1200
 4836TIP3    H135999   0.655   0.424   3.099 -0.2502 -1.8816 -1.6617
 4836TIP3    H236000   0.603   0.412   3.241 -1.3225  0.2606 -1.8260
 4837TIP3   OH236001   0.561   2.269   4.855 -0.2325 -0.1342 -0.1102
 4837TIP3    H136002   0.536   2.359   4.876  1.5866 -0.1721  2.8044
 4837TIP3    H236003   0.653   2.275   4.827  0.4235 -1.1528  1.6336
 4838TIP3   OH236004   5.662   4.823  16.558  0.0161  0.4082 -0.2216
 4838TIP3    H136005   5.659   4.795  16.466 -0.8635  0.8916 -0.3585
 4838TIP3    H236006   5.572   4.810  16.589  0.4026 -0.1294  0.6925
 4839TIP3   OH236007   4.741   4.674  16.757  0.2600  0.2598  0.4446
 4839TIP3    H136008   4.745   4.584  16.789  0.6652  0.5704  1.3084
 4839TIP3    H236009   4.782   4.671  16.671 -0.9489 -0.6180 -0.1307
 4840TIP3   OH236010   2.056   2.433  14.708  0.8838  0.5545 -0.0161
 4840TIP3    H136011   1.970   2.400  14.679  0.9635 -1.1346  1.5260
 4840TIP3    H236012   2.043   2.528  14.716 -0.2530  0.5912 -1.6596
 4841TIP3   OH236013   0.874   5.454  12.628 -0.0491  0.4600  0.5591
 4841TIP3    H136014   0.839   5.411  12.706 -2.6909  2.1869  0.4540
 4841TIP3    H236015   0.932   5.521  12.662 -0.3807  0.5283  1.0106
 4842TIP3   OH236016   6.524   2.824   9.974  0.4671 -0.0602 -0.4231
 4842TIP3    H136017   6.579   2.848  10.048 -1.4298 -0.3845  1.1802
 4842TIP3    H236018   6.550   2.884   9.904  0.4492  2.1762  1.3842
 4843TIP3   OH236019   2.254   0.145  13.385  0.0701 -0.3937  0.0694
 4843TIP3    H136020   2.287   0.172  13.299 -1.0089  0.1086 -0.1978
 4843TIP3    H236021   2.186   0.081  13.365 -1.7606  1.3588  0.4218
 4844TIP3   OH236022   0.442   2.505  15.505 -0.0400  0.4132 -0.8903
 4844TIP3    H136023   0.504   2.438  15.535 -0.7059 -0.5378 -1.6080
 4844TIP3    H236024   0.375   2.457  15.457 -2.1465  1.2356  1.0355
 4845TIP3   OH236025   4.360   4.691   3.879  0.0387 -0.1190  0.3368
 4845TIP3    H136026   4.432   4.753   3.866  0.1114 -0.2659  0.0187
 4845TIP3    H236027   4.386   4.638   3.954 -0.5577  0.9960  1.3698
 4846TIP3   OH236028   0.517   5.222   1.651  0.0508  0.7617 -0.1154
 4846TIP3    H136029   0.542   5.170   1.728 -0.8220  2.0166  1.0801
 4846TIP3    H236030   0.600   5.251   1.613  0.5503 -1.3240 -0.7341
 4847TIP3   OH236031   4.118   1.443  16.429 -0.4029  0.0033  0.0750
 4847TIP3    H136032   4.209   1.431  16.456 -0.6363 -1.2578  0.3333
 4847TIP3    H236033   4.117   1.419  16.337 -0.3154  0.9088 -0.1800
 4848TIP3   OH236034   0.189   2.996  12.751 -0.3021 -0.2172 -0.1431
 4848TIP3    H136035   0.095   2.993  12.770 -0.5856 -2.4317 -1.5699
 4848TIP3    H236036   0.218   2.905  12.757  1.6627  0.3511 -0.2782
 4849TIP3   OH236037   0.072   6.160  14.917 -0.1167 -0.3034  0.2839
 4849TIP3    H136038   0.088   6.252  14.895 -0.3963  0.2234  2.1665
 4849TIP3    H236039   0.158   6.119  14.909  0.2837  0.4160  0.7372
 4850TIP3   OH236040   6.550   1.780  14.600  0.4620 -0.0869 -0.5786
 4850TIP3    H136041   6.569   1.694  14.561  0.8979  0.3319 -1.3040
 4850TIP3    H236042   6.631   1.830  14.590  0.3392  0.2906  0.1969
 4851TIP3   OH236043   1.628   6.707  16.105  0.2326  0.3802 -0.0700
 4851TIP3    H136044   1.647   6.647  16.033 -1.3257 -2.0999  1.4304
 4851TIP3    H236045   1.547   6.750  16.080 -0.3453 -0.5310  0.1557
 4852TIP3   OH236046   3.528   3.658  14.288 -0.6376  0.7372  0.1708
 4852TIP3    H136047   3.453   3.658  14.228 -0.9362  1.4563  0.5219
 4852TIP3    H236048   3.599   3.617  14.239 -1.2819 -0.0083 -0.1476
 4853TIP3   OH236049   1.119   2.506   2.153  0.1344  0.5545  0.2116
 4853TIP3    H136050   1.124   2.410   2.149  0.6742  0.6069 -0.8474
 4853TIP3    H236051   1.031   2.524   2.186 -0.0233 -0.3079  0.2953
 4854TIP3   OH236052   0.088   3.950   1.866  0.2804 -0.7862 -0.3240
 4854TIP3    H136053   0.146   3.875   1.851 -0.8898 -1.9799  0.8449
 4854TIP3    H236054   0.117   3.986   1.950  0.2535 -0.4994 -0.4374
 4855TIP3   OH236055   2.603   5.852  14.030  0.1808  0.9697  0.6687
 4855TIP3    H136056   2.697   5.837  14.021  0.3586  1.0308  2.1582
 4855TIP3    H236057   2.581   5.812  14.114 -1.6394 -1.3858 -0.7974
 4856TIP3   OH236058   3.408   3.389   0.709  0.5171 -0.1157  0.2245
 4856TIP3    H136059   3.318   3.387   0.740  0.5053 -0.5581  0.1670
 4856TIP3    H236060   3.408   3.455   0.639 -0.0771 -1.1354 -0.7573
 4857TIP3   OH236061   0.819   0.488   4.317  0.2822 -0.4456 -0.5345
 4857TIP3    H136062   0.806   0.395   4.336 -0.1280 -0.3973 -0.5698
 4857TIP3    H236063   0.905   0.492   4.276  1.8119 -0.4069  2.4523
 4858TIP3   OH236064   2.219   1.734   3.816 -0.3089  0.5691 -0.9059
 4858TIP3    H136065   2.295   1.698   3.860 -0.6785  0.9746  0.1012
 4858TIP3    H236066   2.205   1.819   3.858 -2.2445 -0.1539  0.0484
 4859TIP3   OH236067   6.296   4.344   2.877 -0.2791 -0.4055  0.2199
 4859TIP3    H136068   6.221   4.401   2.891 -0.4028 -0.9055  1.7415
 4859TIP3    H236069   6.372   4.403   2.881 -0.4225 -0.2848  1.5104
 4860TIP3   OH236070   0.507   6.213   5.792  0.0549 -0.8224 -0.1961
 4860TIP3    H136071   0.437   6.243   5.733  0.6249  0.4185 -0.2659
 4860TIP3    H236072   0.567   6.165   5.735  0.4630  0.1371 -0.5863
 4861TIP3   OH236073   2.395   5.831   4.271 -0.6638 -0.3240  0.2184
 4861TIP3    H136074   2.391   5.921   4.303 -1.5260  0.2961 -1.4767
 4861TIP3    H236075   2.471   5.830   4.212 -0.2320 -0.9186  0.7645
 4862TIP3   OH236076   4.367   2.204   1.022  0.1539  0.1741  0.1172
 4862TIP3    H136077   4.332   2.131   1.071  1.4360  1.0751  2.5334
 4862TIP3    H236078   4.329   2.282   1.062 -0.5554  0.9233 -1.8626
 4863TIP3   OH236079   1.837   4.752   0.529  0.0399 -0.1244  0.4632
 4863TIP3    H136080   1.838   4.672   0.476  1.9091  0.6501 -0.8112
 4863TIP3    H236081   1.928   4.762   0.557 -0.4247  0.8823  1.6900
 4864TIP3   OH236082   4.404   4.101   1.919  0.6546 -0.7706  0.3158
 4864TIP3    H136083   4.427   4.094   2.012 -3.5763 -1.2514  1.5678
 4864TIP3    H236084   4.373   4.191   1.909  2.9539 -0.0677 -1.2947
 4865TIP3   OH236085   0.890   0.410   0.716  0.5585 -0.3119  0.5492
 4865TIP3    H136086   0.949   0.431   0.643  1.3833 -0.4898  1.1548
 4865TIP3    H236087   0.931   0.450   0.793 -0.7261  0.5680  0.8049
 4866TIP3   OH236088   2.445   4.116  15.986  0.3582 -0.2531  0.3535
 4866TIP3    H136089   2.375   4.105  15.922  2.9320  0.6173 -2.9107
 4866TIP3    H236090   2.419   4.194  16.036 -1.0865 -0.0881 -0.5799
 4867TIP3   OH236091   0.611   5.970   2.576 -0.5504  0.4062 -0.2911
 4867TIP3    H136092   0.553   6.044   2.593 -0.7960  0.2945 -0.6433
 4867TIP3    H236093   0.638   5.941   2.663 -1.1636  0.3466 -0.1138
 4868TIP3   OH236094   0.135   1.718   6.162 -0.2247  0.5058 -0.7295
 4868TIP3    H136095   0.081   1.768   6.223 -1.3558 -1.6536  0.1287
 4868TIP3    H236096   0.202   1.677   6.216 -2.2316 -2.8068 -0.4570
 4869TIP3   OH236097   0.714   5.339   3.551 -0.0670  0.7326 -0.3059
 4869TIP3    H136098   0.718   5.263   3.609  1.2760  0.1958 -1.0473
 4869TIP3    H236099   0.645   5.317   3.488 -0.6082  0.7367  0.2711
 4870TIP3   OH236100   4.367   5.172   0.515 -0.3525  0.3197  0.0299
 4870TIP3    H136101   4.274   5.173   0.492 -0.3987  0.3860  0.2209
 4870TIP3    H236102   4.376   5.096   0.573 -0.0668 -0.3962 -0.9166
 4871TIP3   OH236103   3.800   4.497  13.901 -0.2496  0.2847  0.3194
 4871TIP3    H136104   3.829   4.412  13.870  0.3877 -0.5245  2.9376
 4871TIP3    H236105   3.850   4.560  13.848 -1.5076 -0.8183 -2.4182
 4872TIP3   OH236106   5.357   1.190  13.930  0.3114  0.1735 -0.2672
 4872TIP3    H136107   5.420   1.152  13.868  1.7066 -0.0854  1.2293
 4872TIP3    H236108   5.275   1.145  13.912  0.4258  0.7255 -2.4926
 4873TIP3   OH236109   0.018   0.812  10.993  0.3605  0.3165  0.7090
 4873TIP3    H136110  -0.006   0.812  11.086  0.5285 -1.4756  0.7834
 4873TIP3    H236111  -0.000   0.723  10.963  1.5113  0.4992 -0.6539
 4874TIP3   OH236112   1.186   4.246  15.448  0.0095 -0.1087 -0.8660
 4874TIP3    H136113   1.162   4.153  15.444  0.8126 -0.3361 -0.5470
 4874TIP3    H236114   1.119   4.290  15.395 -0.2837 -0.8858 -1.1575
 4875TIP3   OH236115   2.642   1.329   4.857  0.3913  0.1452 -0.0781
 4875TIP3    H136116   2.712   1.331   4.792  0.6995  0.1431  0.2486
 4875TIP3    H236117   2.653   1.246   4.903  0.0401  0.0470 -0.1654
 4876TIP3   OH236118   6.260   6.009   2.653  0.0659  0.0373 -0.0031
 4876TIP3    H136119   6.198   5.994   2.725 -0.8304 -1.2966 -1.0201
 4876TIP3    H236120   6.219   6.078   2.600 -0.6771 -0.9670 -0.7728
 4877TIP3   OH236121   4.251   3.456   4.739 -0.4726 -0.4405 -0.1406
 4877TIP3    H136122   4.197   3.418   4.808 -0.3288 -0.0971  0.1628
 4877TIP3    H236123   4.221   3.412   4.659 -0.0393 -1.4769  0.2522
 4878TIP3   OH236124   5.571   6.260  13.297 -0.3970 -0.8210  0.0931
 4878TIP3    H136125   5.623   6.337  13.273  0.7641 -1.3673  0.8034
 4878TIP3    H236126   5.519   6.289  13.372 -0.2851 -0.5979  0.0843
 4879TIP3   OH236127   6.407   5.996  12.253 -0.1623  0.6440  0.2254
 4879TIP3    H136128   6.353   5.923  12.283  0.8167 -0.6878 -1.1325
 4879TIP3    H236129   6.369   6.022  12.170  1.9352 -1.2348 -1.4786
 4880TIP3   OH236130   1.536   5.610  14.301  0.9672  0.7461  0.1521
 4880TIP3    H136131   1.506   5.688  14.348  1.1977 -0.2706  2.1102
 4880TIP3    H236132   1.632   5.612  14.309  1.0166  0.5747 -0.3379
 4881TIP3   OH236133   5.187   2.587  14.877 -0.0203 -0.0076  0.3768
 4881TIP3    H136134   5.128   2.512  14.877  0.3028 -0.2981  1.9576
 4881TIP3    H236135   5.259   2.561  14.934  1.7040  0.3226 -1.5464
 4882TIP3   OH236136   4.090   1.153   5.033 -0.0884  0.3535 -0.0092
 4882TIP3    H136137   4.017   1.214   5.028 -0.4535 -0.0093  0.6506
 4882TIP3    H236138   4.097   1.132   5.127 -0.0110 -0.6477 -0.2229
 4883TIP3   OH236139   0.791   1.988  11.323  0.5325 -0.1722  0.5107
 4883TIP3    H136140   0.774   2.070  11.370 -0.7009  0.1176 -0.4050
 4883TIP3    H236141   0.816   2.016  11.235  0.0576 -0.7876  0.1756
 4884TIP3   OH236142   1.368   5.307  15.800 -0.2950  0.6595 -0.4908
 4884TIP3    H136143   1.431   5.237  15.820 -0.0686  0.6724 -1.1413
 4884TIP3    H236144   1.303   5.301  15.871  0.8671  1.1844  0.6646
 4885TIP3   OH236145   2.018   6.526  12.707  0.8846 -0.0189 -0.1224
 4885TIP3    H136146   2.031   6.587  12.634  2.0031 -1.2140 -0.9756
 4885TIP3    H236147   2.024   6.581  12.786 -0.8608  1.3767 -0.9065
 4886TIP3   OH236148   3.760   1.768  13.684  0.5261  0.0319  0.6148
 4886TIP3    H136149   3.758   1.723  13.768 -0.5866  1.5203  1.4257
 4886TIP3    H236150   3.669   1.794  13.667  0.5680 -0.9396 -1.4627
 4887TIP3   OH236151   4.088   6.252   6.427 -0.3631  0.4367  0.2485
 4887TIP3    H136152   4.154   6.201   6.380  0.2354  1.0332  0.4219
 4887TIP3    H236153   4.134   6.332   6.452 -0.9445  0.5393  1.0215
 4888TIP3   OH236154   2.438   2.456   1.354 -0.2285  0.0448 -0.1750
 4888TIP3    H136155   2.494   2.473   1.429 -0.0740  0.1122 -0.3035
 4888TIP3    H236156   2.461   2.368   1.325 -1.0578 -0.4088  0.5149
 4889TIP3   OH236157   6.326   0.347  12.124 -0.4241 -0.2009  0.1499
 4889TIP3    H136158   6.397   0.399  12.162 -0.2309 -0.7313  0.5291
 4889TIP3    H236159   6.267   0.330  12.198 -0.3348 -0.7639  0.0951
 4890TIP3   OH236160   1.487   5.331   1.818  0.0435 -0.2252 -0.7325
 4890TIP3    H136161   1.442   5.410   1.788  0.7653  1.4495  2.1652
 4890TIP3    H236162   1.575   5.360   1.841  0.4479 -1.9487  0.0984
 4891TIP3   OH236163   5.571   3.622  10.578  0.3672  0.1578  0.1230
 4891TIP3    H136164   5.604   3.683  10.644 -3.2012  1.3205  1.0448
 4891TIP3    H236165   5.582   3.668  10.495 -0.9695  1.5418  0.6591
 4892TIP3   OH236166   6.432   0.073   4.235 -0.4648  0.7267  0.4384
 4892TIP3    H136167   6.409   0.034   4.151 -0.0457 -2.5098  1.6509
 4892TIP3    H236168   6.350   0.107   4.270 -1.1574 -0.2137 -0.2228
 4893TIP3   OH236169   5.255   4.579  13.320  0.3923  0.1525  0.1635
 4893TIP3    H136170   5.180   4.580  13.378  0.3394 -1.8563  0.2211
 4893TIP3    H236171   5.253   4.492  13.279  0.4935  1.3831 -2.7571
 4894TIP3   OH236172   0.254   2.285   0.138 -0.1909 -0.0437  0.7056
 4894TIP3    H136173   0.314   2.284   0.064 -1.2836 -2.1688 -0.2200
 4894TIP3    H236174   0.290   2.352   0.197  2.3313 -0.3399 -0.3745
 4895TIP3   OH236175   6.369   5.064  13.779 -0.3844  0.5962 -0.1949
 4895TIP3    H136176   6.320   4.989  13.812 -0.2619 -0.1872 -1.6764
 4895TIP3    H236177   6.425   5.028  13.710 -0.7596  2.1265 -1.3781
 4896TIP3   OH236178   3.000   5.267   5.556  0.0129 -0.3048  0.0563
 4896TIP3    H136179   2.976   5.342   5.502  2.2794  1.9724  1.9649
 4896TIP3    H236180   3.088   5.287   5.588  0.5330 -3.5694  1.1081
 4897TIP3   OH236181   6.722   2.208  12.583  0.0970 -0.1085 -0.3070
 4897TIP3    H136182   6.801   2.153  12.585 -0.2716 -0.6419 -0.3725
 4897TIP3    H236183   6.722   2.251  12.669  1.3824  1.2282 -0.9329
 4898TIP3   OH236184   1.394   1.291  11.773  0.4064 -0.1014 -0.0047
 4898TIP3    H136185   1.414   1.297  11.679  1.0255  1.3470  0.1996
 4898TIP3    H236186   1.340   1.212  11.780 -0.6131  0.3621 -1.7607
 4899TIP3   OH236187   3.835   3.808   1.953 -0.6155 -0.2676 -0.4202
 4899TIP3    H136188   3.780   3.779   1.880  0.5811 -0.8753 -1.1186
 4899TIP3    H236189   3.916   3.837   1.912 -0.1726  0.0262  0.6232
 4900TIP3   OH236190   4.756   4.722  12.536  0.0128 -0.4777  0.2564
 4900TIP3    H136191   4.716   4.755  12.616  0.2754  1.6245 -0.4264
 4900TIP3    H236192   4.825   4.785  12.516  1.0334 -1.8590 -0.7554
 4901TIP3   OH236193   1.329   0.467  12.190 -0.0447  0.2893 -0.0673
 4901TIP3    H136194   1.254   0.426  12.146  0.6010 -1.4267  0.3724
 4901TIP3    H236195   1.395   0.478  12.122 -0.1352  0.4279 -0.1342
 4902TIP3   OH236196   4.956   2.425   5.096 -0.7849 -0.1857  0.1581
 4902TIP3    H136197   5.033   2.478   5.074 -0.5920 -0.2087  0.7721
 4902TIP3    H236198   4.889   2.453   5.034 -0.6608  0.7231  0.4201
 4903TIP3   OH236199   3.447   0.950   6.071 -0.8556 -0.4829 -0.3408
 4903TIP3    H136200   3.525   0.987   6.112 -0.7928 -1.4435  0.4416
 4903TIP3    H236201   3.481   0.891   6.003 -0.7411 -2.7313  1.5193
 4904TIP3   OH236202   5.040   6.416   6.158  1.1403 -0.1170 -0.0167
 4904TIP3    H136203   5.122   6.369   6.175  1.9812  1.8097  1.5729
 4904TIP3    H236204   4.995   6.417   6.242  0.7415  1.1468 -0.2337
 4905TIP3   OH236205   4.582   4.744   3.659  0.5202 -0.2711  0.0557
 4905TIP3    H136206   4.648   4.678   3.681 -0.3843 -0.3857  2.7587
 4905TIP3    H236207   4.502   4.694   3.642 -0.1757  0.0175  2.1369
 4906TIP3   OH236208   1.805   6.481   2.062 -0.2621 -0.7583  0.0670
 4906TIP3    H136209   1.715   6.507   2.041 -0.0214 -0.0266 -0.0917
 4906TIP3    H236210   1.797   6.391   2.092 -0.6696 -1.9541 -3.1507
 4907TIP3   OH236211   3.681   2.587   2.739 -0.2407  0.3393 -0.2939
 4907TIP3    H136212   3.646   2.533   2.810  1.7267  1.4866  1.6617
 4907TIP3    H236213   3.774   2.595   2.759 -0.0027  2.3085 -1.9386
 4908TIP3   OH236214   0.225   3.942   6.297  0.1796 -0.0524 -0.1821
 4908TIP3    H136215   0.163   4.004   6.259  0.7268 -0.6429 -2.1806
 4908TIP3    H236216   0.174   3.862   6.312  0.0368  0.0791  0.0469
 4909TIP3   OH236217   2.711   0.569   1.388  0.1467  0.6774 -0.0926
 4909TIP3    H136218   2.708   0.584   1.482  1.0246  0.3006  0.0076
 4909TIP3    H236219   2.792   0.612   1.359 -0.3466  1.1828 -0.7504
 4910TIP3   OH236220   3.850   4.021  15.258 -0.0809  0.2670 -0.4803
 4910TIP3    H136221   3.829   3.976  15.340 -2.0443  0.6800 -0.6866
 4910TIP3    H236222   3.844   4.114  15.281 -1.8232  0.4043 -1.2836
 4911TIP3   OH236223   6.505   0.018  14.773  0.2966 -0.2784  0.7053
 4911TIP3    H136224   6.565  -0.013  14.841 -0.2638  0.5288  1.5882
 4911TIP3    H236225   6.507   0.114  14.781  0.1521 -0.1737 -0.3632
 4912TIP3   OH236226   2.607   1.332   5.937  0.0114  0.2024  0.3408
 4912TIP3    H136227   2.591   1.426   5.943 -1.9216 -0.0585 -0.2963
 4912TIP3    H236228   2.668   1.314   6.009 -0.4041  1.7597  1.1198
 4913TIP3   OH236229   5.773   2.287   5.799  0.4538  0.5294 -0.4546
 4913TIP3    H136230   5.758   2.357   5.862 -0.6398  1.8544 -2.1074
 4913TIP3    H236231   5.689   2.240   5.795  0.8989 -0.3296 -0.0355
 4914TIP3   OH236232   4.699   0.847  14.456  0.0433  0.4161  0.2722
 4914TIP3    H136233   4.726   0.873  14.368 -1.5953 -0.5063 -0.5569
 4914TIP3    H236234   4.659   0.761  14.445 -1.9955  1.1101  1.5604
 4915TIP3   OH236235   3.806   5.066   6.669 -0.3619  0.0312 -0.5703
 4915TIP3    H136236   3.777   5.121   6.596 -0.1180 -0.0256 -0.7100
 4915TIP3    H236237   3.901   5.078   6.672 -0.5689  1.6823  1.0734
 4916TIP3   OH236238   5.682   5.503  10.593  0.1135  0.4970  0.8491
 4916TIP3    H136239   5.597   5.529  10.558 -0.4003 -0.4005  1.3732
 4916TIP3    H236240   5.746   5.552  10.542 -0.6958  0.6997  0.0128
 4917TIP3   OH236241   4.040   6.559   4.319 -0.4778 -0.8377 -0.5496
 4917TIP3    H136242   4.039   6.585   4.411  0.7939  0.7604 -0.9371
 4917TIP3    H236243   3.960   6.507   4.308 -0.6480 -1.0932  1.4415
 4918TIP3   OH236244   1.156   3.418   0.633 -0.7809  0.7706  0.1009
 4918TIP3    H136245   1.061   3.413   0.630 -0.7188 -0.9519 -2.4368
 4918TIP3    H236246   1.184   3.326   0.639  0.7361  1.2939  1.6883
 4919TIP3   OH236247   3.759   1.234   5.472 -0.2479 -0.1535  0.4367
 4919TIP3    H136248   3.807   1.313   5.495  0.1423 -0.2840  0.0779
 4919TIP3    H236249   3.803   1.164   5.521  0.0155 -0.2926  0.0064
 4920TIP3   OH236250   0.347   3.131  14.759 -0.3250  0.1016  1.1054
 4920TIP3    H136251   0.376   3.146  14.849 -1.3225  3.0052  1.0314
 4920TIP3    H236252   0.399   3.191  14.706 -1.6799  0.4844  0.1430
 4921TIP3   OH236253   6.061   3.349  12.467  0.0810  0.2910  0.3030
 4921TIP3    H136254   6.106   3.265  12.457  0.6807  0.6482 -0.0533
 4921TIP3    H236255   5.969   3.329  12.447  0.2313 -0.2607  0.1296
 4922TIP3   OH236256   3.756   1.482  13.225  0.0135 -0.4295 -0.0285
 4922TIP3    H136257   3.838   1.465  13.179  1.1499 -0.4417  1.8925
 4922TIP3    H236258   3.783   1.509  13.313 -2.0521 -1.2735  0.9327
 4923TIP3   OH236259   5.482   1.865   3.534  0.0985 -0.2192 -0.3111
 4923TIP3    H136260   5.398   1.886   3.575  0.5979  2.2792 -0.4181
 4923TIP3    H236261   5.514   1.788   3.582 -0.7595  0.7173  1.8855
 4924TIP3   OH236262   2.691   2.331   2.918  0.4788  0.3997 -0.4958
 4924TIP3    H136263   2.727   2.379   2.993  0.3380  1.2746 -0.9803
 4924TIP3    H236264   2.767   2.309   2.864  0.5744 -0.1844 -0.1359
 4925TIP3   OH236265   4.970   2.609   1.342  0.3735  0.1419  0.1437
 4925TIP3    H136266   4.996   2.678   1.404 -2.4397  1.0686  0.4364
 4925TIP3    H236267   5.048   2.594   1.289  2.7106 -0.1275  3.3301
 4926TIP3   OH236268   6.413   1.519   5.113 -0.4130  0.4435  0.5294
 4926TIP3    H136269   6.480   1.480   5.169 -0.8260 -2.0931 -0.6369
 4926TIP3    H236270   6.463   1.575   5.053  0.5990 -0.8082  0.1709
 4927TIP3   OH236271   2.121   6.436   1.015  0.3288  0.0325 -0.4695
 4927TIP3    H136272   2.191   6.499   0.997 -0.3450  1.2368  0.8590
 4927TIP3    H236273   2.099   6.400   0.930  1.6046  0.6642 -1.1045
 4928TIP3   OH236274   4.118   4.392  17.012  0.4283 -0.1204 -0.4454
 4928TIP3    H136275   4.045   4.349  16.967  1.1202 -0.5188 -1.2202
 4928TIP3    H236276   4.111   4.484  16.987 -0.7034  0.1456  0.7344
 4929TIP3   OH236277   5.711   0.741   3.930  0.0893  0.1479  0.5436
 4929TIP3    H136278   5.639   0.698   3.976 -0.3573  2.6735  2.4283
 4929TIP3    H236279   5.675   0.763   3.844  0.5469 -3.5923 -0.7582
 4930TIP3   OH236280   1.022   2.733   3.688 -0.4910 -0.3777  0.2153
 4930TIP3    H136281   0.982   2.748   3.774 -0.5048 -0.6788  0.2625
 4930TIP3    H236282   0.961   2.774   3.627 -0.5331 -0.2513  0.3401
 4931TIP3   OH236283   4.744   3.522  14.379 -0.1425 -0.3718 -0.1477
 4931TIP3    H136284   4.699   3.455  14.432 -0.7318 -0.2798 -0.5200
 4931TIP3    H236285   4.837   3.501  14.388 -0.3056 -1.1261 -0.0975
 4932TIP3   OH236286   1.618   0.749   0.559  0.6318  0.0420 -0.2062
 4932TIP3    H136287   1.580   0.712   0.479 -0.0564  3.2061 -1.5058
 4932TIP3    H236288   1.545   0.790   0.603  1.6412  1.7230 -0.0211
 4933TIP3   OH236289   0.047   2.446   5.841  0.0145 -0.0096 -0.7166
 4933TIP3    H136290   0.036   2.490   5.926  0.9362 -0.4162 -0.3751
 4933TIP3    H236291   0.048   2.517   5.777 -1.4035  0.2591 -0.4851
 4934TIP3   OH236292   2.491   2.845   4.608  0.3069 -0.0048 -0.4148
 4934TIP3    H136293   2.584   2.839   4.590 -0.0295 -0.5650 -2.1974
 4934TIP3    H236294   2.457   2.758   4.589 -0.6897  0.4096 -0.6072
 4935TIP3   OH236295   1.042   3.999  14.965 -0.4594 -0.0179  0.2016
 4935TIP3    H136296   1.129   3.978  14.998  0.4510  0.8036 -1.5622
 4935TIP3    H236297   1.028   3.937  14.893  0.8332  2.9024 -2.8086
 4936TIP3   OH236298   1.553   1.791  13.393 -0.1458  0.0176  0.2394
 4936TIP3    H136299   1.540   1.763  13.302  1.0125 -0.2258  0.1443
 4936TIP3    H236300   1.559   1.886  13.388 -0.4003  0.0281  0.1019
 4937TIP3   OH236301   0.923   4.079  15.242  0.5346 -0.2227 -0.1819
 4937TIP3    H136302   0.949   4.060  15.152  1.7330 -1.8310  0.4497
 4937TIP3    H236303   0.974   4.156  15.266  0.7543 -0.2221 -0.6335
 4938TIP3   OH236304   6.298   5.397   4.759 -0.2174 -0.2085  0.0297
 4938TIP3    H136305   6.243   5.324   4.789  0.7961 -1.3096 -0.7053
 4938TIP3    H236306   6.388   5.363   4.764  0.3011  1.1136 -0.0049
 4939TIP3   OH236307   3.732   4.374  11.822  0.0681  0.0038 -0.4581
 4939TIP3    H136308   3.756   4.426  11.899  1.9440  0.4388 -1.2724
 4939TIP3    H236309   3.639   4.390  11.810 -0.0713  0.6124  1.2122
 4940TIP3   OH236310   1.659   1.858   2.694  0.2839  0.1965  0.1491
 4940TIP3    H136311   1.733   1.861   2.632 -0.4596 -0.9019 -0.8435
 4940TIP3    H236312   1.587   1.822   2.642 -0.0311 -2.0225  1.9965
 4941TIP3   OH236313   2.099   6.122  16.377 -0.2829  0.1505 -0.4262
 4941TIP3    H136314   2.131   6.211  16.359  0.5114  0.2018  1.0262
 4941TIP3    H236315   2.177   6.067  16.374 -0.4993 -0.2152  0.2922
 4942TIP3   OH236316   6.486   4.932   1.907 -1.4049  0.3425  0.6386
 4942TIP3    H136317   6.408   4.881   1.886 -1.0357 -0.1535  0.4181
 4942TIP3    H236318   6.538   4.873   1.962 -0.2558 -0.1508 -0.8947
 4943TIP3   OH236319   1.609   5.122   5.018 -0.0986 -0.6432 -0.0196
 4943TIP3    H136320   1.661   5.042   5.018  0.0391 -0.5550  0.0066
 4943TIP3    H236321   1.634   5.167   5.098  0.8662  0.0889 -0.7039
 4944TIP3   OH236322   5.668   2.716  10.936 -0.0622  0.3535  0.0115
 4944TIP3    H136323   5.737   2.782  10.942 -0.8030  1.0337  2.2525
 4944TIP3    H236324   5.601   2.747  10.997  0.3103 -3.3446  2.6167
 4945TIP3   OH236325   6.669   4.342   3.432 -0.5292 -0.4057  0.0160
 4945TIP3    H136326   6.755   4.332   3.391 -0.0929  0.3227  0.7249
 4945TIP3    H236327   6.674   4.426   3.477 -1.3067 -0.7815  0.8315
 4946TIP3   OH236328   3.556   5.330  16.998  0.0554 -0.6866 -0.9736
 4946TIP3    H136329   3.493   5.373  17.055 -1.6502 -0.9999 -2.5076
 4946TIP3    H236330   3.554   5.382  16.918  2.7724  0.0569 -0.6328
 4947TIP3   OH236331   1.666   1.734   5.529  0.3375  0.1792 -0.0122
 4947TIP3    H136332   1.668   1.825   5.497 -1.8068  0.6798  1.1073
 4947TIP3    H236333   1.584   1.699   5.495 -0.0414 -0.5441  1.5929
 4948TIP3   OH236334   6.433   4.284   6.207 -0.3014  0.4974 -0.4344
 4948TIP3    H136335   6.352   4.310   6.164 -0.8460  2.0687  1.3900
 4948TIP3    H236336   6.405   4.226   6.278  0.2970  0.0624 -0.5484
 4949TIP3   OH236337   5.036   2.543  11.386 -0.0807  0.3422  0.0149
 4949TIP3    H136338   5.008   2.451  11.379  0.8941  0.0569 -0.3034
 4949TIP3    H236339   4.955   2.593  11.384 -0.7149 -0.5791  1.3904
 4950TIP3   OH236340   3.728   1.565  11.877 -0.5278  0.1117 -0.0210
 4950TIP3    H136341   3.800   1.622  11.904 -0.3760 -0.3212  0.4928
 4950TIP3    H236342   3.672   1.559  11.955 -0.9021  0.1060 -0.2864
 4951TIP3   OH236343   3.877   0.129   4.025 -0.0148 -0.1851  0.0362
 4951TIP3    H136344   3.839   0.085   4.102 -0.1780  1.3308  0.8703
 4951TIP3    H236345   3.968   0.146   4.050 -0.2291  0.8477  0.1668
 4952TIP3   OH236346   1.434   0.245  17.133 -0.4024 -0.0917 -0.0258
 4952TIP3    H136347   1.389   0.162  17.148  0.7508 -0.9490 -1.1322
 4952TIP3    H236348   1.433   0.255  17.038  1.9343 -0.2766 -0.1099
 4953TIP3   OH236349   0.525   6.629   2.559  0.2149 -0.4031 -0.0130
 4953TIP3    H136350   0.544   6.587   2.475  0.9908 -0.0269 -0.0353
 4953TIP3    H236351   0.603   6.681   2.578 -0.8379  1.3090 -0.1664
 4954TIP3   OH236352   6.810   5.588   1.141  0.5908  0.0829  0.2015
 4954TIP3    H136353   6.791   5.518   1.204  0.1197 -0.6346 -0.7072
 4954TIP3    H236354   6.773   5.556   1.058  0.5029  1.3464 -0.2675
 4955TIP3   OH236355   2.604   0.097   0.701  0.7122  0.3729  0.1599
 4955TIP3    H136356   2.558   0.156   0.761  0.1977  1.2338 -1.0506
 4955TIP3    H236357   2.561   0.110   0.617  1.2320 -1.0297 -0.3488
 4956TIP3   OH236358   2.424   1.283   1.239  0.2292 -0.2422 -0.2640
 4956TIP3    H136359   2.437   1.200   1.194 -0.2086 -1.3468  1.5267
 4956TIP3    H236360   2.334   1.280   1.271  0.8868 -0.1374  1.7719
 4957TIP3   OH236361   5.760   4.573  15.148 -0.8542  0.6161 -0.1663
 4957TIP3    H136362   5.841   4.578  15.098 -0.7506 -0.2642 -0.0960
 4957TIP3    H236363   5.779   4.513  15.220 -1.0362  1.7673  0.8814
 4958TIP3   OH236364   4.634   3.013   5.809 -0.0428 -0.2405 -0.1220
 4958TIP3    H136365   4.631   3.094   5.860  0.9097 -0.7700  0.7823
 4958TIP3    H236366   4.570   2.956   5.852 -0.9681  0.1226 -0.9666
 4959TIP3   OH236367   6.175   3.455  11.759  0.3239  0.2792 -0.1255
 4959TIP3    H136368   6.235   3.395  11.802  0.6736  0.6053 -0.1479
 4959TIP3    H236369   6.096   3.403  11.742  0.6075 -0.1576 -0.1157
 4960TIP3   OH236370   1.018   6.544   5.198  0.6294  0.0140 -0.1251
 4960TIP3    H136371   0.939   6.506   5.237  0.9455  0.4886  1.0180
 4960TIP3    H236372   1.088   6.483   5.223  0.8000  0.2021 -0.1447
 4961TIP3   OH236373   3.827   5.930   6.343  0.0280 -0.0972 -0.8332
 4961TIP3    H136374   3.859   6.017   6.320  1.3758 -0.7884 -1.7146
 4961TIP3    H236375   3.763   5.945   6.412  0.0659  1.6019 -1.1328
 4962TIP3   OH236376   6.678   1.021   1.580 -0.2990  0.1546 -0.6294
 4962TIP3    H136377   6.768   1.015   1.614 -0.3461  2.1894  0.0456
 4962TIP3    H236378   6.655   1.114   1.591 -2.2983 -0.2123 -1.2907
 4963TIP3   OH236379   5.873   4.056   0.710  0.4423 -0.3902 -0.1747
 4963TIP3    H136380   5.967   4.051   0.727  0.3392 -1.3246  0.2190
 4963TIP3    H236381   5.834   3.999   0.777 -0.3600 -0.4144 -0.6516
 4964TIP3   OH236382   6.677   3.087  12.431 -0.0215  0.5669 -0.0648
 4964TIP3    H136383   6.705   3.025  12.498  2.4818  1.6306 -0.0268
 4964TIP3    H236384   6.582   3.095  12.444 -0.0316 -1.3772  1.4694
 4965TIP3   OH236385   5.434   6.423  13.475 -0.8365 -0.1815  0.3222
 4965TIP3    H136386   5.427   6.424  13.571 -0.9312 -0.6906  0.3196
 4965TIP3    H236387   5.477   6.506  13.454 -1.3227  0.1878  0.7635
 4966TIP3   OH236388   3.056   1.832  14.304 -0.3109 -0.7244 -0.4417
 4966TIP3    H136389   3.015   1.796  14.383  0.2855  0.3239  0.3735
 4966TIP3    H236390   3.139   1.868  14.335 -1.9696  3.8078 -0.5601
 4967TIP3   OH236391   0.431   0.491  11.234  0.2789 -0.0126  0.0440
 4967TIP3    H136392   0.442   0.570  11.181  1.1683  0.6811  1.2105
 4967TIP3    H236393   0.516   0.479  11.277 -0.2766 -0.8015  0.9538
 4968TIP3   OH236394   6.438   1.023   5.689  0.5326 -0.1307 -0.4792
 4968TIP3    H136395   6.412   1.079   5.616  0.0513 -0.6979 -0.7442
 4968TIP3    H236396   6.363   0.966   5.704 -0.0421  1.0236  1.4986
 4969TIP3   OH236397   5.189   1.746   1.416 -0.2712 -0.4315 -0.2759
 4969TIP3    H136398   5.226   1.742   1.504 -0.6282 -0.7791 -0.1361
 4969TIP3    H236399   5.145   1.662   1.405 -1.6787  0.2482 -0.1225
 4970TIP3   OH236400   0.137   5.269   3.062 -0.0225 -0.3796  0.0124
 4970TIP3    H136401   0.163   5.362   3.059  1.4673 -0.7656  0.1483
 4970TIP3    H236402   0.054   5.266   3.014  1.4390  0.5626 -2.8510
 4971TIP3   OH236403   2.215   2.419  14.928  0.2903 -0.4299 -0.3281
 4971TIP3    H136404   2.193   2.414  14.835  0.9583 -0.6156 -0.4787
 4971TIP3    H236405   2.137   2.387  14.973  0.4698 -1.6841 -0.8818
 4972TIP3   OH236406   4.220   2.195   2.463 -0.1819  0.3775  0.0820
 4972TIP3    H136407   4.273   2.198   2.543 -1.2714  0.9064  0.8186
 4972TIP3    H236408   4.230   2.282   2.424 -0.6599  0.5584  0.3460
 4973TIP3   OH236409   3.707   3.951  12.983  0.2746 -0.2680  0.2073
 4973TIP3    H136410   3.738   4.013  13.048 -1.3515  0.0118  0.7638
 4973TIP3    H236411   3.624   3.988  12.952 -1.3951 -2.6823  1.4392
 4974TIP3   OH236412   4.276   5.806  11.520  0.3766  0.2240  0.5126
 4974TIP3    H136413   4.264   5.812  11.615  2.3100  1.6581  0.7184
 4974TIP3    H236414   4.366   5.777  11.509 -0.0141 -0.5328 -0.9152
 4975TIP3   OH236415   0.867   0.665  13.958  0.1118 -0.1124 -0.0505
 4975TIP3    H136416   0.828   0.741  13.915 -0.6906 -0.0917  0.6809
 4975TIP3    H236417   0.932   0.632  13.895 -1.3089 -0.3430 -1.4445
 4976TIP3   OH236418   6.577   1.350   0.318  0.0157 -0.2752  0.5827
 4976TIP3    H136419   6.604   1.408   0.390 -1.1076  0.0427  0.7810
 4976TIP3    H236420   6.622   1.385   0.241  1.6207 -0.9106  1.1893
 4977TIP3   OH236421   6.481   5.297  12.068  0.3403 -0.0503 -0.3296
 4977TIP3    H136422   6.486   5.383  12.026 -1.0583  1.1421  1.7387
 4977TIP3    H236423   6.388   5.274  12.065  0.1306  0.1696  2.0758
 4978TIP3   OH236424   6.298   4.203   2.298  0.1981  0.0640 -0.3849
 4978TIP3    H136425   6.257   4.187   2.382 -0.7127  0.6558 -0.7075
 4978TIP3    H236426   6.240   4.162   2.234  1.4644 -1.3834 -0.6603
 4979TIP3   OH236427   3.177   1.959  16.156 -0.0917 -0.1925  0.1567
 4979TIP3    H136428   3.232   2.035  16.136  0.1248 -0.0869  1.0917
 4979TIP3    H236429   3.167   1.913  16.073  2.2190 -0.7513  0.1424
 4980TIP3   OH236430   2.933   6.004  14.447  0.0111 -0.2391 -0.7484
 4980TIP3    H136431   2.946   5.998  14.542  2.0564  0.3408 -0.9438
 4980TIP3    H236432   2.896   6.091  14.433  0.3278 -0.0653 -0.5187
 4981TIP3   OH236433   4.731   1.805   1.795 -0.2454 -0.3287 -0.0274
 4981TIP3    H136434   4.666   1.773   1.733 -1.6016  1.7642  0.2267
 4981TIP3    H236435   4.814   1.770   1.762 -1.3362 -2.1967 -0.9594
 4982TIP3   OH236436   3.673   4.022   5.395  0.3381  0.2623 -0.0291
 4982TIP3    H136437   3.703   4.113   5.388  2.0998 -0.3639 -1.3774
 4982TIP3    H236438   3.622   4.008   5.316 -1.0012  0.3950  0.7746
 4983TIP3   OH236439   2.077   4.737  14.774 -0.1512  0.5220  0.5557
 4983TIP3    H136440   2.118   4.745  14.689 -1.3302  0.6095 -0.0313
 4983TIP3    H236441   2.113   4.657  14.812 -0.3419 -0.0460 -0.4459
 4984TIP3   OH236442   4.249   3.913  13.539 -0.1981 -0.3910 -0.1254
 4984TIP3    H136443   4.227   4.005  13.531  1.3829  0.0453  0.1967
 4984TIP3    H236444   4.251   3.880  13.449  1.0250  0.3581 -0.3900
 4985TIP3   OH236445   1.300   6.417   1.904  0.0152 -0.2044 -0.4645
 4985TIP3    H136446   1.282   6.424   1.810  0.7041 -1.2533 -0.6898
 4985TIP3    H236447   1.388   6.380   1.909 -0.1001 -0.3622  0.5907
 4986TIP3   OH236448   3.055   5.569  15.389 -0.1476 -0.2133 -0.4862
 4986TIP3    H136449   3.070   5.557  15.296  0.2973 -3.1677 -0.1544
 4986TIP3    H236450   2.960   5.567  15.399 -0.1767 -1.1605 -0.8092
 4987TIP3   OH236451   4.429   6.181   3.895  0.4378 -0.4755 -0.1789
 4987TIP3    H136452   4.352   6.132   3.865  0.7496 -2.4792  2.0066
 4987TIP3    H236453   4.397   6.270   3.908 -2.1877 -1.6520  2.6708
 4988TIP3   OH236454   2.191   5.972  15.186  0.1959 -0.5632 -0.1433
 4988TIP3    H136455   2.107   5.983  15.229 -1.3229 -0.5149 -2.8745
 4988TIP3    H236456   2.249   6.033  15.231 -1.7590  0.8700  0.5767
 4989TIP3   OH236457   2.187   0.514  15.862 -1.0100  0.1730 -0.1676
 4989TIP3    H136458   2.151   0.451  15.924 -0.4883 -2.3404 -2.2535
 4989TIP3    H236459   2.142   0.495  15.780  0.3180  1.4671 -1.2455
 4990TIP3   OH236460   4.131   1.255  14.129  0.1865 -0.4825  0.2533
 4990TIP3    H136461   4.225   1.273  14.132  0.4083 -1.5523 -0.0215
 4990TIP3    H236462   4.110   1.252  14.036  0.1270 -1.4698  0.2915
 4991TIP3   OH236463   4.073   3.184  10.974  0.4403 -0.4033  0.3770
 4991TIP3    H136464   4.113   3.103  10.943  0.4668 -0.4060  0.4180
 4991TIP3    H236465   4.109   3.252  10.917  1.7097 -0.1806  1.3864
 4992TIP3   OH236466   1.869   2.563   5.881  0.0750 -0.0883 -0.2765
 4992TIP3    H136467   1.811   2.541   5.954 -0.7325  0.6634 -0.6686
 4992TIP3    H236468   1.914   2.643   5.908 -0.7780  0.6173 -0.8737
 4993TIP3   OH236469   4.786   5.177   0.591  0.0451  0.0319  0.2951
 4993TIP3    H136470   4.863   5.191   0.537  0.0251 -1.0146 -0.0303
 4993TIP3    H236471   4.814   5.198   0.680 -0.8267  5.2890 -0.3430
 4994TIP3   OH236472   2.884   2.700   3.324 -0.2819 -0.5784  0.2058
 4994TIP3    H136473   2.804   2.742   3.356 -0.3296 -1.4181  1.2871
 4994TIP3    H236474   2.954   2.763   3.345 -0.8271  1.2367 -2.8872
 4995TIP3   OH236475   1.034   6.531  15.778  0.3955 -0.5038  0.1368
 4995TIP3    H136476   0.972   6.535  15.851 -0.4812 -1.2967 -0.5334
 4995TIP3    H236477   1.028   6.617  15.736 -0.8882 -0.8271 -0.3961
 4996TIP3   OH236478   3.747   4.060  13.807 -0.2627 -0.3163  0.3302
 4996TIP3    H136479   3.659   4.029  13.786  0.0001 -0.0618 -1.2348
 4996TIP3    H236480   3.762   4.029  13.897 -1.5128 -1.3188  0.2252
 4997TIP3   OH236481   2.728   4.000  12.534  0.1615  0.4557 -0.0628
 4997TIP3    H136482   2.690   4.075  12.581  0.4412  1.0455 -0.7613
 4997TIP3    H236483   2.656   3.965  12.482  0.3261  1.0072 -0.6796
 4998TIP3   OH236484   4.351   2.625   5.678 -0.4400  0.4596 -0.0054
 4998TIP3    H136485   4.378   2.717   5.675  0.6390  0.1659  0.1857
 4998TIP3    H236486   4.321   2.606   5.589 -1.3200  1.1695  0.1197
 4999TIP3   OH236487   1.814   0.628  14.932  0.2483  0.5658  0.9772
 4999TIP3    H136488   1.900   0.592  14.912 -0.6157 -1.7605  1.0651
 4999TIP3    H236489   1.787   0.674  14.852  2.4900  3.5337  1.7469
 5000TIP3   OH236490   3.563   5.976   0.937 -0.1377 -0.0004  0.1899
 5000TIP3    H136491   3.568   5.929   0.854 -0.2969 -1.8393  1.1665
 5000TIP3    H236492   3.654   5.981   0.968 -0.2028 -0.3869  0.4549
 5001TIP3   OH236493   1.996   1.804  10.792 -0.5178  0.1355  0.3984
 5001TIP3    H136494   1.987   1.899  10.793  0.0445  0.1905  0.6135
 5001TIP3    H236495   1.931   1.774  10.728  0.0878  0.7530 -0.5353
 5002TIP3   OH236496   2.559   5.302  13.949  0.1557  0.2024 -0.2571
 5002TIP3    H136497   2.565   5.324  14.042 -3.3093 -0.2762  0.2224
 5002TIP3    H236498   2.501   5.369  13.912 -3.2460 -2.6836 -0.6844
 5003TIP3   OH236499   6.356   1.493   1.212  0.4266 -0.1742 -0.3938
 5003TIP3    H136500   6.421   1.550   1.171  0.4060 -1.7226 -2.7749
 5003TIP3    H236501   6.286   1.552   1.239  1.7573  1.2537  0.1278
 5004TIP3   OH236502   1.603   5.691   6.063 -0.5073  0.2312 -0.6553
 5004TIP3    H136503   1.653   5.729   6.135 -0.5121 -0.5400 -0.2370
 5004TIP3    H236504   1.597   5.762   5.999  1.2344  0.2961 -0.7831
 5005TIP3   OH236505   2.758   4.828  15.756  0.2385 -0.0822  0.8942
 5005TIP3    H136506   2.842   4.857  15.793  0.1534  2.3950 -0.6423
 5005TIP3    H236507   2.779   4.745  15.712  2.7263  1.8804 -2.0166
 5006TIP3   OH236508   2.283   2.961  16.269  0.0531 -0.0445 -0.4471
 5006TIP3    H136509   2.216   3.011  16.314  0.8002 -1.1377  2.1106
 5006TIP3    H236510   2.342   3.027  16.232 -1.3463  0.9084 -1.0495
 5007TIP3   OH236511   0.638   3.749   5.073  0.3203  0.2730  0.2983
 5007TIP3    H136512   0.571   3.778   5.135  0.9191  0.6474  0.7909
 5007TIP3    H236513   0.639   3.653   5.082  0.3208  0.3165  0.7853
 5008TIP3   OH236514   4.483   5.484   2.897  0.1767 -0.1012 -0.3337
 5008TIP3    H136515   4.571   5.520   2.888  0.0476  0.0816 -0.9186
 5008TIP3    H236516   4.445   5.532   2.971 -0.1673  1.3403 -1.4038
 5009TIP3   OH236517   2.728   6.476   6.556  0.6374 -0.5135  0.3804
 5009TIP3    H136518   2.634   6.486   6.573  0.4480 -0.0673 -0.8148
 5009TIP3    H236519   2.748   6.546   6.493  1.8689 -0.3291  0.9529
 5010TIP3   OH236520   0.255   6.310   2.613 -0.5166 -0.4764  0.5789
 5010TIP3    H136521   0.196   6.245   2.651 -0.8266 -0.7595 -0.3545
 5010TIP3    H236522   0.232   6.392   2.657  0.7058 -1.1768  2.6632
 5011TIP3   OH236523   5.248   2.522   5.155 -0.0225  0.2875 -0.2031
 5011TIP3    H136524   5.319   2.535   5.091  1.1926  0.1747  1.0668
 5011TIP3    H236525   5.205   2.608   5.161  0.0574  0.3876 -0.9088
 5012TIP3   OH236526   4.529   4.949   2.379 -0.4803  0.1905  0.2573
 5012TIP3    H136527   4.541   4.893   2.302  1.4961  1.9622 -0.8552
 5012TIP3    H236528   4.470   5.018   2.348  0.4003  0.9645  0.2608
 5013TIP3   OH236529   5.609   2.082  14.034 -0.3978 -0.3581 -0.4304
 5013TIP3    H136530   5.542   2.032  14.081  0.8981  0.4742  2.5387
 5013TIP3    H236531   5.661   2.016  13.989 -1.1926 -1.3038  0.0048
 5014TIP3   OH236532   0.461   4.911   1.355  0.4376  0.2416  0.5758
 5014TIP3    H136533   0.519   4.922   1.280  0.5630  1.0067  0.7742
 5014TIP3    H236534   0.382   4.960   1.331 -0.9322 -2.2984 -0.4877
 5015TIP3   OH236535   6.238   1.658  13.941  0.5549 -0.4060  0.4838
 5015TIP3    H136536   6.170   1.613  13.991 -0.4264 -0.3352 -0.7610
 5015TIP3    H236537   6.307   1.592  13.931 -0.2170 -1.1579 -0.0095
 5016TIP3   OH236538   6.720   2.294  12.873 -0.3370 -0.0683  0.5436
 5016TIP3    H136539   6.661   2.317  12.945 -2.5471 -0.4818 -1.0463
 5016TIP3    H236540   6.748   2.204  12.894 -1.0866 -0.2463  0.8138
 5017TIP3   OH236541   6.179   6.176  16.206  0.2992 -0.3861 -0.1049
 5017TIP3    H136542   6.241   6.180  16.279  1.5570 -1.6736 -1.0323
 5017TIP3    H236543   6.131   6.095  16.220  0.4891 -0.5958 -0.6572
 5018TIP3   OH236544   5.021   4.673  12.906  0.0582 -0.9541  0.7822
 5018TIP3    H136545   4.934   4.643  12.880 -1.0035  0.0892  2.9351
 5018TIP3    H236546   5.007   4.724  12.985  2.5775 -0.2254  0.8554
 5019TIP3   OH236547   2.690   3.689  11.309  0.1378  0.2884  0.1223
 5019TIP3    H136548   2.599   3.694  11.280  0.1156 -2.1857 -0.5053
 5019TIP3    H236549   2.739   3.663  11.231  1.0129 -0.6579  0.9511
 5020TIP3   OH236550   0.994   1.791  14.435 -0.7688  0.5212 -0.4270
 5020TIP3    H136551   1.067   1.754  14.384  0.5475 -0.0592  1.7603
 5020TIP3    H236552   1.036   1.839  14.506 -2.4439 -0.9459  1.7048
 5021TIP3   OH236553   5.721   1.632   2.000 -0.3985  0.2020 -0.9916
 5021TIP3    H136554   5.674   1.612   1.919 -1.2411  0.2942 -0.5356
 5021TIP3    H236555   5.808   1.594   1.987 -0.6505 -0.1208 -1.7886
 5022TIP3   OH236556   1.151   1.066   0.144 -0.3915 -0.1872 -0.5779
 5022TIP3    H136557   1.154   0.971   0.136  0.2580 -0.4631  1.8802
 5022TIP3    H236558   1.060   1.089   0.124 -0.2262 -1.1107 -2.5892
 5023TIP3   OH236559   5.840   5.249   3.412 -0.3572  0.6089 -0.3193
 5023TIP3    H136560   5.927   5.240   3.372 -0.0735  3.1767 -0.4657
 5023TIP3    H236561   5.826   5.344   3.418 -1.7928  0.3432  2.6612
 5024TIP3   OH236562   0.726   0.946  12.855  0.3262  0.1915 -0.0665
 5024TIP3    H136563   0.809   0.915  12.891  0.4044 -0.2266 -0.6046
 5024TIP3    H236564   0.660   0.912  12.916  0.4609 -0.4966 -0.2950
 5025TIP3   OH236565   5.188   1.329  16.731  0.3404  0.3023 -0.0733
 5025TIP3    H136566   5.190   1.263  16.800  0.1824  0.6527  0.2658
 5025TIP3    H236567   5.226   1.284  16.655 -2.7248 -1.2965 -0.8184
 5026TIP3   OH236568   4.992   5.835   5.042  0.3248  0.0253  0.5979
 5026TIP3    H136569   4.976   5.773   4.971  0.6818  1.2404 -0.5926
 5026TIP3    H236570   5.086   5.827   5.060  1.2457  2.7320 -2.1460
 5027TIP3   OH236571   0.280   3.976  16.994  0.1277 -0.6773 -0.1849
 5027TIP3    H136572   0.363   4.023  16.992 -0.2958  0.0679 -1.2601
 5027TIP3    H236573   0.252   3.981  17.085  0.2792  0.8490 -0.1972
 5028TIP3   OH236574   2.102   6.727  17.070  0.5647 -0.7890 -0.1398
 5028TIP3    H136575   2.160   6.651  17.084  2.1811  0.6113  1.3234
 5028TIP3    H236576   2.014   6.689  17.065  1.1805 -2.6982  1.7573
 5029TIP3   OH236577   4.738   4.402   0.253  0.2461 -0.5775  0.0172
 5029TIP3    H136578   4.668   4.466   0.264 -0.9545 -1.2534 -2.8207
 5029TIP3    H236579   4.786   4.432   0.176  1.0901 -1.8514  0.0083
 5030TIP3   OH236580   4.015   0.210  16.852  0.6707 -0.2898  0.0928
 5030TIP3    H136581   4.037   0.303  16.859 -1.2399  0.1415  1.0063
 5030TIP3    H236582   4.007   0.195  16.758 -0.7213  0.9496 -0.0337
 5031TIP3   OH236583   3.263   2.314   3.369  0.0861  0.0383 -0.0516
 5031TIP3    H136584   3.247   2.330   3.276  4.8090  0.5857 -1.0085
 5031TIP3    H236585   3.237   2.395   3.413 -2.1779 -0.2229 -0.8240
 5032TIP3   OH236586   6.061   2.189   0.907 -0.0489 -0.0572 -0.1124
 5032TIP3    H136587   6.132   2.199   0.970 -1.1775  0.6188  1.1105
 5032TIP3    H236588   5.997   2.257   0.932 -0.0154  1.0620 -2.7355
 5033TIP3   OH236589   4.534   4.104  16.126 -0.2688  0.1722  0.1715
 5033TIP3    H136590   4.509   4.191  16.094 -0.2831  0.0986 -0.0223
 5033TIP3    H236591   4.578   4.121  16.209  0.7485  0.4679 -0.4061
 5034TIP3   OH236592   1.075   1.722   4.299  0.2966  0.4653 -0.2700
 5034TIP3    H136593   1.086   1.786   4.369 -0.7927 -0.2676  0.6066
 5034TIP3    H236594   1.095   1.771   4.219  2.2778  1.1403  0.5636
 5035TIP3   OH236595   6.636   1.070  16.971  0.8654 -0.4206  0.4209
 5035TIP3    H136596   6.642   0.978  16.944  0.5931 -0.1942 -0.4346
 5035TIP3    H236597   6.651   1.068  17.066  3.8332 -1.0496  0.0310
 5036TIP3   OH236598   2.999   5.832   5.541 -1.0141 -1.0080  0.1148
 5036TIP3    H136599   2.930   5.827   5.475 -1.2135 -1.5046  0.3600
 5036TIP3    H236600   3.046   5.749   5.534 -0.7548 -0.8800  0.2974
 5037TIP3   OH236601   0.068   4.344   1.188  0.0823  0.7706  0.0766
 5037TIP3    H136602   0.072   4.408   1.259  0.4285 -0.1628  0.9333
 5037TIP3    H236603   0.153   4.351   1.144  0.6941 -0.0522  1.0635
 5038TIP3   OH236604   0.822   6.767   4.307  0.3582 -0.2733  0.1358
 5038TIP3    H136605   0.767   6.708   4.357  1.5605 -0.3359  1.4328
 5038TIP3    H236606   0.822   6.731   4.218 -0.0433 -1.4206  0.5852
 5039TIP3   OH236607   6.371   5.638   2.740 -0.0515 -0.3398 -0.3628
 5039TIP3    H136608   6.313   5.624   2.815 -1.6396  1.7109 -1.1118
 5039TIP3    H236609   6.317   5.617   2.664 -0.0504  2.1233 -1.1008
 5040TIP3   OH236610   4.888   5.040   6.202 -0.1525 -0.6959 -0.0600
 5040TIP3    H136611   4.947   5.093   6.255 -0.1555 -0.3211 -0.4305
 5040TIP3    H236612   4.801   5.075   6.220 -0.2875 -1.3380  0.5928
 5041TIP3   OH236613   5.667   1.409   5.455 -0.5081 -0.5344 -0.1030
 5041TIP3    H136614   5.663   1.501   5.479 -0.9758 -1.1652  2.6255
 5041TIP3    H236615   5.588   1.394   5.403 -0.5494  0.5343 -0.3656
 5042TIP3   OH236616   2.108   4.253  12.918  0.0821 -0.6129 -0.1599
 5042TIP3    H136617   2.061   4.308  12.980 -1.3730 -1.2676 -0.6421
 5042TIP3    H236618   2.047   4.240  12.845  0.2986 -2.8927 -0.0331
 5043TIP3   OH236619   6.552   4.153   0.503 -0.2911 -0.1026  0.4832
 5043TIP3    H136620   6.505   4.070   0.511  0.1998 -0.3565  0.7618
 5043TIP3    H236621   6.640   4.134   0.534 -0.0085  0.3756 -0.0051
 5044TIP3   OH236622   3.806   4.550  17.197 -0.2927  0.0587 -0.3023
 5044TIP3    H136623   3.779   4.637  17.227 -0.4096  0.1108 -0.5614
 5044TIP3    H236624   3.879   4.527  17.256 -1.7660 -0.6880  1.3136
 5045TIP3   OH236625   1.123   3.829   4.792 -0.0509 -0.5925  0.3845
 5045TIP3    H136626   1.148   3.784   4.872  2.3134  1.3591  0.8506
 5045TIP3    H236627   1.097   3.917   4.821 -0.2147 -0.1940 -0.8984
 5046TIP3   OH236628   5.216   2.737  17.000  0.1607  0.1459  0.2318
 5046TIP3    H136629   5.224   2.655  17.048  1.0869 -0.5838 -1.1152
 5046TIP3    H236630   5.286   2.735  16.935 -0.0757  1.8039 -0.1365
 5047TIP3   OH236631   4.773   5.130   0.244  0.3712 -0.0532 -1.0323
 5047TIP3    H136632   4.704   5.193   0.267 -1.1120 -2.2600  1.0933
 5047TIP3    H236633   4.762   5.116   0.150 -1.6384  0.2359 -0.8900
 5048TIP3   OH236634   3.986   1.040   5.917  0.6672 -0.0351  0.9931
 5048TIP3    H136635   4.068   1.014   5.959  1.3283 -0.7760 -0.6475
 5048TIP3    H236636   3.920   0.983   5.956  1.0758 -0.0420  1.6946
 5049TIP3   OH236637   1.130   0.938  16.037 -0.3152  0.8558  0.2842
 5049TIP3    H136638   1.158   0.893  16.117  0.1577 -1.5941 -1.1684
 5049TIP3    H236639   1.099   0.868  15.980 -1.7808  2.6655 -1.2574
 5050TIP3   OH236640   2.351   6.042   2.909 -0.2211 -0.3461 -0.3484
 5050TIP3    H136641   2.381   6.129   2.881  0.4916 -1.2591 -2.7280
 5050TIP3    H236642   2.427   6.003   2.953  0.5317 -0.8410 -2.0089
 5051TIP3   OH236643   0.237   2.308   5.260  0.1855  0.4860 -0.0731
 5051TIP3    H136644   0.156   2.307   5.209 -0.3480  0.3664  0.7533
 5051TIP3    H236645   0.295   2.248   5.214 -0.5384 -0.1907 -0.1296
 5052TIP3   OH236646   6.099   1.694  16.212  0.3495  0.4426  0.4726
 5052TIP3    H136647   6.141   1.780  16.213 -0.6648  1.0153 -1.6302
 5052TIP3    H236648   6.173   1.632  16.213  1.0903  1.3058  1.8388
 5053TIP3   OH236649   4.317   2.118  13.279 -0.2565  0.4798 -0.2443
 5053TIP3    H136650   4.344   2.071  13.201  0.1493  1.7191 -0.8711
 5053TIP3    H236651   4.355   2.069  13.352 -1.5086 -1.2889 -0.7299
 5054TIP3   OH236652   0.129   2.683   3.749 -0.3706  0.2651  0.0096
 5054TIP3    H136653   0.119   2.657   3.658  0.3742  0.4040 -0.1183
 5054TIP3    H236654   0.101   2.606   3.799 -4.0562  1.2787 -0.2293
 5055TIP3   OH236655   2.881   3.461  12.115 -0.2457  0.2324  0.7218
 5055TIP3    H136656   2.787   3.471  12.124 -0.0412  2.8099  0.8498
 5055TIP3    H236657   2.898   3.476  12.022  0.1279  0.9041  0.8940
 5056TIP3   OH236658   5.394   2.453  15.038 -0.3081 -0.1515 -0.0137
 5056TIP3    H136659   5.471   2.413  14.997  0.4049  0.6987  0.4581
 5056TIP3    H236660   5.322   2.392  15.019  0.7103 -1.5899  0.6068
 5057TIP3   OH236661   0.333   1.452   3.332  0.6063  0.1159  0.0618
 5057TIP3    H136662   0.319   1.426   3.242 -3.1989  0.4297  0.3818
 5057TIP3    H236663   0.345   1.370   3.380  0.7418 -0.1814 -0.4776
 5058TIP3   OH236664   4.638   1.958  10.656  0.8313  0.0578 -0.1092
 5058TIP3    H136665   4.717   1.986  10.609  0.0349  0.6044 -1.1858
 5058TIP3    H236666   4.668   1.888  10.714  2.3021  1.0093  0.3382
 5059TIP3   OH236667   2.268   6.055  11.177  0.0779  0.5366  0.6666
 5059TIP3    H136668   2.189   6.056  11.123 -0.0786 -1.0908  0.8204
 5059TIP3    H236669   2.338   6.082  11.118 -0.2883  0.0242 -0.0083
 5060TIP3   OH236670   1.399   1.595  15.988 -0.2851  0.0021  0.0397
 5060TIP3    H136671   1.315   1.635  16.010 -0.1641 -1.3104  3.6487
 5060TIP3    H236672   1.381   1.501  15.988  1.0083 -0.2605 -0.0170
 5061TIP3   OH236673   1.652   3.416   5.330  0.2063 -0.3147 -0.0514
 5061TIP3    H136674   1.626   3.450   5.244  0.1893  0.2630  0.1796
 5061TIP3    H236675   1.738   3.377   5.315  0.1505 -0.3293 -0.3532
 5062TIP3   OH236676   1.147   2.673  15.707 -0.1660 -0.1926 -0.0390
 5062TIP3    H136677   1.125   2.657  15.616  0.9191  0.6389 -0.4843
 5062TIP3    H236678   1.114   2.597  15.755 -0.7139 -0.6520 -1.1272
 5063TIP3   OH236679   2.686   1.687  12.777 -0.2443 -0.1909 -0.0252
 5063TIP3    H136680   2.755   1.683  12.844 -0.5766 -0.0334  0.3299
 5063TIP3    H236681   2.609   1.649  12.820 -0.7848  0.9800  0.0946
 5064TIP3   OH236682   4.889   3.663   5.260  0.5674  0.0912 -0.1017
 5064TIP3    H136683   4.945   3.587   5.244  0.6900  0.0333  0.5665
 5064TIP3    H236684   4.944   3.739   5.240  1.1930  0.0623  1.4039
 5065TIP3   OH236685   3.569   6.280   0.006  0.3117  0.1525  0.1664
 5065TIP3    H136686   3.527   6.321  -0.069  0.8843  1.0616  0.3253
 5065TIP3    H236687   3.662   6.300  -0.004  0.4959 -0.4088  0.6860
 5066TIP3   OH236688   3.725   3.129  16.967 -1.1890 -0.8951  0.0909
 5066TIP3    H136689   3.761   3.211  17.002 -2.3435 -0.6072  0.6509
 5066TIP3    H236690   3.739   3.066  17.037  1.3499 -1.6862 -1.0123
 5067TIP3   OH236691   5.036   5.248  14.119  0.2270 -0.2187  0.2338
 5067TIP3    H136692   5.002   5.268  14.031  1.8279 -1.1664 -0.6450
 5067TIP3    H236693   5.049   5.154  14.119  1.1510 -0.1043  1.1625
 5068TIP3   OH236694   3.380   3.459   5.398 -0.4876 -0.4916 -0.2677
 5068TIP3    H136695   3.322   3.394   5.358 -0.3507 -0.9868  0.3201
 5068TIP3    H236696   3.354   3.542   5.357 -0.8817 -0.8639 -0.7931
 5069TIP3   OH236697   3.918   6.424   3.795  0.4291  0.2994  0.3198
 5069TIP3    H136698   3.930   6.471   3.878 -0.6852  0.1611  0.5688
 5069TIP3    H236699   3.871   6.345   3.820 -2.2254  1.4236 -0.7357
 5070TIP3   OH236700   6.589   0.564  11.572 -0.0098 -0.4082 -0.1198
 5070TIP3    H136701   6.611   0.476  11.540  0.8133  0.1129 -1.0209
 5070TIP3    H236702   6.609   0.560  11.666  2.2171 -0.5578 -0.5299
 5071TIP3   OH236703   2.178   6.334  15.880  0.2741 -0.3104  0.2422
 5071TIP3    H136704   2.215   6.361  15.964  0.4773 -0.1233  0.0947
 5071TIP3    H236705   2.240   6.366  15.815  0.6777 -1.4017  0.0707
 5072TIP3   OH236706   0.500   4.663  16.023 -0.6790  0.4843 -0.2576
 5072TIP3    H136707   0.409   4.650  16.049 -0.3607  0.1235  0.7260
 5072TIP3    H236708   0.551   4.646  16.103  0.1687  1.9802 -0.4369
 5073TIP3   OH236709   4.604   2.683  13.914  0.6540  0.5299 -0.1764
 5073TIP3    H136710   4.621   2.703  14.006  0.2008 -0.5071  0.1585
 5073TIP3    H236711   4.553   2.757  13.882 -0.3546  0.3016  0.7994
 5074TIP3   OH236712   4.221   2.073   6.146 -0.2134  0.3739 -0.0256
 5074TIP3    H136713   4.167   2.005   6.105  1.4205 -0.4357 -0.9514
 5074TIP3    H236714   4.199   2.068   6.239 -0.0962 -1.4738 -0.0668
 5075TIP3   OH236715   5.201   6.553   1.614  0.0445  0.3417  0.0140
 5075TIP3    H136716   5.234   6.617   1.676 -1.2732  1.8162 -0.7031
 5075TIP3    H236717   5.126   6.598   1.572  0.5586 -0.7555 -2.2360
 5076TIP3   OH236718   4.206   6.584  15.549 -0.4209  0.6250  0.1439
 5076TIP3    H136719   4.276   6.531  15.588 -0.3514 -0.8128 -1.7859
 5076TIP3    H236720   4.228   6.587  15.456 -2.8248  0.2614 -0.4874
 5077TIP3   OH236721   6.120   2.234  12.512  0.8077  0.1753 -0.0115
 5077TIP3    H136722   6.165   2.318  12.500  0.5381  0.7591  2.4154
 5077TIP3    H236723   6.027   2.256  12.505  0.7805 -0.4428 -1.9310
 5078TIP3   OH236724   4.415   1.166   0.952  0.2225 -0.6646 -0.5401
 5078TIP3    H136725   4.401   1.221   0.875 -1.0528 -0.3839 -0.1337
 5078TIP3    H236726   4.387   1.079   0.925 -2.9087 -0.0476  0.3584
 5079TIP3   OH236727   6.182   2.936   3.306 -0.0758 -0.1284  0.5363
 5079TIP3    H136728   6.242   3.004   3.339  0.2523 -0.1006 -0.0954
 5079TIP3    H236729   6.099   2.981   3.295  0.1158  0.1523  0.2123
 5080TIP3   OH236730   1.279   6.627  15.354  0.6557  0.0405 -0.2080
 5080TIP3    H136731   1.288   6.534  15.372 -0.8825  0.1034  1.0700
 5080TIP3    H236732   1.302   6.636  15.262 -0.1557 -1.7672 -0.6204
 5081TIP3   OH236733   0.390   1.604   4.788  0.0789  0.2617 -0.6103
 5081TIP3    H136734   0.431   1.665   4.727  0.6167 -1.0017 -1.5520
 5081TIP3    H236735   0.318   1.565   4.739 -1.8791  1.9023  0.7857
 5082TIP3   OH236736   5.358   6.261  12.183 -0.0013  0.3002 -0.1190
 5082TIP3    H136737   5.346   6.258  12.278  0.5750  1.4852  0.0040
 5082TIP3    H236738   5.282   6.214  12.148  0.5948 -1.5751  0.9593
 5083TIP3   OH236739   2.382   5.549  14.599 -0.0890 -0.3849 -0.2787
 5083TIP3    H136740   2.313   5.605  14.634  1.8008  0.3962  2.6314
 5083TIP3    H236741   2.454   5.610  14.579  1.1105 -1.4765  0.5489
 5084TIP3   OH236742   0.142   4.162   1.456  0.7385  0.1382  0.1852
 5084TIP3    H136743   0.105   4.086   1.502  0.2060  0.1601 -0.2003
 5084TIP3    H236744   0.066   4.213   1.430  0.8498 -1.0145 -2.7242
 5085TIP3   OH236745   1.454   2.941   3.331 -0.1976  0.0377 -0.1998
 5085TIP3    H136746   1.407   3.015   3.371  1.0493 -0.6800  2.8629
 5085TIP3    H236747   1.546   2.961   3.344  0.2203 -1.1707 -1.1296
 5086TIP3   OH236748   5.374   2.956   5.793 -0.4150  0.7201 -0.5756
 5086TIP3    H136749   5.310   2.936   5.724 -1.0460 -1.9329  0.6404
 5086TIP3    H236750   5.349   3.044   5.823 -0.5440  1.6838 -3.1742
 5087TIP3   OH236751   5.976   1.227  13.804 -0.2482 -0.1681  0.7151
 5087TIP3    H136752   5.995   1.197  13.893 -1.0708  0.1463  1.0048
 5087TIP3    H236753   5.881   1.242  13.803 -0.1164  0.7186  0.0593
 5088TIP3   OH236754   5.994   3.188   0.566 -0.8975 -0.1039  0.2798
 5088TIP3    H136755   6.045   3.194   0.647 -1.3025 -2.1351  0.7505
 5088TIP3    H236756   5.906   3.215   0.591 -0.9157 -0.2847  0.4142
 5089TIP3   OH236757   2.655   3.638  15.398 -0.0618 -0.7382 -0.3414
 5089TIP3    H136758   2.712   3.578  15.350  0.3470  0.5254 -1.4615
 5089TIP3    H236759   2.587   3.663  15.335 -1.0442 -1.0804  0.5392
 5090TIP3   OH236760   1.893   1.223   2.482 -0.1210  0.2813 -0.3263
 5090TIP3    H136761   1.970   1.197   2.432 -0.0348 -1.2730  0.5471
 5090TIP3    H236762   1.825   1.235   2.416  0.1685 -1.0817 -0.9175
 5091TIP3   OH236763   3.779   3.891  12.517  0.1567  0.6337  0.2509
 5091TIP3    H136764   3.762   3.889  12.611 -0.6999 -0.3347  0.1048
 5091TIP3    H236765   3.848   3.955  12.506 -1.1933  2.3659  1.2960
 5092TIP3   OH236766   3.428   5.037  11.200 -0.1143  0.7578  0.1188
 5092TIP3    H136767   3.431   5.133  11.196 -2.0418  0.8188 -0.9887
 5092TIP3    H236768   3.426   5.017  11.293 -2.4403  1.9836  0.4088
 5093TIP3   OH236769   0.636   3.007  14.741 -0.3661  0.3638  0.1227
 5093TIP3    H136770   0.672   2.962  14.817  0.8405  0.5151 -0.3312
 5093TIP3    H236771   0.651   3.100  14.757 -0.5886  0.4319 -0.0529
 5094TIP3   OH236772   0.402   1.089  13.292 -0.4223 -0.5788  0.5209
 5094TIP3    H136773   0.377   1.092  13.385  0.5263  1.7424  0.7828
 5094TIP3    H236774   0.386   1.178  13.260 -0.8095 -1.3540 -1.5950
 5095TIP3   OH236775   6.524   1.504   1.616 -0.0702  0.3026  0.0412
 5095TIP3    H136776   6.530   1.575   1.680  1.0851 -0.2172  0.5300
 5095TIP3    H236777   6.573   1.535   1.540  0.1395  0.1630  0.1204
 5096TIP3   OH236778   0.827   0.504  16.230  0.5366  0.2629 -0.6058
 5096TIP3    H136779   0.777   0.449  16.290  2.3819 -0.1255  0.6509
 5096TIP3    H236780   0.893   0.546  16.285 -1.2403  4.4801 -1.3184
 5097TIP3   OH236781   4.771   0.730   0.342 -0.1646  0.0146  0.2948
 5097TIP3    H136782   4.746   0.772   0.259  0.6855 -1.8042 -0.9513
 5097TIP3    H236783   4.735   0.642   0.335 -0.8578  0.0917  2.3085
 5098TIP3   OH236784   2.075   1.461  13.970 -0.2990 -0.4845 -0.1140
 5098TIP3    H136785   2.069   1.521  14.044 -1.5960 -1.0554  0.2726
 5098TIP3    H236786   2.016   1.499  13.904  1.6227  0.5826 -1.3118
 5099TIP3   OH236787   0.907   1.237  15.712  0.0865  0.2126 -0.4558
 5099TIP3    H136788   0.838   1.195  15.660 -0.1096 -1.6277  1.2037
 5099TIP3    H236789   0.874   1.235  15.802  2.1932 -0.5103  0.3523
 5100TIP3   OH236790   3.733   5.097   6.385  0.0182 -0.0784  0.6011
 5100TIP3    H136791   3.672   5.023   6.381 -0.6592  0.3648  2.0268
 5100TIP3    H236792   3.724   5.141   6.301 -0.0270 -1.2577 -0.0209
 5101TIP3   OH236793   6.586   2.713   0.456 -0.0766  0.7906 -0.1186
 5101TIP3    H136794   6.662   2.716   0.514  0.8240 -1.2815 -1.0971
 5101TIP3    H236795   6.537   2.792   0.477 -0.4029 -0.2684  4.2683
 5102TIP3   OH236796   4.785   4.382  16.408  0.0210  1.0325  0.0877
 5102TIP3    H136797   4.772   4.290  16.382  1.8021  0.8583 -0.3524
 5102TIP3    H236798   4.720   4.397  16.476 -1.2421 -0.1302 -0.7969
 5103TIP3   OH236799   2.977   0.499   0.491  0.0629 -0.0657 -0.1266
 5103TIP3    H136800   2.902   0.556   0.504 -0.5254 -0.6320 -0.9605
 5103TIP3    H236801   2.963   0.425   0.550  0.7432  0.5459  0.8331
 5104TIP3   OH236802   0.897   2.435  16.558 -0.8310 -0.1308 -0.0864
 5104TIP3    H136803   0.900   2.510  16.499  0.3599 -0.8882 -1.0317
 5104TIP3    H236804   0.955   2.459  16.631  1.6397 -1.0450 -1.6022
 5105TIP3   OH236805   1.205   6.782  11.921 -0.6975  0.5044 -0.2104
 5105TIP3    H136806   1.182   6.705  11.869 -0.5829  0.5828 -0.3784
 5105TIP3    H236807   1.218   6.852  11.857 -0.4521  0.5768 -0.0850
 5106TIP3   OH236808   3.902   1.279  15.039 -0.0342 -0.0348 -0.0106
 5106TIP3    H136809   3.909   1.363  14.994  0.6464  0.0010  0.1420
 5106TIP3    H236810   3.962   1.286  15.114  1.3654 -1.2516 -0.9586
 5107TIP3   OH236811   5.896   5.063  11.554 -0.0042 -0.6495  0.1740
 5107TIP3    H136812   5.921   4.988  11.500 -0.3108 -1.6572  1.3917
 5107TIP3    H236813   5.909   5.033  11.644 -3.5042 -0.4879  0.8427
 5108TIP3   OH236814   4.045   5.462   3.568  0.1535 -0.3923  0.4574
 5108TIP3    H136815   4.057   5.402   3.642  1.0658 -0.2298  0.4565
 5108TIP3    H236816   4.120   5.522   3.574  0.1635 -0.2964 -0.5232
 5109TIP3   OH236817   1.543   0.689   1.288  0.4754 -1.4855  0.2182
 5109TIP3    H136818   1.540   0.729   1.374 -0.1662 -0.1154 -0.4126
 5109TIP3    H236819   1.637   0.683   1.267  0.5993 -1.0125  0.6319
 5110TIP3   OH236820   2.866   1.218  13.133 -0.1689 -0.2908 -0.8767
 5110TIP3    H136821   2.798   1.161  13.167 -1.0456  0.1683 -1.8050
 5110TIP3    H236822   2.890   1.180  13.048 -0.5270  0.5048 -1.3522
 5111TIP3   OH236823   3.385   0.419  13.673 -0.1843  0.4706 -0.6175
 5111TIP3    H136824   3.467   0.373  13.654 -0.6727 -0.2558 -0.9634
 5111TIP3    H236825   3.316   0.358  13.649 -0.8392  1.0552 -0.2660
 5112TIP3   OH236826   2.206   0.836   5.615  0.3879 -0.1838 -0.0903
 5112TIP3    H136827   2.249   0.760   5.576 -0.8192 -0.9145 -0.0797
 5112TIP3    H236828   2.137   0.798   5.670 -1.2777  0.9370 -1.3090
 5113TIP3   OH236829   0.409   0.352   1.235  0.2513 -0.5018  0.0041
 5113TIP3    H136830   0.366   0.267   1.230  0.9123 -0.8775  0.5183
 5113TIP3    H236831   0.466   0.346   1.312 -0.0204  0.5596  0.3154
 5114TIP3   OH236832   0.274   3.804  15.959  0.1798 -0.4876 -0.7479
 5114TIP3    H136833   0.300   3.742  16.026 -0.2699 -0.2699 -0.3640
 5114TIP3    H236834   0.204   3.760  15.911 -0.4605 -0.1076 -0.1793
 5115TIP3   OH236835   5.958   2.362   4.045  0.4385  0.6735  0.1901
 5115TIP3    H136836   5.960   2.458   4.045  0.7306  0.7860 -3.4873
 5115TIP3    H236837   5.866   2.340   4.060  0.2610  1.5243  0.4248
 5116TIP3   OH236838   5.328   4.457   0.208  0.3251  0.5106  0.0910
 5116TIP3    H136839   5.244   4.430   0.172 -0.2946  2.8421 -0.3933
 5116TIP3    H236840   5.358   4.526   0.149  1.4126  1.3743  1.5883
 5117TIP3   OH236841   6.563   0.594  13.868  0.0351  0.4850  0.5219
 5117TIP3    H136842   6.521   0.670  13.830 -0.8752 -0.3466 -0.1594
 5117TIP3    H236843   6.657   0.608  13.852 -0.1582  1.2388  0.0114
 5118TIP3   OH236844   3.065   0.145  12.067 -0.2211  0.3371  0.0287
 5118TIP3    H136845   3.142   0.154  12.011  0.1525 -1.1099  0.2705
 5118TIP3    H236846   2.991   0.149  12.006  0.0723  0.9796 -0.2971
 5119TIP3   OH236847   5.847   6.414  15.826 -0.3166  0.2903  0.0355
 5119TIP3    H136848   5.847   6.508  15.847 -3.1643  0.5996 -0.8003
 5119TIP3    H236849   5.894   6.373  15.898  0.6987  2.3182  0.6180
 5120TIP3   OH236850   0.267   1.878  13.300 -0.3433  0.2893 -0.0411
 5120TIP3    H136851   0.283   1.957  13.248 -0.1353  1.7861  2.1490
 5120TIP3    H236852   0.354   1.851  13.329 -0.5425  0.1545  0.4420
 5121TIP3   OH236853   0.957   0.339   3.787 -0.2878  0.6136 -0.1312
 5121TIP3    H136854   0.911   0.264   3.749 -0.2558 -0.2054  1.3623
 5121TIP3    H236855   0.889   0.386   3.836 -0.4288  1.9078 -1.4846
 5122TIP3   OH236856   0.422   5.621  13.304 -0.0006  0.6717  0.0970
 5122TIP3    H136857   0.420   5.631  13.209  0.1004 -0.7113 -0.0601
 5122TIP3    H236858   0.379   5.538  13.322 -0.3236  1.0673  1.2986
 5123TIP3   OH236859   0.711   2.829  11.313 -0.3403  0.3462 -0.0711
 5123TIP3    H136860   0.636   2.861  11.262 -1.1335 -0.3806  0.6070
 5123TIP3    H236861   0.680   2.826  11.403  0.7825  0.8026  0.3502
 5124TIP3   OH236862   1.775   2.076  15.117  0.3600  0.2518  0.6769
 5124TIP3    H136863   1.755   2.002  15.060 -0.4897  0.1755  1.0663
 5124TIP3    H236864   1.803   2.037  15.200 -0.0081  0.3683  0.8555
 5125TIP3   OH236865   4.473   0.463  13.263  0.9764  1.0620  0.1482
 5125TIP3    H136866   4.521   0.385  13.238 -3.1152 -1.0460 -2.2648
 5125TIP3    H236867   4.465   0.458  13.358 -0.9302 -2.8593 -0.0241
 5126TIP3   OH236868   4.518   6.014   2.274 -0.3626  0.0015 -0.0993
 5126TIP3    H136869   4.600   5.981   2.237 -0.5884 -0.5800 -0.0865
 5126TIP3    H236870   4.512   5.974   2.360 -1.8990 -2.0363 -1.0695
 5127TIP3   OH236871   0.003   2.152  14.966 -0.2831 -0.3380 -0.6466
 5127TIP3    H136872  -0.077   2.104  14.987 -0.0647 -0.4297  0.0014
 5127TIP3    H236873  -0.026   2.228  14.916 -0.7752 -0.4009 -0.4566
 5128TIP3   OH236874   2.866   3.913   3.131  0.0823  0.4593  0.4627
 5128TIP3    H136875   2.821   3.871   3.204  0.8613 -1.2930 -0.0006
 5128TIP3    H236876   2.805   3.980   3.100 -1.8136 -1.1831  0.4671
 5129TIP3   OH236877   6.826   6.122  11.487 -0.2972  0.4008  0.5176
 5129TIP3    H136878   6.791   6.062  11.422 -1.5588  0.4108  1.1638
 5129TIP3    H236879   6.876   6.067  11.546  0.7211  0.3692 -0.3371
 5130TIP3   OH236880   5.407   1.446  12.570  0.4325 -0.5358 -0.2345
 5130TIP3    H136881   5.422   1.505  12.496  2.5075  1.1057  1.3759
 5130TIP3    H236882   5.408   1.359  12.531  1.4296  0.2776 -2.1615
 5131TIP3   OH236883   2.693   0.215   4.067  0.7013  0.1754 -0.0677
 5131TIP3    H136884   2.786   0.235   4.078  0.8184 -0.5242  0.2968
 5131TIP3    H236885   2.647   0.283   4.115  1.0438  0.2447  0.1605
 5132TIP3   OH236886   1.897   6.315  15.988  0.5330 -0.0437 -0.3792
 5132TIP3    H136887   1.842   6.242  15.959  0.5323  0.7591 -2.5452
 5132TIP3    H236888   1.986   6.291  15.962  1.0885 -0.7278  1.9152
 5133TIP3   OH236889   4.409   2.128  11.919  0.4150 -0.1893  0.3502
 5133TIP3    H136890   4.449   2.041  11.923  1.0610  0.0441 -0.6795
 5133TIP3    H236891   4.326   2.114  11.873  0.3755 -0.2994  0.4508
 5134TIP3   OH236892   6.671   3.782   1.534  0.4616  0.3643 -0.4459
 5134TIP3    H136893   6.610   3.827   1.476  0.2916  0.6218 -0.0732
 5134TIP3    H236894   6.629   3.698   1.554  1.0088 -0.1822 -1.5451
 5135TIP3   OH236895   2.036   3.016  15.120  0.8382  0.5720  0.2505
 5135TIP3    H136896   2.050   3.110  15.130  1.5720  0.5085 -0.1284
 5135TIP3    H236897   1.952   3.008  15.075  0.8072  1.0425  0.2252
 5136TIP3   OH236898   3.427   5.245   1.019 -0.0319  0.0380  0.7185
 5136TIP3    H136899   3.379   5.239   0.937  0.3835  0.2352  0.4580
 5136TIP3    H236900   3.414   5.335   1.049 -0.1815 -0.0333  0.8652
 5137TIP3   OH236901   1.023   4.180   3.966 -0.3348  0.2479  0.1949
 5137TIP3    H136902   1.019   4.102   4.022  1.6797 -1.9266 -2.4084
 5137TIP3    H236903   0.938   4.184   3.923 -1.1641  0.7473  1.7998
 5138TIP3   OH236904   3.461   0.343  11.290  0.7608 -0.1953 -0.5018
 5138TIP3    H136905   3.487   0.407  11.357  1.0772 -2.2977  1.5071
 5138TIP3    H236906   3.539   0.332  11.236  2.1059 -1.6467  1.5361
 5139TIP3   OH236907   0.917   1.882   5.397  0.6984 -0.2206  0.2769
 5139TIP3    H136908   0.874   1.817   5.453 -0.5937 -0.6755 -1.1900
 5139TIP3    H236909   0.970   1.934   5.458 -1.0128 -0.3813  2.0110
 5140TIP3   OH236910   3.149   4.248  13.292 -0.0844 -0.5240  0.3822
 5140TIP3    H136911   3.060   4.283  13.294 -0.2907 -1.0112  0.0084
 5140TIP3    H236912   3.137   4.153  13.297  0.2907 -0.7353 -1.7961
 5141TIP3   OH236913   5.743   3.349  12.389 -0.1916  0.1833  0.3697
 5141TIP3    H136914   5.734   3.255  12.408  1.5178 -0.6861 -2.4229
 5141TIP3    H236915   5.662   3.388  12.421 -1.8778 -2.5963 -0.1383
 5142TIP3   OH236916   4.404   5.285  14.839  0.2114  0.1475  0.3458
 5142TIP3    H136917   4.422   5.287  14.932  0.5424 -1.5584  0.3401
 5142TIP3    H236918   4.401   5.192  14.816  1.6600  0.5140 -1.6317
 5143TIP3   OH236919   3.974   4.419  11.643 -0.4794  0.3657  0.3830
 5143TIP3    H136920   3.987   4.443  11.735 -0.1671  1.3703  0.0960
 5143TIP3    H236921   4.052   4.369  11.620  0.1885  1.4251  0.2605
 5144TIP3   OH236922   6.793   6.555  13.610  0.2596  0.4929 -0.2572
 5144TIP3    H136923   6.754   6.517  13.532 -1.5881 -0.6330  1.1308
 5144TIP3    H236924   6.879   6.513  13.616  0.2210  0.2257 -1.4001
 5145TIP3   OH236925   2.942   0.378  15.950  0.0950 -0.2856  0.3338
 5145TIP3    H136926   2.898   0.463  15.953  0.2895 -0.2039  1.1380
 5145TIP3    H236927   2.932   0.343  16.038  2.2950  0.0779  0.8060
 5146TIP3   OH236928   6.257   1.516   4.224 -0.1381 -0.0136  0.1066
 5146TIP3    H136929   6.332   1.520   4.284  0.5002  1.1038 -0.7293
 5146TIP3    H236930   6.211   1.599   4.237 -0.4310 -0.0945 -0.4007
 5147TIP3   OH236931   1.517   6.632   3.615  0.5491 -0.1974  0.5011
 5147TIP3    H136932   1.529   6.576   3.538  0.9024  0.0691  0.3602
 5147TIP3    H236933   1.474   6.711   3.581 -1.8783 -1.1974  1.0167
 5148TIP3   OH236934   5.462   2.183  11.095  0.6294 -0.3807 -0.0304
 5148TIP3    H136935   5.376   2.143  11.112  0.5275 -0.0292  0.3077
 5148TIP3    H236936   5.467   2.191  11.000 -0.3184  0.8895  0.0026
 5149TIP3   OH236937   5.082   4.071   5.490 -0.5769  0.1066 -0.0464
 5149TIP3    H136938   5.125   3.994   5.529  1.5540  0.3444 -1.7198
 5149TIP3    H236939   5.036   4.112   5.563  0.4953 -1.2552  1.4780
 5150TIP3   OH236940   2.887   1.955  12.992 -0.2164  0.0750  0.4107
 5150TIP3    H136941   2.899   2.042  12.955  0.6645 -0.2817 -0.1737
 5150TIP3    H236942   2.803   1.960  13.038  0.1507  1.4321  0.9888
 5151TIP3   OH236943   1.659   4.575  17.192 -0.3919 -0.1719  0.0154
 5151TIP3    H136944   1.715   4.549  17.119 -0.2194 -0.4269  0.2365
 5151TIP3    H236945   1.620   4.658  17.164 -1.6023 -1.0535 -1.0773
 5152TIP3   OH236946   1.509   1.957   6.435  0.4284 -0.4149  0.4260
 5152TIP3    H136947   1.592   1.911   6.449  0.3519 -1.0701 -1.0638
 5152TIP3    H236948   1.448   1.913   6.495  0.6655 -1.3988 -0.0229
 5153TIP3   OH236949   1.793   5.792  13.121  0.3684 -0.1357 -0.6034
 5153TIP3    H136950   1.848   5.749  13.056 -1.1437 -0.6789 -1.5800
 5153TIP3    H236951   1.720   5.827  13.071 -0.3862  0.2030  0.6932
 5154TIP3   OH236952   3.217   1.728  15.508  0.2048 -0.1865  0.4184
 5154TIP3    H136953   3.199   1.650  15.560  0.0436  0.3613  1.1954
 5154TIP3    H236954   3.185   1.706  15.420 -0.0330 -0.9109  0.6778
 5155TIP3   OH236955   5.797   6.646  11.094 -0.7257 -0.1128  0.3530
 5155TIP3    H136956   5.831   6.560  11.070 -0.4870 -0.2795  1.2223
 5155TIP3    H236957   5.819   6.702  11.020  1.5343 -0.2085  0.8868
 5156TIP3   OH236958   0.035   1.388  11.647  0.1788  0.6371 -0.0831
 5156TIP3    H136959   0.068   1.398  11.557  0.1775  0.5791 -0.0900
 5156TIP3    H236960  -0.026   1.315  11.642 -0.0340  0.8147 -0.0947
 5157TIP3   OH236961   0.008   1.435   2.353 -0.2014  0.2413  0.8449
 5157TIP3    H136962   0.081   1.488   2.385  1.8592 -0.1690 -2.7318
 5157TIP3    H236963  -0.028   1.484   2.280 -1.7574 -0.8663  0.8072
 5158TIP3   OH236964   0.482   6.181   2.675  0.4184 -0.0245  0.1149
 5158TIP3    H136965   0.505   6.259   2.725  0.8148  1.3382 -2.0651
 5158TIP3    H236966   0.396   6.201   2.638  0.4826 -0.6688 -0.3996
 5159TIP3   OH236967   0.417   1.885  13.034  0.3360 -0.0988  0.0907
 5159TIP3    H136968   0.512   1.883  13.033  0.3341 -0.1791 -0.0291
 5159TIP3    H236969   0.394   1.964  13.082  0.4614  0.9239 -1.4670
 5160TIP3   OH236970   1.367   2.624   2.167 -0.3250  0.3521  0.0874
 5160TIP3    H136971   1.384   2.647   2.258  1.8491 -2.5343  0.5668
 5160TIP3    H236972   1.282   2.579   2.169  0.1551 -0.5624  0.9179
 5161TIP3   OH236973   1.509   4.303  13.681  0.0039 -0.3163  0.0538
 5161TIP3    H136974   1.520   4.219  13.637  1.3422 -0.0004 -0.2736
 5161TIP3    H236975   1.444   4.350  13.629 -0.7912 -1.1505  0.2726
 5162TIP3   OH236976   0.877   1.466   0.894  0.0425  0.1194 -0.4355
 5162TIP3    H136977   0.807   1.430   0.840 -0.5103  0.2032  0.2033
 5162TIP3    H236978   0.839   1.546   0.931  0.7208  0.5354 -0.6283
 5163TIP3   OH236979   1.317   5.303   3.173  0.0066  0.8293 -0.1971
 5163TIP3    H136980   1.232   5.345   3.158  0.0765  0.6457 -1.2261
 5163TIP3    H236981   1.298   5.230   3.233 -1.0566 -0.7485 -2.3034
 5164TIP3   OH236982   0.103   2.436   1.625 -0.0263 -0.1502 -0.4889
 5164TIP3    H136983   0.072   2.419   1.536 -2.3235  0.0865  0.2004
 5164TIP3    H236984   0.076   2.359   1.675  3.8754 -1.7169 -0.4685
 5165TIP3   OH236985   4.363   6.741   5.347 -0.6776 -0.0990  0.1082
 5165TIP3    H136986   4.440   6.766   5.397 -0.5491 -1.0871  0.4285
 5165TIP3    H236987   4.362   6.800   5.272  1.5274 -1.3388 -0.9807
 5166TIP3   OH236988   6.259   1.381   6.416 -0.1897  0.3106  0.3036
 5166TIP3    H136989   6.341   1.339   6.444  1.4792  1.9459 -1.7600
 5166TIP3    H236990   6.266   1.471   6.448 -0.0300  1.1164 -1.8360
 5167TIP3   OH236991   0.932   5.398   3.221  0.4873  0.3631 -0.4118
 5167TIP3    H136992   0.973   5.483   3.203  0.3478  0.2928 -1.0636
 5167TIP3    H236993   0.842   5.420   3.245 -0.0713  0.2913 -2.3363
 5168TIP3   OH236994   4.237   4.855  13.219  0.4519  0.1132 -0.2881
 5168TIP3    H136995   4.229   4.766  13.254  0.6856 -0.6365 -2.0507
 5168TIP3    H236996   4.285   4.844  13.137  0.2236  1.8430 -0.6826
 5169TIP3   OH236997   4.224   5.851   3.909  0.4638 -0.0291  0.4450
 5169TIP3    H136998   4.300   5.837   3.966  3.0346  0.2391 -2.5926
 5169TIP3    H236999   4.199   5.942   3.925  2.3221  0.6181 -0.0626
 5170TIP3   OH237000   6.738   2.108   3.564  0.0909  0.2081 -0.3465
 5170TIP3    H137001   6.712   2.026   3.605  0.4880 -0.5567 -1.5876
 5170TIP3    H237002   6.807   2.142   3.622 -1.5577  0.8136  1.3680
 5171TIP3   OH237003   0.396   5.936  11.811 -0.6647  0.2106  0.1253
 5171TIP3    H137004   0.369   5.900  11.895  0.9626 -2.7342 -0.5007
 5171TIP3    H237005   0.488   5.959  11.823 -0.0714 -1.3555 -1.1215
 5172TIP3   OH237006   0.516   1.314  10.385  0.2180  0.0192  0.6556
 5172TIP3    H137007   0.490   1.324  10.293  1.6746 -0.2648  0.1945
 5172TIP3    H237008   0.522   1.403  10.418  1.3137  0.2201 -0.0203
 5173TIP3   OH237009   3.101   2.024   6.366  0.2867 -0.0394  0.3871
 5173TIP3    H137010   3.124   1.942   6.411  1.5778 -1.1484 -2.0970
 5173TIP3    H237011   3.015   2.006   6.326  1.0303 -0.6445 -1.0285
 5174TIP3   OH237012   3.456   3.591  13.742 -0.0489  0.0798 -0.1121
 5174TIP3    H137013   3.508   3.671  13.733  0.5664 -0.4694 -2.0458
 5174TIP3    H237014   3.454   3.554  13.654 -0.9280 -1.6742  0.5913
 5175TIP3   OH237015   2.593   2.641  17.125  0.2948  0.3111  0.4389
 5175TIP3    H137016   2.605   2.726  17.083 -1.7906  0.7587  0.6388
 5175TIP3    H237017   2.606   2.659  17.218  0.7803  0.1952  0.3971
 5176TIP3   OH237018   5.591   0.271   2.371 -0.0604  0.1788 -0.1193
 5176TIP3    H137019   5.572   0.298   2.281  1.1326  0.0545 -0.4272
 5176TIP3    H237020   5.515   0.219   2.397 -0.0295 -0.5677 -1.3976
 5177TIP3   OH237021   2.865   5.640   0.385  0.0141 -0.5815  0.0312
 5177TIP3    H137022   2.800   5.710   0.378  1.7159  1.1101  0.2120
 5177TIP3    H237023   2.833   5.584   0.456 -1.0942  0.3496  0.2956
 5178TIP3   OH237024   2.116   4.064   1.013  0.4478 -0.2870 -0.2892
 5178TIP3    H137025   2.024   4.037   1.016  0.8376 -1.7213 -0.5637
 5178TIP3    H237026   2.136   4.088   1.104  0.2510 -1.5999  0.1291
 5179TIP3   OH237027   3.805   1.214  15.915  0.0870 -0.0013  0.1535
 5179TIP3    H137028   3.736   1.181  15.973  0.8670  0.1816  1.2197
 5179TIP3    H237029   3.773   1.196  15.827 -1.0426 -0.4791  0.6436
 5180TIP3   OH237030   3.831   2.715  15.902  0.8302 -0.7103  0.2731
 5180TIP3    H137031   3.844   2.624  15.876 -1.6392 -0.6160 -1.6192
 5180TIP3    H237032   3.787   2.709  15.987  0.1546 -1.3453 -0.1026
 5181TIP3   OH237033   0.248   1.533  13.334 -0.0653 -0.1527 -0.0291
 5181TIP3    H137034   0.303   1.565  13.262 -2.4355 -0.6081 -2.1779
 5181TIP3    H237035   0.247   1.606  13.396 -0.2294  1.4759 -1.8282
 5182TIP3   OH237036   0.131   3.790   3.407 -0.4996 -0.1771  0.1913
 5182TIP3    H137037   0.084   3.871   3.426 -0.7247 -0.4514  0.8200
 5182TIP3    H237038   0.197   3.783   3.475  0.0168 -0.1453 -0.2972
 5183TIP3   OH237039   1.359   3.699  14.479 -0.4971 -0.1152 -0.3945
 5183TIP3    H137040   1.281   3.645  14.486  0.1478 -1.3228 -1.9505
 5183TIP3    H237041   1.426   3.640  14.445  1.1936  0.8060  1.1878
 5184TIP3   OH237042   5.632   6.226  11.486  0.1495  0.3322  0.2712
 5184TIP3    H137043   5.662   6.301  11.435 -1.9085  1.3493  0.4500
 5184TIP3    H237044   5.627   6.259  11.576  0.5117 -0.4280  0.5780
 5185TIP3   OH237045   2.471   2.035  16.295  0.4265  0.1501  0.1582
 5185TIP3    H137046   2.466   2.120  16.251 -1.0196 -0.3262 -0.6980
 5185TIP3    H237047   2.553   1.997  16.265 -0.0431  0.2767 -1.3961
 5186TIP3   OH237048   1.267   3.035   4.061 -0.6062  0.0302 -0.6214
 5186TIP3    H137049   1.275   2.939   4.054  1.2163  0.1292 -0.3456
 5186TIP3    H237050   1.346   3.062   4.108 -1.2335  1.6586 -0.4541
 5187TIP3   OH237051   6.450   4.754  17.091  0.0291 -0.2725  0.2924
 5187TIP3    H137052   6.506   4.689  17.049  0.3472 -0.3260  0.7935
 5187TIP3    H237053   6.495   4.777  17.172 -2.0322 -2.5093  2.2410
 5188TIP3   OH237054   0.742   5.328  15.149 -0.3055 -0.1258 -0.2575
 5188TIP3    H137055   0.678   5.338  15.079 -0.4007 -0.3167 -0.1988
 5188TIP3    H237056   0.765   5.235  15.148  0.0211 -0.0477 -0.3238
 5189TIP3   OH237057   3.494   4.067   1.957  0.6157  0.4145 -0.2401
 5189TIP3    H137058   3.523   4.061   1.866  2.1656 -0.3025  0.2556
 5189TIP3    H237059   3.575   4.072   2.008 -0.1777 -0.2763  1.1719
 5190TIP3   OH237060   0.047   5.126   2.664  0.3563  0.1296 -0.2074
 5190TIP3    H137061  -0.012   5.152   2.735  1.9732  3.1475  0.1799
 5190TIP3    H237062  -0.009   5.075   2.605 -1.5955 -0.5481  2.0628
 5191TIP3   OH237063   0.567   3.308   3.292 -0.8297  0.1524  0.5655
 5191TIP3    H137064   0.577   3.215   3.313 -0.2070  0.0907  0.0110
 5191TIP3    H237065   0.606   3.318   3.205 -0.0317  1.1112  1.0097
 5192TIP3   OH237066   5.179   0.488   5.035 -0.2484  0.1921 -0.2867
 5192TIP3    H137067   5.225   0.455   4.959  0.8627 -2.1161  1.2725
 5192TIP3    H237068   5.229   0.565   5.062  0.0502  0.3159 -1.1844
 5193TIP3   OH237069   1.862   3.449   2.825  0.1949 -0.3968  0.1325
 5193TIP3    H137070   1.809   3.370   2.814  1.6312 -1.3302 -0.5816
 5193TIP3    H237071   1.898   3.465   2.737  1.7507 -0.3243  0.7529
 5194TIP3   OH237072   4.293   5.241   3.617  0.0673  0.0704  0.1752
 5194TIP3    H137073   4.321   5.151   3.602 -0.7065 -0.1246 -0.1067
 5194TIP3    H237074   4.374   5.287   3.641  0.7091 -0.4004 -0.9998
 5195TIP3   OH237075   0.220   4.377   5.143  0.1215  0.2151  0.1739
 5195TIP3    H137076   0.212   4.458   5.093 -0.1097 -0.3996 -0.8100
 5195TIP3    H237077   0.263   4.316   5.083  1.3793 -0.0543  1.3008
 5196TIP3   OH237078   5.327   3.626  12.611 -0.0370  0.0383  0.2199
 5196TIP3    H137079   5.273   3.639  12.532  0.9816 -0.2294 -0.5410
 5196TIP3    H237080   5.321   3.709  12.658 -1.5872 -0.1771  0.4744
 5197TIP3   OH237081   0.184   6.187   0.200 -0.2909 -0.7188 -0.1702
 5197TIP3    H137082   0.276   6.209   0.213 -0.2413  0.1998 -1.7402
 5197TIP3    H237083   0.185   6.098   0.163  0.1595  0.0295 -2.0949
 5198TIP3   OH237084   2.105   0.328   4.265  0.2419 -0.6931 -0.2497
 5198TIP3    H137085   2.082   0.367   4.349  1.7087  0.0434 -0.1560
 5198TIP3    H237086   2.050   0.373   4.201 -0.7760 -1.1561  0.2922
 5199TIP3   OH237087   6.605   2.011   0.215  0.4802 -0.2103 -0.2623
 5199TIP3    H137088   6.532   2.073   0.216  0.5094 -0.1753 -0.2752
 5199TIP3    H237089   6.666   2.047   0.150  0.0184 -0.8124 -1.0371
 5200TIP3   OH237090   5.915   6.485   2.072  0.0341 -0.4743  0.0685
 5200TIP3    H137091   5.941   6.475   1.980 -1.9677 -0.3805 -0.5767
 5200TIP3    H237092   5.890   6.397   2.100 -1.6870 -0.1455 -0.3020
 5201TIP3   OH237093   3.562   6.792  14.374 -0.1734  0.0219  0.7265
 5201TIP3    H137094   3.544   6.700  14.391 -0.0160 -0.2623 -0.5600
 5201TIP3    H237095   3.584   6.828  14.460 -0.4663 -1.0799  1.2826
 5202TIP3   OH237096   5.647   0.794   0.790 -0.6299  0.2713 -0.0425
 5202TIP3    H137097   5.737   0.824   0.804 -0.5076  0.7485 -1.7270
 5202TIP3    H237098   5.634   0.726   0.856 -0.1889  2.4897  2.5060
 5203TIP3   OH237099   2.344   0.485   2.956  0.1050  0.7308  0.1959
 5203TIP3    H137100   2.419   0.432   2.929  0.1988  0.8748  0.1782
 5203TIP3    H237101   2.331   0.548   2.885 -1.4593 -0.7553 -0.9196
 5204TIP3   OH237102   5.545   3.462  12.060 -0.3602  0.0075 -0.2600
 5204TIP3    H137103   5.599   3.541  12.057  1.6761 -1.3330 -1.2049
 5204TIP3    H237104   5.527   3.441  11.969 -2.3749  0.2966  0.0329
 5205TIP3   OH237105   6.307   6.370   5.606 -0.1293 -0.3883 -0.2279
 5205TIP3    H137106   6.237   6.428   5.574 -0.9058 -0.8085  0.6724
 5205TIP3    H237107   6.275   6.337   5.690  1.6931  0.3546  0.8111
 5206TIP3   OH237108   2.417   1.798   2.987  0.6210 -0.5063 -0.6287
 5206TIP3    H137109   2.367   1.753   3.055  1.1074  0.5983  0.4995
 5206TIP3    H237110   2.507   1.766   2.998  0.5784 -0.8436 -1.2164
 5207TIP3   OH237111   5.500   3.015  15.778  0.0451 -0.0264  0.4051
 5207TIP3    H137112   5.580   2.996  15.827 -0.7173 -2.0075  0.9960
 5207TIP3    H237113   5.502   3.109  15.763  1.9855  0.1089  1.2662
 5208TIP3   OH237114   0.440   1.825  14.962  0.4959  0.0083  0.3529
 5208TIP3    H137115   0.388   1.756  15.004  1.8772 -0.0630  2.0849
 5208TIP3    H237116   0.514   1.778  14.924  0.8342  0.3965  0.5227
 5209TIP3   OH237117   4.629   4.954   0.416  0.2467 -0.1439  0.4386
 5209TIP3    H137118   4.688   4.938   0.343  1.4286  3.1095  0.5248
 5209TIP3    H237119   4.655   5.040   0.450 -2.5346  0.0415  2.4745
 5210TIP3   OH237120   6.141   2.068   3.050  0.2269  0.6256 -0.4604
 5210TIP3    H137121   6.191   1.989   3.032 -2.4949 -1.2871 -0.2069
 5210TIP3    H237122   6.174   2.098   3.135 -0.0301 -1.4360  0.4322
 5211TIP3   OH237123   5.604   4.068  14.992  0.4135 -0.1141  0.0428
 5211TIP3    H137124   5.573   4.134  14.930  2.4559  2.0866  1.1867
 5211TIP3    H237125   5.622   3.991  14.939  0.4332  1.1174 -1.7981
 5212TIP3   OH237126   6.360   2.523   1.473  0.3250  0.4638 -0.1481
 5212TIP3    H137127   6.431   2.577   1.509 -1.8865  2.9508  0.8364
 5212TIP3    H237128   6.359   2.445   1.529  2.7289 -0.0308 -0.6960
 5213TIP3   OH237129   6.079   4.967   4.666  0.3305 -0.4762  0.3664
 5213TIP3    H137130   6.134   5.038   4.632 -1.6301  0.4138 -1.1684
 5213TIP3    H237131   6.033   4.934   4.590  0.7918 -3.1107  1.1470
 5214TIP3   OH237132   2.326   5.344  12.511  0.1738  0.5729 -0.0071
 5214TIP3    H137133   2.286   5.259  12.526  0.2777  0.2220 -1.5396
 5214TIP3    H237134   2.306   5.394  12.590 -0.3349 -0.6922  0.6993
 5215TIP3   OH237135   5.714   6.486  16.698  0.6386 -0.0782 -0.6950
 5215TIP3    H137136   5.707   6.461  16.606  1.1382  0.9428 -1.0307
 5215TIP3    H237137   5.782   6.554  16.699 -0.3932  0.9831  0.2057
 5216TIP3   OH237138   2.162   5.155  11.647  0.2906 -0.1687  0.2340
 5216TIP3    H137139   2.103   5.210  11.699  0.0057 -0.4063  0.1674
 5216TIP3    H237140   2.106   5.122  11.576  0.9653  1.1619 -0.9708
 5217TIP3   OH237141   2.687   4.414  12.851  0.0845  0.1227  0.7049
 5217TIP3    H137142   2.778   4.428  12.877  0.3732  0.1204 -0.2749
 5217TIP3    H237143   2.641   4.400  12.934  0.6482  1.8763  1.3833
 5218TIP3   OH237144   1.260   2.168  15.706 -0.0024  0.3556  0.4441
 5218TIP3    H137145   1.197   2.180  15.635 -1.3986  0.8528  1.6936
 5218TIP3    H237146   1.285   2.257  15.731  1.0769  0.1653  0.0872
 5219TIP3   OH237147   4.506   3.555   5.061 -0.4029 -0.0313 -0.3407
 5219TIP3    H137148   4.540   3.644   5.060 -3.0592  1.1701 -3.5516
 5219TIP3    H237149   4.574   3.503   5.017  0.2854  0.8129 -0.2917
 5220TIP3   OH237150   4.255   0.190   4.417 -0.9245 -0.2669  0.2970
 5220TIP3    H137151   4.317   0.237   4.473 -1.4950 -0.8922  1.4818
 5220TIP3    H237152   4.171   0.231   4.435 -1.0484 -0.2114 -0.4071
 5221TIP3   OH237153   1.506   5.132  11.579  0.0255  0.1049  0.2244
 5221TIP3    H137154   1.534   5.210  11.627 -0.3912  0.5157 -0.1829
 5221TIP3    H237155   1.412   5.126  11.594  0.3346 -1.4142  1.7899
 5222TIP3   OH237156   4.278   0.245  15.989  0.3378 -0.3421 -0.5778
 5222TIP3    H137157   4.196   0.244  15.940  1.6406 -0.8559 -2.8979
 5222TIP3    H237158   4.260   0.301  16.065 -1.9273  0.1121 -1.3701
 5223TIP3   OH237159   3.815   0.494  16.317 -0.2700 -0.1772 -0.1671
 5223TIP3    H137160   3.846   0.499  16.227  1.1619 -1.6929  0.1955
 5223TIP3    H237161   3.888   0.524  16.370 -1.2173  1.0355  0.5039
 5224TIP3   OH237162   3.109   2.969   6.269  0.7530 -0.0418  0.3262
 5224TIP3    H137163   3.149   2.883   6.289 -1.2357 -1.0405  0.2077
 5224TIP3    H237164   3.071   2.997   6.352 -2.5188 -1.4845 -0.5255
 5225TIP3   OH237165   5.505   6.133  16.570  0.0575  0.3994  0.4308
 5225TIP3    H137166   5.439   6.189  16.610  0.7776  1.0415  0.7583
 5225TIP3    H237167   5.581   6.140  16.628 -0.1442 -1.7265  1.0442
 5226TIP3   OH237168   1.678   4.549   6.024 -0.0170  0.1647 -0.8578
 5226TIP3    H137169   1.691   4.628   6.077  0.5164 -0.5619  0.1389
 5226TIP3    H237170   1.764   4.531   5.986  0.3301 -0.9107  0.3585
 5227TIP3   OH237171   0.735   1.203  13.447  0.6519  0.2440  0.1149
 5227TIP3    H137172   0.760   1.201  13.540  1.0341  3.3973  0.1663
 5227TIP3    H237173   0.790   1.136  13.407  1.4556 -0.2702  1.9386
 5228TIP3   OH237174   2.760   1.345  16.458 -0.2061  0.2303  0.0060
 5228TIP3    H137175   2.713   1.297  16.389  0.2456  2.0503 -1.6827
 5228TIP3    H237176   2.691   1.381  16.513 -0.5816 -1.2689  0.5528
 5229TIP3   OH237177   0.446   6.427  11.865 -0.4156  0.2186  0.4782
 5229TIP3    H137178   0.515   6.493  11.858  0.0013 -0.1909  0.7283
 5229TIP3    H237179   0.484   6.358  11.919 -0.4018 -0.8107 -0.8124
 5230TIP3   OH237180   3.129   5.039  17.099  0.3453 -0.1147 -0.9367
 5230TIP3    H137181   3.214   5.034  17.141 -0.0209  1.0787  0.0267
 5230TIP3    H237182   3.136   4.983  17.022  2.6508  1.4382 -1.9806
 5231TIP3   OH237183   0.003   3.614   1.155  1.0046 -0.0443  0.7283
 5231TIP3    H137184   0.008   3.519   1.148  0.5583 -0.0279  0.1313
 5231TIP3    H237185   0.093   3.642   1.171  1.2521 -0.5072  0.1367
 5232TIP3   OH237186   4.564   3.349  12.547 -0.3742 -0.1747 -0.2231
 5232TIP3    H137187   4.634   3.294  12.512  0.5151  1.5864 -1.3394
 5232TIP3    H237188   4.495   3.346  12.480  1.2162  2.9727 -2.2570
 5233TIP3   OH237189   3.271   3.933  14.843 -0.1048 -0.1414  0.0860
 5233TIP3    H137190   3.356   3.966  14.811 -0.9184  0.9136 -1.0807
 5233TIP3    H237191   3.292   3.850  14.886  1.5974  0.3716  0.3375
 5234TIP3   OH237192   6.642   4.416   4.313 -0.2279 -0.1081  0.1176
 5234TIP3    H137193   6.675   4.463   4.390 -2.7968  0.5798  0.9009
 5234TIP3    H237194   6.678   4.328   4.322 -1.1814 -0.3226  2.6640
 5235TIP3   OH237195   3.528   2.617  11.948  0.0181  0.0787  0.3339
 5235TIP3    H137196   3.531   2.710  11.927 -0.9757  0.1065  0.2515
 5235TIP3    H237197   3.585   2.575  11.884  0.1612  0.5892  0.1275
 5236TIP3   OH237198   5.523   1.251   3.366 -0.1768  0.8725 -0.1683
 5236TIP3    H137199   5.467   1.183   3.328  1.6127  0.0679 -1.5573
 5236TIP3    H237200   5.526   1.231   3.459 -2.5601  1.2715  0.0460
 5237TIP3   OH237201   5.377   1.585  14.740  0.0517 -0.1155  1.0176
 5237TIP3    H137202   5.282   1.576  14.749  0.2146 -1.1967  1.8422
 5237TIP3    H237203   5.389   1.658  14.679 -1.2914  1.6891  2.7678
 5238TIP3   OH237204   5.340   0.905  13.842  0.2913  0.1082 -0.7478
 5238TIP3    H137205   5.290   0.867  13.770  0.9987 -0.6373 -0.8592
 5238TIP3    H237206   5.308   0.860  13.920  0.9503 -0.5740 -0.8511
 5239TIP3   OH237207   5.946   5.500  16.790 -0.7271 -0.1473 -0.0764
 5239TIP3    H137208   5.927   5.416  16.832 -0.7841  0.8629  2.0533
 5239TIP3    H237209   5.863   5.547  16.794 -0.4386  0.3861 -0.3142
 5240TIP3   OH237210   3.125   1.782   5.801 -0.1522  0.1104 -0.1387
 5240TIP3    H137211   3.189   1.846   5.772 -0.2427  0.2487 -0.0372
 5240TIP3    H237212   3.041   1.814   5.766 -0.0726 -0.4176 -0.8214
 5241TIP3   OH237213   4.641   6.494  16.471  0.1449  0.1688  0.3832
 5241TIP3    H137214   4.595   6.444  16.404  0.3501 -0.9424  1.0468
 5241TIP3    H237215   4.586   6.571  16.485 -0.0135  0.3075 -0.8861
 5242TIP3   OH237216   6.428   1.195   3.093 -0.6027 -0.0100  0.4500
 5242TIP3    H137217   6.502   1.148   3.130 -1.4542 -1.4545  0.3773
 5242TIP3    H237218   6.467   1.256   3.030  0.4395 -1.5523 -0.4368
 5243TIP3   OH237219   2.639   4.022   0.395 -0.3443  0.5573 -0.4775
 5243TIP3    H137220   2.682   3.944   0.361 -1.5468 -1.0835  1.5638
 5243TIP3    H237221   2.546   3.999   0.399 -0.5676  1.6121  1.3817
 5244TIP3   OH237222   4.504   4.679  16.242 -0.3727  0.1207  0.2544
 5244TIP3    H137223   4.510   4.730  16.323 -2.7551 -0.0378  0.6325
 5244TIP3    H237224   4.458   4.599  16.268  0.8304 -0.9695 -0.8605
 5245TIP3   OH237225   1.653   3.285   1.007  0.0602  0.3136 -0.5331
 5245TIP3    H137226   1.698   3.247   1.082 -0.1834 -1.0886 -1.0737
 5245TIP3    H237227   1.633   3.375   1.034 -0.6359 -0.3631  1.3435
 5246TIP3   OH237228   2.683   1.056   4.588 -0.2766  0.6518  0.1924
 5246TIP3    H137229   2.708   1.148   4.584 -1.4853  1.0562  1.3279
 5246TIP3    H237230   2.716   1.026   4.673  1.8135 -0.5392 -0.9494
 5247TIP3   OH237231   4.184   2.074   2.037  0.1949 -0.0840  0.5271
 5247TIP3    H137232   4.181   2.000   1.977 -0.7620 -0.2841  0.8051
 5247TIP3    H237233   4.204   2.036   2.122  1.0629  0.1444  0.4350
 5248TIP3   OH237234   2.159   5.493   5.299  0.5965 -0.0276  0.0136
 5248TIP3    H137235   2.089   5.440   5.336 -0.1411 -0.3423 -1.7670
 5248TIP3    H237236   2.134   5.583   5.320  0.4561 -0.2111  0.6768
 5249TIP3   OH237237   3.656   6.192   5.780  0.0087 -0.2444  0.0073
 5249TIP3    H137238   3.719   6.236   5.724 -0.9329 -0.6501 -1.4246
 5249TIP3    H237239   3.635   6.110   5.734 -0.2688 -0.9345  1.2948
 5250TIP3   OH237240   3.970   0.067   5.093 -0.1254 -0.5289 -0.4758
 5250TIP3    H137241   4.002   0.128   5.026  0.0011  0.4816  0.4830
 5250TIP3    H237242   3.877   0.087   5.102  0.2829  0.8564  1.1597
 5251TIP3   OH237243   3.609   6.470   0.398 -0.0789  0.3875  0.5347
 5251TIP3    H137244   3.538   6.438   0.454 -1.7219  1.5089 -0.7827
 5251TIP3    H237245   3.636   6.552   0.439 -0.5892  0.6956  0.2800
 5252TIP3   OH237246   2.961   6.801  16.039 -0.3997  0.0423 -0.0035
 5252TIP3    H137247   3.024   6.782  15.969 -0.0290 -1.6668  0.7438
 5252TIP3    H237248   3.005   6.867  16.093  1.3971 -2.0226  1.2149
 5253TIP3   OH237249   4.650   0.411  14.091  0.0947  0.5837 -0.3219
 5253TIP3    H137250   4.737   0.430  14.127 -0.0340 -3.8393  3.2210
 5253TIP3    H237251   4.591   0.422  14.165 -1.9375  0.5518 -1.8570
 5254TIP3   OH237252   2.732   4.383  13.820  0.4183  0.0280 -0.5516
 5254TIP3    H137253   2.744   4.298  13.777  2.3889 -0.0123  0.0199
 5254TIP3    H237254   2.737   4.447  13.749  1.5092 -0.1800 -0.6713
 5255TIP3   OH237255   4.067   5.844  12.939 -0.3096 -0.2269 -1.0027
 5255TIP3    H137256   4.158   5.858  12.914  0.2161  1.7803  1.6537
 5255TIP3    H237257   4.022   5.925  12.914 -1.2917 -0.9931 -1.8080
 5256TIP3   OH237258   2.466   5.395   3.980 -0.1613  0.3165  0.2662
 5256TIP3    H137259   2.431   5.317   3.938 -0.7967  0.2511  0.8957
 5256TIP3    H237260   2.536   5.363   4.037 -0.8148  0.1225  0.9745
 5257TIP3   OH237261   2.985   3.507   5.404  0.0768  0.2760  0.1573
 5257TIP3    H137262   2.941   3.437   5.452  0.1402 -1.2370 -1.8355
 5257TIP3    H237263   3.067   3.520   5.451  0.5664 -1.8042  0.0057
 5258TIP3   OH237264   3.926   6.202   6.707 -0.1715  0.0505 -0.2943
 5258TIP3    H137265   3.984   6.243   6.643 -0.2526  2.0450  0.8344
 5258TIP3    H237266   3.927   6.109   6.684  2.9545  0.0846 -0.7142
 5259TIP3   OH237267   5.353   1.795  12.903 -0.5068  0.5125  0.8908
 5259TIP3    H137268   5.351   1.829  12.813 -0.8311  0.7406  0.9834
 5259TIP3    H237269   5.349   1.700  12.893  0.4549  0.4857  0.6280
 5260TIP3   OH237270   6.442   4.717   5.286 -0.2713 -0.4924 -0.1794
 5260TIP3    H137271   6.527   4.695   5.325  0.6439  0.0444 -1.7905
 5260TIP3    H237272   6.400   4.772   5.352  1.4540  0.8326 -0.1101
 5261TIP3   OH237273   5.319   3.749  12.080  0.5494 -0.1372  0.0247
 5261TIP3    H137274   5.281   3.708  12.002  0.8015  0.7045 -0.5501
 5261TIP3    H237275   5.386   3.686  12.109  0.6620 -0.3187 -0.6117
 5262TIP3   OH237276   1.911   0.094  14.567 -0.5799 -0.2248  0.1981
 5262TIP3    H137277   1.861   0.080  14.487  2.3433  0.4524 -1.9349
 5262TIP3    H237278   1.917   0.189  14.575  0.6775 -0.2777  0.1088
 5263TIP3   OH237279   2.892   4.322   5.641  0.3409 -0.3875  0.4484
 5263TIP3    H137280   2.812   4.289   5.600 -0.4783 -2.6982  3.4699
 5263TIP3    H237281   2.879   4.416   5.648 -0.8812 -0.3680 -1.4992
 5264TIP3   OH237282   2.907   3.294   3.832 -0.0950  0.2755  0.0399
 5264TIP3    H137283   2.967   3.368   3.819 -0.8227  1.2778  2.0609
 5264TIP3    H237284   2.963   3.222   3.860  0.3165  0.8556  0.7362
 5265TIP3   OH237285   2.015   5.361   1.137 -0.3679 -0.1488  0.6832
 5265TIP3    H137286   2.051   5.322   1.217 -3.0359  1.0153  2.5528
 5265TIP3    H237287   2.007   5.454   1.156 -2.6626 -0.0921 -0.2538
 5266TIP3   OH237288   1.259   5.205   5.285 -0.2730 -0.8701  0.6569
 5266TIP3    H137289   1.193   5.237   5.223  0.3446  0.3992  0.6121
 5266TIP3    H237290   1.338   5.255   5.264  1.0847 -3.1680 -0.0527
 5267TIP3   OH237291   1.798   0.726  16.975 -0.1290  0.1248  0.4514
 5267TIP3    H137292   1.854   0.705  16.901  0.3151 -1.4076  1.1815
 5267TIP3    H237293   1.857   0.759  17.042 -0.5107  1.3815  0.1944
 5268TIP3   OH237294   0.686   1.803  14.795  0.1375  0.8040 -0.1492
 5268TIP3    H137295   0.710   1.738  14.729 -1.1833 -0.2207  0.3155
 5268TIP3    H237296   0.749   1.790  14.866 -0.1269  0.0016 -0.0543
 5269TIP3   OH237297   6.013   5.847  12.750 -0.4994 -0.6571 -0.1157
 5269TIP3    H137298   5.944   5.789  12.783 -1.1666 -0.3143 -0.8802
 5269TIP3    H237299   6.025   5.912  12.820 -1.3723 -0.3744 -0.2238
 5270TIP3   OH237300   2.716   5.172   2.898  0.4031  0.2165  0.1140
 5270TIP3    H137301   2.670   5.110   2.954  0.5696  1.0695  1.2462
 5270TIP3    H237302   2.696   5.145   2.809  0.4951 -1.4619  0.5763
 5271TIP3   OH237303   6.250   4.505  10.791  0.0560  0.0249  0.2793
 5271TIP3    H137304   6.224   4.429  10.740  1.7069  0.9424 -2.0935
 5271TIP3    H237305   6.305   4.557  10.732  0.0090  2.4614  2.1960
 5272TIP3   OH237306   0.788   6.533   0.433  0.5518  0.0588 -0.2382
 5272TIP3    H137307   0.813   6.608   0.488 -0.6806  1.2518 -1.2454
 5272TIP3    H237308   0.834   6.459   0.473 -1.4538  0.5124  3.4028
 5273TIP3   OH237309   2.927   2.454   4.293  0.1610  0.3353  0.2796
 5273TIP3    H137310   3.018   2.483   4.294  0.1995  0.2175  0.0127
 5273TIP3    H237311   2.876   2.536   4.299  0.2850  0.3722  0.9612
 5274TIP3   OH237312   1.230   6.039  15.238 -0.3626 -0.6029 -0.0633
 5274TIP3    H137313   1.234   5.944  15.239  0.1008 -0.5831  0.1694
 5274TIP3    H237314   1.304   6.066  15.184 -1.6579 -0.4250 -1.8318
 5275TIP3   OH237315   4.377   5.461  15.568  0.1774 -0.7015  0.3246
 5275TIP3    H137316   4.439   5.508  15.511  0.2773 -0.8970  0.2717
 5275TIP3    H237317   4.302   5.519  15.575  0.2581 -0.5790  0.1733
 5276TIP3   OH237318   1.997   2.413   0.781 -0.3361 -0.1177 -0.3666
 5276TIP3    H137319   2.020   2.477   0.848 -1.3258 -0.1198 -0.0070
 5276TIP3    H237320   1.988   2.331   0.828  3.3328 -1.1336 -1.1660
 5277TIP3   OH237321   6.821   4.603   3.256  0.2555  0.3018  0.2081
 5277TIP3    H137322   6.742   4.553   3.233  0.9910 -0.4214 -0.8013
 5277TIP3    H237323   6.789   4.669   3.318 -0.7375 -1.4071  1.6163
 5278TIP3   OH237324   4.409   5.136  13.230 -0.2035 -0.4050  0.0005
 5278TIP3    H137325   4.453   5.211  13.190  1.1174 -1.0367  0.2441
 5278TIP3    H237326   4.393   5.164  13.321  0.1876 -0.3736  0.0617
 5279TIP3   OH237327   4.894   6.096  13.974 -0.3784  0.2949 -0.1634
 5279TIP3    H137328   4.922   6.108  14.064 -1.1415 -2.0592  0.4466
 5279TIP3    H237329   4.925   6.008  13.950 -1.0796  0.4565 -1.8392
 5280TIP3   OH237330   2.897   3.907   1.954 -0.2850 -0.3402 -0.2435
 5280TIP3    H137331   2.920   3.911   2.047  1.8742  1.6930 -0.7870
 5280TIP3    H237332   2.831   3.975   1.942  0.7736  0.6472 -0.5208
 5281TIP3   OH237333   0.271   5.424   4.548  0.2023 -0.5681  0.0154
 5281TIP3    H137334   0.222   5.348   4.581  0.1744 -0.5520  0.0115
 5281TIP3    H237335   0.357   5.390   4.526 -0.0917 -0.7893 -0.8375
 5282TIP3   OH237336   0.030   3.785  15.566  0.7311  0.7319 -0.3872
 5282TIP3    H137337  -0.042   3.845  15.552 -0.5552 -0.0982  2.0620
 5282TIP3    H237338   0.109   3.840  15.562 -0.1018  1.8794 -1.7976
 5283TIP3   OH237339   5.479   3.149   1.724  0.2789 -0.6448  0.3788
 5283TIP3    H137340   5.496   3.138   1.818  1.4226  0.5487  0.3406
 5283TIP3    H237341   5.497   3.062   1.687  2.5037 -0.4942  0.9360
 5284TIP3   OH237342   5.260   5.007  16.414 -0.4930 -0.2357  0.1357
 5284TIP3    H137343   5.340   5.020  16.362 -0.0565 -2.8147  0.0631
 5284TIP3    H237344   5.230   5.096  16.432  0.2390  0.8245 -3.1189
 5285TIP3   OH237345   3.943   6.540   1.856 -0.2580 -0.3984  0.2819
 5285TIP3    H137346   3.949   6.568   1.947  0.9774 -0.4147  0.2169
 5285TIP3    H237347   4.012   6.588   1.811 -0.2418 -1.0980 -0.4641
 5286TIP3   OH237348   3.507   3.392   2.794  0.3261 -0.4747  0.3840
 5286TIP3    H137349   3.454   3.461   2.834  3.6341  2.7605 -0.2945
 5286TIP3    H237350   3.498   3.317   2.853 -2.3940  0.8850  1.8965
 5287TIP3   OH237351   1.700   3.363   6.132  0.2025 -0.1404  0.1070
 5287TIP3    H137352   1.631   3.413   6.177  0.8637  0.6340  0.2978
 5287TIP3    H237353   1.664   3.275   6.123 -0.7157  0.1884  0.4173
 5288TIP3   OH237354   2.145   6.436   5.733 -0.5562  0.2869 -0.0400
 5288TIP3    H137355   2.211   6.504   5.748 -1.0091  0.6053  0.5587
 5288TIP3    H237356   2.124   6.403   5.820 -0.2157 -0.7536 -0.3392
 5289TIP3   OH237357   4.917   2.650   2.998 -0.3698 -0.0454 -0.4417
 5289TIP3    H137358   4.834   2.666   3.043  0.5415  1.0104  0.9548
 5289TIP3    H237359   4.983   2.692   3.053  0.8241  1.3811 -2.7790
 5290TIP3   OH237360   3.720   5.618   1.156 -0.1040  0.3937  0.0855
 5290TIP3    H137361   3.729   5.706   1.194  2.4535  0.0720  0.4390
 5290TIP3    H237362   3.694   5.563   1.229 -1.4362  0.7864 -0.0741
 5291TIP3   OH237363   4.119   2.077   5.255 -0.1387 -0.1885  0.1710
 5291TIP3    H137364   4.152   2.015   5.191  1.9095  1.0941 -0.0872
 5291TIP3    H237365   4.029   2.096   5.226  0.1119 -1.0247 -1.2194
 5292TIP3   OH237366   5.403   4.497  16.397 -0.2869  0.0724  0.2451
 5292TIP3    H137367   5.439   4.455  16.475  0.3176  0.9597  0.4604
 5292TIP3    H237368   5.397   4.427  16.332  1.1020 -0.2645  0.4575
 5293TIP3   OH237369   1.567   6.387  14.994 -0.3835  0.3235 -0.7995
 5293TIP3    H137370   1.575   6.439  14.914  0.5446  0.2982 -0.7375
 5293TIP3    H237371   1.505   6.317  14.972 -0.9791  0.9470 -1.1486
 5294TIP3   OH237372   0.730   2.688   2.692  0.1634  0.3736  0.2034
 5294TIP3    H137373   0.676   2.766   2.682  0.6643  0.6665 -0.2766
 5294TIP3    H237374   0.710   2.635   2.614 -0.2409 -0.0175  0.5709
 5295TIP3   OH237375   2.561   4.762  15.505 -0.7083 -0.4039 -0.3811
 5295TIP3    H137376   2.623   4.812  15.452  0.5419 -0.9288  0.5525
 5295TIP3    H237377   2.541   4.685  15.453  1.5383 -1.5911  0.3747
 5296TIP3   OH237378   3.085   5.664  12.073  0.4308 -0.4284 -0.4122
 5296TIP3    H137379   3.056   5.705  12.154 -0.8671 -1.3671 -0.3624
 5296TIP3    H237380   3.018   5.685  12.009  0.6729 -0.9391 -0.8493
 5297TIP3   OH237381   5.246   4.185  10.381 -0.1775  0.4709 -0.2310
 5297TIP3    H137382   5.193   4.227  10.313  0.3512  1.3189 -0.1289
 5297TIP3    H237383   5.197   4.201  10.462  0.1581  1.1485 -0.1536
 5298TIP3   OH237384   0.373   6.326  15.244 -0.0745 -0.3081 -0.6907
 5298TIP3    H137385   0.380   6.272  15.165 -0.2786  0.3458 -1.1562
 5298TIP3    H237386   0.463   6.354  15.262  0.3055 -2.0826  0.4788
 5299TIP3   OH237387   0.960   5.876  15.110  0.2984 -0.3585  0.0047
 5299TIP3    H137388   0.949   5.872  15.205 -2.5527  1.7722 -0.1193
 5299TIP3    H237389   0.904   5.806  15.077  1.8608 -1.5881 -0.1622
 5300TIP3   OH237390   3.804   1.013  14.962 -0.0956 -0.0705  0.7468
 5300TIP3    H137391   3.880   1.067  14.985  0.7796  0.1424 -2.2183
 5300TIP3    H237392   3.739   1.076  14.930 -0.8475 -0.4203  1.5434
 5301TIP3   OH237393   6.468   5.459   2.033  0.4017  0.2303  0.0992
 5301TIP3    H137394   6.472   5.472   1.938 -2.4161  0.3609 -0.0919
 5301TIP3    H237395   6.468   5.364   2.044  0.6874  0.2144 -0.0326
 5302TIP3   OH237396   5.996   6.161   1.537 -0.7537 -0.1099 -0.0391
 5302TIP3    H137397   6.073   6.108   1.559 -1.2503 -0.6747  0.3585
 5302TIP3    H237398   5.958   6.184   1.621  0.1442  1.9709 -0.1231
 5303TIP3   OH237399   2.843   6.318  15.118  0.1656 -0.1870 -0.7653
 5303TIP3    H137400   2.833   6.242  15.175  0.2153 -0.2456 -0.8336
 5303TIP3    H237401   2.857   6.281  15.031 -0.2286 -0.0956 -0.8687
 5304TIP3   OH237402   3.891   3.867   2.295  0.3039 -0.3447 -0.1507
 5304TIP3    H137403   3.901   3.846   2.388 -0.1650 -2.5374 -0.5319
 5304TIP3    H237404   3.980   3.869   2.261  0.4278 -0.6236  0.1516
 5305TIP3   OH237405   6.485   4.379   0.070 -0.6839 -0.1047  0.1057
 5305TIP3    H137406   6.462   4.456   0.122 -1.0538  0.2310 -0.5385
 5305TIP3    H237407   6.446   4.396  -0.016  2.9184  1.0870 -1.4902
 5306TIP3   OH237408   0.325   5.067  13.168  0.0359 -0.0773  0.7750
 5306TIP3    H137409   0.313   4.991  13.111 -0.5858 -0.6687  1.6706
 5306TIP3    H237410   0.353   5.137  13.109 -0.8040 -0.6117 -0.2911
 5307TIP3   OH237411   2.566   1.612  15.535 -0.1259  0.7030 -0.0164
 5307TIP3    H137412   2.605   1.688  15.580 -0.6062  1.1440 -0.3289
 5307TIP3    H237413   2.567   1.636  15.443 -2.8332  1.5806  0.0892
 5308TIP3   OH237414   1.259   4.322   3.971  0.3018 -0.1017 -0.0746
 5308TIP3    H137415   1.288   4.383   3.904 -0.1559 -0.4895 -0.6390
 5308TIP3    H237416   1.170   4.298   3.945 -0.5204  0.9715  1.5452
 5309TIP3   OH237417   0.530   4.047  15.388 -0.3373 -0.2580 -0.1873
 5309TIP3    H137418   0.515   3.990  15.464  1.6367  0.3797  0.7651
 5309TIP3    H237419   0.540   3.986  15.315 -1.7462 -0.9186  0.1401
 5310TIP3   OH237420   0.732   4.679   3.741  0.7755 -0.1337  0.1592
 5310TIP3    H137421   0.766   4.762   3.706  1.1237  0.0135  0.8317
 5310TIP3    H237422   0.638   4.694   3.751  0.7879  0.0733 -0.0241
 5311TIP3   OH237423   2.626   2.191  11.089  0.3621  0.7724  0.6214
 5311TIP3    H137424   2.665   2.275  11.113 -0.4425  1.0697  0.9549
 5311TIP3    H237425   2.605   2.150  11.173  0.9489  0.1423  0.4601
 5312TIP3   OH237426   6.632   5.905  13.206 -0.4588 -0.1435 -0.8219
 5312TIP3    H137427   6.629   5.989  13.252  0.3817  0.9422 -2.6354
 5312TIP3    H237428   6.563   5.912  13.140 -0.4530 -0.9190 -0.9132
 5313TIP3   OH237429   2.787   5.246   4.005 -0.2280  0.2711 -0.0887
 5313TIP3    H137430   2.738   5.213   4.080  1.8017 -1.5770  0.5062
 5313TIP3    H237431   2.859   5.296   4.044  1.1369 -1.1285 -0.7184
 5314TIP3   OH237432   2.357   1.094   1.829 -0.9117  0.6004 -0.6816
 5314TIP3    H137433   2.382   1.008   1.863  4.2594  1.3077 -1.7229
 5314TIP3    H237434   2.368   1.086   1.734  0.5079  2.4940 -0.7384
 5315TIP3   OH237435   1.798   4.147  12.061 -0.3389 -0.5780  0.1737
 5315TIP3    H137436   1.736   4.113  12.125 -0.0294  0.4796  1.0770
 5315TIP3    H237437   1.743   4.179  11.988 -0.8200 -0.2333  0.6802
 5316TIP3   OH237438   5.711   3.051  10.970 -0.4571 -0.0267  0.2594
 5316TIP3    H137439   5.773   3.104  11.021  0.8482 -2.0270  0.8579
 5316TIP3    H237440   5.625   3.074  11.006  0.1326  1.1166  1.0049
 5317TIP3   OH237441   2.895   2.939  12.335  0.0389 -0.2841 -0.3038
 5317TIP3    H137442   2.974   2.901  12.373  0.8800  1.3587 -0.3259
 5317TIP3    H237443   2.904   2.922  12.241  0.2840 -0.2860 -0.2822
 5318TIP3   OH237444   3.135   4.455   0.176 -0.1621 -0.8176 -0.2110
 5318TIP3    H137445   3.169   4.408   0.252  0.8337  0.2891  0.0551
 5318TIP3    H237446   3.184   4.538   0.175 -1.7272  0.1502 -0.7524
 5319TIP3   OH237447   1.761   5.815  16.331 -0.5815  0.0325 -0.6310
 5319TIP3    H137448   1.726   5.902  16.315 -1.1237  0.5270  2.6403
 5319TIP3    H237449   1.689   5.756  16.307 -1.5214  0.7103  0.4268
 5320TIP3   OH237450   2.348   0.008  13.780  0.0772 -1.1020 -0.3297
 5320TIP3    H137451   2.285  -0.019  13.847 -0.5465  0.0815 -0.4191
 5320TIP3    H237452   2.332  -0.051  13.706 -2.6356  0.6516 -1.2817
 5321TIP3   OH237453   1.316   3.403   3.089 -0.2765  0.4832 -0.1981
 5321TIP3    H137454   1.361   3.354   3.158 -1.0270  0.4796  0.2970
 5321TIP3    H237455   1.367   3.385   3.010  1.2856  1.4101  0.5541
 5322TIP3   OH237456   4.207   0.253   1.882 -0.2457  0.2575  0.1594
 5322TIP3    H137457   4.250   0.245   1.967 -1.8966 -0.7544  0.9621
 5322TIP3    H237458   4.140   0.320   1.896  1.5043  2.4330 -1.3073
 5323TIP3   OH237459   2.185   1.430  15.526 -0.0287 -0.4613 -0.0195
 5323TIP3    H137460   2.208   1.355  15.581 -0.3274 -0.5555 -0.0206
 5323TIP3    H237461   2.205   1.402  15.437 -0.8843 -0.8295 -0.0985
 5324TIP3   OH237462   4.047   0.688  10.611 -0.5175  0.2400  0.9373
 5324TIP3    H137463   3.959   0.720  10.591 -1.0667 -2.4498 -1.6975
 5324TIP3    H237464   4.102   0.724  10.541 -0.5644 -1.8620 -0.2666
 5325TIP3   OH237465   4.118   5.262   1.057 -0.2508  0.6280 -0.2270
 5325TIP3    H137466   4.071   5.179   1.054  0.0741  0.4428 -0.2418
 5325TIP3    H237467   4.056   5.326   1.022 -0.8594  0.5695  0.7080
 5326TIP3   OH237468   1.303   3.287   2.545 -0.5057  0.0447  0.5544
 5326TIP3    H137469   1.220   3.251   2.513 -1.0909  1.3855  0.5000
 5326TIP3    H237470   1.335   3.222   2.607 -2.9111  0.6650  2.5708
 5327TIP3   OH237471   0.219   2.359   3.363 -0.1516 -0.6186 -0.1031
 5327TIP3    H137472   0.238   2.268   3.384 -0.3547 -1.1728 -2.1361
 5327TIP3    H237473   0.130   2.373   3.397 -0.4064 -1.4014 -0.4359
 5328TIP3   OH237474   2.746   2.270   0.524 -0.5586  0.0094 -0.2622
 5328TIP3    H137475   2.771   2.361   0.510  1.1406 -0.4602 -0.4229
 5328TIP3    H237476   2.784   2.222   0.450 -0.6608 -0.9606  0.2958
 5329TIP3   OH237477   5.024   6.238  15.788 -0.0261 -0.8405 -1.2290
 5329TIP3    H137478   5.006   6.321  15.745  3.4707  1.6832  1.5077
 5329TIP3    H237479   5.086   6.193  15.730  0.7461  0.1420 -1.1816
 5330TIP3   OH237480   6.532   5.735   3.725 -0.3587  0.3397  0.1668
 5330TIP3    H137481   6.473   5.773   3.791  0.6986 -0.8584  1.8878
 5330TIP3    H237482   6.503   5.644   3.717 -0.5804  0.5135 -1.1961
 5331TIP3   OH237483   4.973   1.605   1.021 -0.1717 -0.4533 -0.3325
 5331TIP3    H137484   4.994   1.525   0.973 -0.2926  0.3459 -1.7879
 5331TIP3    H237485   4.997   1.676   0.961 -0.0941  0.6053  0.9108
 5332TIP3   OH237486   4.521   1.015  10.857  0.1954 -0.0026  0.3662
 5332TIP3    H137487   4.440   0.982  10.817 -0.8531 -0.5404  2.7700
 5332TIP3    H237488   4.496   1.098  10.898  0.1340 -1.2708  3.1469
 5333TIP3   OH237489   1.289   5.419  11.560 -0.6871 -0.0018  0.1716
 5333TIP3    H137490   1.289   5.346  11.623  0.2273  1.3236  1.8028
 5333TIP3    H237491   1.201   5.419  11.523 -1.8007  0.0521  2.5949
 5334TIP3   OH237492   4.984   2.383   3.005  0.1176 -0.0690 -0.3024
 5334TIP3    H137493   4.966   2.477   3.006  0.8036  0.0630  0.2508
 5334TIP3    H237494   5.062   2.373   3.059 -0.8821 -1.1438  1.0213
 5335TIP3   OH237495   2.066   3.910   5.249 -0.2197  0.3867 -0.2326
 5335TIP3    H137496   2.067   3.864   5.333 -5.1060 -0.2618 -0.2652
 5335TIP3    H237497   2.125   3.860   5.193  1.5753 -0.3632  2.1816
 5336TIP3   OH237498   6.302   5.163  16.354  0.2875 -0.2568  0.1845
 5336TIP3    H137499   6.355   5.164  16.433 -0.6225  2.2473  0.8856
 5336TIP3    H237500   6.365   5.174  16.282  0.9647 -0.6975  0.7001
 5337TIP3   OH237501   0.385   1.165  14.202  0.3366 -0.1747 -0.5422
 5337TIP3    H137502   0.381   1.256  14.173 -1.5779 -0.2908 -0.7450
 5337TIP3    H237503   0.462   1.129  14.157  2.4828  1.8477  1.2359
 5338TIP3   OH237504   6.728   2.271  16.449 -0.0872 -0.2295  0.6183
 5338TIP3    H137505   6.789   2.333  16.408 -0.5203 -0.2352 -0.0430
 5338TIP3    H237506   6.732   2.293  16.542  1.0050 -0.3010  0.6021
 5339TIP3   OH237507   2.617   6.610  15.294 -0.0148  0.7000  0.2671
 5339TIP3    H137508   2.567   6.680  15.336 -0.3274  0.8823 -0.3906
 5339TIP3    H237509   2.614   6.538  15.357 -0.4325  0.9802  0.5818
 5340TIP3   OH237510   0.265   5.104   2.362 -0.7884 -0.2393 -0.1466
 5340TIP3    H137511   0.264   5.009   2.374 -0.2168  0.0061  2.2905
 5340TIP3    H237512   0.339   5.120   2.303  0.0165 -1.2249  0.5558
 5341TIP3   OH237513   6.644   0.459   0.247  0.4011  0.2723 -0.2844
 5341TIP3    H137514   6.603   0.524   0.305 -0.3261  1.9312 -2.4983
 5341TIP3    H237515   6.591   0.380   0.258  0.2690  0.5470  1.2452
 5342TIP3   OH237516   1.510   4.289   4.116  0.8306  0.2458  0.3538
 5342TIP3    H137517   1.420   4.315   4.094  0.7923  0.4583  0.7478
 5342TIP3    H237518   1.510   4.193   4.108  0.2642  0.1445  1.4338
 5343TIP3   OH237519   0.638   6.406  13.811 -0.5333 -0.8767 -0.4303
 5343TIP3    H137520   0.596   6.491  13.802  0.1898 -0.6355 -1.8630
 5343TIP3    H237521   0.595   6.351  13.745 -1.6106 -1.9073  1.0701
 5344TIP3   OH237522   2.119   1.661   1.517  0.5878 -0.0701 -0.3772
 5344TIP3    H137523   2.108   1.693   1.606 -0.8209 -1.0033 -0.1888
 5344TIP3    H237524   2.147   1.738   1.467 -1.2693  1.1363  0.3534
 5345TIP3   OH237525   5.105   4.767  15.433 -0.0308  0.0185 -0.5208
 5345TIP3    H137526   5.039   4.836  15.445  0.5768  0.2491  2.2285
 5345TIP3    H237527   5.164   4.802  15.367 -1.2187  0.9330 -1.1527
 5346TIP3   OH237528   6.265   6.482  13.672 -0.1842  0.2617  0.3098
 5346TIP3    H137529   6.205   6.435  13.614 -1.1563  2.2766 -0.4327
 5346TIP3    H237530   6.217   6.488  13.755  1.0791 -2.3499  1.3301
 5347TIP3   OH237531   4.508   1.033   3.215  0.3579  0.1258  0.2475
 5347TIP3    H137532   4.576   1.010   3.279  1.1234 -1.4646 -1.0615
 5347TIP3    H237533   4.549   1.100   3.160  0.2861  0.3149  0.4230
 5348TIP3   OH237534   1.474   6.783   0.801  0.3023  1.2414 -0.0410
 5348TIP3    H137535   1.480   6.800   0.707 -0.1327 -1.5971 -0.6720
 5348TIP3    H237536   1.557   6.743   0.824 -0.9613 -1.6544 -0.1431
 5349TIP3   OH237537   5.912   6.024  16.217  0.1084  0.0842 -0.2519
 5349TIP3    H137538   5.918   5.944  16.270 -2.1356 -0.2475 -0.4011
 5349TIP3    H237539   5.829   6.063  16.243  1.7258  3.1698  0.8231
 5350TIP3   OH237540   0.960   5.767   1.284 -0.3810 -0.2411  0.3683
 5350TIP3    H137541   0.883   5.731   1.329 -0.8724  0.5654  0.2003
 5350TIP3    H237542   1.009   5.812   1.353  0.7251 -1.9839  0.7624
 5351TIP3   OH237543   2.887   3.288  14.852 -0.3434 -0.4290  0.4795
 5351TIP3    H137544   2.935   3.223  14.800  1.1374 -0.2525  1.5515
 5351TIP3    H237545   2.835   3.236  14.913  0.7145 -0.6539  1.2262
 5352TIP3   OH237546   6.244   4.822  13.859 -0.6467  0.1496 -0.5894
 5352TIP3    H137547   6.158   4.782  13.871 -1.3943  1.2605 -1.8774
 5352TIP3    H237548   6.305   4.749  13.864 -1.5251 -0.5286  1.4423
 5353TIP3   OH237549   2.342   4.577  16.024  0.1944 -0.0554 -0.0419
 5353TIP3    H137550   2.294   4.533  16.095 -0.3327 -0.4521 -0.6305
 5353TIP3    H237551   2.309   4.536  15.944 -0.3504  1.4541 -0.6194
 5354TIP3   OH237552   3.908   5.006   5.815  0.4576 -0.0007 -0.0745
 5354TIP3    H137553   3.959   5.050   5.883 -0.7840 -0.7017  1.3677
 5354TIP3    H237554   3.934   4.914   5.822 -0.0786 -0.1646 -0.1711
 5355TIP3   OH237555   1.821   3.549   5.738  0.1245  0.3035 -0.8916
 5355TIP3    H137556   1.761   3.497   5.685 -0.0182  0.0217 -0.4566
 5355TIP3    H237557   1.802   3.640   5.714 -0.0857  0.1873 -1.1656
 5356TIP3   OH237558   2.702   0.673   2.840 -0.6421  0.4288  0.3814
 5356TIP3    H137559   2.777   0.629   2.880  0.1210  0.4636 -0.9448
 5356TIP3    H237560   2.724   0.678   2.747 -1.7290  1.6026  0.1599
 5357TIP3   OH237561   1.317   5.401  16.612 -0.4446 -0.1470 -0.1652
 5357TIP3    H137562   1.393   5.344  16.600 -0.3188 -0.0510  0.1792
 5357TIP3    H237563   1.311   5.450  16.530  0.1426  0.1764 -0.0171
 5358TIP3   OH237564   6.741   2.845   5.165 -0.0515  0.6749  0.1873
 5358TIP3    H137565   6.829   2.809   5.163 -0.7117 -1.0582  0.6224
 5358TIP3    H237566   6.703   2.822   5.080 -0.5942  0.0022  0.6018
 5359TIP3   OH237567   0.703   1.771   1.390 -0.0287 -0.0228 -0.3714
 5359TIP3    H137568   0.657   1.689   1.408 -0.6342  0.3832 -0.0274
 5359TIP3    H237569   0.774   1.774   1.453 -0.6681  0.2313  0.3538
 5360TIP3   OH237570   2.763   3.183  13.859 -0.0411  0.2666 -0.2731
 5360TIP3    H137571   2.750   3.277  13.863 -0.9493  0.2034 -1.2817
 5360TIP3    H237572   2.798   3.167  13.771  1.4170 -0.2106  0.3571
 5361TIP3   OH237573   2.253   5.567   0.200 -0.1354  0.1424  0.1147
 5361TIP3    H137574   2.207   5.597   0.122 -2.9099 -0.5103  1.3661
 5361TIP3    H237575   2.303   5.643   0.230  0.0397  0.7380 -1.6086
 5362TIP3   OH237576   1.422   4.111   1.138  0.2750 -0.0453 -0.2934
 5362TIP3    H137577   1.345   4.110   1.080  0.3592  1.6361 -0.4946
 5362TIP3    H237578   1.385   4.113   1.226  0.0432  0.9033 -0.3919
 5363TIP3   OH237579   1.270   0.755  11.827 -0.0897 -0.3081  0.5412
 5363TIP3    H137580   1.212   0.681  11.808 -0.2340 -0.1260  0.2717
 5363TIP3    H237581   1.350   0.736  11.777  0.2873 -0.8177  1.3149
 5364TIP3   OH237582   1.313   4.391  17.117  0.0758  0.0405 -0.9102
 5364TIP3    H137583   1.338   4.372  17.026  1.8086  1.3658 -0.7740
 5364TIP3    H237584   1.332   4.484  17.128  1.2623 -0.3871  1.2021
 5365TIP3   OH237585   0.390   4.923  10.472  0.2932 -0.0456  0.0582
 5365TIP3    H137586   0.460   4.961  10.524 -0.3246 -1.1673  1.8254
 5365TIP3    H237587   0.310   4.965  10.505 -0.1620 -1.1482  0.4387
 5366TIP3   OH237588   3.003   6.015   5.781 -0.1082  0.3246  0.2919
 5366TIP3    H137589   3.087   5.984   5.815 -0.0148  1.2071  0.9034
 5366TIP3    H237590   2.962   5.937   5.744  1.0359 -0.1062 -0.1369
 5367TIP3   OH237591   6.295   1.470   0.915 -0.1956  0.0367  0.3074
 5367TIP3    H137592   6.213   1.436   0.950 -0.3273  0.5440  0.4966
 5367TIP3    H237593   6.361   1.406   0.942 -0.6263 -0.7633 -0.4866
 5368TIP3   OH237594   3.111   1.283  13.862  0.8035  0.7049 -0.3491
 5368TIP3    H137595   3.153   1.346  13.921  0.1584 -1.8593  3.1875
 5368TIP3    H237596   3.137   1.198  13.896 -2.0043 -0.9532 -1.9949
 5369TIP3   OH237597   2.591   1.447   3.354  0.8665 -0.5983 -0.1590
 5369TIP3    H137598   2.639   1.418   3.276 -1.1637 -0.3178 -1.5867
 5369TIP3    H237599   2.500   1.425   3.336  0.1831  0.5325  1.6488
 5370TIP3   OH237600   2.365   6.712  12.422 -0.5967 -0.7305  0.5855
 5370TIP3    H137601   2.404   6.790  12.383  3.9766 -1.5425  2.8059
 5370TIP3    H237602   2.419   6.640  12.388 -1.4569 -2.2915  2.3735
 5371TIP3   OH237603   4.274   4.950   4.474 -0.5869 -0.0386  0.3994
 5371TIP3    H137604   4.195   4.904   4.503 -1.6252  1.8480  0.7368
 5371TIP3    H237605   4.260   4.963   4.380  0.4876 -1.8358 -0.0371
 5372TIP3   OH237606   5.813   4.430  12.424 -0.6865  0.2641 -0.1351
 5372TIP3    H137607   5.814   4.355  12.365  2.3378  0.6740 -0.7640
 5372TIP3    H237608   5.852   4.501  12.374 -1.4749  1.6762  1.1676
 5373TIP3   OH237609   5.110   2.342   4.779  0.1608 -0.0978  0.3477
 5373TIP3    H137610   5.147   2.297   4.703  2.0982  1.8938  0.0085
 5373TIP3    H237611   5.038   2.286   4.807 -0.9863 -0.6764 -3.2354
 5374TIP3   OH237612   4.722   4.606   1.670 -0.0371  0.2090  0.0323
 5374TIP3    H137613   4.784   4.671   1.702 -0.3341  1.0704 -1.0702
 5374TIP3    H237614   4.751   4.524   1.709  0.1708  1.0295  1.6982
 5375TIP3   OH237615   5.742   2.966  11.766 -0.1775  0.6439  0.5483
 5375TIP3    H137616   5.757   2.890  11.823 -0.8563  0.4274  0.4514
 5375TIP3    H237617   5.690   3.026  11.819  2.0237  1.9574  1.3398
 5376TIP3   OH237618   1.874   4.009   1.129  0.1893  0.1999 -0.0884
 5376TIP3    H137619   1.853   3.933   1.074  0.5486 -0.9505  1.3236
 5376TIP3    H237620   1.794   4.063   1.126 -0.8008 -1.1875  0.4437
 5377TIP3   OH237621   2.004   1.718  10.454  0.2561  0.3941 -0.4926
 5377TIP3    H137622   2.091   1.715  10.494 -0.2398 -2.1193  0.6303
 5377TIP3    H237623   1.992   1.630  10.418 -1.8665  0.6480 -0.5009
 5378TIP3   OH237624   4.578   5.205  16.036 -0.2160  0.2400  0.1442
 5378TIP3    H137625   4.507   5.267  16.020 -1.2437 -0.2427  2.5127
 5378TIP3    H237626   4.651   5.260  16.064 -0.0108  0.6253 -1.0706
 5379TIP3   OH237627   5.634   2.321  12.588  0.4526  0.1545 -0.5570
 5379TIP3    H137628   5.727   2.342  12.581  0.4149  0.4509 -0.1815
 5379TIP3    H237629   5.621   2.297  12.679  0.0547  0.6221 -0.4891
 5380TIP3   OH237630   3.653   2.267  15.205  0.1448  0.4957 -0.3048
 5380TIP3    H137631   3.634   2.279  15.298  1.5192  0.5241 -0.0087
 5380TIP3    H237632   3.585   2.318  15.160 -0.3585  0.7274  0.6809
 5381TIP3   OH237633   6.780   5.863   5.454 -0.1219 -0.7744 -0.4859
 5381TIP3    H137634   6.689   5.884   5.434 -0.5395 -0.6117  1.4455
 5381TIP3    H237635   6.830   5.933   5.411 -1.0663  0.4272  0.2947
 5382TIP3   OH237636   1.297   4.726  16.189  1.1774 -0.3975 -0.3486
 5382TIP3    H137637   1.315   4.804  16.136 -1.5560  2.3785  2.4429
 5382TIP3    H237638   1.358   4.733  16.263  0.1707 -0.2514  0.4821
 5383TIP3   OH237639   3.879   4.957  14.784 -0.4010  0.1836 -0.0218
 5383TIP3    H137640   3.918   4.904  14.715  1.2320 -1.2136  1.8671
 5383TIP3    H237641   3.796   4.914  14.803 -0.3125 -0.1158 -0.3096
 5384TIP3   OH237642   6.109   5.307   1.660  0.3306  0.0470 -0.2936
 5384TIP3    H137643   6.069   5.390   1.637  0.7263  0.5594  0.7683
 5384TIP3    H237644   6.195   5.308   1.617  1.2166  1.1540  1.3504
 5385TIP3   OH237645   0.040   6.072  14.070 -0.2985  0.1821 -0.2917
 5385TIP3    H137646  -0.017   6.132  14.021 -0.0762  0.3373 -0.3621
 5385TIP3    H237647   0.128   6.106  14.056 -0.1631 -0.2014 -0.3857
 5386TIP3   OH237648   2.714   5.264   0.116  0.1375  0.2390  0.5904
 5386TIP3    H137649   2.792   5.261   0.060  0.2505 -0.2131  0.7706
 5386TIP3    H237650   2.641   5.248   0.055  0.2542 -0.1844  0.5608
 5387TIP3   OH237651   4.156   5.895  12.446 -0.1691  0.3421 -0.1184
 5387TIP3    H137652   4.227   5.859  12.499 -0.5070  0.2573  0.2853
 5387TIP3    H237653   4.185   5.884  12.356 -0.3690 -1.1728 -0.0133
 5388TIP3   OH237654   2.287   3.042   4.288  0.2168 -0.5849 -0.2893
 5388TIP3    H137655   2.231   3.064   4.213  0.5933 -1.1149 -0.7343
 5388TIP3    H237656   2.362   2.998   4.249  1.3565  0.8438  0.2180
 5389TIP3   OH237657   2.901   1.711   1.130  0.3929 -0.3295 -0.0681
 5389TIP3    H137658   2.900   1.713   1.035  0.0468  0.1435 -0.0591
 5389TIP3    H237659   2.830   1.650   1.154  0.5480 -0.5283 -0.1132
 5390TIP3   OH237660   0.241   1.349   1.960 -0.1214 -0.2374 -0.3715
 5390TIP3    H137661   0.164   1.293   1.977 -0.1804  0.0102  0.2037
 5390TIP3    H237662   0.222   1.430   2.007  1.3435 -0.8750  1.4103
 5391TIP3   OH237663   2.409   1.061  12.368 -0.0522  0.0613 -0.2405
 5391TIP3    H137664   2.458   1.104  12.439  1.2852 -0.8971 -0.5380
 5391TIP3    H237665   2.412   0.968  12.389 -1.4389 -0.0617 -0.4978
 5392TIP3   OH237666   5.592   5.452   5.626  0.4122 -0.6510  0.0845
 5392TIP3    H137667   5.541   5.403   5.561 -0.8233 -1.1248  1.3423
 5392TIP3    H237668   5.574   5.407   5.709  2.0023 -0.1163  0.7468
 5393TIP3   OH237669   4.973   0.216   5.122  0.2252  0.1281  0.2959
 5393TIP3    H137670   4.937   0.132   5.094  1.0218 -0.3682  0.7097
 5393TIP3    H237671   4.996   0.261   5.041  0.2430 -0.2615  0.0840
 5394TIP3   OH237672   5.537   5.068   1.320 -0.0542  0.2158  0.2348
 5394TIP3    H137673   5.572   5.005   1.383 -0.2419  1.0397  1.1706
 5394TIP3    H237674   5.482   5.015   1.262  1.5510 -0.8534 -0.3770
 5395TIP3   OH237675   5.776   5.544   6.355  0.0882  0.1639 -0.0443
 5395TIP3    H137676   5.857   5.580   6.318 -0.3241 -0.0123 -1.1656
 5395TIP3    H237677   5.713   5.548   6.283 -0.3571 -1.5147  0.1955
 5396TIP3   OH237678   0.266   6.041   2.438  0.1876 -0.1242 -0.4645
 5396TIP3    H137679   0.183   6.084   2.458  0.7834  0.5507  0.6753
 5396TIP3    H237680   0.310   6.101   2.378  0.5178  0.3239  0.2044
 5397TIP3   OH237681   5.450   5.775  14.542  0.2377 -0.0535  0.0563
 5397TIP3    H137682   5.492   5.760  14.457 -1.4824  2.3567 -1.3304
 5397TIP3    H237683   5.522   5.769  14.605  1.6532 -1.4166 -1.5922
 5398TIP3   OH237684   1.116   4.181   5.532  0.3715  0.6676  0.6994
 5398TIP3    H137685   1.203   4.159   5.500  0.9178  3.0777  0.2937
 5398TIP3    H237686   1.131   4.252   5.594 -1.2543  0.6014  1.2173
 5399TIP3   OH237687   4.009   2.658  12.256 -0.0984  0.3256 -0.3338
 5399TIP3    H137688   4.044   2.725  12.315 -0.7173 -0.7899  1.3745
 5399TIP3    H237689   3.919   2.687  12.239 -1.2007 -1.1373  2.3212
 5400TIP3   OH237690   0.275   6.823   3.143  0.9215  0.1248 -0.5019
 5400TIP3    H137691   0.183   6.807   3.122  0.2205  2.1579  0.7187
 5400TIP3    H237692   0.293   6.911   3.111  2.4829 -0.2437 -0.7458
 5401TIP3   OH237693   3.895   1.326   6.807  0.3453  0.1987 -0.1551
 5401TIP3    H137694   3.963   1.362   6.864  0.0908  0.4717 -0.0226
 5401TIP3    H237695   3.944   1.276   6.741  0.6615  0.2002  0.0746
 5402TIP3   OH237696   6.556   6.023  16.504 -0.3503 -0.4911  0.3465
 5402TIP3    H137697   6.510   6.097  16.462  0.3528  0.2830  0.9019
 5402TIP3    H237698   6.554   5.954  16.439  1.8138  1.0808 -1.5448
 5403TIP3   OH237699   0.051   1.297   0.273 -0.7399 -0.1404  0.4431
 5403TIP3    H137700   0.128   1.281   0.219 -0.2904  0.0365  1.0157
 5403TIP3    H237701  -0.010   1.343   0.216 -1.8976 -3.3383 -1.1326
 5404TIP3   OH237702   5.878   4.417   3.497 -0.0861 -0.7364 -0.2110
 5404TIP3    H137703   5.934   4.359   3.445  0.6734  0.1369 -0.4001
 5404TIP3    H237704   5.814   4.359   3.538 -0.4801 -1.5063 -1.8178
 5405TIP3   OH237705   6.206   6.797  15.493  0.2493 -0.0271  0.0770
 5405TIP3    H137706   6.187   6.833  15.407  0.9433 -0.3284 -0.2021
 5405TIP3    H237707   6.120   6.793  15.536 -0.3754 -1.5008 -1.2195
 5406TIP3   OH237708   1.633   0.392  13.150 -0.0826 -0.3099 -0.0631
 5406TIP3    H137709   1.628   0.326  13.081  0.3136 -1.4958  1.0114
 5406TIP3    H237710   1.713   0.372  13.197  0.0514  0.9626  0.2912
 5407TIP3   OH237711   2.851   0.388  11.885  0.3923 -0.2769  0.1123
 5407TIP3    H137712   2.864   0.402  11.979 -1.0054 -1.2072  0.4891
 5407TIP3    H237713   2.850   0.475  11.847 -2.2054  0.3960  1.4668
 5408TIP3   OH237714   2.513   5.410   2.290  0.7714  0.0515 -0.3262
 5408TIP3    H137715   2.540   5.346   2.356 -1.5377 -0.3863  0.2868
 5408TIP3    H237716   2.482   5.357   2.216 -1.3654  0.3434  0.2707
 5409TIP3   OH237717   1.606   6.755  15.582 -0.4395  0.5520  0.0108
 5409TIP3    H137718   1.666   6.789  15.649 -0.2300  2.4574 -1.1076
 5409TIP3    H237719   1.663   6.723  15.513 -0.6939 -0.0133  0.0538
 5410TIP3   OH237720   4.277   0.488   5.410  0.6303  0.1032 -0.0301
 5410TIP3    H137721   4.270   0.394   5.425  1.4501 -0.2967 -1.8749
 5410TIP3    H237722   4.263   0.499   5.316 -3.1277  2.2461  0.5393
 5411TIP3   OH237723   5.627   5.476   2.547 -0.1584  0.7844 -0.4463
 5411TIP3    H137724   5.568   5.400   2.541  0.5168  0.2046  0.0406
 5411TIP3    H237725   5.579   5.547   2.505 -0.9653  0.1798 -0.5749
 5412TIP3   OH237726   3.682   3.497  14.514  0.0421 -0.6012 -0.2214
 5412TIP3    H137727   3.698   3.404  14.500  0.3826 -0.5599 -0.1349
 5412TIP3    H237728   3.637   3.526  14.435  0.2522 -0.7673 -0.4027
 5413TIP3   OH237729   3.144   5.078   0.759 -0.1449  0.0775  0.2692
 5413TIP3    H137730   3.060   5.078   0.805 -0.5175  0.6465 -0.3837
 5413TIP3    H237731   3.147   5.164   0.716  0.1028 -0.4990 -0.8997
 5414TIP3   OH237732   6.375   2.165   0.214  0.4002  0.1084 -0.4019
 5414TIP3    H137733   6.287   2.129   0.206  1.0396 -1.3823 -1.3662
 5414TIP3    H237734   6.388   2.178   0.308 -2.0432  3.6770 -0.3890
 5415TIP3   OH237735   6.737   4.000  15.250  0.1674  0.0943  0.1621
 5415TIP3    H137736   6.729   3.954  15.167  0.6543  0.3600 -0.0356
 5415TIP3    H237737   6.649   4.031  15.269  0.4366  2.1175 -1.4685
 5416TIP3   OH237738   2.850   1.911  15.521 -0.4671 -0.1548 -0.5572
 5416TIP3    H137739   2.825   1.995  15.559 -1.2051 -0.1878 -0.9446
 5416TIP3    H237740   2.779   1.851  15.544  0.0886 -0.6948 -0.2229
 5417TIP3   OH237741   1.007   5.890   5.481  0.2323  0.0639  0.0505
 5417TIP3    H137742   1.097   5.856   5.484  0.0425 -0.4033  0.9502
 5417TIP3    H237743   1.010   5.961   5.417  1.9900  2.2397  2.3885
 5418TIP3   OH237744   2.276   2.820  11.254 -0.1965 -0.1979 -0.0002
 5418TIP3    H137745   2.228   2.842  11.334 -0.1085 -0.5474  0.1518
 5418TIP3    H237746   2.232   2.743  11.220 -0.4901  0.1924 -0.5168
 5419TIP3   OH237747   0.653   2.053  13.963 -0.0160  0.1815 -0.0532
 5419TIP3    H137748   0.596   1.978  13.944  1.2448 -0.5125 -1.2979
 5419TIP3    H237749   0.737   2.014  13.986  0.4703  1.2084 -0.0416
 5420TIP3   OH237750   2.668   5.617  13.316  0.2052 -0.5788 -0.1245
 5420TIP3    H137751   2.748   5.652  13.275  0.3541 -0.8227 -0.0427
 5420TIP3    H237752   2.614   5.694  13.331  1.5873 -0.0139  2.4507
 5421TIP3   OH237753   1.473   2.661   1.772  0.2755 -0.2399 -0.4721
 5421TIP3    H137754   1.555   2.700   1.804  0.7354 -1.9331  0.5295
 5421TIP3    H237755   1.463   2.581   1.823 -2.3586  0.2268 -0.1453
 5422TIP3   OH237756   2.074   0.745   5.830 -0.4438  0.3191  0.2216
 5422TIP3    H137757   1.996   0.698   5.797 -0.0070  0.5437 -1.1998
 5422TIP3    H237758   2.119   0.681   5.884  0.9576 -1.5300 -2.9054
 5423TIP3   OH237759   5.487   3.590  11.088 -0.3507  0.3533  0.0777
 5423TIP3    H137760   5.434   3.548  11.020  1.0860  0.3739 -1.1261
 5423TIP3    H237761   5.466   3.543  11.168 -1.6258 -0.1052 -0.4982
 5424TIP3   OH237762   4.822   2.701   1.576  0.2366 -0.0005 -0.2963
 5424TIP3    H137763   4.773   2.662   1.503  0.3254 -0.6075 -0.0389
 5424TIP3    H237764   4.812   2.795   1.564 -0.1699 -0.1035 -0.8083
 5425TIP3   OH237765   4.192   4.501   0.551  1.0268 -0.3829 -0.2484
 5425TIP3    H137766   4.190   4.422   0.605  0.1571  0.1686  0.5479
 5425TIP3    H237767   4.268   4.549   0.583  1.2374 -0.6300 -0.3661
 5426TIP3   OH237768   2.418   1.542  12.795  0.5412 -0.4821  0.1619
 5426TIP3    H137769   2.380   1.457  12.771 -1.4575 -0.7671  3.6700
 5426TIP3    H237770   2.359   1.606  12.755  1.2414 -0.6978 -1.3022
 5427TIP3   OH237771   4.950   1.054  15.154  0.1955  0.6048  0.2206
 5427TIP3    H137772   4.923   1.140  15.189 -0.2040  0.5168  0.1315
 5427TIP3    H237773   5.031   1.034  15.202 -0.4730  0.3688  1.2887
 5428TIP3   OH237774   5.998   3.528   6.060 -0.0582  0.2665 -0.7107
 5428TIP3    H137775   5.986   3.621   6.041  0.4729  0.5477  0.2558
 5428TIP3    H237776   6.054   3.496   5.989  0.5100  0.9008 -0.5572
 5429TIP3   OH237777   4.241   6.127   0.643 -0.7817 -0.2785  0.3573
 5429TIP3    H137778   4.232   6.054   0.582 -0.6616 -1.4183  1.6561
 5429TIP3    H237779   4.333   6.129   0.666 -0.3367  1.7152 -1.3123
 5430TIP3   OH237780   3.013   2.113  13.627  0.1179 -0.1692  0.0338
 5430TIP3    H137781   2.937   2.152  13.585  0.0852 -0.1656  0.0966
 5430TIP3    H237782   2.984   2.025  13.651 -0.3129  0.3176  1.3287
 5431TIP3   OH237783   2.776   3.719   2.563  0.1340  0.6075 -0.2148
 5431TIP3    H137784   2.861   3.675   2.561 -0.2627 -0.2565  0.5898
 5431TIP3    H237785   2.768   3.760   2.478  0.5788 -0.8371 -0.9938
 5432TIP3   OH237786   0.260   2.810   4.667 -0.8650  0.0564 -0.0037
 5432TIP3    H137787   0.330   2.746   4.665  0.2265  1.1906  0.6712
 5432TIP3    H237788   0.226   2.811   4.577  0.9640  0.5213 -0.7377
 5433TIP3   OH237789   0.624   3.158   2.559  0.2973 -0.3461 -0.1723
 5433TIP3    H137790   0.681   3.232   2.538 -0.5352  0.3279 -0.1203
 5433TIP3    H237791   0.606   3.118   2.474  0.6370 -0.4050 -0.2177
 5434TIP3   OH237792   0.254   2.965  11.873  0.2782 -0.3598 -0.2232
 5434TIP3    H137793   0.261   3.046  11.923 -2.4593 -0.3782  0.3179
 5434TIP3    H237794   0.210   2.991  11.792 -0.3705 -1.2485 -0.1640
 5435TIP3   OH237795   5.351   2.365   4.199  0.5923 -0.3452 -0.4159
 5435TIP3    H137796   5.315   2.305   4.134 -0.9488 -0.4392  0.4661
 5435TIP3    H237797   5.309   2.340   4.281  1.6617  0.4694  0.4115
 5436TIP3   OH237798   5.835   5.027  13.433 -0.5118  0.6920 -0.3441
 5436TIP3    H137799   5.851   5.016  13.339  1.0558 -0.1794 -0.0036
 5436TIP3    H237800   5.876   4.950  13.474  0.4740  1.9741  1.1992
 5437TIP3   OH237801   1.691   0.043   1.425  0.0244 -0.0131  0.4269
 5437TIP3    H137802   1.692   0.127   1.472 -1.8324  0.4157 -0.2358
 5437TIP3    H237803   1.608   0.043   1.378  1.2664 -0.9514 -1.9169
 5438TIP3   OH237804   0.804   6.024   0.256 -0.5100  0.0076 -0.1683
 5438TIP3    H137805   0.712   6.039   0.278 -0.3312  3.6493 -1.2456
 5438TIP3    H237806   0.806   6.029   0.160  0.5791 -2.0911 -0.3059
 5439TIP3   OH237807   5.245   1.999   0.732 -0.1716 -0.3846  0.5599
 5439TIP3    H137808   5.287   2.046   0.660  0.0838  1.2149  1.6898
 5439TIP3    H237809   5.290   1.915   0.737 -0.0739 -0.4430 -1.0096
 5440TIP3   OH237810   3.104   4.130   1.978  0.2909 -0.0531  0.3757
 5440TIP3    H137811   3.165   4.195   1.943 -0.3633 -1.0411 -2.9204
 5440TIP3    H237812   3.160   4.065   2.020  1.2926  0.4146 -0.1944
 5441TIP3   OH237813   6.583   0.294   2.900  0.8194 -0.3685  0.4464
 5441TIP3    H137814   6.578   0.373   2.845  0.5815 -0.1886  0.7240
 5441TIP3    H237815   6.675   0.288   2.925  0.7783  0.0067  0.6929
 5442TIP3   OH237816   1.185   6.484  16.698  0.4239  0.3511  0.2561
 5442TIP3    H137817   1.225   6.538  16.767  0.5356 -0.3844  0.7798
 5442TIP3    H237818   1.154   6.406  16.744  0.5851 -0.1973 -0.5424
 5443TIP3   OH237819   6.222   0.776  15.112  0.3399 -0.2070  0.3870
 5443TIP3    H137820   6.254   0.850  15.162  1.8702 -0.4996 -0.0866
 5443TIP3    H237821   6.258   0.789  15.024  0.8808 -1.6245  0.3652
 5444TIP3   OH237822   2.811   3.282   2.623  0.9176  0.0432  0.1817
 5444TIP3    H137823   2.827   3.329   2.704  0.9426 -0.5124  0.5022
 5444TIP3    H237824   2.725   3.312   2.594  0.4048 -0.5845  1.0033
 5445TIP3   OH237825   4.173   4.858   4.884 -0.1677 -0.1961  0.6197
 5445TIP3    H137826   4.090   4.867   4.932 -0.0722  1.0769  0.5910
 5445TIP3    H237827   4.156   4.790   4.819 -1.5995  0.8600 -0.1713
 5446TIP3   OH237828   1.901   4.254   6.821  1.0347 -0.4330 -0.0293
 5446TIP3    H137829   1.869   4.206   6.745 -0.2727  0.2620  0.0472
 5446TIP3    H237830   1.822   4.273   6.872  1.4735  1.7749 -0.0632
 5447TIP3   OH237831   2.302   6.212  13.346 -0.6195  0.5948  0.6614
 5447TIP3    H137832   2.267   6.280  13.289 -0.0574 -0.4839 -1.0318
 5447TIP3    H237833   2.273   6.238  13.434 -1.1479  2.5319 -0.0238
 5448TIP3   OH237834   4.779   2.788   2.706  0.3859  0.4099  0.3102
 5448TIP3    H137835   4.839   2.776   2.632  0.7454  0.4111  0.5965
 5448TIP3    H237836   4.827   2.753   2.781 -0.2761 -0.3007  0.4218
 5449TIP3   OH237837   0.244   5.874   2.824  0.2262 -0.2302  0.1984
 5449TIP3    H137838   0.226   5.898   2.915 -1.9779 -3.8736  0.9163
 5449TIP3    H237839   0.335   5.847   2.823  1.4759  3.3944  0.2785
 5450TIP3   OH237840   0.861   6.734  10.923  0.0202 -0.1051 -0.4262
 5450TIP3    H137841   0.929   6.794  10.893  1.1555 -1.2691 -0.2598
 5450TIP3    H237842   0.779   6.773  10.891  0.8231  0.8615 -1.3878
 5451TIP3   OH237843   4.083   3.709   3.884  0.0043 -0.1826 -0.0150
 5451TIP3    H137844   4.001   3.756   3.867  0.5226  1.4001  1.5778
 5451TIP3    H237845   4.148   3.757   3.833  0.1812 -0.5772 -0.1613
 5452TIP3   OH237846   6.248   3.827   1.664  0.9332 -0.5909 -0.6630
 5452TIP3    H137847   6.159   3.804   1.689  0.9671 -0.6415 -0.5861
 5452TIP3    H237848   6.261   3.786   1.579  0.5066  0.3389 -1.1893
 5453TIP3   OH237849   6.034   1.255   5.321 -0.8963  0.2981  0.1868
 5453TIP3    H137850   6.021   1.313   5.247 -0.5761  1.6674  1.1714
 5453TIP3    H237851   6.096   1.189   5.290  0.9702  2.1280 -0.1288
 5454TIP3   OH237852   2.974   2.106   3.205  0.3944  0.1244 -0.3374
 5454TIP3    H137853   2.911   2.167   3.167  0.4734 -0.6843 -1.8412
 5454TIP3    H237854   2.938   2.084   3.290  1.0696  3.3424  0.9273
 5455TIP3   OH237855   3.275   3.218   2.694  0.0864 -0.3030  0.1845
 5455TIP3    H137856   3.211   3.257   2.634  0.3938 -2.9572 -2.0471
 5455TIP3    H237857   3.356   3.266   2.676  0.2400 -1.2023 -1.8116
 5456TIP3   OH237858   3.069   1.898   0.335  0.0861  0.0738  0.5494
 5456TIP3    H137859   3.084   1.970   0.274 -2.1439 -0.1603 -0.3680
 5456TIP3    H237860   3.071   1.820   0.280  1.0871 -0.4625  1.3090
 5457TIP3   OH237861   1.600   3.606   2.830 -0.0690  0.6683 -0.0175
 5457TIP3    H137862   1.632   3.696   2.832  1.4338  0.1456  0.7674
 5457TIP3    H237863   1.669   3.557   2.786 -1.1176 -0.0319 -0.9277
 5458TIP3   OH237864   1.291   0.249   4.038  0.1483 -0.6450  0.2765
 5458TIP3    H137865   1.291   0.163   3.995  0.5494 -0.7898  0.5524
 5458TIP3    H237866   1.265   0.310   3.970  0.6991 -0.8829 -0.1605
 5459TIP3   OH237867   0.238   2.258  16.554  0.3019 -0.0316 -0.0287
 5459TIP3    H137868   0.206   2.174  16.520  0.1212 -0.1252  0.3598
 5459TIP3    H237869   0.264   2.238  16.644 -0.3502  0.4702  0.2774
 5460TIP3   OH237870   3.454   2.078   4.968  0.1972  0.2877 -0.0118
 5460TIP3    H137871   3.541   2.109   4.991 -0.0119  0.1229  1.0401
 5460TIP3    H237872   3.412   2.153   4.926  0.8581  0.3470 -0.5823
 5461TIP3   OH237873   2.739   3.720  14.370 -0.1985 -0.6970 -0.6975
 5461TIP3    H137874   2.794   3.787  14.330 -0.8232  0.6985  0.6197
 5461TIP3    H237875   2.790   3.688  14.445 -0.2695 -1.0369 -0.7925
 5462TIP3   OH237876   4.416   2.933   4.014 -0.5130 -0.1285 -0.0256
 5462TIP3    H137877   4.346   2.973   4.066 -0.8146 -0.1313 -0.4243
 5462TIP3    H237878   4.402   2.839   4.025  0.3247 -0.1503  1.0855
 5463TIP3   OH237879   0.587   2.003   2.348  0.2092  0.0666 -0.0910
 5463TIP3    H137880   0.549   2.013   2.260 -0.0990 -1.6058 -0.1861
 5463TIP3    H237881   0.512   1.996   2.406  0.3959 -0.1701  0.1244
 5464TIP3   OH237882   5.289   0.956   2.176  0.2930  0.2875 -0.3841
 5464TIP3    H137883   5.207   0.935   2.131  0.3294  0.0978 -0.3649
 5464TIP3    H237884   5.306   1.048   2.154  0.7350 -0.0226 -1.4393
 5465TIP3   OH237885   1.737   4.540  13.269  1.0277  0.0244 -0.2839
 5465TIP3    H137886   1.772   4.615  13.220  1.8122 -0.5973 -0.6789
 5465TIP3    H237887   1.759   4.559  13.361  0.9855  0.4018 -0.3498
 5466TIP3   OH237888   1.159   1.900  12.303  0.3815  0.3133  0.2434
 5466TIP3    H137889   1.139   1.811  12.330 -0.4168  0.8900  1.7304
 5466TIP3    H237890   1.251   1.899  12.279  0.7971 -0.6052  1.7268
 5467TIP3   OH237891   4.929   0.208  15.506  0.2513  0.4249 -0.3079
 5467TIP3    H137892   4.915   0.202  15.412 -0.3414  0.1233 -0.2080
 5467TIP3    H237893   5.013   0.165  15.521  0.3093  0.4071 -0.6902
 5468TIP3   OH237894   4.926   6.784  14.201  0.3823  0.0748  0.3224
 5468TIP3    H137895   4.924   6.728  14.278 -0.4551  0.0596  0.3028
 5468TIP3    H237896   4.839   6.825  14.198  0.6004  0.5228 -0.2825
 5469TIP3   OH237897   0.584   4.825   4.646 -0.4093  0.2229 -0.2482
 5469TIP3    H137898   0.655   4.767   4.672 -1.2106 -0.0477  1.4411
 5469TIP3    H237899   0.617   4.869   4.567  0.9629 -1.0876 -0.4497
 5470TIP3   OH237900   0.868   5.732   5.047 -0.4815 -0.4183  1.0603
 5470TIP3    H137901   0.893   5.642   5.025 -1.0071 -0.1291 -0.8960
 5470TIP3    H237902   0.794   5.722   5.107 -2.0013 -1.3762 -0.8573
 5471TIP3   OH237903   2.875   0.123  11.854  0.1838  0.4098  1.0834
 5471TIP3    H137904   2.794   0.074  11.842  0.5875 -0.1064  0.3936
 5471TIP3    H237905   2.849   0.215  11.851 -0.3316  0.2455  0.5357
 5472TIP3   OH237906   1.447   5.062  13.094 -0.1349 -0.0910  0.1986
 5472TIP3    H137907   1.445   5.021  13.007 -0.1303  0.1483  0.0870
 5472TIP3    H237908   1.383   5.011  13.145  0.2761 -0.5985  0.2214
 5473TIP3   OH237909   2.028   1.166  16.542 -0.1940 -0.4286  0.3122
 5473TIP3    H137910   2.037   1.259  16.564 -1.1121  0.3032 -2.0628
 5473TIP3    H237911   2.115   1.130  16.558  1.0236  1.5096 -1.3435
 5474TIP3   OH237912   4.897   4.676   3.453  0.0764 -0.0309 -0.3807
 5474TIP3    H137913   4.978   4.659   3.406  0.1950  0.8749 -0.5153
 5474TIP3    H237914   4.838   4.605   3.426  0.1947  0.3744 -1.7671
 5475TIP3   OH237915   1.808   2.505  16.543  0.0668 -0.6115 -0.3357
 5475TIP3    H137916   1.835   2.490  16.634 -1.0784 -0.2297  0.0852
 5475TIP3    H237917   1.869   2.572  16.511  0.1146 -0.3197  0.3396
 5476TIP3   OH237918   2.951   3.581   6.142 -0.0097 -0.3024 -0.8556
 5476TIP3    H137919   2.887   3.510   6.148 -0.0519 -0.3809 -2.0808
 5476TIP3    H237920   2.905   3.659   6.173 -0.3697 -0.5598 -0.7505
 5477TIP3   OH237921   0.370   2.847   0.656  0.3010 -0.4806 -0.4354
 5477TIP3    H137922   0.458   2.864   0.623  0.1896 -1.0971 -1.0565
 5477TIP3    H237923   0.314   2.911   0.612  0.2366 -0.9560 -1.0623
 5478TIP3   OH237924   6.223   5.515   4.222 -0.1952  0.2475 -0.2875
 5478TIP3    H137925   6.243   5.536   4.313 -0.9792 -1.9538  0.4646
 5478TIP3    H237926   6.132   5.542   4.210 -1.0155 -1.9835  0.5025
 5479TIP3   OH237927   2.878   3.857  15.217  0.2459 -0.1476  0.2059
 5479TIP3    H137928   2.850   3.943  15.186  0.2051  0.0094  0.6706
 5479TIP3    H237929   2.857   3.797  15.145 -2.8124 -0.3333  1.1067
 5480TIP3   OH237930   4.943   1.279  16.463 -0.2018 -0.9634 -0.1496
 5480TIP3    H137931   4.888   1.332  16.405 -0.0329 -0.4390  0.1621
 5480TIP3    H237932   4.882   1.222  16.508 -0.5063 -0.3719  0.2062
 5481TIP3   OH237933   3.205   4.501   5.544 -0.2691 -0.2097  0.8084
 5481TIP3    H137934   3.132   4.553   5.578 -0.8372 -1.0654  0.9297
 5481TIP3    H237935   3.206   4.423   5.598 -1.6934 -1.9991 -1.5425
 5482TIP3   OH237936   3.845   1.324   4.349  0.7319  0.1670 -0.4875
 5482TIP3    H137937   3.788   1.247   4.358  0.9720  0.0002 -0.3600
 5482TIP3    H237938   3.925   1.299   4.396  0.9561  0.3511 -0.7742
 5483TIP3   OH237939   2.477   6.071  15.822 -0.2442  0.3822  0.1566
 5483TIP3    H137940   2.538   6.133  15.782 -2.3836  0.6917 -3.0133
 5483TIP3    H237941   2.485   5.991  15.770 -1.1109 -0.2501  0.9539
 5484TIP3   OH237942   3.299   0.692  17.184  0.4510  0.2478 -0.1666
 5484TIP3    H137943   3.321   0.758  17.118  0.6287  3.9093  3.1733
 5484TIP3    H237944   3.204   0.702  17.197  0.7780  1.3964  1.7239
 5485TIP3   OH237945   0.753   6.432   5.351 -0.2360 -0.0514 -0.6304
 5485TIP3    H137946   0.719   6.351   5.313 -0.7639  0.6550 -1.7417
 5485TIP3    H237947   0.734   6.499   5.284  0.4938  0.9211  0.1101
 5486TIP3   OH237948   6.463   6.087   3.297 -0.8197 -0.7204 -0.3226
 5486TIP3    H137949   6.370   6.085   3.321 -0.7065  0.0280  0.2198
 5486TIP3    H237950   6.477   6.175   3.263 -0.0573 -0.4529  0.6507
 5487TIP3   OH237951   4.522   0.490  16.018 -0.1137 -0.7870 -0.0272
 5487TIP3    H137952   4.471   0.409  16.022 -2.8979  0.7655 -1.3573
 5487TIP3    H237953   4.607   0.463  15.981 -1.4693 -2.9074 -1.8413
 5488TIP3   OH237954   0.448   6.378   0.530  0.3955  0.2478  0.0126
 5488TIP3    H137955   0.485   6.448   0.585 -0.1997  0.2633  0.3975
 5488TIP3    H237956   0.499   6.300   0.554  0.0819  0.2339  0.6563
 5489TIP3   OH237957   2.019   4.525   2.596  0.3460 -0.1383 -0.0427
 5489TIP3    H137958   2.027   4.477   2.513  0.7935 -1.8417  0.9446
 5489TIP3    H237959   2.037   4.616   2.572  0.9087 -0.6520 -1.7403
 5490TIP3   OH237960   4.195   1.601   2.546  0.5133 -0.4152  0.5102
 5490TIP3    H137961   4.148   1.595   2.629 -4.4541  2.9109 -1.6236
 5490TIP3    H237962   4.150   1.539   2.488  0.3963  0.9627 -0.9479
 5491TIP3   OH237963   5.829   5.029  12.584  0.0366  0.9947  0.0042
 5491TIP3    H137964   5.860   5.028  12.493 -0.1430 -0.8567 -0.0831
 5491TIP3    H237965   5.738   5.056  12.578  0.0360  0.9148 -0.3655
 5492TIP3   OH237966   1.885   3.375   2.364 -0.4167  0.1416  0.5664
 5492TIP3    H137967   1.892   3.381   2.269  1.1812  2.7733  0.7491
 5492TIP3    H237968   1.810   3.318   2.379 -1.6124  0.8069 -2.2681
 5493TIP3   OH237969   3.296   6.488  11.940  0.6424  0.0091  0.0835
 5493TIP3    H137970   3.354   6.487  12.015 -0.6568 -0.1649  1.1257
 5493TIP3    H237971   3.225   6.547  11.965 -0.2374 -0.6948 -0.6503
 5494TIP3   OH237972   6.309   1.504  15.433  0.7187  0.8037  1.0538
 5494TIP3    H137973   6.281   1.531  15.345  2.0244  0.5695  0.5375
 5494TIP3    H237974   6.242   1.442  15.461  0.1949  1.0006  0.2862
 5495TIP3   OH237975   2.465   1.247  12.945  0.3133 -0.2479 -0.2328
 5495TIP3    H137976   2.487   1.298  13.023  0.1232 -0.5969  0.0500
 5495TIP3    H237977   2.550   1.216  12.913  0.4818  0.6270 -0.6802
 5496TIP3   OH237978   4.726   6.471  13.904 -0.0019 -0.5091 -0.1952
 5496TIP3    H137979   4.665   6.467  13.830  1.2908 -1.5187 -1.2613
 5496TIP3    H237980   4.763   6.559  13.899  0.8877 -0.9216 -1.4728
 5497TIP3   OH237981   3.662   2.650  13.447  0.1716  0.2230  0.2275
 5497TIP3    H137982   3.592   2.591  13.473  0.8306 -0.8217 -0.2861
 5497TIP3    H237983   3.639   2.734  13.486 -1.5489  0.0047 -0.2649
 5498TIP3   OH237984   2.481   2.414  16.484  0.0626 -0.0155  0.3747
 5498TIP3    H137985   2.544   2.478  16.451  1.1746 -0.9183  0.6745
 5498TIP3    H237986   2.402   2.465  16.501  0.7433  1.1751  0.0952
 5499TIP3   OH237987   4.916   5.587  10.551 -0.0524  0.5016 -0.1672
 5499TIP3    H137988   4.973   5.527  10.503  1.3580  1.1179  0.7136
 5499TIP3    H237989   4.965   5.612  10.628 -0.5784  2.8368 -0.5179
 5500TIP3   OH237990   6.267   4.151  14.546  0.4963 -0.8454 -0.3905
 5500TIP3    H137991   6.173   4.137  14.557  0.3000  0.5606 -0.0429
 5500TIP3    H237992   6.299   4.070  14.506 -0.7531 -1.5822  0.0295
 5501TIP3   OH237993   1.124   2.594  11.729  0.2392  0.1636  0.0543
 5501TIP3    H137994   1.155   2.668  11.782 -0.5461  0.8765 -0.4529
 5501TIP3    H237995   1.189   2.587  11.659  0.3602  0.3216  0.1472
 5502TIP3   OH237996   3.606   4.097  11.756 -0.2819  0.2597 -0.3127
 5502TIP3    H137997   3.511   4.091  11.742 -0.1560  0.3524 -1.2753
 5502TIP3    H237998   3.636   4.159  11.689  0.2936  1.2266  0.7997
 5503TIP3   OH237999   5.833   1.163   5.499 -0.2443 -0.8719 -0.6490
 5503TIP3    H138000   5.784   1.232   5.543  0.2318 -1.8580  1.5773
 5503TIP3    H238001   5.894   1.209   5.442  0.7876  0.6567  1.5543
 5504TIP3   OH238002   3.886   5.285  11.073 -0.0162 -0.2861  0.1202
 5504TIP3    H138003   3.932   5.205  11.045 -1.3229 -0.8644 -0.4291
 5504TIP3    H238004   3.940   5.356  11.037  1.3631 -0.8768  0.9231
 5505TIP3   OH238005   2.154   3.447  12.244  0.3833 -0.0711  0.1780
 5505TIP3    H138006   2.120   3.536  12.236  1.5027  0.3550 -0.0552
 5505TIP3    H238007   2.090   3.393  12.198 -1.6503  0.2426  2.4702
 5506TIP3   OH238008   3.024   3.779   5.173 -0.3549 -0.3561  0.3947
 5506TIP3    H138009   2.984   3.824   5.248 -1.0393  0.7417 -0.5916
 5506TIP3    H238010   2.954   3.725   5.137 -0.2431 -0.3284  0.1332
 5507TIP3   OH238011   5.848   1.579  12.806 -0.1097  0.0279  0.0065
 5507TIP3    H138012   5.797   1.524  12.746 -0.9427  1.5053 -0.6992
 5507TIP3    H238013   5.795   1.657  12.817  0.9359  0.6008  1.1729
 5508TIP3   OH238014   1.728   3.063   5.512 -0.2829 -0.3346 -0.4860
 5508TIP3    H138015   1.764   2.974   5.514  0.0146 -0.1971  0.5246
 5508TIP3    H238016   1.694   3.072   5.423 -1.0278 -1.7338 -0.3717
 5509TIP3   OH238017   2.370   0.071  16.271 -0.2323 -0.0313 -0.7050
 5509TIP3    H138018   2.296   0.037  16.221 -0.5854  0.9176 -0.8559
 5509TIP3    H238019   2.334   0.094  16.357  0.2657 -1.1826 -0.1770
 5510TIP3   OH238020   3.173   2.438   6.388 -0.4367  0.3571 -0.4289
 5510TIP3    H138021   3.083   2.405   6.393 -0.5837  0.9281  1.0455
 5510TIP3    H238022   3.227   2.359   6.384 -0.9190 -0.0341  0.4453
 5511TIP3   OH238023   0.358   2.578   3.395 -0.1179 -0.2866  0.0529
 5511TIP3    H138024   0.314   2.622   3.322  1.7894 -1.1353 -1.7013
 5511TIP3    H238025   0.333   2.486   3.387  2.3347 -0.9299 -1.4163
 5512TIP3   OH238026   1.580   2.632   0.049 -0.0211  0.1537  0.2276
 5512TIP3    H138027   1.651   2.686   0.084 -0.0509  0.4689 -0.1918
 5512TIP3    H238028   1.520   2.695   0.007 -0.6165 -0.0922  0.6930
 5513TIP3   OH238029   4.761   1.827   3.322  0.1771  0.3427  0.5427
 5513TIP3    H138030   4.724   1.890   3.260  0.4698 -0.8098 -0.8484
 5513TIP3    H238031   4.803   1.761   3.267  1.4868 -0.1001  2.0044
 5514TIP3   OH238032   0.662   2.519   5.634  0.3519 -0.0741 -0.5964
 5514TIP3    H138033   0.654   2.613   5.616 -1.4565 -0.2965 -1.1670
 5514TIP3    H238034   0.688   2.514   5.726  1.7890  0.9803 -0.9070
 5515TIP3   OH238035   5.925   5.587  14.705  0.3572 -0.1161  0.3064
 5515TIP3    H138036   6.011   5.585  14.745  0.9516  1.5398 -0.7806
 5515TIP3    H238037   5.918   5.674  14.666 -2.0167 -0.0100  0.7889
 5516TIP3   OH238038   1.885   2.264  15.986 -0.1741  0.7052 -0.0473
 5516TIP3    H138039   1.955   2.233  16.043 -2.1134 -1.4558  1.3456
 5516TIP3    H238040   1.914   2.241  15.897  0.1438 -1.8990  0.6484
 5517TIP3   OH238041   6.758   3.879  15.937  0.3957 -0.1339 -0.1928
 5517TIP3    H138042   6.707   3.928  15.872 -0.6898 -0.7366  0.1763
 5517TIP3    H238043   6.700   3.873  16.013 -0.0171 -2.9926 -0.6138
 5518TIP3   OH238044   2.562   4.131  16.539 -0.1821  0.1822 -0.0908
 5518TIP3    H138045   2.506   4.057  16.513 -2.0589  0.8116  1.9273
 5518TIP3    H238046   2.631   4.132  16.473 -1.4082 -1.9075 -1.5348
 5519TIP3   OH238047   5.754   3.033   2.189 -0.0575  0.1215  0.6574
 5519TIP3    H138048   5.831   2.977   2.186 -0.1702 -0.0234  0.4499
 5519TIP3    H238049   5.745   3.056   2.282 -0.2188 -0.4945  0.7966
 5520TIP3   OH238050   5.804   5.322  13.956  0.3813  0.1980 -0.3960
 5520TIP3    H138051   5.784   5.233  13.927 -2.0693  0.7253 -0.5613
 5520TIP3    H238052   5.751   5.334  14.035  0.0389  1.7637 -0.8290
 5521TIP3   OH238053   6.668   6.594   2.674 -0.1861 -0.1539  0.6759
 5521TIP3    H138054   6.705   6.652   2.740  1.3040 -0.2095 -0.0675
 5521TIP3    H238055   6.587   6.637   2.646 -0.4468  0.2433  1.9671
 5522TIP3   OH238056   6.282   4.646   5.061 -0.4175 -0.1959 -0.0798
 5522TIP3    H138057   6.332   4.692   5.128  0.0158 -0.3332 -0.3093
 5522TIP3    H238058   6.348   4.606   5.004 -0.7458  1.1616 -1.4699
 5523TIP3   OH238059   4.480   5.232  12.964  0.0916  0.2346 -0.1971
 5523TIP3    H138060   4.407   5.170  12.974  1.0250 -0.6787  1.3157
 5523TIP3    H238061   4.437   5.317  12.950 -1.3313 -0.1025  1.6888
 5524TIP3   OH238062   6.213   6.703   2.106  0.2075  0.4777 -0.6402
 5524TIP3    H138063   6.247   6.626   2.059  2.5859 -0.7388  2.6848
 5524TIP3    H238064   6.230   6.776   2.047 -0.2351 -1.2377 -3.0839
 5525TIP3   OH238065   4.670   5.808   1.916 -0.3998 -0.4251  0.5047
 5525TIP3    H138066   4.578   5.833   1.905 -0.7718 -1.7969  0.3075
 5525TIP3    H238067   4.695   5.769   1.833  0.9230  1.4923 -0.0693
 5526TIP3   OH238068   2.273   4.346  14.959  0.1860 -0.0837  0.1880
 5526TIP3    H138069   2.270   4.418  14.895 -1.2119  0.8529  1.2490
 5526TIP3    H238070   2.345   4.369  15.018  0.8424 -0.4515 -0.4511
 5527TIP3   OH238071   5.663   3.302  15.796  0.0981  0.4855 -0.4676
 5527TIP3    H138072   5.650   3.311  15.890 -0.7176  0.2161 -0.5472
 5527TIP3    H238073   5.575   3.292  15.760  0.4528 -0.2177 -1.1790
 5528TIP3   OH238074   5.392   1.015  12.705 -0.0902 -0.4287 -0.6398
 5528TIP3    H138075   5.452   0.941  12.702 -0.3361 -0.6491 -0.3091
 5528TIP3    H238076   5.403   1.051  12.794 -0.0910 -0.1703 -0.7426
 5529TIP3   OH238077   0.600   3.143   1.479  0.0201  0.1842  0.0241
 5529TIP3    H138078   0.627   3.099   1.559 -0.6917 -0.5891 -0.1399
 5529TIP3    H238079   0.631   3.087   1.409 -0.2753  0.3140 -0.2141
 5530TIP3   OH238080   5.593   3.324  12.640  1.1708 -0.1143 -0.4535
 5530TIP3    H138081   5.557   3.392  12.582  0.6790 -2.2181 -2.7587
 5530TIP3    H238082   5.517   3.290  12.686  0.9604 -0.9429 -1.3764
 5531TIP3   OH238083   6.321   2.232   3.674  0.1640 -0.8776  0.0782
 5531TIP3    H138084   6.233   2.263   3.652 -0.0080 -1.6954 -0.4191
 5531TIP3    H238085   6.313   2.197   3.763  0.4434  0.7786  0.7973
 5532TIP3   OH238086   3.864   5.636   4.414  0.1417  0.0256 -0.1325
 5532TIP3    H138087   3.932   5.618   4.349 -0.4000  0.4477 -0.8317
 5532TIP3    H238088   3.782   5.610   4.371 -0.6574  3.4684 -1.0173
 5533TIP3   OH238089   2.077   0.050   1.187 -0.5549  0.3497 -0.3238
 5533TIP3    H138090   2.024   0.019   1.261 -0.6776 -1.9521 -1.3091
 5533TIP3    H238091   2.022   0.035   1.110 -0.6462  3.2014 -0.9332
 5534TIP3   OH238092   2.467   0.083  11.165  0.5418 -0.2839 -0.2654
 5534TIP3    H138093   2.407   0.023  11.209  1.5549 -2.2531 -1.3709
 5534TIP3    H238094   2.553   0.063  11.203  0.7486  1.3672  0.1959
 5535TIP3   OH238095   5.340   0.425  13.448  0.1143  0.1633 -0.2011
 5535TIP3    H138096   5.354   0.355  13.384  0.4175  0.7023 -0.7350
 5535TIP3    H238097   5.252   0.458  13.430 -1.1516 -1.8402  1.8039
 5536TIP3   OH238098   1.761   6.566  13.890 -0.3100 -0.3136  0.2055
 5536TIP3    H138099   1.728   6.494  13.945 -1.9721  0.3593  0.1428
 5536TIP3    H238100   1.703   6.639  13.910  0.7188  0.7227 -0.5040
 5537TIP3   OH238101   2.941   5.694  16.828 -0.5941  0.8971 -0.1221
 5537TIP3    H138102   3.007   5.702  16.897  0.0713  0.9596 -0.7660
 5537TIP3    H238103   2.967   5.757  16.761 -0.5725  0.0301 -0.9562
 5538TIP3   OH238104   3.403   6.526  12.451  0.5914  0.1083 -0.6893
 5538TIP3    H138105   3.451   6.606  12.473  1.0342  0.0475 -1.4302
 5538TIP3    H238106   3.390   6.483  12.536 -0.7972  1.5755 -0.0903
 5539TIP3   OH238107   5.658   3.740  10.802 -0.4677 -0.4798 -0.3969
 5539TIP3    H138108   5.631   3.685  10.876 -0.0411 -0.6888 -0.3972
 5539TIP3    H238109   5.617   3.825  10.820  1.8151  0.3157  1.4996
 5540TIP3   OH238110   4.253   3.052   5.764 -0.1417 -0.3581 -0.1742
 5540TIP3    H138111   4.189   3.119   5.740  1.6886  2.3779  1.8981
 5540TIP3    H238112   4.204   2.991   5.820 -1.4355  0.3524 -0.4955
 5541TIP3   OH238113   3.645   6.656  17.172 -0.0972  0.2011  0.0217
 5541TIP3    H138114   3.575   6.656  17.237 -1.7346 -2.9481 -1.5189
 5541TIP3    H238115   3.614   6.715  17.103 -1.0499 -0.7405 -0.3900
 5542TIP3   OH238116   6.314   4.812  11.405 -0.2175  0.1131 -0.0026
 5542TIP3    H138117   6.318   4.763  11.322 -0.8286  2.1132 -1.2670
 5542TIP3    H238118   6.343   4.900  11.383  0.6331  0.4461  2.1693
 5543TIP3   OH238119   4.618   2.519  13.695 -0.7978  0.1686  0.4638
 5543TIP3    H138120   4.608   2.584  13.765 -0.3769 -0.0248  0.7091
 5543TIP3    H238121   4.707   2.534  13.662 -0.6266 -0.4006  0.6518
 5544TIP3   OH238122   2.791   0.991   3.575 -0.2553  0.1596 -0.3393
 5544TIP3    H138123   2.882   0.999   3.547  0.0643  0.6730  0.7925
 5544TIP3    H238124   2.740   0.999   3.494  0.5245  3.4375 -0.6351
 5545TIP3   OH238125   3.388   2.993   2.615  0.0009 -0.5829 -0.3461
 5545TIP3    H138126   3.468   3.017   2.568 -0.6143 -1.1960 -1.7625
 5545TIP3    H238127   3.344   3.076   2.631  0.0247 -0.3843 -1.2518
 5546TIP3   OH238128   4.061   6.214  14.039 -0.4895  0.1239  0.4494
 5546TIP3    H138129   3.974   6.208  14.080  0.2296  0.7326  2.1763
 5546TIP3    H238130   4.112   6.145  14.081  0.3011  0.8153  0.6437
 5547TIP3   OH238131   4.815   6.707   3.574 -0.3709 -0.2533  0.3063
 5547TIP3    H138132   4.796   6.800   3.562 -0.2874 -0.1508  0.9538
 5547TIP3    H238133   4.742   6.662   3.530 -0.4157  0.1115  0.0000
 5548TIP3   OH238134   2.897   3.338  16.004  0.6465 -0.0675 -0.0524
 5548TIP3    H138135   2.892   3.398  16.079  1.2894 -1.5545  1.2376
 5548TIP3    H238136   2.869   3.254  16.039 -2.8913 -0.1041 -2.4309
 5549TIP3   OH238137   6.698   5.874  15.875 -0.0395  0.3276  0.1700
 5549TIP3    H138138   6.727   5.804  15.934 -0.1177  0.0872 -0.0752
 5549TIP3    H238139   6.748   5.860  15.795  0.3382  0.8790  0.3085
 5550TIP3   OH238140   1.445   2.704  14.422  0.8405 -0.2428 -0.3179
 5550TIP3    H138141   1.485   2.646  14.486  1.1522  0.3071 -0.0070
 5550TIP3    H238142   1.430   2.649  14.345 -1.4890 -1.4686  0.9053
 5551TIP3   OH238143   4.374   4.194  15.397 -0.2790 -0.5871 -0.0289
 5551TIP3    H138144   4.279   4.203  15.386 -0.0465  0.7889 -1.1259
 5551TIP3    H238145   4.403   4.280  15.425  0.6049 -1.1526  0.8613
 5552TIP3   OH238146   0.814   4.953  15.596 -0.1552  0.0670  0.6415
 5552TIP3    H138147   0.738   4.907  15.560  0.2536  1.0355 -1.6669
 5552TIP3    H238148   0.784   4.987  15.680 -1.4806 -1.6202  0.9020
 5553TIP3   OH238149   5.185   0.389   1.534  0.2723 -0.0050 -0.1992
 5553TIP3    H138150   5.239   0.452   1.583 -0.1333  0.7141 -0.6672
 5553TIP3    H238151   5.237   0.368   1.456  0.3732 -0.2089 -0.0810
 5554TIP3   OH238152   6.224   0.423   3.042  0.5581 -0.3993  0.4679
 5554TIP3    H138153   6.297   0.484   3.037  1.1715 -1.0856  0.8006
 5554TIP3    H238154   6.146   0.478   3.041  1.0919  0.3741  0.6209
 5555TIP3   OH238155   6.447   6.540   4.095  0.5088 -0.4555  0.1024
 5555TIP3    H138156   6.439   6.630   4.063  0.2710  0.3505  2.2387
 5555TIP3    H238157   6.411   6.543   4.184  3.6804 -1.8358  1.6170
 5556TIP3   OH238158   3.963   1.613  16.577  0.0199 -0.6060  0.8187
 5556TIP3    H138159   4.023   1.561  16.524 -0.6738 -0.4513 -0.1383
 5556TIP3    H238160   3.986   1.591  16.667  1.9187 -0.0921  0.4984
 5557TIP3   OH238161   3.381   1.712   2.370 -0.2696  0.0916  0.8926
 5557TIP3    H138162   3.454   1.672   2.419 -0.9189  1.2183  2.9310
 5557TIP3    H238163   3.303   1.688   2.421 -0.8427  2.4365  1.2478
 5558TIP3   OH238164   4.477   1.588  11.297  0.2099 -0.4582 -0.2169
 5558TIP3    H138165   4.524   1.564  11.216 -0.0951 -1.0901 -0.2116
 5558TIP3    H238166   4.476   1.684  11.296  1.4912 -0.4268 -0.2245
 5559TIP3   OH238167   5.464   1.244   3.632 -0.2842 -0.1530  0.1160
 5559TIP3    H138168   5.446   1.159   3.671  1.6887 -0.8161 -0.2821
 5559TIP3    H238169   5.387   1.264   3.578 -0.7260 -1.7352  0.1336
 5560TIP3   OH238170   4.741   2.967  10.562 -0.4639  0.3285 -0.0284
 5560TIP3    H138171   4.740   3.061  10.544 -0.6353  0.2049 -0.6817
 5560TIP3    H238172   4.800   2.958  10.637 -0.3240  0.9393 -0.0571
 5561TIP3   OH238173   2.739   5.865   0.608  0.1915  0.2653  0.1799
 5561TIP3    H138174   2.666   5.907   0.653 -1.7721 -0.6570 -1.9415
 5561TIP3    H238175   2.712   5.773   0.599  0.1088  0.5011 -3.3137
 5562TIP3   OH238176   0.543   3.919  13.940  0.1957  0.2759  0.6695
 5562TIP3    H138177   0.553   3.824  13.935  1.8308  0.4480 -0.0959
 5562TIP3    H238178   0.589   3.952  13.863 -2.7057  1.6003 -0.6730
 5563TIP3   OH238179   3.726   1.216   2.087 -0.1523 -0.2499 -0.0601
 5563TIP3    H138180   3.634   1.236   2.106 -0.0877 -0.5842  0.6704
 5563TIP3    H238181   3.736   1.125   2.113 -0.0121 -0.7214 -1.7012
 5564TIP3   OH238182   5.200   1.466  15.114 -0.1128  0.0236 -0.3074
 5564TIP3    H138183   5.218   1.413  15.036  1.3627  2.0537 -1.4529
 5564TIP3    H238184   5.250   1.424  15.183  2.3274  0.7143 -1.5432
 5565TIP3   OH238185   5.350   3.326  14.874 -0.3433  0.0863 -0.1585
 5565TIP3    H138186   5.423   3.271  14.846 -0.2407  0.6980 -1.1389
 5565TIP3    H238187   5.273   3.270  14.868  0.2087 -1.0841  2.4802
 5566TIP3   OH238188   6.769   1.948   4.441  0.3537  0.0718 -0.5507
 5566TIP3    H138189   6.705   2.017   4.420  1.1761  0.2534 -2.6871
 5566TIP3    H238190   6.717   1.869   4.448 -0.1651  0.2363 -2.1689
 5567TIP3   OH238191   0.248   4.374  14.662 -0.9465  0.4253 -0.1576
 5567TIP3    H138192   0.299   4.334  14.733 -3.9255 -2.5491  0.5772
 5567TIP3    H238193   0.226   4.461  14.695 -1.3531 -0.4880  2.2065
 5568TIP3   OH238194   5.927   4.653  10.605 -0.3834 -0.6981 -0.3361
 5568TIP3    H138195   5.869   4.705  10.549  0.8438  0.1516 -0.8766
 5568TIP3    H238196   5.978   4.600  10.543 -1.3728 -2.3431  0.1936
 5569TIP3   OH238197   2.241   6.602  13.534 -0.1610  0.1212 -0.1933
 5569TIP3    H138198   2.205   6.518  13.505  0.2032  0.0054 -0.3134
 5569TIP3    H238199   2.315   6.578  13.589 -0.0441  0.3653 -0.2459
 5570TIP3   OH238200   5.474   2.803   2.473  0.1737 -0.0914 -0.1718
 5570TIP3    H138201   5.464   2.797   2.568 -0.1178  0.4336 -0.1632
 5570TIP3    H238202   5.568   2.811   2.459  0.1793  0.3887  0.1147
 5571TIP3   OH238203   1.293   1.771  12.645 -0.5758  0.2670  0.4380
 5571TIP3    H138204   1.274   1.691  12.693 -0.5855  0.7353  1.2548
 5571TIP3    H238205   1.296   1.745  12.553 -0.1080 -0.7507  0.7247
 5572TIP3   OH238206   0.914   4.482  13.252  0.1729 -0.8451  0.5962
 5572TIP3    H138207   0.982   4.499  13.187 -0.1189 -0.3535  0.4147
 5572TIP3    H238208   0.921   4.556  13.313 -1.0171 -0.1099 -0.1169
 5573TIP3   OH238209   1.849   6.060  15.043 -0.5615 -0.8446  0.4918
 5573TIP3    H138210   1.929   6.022  15.078 -2.1483 -2.3518  2.7111
 5573TIP3    H238211   1.831   6.135  15.099  0.7102  1.3191 -1.7698
 5574TIP3   OH238212   6.519   3.846  16.057 -0.0041  0.6235  0.6158
 5574TIP3    H138213   6.479   3.881  16.136  0.9274  2.0996  0.4705
 5574TIP3    H238214   6.449   3.846  15.992 -0.3765  0.9148  1.0174
 5575TIP3   OH238215   3.272   1.071   4.801 -0.4769  0.2415 -0.1869
 5575TIP3    H138216   3.239   1.064   4.712  0.3137 -1.1358 -0.3995
 5575TIP3    H238217   3.230   0.999   4.848  0.0873  0.1787  0.2300
 5576TIP3   OH238218   0.632   3.679  12.186 -0.7965  0.8946 -0.3029
 5576TIP3    H138219   0.623   3.650  12.276  0.3214  0.4269 -0.3312
 5576TIP3    H238220   0.595   3.768  12.185  0.7515  1.5846  0.9924
 5577TIP3   OH238221   4.092   3.459  14.697 -0.4537 -0.1594  0.6554
 5577TIP3    H138222   4.074   3.442  14.605 -1.9847  0.6417  0.7665
 5577TIP3    H238223   4.032   3.400  14.744 -1.1824  0.8877  1.0837
 5578TIP3   OH238224   0.483   3.631   3.047 -0.1193  0.4233  0.0784
 5578TIP3    H138225   0.398   3.621   3.091 -0.2024  0.1261 -0.1420
 5578TIP3    H238226   0.518   3.542   3.045 -0.1331  0.4323 -0.4885
 5579TIP3   OH238227   3.013   4.559   5.053 -0.3995  0.8996  0.6900
 5579TIP3    H138228   2.971   4.641   5.025 -1.1534  0.8000  1.4850
 5579TIP3    H238229   2.941   4.507   5.091  0.0775 -0.1070  0.2642
 5580TIP3   OH238230   5.508   0.395   2.118 -0.1435 -0.3953  0.0333
 5580TIP3    H138231   5.432   0.411   2.062  0.1451 -1.0037 -0.5412
 5580TIP3    H238232   5.580   0.377   2.058  0.2712 -0.6455  0.5872
 5581TIP3   OH238233   4.423   2.898  13.843 -0.2047 -0.1223 -0.1220
 5581TIP3    H138234   4.444   2.921  13.753  2.3946 -1.1529  0.1279
 5581TIP3    H238235   4.433   2.980  13.892 -0.1088  0.1112 -0.5292
 5582TIP3   OH238236   0.914   3.016  12.014  0.3531 -0.6366 -0.1991
 5582TIP3    H138237   0.878   3.089  11.963 -0.0854  1.2014  2.5506
 5582TIP3    H238238   1.007   3.017  11.994  0.0958 -0.4510 -1.4922
 5583TIP3   OH238239   6.050   3.009   4.608 -0.2024 -0.3154 -0.1116
 5583TIP3    H138240   6.144   3.028   4.607 -0.0715 -0.9403 -0.5778
 5583TIP3    H238241   6.020   3.042   4.692  0.0939  1.4313 -0.6554
 5584TIP3   OH238242   1.142   4.476   4.619 -0.3518  0.7698  0.4147
 5584TIP3    H138243   1.230   4.515   4.614  1.3806 -2.6246  1.0081
 5584TIP3    H238244   1.130   4.432   4.535  1.5008 -3.9932  2.2477
 5585TIP3   OH238245   4.591   2.421   4.333  0.4085 -0.1561 -0.3667
 5585TIP3    H138246   4.579   2.512   4.308  0.2949 -0.3224 -0.9315
 5585TIP3    H238247   4.686   2.410   4.343  0.4026  0.0884 -0.0340
 5586TIP3   OH238248   4.128   5.752  17.038  0.1042  0.2042 -0.0326
 5586TIP3    H138249   4.094   5.824  17.090  2.0179  1.6720 -0.6823
 5586TIP3    H238250   4.206   5.722  17.085 -0.4597 -1.2443  0.0452
 5587TIP3   OH238251   4.713   4.126   2.383 -0.2327 -0.6342  0.2265
 5587TIP3    H138252   4.648   4.092   2.446 -1.3173 -0.1181 -0.5831
 5587TIP3    H238253   4.787   4.066   2.392 -1.6227 -2.5472 -0.3067
 5588TIP3   OH238254   3.837   5.377  11.780 -0.0612 -0.0500 -0.6207
 5588TIP3    H138255   3.844   5.295  11.830 -0.2960  0.9921  1.1730
 5588TIP3    H238256   3.926   5.393  11.749  0.6504  0.5246  1.5530
 5589TIP3   OH238257   4.338   5.287   6.565 -0.2829  0.5249  0.3623
 5589TIP3    H138258   4.329   5.312   6.657  2.5852 -0.7153  1.0977
 5589TIP3    H238259   4.319   5.194   6.563  1.6392  0.0992  0.1456
 5590TIP3   OH238260   1.392   5.756  12.333  0.2992  0.1515  0.1488
 5590TIP3    H138261   1.337   5.834  12.328  1.2739  0.7935 -0.8917
 5590TIP3    H238262   1.411   5.747  12.427 -1.0796  0.2486  0.4571
 5591TIP3   OH238263   0.894   4.332   0.668  0.7020 -0.4929  0.0167
 5591TIP3    H138264   0.846   4.297   0.743 -0.8417  0.0346 -0.6901
 5591TIP3    H238265   0.978   4.285   0.669  0.1457 -1.5147  1.2228
 5592TIP3   OH238266   6.183   0.008   2.643 -0.4284  0.4686  0.5311
 5592TIP3    H138267   6.183   0.079   2.579 -4.4468  0.7576  0.6099
 5592TIP3    H238268   6.155   0.049   2.725 -2.0033 -0.9854  0.7867
 5593TIP3   OH238269   0.087   1.437   4.985  0.2049  0.1443  0.2207
 5593TIP3    H138270   0.162   1.378   4.987 -0.8560 -1.4039 -1.9979
 5593TIP3    H238271   0.011   1.380   4.969 -1.0849  1.9251 -0.4149
 5594TIP3   OH238272   0.561   3.050  16.346  0.3872  0.0892 -0.1937
 5594TIP3    H138273   0.556   3.085  16.257 -0.0369  0.4981 -0.0084
 5594TIP3    H238274   0.499   3.101  16.396  1.3746  0.5683  0.5830
 5595TIP3   OH238275   4.593   3.987   1.009 -0.3088 -0.2636  0.6598
 5595TIP3    H138276   4.622   4.076   1.030  1.2169 -0.6032  0.1355
 5595TIP3    H238277   4.607   3.978   0.915 -0.9525 -0.8813  0.6170
 5596TIP3   OH238278   0.964   6.053   4.274 -0.6052  0.7304 -0.1524
 5596TIP3    H138279   1.035   6.071   4.212 -0.6495  0.6424 -0.2294
 5596TIP3    H238280   0.941   5.961   4.258  0.5945  0.1519  1.2271
 5597TIP3   OH238281   6.446   5.598  10.757  0.1503 -0.4326  0.2898
 5597TIP3    H138282   6.377   5.662  10.773  1.9481  2.1907 -1.4156
 5597TIP3    H238283   6.404   5.528  10.707 -1.8598 -0.5578  2.0433
 5598TIP3   OH238284   5.517   4.528   5.071  0.1815 -0.1156  0.1440
 5598TIP3    H138285   5.473   4.459   5.120  1.1623 -0.9802 -0.1748
 5598TIP3    H238286   5.556   4.584   5.137 -0.3063 -0.0617  0.3928
 5599TIP3   OH238287   3.496   3.867   3.141 -0.3210 -0.5376  0.6578
 5599TIP3    H138288   3.551   3.854   3.218 -0.5603  1.5969  1.2346
 5599TIP3    H238289   3.440   3.941   3.164 -3.9210 -2.9126  0.3767
 5600TIP3   OH238290   6.580   4.368  15.543  0.0775 -0.2501  0.1508
 5600TIP3    H138291   6.610   4.434  15.481  1.8803 -0.1146  1.0971
 5600TIP3    H238292   6.585   4.412  15.628 -2.6735 -0.3179  0.4253
 5601TIP3   OH238293   2.507   0.849  14.124 -0.1629 -0.4215  0.3543
 5601TIP3    H138294   2.490   0.899  14.044 -1.2237  0.3447  1.0447
 5601TIP3    H238295   2.555   0.772  14.094 -1.3246 -0.5919 -1.1375
 5602TIP3   OH238296   2.094   1.766  13.039  0.2913 -0.0623 -0.7486
 5602TIP3    H138297   2.045   1.838  13.081  0.4308 -0.7544  0.6641
 5602TIP3    H238298   2.168   1.751  13.098 -0.0304 -1.7151 -0.7284
 5603TIP3   OH238299   4.097   0.801   1.172 -0.3585  0.4297  0.5783
 5603TIP3    H138300   4.027   0.858   1.205 -0.2115  0.2401  1.2241
 5603TIP3    H238301   4.137   0.763   1.250 -0.6206 -0.7698  0.1524
 5604TIP3   OH238302   2.596   2.400  10.705 -0.1957 -0.0046 -0.3182
 5604TIP3    H138303   2.667   2.361  10.654 -1.3142  0.8113 -2.6143
 5604TIP3    H238304   2.519   2.346  10.684 -0.9725  1.1922 -0.6381
 5605TIP3   OH238305   1.592   5.275  13.575 -0.7134  0.4666 -0.1134
 5605TIP3    H138306   1.668   5.251  13.522 -1.8029 -0.6291 -1.2722
 5605TIP3    H238307   1.585   5.370  13.566  0.6617  0.6193  0.2487
 5606TIP3   OH238308   0.743   6.142  11.442 -0.1520 -0.4297  0.3924
 5606TIP3    H138309   0.798   6.084  11.390 -1.1148 -1.2389  0.2445
 5606TIP3    H238310   0.691   6.084  11.497 -0.7940  0.3110  0.5971
 5607TIP3   OH238311   3.246   2.787   1.279 -0.6120  0.0488 -0.1717
 5607TIP3    H138312   3.152   2.801   1.269 -0.8592 -0.4268  1.2730
 5607TIP3    H238313   3.253   2.704   1.326  0.6006 -0.8315 -1.7867
 5608TIP3   OH238314   0.141   5.003  11.297 -0.6825  0.0091 -0.4050
 5608TIP3    H138315   0.190   4.922  11.283  0.4802  0.8355 -1.3684
 5608TIP3    H238316   0.195   5.071  11.257 -1.9023  1.1898 -0.1361
 5609TIP3   OH238317   5.201   0.791  14.069 -0.0109  0.4777  0.6202
 5609TIP3    H138318   5.143   0.857  14.031 -0.1668  0.6610  1.1776
 5609TIP3    H238319   5.151   0.710  14.066  1.2435 -0.3456 -2.9029
 5610TIP3   OH238320   3.216   0.338  14.218  0.2689 -0.6690  0.3479
 5610TIP3    H138321   3.302   0.297  14.225  0.2096 -1.0312 -0.8313
 5610TIP3    H238322   3.167   0.305  14.293  1.0698 -0.6662  0.8854
 5611TIP3   OH238323   6.580   5.793   5.706 -0.1002 -0.9374  0.1845
 5611TIP3    H138324   6.577   5.852   5.631 -1.8948 -0.1560  0.8141
 5611TIP3    H238325   6.606   5.849   5.779 -0.9449 -1.1154  0.6263
 5612TIP3   OH238326   0.464   5.374   2.209 -0.4067 -0.4987 -0.1147
 5612TIP3    H138327   0.491   5.375   2.117 -0.8620 -0.7567 -0.2527
 5612TIP3    H238328   0.421   5.459   2.222  0.9451  0.1648  0.2611
 5613TIP3   OH238329   1.877   6.549   5.289  0.7301 -0.5957  0.8852
 5613TIP3    H138330   1.948   6.580   5.345  0.7919 -0.3147  0.6528
 5613TIP3    H238331   1.904   6.461   5.263  0.0219 -1.3410  2.4837
 5614TIP3   OH238332   0.940   0.124   0.180 -0.0476  0.3591 -0.8668
 5614TIP3    H138333   1.032   0.126   0.209 -0.3719  0.6292  0.2077
 5614TIP3    H238334   0.936   0.190   0.111  1.2543 -1.8494 -3.2018
 5615TIP3   OH238335   1.458   6.254   3.244  0.7862 -0.0080 -0.2643
 5615TIP3    H138336   1.456   6.201   3.324  1.8037 -0.6732 -0.6609
 5615TIP3    H238337   1.406   6.332   3.266  1.2811 -0.0430  1.1428
 5616TIP3   OH238338   4.327   0.744   5.013  0.3566 -0.5884 -0.2294
 5616TIP3    H138339   4.366   0.676   4.959 -0.3888  0.6949 -2.5247
 5616TIP3    H238340   4.364   0.826   4.979 -0.4239  0.3100  0.9804
 5617TIP3   OH238341   6.298   1.861  14.511  0.4565  0.7141 -0.2750
 5617TIP3    H138342   6.299   1.845  14.605  0.3025  1.0121 -0.2225
 5617TIP3    H238343   6.380   1.822  14.480  1.7310  2.7377  0.3469
 5618TIP3   OH238344   1.087   2.012   5.576  1.0822 -0.6634 -0.1659
 5618TIP3    H138345   1.170   2.040   5.537  1.0823 -0.9908 -0.4038
 5618TIP3    H238346   1.113   1.959   5.652  1.1336 -2.1928 -1.2062
 5619TIP3   OH238347   4.025   2.249  12.770  0.0751  1.1208 -0.1349
 5619TIP3    H138348   3.985   2.165  12.794 -1.3281  1.6722 -0.4158
 5619TIP3    H238349   4.119   2.235  12.780 -0.0962 -0.6352 -0.6843
 5620TIP3   OH238350   1.730   3.534  11.353 -0.4324  0.2388  0.0501
 5620TIP3    H138351   1.762   3.495  11.271  0.9821  0.0851  0.6401
 5620TIP3    H238352   1.647   3.574  11.330  0.4319  1.1417 -1.7275
 5621TIP3   OH238353   4.544   0.147  14.870 -0.0258  0.0512 -0.2134
 5621TIP3    H138354   4.566   0.166  14.962  1.3858 -0.0506 -0.5067
 5621TIP3    H238355   4.450   0.161  14.865 -0.2218 -0.4782  1.3835
 5622TIP3   OH238356   4.589   6.512   6.721  0.2425  0.3624 -0.1295
 5622TIP3    H138357   4.499   6.513   6.754  0.7827  1.7609  1.4209
 5622TIP3    H238358   4.601   6.599   6.683  0.6294 -0.1814 -1.2848
 5623TIP3   OH238359   6.003   0.111  15.760  0.3430  0.4315 -0.0051
 5623TIP3    H138360   6.067   0.046  15.789  1.3238  0.4567 -1.9163
 5623TIP3    H238361   6.056   0.184  15.729 -0.4288 -0.1749 -3.1462
 5624TIP3   OH238362   4.986   2.633  12.836 -0.3792 -0.0090 -0.5218
 5624TIP3    H138363   5.048   2.703  12.818  0.4376 -0.8727 -1.1773
 5624TIP3    H238364   4.961   2.645  12.928  2.5521 -0.9774  0.5012
 5625TIP3   OH238365   1.040   6.369   1.429 -0.2724  0.6891 -0.1282
 5625TIP3    H138366   1.092   6.403   1.502 -0.1906  1.5381 -0.5651
 5625TIP3    H238367   0.988   6.299   1.468 -0.3558  1.2374  0.7861
 5626TIP3   OH238368   6.615   3.794   1.036  0.4544  0.2970 -0.3555
 5626TIP3    H138369   6.656   3.790   0.950 -0.5426 -2.7112 -0.7893
 5626TIP3    H238370   6.671   3.740   1.092  0.0509  0.6621  0.4099
 5627TIP3   OH238371   6.580   4.096  14.090 -0.1972 -0.2627  0.1180
 5627TIP3    H138372   6.543   4.183  14.072 -2.0834 -1.1335 -0.5062
 5627TIP3    H238373   6.609   4.064  14.004  0.9081 -0.1008  0.4145
 5628TIP3   OH238374   1.651   6.493  15.937 -0.1207  0.2725 -0.0311
 5628TIP3    H138375   1.604   6.466  15.858 -0.0868 -0.8886  0.3325
 5628TIP3    H238376   1.739   6.455  15.927 -0.7570 -1.7961  1.5394
 5629TIP3   OH238377   0.782   5.502  13.370  0.4272  0.3470  0.2942
 5629TIP3    H138378   0.735   5.421  13.390 -0.5589  0.9239  0.3682
 5629TIP3    H238379   0.789   5.547  13.454  0.7720  0.4427  0.2150
 5630TIP3   OH238380   2.615   6.811   3.005 -0.2816 -0.7194  0.3824
 5630TIP3    H138381   2.653   6.735   2.961  0.3268  0.8898 -2.0067
 5630TIP3    H238382   2.521   6.803   2.989 -0.2559 -1.0936  0.3926
 5631TIP3   OH238383   1.461   4.138   1.442 -0.0461 -0.4847 -0.2628
 5631TIP3    H138384   1.466   4.119   1.536 -0.4750 -0.0647 -0.1506
 5631TIP3    H238385   1.546   4.110   1.407  1.4699  2.3597  0.8101
 5632TIP3   OH238386   3.281   0.050   1.947  0.2763 -0.1743 -0.1347
 5632TIP3    H138387   3.259   0.139   1.975  1.1157 -0.4227  1.3894
 5632TIP3    H238388   3.343   0.018   2.012  1.0529 -1.4008 -1.4065
 5633TIP3   OH238389   4.916   0.354   1.541 -0.0456 -0.3609  0.3594
 5633TIP3    H138390   4.895   0.317   1.627  0.2601 -0.5958  0.3344
 5633TIP3    H238391   5.011   0.346   1.534 -0.1497 -1.1022 -0.3415
 5634TIP3   OH238392   3.822   2.014  14.497  0.1992  1.1554 -0.5442
 5634TIP3    H138393   3.826   2.088  14.558 -0.5416  0.4114  0.4553
 5634TIP3    H238394   3.873   1.945  14.540 -2.9578 -0.4794  0.9064
 5635TIP3   OH238395   5.022   5.626   2.292 -0.5428 -0.1018  0.2625
 5635TIP3    H138396   4.937   5.668   2.277 -0.8690 -0.6582  0.5270
 5635TIP3    H238397   5.047   5.654   2.380 -0.3922  0.1546  0.1407
 5636TIP3   OH238398   1.562   1.387   4.666 -0.3889 -0.2918 -0.3384
 5636TIP3    H138399   1.510   1.332   4.608 -1.8479 -0.0017  0.6347
 5636TIP3    H238400   1.529   1.476   4.650  1.4284  0.2665 -1.3636
 5637TIP3   OH238401   4.520   3.545   5.397  0.1161 -0.1537 -1.0411
 5637TIP3    H138402   4.616   3.545   5.403  0.0220  1.0644  2.2058
 5637TIP3    H238403   4.491   3.494   5.472 -1.7582  2.7290  0.3622
 5638TIP3   OH238404   5.247   3.842   5.634 -0.2634 -0.2752  0.3911
 5638TIP3    H138405   5.277   3.794   5.711 -0.4957 -2.1988 -0.6288
 5638TIP3    H238406   5.326   3.880   5.596 -0.0239 -0.0846  1.0756
 5639TIP3   OH238407   0.671   0.551  16.586  0.2926 -0.8461 -0.3246
 5639TIP3    H138408   0.706   0.471  16.548  0.4706 -0.3964 -1.1425
 5639TIP3    H238409   0.590   0.524  16.629 -2.1857 -0.8222 -4.4499
 5640TIP3   OH238410   5.567   3.826  12.511 -0.2150  0.0275  0.0054
 5640TIP3    H138411   5.530   3.841  12.424  0.9700  0.2414 -0.4764
 5640TIP3    H238412   5.621   3.903  12.528  0.0531 -0.2988  0.6648
 5641TIP3   OH238413   2.380   6.018  16.323  0.1941 -0.5574 -0.2347
 5641TIP3    H138414   2.395   6.067  16.242 -0.8033  0.2235  0.0301
 5641TIP3    H238415   2.452   5.955  16.326 -0.7735 -1.9446 -2.7015
 5642TIP3   OH238416   5.372   4.496  15.607  0.4523 -0.4665 -0.3300
 5642TIP3    H138417   5.426   4.477  15.530  1.1665  0.3342 -0.0360
 5642TIP3    H238418   5.424   4.557  15.659 -0.8562  0.5760 -0.1937
 5643TIP3   OH238419   0.443   4.864   3.455  0.3223  0.0253 -0.4260
 5643TIP3    H138420   0.443   4.777   3.493  2.2594  0.1020 -0.1234
 5643TIP3    H238421   0.390   4.917   3.515 -1.6615 -1.0877 -1.1148
 5644TIP3   OH238422   6.745   5.980  14.500  0.5662  0.2214 -0.0906
 5644TIP3    H138423   6.725   6.030  14.580  0.2147 -2.0985  1.3854
 5644TIP3    H238424   6.832   5.943  14.515  0.6409  0.0249 -0.9460
 5645TIP3   OH238425   1.721   5.154   1.668 -0.2537 -0.1257  0.0610
 5645TIP3    H138426   1.701   5.076   1.719 -0.9062  0.7951  1.2746
 5645TIP3    H238427   1.651   5.159   1.603  0.2636 -0.9931 -0.5783
 5646TIP3   OH238428   4.440   2.833  14.386 -0.3603  0.2082  0.4786
 5646TIP3    H138429   4.387   2.803  14.460 -0.7961  2.1900  1.0339
 5646TIP3    H238430   4.528   2.800  14.404 -0.8730 -1.0045  0.8403
 5647TIP3   OH238431   6.105   3.948   4.442  0.0247 -0.7812 -0.8411
 5647TIP3    H138432   6.196   3.924   4.459  0.0058 -0.4033 -0.1764
 5647TIP3    H238433   6.101   4.041   4.465 -0.2001 -0.4389 -2.1838
 5648TIP3   OH238434   5.545   1.433   2.747 -0.1181  0.3389  0.0572
 5648TIP3    H138435   5.488   1.450   2.672 -1.2940  2.9240  1.4285
 5648TIP3    H238436   5.634   1.444   2.713 -0.4765 -1.1585 -1.5074
 5649TIP3   OH238437   1.534   0.652  12.045  0.1015  0.7468  0.1370
 5649TIP3    H138438   1.499   0.720  12.103  1.3621  1.4118  0.1464
 5649TIP3    H238439   1.600   0.696  11.992  2.4662 -0.8680  1.5690
 5650TIP3   OH238440   3.069   6.662   6.044 -0.5318 -0.1984 -0.3785
 5650TIP3    H138441   3.136   6.595   6.056  0.0555  0.5786  0.8717
 5650TIP3    H238442   3.117   6.743   6.029 -1.1678  0.3453  0.3909
 5651TIP3   OH238443   4.618   3.469   2.751  0.2364  0.5325  0.2410
 5651TIP3    H138444   4.665   3.390   2.775  0.3874  0.2532 -0.9151
 5651TIP3    H238445   4.620   3.470   2.655  0.3360  1.9882  0.2392
 5652TIP3   OH238446   0.958   4.461   2.224 -0.4040  0.0070 -0.2408
 5652TIP3    H138447   0.941   4.402   2.150  0.3305  1.0369 -1.2737
 5652TIP3    H238448   0.872   4.481   2.259 -0.8258 -0.0166 -1.2187
 5653TIP3   OH238449   5.615   0.870   5.838 -0.1713  0.2247  0.1746
 5653TIP3    H138450   5.593   0.947   5.785 -0.2687 -0.6160 -1.0376
 5653TIP3    H238451   5.573   0.887   5.922 -0.9878  1.0858 -0.3746
 5654TIP3   OH238452   3.033   2.951   3.403  0.1765 -0.1773  0.5788
 5654TIP3    H138453   3.087   2.902   3.465 -1.3573 -0.5317  1.6894
 5654TIP3    H238454   3.054   3.043   3.420 -1.6792 -0.1195  3.1518
 5655TIP3   OH238455   6.788   1.690   2.554 -0.6996 -0.2663  0.2230
 5655TIP3    H138456   6.815   1.734   2.635 -0.9434  1.0230 -0.3751
 5655TIP3    H238457   6.869   1.681   2.504 -1.0281  2.1884 -0.8954
 5656TIP3   OH238458   0.380   4.066   3.394  0.2184 -0.5237 -0.3884
 5656TIP3    H138459   0.285   4.064   3.389  0.2349 -0.4501 -0.7026
 5656TIP3    H238460   0.410   4.038   3.308  0.4778  0.3579 -0.5942
 5657TIP3   OH238461   5.984   6.003  15.861 -0.2553 -0.1977  0.7182
 5657TIP3    H138462   5.893   5.982  15.842  0.3373 -0.8212 -1.9126
 5657TIP3    H238463   5.981   6.059  15.938 -2.6716 -1.9133  1.9909
 5658TIP3   OH238464   4.882   5.769  11.144  0.0588 -0.1062  0.1280
 5658TIP3    H138465   4.798   5.759  11.190  0.2962 -0.7574  0.4487
 5658TIP3    H238466   4.913   5.856  11.169 -1.0190  0.5917 -0.8600
 5659TIP3   OH238467   1.468   1.270  10.749 -0.3979  0.5451  0.0819
 5659TIP3    H138468   1.550   1.313  10.726 -0.3732 -0.0603 -1.0496
 5659TIP3    H238469   1.493   1.201  10.811  0.5169 -1.7373 -2.5875
 5660TIP3   OH238470   2.793   3.154  15.555 -0.2451  0.9993  0.4111
 5660TIP3    H138471   2.821   3.207  15.480  1.8124 -0.8803 -0.2606
 5660TIP3    H238472   2.843   3.188  15.629 -1.7884  2.4225  0.8613
 5661TIP3   OH238473   0.325   5.669  13.051 -0.1770  0.1691  0.3238
 5661TIP3    H138474   0.401   5.660  12.993 -0.9564 -0.5021 -0.6449
 5661TIP3    H238475   0.283   5.583  13.047 -0.0445 -0.0129  2.2169
 5662TIP3   OH238476   0.047   2.772  13.205  0.5587 -0.6657  0.0004
 5662TIP3    H138477  -0.030   2.732  13.245 -0.5362  0.4415 -0.9356
 5662TIP3    H238478   0.043   2.745  13.113 -1.0756  2.6685 -1.0573
 5663TIP3   OH238479   4.480   0.500  15.211  0.2907  0.2712 -0.1874
 5663TIP3    H138480   4.470   0.419  15.261 -0.5865 -0.2189 -1.1174
 5663TIP3    H238481   4.487   0.471  15.120 -0.4887  1.2648 -0.5751
 5664TIP3   OH238482   0.270   3.044   0.504 -0.2257 -0.1939 -0.1864
 5664TIP3    H138483   0.182   3.080   0.496  0.3728  1.0649 -1.3948
 5664TIP3    H238484   0.318   3.081   0.430  1.7147  0.2952  1.2530
 5665TIP3   OH238485   6.659   3.813   4.538  0.3243  0.3649  0.0291
 5665TIP3    H138486   6.600   3.884   4.564  0.9655  0.8903  0.0799
 5665TIP3    H238487   6.741   3.832   4.584  0.7121 -0.0441 -0.4851
 5666TIP3   OH238488   6.467   2.303  12.557 -0.5562 -0.1997  0.4414
 5666TIP3    H138489   6.549   2.257  12.571 -0.1962 -0.8652 -2.9926
 5666TIP3    H238490   6.402   2.250  12.603  0.3695 -2.2077 -0.4252
 5667TIP3   OH238491   1.470   0.906   3.044 -0.2020 -0.3601 -0.0080
 5667TIP3    H138492   1.512   0.821   3.035  0.4837 -0.2490  1.7366
 5667TIP3    H238493   1.385   0.886   3.085 -0.2378 -0.2360 -0.0217
 5668TIP3   OH238494   0.469   5.382  12.114 -0.4857  0.2630  0.0530
 5668TIP3    H138495   0.410   5.405  12.042 -0.7759 -0.4868  0.0525
 5668TIP3    H238496   0.413   5.339  12.179 -0.2726  1.1301  0.8405
 5669TIP3   OH238497   6.809   1.240  11.155  0.0505  0.6062  0.8353
 5669TIP3    H138498   6.895   1.213  11.188  0.4568 -0.2232 -0.7939
 5669TIP3    H238499   6.747   1.205  11.219  0.7794 -1.5159  0.4602
 5670TIP3   OH238500   6.445   4.738   3.751  0.3337  0.1397 -0.3570
 5670TIP3    H138501   6.407   4.685   3.821  0.0743  0.9535  0.1444
 5670TIP3    H238502   6.490   4.809   3.797 -2.2344  2.3599 -0.9661
 5671TIP3   OH238503   0.056   0.174   4.176  0.3184 -0.0178 -0.8168
 5671TIP3    H138504   0.063   0.086   4.213 -1.7203 -0.1587 -0.6081
 5671TIP3    H238505   0.015   0.161   4.090 -2.2116  0.8036  0.1617
 5672TIP3   OH238506   2.442   0.525  12.901  0.0463 -0.2152  0.1143
 5672TIP3    H138507   2.459   0.473  12.980  3.0520 -2.2797 -1.6899
 5672TIP3    H238508   2.354   0.499  12.874 -0.3555 -0.7716  1.8084
 5673TIP3   OH238509   5.682   1.632   0.648 -0.5763  0.2506  0.1120
 5673TIP3    H138510   5.634   1.581   0.713 -2.0018  2.0806  0.5822
 5673TIP3    H238511   5.644   1.607   0.564 -1.0318  0.2765  0.3080
 5674TIP3   OH238512   3.336   1.874   3.596 -0.3398 -0.2836  0.4894
 5674TIP3    H138513   3.327   1.940   3.527  1.3887 -0.2176  0.2822
 5674TIP3    H238514   3.425   1.839   3.584 -0.1238 -0.4967  2.4817
 5675TIP3   OH238515   1.933   4.173   5.265 -0.2884 -0.1812  0.1984
 5675TIP3    H138516   1.870   4.169   5.337  1.0431  0.1382  1.4107
 5675TIP3    H238517   1.986   4.094   5.274  0.4426  0.2880  0.1009
 5676TIP3   OH238518   6.181   4.233  11.021 -0.3877 -0.3981 -0.3606
 5676TIP3    H138519   6.125   4.193  11.088 -0.0477 -1.8969 -0.9493
 5676TIP3    H238520   6.127   4.235  10.942 -0.0916 -0.5367 -0.5684
 5677TIP3   OH238521   4.306   2.421   0.624  0.6033 -0.5582 -0.4720
 5677TIP3    H138522   4.261   2.461   0.698  1.2364 -0.6517 -0.0267
 5677TIP3    H238523   4.336   2.336   0.656  1.7339 -0.1964 -0.5064
 5678TIP3   OH238524   6.750   3.742  13.493 -0.2104  1.1581 -0.0186
 5678TIP3    H138525   6.751   3.708  13.583 -0.8272  2.6451  0.5736
 5678TIP3    H238526   6.657   3.743  13.470  0.0448 -1.1804 -1.4966
 5679TIP3   OH238527   2.090   1.485  16.033  0.4212 -0.1796 -0.1874
 5679TIP3    H138528   2.148   1.439  15.972  1.6172  1.8810 -0.6663
 5679TIP3    H238529   2.148   1.543  16.082 -1.2202  2.1852 -0.8966
 5680TIP3   OH238530   3.349   4.424  13.500  0.1800 -0.2099 -0.0707
 5680TIP3    H138531   3.310   4.390  13.420 -1.2168  1.1302 -0.0135
 5680TIP3    H238532   3.378   4.513  13.477  2.5745 -0.8802  0.1084
 5681TIP3   OH238533   0.394   2.203  15.447 -0.2696  0.0361  0.0831
 5681TIP3    H138534   0.328   2.265  15.417  0.8439  1.4204  0.3681
 5681TIP3    H238535   0.372   2.186  15.538 -0.2478  0.5002  0.1797
 5682TIP3   OH238536   3.609   1.476   3.912  0.0333  0.5624 -0.2924
 5682TIP3    H138537   3.677   1.494   3.847 -0.8817  0.9955 -1.1500
 5682TIP3    H238538   3.654   1.483   3.996  1.3888 -0.5943 -0.8733
 5683TIP3   OH238539   4.916   6.693  13.941 -0.3011 -0.2955  0.4825
 5683TIP3    H138540   4.974   6.617  13.950 -0.5629 -0.3894  1.4038
 5683TIP3    H238541   4.915   6.734  14.027 -0.3629  0.6189  0.0607
 5684TIP3   OH238542   4.100   4.807   1.657 -0.1180 -0.0754  0.4749
 5684TIP3    H138543   4.085   4.886   1.710  0.5623 -0.4563  1.2618
 5684TIP3    H238544   4.185   4.823   1.617 -0.2022 -0.2012  0.2507
 5685TIP3   OH238545   1.673   0.927  11.227  0.1126  0.5055  0.1527
 5685TIP3    H138546   1.727   1.004  11.211  0.2235  0.5183  0.5658
 5685TIP3    H238547   1.661   0.887  11.141  1.8953 -0.2474  0.2058
 5686TIP3   OH238548   2.424   4.560  13.297 -0.0585 -0.0121 -0.1723
 5686TIP3    H138549   2.363   4.542  13.368 -0.0331  2.3084  0.5161
 5686TIP3    H238550   2.399   4.498  13.228 -0.2410 -2.1679  1.7060
 5687TIP3   OH238551   0.862   2.044  11.659  0.6860 -0.0892  0.7806
 5687TIP3    H138552   0.831   1.954  11.670  0.0386  0.1195  0.7388
 5687TIP3    H238553   0.943   2.048  11.709  0.8147 -0.7450  0.6345
 5688TIP3   OH238554   2.726   6.027   2.952 -0.3048  0.2090  0.0245
 5688TIP3    H138555   2.730   6.065   2.865 -1.2252 -1.6165 -0.8720
 5688TIP3    H238556   2.818   6.019   2.979  0.0853 -0.6038 -1.4536
 5689TIP3   OH238557   5.168   6.184   3.972  0.3268  0.5217 -0.0034
 5689TIP3    H138558   5.144   6.106   4.022  0.9730 -0.2178 -0.8199
 5689TIP3    H238559   5.084   6.225   3.950  0.0172  0.6721  1.3519
 5690TIP3   OH238560   4.378   4.939  15.748  0.1372 -0.3869 -0.0841
 5690TIP3    H138561   4.376   4.935  15.844  1.8933 -0.0639 -0.0098
 5690TIP3    H238562   4.374   5.032  15.727 -5.2014 -0.4089 -0.5981
 5691TIP3   OH238563   4.065   5.357   2.684 -0.0670 -0.5458 -0.0919
 5691TIP3    H138564   4.048   5.403   2.767 -0.5206 -1.6475  0.4499
 5691TIP3    H238565   4.159   5.368   2.669 -0.1582  0.5410  0.0172
 5692TIP3   OH238566   3.349   1.807  14.685  0.7559 -0.4960 -0.2896
 5692TIP3    H138567   3.323   1.853  14.765 -0.0842  0.0236 -0.8463
 5692TIP3    H238568   3.444   1.822  14.679  0.3965  1.9476 -0.8946
 5693TIP3   OH238569   4.302   1.705   1.177  0.3271  0.4183  0.0225
 5693TIP3    H138570   4.229   1.659   1.136  0.1138  0.3747  0.4482
 5693TIP3    H238571   4.374   1.642   1.175 -0.2704 -0.3758  1.6204
 5694TIP3   OH238572   2.114   5.739  13.273  0.1248 -0.0084  0.3064
 5694TIP3    H138573   2.148   5.825  13.299 -0.7928  0.1934  0.8791
 5694TIP3    H238574   2.035   5.728  13.326 -1.0715 -0.1910 -1.4298
 5695TIP3   OH238575   3.443   4.472  16.857  0.3088  0.1642  0.1813
 5695TIP3    H138576   3.435   4.378  16.877  1.0925  0.0859  0.1530
 5695TIP3    H238577   3.516   4.502  16.912 -0.6924  1.0255  1.0849
 5696TIP3   OH238578   4.037   1.710   0.640 -0.4677 -0.2856  0.0184
 5696TIP3    H138579   4.116   1.684   0.592 -0.5650 -0.1980 -0.1912
 5696TIP3    H238580   3.975   1.639   0.624 -1.3631  0.8727 -2.0465
 5697TIP3   OH238581   2.284   2.951  14.063 -0.5620 -0.3214  0.0144
 5697TIP3    H138582   2.246   2.865  14.079 -1.0037 -0.0138  0.6315
 5697TIP3    H238583   2.298   2.988  14.150 -3.3206  1.5038 -0.1951
 5698TIP3   OH238584   1.372   3.578  15.984  0.0894  0.0807  0.5357
 5698TIP3    H138585   1.380   3.502  16.042 -0.6193 -0.0602  0.4579
 5698TIP3    H238586   1.285   3.613  16.002 -0.2299 -0.0982 -0.6142
 5699TIP3   OH238587   3.525   3.208   2.479 -0.6451  0.1366  0.0708
 5699TIP3    H138588   3.579   3.277   2.441 -0.3639  1.8764  3.2342
 5699TIP3    H238589   3.576   3.128   2.468  0.3803  0.9264 -1.1040
 5700TIP3   OH238590   4.614   1.816  14.572  0.5693 -0.1421 -0.1088
 5700TIP3    H138591   4.694   1.772  14.544 -0.0610 -0.9861 -0.6428
 5700TIP3    H238592   4.545   1.750  14.560 -0.1528  0.4386  0.6989
 5701TIP3   OH238593   0.745   1.991  14.992  0.3444  0.6271 -0.3232
 5701TIP3    H138594   0.724   1.956  14.905 -0.1224  0.7449 -0.2577
 5701TIP3    H238595   0.736   2.085  14.983  1.0028  0.6953 -0.3322
 5702TIP3   OH238596   6.762   0.025   2.796 -0.0992 -0.5333  0.5646
 5702TIP3    H138597   6.778   0.036   2.890  1.3314 -0.9554  0.4027
 5702TIP3    H238598   6.838   0.066   2.754 -0.3746 -0.9632 -0.3817
 5703TIP3   OH238599   3.575   0.115   5.859  0.4758  0.4283 -0.4715
 5703TIP3    H138600   3.602   0.137   5.770  0.8810 -0.7098 -0.6533
 5703TIP3    H238601   3.492   0.069   5.848  0.5832  0.1820 -0.2776
 5704TIP3   OH238602   4.386   0.363   6.342  0.5628  0.6647 -0.5290
 5704TIP3    H138603   4.340   0.293   6.389  1.4534  1.6511  2.0125
 5704TIP3    H238604   4.319   0.429   6.326  0.2412  0.3029 -0.7045
 5705TIP3   OH238605   5.493   5.855   3.762 -0.5087  0.1996  0.3467
 5705TIP3    H138606   5.530   5.940   3.788 -1.6740  0.1126  2.5237
 5705TIP3    H238607   5.431   5.877   3.692  0.9249  0.7926 -0.7972
 5706TIP3   OH238608   5.091   2.993   2.910  0.5340  0.6391  0.1134
 5706TIP3    H138609   5.033   2.930   2.867  1.6509  0.3391 -0.9968
 5706TIP3    H238610   5.070   3.077   2.868  2.0838  0.2391 -1.5825
 5707TIP3   OH238611   3.216   0.991   3.057 -0.2266  0.4921  0.0874
 5707TIP3    H138612   3.231   0.949   3.142 -1.9663  0.7914  0.5657
 5707TIP3    H238613   3.173   0.924   3.005  2.1258 -0.2011 -1.1282
 5708TIP3   OH238614   6.736   2.865   4.431  0.0017 -0.4273 -0.0654
 5708TIP3    H138615   6.825   2.832   4.422  0.0862 -0.1240 -0.3818
 5708TIP3    H238616   6.712   2.847   4.522  0.6780  0.1945  0.2491
 5709TIP3   OH238617   1.682   5.754   0.867  0.9405 -0.5338 -0.2441
 5709TIP3    H138618   1.756   5.736   0.809  0.6077 -0.8654 -0.5728
 5709TIP3    H238619   1.710   5.722   0.953  2.0337  1.3175  0.1483
 5710TIP3   OH238620   3.857   2.208  13.842 -0.0985 -0.0064 -0.7560
 5710TIP3    H138621   3.863   2.157  13.922 -2.5220  2.1136  0.9231
 5710TIP3    H238622   3.785   2.168  13.793  0.6767 -0.6363 -1.4122
 5711TIP3   OH238623   4.213   4.002  12.289 -0.1495  0.0271 -0.1439
 5711TIP3    H138624   4.206   3.936  12.359 -0.8104  1.0949  0.8228
 5711TIP3    H238625   4.139   3.983  12.231  0.2401 -0.6852 -0.4284
 5712TIP3   OH238626   5.915   0.887   0.813 -0.2041 -0.0574 -0.2955
 5712TIP3    H138627   5.971   0.913   0.886 -0.5179  0.3006 -0.1801
 5712TIP3    H238628   5.959   0.921   0.735 -0.7248  1.0518 -0.1295
 5713TIP3   OH238629   1.529   2.138   1.090  0.3882 -0.0338  0.4355
 5713TIP3    H138630   1.513   2.204   1.158 -1.3027  0.6516 -0.5651
 5713TIP3    H238631   1.621   2.151   1.066  0.9030 -0.0259  2.2802
 5714TIP3   OH238632   1.663   1.275  13.226 -0.0003 -0.6890  0.1527
 5714TIP3    H138633   1.707   1.341  13.172  1.1818 -0.6056  1.1756
 5714TIP3    H238634   1.570   1.295  13.216  0.2209 -0.2356 -1.2747
 5715TIP3   OH238635   2.344   1.729  14.915 -0.0131 -0.0923  0.3717
 5715TIP3    H138636   2.278   1.797  14.922 -1.2480 -1.1099 -0.8557
 5715TIP3    H238637   2.406   1.747  14.986 -1.4753  1.0188  1.4035
 5716TIP3   OH238638   0.338   0.244   3.081  0.0249  0.4200 -0.2788
 5716TIP3    H138639   0.357   0.312   3.145 -1.3168  2.0278 -1.4830
 5716TIP3    H238640   0.377   0.277   2.999  0.5734 -0.9512 -0.6017
 5717TIP3   OH238641   3.673   0.128  11.355  0.0409  0.2804 -0.3069
 5717TIP3    H138642   3.699   0.198  11.295  0.7153 -0.5095 -0.9603
 5717TIP3    H238643   3.664   0.172  11.440 -0.6329  1.3553 -0.9142
 5718TIP3   OH238644   1.993   3.492   5.225  0.7448 -0.0833 -0.2613
 5718TIP3    H138645   2.065   3.501   5.287 -0.3297 -1.0041  1.1989
 5718TIP3    H238646   1.964   3.402   5.235  1.3410 -0.6859 -3.1085
 5719TIP3   OH238647   2.979   1.163   3.367 -0.1644 -0.1492  0.1214
 5719TIP3    H138648   2.946   1.195   3.283 -2.0218  1.6612  1.4214
 5719TIP3    H238649   3.022   1.239   3.406  0.9855 -1.0614  0.6716
 5720TIP3   OH238650   0.407   0.831  11.794 -0.1481  0.3426  0.4530
 5720TIP3    H138651   0.312   0.823  11.785  0.1105 -1.8724 -1.3559
 5720TIP3    H238652   0.434   0.879  11.715  0.3234 -0.2450  0.2484
 5721TIP3   OH238653   6.550   2.310  14.287  0.2796 -0.8777  0.3763
 5721TIP3    H138654   6.554   2.221  14.252 -1.9177 -0.6933 -0.4914
 5721TIP3    H238655   6.464   2.342  14.261  0.4890  1.0375  1.8396
 5722TIP3   OH238656   4.427   5.611   4.334 -0.3410  0.3148 -0.4580
 5722TIP3    H138657   4.348   5.560   4.349  0.3326 -0.4259  0.7861
 5722TIP3    H238658   4.499   5.548   4.345  0.5332  1.5277  1.4404
 5723TIP3   OH238659   3.688   1.486   1.115 -0.0199 -0.0067  0.1238
 5723TIP3    H138660   3.638   1.406   1.132  0.1261 -0.2489 -0.5791
 5723TIP3    H238661   3.761   1.458   1.061  1.0888  0.2844  1.4123
 5724TIP3   OH238662   6.300   0.373  11.577 -0.2420 -0.4315  0.2213
 5724TIP3    H138663   6.369   0.320  11.539  0.2580  0.4311 -0.1033
 5724TIP3    H238664   6.298   0.348  11.670  0.2881 -0.6920  0.1628
 5725TIP3   OH238665   0.994   3.255  16.653 -0.2693 -0.3255  0.0752
 5725TIP3    H138666   0.965   3.272  16.742 -0.8152  0.8299 -0.2993
 5725TIP3    H238667   0.923   3.206  16.613 -0.4773  0.0406 -0.0120
 5726TIP3   OH238668   3.249   4.287  14.165 -0.2761  0.1983 -0.6009
 5726TIP3    H138669   3.219   4.364  14.117  0.3937  0.0811 -1.2190
 5726TIP3    H238670   3.317   4.320  14.223 -1.9019  0.5682  1.2130
 5727TIP3   OH238671   2.998   5.245  13.373 -0.2067 -0.2388 -0.1264
 5727TIP3    H138672   2.998   5.202  13.458 -2.5153 -0.6020 -0.2448
 5727TIP3    H238673   2.934   5.315  13.381  1.5068  1.4758 -0.7935
 5728TIP3   OH238674   6.391   3.026   2.895  0.0630 -0.1735 -0.0364
 5728TIP3    H138675   6.318   3.075   2.931  0.4376  1.3504 -1.2636
 5728TIP3    H238676   6.466   3.048   2.952  0.0024 -0.2117  0.0593
 5729TIP3   OH238677   2.395   3.842  12.115 -0.1888 -0.1703  0.3308
 5729TIP3    H138678   2.400   3.906  12.044  0.7263 -0.4780  0.1051
 5729TIP3    H238679   2.473   3.787  12.104 -0.3106 -0.5529  1.2561
 5730TIP3   OH238680   1.367   5.760   5.839 -0.1550  0.1234  0.2754
 5730TIP3    H138681   1.318   5.698   5.894 -0.5020 -0.3680 -0.5624
 5730TIP3    H238682   1.362   5.722   5.751  2.6884 -0.5646  0.3110
 5731TIP3   OH238683   1.568   1.984  16.662 -0.4612  0.5493 -0.3946
 5731TIP3    H138684   1.543   2.054  16.722 -1.0897 -0.9099  1.1127
 5731TIP3    H238685   1.498   1.920  16.668  0.6607 -0.7694 -0.8242
 5732TIP3   OH238686   6.113   4.508   2.991  0.4058  0.4821  0.0831
 5732TIP3    H138687   6.032   4.482   3.034 -0.3888  1.1671 -0.9222
 5732TIP3    H238688   6.121   4.602   3.009  0.2159  0.7179 -0.9509
 5733TIP3   OH238689   4.508   0.068   1.487  0.1893  0.2850 -0.8452
 5733TIP3    H138690   4.436   0.089   1.427 -0.4282  0.5075 -0.0355
 5733TIP3    H238691   4.510   0.142   1.548  0.7978  0.0431 -0.5654
 5734TIP3   OH238692   1.223   2.393   2.657 -0.3509  0.0527 -0.3733
 5734TIP3    H138693   1.187   2.481   2.647 -0.2664  0.3310  1.4683
 5734TIP3    H238694   1.165   2.351   2.720  1.6234 -0.0049  1.5057
 5735TIP3   OH238695   4.186   3.798   4.144 -0.3866  0.1968  0.2935
 5735TIP3    H138696   4.149   3.758   4.065 -0.4801 -1.3576  1.0915
 5735TIP3    H238697   4.280   3.802   4.127 -0.4790  0.5637 -0.1788
 5736TIP3   OH238698   1.125   1.121   5.239 -0.4234 -0.4533  0.2047
 5736TIP3    H138699   1.142   1.084   5.153 -2.0864  1.3770 -0.9750
 5736TIP3    H238700   1.178   1.067   5.299 -1.2321 -3.4619 -1.5834
 5737TIP3   OH238701   3.639   0.457   5.122  0.2831  0.3196  0.4903
 5737TIP3    H138702   3.568   0.453   5.057 -0.3084  1.7377  1.0014
 5737TIP3    H238703   3.596   0.436   5.205  0.8936 -0.8045  0.5295
 5738TIP3   OH238704   6.006   4.141  15.808 -0.0516 -0.3168  0.0011
 5738TIP3    H138705   5.927   4.115  15.760  0.4547 -0.2113 -0.9178
 5738TIP3    H238706   5.996   4.235  15.819  0.1136 -0.2416 -0.4520
 5739TIP3   OH238707   3.781   1.908  12.031 -1.0527  0.2508 -0.3888
 5739TIP3    H138708   3.841   1.843  12.067  0.0709  1.2823 -0.3225
 5739TIP3    H238709   3.809   1.991  12.070 -1.4545  1.0129 -1.6514
 5740TIP3   OH238710   6.559   6.140  10.804  0.4231  0.3806 -0.1707
 5740TIP3    H138711   6.545   6.069  10.742 -1.1299 -0.0485  0.6240
 5740TIP3    H238712   6.653   6.140  10.820  0.6086 -0.6562 -1.1391
 5741TIP3   OH238713   5.495   2.738  10.430 -0.2513  0.2305 -0.0062
 5741TIP3    H138714   5.478   2.646  10.414 -1.3709  0.5572 -0.8214
 5741TIP3    H238715   5.491   2.747  10.525  0.9292 -0.7386  0.1538
 5742TIP3   OH238716   0.770   3.335   4.817  0.3703  0.1424 -0.0141
 5742TIP3    H138717   0.831   3.365   4.750 -0.6883  0.8487 -0.6970
 5742TIP3    H238718   0.762   3.410   4.877 -0.0388  0.1636 -0.0930
 5743TIP3   OH238719   4.950   4.983   2.849  0.0608 -0.1583  0.6555
 5743TIP3    H138720   4.973   5.016   2.935  0.8851 -0.5051  0.5762
 5743TIP3    H238721   4.974   5.054   2.789  0.0897 -0.1725  0.6502
 5744TIP3   OH238722   4.595   4.694   3.027 -0.1674 -0.1629 -0.2124
 5744TIP3    H138723   4.574   4.679   2.935  0.7430  1.4667 -0.7295
 5744TIP3    H238724   4.652   4.621   3.050 -1.3503 -1.2322 -0.5690
 5745TIP3   OH238725   4.054   1.210   4.571  0.5833 -0.2189 -0.4291
 5745TIP3    H138726   4.082   1.299   4.593  1.3116 -0.2942 -1.0315
 5745TIP3    H238727   4.000   1.183   4.646  0.8306  0.5142  0.0218
 5746TIP3   OH238728   4.359   6.312  15.131 -0.2112 -0.9563 -0.0447
 5746TIP3    H138729   4.308   6.250  15.078 -0.1655 -1.9071  0.9887
 5746TIP3    H238730   4.408   6.363  15.067 -2.5185  0.0812 -1.1133
 5747TIP3   OH238731   0.458   6.648  16.488 -0.0427 -0.0454  0.6070
 5747TIP3    H138732   0.424   6.704  16.419  0.3703  1.8319  1.8615
 5747TIP3    H238733   0.516   6.705  16.539  0.4267 -1.6243  1.9242
 5748TIP3   OH238734   2.974   3.648  16.382  0.4242  0.1283  0.0801
 5748TIP3    H138735   2.936   3.736  16.382  0.5902  0.2006 -0.1271
 5748TIP3    H238736   3.063   3.660  16.416  1.2040  0.3797 -1.8830
 5749TIP3   OH238737   3.335   6.109   0.249 -0.3742  0.7887 -0.1471
 5749TIP3    H138738   3.324   6.158   0.168 -0.6969  1.3578  0.2347
 5749TIP3    H238739   3.295   6.024   0.232  2.0150 -0.1771 -1.5343
 5750TIP3   OH238740   0.659   3.466  16.542 -0.6301 -0.0174 -0.6019
 5750TIP3    H138741   0.588   3.519  16.577  0.1346  0.2556  0.5929
 5750TIP3    H238742   0.735   3.523  16.543  0.1991 -1.0718  0.6596
 5751TIP3   OH238743   1.174   0.756   3.580  0.7260 -0.0471  0.0642
 5751TIP3    H138744   1.257   0.720   3.613  0.2212 -0.4784  0.9023
 5751TIP3    H238745   1.120   0.679   3.563  0.7502  0.2019 -1.1957
 5752TIP3   OH238746   0.927   5.842  12.364  0.8742  0.1284 -0.1817
 5752TIP3    H138747   0.959   5.926  12.398  1.7951 -0.3000  0.0370
 5752TIP3    H238748   0.833   5.843  12.381  0.8349  1.2195 -0.4046
 5753TIP3   OH238749   2.569   0.161   1.888 -0.4655  0.0168 -0.1167
 5753TIP3    H138750   2.500   0.184   1.827  0.4312 -1.0567 -1.5901
 5753TIP3    H238751   2.525   0.110   1.957 -1.2247 -0.2122 -0.7645
 5754TIP3   OH238752   5.355   5.114   6.039  0.5026  0.7534 -0.3561
 5754TIP3    H138753   5.312   5.032   6.012 -0.2112  0.4543  1.5424
 5754TIP3    H238754   5.283   5.174   6.057  0.9505  1.0395  0.5189
 5755TIP3   OH238755   3.361   5.631  13.579  0.2439 -0.1845  0.3042
 5755TIP3    H138756   3.390   5.718  13.605 -0.9874  0.1979  0.4537
 5755TIP3    H238757   3.275   5.644  13.540  0.6257 -1.1764 -0.9534
 5756TIP3   OH238758   1.836   0.347  12.099  0.3520 -0.5073  0.3278
 5756TIP3    H138759   1.745   0.321  12.116  1.2182 -3.0324  1.6002
 5756TIP3    H238760   1.873   0.273  12.049  1.7192  0.4737 -0.1610
 5757TIP3   OH238761   2.563   4.009  13.273  0.2491  0.1237  0.4681
 5757TIP3    H138762   2.532   3.918  13.269  0.7436 -0.0024 -0.9058
 5757TIP3    H238763   2.496   4.059  13.225 -0.0479  0.5082  1.2626
 5758TIP3   OH238764   6.022   0.578  10.596 -0.2375  0.0386 -0.3730
 5758TIP3    H138765   5.974   0.629  10.661  2.6132 -0.6867  2.5456
 5758TIP3    H238766   6.111   0.611  10.599  0.5644 -1.6997 -2.1692
 5759TIP3   OH238767   4.031   5.172  16.986 -0.2377 -0.5227 -0.3530
 5759TIP3    H138768   4.015   5.266  16.982 -0.9948 -0.6713 -1.0848
 5759TIP3    H238769   4.092   5.155  16.915 -1.2868 -0.7944 -1.2179
 5760TIP3   OH238770   3.507   0.381   5.374  0.1467 -0.1297 -0.0835
 5760TIP3    H138771   3.496   0.459   5.428 -0.0852 -0.3727  0.2285
 5760TIP3    H238772   3.420   0.342   5.371  0.2215 -0.2730 -0.3958
 5761TIP3   OH238773   2.227   4.415   6.049 -0.6061 -0.1134 -0.6964
 5761TIP3    H138774   2.297   4.375   5.997 -1.1669 -1.7718 -0.2633
 5761TIP3    H238775   2.193   4.343   6.102 -1.0366  1.1988  0.8890
 5762TIP3   OH238776   1.863   3.623  10.684  0.0989 -0.0479  0.5516
 5762TIP3    H138777   1.827   3.628  10.773 -0.6967  0.8634  0.1957
 5762TIP3    H238778   1.890   3.531  10.675 -2.0169 -0.7808  0.9039
 5763TIP3   OH238779   5.238   0.649  15.575 -0.0494  0.1104 -0.5692
 5763TIP3    H138780   5.253   0.698  15.656 -0.4023  0.9710 -1.0099
 5763TIP3    H238781   5.303   0.684  15.514  0.2518 -0.5740 -0.6401
 5764TIP3   OH238782   4.560   4.821   4.279  0.5007  0.4901  0.3161
 5764TIP3    H138783   4.492   4.862   4.226 -0.1551 -0.1679  0.6207
 5764TIP3    H238784   4.634   4.809   4.219 -0.4036 -0.7028 -0.6232
 5765TIP3   OH238785   1.976   4.763   2.730 -0.5686  0.1909  0.0254
 5765TIP3    H138786   2.000   4.794   2.817 -1.9070  0.1566  0.4370
 5765TIP3    H238787   1.970   4.668   2.739  0.4817  0.0656 -0.4356
 5766TIP3   OH238788   2.512   5.841  13.374  0.1249  0.3477  0.1618
 5766TIP3    H138789   2.434   5.854  13.321 -0.0952 -0.5563  0.2497
 5766TIP3    H238790   2.566   5.918  13.356 -0.0887  0.2217 -1.1119
 5767TIP3   OH238791   2.740   2.530  15.825 -0.1843 -0.6802  0.4818
 5767TIP3    H138792   2.759   2.437  15.816 -2.2669 -1.1868  0.7018
 5767TIP3    H238793   2.645   2.537  15.810  0.0537  1.5358 -0.4298
 5768TIP3   OH238794   2.461   4.038   5.684  0.5174  0.1570 -0.6950
 5768TIP3    H138795   2.482   3.945   5.670  0.6925 -0.1892  1.5427
 5768TIP3    H238796   2.435   4.069   5.598 -0.2819 -2.1623 -1.3738
 5769TIP3   OH238797   0.385   2.785   3.764 -0.4132 -0.2146 -0.0292
 5769TIP3    H138798   0.303   2.738   3.751  0.1382 -1.0356 -0.6353
 5769TIP3    H238799   0.419   2.752   3.846 -0.2314 -0.5763 -0.2470
 5770TIP3   OH238800   1.601   2.293   4.597  0.0923 -0.2666  0.2281
 5770TIP3    H138801   1.589   2.212   4.646  0.1037 -0.1279  0.4625
 5770TIP3    H238802   1.535   2.289   4.528  0.0527 -0.4478  0.2754
 5771TIP3   OH238803   5.639   5.238  12.314  0.4646 -0.1090 -0.3086
 5771TIP3    H138804   5.604   5.254  12.402  0.6578  0.9006 -0.4052
 5771TIP3    H238805   5.722   5.194  12.328 -0.8355 -2.7022 -0.0713
 5772TIP3   OH238806   6.233   0.591  16.566  0.3375  0.1426  0.3998
 5772TIP3    H138807   6.192   0.520  16.515 -0.5680  0.2843  0.9146
 5772TIP3    H238808   6.285   0.546  16.632 -0.3146 -0.0605  0.7888
 5773TIP3   OH238809   4.389   3.575  11.242 -0.2378 -0.2104  0.0580
 5773TIP3    H138810   4.366   3.667  11.256 -0.6360 -0.0105 -1.6990
 5773TIP3    H238811   4.470   3.562  11.292  0.7774  1.5775 -1.0490
 5774TIP3   OH238812   3.073   4.374   5.865 -0.7325 -0.9350  0.0123
 5774TIP3    H138813   3.013   4.320   5.814  1.3506 -1.3845 -2.1109
 5774TIP3    H238814   3.158   4.362   5.823  0.7948  0.0415  2.5906
 5775TIP3   OH238815   5.270   4.718  13.077  0.5621  0.4785 -0.0358
 5775TIP3    H138816   5.287   4.678  13.162  0.8266  0.0905 -0.2702
 5775TIP3    H238817   5.183   4.757  13.086  0.6106  0.4788  0.4279
 5776TIP3   OH238818   4.872   4.406  16.075 -0.0292  0.3079  0.6672
 5776TIP3    H138819   4.801   4.466  16.098  0.5784  0.9187  1.0050
 5776TIP3    H238820   4.948   4.441  16.121  0.1110 -1.3847  1.8223
 5777TIP3   OH238821   1.630   0.855   5.614 -0.5752  0.1182 -0.4444
 5777TIP3    H138822   1.626   0.773   5.663  0.1803  0.2180 -0.2070
 5777TIP3    H238823   1.578   0.916   5.666 -0.2776  0.0622 -0.0724
 5778TIP3   OH238824   6.520   1.337   0.978 -0.0364 -0.1892 -0.2781
 5778TIP3    H138825   6.589   1.392   1.016 -0.3143 -0.4387  0.6171
 5778TIP3    H238826   6.496   1.277   1.049 -0.2374 -0.9912 -1.0131
 5779TIP3   OH238827   1.078   4.815  14.284 -0.1485  0.4244 -0.2967
 5779TIP3    H138828   1.173   4.812  14.290  0.0615 -1.7403 -2.9340
 5779TIP3    H238829   1.057   4.772  14.201 -3.4821  0.1432  0.5235
 5780TIP3   OH238830   3.783   2.240   6.253 -0.3694  0.5898 -0.1026
 5780TIP3    H138831   3.821   2.178   6.315 -2.9103 -0.2604  0.7132
 5780TIP3    H238832   3.821   2.325   6.277  0.7783 -0.1512  0.7934
 5781TIP3   OH238833   4.116   0.885   4.302 -0.2490  0.9461 -0.7501
 5781TIP3    H138834   4.074   0.801   4.321 -3.2147  2.9082  2.6711
 5781TIP3    H238835   4.207   0.873   4.330 -1.0670 -0.7030  1.5439
 5782TIP3   OH238836   1.939   0.645   1.469  0.8203  0.5540 -0.4210
 5782TIP3    H138837   1.955   0.702   1.544 -0.6762 -0.5253  0.7719
 5782TIP3    H238838   1.997   0.570   1.482  1.1216  0.7184 -0.7766
 5783TIP3   OH238839   1.677   4.918   4.065  0.0363  0.1185 -0.2939
 5783TIP3    H138840   1.770   4.913   4.085 -0.4827  0.4159  2.6845
 5783TIP3    H238841   1.644   4.830   4.082 -0.3878  0.2578 -0.3708
 5784TIP3   OH238842   6.278   3.285   0.714 -0.3271  0.6192 -0.4719
 5784TIP3    H138843   6.223   3.230   0.770 -0.5169 -0.0289 -1.2729
 5784TIP3    H238844   6.362   3.239   0.710 -0.1284  0.9603 -0.2597
 5785TIP3   OH238845   5.103   6.497   2.689  0.3089  0.3706  0.6381
 5785TIP3    H138846   5.111   6.550   2.768  1.4374 -1.0168  1.4930
 5785TIP3    H238847   5.192   6.495   2.653 -0.0051  0.1865 -0.1604
 5786TIP3   OH238848   0.221   2.507  10.833  0.2458 -1.0404  0.1749
 5786TIP3    H138849   0.216   2.476  10.923 -1.0351  1.7924  1.1968
 5786TIP3    H238850   0.142   2.474  10.790 -0.7661  0.1657  1.0501
 5787TIP3   OH238851   5.059   3.592  13.228 -0.3843 -0.0473  0.6094
 5787TIP3    H138852   5.069   3.661  13.162  0.7678  0.5765  1.3969
 5787TIP3    H238853   5.047   3.640  13.310 -2.0444 -0.8143  0.8492
 5788TIP3   OH238854   0.612   0.372   1.740 -0.1598  0.4086 -0.3576
 5788TIP3    H138855   0.694   0.420   1.749  0.2357  0.0942 -1.9412
 5788TIP3    H238856   0.628   0.289   1.786  0.0754  0.7240  0.1353
 5789TIP3   OH238857   6.243   1.018  10.566 -0.3274  0.0951  0.0199
 5789TIP3    H138858   6.178   0.979  10.508 -0.7361 -0.1871  0.6588
 5789TIP3    H238859   6.193   1.050  10.641 -0.1012  2.4799 -0.7605
 5790TIP3   OH238860   3.505   5.386   2.317 -0.3924  0.2627  0.3779
 5790TIP3    H138861   3.425   5.405   2.268  0.2852 -0.2158 -0.9731
 5790TIP3    H238862   3.504   5.291   2.329  0.4476  0.1097 -0.5726
 5791TIP3   OH238863   5.166   1.753  16.986  0.6184  0.6550 -0.2949
 5791TIP3    H138864   5.094   1.816  16.989 -0.7281 -0.8552  1.3835
 5791TIP3    H238865   5.242   1.802  17.017  0.2973  2.1880 -1.7591
 5792TIP3   OH238866   1.523   5.562   3.842 -0.7327 -0.2434 -0.3319
 5792TIP3    H138867   1.498   5.484   3.891 -0.5344  1.1731  2.2220
 5792TIP3    H238868   1.452   5.575   3.779 -1.8565 -1.2818  0.6757
 5793TIP3   OH238869   1.791   3.559   1.558 -0.3231 -0.4983 -0.3259
 5793TIP3    H138870   1.822   3.634   1.610 -0.8216 -0.7087  0.2836
 5793TIP3    H238871   1.866   3.500   1.554 -0.3485 -0.5834  0.3562
 5794TIP3   OH238872   5.869   1.693   2.743  0.0385  0.0596  0.1356
 5794TIP3    H138873   5.885   1.623   2.680 -1.4634  0.6221 -0.9111
 5794TIP3    H238874   5.832   1.648   2.819 -0.7258 -0.3342 -0.4509
 5795TIP3   OH238875   6.601   6.304  11.533  0.3778  0.0515 -0.0603
 5795TIP3    H138876   6.636   6.325  11.620  0.4665 -0.2734 -0.0121
 5795TIP3    H238877   6.639   6.218  11.514  0.1203 -0.0093 -0.2930
 5796TIP3   OH238878   2.830   5.038  14.642  0.4277  0.0657 -0.0496
 5796TIP3    H138879   2.768   4.966  14.648 -1.0688  1.2515 -0.6513
 5796TIP3    H238880   2.894   5.009  14.577 -2.1797  0.6197 -3.1428
 5797TIP3   OH238881   0.114   1.355  15.610 -0.3525  0.0607  0.8804
 5797TIP3    H138882   0.034   1.356  15.662  0.2499  1.2417  1.8343
 5797TIP3    H238883   0.182   1.387  15.669  0.3737  1.4012 -0.5896
 5798TIP3   OH238884   6.501   2.420  13.627  0.0534  0.5493 -0.6079
 5798TIP3    H138885   6.459   2.505  13.617  0.7795  0.8942 -0.7345
 5798TIP3    H238886   6.594   2.439  13.632  0.3082 -0.2983 -1.6074
 5799TIP3   OH238887   4.894   2.447   2.135 -0.7156  0.1650  0.4949
 5799TIP3    H138888   4.819   2.388   2.138 -1.9369  1.5305 -1.1585
 5799TIP3    H238889   4.940   2.425   2.054 -0.7380  0.9475  0.2593
 5800TIP3   OH238890   5.008   3.038  17.044 -0.3546  0.1591 -0.2473
 5800TIP3    H138891   4.982   3.103  16.978 -0.2786  1.7340  1.2077
 5800TIP3    H238892   5.103   3.036  17.039 -0.4259 -1.4543 -1.7303
 5801TIP3   OH238893   3.629   1.300  14.948 -0.0575  0.6290  0.0085
 5801TIP3    H138894   3.563   1.272  15.012  0.6588 -2.2774 -0.3583
 5801TIP3    H238895   3.713   1.285  14.991  0.4336 -1.0594 -1.3704
 5802TIP3   OH238896   6.202   1.557   0.208 -0.0768 -0.7098 -0.0302
 5802TIP3    H138897   6.169   1.645   0.225  1.4089 -0.1357  0.0196
 5802TIP3    H238898   6.202   1.550   0.112  2.8648  0.6454 -0.2384
 5803TIP3   OH238899   2.697   4.490  16.981  0.4509  0.0416 -0.2620
 5803TIP3    H138900   2.739   4.438  17.049 -1.0812  0.9630  1.4879
 5803TIP3    H238901   2.682   4.429  16.909 -0.9329 -1.8904  1.5481
 5804TIP3   OH238902   6.355   0.325  11.857 -0.1435 -0.2935  0.3737
 5804TIP3    H138903   6.426   0.385  11.834 -0.7673  0.5262  0.5912
 5804TIP3    H238904   6.357   0.321  11.952  1.2593 -2.2839  0.3366
 5805TIP3   OH238905   5.523   2.604  12.271  0.1435 -0.0305 -0.4317
 5805TIP3    H138906   5.599   2.588  12.214 -0.7034  0.4246 -1.7421
 5805TIP3    H238907   5.500   2.517  12.305  0.0440 -0.4963 -1.6342
 5806TIP3   OH238908   3.237   6.272   1.243 -0.0863 -0.2392 -0.1974
 5806TIP3    H138909   3.267   6.195   1.194 -0.6338 -0.1582 -0.6729
 5806TIP3    H238910   3.283   6.345   1.202  0.9965 -0.3784  0.7312
 5807TIP3   OH238911   0.949   4.714  16.915 -0.5379 -0.1411 -0.9109
 5807TIP3    H138912   0.891   4.743  16.986 -1.3387  1.6274 -2.2064
 5807TIP3    H238913   0.999   4.792  16.892  1.2218 -1.2330 -0.9227
 5808TIP3   OH238914   0.393   6.423  13.241 -0.3841  0.4055  0.0843
 5808TIP3    H138915   0.383   6.328  13.237  1.2031  0.2456 -0.7594
 5808TIP3    H238916   0.381   6.444  13.334 -2.0093 -0.4261  0.1010
 5809TIP3   OH238917   0.521   1.185  15.718 -0.7752 -0.1412  0.4185
 5809TIP3    H138918   0.501   1.129  15.642 -0.0096  0.8692 -0.5511
 5809TIP3    H238919   0.573   1.256  15.682 -0.1496  0.2071  1.9669
 5810TIP3   OH238920   1.150   3.692  16.044  0.4233 -0.2039  0.0880
 5810TIP3    H138921   1.098   3.771  16.025  0.6261 -0.0782  0.0508
 5810TIP3    H238922   1.109   3.655  16.122  1.4396  0.9386  1.2102
 5811TIP3   OH238923   6.777   6.788   0.709 -0.1283  0.1177  0.1384
 5811TIP3    H138924   6.866   6.822   0.698  0.0075  0.1084  1.1481
 5811TIP3    H238925   6.723   6.841   0.651  0.2153  1.4845  1.0355
 5812TIP3   OH238926   6.668   2.347   4.482 -0.2048 -0.4882  0.5244
 5812TIP3    H138927   6.737   2.301   4.434 -0.6691 -1.8359  1.1181
 5812TIP3    H238928   6.639   2.416   4.422 -0.0857 -1.5117 -0.7306
 5813TIP3   OH238929   4.896   3.268  12.970 -0.2000 -0.3488 -0.2057
 5813TIP3    H138930   4.861   3.203  12.909  2.5364 -1.4845 -0.7165
 5813TIP3    H238931   4.982   3.290  12.934  0.8743  0.0832  2.4318
 5814TIP3   OH238932   2.422   4.442   2.694 -0.4601  0.0321  0.1774
 5814TIP3    H138933   2.391   4.523   2.653 -1.6431  0.0345  1.0071
 5814TIP3    H238934   2.342   4.391   2.709  0.0612 -0.4853  1.3326
 5815TIP3   OH238935   4.314   6.641   4.246  0.4403  0.2913 -0.5482
 5815TIP3    H138936   4.233   6.606   4.283  0.2729  2.6907  1.6304
 5815TIP3    H238937   4.288   6.677   4.161 -1.3849  2.8909  0.9770
 5816TIP3   OH238938   5.884   3.657  14.591  0.0930  0.1286 -0.4895
 5816TIP3    H138939   5.819   3.689  14.528  0.7219  2.0022 -0.2520
 5816TIP3    H238940   5.940   3.733  14.608  0.2535 -0.4637  1.9463
 5817TIP3   OH238941   3.067   4.323   4.610 -0.0697  0.8961  0.5544
 5817TIP3    H138942   3.075   4.244   4.663  0.8530  0.2237 -0.5375
 5817TIP3    H238943   3.153   4.333   4.569 -1.3501  0.0759 -2.5936
 5818TIP3   OH238944   1.442   1.692   0.310 -0.3336 -0.4550  0.5827
 5818TIP3    H138945   1.440   1.746   0.231  1.0930  1.2429  1.6301
 5818TIP3    H238946   1.366   1.720   0.361 -0.9263 -1.1446  0.1034
 5819TIP3   OH238947   6.534   4.212   3.147  0.2467  0.0908 -0.3406
 5819TIP3    H138948   6.613   4.193   3.197 -1.1437 -0.9316  1.6043
 5819TIP3    H238949   6.531   4.144   3.079  1.8903  1.1992 -1.6296
 5820TIP3   OH238950   5.787   5.091  15.981 -0.1560  0.6566 -0.0479
 5820TIP3    H138951   5.846   5.166  15.977  1.0552 -0.2996 -0.4872
 5820TIP3    H238952   5.798   5.046  15.898 -2.2002  0.9204 -0.5383
 5821TIP3   OH238953   1.247   2.478   5.907 -0.0296 -0.0408 -0.0617
 5821TIP3    H138954   1.161   2.437   5.899 -1.3123  2.2485  0.9303
 5821TIP3    H238955   1.238   2.539   5.980  2.1879  0.9119 -0.4816
 5822TIP3   OH238956   1.486   3.906   2.544 -0.4016  0.5092 -0.2406
 5822TIP3    H138957   1.532   3.846   2.484 -1.0350 -1.5486  1.2082
 5822TIP3    H238958   1.409   3.934   2.496  0.4746  1.0901 -1.3609
 5823TIP3   OH238959   4.148   6.219  15.673 -0.1170 -0.4850  1.3549
 5823TIP3    H138960   4.230   6.262  15.649 -0.3114 -0.6101  0.4362
 5823TIP3    H238961   4.168   6.125  15.672 -0.8603 -0.7150 -1.4555
 5824TIP3   OH238962   5.263   5.103   5.699  0.3876  0.0583 -0.7655
 5824TIP3    H138963   5.354   5.079   5.679  0.5218 -0.5375  0.4475
 5824TIP3    H238964   5.239   5.045   5.771 -1.1877 -0.2536 -1.5031
 5825TIP3   OH238965   4.640   3.675  16.570 -0.1650 -0.1795  0.2340
 5825TIP3    H138966   4.548   3.690  16.549  0.0851  0.2849 -0.5419
 5825TIP3    H238967   4.682   3.662  16.486  0.3653 -1.0859  0.6355
 5826TIP3   OH238968   3.474   4.595  13.785 -0.1367 -0.3162 -0.3368
 5826TIP3    H138969   3.537   4.606  13.713 -1.6131 -0.7094 -1.7327
 5826TIP3    H238970   3.412   4.667  13.774 -1.1673 -1.1747 -0.3175
 5827TIP3   OH238971   5.781   3.828  16.689 -0.3953  0.2742  0.2609
 5827TIP3    H138972   5.729   3.773  16.747 -0.9112  0.2291 -0.2428
 5827TIP3    H238973   5.828   3.887  16.748  1.0733 -1.4482  0.8949
 5828TIP3   OH238974   5.573   0.093  14.630  0.0199  0.0079 -0.6520
 5828TIP3    H138975   5.505   0.058  14.572 -1.0607  1.4370 -0.2887
 5828TIP3    H238976   5.588   0.182  14.599  0.5537  0.2581  0.2914
 5829TIP3   OH238977   1.124   3.524  13.661  0.6141  0.3574  0.0938
 5829TIP3    H138978   1.145   3.544  13.570 -1.2504  0.4271 -0.3537
 5829TIP3    H238979   1.156   3.434  13.674  0.7424  0.2881 -0.6705
 5830TIP3   OH238980   0.848   3.401  14.666 -0.1084 -0.5070  0.2251
 5830TIP3    H138981   0.867   3.380  14.574  0.0277 -0.4109  0.2323
 5830TIP3    H238982   0.933   3.396  14.709  0.3609  2.3899 -0.2002
 5831TIP3   OH238983   3.759   5.535  14.120  0.0514  0.0920 -0.6912
 5831TIP3    H138984   3.668   5.560  14.104  0.0476 -0.9304 -2.5269
 5831TIP3    H238985   3.753   5.452  14.169  0.0183  0.2912 -0.3510
 5832TIP3   OH238986   6.771   1.607   6.433 -0.5427  0.3071 -0.4320
 5832TIP3    H138987   6.730   1.549   6.497 -0.2842  1.0558  0.4353
 5832TIP3    H238988   6.859   1.572   6.422  0.1642  1.4118  1.3009
 5833TIP3   OH238989   1.950   0.528  13.809  0.6024  0.7685  0.6852
 5833TIP3    H138990   2.019   0.489  13.862  1.1533  2.0821  0.9808
 5833TIP3    H238991   1.988   0.610  13.777 -0.1786  0.6222 -0.6744
 5834TIP3   OH238992   3.839   3.310  13.152 -0.2887 -0.0915  0.5652
 5834TIP3    H138993   3.885   3.353  13.080 -0.2860  1.2564  1.3312
 5834TIP3    H238994   3.761   3.365  13.166 -0.7539 -0.8500  0.9968
 5835TIP3   OH238995   6.189   5.017  12.696 -0.5892 -0.0087 -0.1625
 5835TIP3    H138996   6.284   5.020  12.697 -0.6110  1.5762 -0.0672
 5835TIP3    H238997   6.163   5.054  12.781 -1.2909 -0.3592 -0.2186
 5836TIP3   OH238998   4.701   5.604   5.757  0.0987  0.2252 -0.0799
 5836TIP3    H138999   4.707   5.595   5.662 -0.6592  1.0678 -0.2190
 5836TIP3    H239000   4.757   5.534   5.791  0.5422  0.0404 -1.1429
 5837TIP3   OH239001   4.385   2.559   3.811 -0.6428 -0.1202 -0.3159
 5837TIP3    H139002   4.331   2.557   3.731 -0.1313  0.0363 -0.6730
 5837TIP3    H239003   4.459   2.616   3.788 -1.0304  0.7791  0.6271
 5838TIP3   OH239004   6.562   5.081  15.647 -0.3199  0.0130 -0.1696
 5838TIP3    H139005   6.551   4.986  15.650 -0.5114  0.0445  0.3361
 5838TIP3    H239006   6.640   5.095  15.594 -0.3472 -0.4216 -0.3265
 5839TIP3   OH239007   1.485   4.241   2.581  0.2130 -0.5537  0.6120
 5839TIP3    H139008   1.438   4.164   2.551  2.1468 -1.5486 -0.0493
 5839TIP3    H239009   1.417   4.306   2.599 -1.3172 -1.4971 -1.4187
 5840TIP3   OH239010   5.782   1.453   4.275  0.0492  0.7670 -0.0193
 5840TIP3    H139011   5.853   1.454   4.339  0.1750 -0.3230 -0.1292
 5840TIP3    H239012   5.744   1.366   4.283 -0.1728  0.7499 -1.1744
 5841TIP3   OH239013   4.429   1.137  12.692 -0.3882  0.5785  0.0193
 5841TIP3    H139014   4.491   1.081  12.738  0.6392  1.6051 -0.0508
 5841TIP3    H239015   4.483   1.188  12.632 -1.3875  1.0696 -0.4891
 5842TIP3   OH239016   6.748   2.323  14.738  0.3061 -0.1422  0.2400
 5842TIP3    H139017   6.777   2.323  14.647 -1.4057  1.5602 -0.3714
 5842TIP3    H239018   6.653   2.335  14.733  0.4615  3.1150  2.2420
 5843TIP3   OH239019   0.775   4.432  16.213  0.1603  0.5091 -0.0029
 5843TIP3    H139020   0.697   4.470  16.254  1.3204  1.1283  1.7456
 5843TIP3    H239021   0.794   4.490  16.139 -2.1887 -0.8424 -1.8034
 5844TIP3   OH239022   4.388   2.851  12.826 -0.1547  0.0445  0.5580
 5844TIP3    H139023   4.482   2.854  12.840  0.0051  1.0981 -0.5638
 5844TIP3    H239024   4.376   2.876  12.735 -1.4458 -1.3779  0.2996
 5845TIP3   OH239025   1.291   1.139  15.271 -0.5233  0.1911  0.4964
 5845TIP3    H139026   1.328   1.066  15.221 -0.2551  1.2532 -0.9203
 5845TIP3    H239027   1.253   1.098  15.349 -1.3965 -1.6033 -0.7976
 5846TIP3   OH239028   0.263   4.682   0.842 -0.8282 -0.4675 -0.3534
 5846TIP3    H139029   0.330   4.700   0.777 -0.7114  0.3455 -0.0161
 5846TIP3    H239030   0.297   4.608   0.892 -1.1074 -1.3764 -1.4599
 5847TIP3   OH239031   3.043   6.187  13.687 -0.0200 -0.1349  0.1138
 5847TIP3    H139032   2.974   6.120  13.685  0.5511 -0.7162 -0.8347
 5847TIP3    H239033   3.102   6.163  13.616  0.1618  1.4297 -0.3007
 5848TIP3   OH239034   4.705   4.443  11.988 -0.6729 -0.1987 -0.4023
 5848TIP3    H139035   4.689   4.537  11.996  0.9720  0.1393 -0.8479
 5848TIP3    H239036   4.631   4.411  11.936 -0.4321  1.1300 -1.6253
 5849TIP3   OH239037   4.601   1.442   1.945  0.1078 -0.1647 -0.3874
 5849TIP3    H139038   4.526   1.482   1.901  1.4580  1.5000 -1.3436
 5849TIP3    H239039   4.656   1.409   1.873  2.7266  3.2621 -0.2248
 5850TIP3   OH239040   4.661   2.273  12.646 -0.3936  0.2482  0.2809
 5850TIP3    H139041   4.701   2.203  12.594 -0.6224  2.2393 -2.8727
 5850TIP3    H239042   4.734   2.318  12.687 -0.0340 -0.2874  0.2371
 5851TIP3   OH239043   1.454   6.015   5.445  0.7797  0.3534 -0.6859
 5851TIP3    H139044   1.542   6.048   5.428  1.3317 -1.4845 -1.6630
 5851TIP3    H239045   1.415   6.005   5.358 -0.4595  1.2295 -0.2591
 5852TIP3   OH239046   5.311   6.468  14.787 -0.1474  0.0423 -0.2207
 5852TIP3    H139047   5.288   6.390  14.837 -0.3542  0.7987  0.8851
 5852TIP3    H239048   5.232   6.489  14.737 -0.0196 -0.5711 -0.6932
 5853TIP3   OH239049   1.952   0.886   0.882 -0.2962  0.3653  0.1295
 5853TIP3    H139050   1.861   0.862   0.900 -0.5877  1.3061 -0.0594
 5853TIP3    H239051   1.971   0.845   0.798 -0.9396  1.1655 -0.4184
 5854TIP3   OH239052   5.277   1.275   3.113 -0.8996 -0.2326  0.0534
 5854TIP3    H139053   5.285   1.221   3.034 -0.2344 -0.6732  0.4151
 5854TIP3    H239054   5.340   1.346   3.099  0.1126 -0.9822  0.7185
 5855TIP3   OH239055   2.030   1.005   5.346  0.1102  0.0774  0.0307
 5855TIP3    H139056   2.105   1.000   5.406 -1.2170  0.3220  1.7978
 5855TIP3    H239057   2.001   1.096   5.353 -0.3785 -0.0236 -0.6236
 5856TIP3   OH239058   4.350   2.121  14.004 -0.4098 -0.2546 -0.2503
 5856TIP3    H139059   4.299   2.189  14.049 -0.3204 -0.2830 -0.1048
 5856TIP3    H239060   4.292   2.089  13.935 -0.2885  0.2781 -0.6018
 5857TIP3   OH239061   6.457   2.671  15.443  0.0055  0.6816  0.2235
 5857TIP3    H139062   6.401   2.654  15.519 -1.9461 -0.0272 -1.2945
 5857TIP3    H239063   6.542   2.635  15.468 -0.7884 -0.2510  1.7789
 5858TIP3   OH239064   5.885   1.657   6.179  0.0866 -0.4315  0.7691
 5858TIP3    H139065   5.919   1.580   6.224 -1.4597 -1.6143  0.0070
 5858TIP3    H239066   5.863   1.718   6.250  0.8458 -0.8828  1.4107
 5859TIP3   OH239067   4.869   0.305  11.097 -0.3954 -0.6479 -0.4478
 5859TIP3    H139068   4.960   0.274  11.099 -1.0507 -2.7002  0.9197
 5859TIP3    H239069   4.826   0.249  11.033 -1.3455 -1.8755  1.1898
 5860TIP3   OH239070   5.979   5.500   3.997 -0.3282  0.2800 -0.3769
 5860TIP3    H139071   5.956   5.567   3.932  1.0949 -1.3082 -2.6804
 5860TIP3    H239072   5.930   5.422   3.968  0.4898 -0.5160  0.3469
 5861TIP3   OH239073   4.218   1.211  13.113 -0.4496  0.9686  0.3290
 5861TIP3    H139074   4.295   1.266  13.127  1.6779 -1.9993  1.2546
 5861TIP3    H239075   4.252   1.131  13.073 -3.0953 -0.3730  0.5118
 5862TIP3   OH239076   1.027   5.539  11.980 -0.3771 -0.3798  0.2136
 5862TIP3    H139077   1.004   5.449  11.957 -0.5003 -0.2371 -0.2199
 5862TIP3    H239078   1.031   5.538  12.076  0.0721 -0.9537  0.1973
 5863TIP3   OH239079   3.191   2.450  12.311  0.5673  0.0128  0.1819
 5863TIP3    H139080   3.202   2.358  12.332 -0.2707 -0.0441  0.4313
 5863TIP3    H239081   3.108   2.454  12.263  2.2358  0.2006 -2.8874
 5864TIP3   OH239082   1.776   3.381  11.864 -0.2619  0.0021 -0.1587
 5864TIP3    H139083   1.731   3.410  11.785 -0.0270 -0.7147 -0.5755
 5864TIP3    H239084   1.768   3.453  11.925  0.8958  1.2226 -1.3716
 5865TIP3   OH239085   5.476   4.481  15.355  0.5302 -0.9915  0.0274
 5865TIP3    H139086   5.552   4.429  15.379 -0.5051 -2.5119  0.1721
 5865TIP3    H239087   5.454   4.454  15.266 -1.5604 -2.8553  0.9943
 5866TIP3   OH239088   5.842   6.035  17.177  0.2651 -0.1642  0.8809
 5866TIP3    H139089   5.780   6.051  17.248  1.1994 -1.1060  1.9639
 5866TIP3    H239090   5.796   6.062  17.098 -0.1957  2.5565  1.9732
 5867TIP3   OH239091   3.880   1.931   3.098 -0.5625  0.1298 -0.0591
 5867TIP3    H139092   3.795   1.946   3.139 -1.1954 -2.8028 -0.1133
 5867TIP3    H239093   3.891   1.836   3.097  2.3548  0.3557 -0.8391
 5868TIP3   OH239094   3.443   4.066  12.284  0.6563 -0.0782  0.3123
 5868TIP3    H139095   3.469   4.065  12.192  1.3541  1.3295  0.4601
 5868TIP3    H239096   3.357   4.108  12.285 -0.2370 -1.8294  0.1403
 5869TIP3   OH239097   0.046   4.800  15.252 -0.0218 -0.6749 -0.2206
 5869TIP3    H139098  -0.000   4.879  15.223  0.6705 -0.8534 -1.9584
 5869TIP3    H239099   0.023   4.734  15.186  1.0883 -1.3195  0.0188
 5870TIP3   OH239100   1.952   1.532   0.491  0.0073 -0.6205  0.3173
 5870TIP3    H139101   1.883   1.516   0.555 -0.8529  0.4571 -0.3024
 5870TIP3    H239102   1.998   1.609   0.525 -0.7107  0.2108 -0.5219
 5871TIP3   OH239103   5.619   1.722   3.178  0.0059  0.4839  0.2139
 5871TIP3    H139104   5.641   1.669   3.254 -0.0600 -0.9342 -0.7263
 5871TIP3    H239105   5.571   1.797   3.214  3.8715  2.3753  2.1064
 5872TIP3   OH239106   3.481   4.397   2.934  0.1573  0.2457  0.3000
 5872TIP3    H139107   3.518   4.336   2.870 -0.8114  1.0516 -1.0868
 5872TIP3    H239108   3.399   4.427   2.894 -0.1513  1.2825  1.6310
 5873TIP3   OH239109   1.141   4.235   0.662  0.0794 -0.5470 -0.2715
 5873TIP3    H139110   1.172   4.275   0.743  0.1828 -2.7378  0.8491
 5873TIP3    H239111   1.221   4.215   0.614  0.0470  0.1245 -0.6176
 5874TIP3   OH239112   1.885   4.706   3.934  0.2976  0.5577  0.2765
 5874TIP3    H139113   1.820   4.637   3.947  0.3207  0.2971 -0.9160
 5874TIP3    H239114   1.839   4.773   3.885  0.3914  1.2345  1.0880
 5875TIP3   OH239115   3.626   2.842   2.776 -0.5186 -0.4878 -0.3558
 5875TIP3    H139116   3.551   2.861   2.719 -2.2139 -0.4972  1.7365
 5875TIP3    H239117   3.652   2.753   2.753  0.1771  0.2120 -2.4701
 5876TIP3   OH239118   3.792   0.822  14.716  0.0200  0.1894 -0.6369
 5876TIP3    H139119   3.780   0.905  14.761  0.5880 -0.0508 -0.0254
 5876TIP3    H239120   3.713   0.772  14.737  0.0368  0.2816 -0.3549
 5877TIP3   OH239121   6.725   3.074   5.315  0.0003 -0.2064 -0.4451
 5877TIP3    H139122   6.713   2.989   5.272 -1.9370 -0.5454  0.6433
 5877TIP3    H239123   6.665   3.133   5.268 -0.8500 -0.1776  0.6278
 5878TIP3   OH239124   0.573   0.130  15.610 -0.1852 -0.2654 -0.3032
 5878TIP3    H139125   0.551   0.193  15.679 -2.1635 -0.2481 -0.8984
 5878TIP3    H239126   0.610   0.055  15.658  1.5302  1.0001  0.4677
 5879TIP3   OH239127   4.880   3.705  16.888  0.1522  0.0695 -0.5931
 5879TIP3    H139128   4.965   3.680  16.925  0.5755  1.2500 -0.7109
 5879TIP3    H239129   4.866   3.645  16.815  0.1224 -1.1654  0.4140
 5880TIP3   OH239130   0.126   6.186   6.365  0.1372  0.9153  0.3769
 5880TIP3    H139131   0.221   6.194   6.373  0.2886 -0.7233  0.4350
 5880TIP3    H239132   0.106   6.098   6.397 -1.1695  0.4565 -1.5461
 5881TIP3   OH239133   3.777   6.635   5.085 -0.3596  0.3518  0.0934
 5881TIP3    H139134   3.837   6.569   5.120 -1.5906 -0.0218  1.6201
 5881TIP3    H239135   3.747   6.683   5.163 -1.9992  0.5464 -0.6337
 5882TIP3   OH239136   0.869   0.672   1.560  0.0350  0.3248  0.0379
 5882TIP3    H139137   0.953   0.628   1.546 -0.2376 -0.6701  1.2714
 5882TIP3    H239138   0.846   0.649   1.650 -2.1323 -0.4233 -0.6440
 5883TIP3   OH239139   3.036   5.106  14.029  0.0467  0.1491 -0.1147
 5883TIP3    H139140   3.088   5.182  14.055  0.0025  0.1315  0.0258
 5883TIP3    H239141   3.070   5.083  13.943  0.9912 -0.4888  0.4017
 5884TIP3   OH239142   3.473   6.199  13.570  0.5413  0.0937 -0.0364
 5884TIP3    H139143   3.528   6.123  13.548 -2.4706 -2.0311 -0.8939
 5884TIP3    H239144   3.511   6.234  13.650  2.2642 -2.1047  0.2100
 5885TIP3   OH239145   5.158   2.332  15.038  0.2441  0.6664  0.1821
 5885TIP3    H139146   5.136   2.339  15.131 -0.3238  0.9579  0.0321
 5885TIP3    H239147   5.073   2.323  14.994  0.4210  1.6726 -0.4033
 5886TIP3   OH239148   5.878   1.479   0.189 -0.4432  0.0286  0.0940
 5886TIP3    H139149   5.850   1.467   0.098 -1.4371  0.3134  0.3550
 5886TIP3    H239150   5.813   1.537   0.227 -1.2727 -1.7605  1.5862
 5887TIP3   OH239151   1.517   5.899  16.018 -0.0746  0.2516  0.5125
 5887TIP3    H139152   1.427   5.892  15.989  0.6027 -3.3043 -1.3676
 5887TIP3    H239153   1.567   5.916  15.938  1.0844 -0.0691  1.1424
 5888TIP3   OH239154   5.931   5.063  13.935 -0.0475 -0.1555  0.0278
 5888TIP3    H139155   6.019   5.078  13.970  0.0722 -0.2990 -0.2032
 5888TIP3    H239156   5.895   4.993  13.989 -0.9282  1.4875  1.6528
 5889TIP3   OH239157   6.063   5.663   0.779  0.0009 -0.1755  0.2193
 5889TIP3    H139158   6.093   5.597   0.716 -1.7061 -0.5213 -0.2777
 5889TIP3    H239159   6.144   5.707   0.807  0.8453 -0.0365 -2.1528
 5890TIP3   OH239160   0.526   0.943   5.324  0.6390  0.0849  0.9338
 5890TIP3    H139161   0.473   0.958   5.402  0.4418 -0.0195  0.8211
 5890TIP3    H239162   0.495   0.859   5.290  0.8408  0.0491  0.8382
 5891TIP3   OH239163   1.622   0.572  16.064 -0.2369 -0.1067  0.7271
 5891TIP3    H139164   1.689   0.583  16.132 -0.4320 -3.1961  1.5965
 5891TIP3    H239165   1.671   0.552  15.985 -0.0606  2.3202  0.1314
 5892TIP3   OH239166   5.276   3.962   1.542 -0.4804 -0.6217 -0.1331
 5892TIP3    H139167   5.262   3.903   1.616  0.8998  0.9532  1.5155
 5892TIP3    H239168   5.229   4.042   1.566  1.4757  0.5770  0.0110
 5893TIP3   OH239169   1.177   5.707  16.256 -0.1279 -0.1012 -0.1829
 5893TIP3    H139170   1.098   5.756  16.232 -0.0847  0.3866  0.6589
 5893TIP3    H239171   1.194   5.731  16.346 -0.1393 -1.7208  0.2923
 5894TIP3   OH239172   2.727   0.500  12.507 -0.2781  0.0711 -0.1535
 5894TIP3    H139173   2.702   0.441  12.436  0.1375  1.1216 -1.1947
 5894TIP3    H239174   2.644   0.534  12.541 -0.4317  0.7174 -1.1467
 5895TIP3   OH239175   0.424   3.130   5.384  0.6985 -0.4001 -1.0049
 5895TIP3    H139176   0.411   3.195   5.315  0.3048 -0.7056 -1.2243
 5895TIP3    H239177   0.519   3.129   5.399  0.6555  0.6317 -0.5900
 5896TIP3   OH239178   4.513   2.270  13.690 -0.0266 -0.3244 -0.2925
 5896TIP3    H139179   4.568   2.349  13.690 -2.0802  1.2356 -2.1420
 5896TIP3    H239180   4.438   2.293  13.746 -1.2137 -0.4508 -1.7500
 5897TIP3   OH239181   3.920   1.616   5.789  0.1447 -0.5035  0.5535
 5897TIP3    H139182   3.885   1.597   5.876  0.2132  0.7563  0.8634
 5897TIP3    H239183   4.007   1.650   5.805  0.4757 -1.0370 -0.0667
 5898TIP3   OH239184   0.734   3.940  14.338 -0.6774 -0.3768 -0.3433
 5898TIP3    H139185   0.762   3.858  14.298 -1.5411 -0.7415 -0.2137
 5898TIP3    H239186   0.783   4.007  14.292  2.8599 -1.1280  1.8795
 5899TIP3   OH239187   1.537   3.562  14.106  0.4569  0.7086 -0.1529
 5899TIP3    H139188   1.620   3.549  14.061 -0.2688  1.2521 -1.7164
 5899TIP3    H239189   1.470   3.533  14.043 -0.5875  1.1913  0.6957
 5900TIP3   OH239190   2.532   5.462   3.491  0.0117  0.1581  0.1634
 5900TIP3    H139191   2.479   5.395   3.533 -0.5287  0.2917 -0.2847
 5900TIP3    H239192   2.473   5.501   3.426 -0.1131  1.9530  1.3021
 5901TIP3   OH239193   4.277   0.158  14.717  0.2761 -0.6344 -0.1985
 5901TIP3    H139194   4.268   0.086  14.655 -2.0430 -0.4945 -0.1166
 5901TIP3    H239195   4.319   0.227  14.666 -1.1651 -0.6835 -1.5531
 5902TIP3   OH239196   0.754   5.149  13.170 -0.0462  0.2173  0.2657
 5902TIP3    H139197   0.849   5.160  13.161 -0.1895  0.1424 -2.2930
 5902TIP3    H239198   0.740   5.055  13.164 -0.3575  0.3273 -1.0259
 5903TIP3   OH239199   4.249   4.424   2.752 -0.4892  0.5811 -0.2808
 5903TIP3    H139200   4.263   4.502   2.806 -1.6501 -0.2046  1.2332
 5903TIP3    H239201   4.187   4.452   2.685  1.0049  1.5809 -1.3216
 5904TIP3   OH239202   6.276   4.550  15.906 -0.5312  0.2778 -0.0893
 5904TIP3    H139203   6.230   4.534  15.824 -0.9063  0.2244  0.1312
 5904TIP3    H239204   6.220   4.610  15.955  0.3650  1.4654 -0.4608
 5905TIP3   OH239205   6.570   2.817  14.610 -0.0654 -0.8442  0.5395
 5905TIP3    H139206   6.530   2.883  14.666  0.4094  0.2263 -0.3550
 5905TIP3    H239207   6.572   2.857  14.523  0.0019 -2.1349 -0.0704
 5906TIP3   OH239208   6.558   1.673  16.310  0.6745 -0.1338 -0.7217
 5906TIP3    H139209   6.602   1.606  16.257 -1.5373 -2.3208 -0.0133
 5906TIP3    H239210   6.592   1.658  16.399  1.5524  0.9898 -0.8461
 5907TIP3   OH239211   0.429   1.764  11.806 -0.0774  0.3025  0.1740
 5907TIP3    H139212   0.418   1.825  11.880 -1.0884  1.6228 -1.0084
 5907TIP3    H239213   0.461   1.820  11.735 -2.2531 -0.2579 -1.3273
 5908TIP3   OH239214   3.823   0.781   3.300  0.5457  0.0387  0.3316
 5908TIP3    H139215   3.791   0.701   3.341 -2.4380  0.1094 -1.5264
 5908TIP3    H239216   3.839   0.758   3.209 -0.6018  1.5464 -0.3017
 5909TIP3   OH239217   3.723   6.488  12.784 -0.4933  0.4408  0.1090
 5909TIP3    H139218   3.766   6.455  12.863 -0.5898  0.4499  0.1652
 5909TIP3    H239219   3.739   6.582  12.785 -0.0537  0.3691 -0.1523
 5910TIP3   OH239220   2.165   0.623   6.757 -0.7642  0.7203  0.1919
 5910TIP3    H139221   2.208   0.672   6.687 -0.8788  0.7035  0.1099
 5910TIP3    H239222   2.219   0.545   6.768 -0.0061  1.3336  1.0001
 5911TIP3   OH239223   5.121   6.815   2.440 -0.1970  0.1596  0.8272
 5911TIP3    H139224   5.077   6.801   2.356 -0.0179 -1.9484  1.0164
 5911TIP3    H239225   5.050   6.817   2.504 -0.2450  0.2891  0.7693
 5912TIP3   OH239226   2.291   3.117  16.683  0.0890 -0.5176  0.0624
 5912TIP3    H139227   2.225   3.161  16.629  0.3666  0.3812  0.4306
 5912TIP3    H239228   2.369   3.116  16.628  0.4741  0.7233  0.5561
 5913TIP3   OH239229   3.414   1.732  13.384 -0.3658  0.3007  0.2378
 5913TIP3    H139230   3.435   1.782  13.305  0.6317 -0.3971  0.0442
 5913TIP3    H239231   3.481   1.759  13.448 -2.2245  2.2439  1.5013
 5914TIP3   OH239232   5.376   6.309  16.752  0.0438 -0.2973  0.5166
 5914TIP3    H139233   5.367   6.392  16.705 -0.1735 -0.3023  0.5466
 5914TIP3    H239234   5.443   6.326  16.818 -0.0497 -0.1209  0.5675
 5915TIP3   OH239235   0.401   0.294   3.850 -0.4957 -0.0909  0.2671
 5915TIP3    H139236   0.454   0.363   3.811  1.1730 -1.7269 -0.5249
 5915TIP3    H239237   0.435   0.286   3.939  0.1190 -0.6461 -0.0093
 5916TIP3   OH239238   2.160   2.826   4.397 -0.1001  0.8058 -0.2334
 5916TIP3    H139239   2.202   2.905   4.363 -0.5313  1.3400  0.4446
 5916TIP3    H239240   2.105   2.857   4.469 -0.0547 -0.1475  0.2310
 5917TIP3   OH239241   0.529   3.882   3.166  0.1821 -0.1156  0.2792
 5917TIP3    H139242   0.518   3.803   3.113  1.1228 -0.0101 -0.0982
 5917TIP3    H239243   0.566   3.850   3.248  0.0554 -0.1258  0.3321
 5918TIP3   OH239244   0.605   3.716   0.360 -0.3139 -0.2865 -0.5761
 5918TIP3    H139245   0.552   3.667   0.422 -0.7577  0.0612 -0.6779
 5918TIP3    H239246   0.695   3.700   0.388 -0.5582  1.1168  1.1335
 5919TIP3   OH239247   0.542   0.922   0.399 -0.2883 -0.3334  0.1749
 5919TIP3    H139248   0.610   0.909   0.333 -0.2600 -0.8301  0.2965
 5919TIP3    H239249   0.590   0.938   0.480 -0.3111 -0.7349  0.2709
 5920TIP3   OH239250   5.850   1.157  15.448 -0.4348 -0.0579  0.5473
 5920TIP3    H139251   5.817   1.091  15.387  0.9760 -0.6063  0.3613
 5920TIP3    H239252   5.878   1.108  15.525 -2.0737  0.6195  1.6290
 5921TIP3   OH239253   4.521   5.530   2.090  0.4806  0.4897  0.6905
 5921TIP3    H139254   4.454   5.580   2.135 -0.8779  0.4903 -1.2348
 5921TIP3    H239255   4.486   5.441   2.084  0.2523  0.6567 -1.0044
 5922TIP3   OH239256   6.201   4.724  16.974  0.7923  0.1474 -0.2058
 5922TIP3    H139257   6.215   4.767  16.890 -0.5562  1.3507  0.1482
 5922TIP3    H239258   6.288   4.717  17.013  1.3091  0.4063 -1.3051
 5923TIP3   OH239259   2.375   1.926   3.518 -0.1132  0.4704  0.0426
 5923TIP3    H139260   2.377   1.843   3.567  2.8379  0.6502  0.4057
 5923TIP3    H239261   2.324   1.985   3.574 -2.2204 -1.0189 -0.1945
 5924TIP3   OH239262   2.500   1.587   0.973  0.1872  0.9141  0.0180
 5924TIP3    H139263   2.574   1.527   0.967  0.5821  1.3987 -0.0665
 5924TIP3    H239264   2.468   1.596   0.883  1.0702  1.9781 -0.2077
 5925TIP3   OH239265   5.206   0.308   0.277 -0.4498 -0.5453  0.3397
 5925TIP3    H139266   5.190   0.285   0.185 -2.4830 -0.8110  0.7164
 5925TIP3    H239267   5.291   0.269   0.297  0.0019 -0.5344 -1.3976
 5926TIP3   OH239268   3.558   1.849  10.964 -0.0357  0.6249  0.1690
 5926TIP3    H139269   3.653   1.855  10.975 -0.0817 -0.1039  1.0532
 5926TIP3    H239270   3.545   1.772  10.908 -0.1114  0.5527  0.2839
 5927TIP3   OH239271   4.979   1.547   5.928  0.1262 -0.3142  0.3597
 5927TIP3    H139272   4.900   1.581   5.969 -2.4455 -1.9645 -2.7208
 5927TIP3    H239273   5.000   1.468   5.978 -0.2403  0.0745  1.1396
 5928TIP3   OH239274   1.909   4.277   0.443 -0.8471 -0.1020 -0.3751
 5928TIP3    H139275   1.875   4.367   0.438 -0.9100 -0.0199  0.9358
 5928TIP3    H239276   1.838   4.222   0.411 -0.6950  0.3296 -1.4800
 5929TIP3   OH239277   2.382   5.107  14.191 -0.3028  0.4185  0.7658
 5929TIP3    H139278   2.383   5.017  14.225  2.9830 -0.3223 -0.9686
 5929TIP3    H239279   2.374   5.097  14.096  0.2089  1.9767  0.5380
 5930TIP3   OH239280   2.205   3.013  12.387  0.0164  0.4725  0.3363
 5930TIP3    H139281   2.158   3.085  12.430  0.1555  0.5662  0.3316
 5930TIP3    H239282   2.275   3.056  12.338 -0.0475  0.3531  0.1390
 5931TIP3   OH239283   0.789   4.872  11.910  0.1601 -0.3025  0.0957
 5931TIP3    H139284   0.790   4.779  11.935  1.4903  0.0705  1.5781
 5931TIP3    H239285   0.880   4.893  11.891 -0.2349  0.5419 -0.9570
 5932TIP3   OH239286   2.971   5.304  11.397  0.0188  0.0040 -0.8980
 5932TIP3    H139287   3.037   5.299  11.329  1.9651  1.4306  0.7412
 5932TIP3    H239288   2.952   5.213  11.419  1.0792 -0.4498 -1.7521
 5933TIP3   OH239289   0.170   3.089   5.244  0.3398 -0.2799  0.4711
 5933TIP3    H139290   0.097   3.080   5.305  0.6039 -1.3431  0.6394
 5933TIP3    H239291   0.248   3.087   5.299  0.5184  0.6795  0.2744
 5934TIP3   OH239292   5.429   0.458  11.304 -0.5033  0.6230  0.0053
 5934TIP3    H139293   5.376   0.478  11.227 -2.0533 -0.8558  0.6324
 5934TIP3    H239294   5.402   0.523  11.369  0.3063  1.4375 -0.4509
 5935TIP3   OH239295   6.618   4.211  13.206 -0.1170 -0.3295 -0.3188
 5935TIP3    H139296   6.639   4.265  13.129 -1.5952  1.1092  0.2301
 5935TIP3    H239297   6.663   4.255  13.278  2.6962 -2.6197 -0.4849
 5936TIP3   OH239298   4.484   3.001  13.603  0.4128  0.5128 -0.0810
 5936TIP3    H139299   4.567   3.024  13.645 -0.3515  2.6045  0.3740
 5936TIP3    H239300   4.499   3.019  13.510  0.4933  0.7893 -0.0144
 5937TIP3   OH239301   5.125   0.645   5.948 -0.3111  0.0049  0.4329
 5937TIP3    H139302   5.050   0.589   5.926 -1.1347  1.2051  0.1022
 5937TIP3    H239303   5.086   0.730   5.969  0.9350  0.5333  0.6812
 5938TIP3   OH239304   2.918   6.020  11.939  0.0388 -0.4953  0.0143
 5938TIP3    H139305   2.980   6.028  11.867 -1.6535  2.0310 -1.3294
 5938TIP3    H239306   2.886   5.930  11.934 -0.5355 -0.2219 -2.9491
 5939TIP3   OH239307   2.089   2.511   3.342 -0.0964 -0.7141 -0.0870
 5939TIP3    H139308   2.021   2.518   3.408 -0.4342 -0.5317 -0.4471
 5939TIP3    H239309   2.113   2.418   3.341  0.8544 -0.5084  1.2111
 5940TIP3   OH239310   2.099   4.112   0.556  0.2479  0.0877  0.2366
 5940TIP3    H139311   2.060   4.026   0.539  0.6156 -0.2507  1.0633
 5940TIP3    H239312   2.040   4.174   0.513 -1.1488 -0.4254  1.3136
 5941TIP3   OH239313   1.052   1.459   5.876 -0.5175  1.1759 -0.5376
 5941TIP3    H139314   1.045   1.466   5.781 -1.4024 -1.2226 -0.7280
 5941TIP3    H239315   1.103   1.379   5.890 -0.6943  1.3087  1.0115
 5942TIP3   OH239316   1.452   1.131  12.283 -0.0576  0.1638 -0.6394
 5942TIP3    H139317   1.423   1.159  12.370 -0.8766 -1.4046 -0.3662
 5942TIP3    H239318   1.453   1.211  12.230  2.9592  1.6885  1.4087
 5943TIP3   OH239319   1.627   5.321   2.361  0.5033 -0.3661  0.4911
 5943TIP3    H139320   1.632   5.317   2.265 -0.4973 -0.7124  0.4360
 5943TIP3    H239321   1.697   5.264   2.391  0.6014 -0.5387 -0.0447
 5944TIP3   OH239322   1.005   6.342  15.575  0.5023 -0.3746 -0.0027
 5944TIP3    H139323   1.098   6.321  15.569  0.6884  0.3521  0.2711
 5944TIP3    H239324   0.996   6.388  15.658 -0.0270 -0.0609 -0.2303
 5945TIP3   OH239325   2.147   4.587  11.594 -1.0281 -0.1604  0.2440
 5945TIP3    H139326   2.053   4.581  11.607 -1.0395 -0.1012  0.1863
 5945TIP3    H239327   2.169   4.678  11.613 -1.1455  0.1048 -0.8296
 5946TIP3   OH239328   2.584   1.192  16.304 -0.2877 -0.4086 -0.5327
 5946TIP3    H139329   2.550   1.103  16.305  0.3399 -0.6502 -0.6826
 5946TIP3    H239330   2.506   1.247  16.292 -1.0817 -0.7561  2.2974
 5947TIP3   OH239331   2.760   6.220   3.399  0.5654  0.5546  0.4957
 5947TIP3    H139332   2.823   6.215   3.472 -0.6041  0.3241  1.5174
 5947TIP3    H239333   2.730   6.311   3.400 -0.4189  0.2401  1.1631
 5948TIP3   OH239334   4.160   2.549   0.815 -0.0526 -0.4909  0.1757
 5948TIP3    H139335   4.117   2.541   0.900 -0.0364 -1.6225  0.1028
 5948TIP3    H239336   4.203   2.634   0.817  0.0283 -0.5467  1.3361
 5949TIP3   OH239337   5.571   5.652   1.177  0.6100  0.0213  0.1379
 5949TIP3    H139338   5.544   5.739   1.148  1.2291  0.9806  2.2225
 5949TIP3    H239339   5.659   5.641   1.141  0.2348 -0.1038 -0.7766
 5950TIP3   OH239340   0.317   6.573  13.472  0.2453 -0.7719 -0.3193
 5950TIP3    H139341   0.384   6.641  13.469  1.3230 -1.8111 -0.8767
 5950TIP3    H239342   0.234   6.621  13.469  0.9638  0.5096 -0.6182
 5951TIP3   OH239343   3.719   3.289   3.922 -0.5810  0.9441 -0.0923
 5951TIP3    H139344   3.655   3.253   3.984 -0.3044  1.0593  0.2664
 5951TIP3    H239345   3.725   3.381   3.945  1.0462  0.5915  1.0880
 5952TIP3   OH239346   0.140   4.060  10.853  0.4482 -0.0480  0.2021
 5952TIP3    H139347   0.047   4.046  10.869  0.5716 -2.7606 -0.8178
 5952TIP3    H239348   0.145   4.090  10.762  0.5061  2.3855  0.9432
 5953TIP3   OH239349   3.712   5.087   0.558  0.7511  0.3024 -0.1566
 5953TIP3    H139350   3.745   5.030   0.628  0.8975  0.4602 -0.0982
 5953TIP3    H239351   3.697   5.027   0.484  2.0444  0.3598 -0.4855
 5954TIP3   OH239352   0.474   4.894   2.335  0.3438  0.0182  0.3686
 5954TIP3    H139353   0.412   4.823   2.318  1.1900 -0.3766 -1.2546
 5954TIP3    H239354   0.520   4.907   2.252  2.0418  0.6961  1.3512
 5955TIP3   OH239355   3.420   4.543  14.563 -0.1966  0.3229 -0.1816
 5955TIP3    H139356   3.343   4.497  14.530  0.7539 -0.7438 -1.0434
 5955TIP3    H239357   3.412   4.632  14.530 -1.3078  0.3756  0.1941
 5956TIP3   OH239358   1.194   6.077  14.003 -0.3510 -0.1285 -0.2250
 5956TIP3    H139359   1.176   6.170  13.988  1.2292  0.4543  1.1583
 5956TIP3    H239360   1.119   6.045  14.053 -0.3797  0.6903  0.2643
 5957TIP3   OH239361   5.135   3.502   5.426  0.3788  0.7552 -0.8754
 5957TIP3    H139362   5.087   3.459   5.355  0.8257 -2.3246  0.5566
 5957TIP3    H239363   5.210   3.446   5.443  2.1393  3.1653 -0.0985
 5958TIP3   OH239364   1.255   5.425  10.427  0.0791  0.2956 -0.0557
 5958TIP3    H139365   1.178   5.481  10.417 -0.5584 -0.4618  0.4708
 5958TIP3    H239366   1.303   5.435  10.345 -2.0828 -1.4778 -1.6566
 5959TIP3   OH239367   5.950   5.531   1.643  0.1395 -0.3239  0.1721
 5959TIP3    H139368   5.858   5.536   1.618  0.7091  0.8915 -1.8816
 5959TIP3    H239369   5.986   5.617   1.622  1.7083 -0.7001  1.1493
 5960TIP3   OH239370   3.804   1.268  16.569 -0.2216  0.0065 -0.1248
 5960TIP3    H139371   3.794   1.300  16.479 -0.8504 -0.7501 -0.3461
 5960TIP3    H239372   3.779   1.342  16.624  1.8612  1.0547 -0.5079
 5961TIP3   OH239373   3.972   0.147   4.531 -0.2492 -0.1135 -0.1675
 5961TIP3    H139374   3.891   0.179   4.490 -0.6563 -0.3206  0.4540
 5961TIP3    H239375   4.000   0.218   4.588 -1.7056 -1.1467  1.9927
 5962TIP3   OH239376   5.306   2.187   3.374  0.4300 -0.3073 -0.2086
 5962TIP3    H139377   5.236   2.180   3.439 -1.8890 -2.1020 -2.6715
 5962TIP3    H239378   5.266   2.234   3.301  2.5623  0.5776 -0.8745
 5963TIP3   OH239379   5.223   0.601  11.988  0.0511  0.6023 -0.2154
 5963TIP3    H139380   5.157   0.642  11.932 -0.3179 -1.1629 -1.1367
 5963TIP3    H239381   5.173   0.566  12.062 -0.1145 -0.8894 -1.0016
 5964TIP3   OH239382   3.129   6.324   5.039  0.0318 -0.3207  0.4800
 5964TIP3    H139383   3.036   6.329   5.017 -0.2363 -0.8752  1.4353
 5964TIP3    H239384   3.144   6.401   5.094  0.2726  0.0684 -0.1226
 5965TIP3   OH239385   1.701   4.844   3.753  0.0971 -0.1782  0.2772
 5965TIP3    H139386   1.686   4.787   3.677 -0.7010  1.0819 -0.5535
 5965TIP3    H239387   1.613   4.868   3.783  0.3505  2.0723 -0.5625
 5966TIP3   OH239388   5.044   3.194   3.573 -0.0220 -0.4195 -0.4493
 5966TIP3    H139389   5.117   3.163   3.626  0.6262 -0.4178 -1.3127
 5966TIP3    H239390   5.084   3.213   3.487 -0.9488  0.0187 -0.7907
 5967TIP3   OH239391   4.400   0.592  12.634 -0.2812 -0.1066 -0.2218
 5967TIP3    H139392   4.324   0.598  12.692  0.2187 -0.7278  0.5093
 5967TIP3    H239393   4.463   0.539  12.682  0.6548  0.4623 -0.7933
 5968TIP3   OH239394   0.499   3.131  15.967  0.5519  0.3224 -0.0939
 5968TIP3    H139395   0.451   3.080  15.902  1.1510 -1.8527  1.0723
 5968TIP3    H239396   0.441   3.133  16.043  0.4754  1.5671 -0.1632
 5969TIP3   OH239397   0.331   5.187  14.464  0.1271 -0.1613  0.0099
 5969TIP3    H139398   0.351   5.133  14.388 -0.9752 -0.7634  0.1189
 5969TIP3    H239399   0.278   5.259  14.430 -0.4743 -0.4993  0.2052
 5970TIP3   OH239400   4.468   5.899   2.525  0.0699  0.0339  0.2104
 5970TIP3    H139401   4.515   5.815   2.527 -0.2743 -0.1498  1.2514
 5970TIP3    H239402   4.382   5.877   2.489  0.6196  0.3104 -1.3716
 5971TIP3   OH239403   6.534   1.590   2.442 -0.1002 -0.0556 -0.3584
 5971TIP3    H139404   6.531   1.682   2.416  0.3435  0.3518  0.9414
 5971TIP3    H239405   6.619   1.581   2.486 -0.8865 -0.6139  1.1182
 5972TIP3   OH239406   2.056   3.874  15.387  0.4888 -0.3885  0.1537
 5972TIP3    H139407   2.009   3.867  15.304 -0.0773  0.7713  0.3654
 5972TIP3    H239408   2.056   3.785  15.421  2.3641 -1.3173 -1.9363
 5973TIP3   OH239409   4.051   2.050  13.083 -0.0827 -0.1600 -0.1407
 5973TIP3    H139410   4.112   2.108  13.129  1.1457 -2.3157  1.1008
 5973TIP3    H239411   4.092   2.036  12.998  1.1037 -1.4304  0.6112
 5974TIP3   OH239412   5.969   6.071  11.822  0.0118  0.3007  0.2846
 5974TIP3    H139413   5.992   5.982  11.797  1.6584  0.8334 -0.1974
 5974TIP3    H239414   5.981   6.074  11.917 -0.3679 -0.0591  0.3484
 5975TIP3   OH239415   1.706   5.451   4.630  0.0125 -0.3092 -0.1497
 5975TIP3    H139416   1.743   5.429   4.544 -1.8095  1.5375 -1.5183
 5975TIP3    H239417   1.627   5.501   4.609 -1.3285 -1.1071  2.6351
 5976TIP3   OH239418   2.056   1.965   1.172 -0.1956 -0.1702 -0.2255
 5976TIP3    H139419   2.035   1.897   1.109  0.4194  0.8514 -1.5884
 5976TIP3    H239420   2.152   1.961   1.181  0.0067  1.2656 -1.2895
 5977TIP3   OH239421   3.284   5.045   2.009 -0.5057 -0.1896 -0.0595
 5977TIP3    H139422   3.198   5.088   2.010 -0.1859  0.4637 -0.4002
 5977TIP3    H239423   3.347   5.116   2.017  0.0622 -0.4850 -1.5502
 5978TIP3   OH239424   1.982   6.798   2.950  0.4827  0.1554  0.1297
 5978TIP3    H139425   1.992   6.889   2.980 -0.4257  0.4750 -0.4891
 5978TIP3    H239426   1.960   6.806   2.857 -2.7303 -0.5185  0.7145
 5979TIP3   OH239427   3.295   1.741   4.792 -0.2561  0.6139 -0.3220
 5979TIP3    H139428   3.275   1.652   4.764  0.8759 -0.2364  1.4250
 5979TIP3    H239429   3.215   1.791   4.772 -2.0106 -1.3871  1.2391
 5980TIP3   OH239430   2.920   0.322  13.672 -0.3740 -0.0935  0.2339
 5980TIP3    H139431   2.920   0.263  13.747 -0.2316  0.0964  0.3844
 5980TIP3    H239432   2.828   0.343  13.658 -0.7055 -2.1442 -1.2508
 5981TIP3   OH239433   0.534   3.184  13.621  0.3498 -0.4762  0.1232
 5981TIP3    H139434   0.543   3.105  13.674 -1.3067 -0.6147  0.2572
 5981TIP3    H239435   0.543   3.154  13.531 -1.7336 -1.1223  0.0847
 5982TIP3   OH239436   4.124   3.123   3.608 -0.1226  0.2756 -0.1737
 5982TIP3    H139437   4.163   3.043   3.572 -1.6597  0.3183 -2.1555
 5982TIP3    H239438   4.052   3.092   3.662  0.8164  0.2828  1.1171
 5983TIP3   OH239439   6.130   4.803   0.044 -0.0219 -0.3046  0.1290
 5983TIP3    H139440   6.073   4.732   0.073  0.8274 -0.3477  1.8166
 5983TIP3    H239441   6.146   4.785  -0.048 -3.9525  0.5643 -0.9497
 5984TIP3   OH239442   4.307   2.300   5.455  0.1727 -0.3530 -0.3669
 5984TIP3    H139443   4.295   2.394   5.448  2.1587  0.3545  3.1716
 5984TIP3    H239444   4.356   2.276   5.376 -0.0502  1.6146 -1.1517
 5985TIP3   OH239445   2.386   3.208   3.210 -0.0341  0.1917  0.2678
 5985TIP3    H139446   2.404   3.198   3.117 -0.3889  0.7301  0.1378
 5985TIP3    H239447   2.472   3.206   3.252  0.2007  0.9605 -0.1736
 5986TIP3   OH239448   5.524   0.451  13.665  0.1174  0.0391 -0.2817
 5986TIP3    H139449   5.498   0.363  13.693 -0.4354  0.5793  0.9999
 5986TIP3    H239450   5.461   0.475  13.597 -0.5579 -0.0525  0.3001
 5987TIP3   OH239451   0.599   4.190  12.654 -0.5366 -0.0426  0.2826
 5987TIP3    H139452   0.596   4.182  12.749  0.4237 -0.8951  0.2634
 5987TIP3    H239453   0.578   4.281  12.636  2.5208  1.0100  1.5141
 5988TIP3   OH239454   1.381   1.061  11.361 -0.3616 -0.1871 -0.4999
 5988TIP3    H139455   1.299   1.064  11.411  0.4873  3.1995  0.9679
 5988TIP3    H239456   1.355   1.081  11.271 -1.1824  1.0937 -0.0154
 5989TIP3   OH239457   4.216   1.084  13.639  0.0310  0.2425  0.1064
 5989TIP3    H139458   4.207   0.994  13.669  2.0000 -0.0657 -0.0539
 5989TIP3    H239459   4.264   1.077  13.556 -1.1538  1.3573 -0.7149
 5990TIP3   OH239460   2.058   2.945   4.647  0.4081 -0.2385 -0.1578
 5990TIP3    H139461   1.966   2.961   4.668  0.2144 -0.7994 -0.5538
 5990TIP3    H239462   2.098   3.032   4.646 -0.4447  0.1669 -1.4510
 5991TIP3   OH239463   3.293   2.356  16.811  0.0000 -0.1583 -0.4539
 5991TIP3    H139464   3.371   2.353  16.757  1.4950  1.3428  1.4719
 5991TIP3    H239465   3.221   2.373  16.750  1.5499  1.1411 -1.9969
 5992TIP3   OH239466   1.342   0.851  15.748  0.1186  0.0106 -0.1505
 5992TIP3    H139467   1.358   0.813  15.661 -0.0726 -0.4444  0.0110
 5992TIP3    H239468   1.386   0.936  15.745  1.1664 -0.5158 -0.2751
 5993TIP3   OH239469   0.339   5.750  14.417 -0.4151 -0.6706  0.1253
 5993TIP3    H139470   0.254   5.722  14.384 -0.6213 -0.3610  0.3943
 5993TIP3    H239471   0.351   5.839  14.382  0.0105 -0.8858 -0.3014
 5994TIP3   OH239472   4.032   0.571  12.592 -0.4277 -0.0838 -0.0741
 5994TIP3    H139473   4.071   0.648  12.633 -0.9006 -0.3381  0.8820
 5994TIP3    H239474   3.953   0.555  12.642 -0.5765 -0.9245 -0.5613
 5995TIP3   OH239475   0.293   4.725  16.919 -0.0530  0.5157  0.0277
 5995TIP3    H139476   0.337   4.779  16.985  0.1424 -0.1187  0.4314
 5995TIP3    H239477   0.326   4.637  16.935 -2.9375 -0.4150  1.7134
 5996TIP3   OH239478   3.511   3.637   3.747  0.3083 -0.0513  0.6574
 5996TIP3    H139479   3.514   3.546   3.777 -0.2629 -0.2389  0.1668
 5996TIP3    H239480   3.445   3.637   3.678 -0.6743  1.0092  1.5700
 5997TIP3   OH239481   3.423   3.450   0.246 -0.0999 -0.0246 -0.2006
 5997TIP3    H139482   3.363   3.417   0.313 -0.9967  0.8954 -0.5210
 5997TIP3    H239483   3.506   3.406   0.265 -0.5646 -0.4658  0.9518
 5998TIP3   OH239484   3.096   4.721  13.255  0.3267 -0.1081  0.6321
 5998TIP3    H139485   3.087   4.806  13.297 -0.4181  0.7635 -1.1852
 5998TIP3    H239486   3.033   4.723  13.183  1.8084 -1.3424 -0.7800
 5999TIP3   OH239487   0.957   4.954   2.542 -0.0966 -0.3484  0.3195
 5999TIP3    H139488   1.010   4.952   2.621 -0.1893  0.6906  0.4198
 5999TIP3    H239489   0.871   4.984   2.571 -0.3020 -0.5339 -0.0861
 6000TIP3   OH239490   1.925   0.584  11.919  0.2089  0.1564  0.4459
 6000TIP3    H139491   1.866   0.512  11.941  0.4624  0.2545  1.4956
 6000TIP3    H239492   1.868   0.652  11.881 -0.0205 -0.6057 -0.6123
 6001TIP3   OH239493   5.592   1.842  15.951 -0.1781 -0.1283  0.2205
 6001TIP3    H139494   5.574   1.925  15.906 -3.1099 -0.2087  1.0816
 6001TIP3    H239495   5.685   1.848  15.975 -0.6174  3.7164  1.7666
 6002TIP3   OH239496   6.363   2.951  13.614 -0.3632 -0.0523 -0.0528
 6002TIP3    H139497   6.448   2.980  13.581 -0.7316  1.1817  0.0598
 6002TIP3    H239498   6.306   3.028  13.606 -0.8322 -0.1170  2.1861
 6003TIP3   OH239499   6.533   4.537  16.014  0.1459  0.3806  0.1903
 6003TIP3    H139500   6.565   4.489  15.938 -0.1585 -1.2261  1.0340
 6003TIP3    H239501   6.444   4.562  15.992 -0.4887 -1.4308  0.5709
 6004TIP3   OH239502   6.816   4.952   4.349 -0.3148  0.6200  0.4720
 6004TIP3    H139503   6.896   4.928   4.301  1.1497  1.8250  2.1735
 6004TIP3    H239504   6.786   4.869   4.387 -0.6426 -0.0757 -1.2132
 6005TIP3   OH239505   2.923   1.855  16.228 -0.0609  0.1344 -0.5624
 6005TIP3    H139506   2.972   1.775  16.209  0.6730 -0.0557  1.7992
 6005TIP3    H239507   2.969   1.924  16.181  0.0290 -0.6294 -1.6245
 6006TIP3   OH239508   6.037   1.268  16.122  0.3857 -0.3207 -0.0372
 6006TIP3    H139509   5.951   1.227  16.124  0.3465 -0.2208  0.9749
 6006TIP3    H239510   6.073   1.252  16.209  0.7403  0.9957  0.0845
 6007TIP3   OH239511   1.120   5.833   5.162  0.6101 -0.8223  0.0120
 6007TIP3    H139512   1.166   5.847   5.079 -0.6824  1.2080 -0.4428
 6007TIP3    H239513   1.029   5.818   5.136  0.4445 -1.6720  1.0293
 6008TIP3   OH239514   3.509   5.646   2.404 -0.4664  0.0033 -0.1742
 6008TIP3    H139515   3.423   5.658   2.364 -1.7297 -1.1258  1.9809
 6008TIP3    H239516   3.518   5.551   2.413  0.9512  0.1146 -0.2273
 6009TIP3   OH239517   1.609   2.000   6.198  0.3893 -0.0533  0.3142
 6009TIP3    H139518   1.566   2.072   6.152  0.6984  0.4572  0.7928
 6009TIP3    H239519   1.551   1.980   6.271 -1.2734 -2.4518 -1.5545
 6010TIP3   OH239520   5.151   3.227  13.558  0.5433 -0.4771  0.0598
 6010TIP3    H139521   5.188   3.222  13.646 -1.2407  1.0880  0.9661
 6010TIP3    H239522   5.227   3.236  13.500  1.6727  1.4608  1.7127
 6011TIP3   OH239523   6.685   6.528  12.757 -0.6271  0.1163 -0.0603
 6011TIP3    H139524   6.759   6.487  12.711  1.8219  2.2593  1.6936
 6011TIP3    H239525   6.696   6.502  12.848 -3.0945 -0.8468  0.0317
 6012TIP3   OH239526   2.634   2.732  12.671 -0.2503  0.1162 -0.1542
 6012TIP3    H139527   2.630   2.772  12.584 -0.8651  2.2479  0.7886
 6012TIP3    H239528   2.724   2.698  12.677  0.1191  0.8374 -1.2506
 6013TIP3   OH239529   3.553   0.389  16.268  0.5141  0.4787 -0.1066
 6013TIP3    H139530   3.642   0.422  16.285  0.1282  2.1567 -1.1396
 6013TIP3    H239531   3.567   0.300  16.236  1.9020  0.9709 -0.9855
 6014TIP3   OH239532   5.528   6.737  13.450 -0.1243 -0.4486 -0.1459
 6014TIP3    H139533   5.550   6.785  13.530 -1.8992 -0.6926  0.5238
 6014TIP3    H239534   5.582   6.778  13.383  1.6193 -0.4162  1.1911
 6015TIP3   OH239535   0.735   1.832  13.646  0.6117  0.4199 -0.0497
 6015TIP3    H139536   0.736   1.922  13.679 -0.5866  1.1609 -1.8459
 6015TIP3    H239537   0.771   1.839  13.557 -1.8236 -0.3753 -1.1961
 6016TIP3   OH239538   2.440   5.157   5.322  0.4160  0.5599 -0.3613
 6016TIP3    H139539   2.415   5.095   5.254 -0.0377  0.3007  0.0337
 6016TIP3    H239540   2.383   5.136   5.396 -0.2714  1.9202 -0.4711
 6017TIP3   OH239541   0.282   0.441  13.931  0.8448 -0.9048  0.0102
 6017TIP3    H139542   0.227   0.370  13.898  0.9343  0.1231 -2.6307
 6017TIP3    H239543   0.369   0.402  13.938  0.1795 -2.1242  2.7449
 6018TIP3   OH239544   0.471   2.654   2.863 -0.2504  0.0407 -0.2668
 6018TIP3    H139545   0.455   2.715   2.791 -1.7651  1.3771  1.1309
 6018TIP3    H239546   0.483   2.569   2.820 -0.0140  0.9852 -2.1493
 6019TIP3   OH239547   2.687   3.434   5.480 -0.2241  0.2522 -0.1608
 6019TIP3    H139548   2.691   3.379   5.402  1.4899  1.1934 -0.7719
 6019TIP3    H239549   2.646   3.515   5.451  0.2877  0.5535 -0.0347
 6020TIP3   OH239550   0.243   6.509   0.729  0.3295 -0.2771  0.1680
 6020TIP3    H139551   0.191   6.469   0.659 -0.8571  1.1814  0.1569
 6020TIP3    H239552   0.304   6.440   0.756 -2.0932 -2.4161  0.6841
 6021TIP3   OH239553   5.061   0.631  14.558  0.0208  0.3304  0.2101
 6021TIP3    H139554   5.070   0.678  14.641 -0.4112  0.3853  0.2238
 6021TIP3    H239555   5.150   0.599  14.540  0.0397 -0.0296  0.8938
 6022TIP3   OH239556   6.441   0.689   2.412  0.5241 -0.0901  0.0807
 6022TIP3    H139557   6.443   0.770   2.361  1.8405 -0.0331  0.1907
 6022TIP3    H239558   6.442   0.718   2.503 -0.7749 -0.2119  0.1475
 6023TIP3   OH239559   3.822   4.215  15.507  0.0360  0.0274 -0.0895
 6023TIP3    H139560   3.794   4.290  15.454 -2.2114 -0.0413  0.9013
 6023TIP3    H239561   3.824   4.248  15.596  0.1751 -0.7934  0.2223
 6024TIP3   OH239562   5.450   2.215   0.830  1.1620  0.2895  0.5647
 6024TIP3    H139563   5.427   2.122   0.833  0.5016  0.3159 -1.7362
 6024TIP3    H239564   5.423   2.249   0.915 -3.2828 -0.6810 -0.2083
 6025TIP3   OH239565   1.750   4.006  12.728  0.2799  0.4696  0.2927
 6025TIP3    H139566   1.784   3.917  12.734  2.4695  1.2985  1.0376
 6025TIP3    H239567   1.656   3.997  12.744  0.4298 -1.7068  0.1814
 6026TIP3   OH239568   1.595   5.373  11.675  0.7854 -0.1207 -0.2537
 6026TIP3    H139569   1.539   5.440  11.714 -0.1162 -0.4297 -0.9815
 6026TIP3    H239570   1.683   5.398  11.700  0.3749  0.7343  0.3898
 6027TIP3   OH239571   1.222   3.289  14.639  0.3055 -0.3589  0.3833
 6027TIP3    H139572   1.235   3.203  14.678  0.0973 -0.0467  1.1560
 6027TIP3    H239573   1.297   3.341  14.669  0.9305 -0.5124 -0.8285
 6028TIP3   OH239574   3.268   5.174   2.309 -0.1710  0.6943  0.1477
 6028TIP3    H139575   3.222   5.097   2.276  1.5821 -0.7708  0.9354
 6028TIP3    H239576   3.314   5.143   2.387  0.1557  2.6989  0.8172
 6029TIP3   OH239577   4.528   6.684  12.486 -0.2523 -0.0348  0.8497
 6029TIP3    H139578   4.478   6.741  12.544 -0.6346 -0.5031  0.9896
 6029TIP3    H239579   4.589   6.743  12.441 -2.0271  0.8365 -0.5443
 6030TIP3   OH239580   5.731   6.234   0.794 -0.2692  0.3321  0.4825
 6030TIP3    H139581   5.784   6.310   0.771  0.2378  0.1651  1.0536
 6030TIP3    H239582   5.795   6.162   0.798 -0.6631 -0.0213  0.4371
 6031TIP3   OH239583   0.836   4.632   4.278  0.5237 -0.9432  0.3465
 6031TIP3    H139584   0.900   4.655   4.212 -2.3886 -0.2588 -2.5130
 6031TIP3    H239585   0.814   4.715   4.321 -0.8034 -0.5225 -1.0646
 6032TIP3   OH239586   4.581   5.791   5.160  0.3239  0.3391 -0.3000
 6032TIP3    H139587   4.510   5.736   5.191  0.1034  0.4740 -0.5566
 6032TIP3    H239588   4.632   5.735   5.101  0.3814  0.2674 -0.1825
 6033TIP3   OH239589   3.729   1.130  12.649 -0.0006  0.5227  0.9625
 6033TIP3    H139590   3.635   1.110  12.656 -0.5442  1.3294 -2.3706
 6033TIP3    H239591   3.771   1.044  12.642 -0.7226  0.2020  0.4771
 6034TIP3   OH239592   0.719   2.272   2.356 -0.0661 -0.4002  0.4728
 6034TIP3    H139593   0.681   2.185   2.338 -0.7040 -0.3557  1.4903
 6034TIP3    H239594   0.650   2.317   2.405  0.7750  0.2051  1.1107
 6035TIP3   OH239595   4.028   5.938   2.104 -0.0856 -0.6169  0.0257
 6035TIP3    H139596   4.099   6.002   2.091 -1.4725  0.8815 -0.5071
 6035TIP3    H239597   4.026   5.889   2.021  1.1234 -1.5563  0.5148
 6036TIP3   OH239598   3.811   5.304   1.287  0.1271 -0.6198 -0.4211
 6036TIP3    H139599   3.870   5.301   1.212  1.6703 -0.7964  0.7463
 6036TIP3    H239600   3.867   5.285   1.362 -1.2856 -0.0426  0.8284
 6037TIP3   OH239601   0.568   3.104  13.355  0.7527  0.0289 -0.3881
 6037TIP3    H139602   0.646   3.145  13.318  1.2249 -0.0430  0.5103
 6037TIP3    H239603   0.579   3.011  13.338  0.7224  0.0484 -0.5147
 6038TIP3   OH239604   3.404   2.697   2.970 -0.2938  0.0760 -0.0709
 6038TIP3    H139605   3.375   2.692   2.879 -2.2646  2.0080  0.3661
 6038TIP3    H239606   3.463   2.772   2.972 -0.9620  0.5955  0.3974
 6039TIP3   OH239607   6.758   5.205  11.000 -0.5126  0.2172 -0.1873
 6039TIP3    H139608   6.682   5.166  10.958 -0.5840 -0.1123  0.2464
 6039TIP3    H239609   6.751   5.180  11.092  0.1971  0.0564 -0.1693
 6040TIP3   OH239610   1.899   1.335   1.878  0.1597  0.5192 -0.0269
 6040TIP3    H139611   1.901   1.293   1.792  0.9740  0.8366 -0.1669
 6040TIP3    H239612   1.811   1.373   1.884 -0.1087 -0.0066 -0.4662
 6041TIP3   OH239613   3.742   0.400  11.235 -0.0144  0.0828  0.0323
 6041TIP3    H139614   3.770   0.446  11.156 -1.7694  1.2341  0.0481
 6041TIP3    H239615   3.795   0.439  11.305  1.6262 -1.0173 -0.5141
 6042TIP3   OH239616   4.821   2.783   5.945 -0.5748 -0.7011 -0.0394
 6042TIP3    H139617   4.805   2.797   6.038 -0.6071 -0.3269 -0.1002
 6042TIP3    H239618   4.805   2.689   5.932 -0.5649 -0.7569  0.3300
 6043TIP3   OH239619   6.154   0.087   5.373 -0.0623  0.2918  0.1821
 6043TIP3    H139620   6.065   0.054   5.385  0.2636 -0.6691  0.0190
 6043TIP3    H239621   6.209   0.009   5.374  0.5320  0.5962 -2.2510
 6044TIP3   OH239622   2.403   3.267  13.136  0.3503 -0.2122 -0.1202
 6044TIP3    H139623   2.473   3.294  13.196 -0.0098  1.8757 -0.5961
 6044TIP3    H239624   2.332   3.239  13.194  0.0706  1.6087  0.4791
 6045TIP3   OH239625   0.177   6.340  14.711 -0.0933  0.2265  0.1022
 6045TIP3    H139626   0.108   6.333  14.645  0.6842 -1.9660 -0.5779
 6045TIP3    H239627   0.258   6.341  14.661  0.4411  1.7298  0.9382
 6046TIP3   OH239628   1.662   6.138   4.115  0.1771  0.3057 -0.3719
 6046TIP3    H139629   1.590   6.157   4.176 -0.4297 -1.2852 -0.5326
 6046TIP3    H239630   1.720   6.214   4.121 -0.7804  0.9729  0.8549
 6047TIP3   OH239631   1.249   4.834   5.818 -0.3265  0.0254 -0.4607
 6047TIP3    H139632   1.345   4.835   5.816 -0.3274  0.9595 -1.1649
 6047TIP3    H239633   1.226   4.774   5.888  0.7771 -0.4939 -0.5347
 6048TIP3   OH239634   0.499   2.129   4.016  0.3990  0.0685 -0.0179
 6048TIP3    H139635   0.450   2.047   4.008  1.5249 -0.9472  2.3318
 6048TIP3    H239636   0.435   2.192   4.049 -0.3812  0.0653 -1.4482
 6049TIP3   OH239637   1.461   6.148   2.943 -0.9199 -0.0718 -1.1136
 6049TIP3    H139638   1.371   6.180   2.957 -1.0199 -0.9423  0.5413
 6049TIP3    H239639   1.515   6.205   2.998 -0.5707 -0.1371 -1.3873
 6050TIP3   OH239640   1.945   0.174  16.571  0.5352 -0.1128  0.2585
 6050TIP3    H139641   1.902   0.228  16.637  0.6399 -0.5007  0.6514
 6050TIP3    H239642   1.989   0.105  16.621  0.6695 -0.3765 -0.2125
 6051TIP3   OH239643   4.331   6.810   4.728 -0.1947  0.2733 -0.3294
 6051TIP3    H139644   4.295   6.794   4.815 -0.4331  0.5075 -0.3843
 6051TIP3    H239645   4.283   6.751   4.671 -2.4867  2.4856 -0.8616
 6052TIP3   OH239646   0.009   1.192  16.836 -0.1275  0.6825 -0.5044
 6052TIP3    H139647   0.085   1.190  16.894 -0.5330  0.3449  0.0182
 6052TIP3    H239648  -0.062   1.152  16.887 -0.4462  0.2278 -1.2829
 6053TIP3   OH239649   1.657   0.649   4.007 -0.6130  0.1224  0.1095
 6053TIP3    H139650   1.712   0.721   4.039 -0.1563 -0.5544  0.8995
 6053TIP3    H239651   1.689   0.632   3.918  0.9997 -0.7341  0.8006
 6054TIP3   OH239652   5.944   6.693   2.251  0.2860  0.1910 -0.0075
 6054TIP3    H139653   5.906   6.634   2.185 -1.9204 -0.2081  1.5225
 6054TIP3    H239654   6.037   6.674   2.248 -0.2382 -3.1481  0.0872
 6055TIP3   OH239655   6.547   6.054   4.389 -0.1297  0.3070  0.1476
 6055TIP3    H139656   6.563   5.973   4.437 -1.6012 -0.8735 -1.2396
 6055TIP3    H239657   6.618   6.058   4.324 -1.4903 -1.4028 -1.5911
 6056TIP3   OH239658   0.967   6.521   1.199  0.5222 -0.4074  0.0653
 6056TIP3    H139659   1.060   6.518   1.175  0.5564 -2.0514  0.3322
 6056TIP3    H239660   0.961   6.471   1.280 -0.4889  0.3657  0.4909
 6057TIP3   OH239661   2.651   0.935  14.735 -0.0703 -0.0629  0.0168
 6057TIP3    H139662   2.737   0.962  14.766  0.8932 -1.1536 -1.5404
 6057TIP3    H239663   2.600   0.922  14.815  0.9228  1.4520  0.9389
 6058TIP3   OH239664   1.453   1.450   5.203 -0.5371  0.3599  0.0601
 6058TIP3    H139665   1.463   1.403   5.121 -0.7256 -2.3311  1.4701
 6058TIP3    H239666   1.362   1.478   5.204 -0.8132 -0.5080 -0.2031
 6059TIP3   OH239667   6.351   3.254  10.473  0.0370 -0.2215 -0.1478
 6059TIP3    H139668   6.306   3.337  10.487  0.8292  0.2125 -0.1567
 6059TIP3    H239669   6.283   3.188  10.488 -0.5006  0.4058  0.2627
 6060TIP3   OH239670   2.247   5.344  14.298  0.1343 -0.4444 -1.0320
 6060TIP3    H139671   2.226   5.327  14.389  1.1720 -0.4892 -0.7920
 6060TIP3    H239672   2.273   5.259  14.263 -0.1394 -0.4041 -1.3334
 6061TIP3   OH239673   1.113   1.588   3.114 -0.3180 -0.3114 -0.5996
 6061TIP3    H139674   1.076   1.663   3.160 -1.8848 -0.3193 -1.7726
 6061TIP3    H239675   1.196   1.621   3.078 -0.6239  0.6408 -0.4659
 6062TIP3   OH239676   4.086   0.658   5.507 -0.3876  0.3269 -0.0162
 6062TIP3    H139677   4.006   0.613   5.485 -1.1909  1.0316  1.3093
 6062TIP3    H239678   4.156   0.597   5.485 -1.3075 -0.4777 -0.7412
 6063TIP3   OH239679   6.200   6.659  16.443 -0.2448  0.1703  0.0458
 6063TIP3    H139680   6.219   6.597  16.513 -1.7120 -0.3614  0.0105
 6063TIP3    H239681   6.218   6.612  16.363  0.5653  0.4765  0.0397
 6064TIP3   OH239682   6.590   4.141  13.674  0.1147  0.0975  0.6559
 6064TIP3    H139683   6.536   4.158  13.752  0.9075 -2.0227  1.7586
 6064TIP3    H239684   6.649   4.070  13.701  0.1673 -0.9852 -2.0067
 6065TIP3   OH239685   0.001   1.908  10.946 -0.3435 -0.0089 -0.5405
 6065TIP3    H139686  -0.039   1.889  10.861 -0.2322  1.0607 -0.8452
 6065TIP3    H239687  -0.068   1.952  10.996  0.0745  0.7792 -0.6450
 6066TIP3   OH239688   4.420   5.809  15.557 -0.2231 -0.3162 -0.1867
 6066TIP3    H139689   4.371   5.879  15.599  0.0597 -0.1629 -0.1115
 6066TIP3    H239690   4.354   5.744  15.533 -0.6008  0.3786 -1.0686
 6067TIP3   OH239691   0.906   2.851   2.321 -0.3226  0.2759  0.2198
 6067TIP3    H139692   0.955   2.852   2.403 -0.8672 -2.5863  0.6538
 6067TIP3    H239693   0.972   2.865   2.253  0.7261 -0.9836  0.9523
 6068TIP3   OH239694   5.521   3.685   0.412 -0.0144 -0.7691 -0.1451
 6068TIP3    H139695   5.478   3.749   0.468  1.2301  0.2873 -0.3502
 6068TIP3    H239696   5.533   3.730   0.328  0.2956 -1.4868 -0.4974
 6069TIP3   OH239697   3.949   5.668   2.220 -0.4373 -0.5293  0.3514
 6069TIP3    H139698   3.863   5.648   2.184 -0.1942 -2.7427  0.8415
 6069TIP3    H239699   3.977   5.746   2.173 -2.9125  0.5973  0.5744
 6070TIP3   OH239700   1.269   0.189  14.947 -0.0782  0.8464 -0.2919
 6070TIP3    H139701   1.328   0.260  14.918 -2.7601  3.9148  1.1341
 6070TIP3    H239702   1.212   0.174  14.872 -0.3851  1.2173 -0.1351
 6071TIP3   OH239703   6.650   1.330  13.270  0.7902 -0.3053  0.4615
 6071TIP3    H139704   6.679   1.387  13.198  1.2124 -0.3604  0.5886
 6071TIP3    H239705   6.709   1.255  13.267  1.0926 -0.1009  1.1440
 6072TIP3   OH239706   4.159   6.715   6.183  0.3162  0.1251 -0.8754
 6072TIP3    H139707   4.150   6.626   6.150  0.8290 -0.6187  0.8802
 6072TIP3    H239708   4.105   6.717   6.262  1.1810  1.0262 -0.2843
 6073TIP3   OH239709   4.538   0.111   5.149  0.0341  0.1904  0.1114
 6073TIP3    H139710   4.449   0.144   5.161  0.1769  0.1832  1.2271
 6073TIP3    H239711   4.595   0.179   5.185  0.3249 -1.2785  2.6994
 6074TIP3   OH239712   5.985   1.468  11.800  0.2307  0.1969  0.5832
 6074TIP3    H139713   6.025   1.541  11.847  1.3116 -0.2780  0.4379
 6074TIP3    H239714   6.059   1.419  11.763 -0.4706 -0.8696  0.5257
 6075TIP3   OH239715   2.987   0.145  16.798 -0.0847 -0.8541 -0.1339
 6075TIP3    H139716   2.995   0.230  16.841 -0.8154 -1.0386  0.3722
 6075TIP3    H239717   2.964   0.084  16.868  0.5221 -1.4933 -0.4750
 6076TIP3   OH239718   6.519   3.300  14.394 -0.2207  0.0621  0.1963
 6076TIP3    H139719   6.610   3.276  14.413  0.4089  0.8001 -1.6800
 6076TIP3    H239720   6.522   3.393  14.375 -1.4125  0.1335  0.2722
 6077TIP3   OH239721   1.996   4.483  14.211 -0.4551  0.7415 -0.6267
 6077TIP3    H139722   1.915   4.487  14.160 -1.0499  1.8919  0.3402
 6077TIP3    H239723   1.970   4.444  14.295  0.3374 -0.3802 -0.8887
 6078TIP3   OH239724   6.508   1.520   6.571 -0.5831 -0.0143 -0.1730
 6078TIP3    H139725   6.518   1.433   6.532  2.4049  0.3976 -0.6285
 6078TIP3    H239726   6.474   1.574   6.500 -0.9767 -0.5090 -0.3654
 6079TIP3   OH239727   4.258   1.014  15.304 -0.1466  0.4784 -0.4286
 6079TIP3    H139728   4.334   0.964  15.274  0.1054  0.5539  0.0894
 6079TIP3    H239729   4.264   1.013  15.399 -0.6049  0.7780 -0.3945
 6080TIP3   OH239730   5.051   1.230   3.275  0.0232 -0.0594 -1.1265
 6080TIP3    H139731   4.992   1.271   3.212  0.3959  2.5927  0.1131
 6080TIP3    H239732   5.135   1.227   3.231  0.1825  1.3683 -0.9632
 6081TIP3   OH239733   3.215   5.688  15.577 -0.0808 -0.2527 -0.1081
 6081TIP3    H139734   3.256   5.601  15.575 -0.6521 -0.5342  0.2096
 6081TIP3    H239735   3.171   5.695  15.493  0.2690 -0.1189 -0.2819
 6082TIP3   OH239736   1.719   2.247   1.873 -0.3011 -0.1095 -0.4909
 6082TIP3    H139737   1.689   2.288   1.792 -0.2565 -0.3202 -0.6135
 6082TIP3    H239738   1.640   2.213   1.914 -0.1983 -0.8962 -0.9422
 6083TIP3   OH239739   5.295   4.563   0.442 -0.7579 -0.0959  0.0264
 6083TIP3    H139740   5.257   4.650   0.431  1.9789  1.3223  0.9002
 6083TIP3    H239741   5.307   4.531   0.353 -2.8199 -0.1387 -0.2942
 6084TIP3   OH239742   0.528   2.734  14.448  0.1370 -0.1413  0.3723
 6084TIP3    H139743   0.497   2.646  14.471 -0.4878 -0.2594 -0.8369
 6084TIP3    H239744   0.485   2.792  14.510  0.4652 -0.6693  1.1076
 6085TIP3   OH239745   0.883   1.920   4.843 -0.3849  0.7948 -0.0612
 6085TIP3    H139746   0.844   1.860   4.780  0.7953  1.7821 -1.8256
 6085TIP3    H239747   0.932   1.864   4.903 -0.3601 -0.0890 -0.8889
 6086TIP3   OH239748   4.339   3.708  13.944 -0.0903  0.5247  0.4026
 6086TIP3    H139749   4.324   3.658  13.863  1.8024 -0.8453  0.8285
 6086TIP3    H239750   4.378   3.790  13.914 -2.1993  1.3883 -0.2250
 6087TIP3   OH239751   1.111   4.670   3.234  0.5349  0.3382  0.1655
 6087TIP3    H139752   1.095   4.637   3.322 -0.5247 -2.6804 -1.0322
 6087TIP3    H239753   1.053   4.746   3.226 -0.4737 -0.2313  1.6225
 6088TIP3   OH239754   2.548   4.796   5.508  0.3224 -0.5570  0.3127
 6088TIP3    H139755   2.459   4.819   5.537  0.5925 -2.6360  3.2061
 6088TIP3    H239756   2.605   4.830   5.576  1.7241 -0.0574 -1.0539
 6089TIP3   OH239757   5.115   3.221  12.078  0.4332  0.0797 -0.6876
 6089TIP3    H139758   5.028   3.182  12.071  0.1603  0.6781 -0.6668
 6089TIP3    H239759   5.173   3.159  12.033 -0.2304  0.4120 -2.0457
 6090TIP3   OH239760   2.407   1.498  16.839  0.2402 -0.3560  0.1413
 6090TIP3    H139761   2.368   1.586  16.838 -0.4823 -0.6712  0.2484
 6090TIP3    H239762   2.427   1.481  16.931 -0.3621 -0.6250  0.2249
 6091TIP3   OH239763   5.468   0.071  14.197 -0.3393 -0.0452  0.1496
 6091TIP3    H139764   5.433   0.103  14.114 -1.6858 -3.5628 -0.8270
 6091TIP3    H239765   5.460  -0.025  14.191  2.1751 -0.6133  3.2016
 6092TIP3   OH239766   6.163   6.170   2.443  0.2594  0.4257 -0.2520
 6092TIP3    H139767   6.111   6.189   2.365  0.6642  0.2396 -0.5708
 6092TIP3    H239768   6.252   6.198   2.420  0.1173  1.7489  0.6672
 6093TIP3   OH239769   4.585   3.176   3.234  0.1937 -0.4248  0.7348
 6093TIP3    H139770   4.579   3.114   3.162  1.4536 -1.6181  1.5955
 6093TIP3    H239771   4.679   3.180   3.255 -0.2457 -1.5035  3.4118
 6094TIP3   OH239772   1.194   5.222   1.825  0.2891 -0.3136 -0.1747
 6094TIP3    H139773   1.252   5.153   1.858 -1.6739 -1.2347  1.5538
 6094TIP3    H239774   1.206   5.295   1.886 -1.3153 -1.0167  1.0482
 6095TIP3   OH239775   3.535   5.068  14.355  0.0043 -0.0681 -0.4203
 6095TIP3    H139776   3.597   5.053  14.426 -2.4377  0.2053  1.9374
 6095TIP3    H239777   3.512   5.161  14.363 -0.7369 -0.1789 -1.1789
 6096TIP3   OH239778   3.084   3.468  14.859 -0.0381  0.0087  0.3479
 6096TIP3    H139779   3.048   3.529  14.795  1.4039 -1.2460 -1.7805
 6096TIP3    H239780   3.011   3.410  14.881 -0.5663  0.4924 -0.0978
 6097TIP3   OH239781   1.739   5.180   3.891 -0.8341  0.5297 -0.2231
 6097TIP3    H139782   1.807   5.214   3.949 -1.8518  2.5908 -0.1504
 6097TIP3    H239783   1.717   5.094   3.927  1.7872 -0.2715 -0.3378
 6098TIP3   OH239784   2.589   6.401  15.463  0.0340  0.5318 -0.3690
 6098TIP3    H139785   2.497   6.384  15.445 -0.0801 -0.5388  1.0881
 6098TIP3    H239786   2.620   6.322  15.507  1.4041  1.2678  0.0340
 6099TIP3   OH239787   3.317   1.593   5.187 -0.9339 -0.9309  0.3087
 6099TIP3    H139788   3.407   1.561   5.198 -1.1638 -1.4211  0.8526
 6099TIP3    H239789   3.326   1.675   5.139 -0.0180  0.0677  2.0709
 6100TIP3   OH239790   2.392   4.910   5.748  0.3230 -0.1825 -0.2947
 6100TIP3    H139791   2.485   4.915   5.767  0.3501 -1.5371  0.0192
 6100TIP3    H239792   2.360   4.837   5.801 -0.7855 -0.1717 -0.9088
 6101TIP3   OH239793   1.449   1.367  16.287 -0.0826  0.4528 -0.1105
 6101TIP3    H139794   1.516   1.433  16.268  0.4095 -0.2406 -0.8298
 6101TIP3    H239795   1.386   1.412  16.343  0.1214  1.6015 -0.7854
 6102TIP3   OH239796   5.146   5.458   0.128  0.4012  0.3892  0.4260
 6102TIP3    H139797   5.191   5.414   0.056  2.4350 -0.4708  2.1053
 6102TIP3    H239798   5.089   5.522   0.086  3.3413  1.6886 -1.9076
 6103TIP3   OH239799   5.837   0.734   6.374 -0.5657 -0.0855 -0.3680
 6103TIP3    H139800   5.800   0.773   6.294 -0.2126 -3.2992 -2.2984
 6103TIP3    H239801   5.788   0.653   6.385  0.7795 -0.6928  1.5269
 6104TIP3   OH239802   3.149   1.398   0.665 -0.2168  0.0224  0.0584
 6104TIP3    H139803   3.136   1.307   0.690  1.9867 -0.5088 -0.5613
 6104TIP3    H239804   3.060   1.435   0.662 -1.3142 -2.4991 -1.2901
 6105TIP3   OH239805   2.499   6.224   4.094 -0.3046 -0.3293 -0.5313
 6105TIP3    H139806   2.464   6.301   4.139  0.6376  0.8693 -1.7838
 6105TIP3    H239807   2.512   6.252   4.004  2.5473 -1.1247 -0.4557
 6106TIP3   OH239808   0.788   6.299  16.430 -0.2205 -0.2687 -0.2151
 6106TIP3    H139809   0.732   6.226  16.458  0.2718 -0.0780  1.3471
 6106TIP3    H239810   0.756   6.321  16.343 -1.0800 -1.6554 -0.2934
 6107TIP3   OH239811   5.782   6.326   0.340 -0.1824  0.0462  0.0684
 6107TIP3    H139812   5.708   6.361   0.390  0.2055 -1.1596  1.5583
 6107TIP3    H239813   5.757   6.236   0.320  0.2453  0.1043 -0.7688
 6108TIP3   OH239814   6.684   0.860   4.958  0.6780 -0.0561  0.1673
 6108TIP3    H139815   6.618   0.800   4.993  1.5413 -0.6783  0.7707
 6108TIP3    H239816   6.731   0.808   4.892  1.1396  0.0816  0.3784
 6109TIP3   OH239817   2.936   5.306  15.456  0.7735 -0.2478 -0.3225
 6109TIP3    H139818   2.846   5.333  15.439  0.1900 -0.8212  1.5499
 6109TIP3    H239819   2.988   5.386  15.450  0.7318 -0.3437 -4.4655
 6110TIP3   OH239820   4.176   2.811   0.343  0.1823  0.0198  0.0878
 6110TIP3    H139821   4.083   2.818   0.321  0.3325 -0.8023 -0.9027
 6110TIP3    H239822   4.193   2.717   0.345  1.3429  0.1620 -1.4086
 6111TIP3   OH239823   1.104   0.310   1.126  0.5114  0.1561 -0.0552
 6111TIP3    H139824   1.186   0.336   1.082  0.3890 -2.3637 -2.0441
 6111TIP3    H239825   1.053   0.268   1.057 -0.2283 -3.0441  2.2226
 6112TIP3   OH239826   0.545   2.263  12.985 -0.3411 -0.7700 -0.0619
 6112TIP3    H139827   0.558   2.325  13.057 -0.5200 -1.6814  0.7804
 6112TIP3    H239828   0.633   2.232  12.964  0.0627  1.4672 -2.1010
 6113TIP3   OH239829   0.999   2.331   5.838  0.6130 -0.5446  0.3822
 6113TIP3    H139830   0.998   2.386   5.760 -0.7779 -0.0525  0.7133
 6113TIP3    H239831   0.978   2.390   5.910 -0.7439 -1.4268  0.7669
 6114TIP3   OH239832   2.329   0.629   4.615 -0.7377 -0.0184  0.5635
 6114TIP3    H139833   2.378   0.703   4.651  0.9149 -1.3667  1.2421
 6114TIP3    H239834   2.292   0.662   4.534  2.5185  0.7760 -0.7673
 6115TIP3   OH239835   2.214   1.108  14.276  0.4781 -0.1266 -0.3233
 6115TIP3    H139836   2.194   1.163  14.200  2.4983  0.7936 -0.2343
 6115TIP3    H239837   2.196   1.164  14.351 -0.6515 -0.7356 -0.1228
 6116TIP3   OH239838   1.601   2.662  15.643  0.1816  0.3107 -0.0863
 6116TIP3    H139839   1.561   2.674  15.729 -0.3795 -0.3789 -0.2426
 6116TIP3    H239840   1.632   2.571  15.643 -0.1321  0.1994 -0.7364
 6117TIP3   OH239841   1.644   2.537  11.341 -0.6568  0.4972  0.0023
 6117TIP3    H139842   1.719   2.495  11.300  0.3021  1.8498  0.2999
 6117TIP3    H239843   1.596   2.465  11.382 -0.1280 -0.5223 -1.1135
 6118TIP3   OH239844   1.565   6.620   4.255 -0.5815 -0.0795  0.0755
 6118TIP3    H139845   1.617   6.640   4.177  0.6123 -1.6355  0.4078
 6118TIP3    H239846   1.564   6.701   4.305  1.7343 -0.0063  0.1267
 6119TIP3   OH239847   6.817   0.954   3.461 -0.5284 -0.4822  0.4005
 6119TIP3    H139848   6.788   1.039   3.427  0.2047 -0.3325  0.1269
 6119TIP3    H239849   6.899   0.937   3.414 -0.7963 -1.4597  0.2671
 6120TIP3   OH239850   1.886   5.515  15.974  0.3978  0.0189  0.3216
 6120TIP3    H139851   1.836   5.479  16.047  1.2643 -0.6939  0.5759
 6120TIP3    H239852   1.820   5.556  15.918 -0.6338 -1.9134  0.0320
 6121TIP3   OH239853   5.797   2.867  15.115 -0.5938 -0.0056  0.7297
 6121TIP3    H139854   5.833   2.810  15.048 -0.3708 -1.2728  1.8785
 6121TIP3    H239855   5.750   2.935  15.067 -0.9423 -1.2077 -0.6825
 6122TIP3   OH239856   6.231   1.874  12.495 -0.1722  0.5569  0.8376
 6122TIP3    H139857   6.290   1.813  12.451 -0.0748  1.2366  0.0150
 6122TIP3    H239858   6.289   1.940  12.534 -0.3869  1.3533 -0.1648
 6123TIP3   OH239859   0.065   6.705  16.642 -0.1608 -0.4717 -1.0762
 6123TIP3    H139860   0.151   6.669  16.666  0.4936  1.5173 -0.1759
 6123TIP3    H239861   0.023   6.726  16.725  0.0553  1.9488 -1.4967
 6124TIP3   OH239862   0.436   3.345  16.990 -0.0369 -0.6656  0.0298
 6124TIP3    H139863   0.379   3.301  16.928  0.1985 -0.3505 -0.4200
 6124TIP3    H239864   0.393   3.334  17.075 -2.5475  2.3358 -0.6645
 6125TIP3   OH239865   3.705   6.097  14.893  0.0882  0.1870  0.2751
 6125TIP3    H139866   3.716   6.048  14.974 -1.3830  2.9528  2.3253
 6125TIP3    H239867   3.699   6.030  14.825  1.6816 -2.2478  2.3522
 6126TIP3   OH239868   3.794   1.198   5.190 -0.0108  0.3674 -0.1865
 6126TIP3    H139869   3.792   1.249   5.271 -1.1187  0.2277 -0.1012
 6126TIP3    H239870   3.823   1.111   5.217 -0.2884  0.3463  0.0562
 6127TIP3   OH239871   2.217   0.709  11.819  0.0377  0.1900  0.6665
 6127TIP3    H139872   2.252   0.726  11.907 -0.0360 -0.7994  0.8951
 6127TIP3    H239873   2.130   0.673  11.834 -0.1319  0.3925  0.1707
 6128TIP3   OH239874   5.639   1.916   6.672  0.2871  0.2092 -0.2592
 6128TIP3    H139875   5.558   1.916   6.722  0.1640 -0.5397 -0.4411
 6128TIP3    H239876   5.620   1.860   6.596  0.9024  0.1972 -0.4079
 6129TIP3   OH239877   4.399   2.924   3.332 -0.0856  0.1908  0.2636
 6129TIP3    H139878   4.417   2.839   3.291 -0.9069  0.4637 -0.7109
 6129TIP3    H239879   4.479   2.975   3.318 -0.7736  0.7133 -2.1968
 6130TIP3   OH239880   4.071   6.549  13.622 -0.3012  0.3528  0.4363
 6130TIP3    H139881   4.084   6.604  13.699  0.0578  1.5232 -0.4383
 6130TIP3    H239882   4.064   6.610  13.549 -0.7301 -0.7274 -0.4629
 6131TIP3   OH239883   6.622   0.699  11.857  0.2735 -0.7427 -0.0336
 6131TIP3    H139884   6.618   0.741  11.943 -0.1029  0.1903 -0.4939
 6131TIP3    H239885   6.714   0.703  11.832  0.0931  0.8587 -0.5589
 6132TIP3   OH239886   5.032   5.370  13.161 -0.1081 -0.3046 -0.2234
 6132TIP3    H139887   4.956   5.393  13.108  1.1926  0.5372 -1.8155
 6132TIP3    H239888   5.104   5.421  13.123  2.1308 -3.8674 -1.3192
 6133TIP3   OH239889   0.827   4.158  14.222 -0.0944 -0.5968  0.2288
 6133TIP3    H139890   0.767   4.231  14.209  0.5992  0.0980  0.7937
 6133TIP3    H239891   0.906   4.198  14.260  1.8731 -1.0008 -3.0773
 6134TIP3   OH239892   1.556   1.710  13.072 -0.3173 -0.0282  0.3889
 6134TIP3    H139893   1.651   1.707  13.085 -0.2305 -2.8663 -0.2146
 6134TIP3    H239894   1.541   1.792  13.027  2.0430 -0.0958 -0.6874
 6135TIP3   OH239895   0.345   0.705   0.505 -0.5076 -0.2330 -0.7492
 6135TIP3    H139896   0.428   0.726   0.462  0.2683 -1.2551  0.1931
 6135TIP3    H239897   0.368   0.692   0.597 -1.7824 -0.1759 -0.3999
 6136TIP3   OH239898   2.233   6.757   2.296  0.2254 -0.1654  0.2239
 6136TIP3    H139899   2.249   6.663   2.288 -1.9974 -0.7526  1.6483
 6136TIP3    H239900   2.138   6.764   2.310  0.4026  2.2563  0.6629
 6137TIP3   OH239901   2.718   4.598  13.628  0.0604  0.5115  0.0106
 6137TIP3    H139902   2.718   4.671  13.566 -0.5576 -0.8438 -1.6450
 6137TIP3    H239903   2.626   4.574  13.638 -0.0326  1.5447  2.5926
 6138TIP3   OH239904   1.550   2.165  12.751  0.3095 -0.7268 -0.0851
 6138TIP3    H139905   1.470   2.114  12.740  0.1664 -0.5363  0.0677
 6138TIP3    H239906   1.564   2.207  12.666 -0.3995  0.1730  0.2236
 6139TIP3   OH239907   0.919   4.600   0.718  0.0949 -0.2054 -0.1373
 6139TIP3    H139908   0.888   4.512   0.699 -2.2082 -0.0451  2.2405
 6139TIP3    H239909   0.958   4.593   0.806 -0.7419  1.2292  0.3844
 6140TIP3   OH239910   5.377   5.952  13.020  0.3572  0.9245 -0.3058
 6140TIP3    H139911   5.439   5.999  12.964 -0.2523  2.4202  0.2238
 6140TIP3    H239912   5.308   6.015  13.038 -0.5915 -0.2421  0.3259
 6141TIP3   OH239913   2.569   1.070   3.728  0.3805  0.4417 -0.0445
 6141TIP3    H139914   2.610   1.056   3.814 -0.3651  1.8574  0.5788
 6141TIP3    H239915   2.637   1.045   3.665  2.4099  2.9573  0.9463
 6142TIP3   OH239916   6.083   4.773   0.403  0.1304  0.3053 -0.1080
 6142TIP3    H139917   6.057   4.760   0.312 -2.2260 -1.0582  0.6569
 6142TIP3    H239918   6.092   4.684   0.438  1.4974  0.8079  0.8870
 6143TIP3   OH239919   5.426   0.223  11.434  0.6846  0.1166  0.4650
 6143TIP3    H139920   5.433   0.308  11.390  0.5581  1.2095  2.4349
 6143TIP3    H239921   5.516   0.196  11.447  0.7362  0.2300  0.3512
 6144TIP3   OH239922   3.318   4.762  13.489  0.2084  0.2740  0.5158
 6144TIP3    H139923   3.385   4.827  13.510 -0.4821  0.6823  1.4800
 6144TIP3    H239924   3.293   4.782  13.399  3.0450 -1.3620 -0.7920
 6145TIP3   OH239925   1.864   5.676   5.838  0.2005 -0.5786  0.0669
 6145TIP3    H139926   1.895   5.663   5.927 -0.5813  0.9655  0.5936
 6145TIP3    H239927   1.942   5.701   5.789  0.0656  2.2813  1.1562
 6146TIP3   OH239928   0.215   1.370   0.910  0.6005  0.5770  0.0427
 6146TIP3    H139929   0.254   1.315   0.842  1.8932  0.6007  0.7166
 6146TIP3    H239930   0.268   1.450   0.910  1.9276 -0.1834  2.3065
 6147TIP3   OH239931   5.221   1.112  13.075  0.0198  0.2338  0.1172
 6147TIP3    H139932   5.237   1.155  13.160  0.0944 -2.4732  1.5947
 6147TIP3    H239933   5.298   1.134  13.022  1.4940 -0.4474  1.8613
 6148TIP3   OH239934   4.549   6.059  15.710 -0.1887  0.1920  0.1851
 6148TIP3    H139935   4.483   6.114  15.667  1.4501  1.5542 -0.7125
 6148TIP3    H239936   4.529   6.068  15.803 -0.9720  1.0007 -0.0403
 6149TIP3   OH239937   4.562   1.158   2.093 -0.9389 -0.9076  0.1580
 6149TIP3    H139938   4.515   1.211   2.156 -1.6414 -0.0372 -1.0602
 6149TIP3    H239939   4.549   1.202   2.009 -1.2024 -2.7641 -0.8432
 6150TIP3   OH239940   5.880   1.235   3.582  0.0688 -0.3554  0.1773
 6150TIP3    H139941   5.945   1.184   3.533 -0.6468 -1.9064  0.7525
 6150TIP3    H239942   5.818   1.169   3.614 -1.9158  1.0966 -0.5104
 6151TIP3   OH239943   3.078   3.154   1.890  0.0628 -0.2932  0.8494
 6151TIP3    H139944   3.040   3.080   1.936  0.0394 -0.1054  1.1315
 6151TIP3    H239945   3.105   3.215   1.959  0.9427 -0.4585  0.6542
 6152TIP3   OH239946   3.856   3.018  15.898  0.7925 -0.5265 -0.3879
 6152TIP3    H139947   3.827   2.928  15.886  1.1630 -0.7936  0.5940
 6152TIP3    H239948   3.787   3.071  15.860  0.7811 -1.2324 -1.3814
 6153TIP3   OH239949   5.832   4.802   2.333 -0.3332 -0.5645 -0.1037
 6153TIP3    H139950   5.739   4.781   2.322 -1.1398  1.7847  1.4088
 6153TIP3    H239951   5.839   4.892   2.302  1.9274 -1.2849 -1.9972
 6154TIP3   OH239952   0.045   1.368   1.487 -0.1983 -0.0301  0.7182
 6154TIP3    H139953  -0.009   1.348   1.410  0.3005  0.1727  0.3113
 6154TIP3    H239954   0.135   1.368   1.455  0.1179 -1.0833  1.5457
 6155TIP3   OH239955   0.453   4.822   0.408 -0.3374  0.6208 -0.2926
 6155TIP3    H139956   0.547   4.815   0.392  0.0192  0.9510  1.3983
 6155TIP3    H239957   0.435   4.916   0.412 -0.7279  0.5602 -0.5853
 6156TIP3   OH239958   6.401   6.062  13.104  0.3145  0.1610  0.4296
 6156TIP3    H139959   6.475   6.121  13.087  0.6489 -0.8056 -1.8453
 6156TIP3    H239960   6.378   6.027  13.018 -0.0865 -2.7914  1.6058
 6157TIP3   OH239961   5.173   4.502   4.514 -0.0275 -0.0198 -0.2563
 6157TIP3    H139962   5.148   4.508   4.606 -0.1601  2.8675 -0.3912
 6157TIP3    H239963   5.091   4.477   4.470 -0.2894 -0.1122  0.2671
 6158TIP3   OH239964   1.560   1.102   1.672 -0.3469  0.2289  0.4509
 6158TIP3    H139965   1.557   1.196   1.686 -0.3814  0.7174 -2.2922
 6158TIP3    H239966   1.485   1.084   1.615  0.8121 -1.0870 -0.7361
 6159TIP3   OH239967   2.115   4.395  12.047 -0.7280 -0.3258  0.1521
 6159TIP3    H139968   2.166   4.455  12.101  1.1641 -1.4118 -0.3200
 6159TIP3    H239969   2.146   4.412  11.957 -1.2500 -0.9610 -0.1562
 6160TIP3   OH239970   1.994   5.384   1.475  0.3277  0.5624 -0.3968
 6160TIP3    H139971   2.003   5.447   1.546  0.9608 -0.8428  0.8077
 6160TIP3    H239972   1.903   5.394   1.446  0.8779  3.3388 -1.5820
 6161TIP3   OH239973   5.357   0.641  11.085  0.0507 -0.0851  0.8535
 6161TIP3    H139974   5.360   0.547  11.066 -1.6567  0.1077 -0.6071
 6161TIP3    H239975   5.278   0.652  11.138 -1.3720  0.8453 -1.3321
 6162TIP3   OH239976   3.733   0.672  14.341  0.1168 -0.2384 -0.5499
 6162TIP3    H139977   3.707   0.610  14.273 -1.3883 -1.2897  0.9154
 6162TIP3    H239978   3.657   0.730  14.350  0.8076  0.7144 -0.6161
 6163TIP3   OH239979   0.039   1.314   2.644 -0.0742  0.0121 -0.0148
 6163TIP3    H139980   0.042   1.339   2.551  0.3078  1.0443  0.2614
 6163TIP3    H239981  -0.048   1.276   2.656 -0.7008  1.2744 -0.4495
 6164TIP3   OH239982   1.130   4.280  14.712 -0.2401 -0.0861  0.6268
 6164TIP3    H139983   1.209   4.227  14.698 -1.6134 -1.8613 -1.0961
 6164TIP3    H239984   1.139   4.353  14.651  0.0379 -0.3570  0.3366
 6165TIP3   OH239985   3.796   2.955  10.375  0.1475  0.2040  0.6385
 6165TIP3    H139986   3.801   3.041  10.334 -0.2346  0.0707  0.3087
 6165TIP3    H239987   3.806   2.893  10.303 -0.4837 -0.0315  0.7463
 6166TIP3   OH239988   3.908   2.026  11.353 -0.0782 -0.3535 -0.0881
 6166TIP3    H139989   3.908   2.107  11.405 -1.0929  0.5049 -1.3623
 6166TIP3    H239990   3.815   2.000  11.350  0.2189 -1.5054  0.1817
 6167TIP3   OH239991   5.893   6.212  13.444  0.1454 -0.0083 -0.5779
 6167TIP3    H139992   5.976   6.239  13.403  0.1547 -0.1509 -0.6551
 6167TIP3    H239993   5.838   6.186  13.370  0.3773 -0.8531 -0.4637
 6168TIP3   OH239994   6.788   2.481   4.693  0.2551 -0.1121 -0.3210
 6168TIP3    H139995   6.739   2.444   4.619 -0.9813  0.1906  0.3121
 6168TIP3    H239996   6.851   2.541   4.653 -0.4038  0.0591 -1.1276
 6169TIP3   OH239997   3.143   2.168  14.791  0.2534  0.9855 -0.5297
 6169TIP3    H139998   3.109   2.250  14.827 -2.6339 -0.3726  0.1350
 6169TIP3    H239999   3.101   2.160  14.705 -1.6542 -0.9502  0.4873
 6170TIP3   OH240000   6.670   5.122  16.658 -0.0683 -0.7368  0.9855
 6170TIP3    H140001   6.586   5.164  16.641  0.2816 -0.2635  0.3697
 6170TIP3    H240002   6.713   5.180  16.721  1.1101  0.8061 -1.1228
 6171TIP3   OH240003   1.296   6.616  13.268  0.1897  0.2452 -0.1387
 6171TIP3    H140004   1.209   6.579  13.249  0.7074 -1.2123  0.2069
 6171TIP3    H240005   1.332   6.639  13.183  0.0591 -0.5609 -0.4171
 6172TIP3   OH240006   3.567   0.666  14.832 -0.1426 -0.2563  0.5480
 6172TIP3    H140007   3.478   0.683  14.803  0.7340 -0.2951 -2.4586
 6172TIP3    H240008   3.574   0.710  14.917 -3.2459 -1.0675  1.3237
 6173TIP3   OH240009   1.892   4.967  12.956  0.2761  0.6771 -0.0108
 6173TIP3    H140010   1.825   4.909  12.994 -0.6869  0.4723 -1.9245
 6173TIP3    H240011   1.975   4.927  12.982 -0.3677 -0.6575  0.0853
 6174TIP3   OH240012   5.830   1.340   2.092  0.0797 -0.1445 -0.3851
 6174TIP3    H140013   5.797   1.284   2.022  2.4426 -2.2673  0.0597
 6174TIP3    H240014   5.896   1.395   2.050  1.1255 -1.0566 -0.0004
 6175TIP3   OH240015   0.930   6.423  16.982  0.0830 -0.1057 -0.0390
 6175TIP3    H140016   1.014   6.468  16.980 -0.3931  0.9012  1.0182
 6175TIP3    H240017   0.938   6.360  17.054 -0.4711  0.9258  0.9749
 6176TIP3   OH240018   4.936   4.199   5.679 -0.3912  0.2307 -0.2983
 6176TIP3    H140019   4.895   4.137   5.739  0.2343  0.4909  0.4106
 6176TIP3    H240020   4.925   4.284   5.722  0.3239  0.3788 -0.4064
 6177TIP3   OH240021   3.082   3.357   2.517  0.3927 -0.0939 -0.2394
 6177TIP3    H140022   2.986   3.346   2.518  0.5093 -1.4482 -1.6630
 6177TIP3    H240023   3.099   3.418   2.589 -1.2622 -2.0588  1.9676
 6178TIP3   OH240024   2.531   2.453  14.694 -0.8129  0.0411  0.2549
 6178TIP3    H140025   2.488   2.368  14.704 -2.0901  0.5514 -0.6545
 6178TIP3    H240026   2.464   2.509  14.656 -0.0800  1.5447  1.0842
 6179TIP3   OH240027   2.064   1.783   0.538 -0.2972  0.2263  0.2618
 6179TIP3    H140028   1.997   1.850   0.545 -0.7770 -0.2936  0.8852
 6179TIP3    H240029   2.145   1.831   0.524 -0.8240  0.8515 -0.7297
 6180TIP3   OH240030   4.726   0.247   5.555 -0.2683  0.4217  0.0566
 6180TIP3    H140031   4.662   0.311   5.586  0.4408  1.2942 -0.2377
 6180TIP3    H240032   4.717   0.249   5.460 -0.5625 -0.2757  0.0598
 6181TIP3   OH240033   0.470   6.509  16.118 -0.0034 -0.5240 -0.1984
 6181TIP3    H140034   0.434   6.505  16.029 -0.0248 -2.6483 -0.1321
 6181TIP3    H240035   0.395   6.492  16.175 -0.2013  1.7918  0.3519
 6182TIP3   OH240036   6.112   2.231  15.293  0.3156 -0.8257 -0.2676
 6182TIP3    H140037   6.033   2.241  15.240  0.3721 -2.4991 -0.7260
 6182TIP3    H240038   6.173   2.295  15.257 -0.4767 -0.2113 -0.5618
 6183TIP3   OH240039   2.961   0.114   5.715 -0.4424  0.1584  0.0585
 6183TIP3    H140040   2.924   0.063   5.643 -0.2673  0.2920 -0.1278
 6183TIP3    H240041   2.889   0.125   5.776 -0.2929 -0.9365  0.4510
 6184TIP3   OH240042   4.296   0.540   0.840  0.3201 -0.0454 -0.0908
 6184TIP3    H140043   4.237   0.469   0.814  0.2147  0.1159 -0.2914
 6184TIP3    H240044   4.383   0.502   0.830  0.2373 -0.5956  1.0997
 6185TIP3   OH240045   3.045   6.051  14.753 -0.1777 -0.4911  0.5123
 6185TIP3    H140046   3.132   6.056  14.713 -0.0133  1.5227  1.0120
 6185TIP3    H240047   3.053   5.981  14.818  0.7732 -1.0087 -0.1316
 6186TIP3   OH240048   6.293   6.503   4.336 -0.1622 -0.4185  0.2397
 6186TIP3    H140049   6.294   6.530   4.428 -1.6536 -1.9642  0.7678
 6186TIP3    H240050   6.367   6.442   4.328  0.6864  0.6025  0.0844
 6187TIP3   OH240051   0.380   2.865   1.517 -0.0957 -1.0712 -0.3771
 6187TIP3    H140052   0.448   2.875   1.583 -0.7209  0.5366  0.0732
 6187TIP3    H240053   0.334   2.786   1.542  1.6252 -2.2454 -0.7422
 6188TIP3   OH240054   6.040   4.314  15.183  0.0522  0.2987  0.7181
 6188TIP3    H140055   5.957   4.270  15.168  0.4749 -0.2552 -0.0072
 6188TIP3    H240056   6.107   4.249  15.161  0.7280  1.8187 -2.2575
 6189TIP3   OH240057   1.471   2.926  10.391  0.6135 -0.0748 -0.6463
 6189TIP3    H140058   1.542   2.965  10.339  0.8975  1.5883  0.8695
 6189TIP3    H240059   1.405   2.996  10.397 -1.2001 -1.5740 -2.0035
 6190TIP3   OH240060   6.045   4.345  12.579  0.4944  0.0091  0.6198
 6190TIP3    H140061   5.955   4.341  12.612  0.7534  1.5088  1.6007
 6190TIP3    H240062   6.036   4.336  12.484 -0.8546  1.7803  0.5380
 6191TIP3   OH240063   5.982   6.255   3.458 -0.2172 -0.0572 -0.2927
 6191TIP3    H140064   5.952   6.343   3.433 -0.6738 -0.1285  0.0006
 6191TIP3    H240065   5.904   6.211   3.490  0.3538  0.0250  1.2888
 6192TIP3   OH240066   3.113   1.819  12.745 -0.1852 -0.7774  0.1269
 6192TIP3    H140067   3.081   1.778  12.826  1.1072 -1.9326  0.0790
 6192TIP3    H240068   3.199   1.781  12.731  0.6333  1.1799 -0.5323
 6193TIP3   OH240069   2.896   3.542   4.157 -0.5857  0.3186 -0.3851
 6193TIP3    H140070   2.991   3.535   4.146 -0.6264 -0.5380 -0.2258
 6193TIP3    H240071   2.882   3.528   4.251 -0.9622 -0.6444 -0.5778
 6194TIP3   OH240072   6.574   3.721  12.777 -0.2855 -0.3136 -0.2301
 6194TIP3    H140073   6.579   3.664  12.700  1.4605  0.2785 -0.5857
 6194TIP3    H240074   6.580   3.809  12.742 -0.1062 -0.0100  0.5493
 6195TIP3   OH240075   5.038   6.053   2.468  0.2427 -0.5323 -0.6428
 6195TIP3    H140076   5.094   5.977   2.449 -0.6391 -0.9581 -1.6023
 6195TIP3    H240077   5.027   6.051   2.563  1.3354 -0.8062 -0.5026
 6196TIP3   OH240078   5.320   6.777  17.094  0.5353  0.3040  0.4699
 6196TIP3    H140079   5.248   6.840  17.093  0.1798 -0.0918  0.4303
 6196TIP3    H240080   5.385   6.815  17.152  1.0132  1.4413 -0.7597
 6197TIP3   OH240081   6.741   0.859  16.671  0.0628  0.1737 -0.7239
 6197TIP3    H140082   6.708   0.817  16.591  3.9674 -1.4182 -1.7045
 6197TIP3    H240083   6.690   0.819  16.742  0.0675 -2.4116 -2.0582
 6198TIP3   OH240084   6.148   3.694   4.870 -0.6547  0.2379 -0.1829
 6198TIP3    H140085   6.177   3.770   4.819  1.2043 -0.6759 -0.5749
 6198TIP3    H240086   6.223   3.672   4.926 -0.2472 -2.5725 -1.6244
 6199TIP3   OH240087   1.095   1.643  12.392  0.2629 -0.1012 -0.0186
 6199TIP3    H140088   1.028   1.607  12.333  0.7412 -0.8399 -0.1119
 6199TIP3    H240089   1.170   1.585  12.382  1.3311  1.3617 -0.7516
 6200TIP3   OH240090   4.304   5.814  10.625 -0.0195 -0.5630  0.2968
 6200TIP3    H140091   4.288   5.896  10.671  3.6067 -0.0305  0.8915
 6200TIP3    H240092   4.291   5.747  10.692  1.9767 -0.0109  1.3447
 6201TIP3   OH240093   2.023   6.374   3.125  0.1137 -0.5655  0.1843
 6201TIP3    H140094   2.000   6.290   3.087  0.2400 -0.2530 -0.5945
 6201TIP3    H240095   1.996   6.367   3.217  1.1401 -1.8474  0.4111
 6202TIP3   OH240096   0.896   6.767   5.545 -0.7852 -0.0069 -0.0771
 6202TIP3    H140097   0.801   6.758   5.536 -0.5575 -1.4485 -1.7716
 6202TIP3    H240098   0.922   6.697   5.605 -0.8644  0.9771  1.1347
 6203TIP3   OH240099   2.430   3.265  11.519 -0.3913  0.3686  0.6798
 6203TIP3    H140100   2.456   3.177  11.491 -1.8358  0.3737 -0.8486
 6203TIP3    H240101   2.345   3.253  11.562 -1.6814  1.1846 -1.4545
 6204TIP3   OH240102   1.836   6.533   2.805  0.0212 -0.0969 -0.6735
 6204TIP3    H140103   1.807   6.612   2.759 -1.7559 -0.1474  0.2610
 6204TIP3    H240104   1.817   6.462   2.743  0.9818  0.1287 -1.2442
 6205TIP3   OH240105   0.337   5.067  16.285  0.0565 -0.0963 -0.1258
 6205TIP3    H140106   0.418   5.021  16.310 -0.3554  0.0920  1.7635
 6205TIP3    H240107   0.358   5.160  16.295 -0.9881 -0.0724  2.7501
 6206TIP3   OH240108   5.505   3.396   4.681 -0.1993 -0.5137  0.0866
 6206TIP3    H140109   5.566   3.344   4.628 -0.2607 -0.2977 -0.1976
 6206TIP3    H240110   5.554   3.415   4.761  1.4728  2.6108 -1.5014
 6207TIP3   OH240111   0.266   2.635  15.827  0.0136 -0.3235  0.8199
 6207TIP3    H140112   0.298   2.553  15.865 -1.0548 -1.5134 -0.6823
 6207TIP3    H240113   0.342   2.672  15.782  0.3281 -0.9016  0.8722
 6208TIP3   OH240114   0.153   0.455   5.106 -0.3468  0.7707 -0.0595
 6208TIP3    H140115   0.108   0.510   5.170  0.1524  2.0360 -0.7451
 6208TIP3    H240116   0.085   0.397   5.072 -0.5817 -0.0102  1.6814
 6209TIP3   OH240117   3.463   2.119  14.695  0.4948  0.0135 -0.2480
 6209TIP3    H140118   3.503   2.035  14.674 -0.0704 -0.6330  1.1227
 6209TIP3    H240119   3.369   2.100  14.701  0.2599  0.9393 -0.7950
 6210TIP3   OH240120   3.997   0.520  16.867 -0.0191  0.1255 -1.0270
 6210TIP3    H140121   4.055   0.593  16.846 -0.1626 -0.1467 -2.4831
 6210TIP3    H240122   3.943   0.552  16.939  1.0408  0.8464 -0.5377
 6211TIP3   OH240123   5.732   3.206   3.650 -0.1962  0.3561  0.1853
 6211TIP3    H140124   5.694   3.143   3.588  1.4971 -0.2143 -0.3290
 6211TIP3    H240125   5.676   3.200   3.727 -1.3450 -0.1766 -0.6517
 6212TIP3   OH240126   1.293   6.506   4.292 -0.0944  0.2154 -0.4506
 6212TIP3    H140127   1.385   6.479   4.297 -0.3314 -0.6030 -0.4087
 6212TIP3    H240128   1.253   6.469   4.371 -0.1411  1.8773  0.3478
 6213TIP3   OH240129   3.634   0.589  12.251 -0.4969  0.4028 -0.1699
 6213TIP3    H140130   3.653   0.523  12.184  1.2527 -2.8691  3.1919
 6213TIP3    H240131   3.561   0.553  12.300  1.7070 -0.2567  2.9272
 6214TIP3   OH240132   6.323   1.511  16.247  0.4405  0.0076  0.6039
 6214TIP3    H140133   6.328   1.500  16.152 -0.0942 -0.8347  0.6587
 6214TIP3    H240134   6.413   1.526  16.274  0.4405  1.7028 -0.1872
 6215TIP3   OH240135   6.402   0.523   3.547  0.6168  0.0922 -0.0935
 6215TIP3    H140136   6.343   0.553   3.478  0.5588 -0.2526 -0.1960
 6215TIP3    H240137   6.413   0.599   3.603 -0.5844 -0.0612  0.3911
 6216TIP3   OH240138   5.662   2.807  11.986 -0.7573 -0.8556  0.0698
 6216TIP3    H140139   5.567   2.798  11.993 -0.7420 -1.3884 -0.4054
 6216TIP3    H240140   5.680   2.895  12.021 -1.6464  0.1028 -1.7250
 6217TIP3   OH240141   6.305   4.175   6.427  0.4091  0.7296 -0.0127
 6217TIP3    H140142   6.235   4.111   6.442  0.0679  1.2803  0.8808
 6217TIP3    H240143   6.377   4.145   6.482  0.3365  0.9639  0.2156
 6218TIP3   OH240144   3.500   5.160  11.801  0.0507 -0.1189 -0.3540
 6218TIP3    H140145   3.587   5.151  11.761 -0.0094 -1.0663 -0.2919
 6218TIP3    H240146   3.444   5.191  11.730  0.5887  1.2549 -0.2038
 6219TIP3   OH240147   2.598   0.974   5.936  0.4304 -0.4664  0.7362
 6219TIP3    H140148   2.522   0.939   5.981  0.4127 -0.5753  0.6221
 6219TIP3    H240149   2.647   1.020   6.004  0.7463 -1.1957  1.0089
 6220TIP3   OH240150   3.740   6.010  16.704  0.1407  0.2573 -0.2541
 6220TIP3    H140151   3.764   6.060  16.783  0.1380 -2.5997  1.7228
 6220TIP3    H240152   3.646   6.025  16.694  0.1361  0.6333  0.2948
 6221TIP3   OH240153   2.677   0.827   4.006 -0.0886 -0.3206  0.5115
 6221TIP3    H140154   2.730   0.867   3.937 -1.5672  2.7747  1.0056
 6221TIP3    H240155   2.711   0.864   4.087 -2.2775  0.9478  0.9128
 6222TIP3   OH240156   2.396   3.719  12.551 -0.1119 -0.0859 -0.0220
 6222TIP3    H140157   2.362   3.802  12.586  3.5218  2.6430 -2.1882
 6222TIP3    H240158   2.468   3.696  12.610  0.5910 -0.1829 -0.9009
 6223TIP3   OH240159   3.055   4.426  11.787  0.1967  0.6831  0.0208
 6223TIP3    H140160   3.009   4.450  11.868 -0.2889 -0.8961  0.2406
 6223TIP3    H240161   3.007   4.471  11.718 -2.8328 -2.1929  0.0516
 6224TIP3   OH240162   5.484   5.065  16.695 -0.7872 -0.1392  0.1012
 6224TIP3    H140163   5.487   5.144  16.750 -0.9446 -0.0807  0.0267
 6224TIP3    H240164   5.570   5.025  16.706 -1.0790 -0.5495  1.0010
 6225TIP3   OH240165   6.715   3.617  13.219  0.0035 -0.4213  0.2964
 6225TIP3    H140166   6.710   3.570  13.135  0.2892 -0.1539  0.1255
 6225TIP3    H240167   6.633   3.597  13.263 -0.5384  0.1453 -0.4304
 6226TIP3   OH240168   1.772   1.455  10.540  0.4080  0.3051  0.5531
 6226TIP3    H140169   1.785   1.377  10.595 -0.2937  0.0937  0.4313
 6226TIP3    H240170   1.848   1.457  10.483  0.0039 -0.8255 -0.0641
 6227TIP3   OH240171   1.063   1.121   1.064 -0.4950 -0.4332  0.3193
 6227TIP3    H140172   1.135   1.155   1.117  0.5560 -1.5539 -0.3209
 6227TIP3    H240173   1.057   1.181   0.990 -0.2995 -0.2454  0.4562
 6228TIP3   OH240174   5.703   0.951  12.990  0.1693  0.4072  0.1649
 6228TIP3    H140175   5.794   0.927  12.971  0.2025 -0.6971  1.5499
 6228TIP3    H240176   5.708   1.041  13.022  0.4943  1.1055 -1.7289
 6229TIP3   OH240177   3.665   3.994   0.169 -0.5186 -0.1573 -0.1215
 6229TIP3    H140178   3.588   4.009   0.115  0.6212 -0.8581 -2.0346
 6229TIP3    H240179   3.657   3.902   0.196  0.3405 -0.6888 -1.5685
 6230TIP3   OH240180   0.427   4.983  13.442 -0.6072  0.1529 -0.1897
 6230TIP3    H140181   0.384   5.054  13.491 -0.7005 -0.1507  0.1738
 6230TIP3    H240182   0.381   4.904  13.470  0.5910 -0.2561  0.6826
 6231TIP3   OH240183   4.255   2.316   0.366  0.1080  0.4275 -0.6216
 6231TIP3    H140184   4.268   2.352   0.454  2.4931  0.8410 -1.0777
 6231TIP3    H240185   4.187   2.371   0.327  0.0587  1.1588  0.4589
 6232TIP3   OH240186   2.897   2.518   3.717 -0.0996 -0.4743 -0.0420
 6232TIP3    H140187   2.892   2.515   3.813 -0.1443  1.7140  0.0735
 6232TIP3    H240188   2.811   2.548   3.689  0.3205  0.2135 -0.6454
 6233TIP3   OH240189   2.273   4.101   5.243 -0.5588  0.1544 -0.2673
 6233TIP3    H140190   2.257   4.188   5.207 -1.5862 -0.9626 -2.8005
 6233TIP3    H240191   2.200   4.085   5.302 -0.5079  0.9032  0.0058
 6234TIP3   OH240192   1.047   5.781  13.617  0.4830 -0.0190  0.2098
 6234TIP3    H140193   1.083   5.800  13.703  0.3642 -0.2967  0.3222
 6234TIP3    H240194   1.055   5.686  13.608 -0.8073 -0.1863  0.5113
 6235TIP3   OH240195   6.795   3.428  16.408 -0.1888  0.2104 -0.4132
 6235TIP3    H140196   6.830   3.381  16.332  0.9407  0.0931  0.1538
 6235TIP3    H240197   6.713   3.382  16.429  0.2080 -0.6549 -0.6976
 6236TIP3   OH240198   4.584   5.281  12.351  0.4283  0.1916  0.3747
 6236TIP3    H140199   4.503   5.272  12.301 -0.6661  0.2440  2.0499
 6236TIP3    H240200   4.644   5.217  12.311 -1.2513 -1.6184  0.6017
 6237TIP3   OH240201   1.487   6.786   1.706 -0.3586 -0.1913 -0.0178
 6237TIP3    H140202   1.528   6.735   1.637  2.1117  0.9219  0.5269
 6237TIP3    H240203   1.555   6.797   1.772 -2.4688 -0.7903  2.4213
 6238TIP3   OH240204   2.484   0.409  11.760 -0.1659 -0.3413  0.2677
 6238TIP3    H140205   2.497   0.503  11.762 -1.0092 -0.2250  0.7588
 6238TIP3    H240206   2.426   0.391  11.834 -0.6393 -1.1387 -0.2784
 6239TIP3   OH240207   5.523   5.242  16.471 -0.0128  0.5674 -0.0814
 6239TIP3    H140208   5.505   5.194  16.551 -2.0465  0.2159 -0.6808
 6239TIP3    H240209   5.548   5.175  16.407  2.6734  0.9418  0.4376
 6240TIP3   OH240210   6.602   5.063  15.277  0.5855 -0.2603  0.2057
 6240TIP3    H140211   6.509   5.054  15.258  0.6384  1.5436 -1.1921
 6240TIP3    H240212   6.646   5.015  15.206  0.7155  1.5538 -0.9961
 6241TIP3   OH240213   4.477   3.031  16.120 -0.3467 -0.2654  0.0179
 6241TIP3    H140214   4.387   2.999  16.119  0.1762 -1.8989  1.4866
 6241TIP3    H240215   4.486   3.077  16.036 -2.1871 -1.0258 -0.6586
 6242TIP3   OH240216   5.484   4.501   5.479 -0.1687 -0.2768  0.3639
 6242TIP3    H140217   5.433   4.436   5.527 -1.5831 -0.0932 -0.8259
 6242TIP3    H240218   5.450   4.585   5.508 -1.8741 -0.1612 -1.6986
 6243TIP3   OH240219   1.730   3.579   0.998  0.2897  1.0739  0.0157
 6243TIP3    H140220   1.646   3.594   0.953  0.6853 -1.4316 -1.8170
 6243TIP3    H240221   1.709   3.588   1.091 -2.1033  0.3275 -0.3630
 6244TIP3   OH240222   6.672   0.393   3.793  0.4754  0.6048 -0.6533
 6244TIP3    H140223   6.613   0.469   3.791 -1.4960 -0.7712  0.8184
 6244TIP3    H240224   6.660   0.356   3.881  4.3901  0.7968  0.1148
 6245TIP3   OH240225   1.317   1.716   0.826  0.1746 -0.1183  0.0970
 6245TIP3    H140226   1.270   1.793   0.857 -2.1645 -0.7324 -1.5733
 6245TIP3    H240227   1.371   1.689   0.900 -1.9157  0.8772  2.1092
 6246TIP3   OH240228   0.349   4.442  17.133 -0.5032  0.7329 -0.5969
 6246TIP3    H140229   0.369   4.356  17.169 -2.6505  0.8322  0.9833
 6246TIP3    H240230   0.425   4.496  17.156  0.9907 -0.7265 -1.8271
 6247TIP3   OH240231   5.044   3.136   1.906 -0.2063  0.0851 -0.6473
 6247TIP3    H140232   4.959   3.116   1.944  1.5751 -0.3865  3.8062
 6247TIP3    H240233   5.062   3.063   1.847 -1.5237 -1.6873  1.0036
 6248TIP3   OH240234   0.116   4.196   5.758 -0.1580 -0.0572  0.0975
 6248TIP3    H140235   0.186   4.158   5.811 -0.1764 -1.6883 -0.9767
 6248TIP3    H240236   0.120   4.290   5.776  2.0905 -0.1487  0.3141
 6249TIP3   OH240237   2.353   6.798   2.972  0.0664  0.0593 -0.0271
 6249TIP3    H140238   2.295   6.774   3.045 -0.5857  2.4480  0.3003
 6249TIP3    H240239   2.295   6.801   2.896  0.5362 -1.2813 -0.4795
 6250TIP3   OH240240   4.876   2.608  13.324 -0.0210 -0.5245  0.3279
 6250TIP3    H140241   4.934   2.684  13.317 -0.5976 -0.1149 -0.1382
 6250TIP3    H240242   4.819   2.627  13.399 -1.2630  0.2964 -0.7758
 6251TIP3   OH240243   5.186   6.159   5.038 -0.2758  0.1637  0.0501
 6251TIP3    H140244   5.182   6.121   4.950  1.2646 -0.1584  0.0989
 6251TIP3    H240245   5.097   6.193   5.053 -1.2336 -1.8153 -0.7141
 6252TIP3   OH240246   5.069   5.991   4.359  0.5104  0.8302  0.0984
 6252TIP3    H140247   5.082   5.956   4.447  0.0825  1.1621  0.2955
 6252TIP3    H240248   5.048   6.083   4.372 -1.5652  0.4399 -0.2231
 6253TIP3   OH240249   5.093   5.721  14.725  0.1233 -0.4108 -0.5606
 6253TIP3    H140250   4.998   5.729  14.720  0.2269  0.2030 -2.1074
 6253TIP3    H240251   5.119   5.693  14.637  1.3241 -1.2946  0.0346
 6254TIP3   OH240252   2.654   5.686  12.044  0.2928  0.3414  0.6693
 6254TIP3    H140253   2.570   5.670  12.000  0.4298  0.7776  0.2409
 6254TIP3    H240254   2.630   5.706  12.134 -0.0306 -0.0059  0.6657
 6255TIP3   OH240255   0.757   3.463   0.053  0.1127  0.2198 -0.1605
 6255TIP3    H140256   0.796   3.376   0.037  1.9633  0.2006  3.3418
 6255TIP3    H240257   0.685   3.446   0.113  1.2191  1.1282  1.4962
 6256TIP3   OH240258   0.816   6.750   3.476  0.4563  0.1397  0.2100
 6256TIP3    H140259   0.849   6.662   3.458 -0.7750 -0.4430  0.6794
 6256TIP3    H240260   0.722   6.737   3.492  0.3752  1.4508  0.8943
 6257TIP3   OH240261   6.416   2.026   1.503 -0.7309  0.4485  0.2590
 6257TIP3    H140262   6.324   2.004   1.487 -1.1177  0.9154  1.7168
 6257TIP3    H240263   6.421   2.043   1.597  0.4890  2.0587 -0.0530
 6258TIP3   OH240264   3.869   0.405  12.385  0.8399 -0.5602  0.0020
 6258TIP3    H140265   3.895   0.461  12.459 -0.9954 -1.0258  1.0806
 6258TIP3    H240266   3.906   0.448  12.308 -0.3609  2.1086  0.7767
 6259TIP3   OH240267   1.888   1.663   1.378  0.0574  0.5341  0.0288
 6259TIP3    H140268   1.830   1.608   1.432  0.6259  0.4835  0.6026
 6259TIP3    H240269   1.974   1.651   1.416  0.5372  0.2451 -1.1014
 6260TIP3   OH240270   6.702   3.394  13.770  0.0896  0.5585  0.0121
 6260TIP3    H140271   6.734   3.478  13.804 -1.2079  1.6530 -1.3439
 6260TIP3    H240272   6.747   3.384  13.686  1.0374 -0.6734  0.6304
 6261TIP3   OH240273   3.029   2.049  12.607  0.3466  0.2111 -0.1398
 6261TIP3    H140274   2.945   2.055  12.653  0.2243  0.1544 -0.3574
 6261TIP3    H240275   3.075   1.978  12.652  0.4952  0.5933  0.3268
 6262TIP3   OH240276   2.052   2.174  13.657  0.4401 -0.2247  0.6494
 6262TIP3    H140277   2.061   2.263  13.691 -1.0899  0.0069  0.5604
 6262TIP3    H240278   1.971   2.141  13.697  0.2654 -1.0751 -0.3475
 6263TIP3   OH240279   1.544   6.503  12.859 -0.0790  0.1515 -0.2911
 6263TIP3    H140280   1.630   6.507  12.902  0.1139  0.9578 -0.7352
 6263TIP3    H240281   1.565   6.485  12.767 -0.4769 -1.3131 -0.1277
 6264TIP3   OH240282   5.571   5.662   3.964  0.5801  0.1826  0.7253
 6264TIP3    H140283   5.544   5.727   3.900  0.2584 -0.8661 -0.2356
 6264TIP3    H240284   5.501   5.663   4.030  1.2823  1.7913  1.4926
 6265TIP3   OH240285   2.725   4.024   1.392  0.0582  0.0047 -0.4253
 6265TIP3    H140286   2.664   4.070   1.334 -0.5770  1.0108  0.9651
 6265TIP3    H240287   2.807   4.071   1.384 -0.1936  0.5130 -0.0926
 6266TIP3   OH240288   5.768   3.082  10.685 -0.1575 -0.1968 -0.5826
 6266TIP3    H140289   5.753   3.175  10.670 -0.1581 -0.0909  0.0528
 6266TIP3    H240290   5.707   3.058  10.755 -1.4520 -1.0945 -1.9496
 6267TIP3   OH240291   2.219   1.522   5.029  0.0887 -0.0300 -0.3230
 6267TIP3    H140292   2.215   1.454   5.096  0.3347 -1.4215 -1.6810
 6267TIP3    H240293   2.150   1.499   4.967  1.1310  0.0944 -1.5647
 6268TIP3   OH240294   1.145   0.913  10.998 -0.0877  0.0876 -0.1953
 6268TIP3    H140295   1.101   0.843  10.950  0.3106  0.7964 -1.6242
 6268TIP3    H240296   1.237   0.886  11.001 -0.0944  0.0894  0.1113
 6269TIP3   OH240297   5.718   5.826  15.772  0.1838 -0.1359  0.1941
 6269TIP3    H140298   5.737   5.898  15.712  0.9351 -1.0831 -0.7525
 6269TIP3    H240299   5.646   5.779  15.731 -1.0159  0.6274  1.3304
 6270TIP3   OH240300   4.191   0.939   6.035  0.2216 -0.0873 -0.2937
 6270TIP3    H140301   4.182   0.880   6.110 -1.9697  0.6472  0.1073
 6270TIP3    H240302   4.274   0.984   6.050  0.3974 -0.7974  1.0682
 6271TIP3   OH240303   0.363   2.301   4.190  0.2299  0.0484  0.2854
 6271TIP3    H140304   0.342   2.231   4.253  0.2237  0.6629  0.9799
 6271TIP3    H240305   0.405   2.369   4.243  0.9952  0.2267 -0.5211
 6272TIP3   OH240306   4.818   1.967   5.737 -0.2066 -0.1004  0.1401
 6272TIP3    H140307   4.867   1.920   5.805 -1.0042 -0.2645  0.6106
 6272TIP3    H240308   4.746   2.009   5.784 -0.9465 -0.4669 -0.6381
 6273TIP3   OH240309   5.612   0.242   0.895  0.5121 -0.1010  0.1875
 6273TIP3    H140310   5.707   0.259   0.894  0.3234  1.3481  1.5725
 6273TIP3    H240311   5.604   0.149   0.877  2.2637 -0.3941  0.7074
 6274TIP3   OH240312   1.053   1.310   5.626 -0.0023  0.5792 -0.1510
 6274TIP3    H140313   1.039   1.220   5.655  0.2877  0.3571 -0.6857
 6274TIP3    H240314   1.144   1.312   5.595  0.0145  1.0717 -0.0795
 6275TIP3   OH240315   4.539   6.059   0.672  0.1074  0.4858 -0.0741
 6275TIP3    H140316   4.566   6.058   0.580  0.3138  1.6157 -0.0454
 6275TIP3    H240317   4.612   6.102   0.717  1.2361 -2.4288  1.0531
 6276TIP3   OH240318   1.734   2.774  14.105  0.7723  0.0714  0.1689
 6276TIP3    H140319   1.745   2.867  14.084 -0.0374  0.3515  0.9344
 6276TIP3    H240320   1.739   2.771  14.200  0.9934 -0.7036  0.1358
 6277TIP3   OH240321   6.553   6.720  12.543 -1.0403  0.1847  0.5421
 6277TIP3    H140322   6.493   6.647  12.560 -1.9431  0.9494  0.7023
 6277TIP3    H240323   6.597   6.734  12.627 -1.1380  0.0721  0.6128
 6278TIP3   OH240324   5.482   0.204  15.714 -0.0030 -0.9525 -0.4167
 6278TIP3    H140325   5.445   0.116  15.722 -0.2381 -0.9354 -1.2383
 6278TIP3    H240326   5.564   0.200  15.764  1.0162 -2.2325 -2.0781
 6279TIP3   OH240327   6.768   4.800  13.282 -0.3365  0.2240  0.0164
 6279TIP3    H140328   6.672   4.805  13.285 -0.3135  0.7092  0.0596
 6279TIP3    H240329   6.793   4.861  13.212 -0.0176  0.6556  0.5044
 6280TIP3   OH240330   1.680   2.112   3.705 -0.0687  0.1907 -0.0872
 6280TIP3    H140331   1.621   2.038   3.694 -0.3190  0.2678  0.6818
 6280TIP3    H240332   1.722   2.097   3.790  0.1835  0.7141 -0.1119
 6281TIP3   OH240333   6.800   1.731   3.772 -0.3988  0.3309 -0.4190
 6281TIP3    H140334   6.822   1.648   3.729 -0.7871 -0.3364  0.6392
 6281TIP3    H240335   6.881   1.783   3.766  0.8098 -1.2175  1.3969
 6282TIP3   OH240336   3.118   6.497   1.083  0.0949  0.5669 -0.7987
 6282TIP3    H140337   3.022   6.491   1.085  0.1524 -0.3614 -0.4307
 6282TIP3    H240338   3.135   6.579   1.036 -0.8698  0.2781 -1.7201
 6283TIP3   OH240339   0.662   0.137   4.931  0.2377 -0.6519  0.0061
 6283TIP3    H140340   0.675   0.231   4.947  0.2607 -0.6983  0.2626
 6283TIP3    H240341   0.699   0.094   5.008  0.3829 -0.8817 -0.1864
 6284TIP3   OH240342   5.024   2.133  14.113  0.0726  0.3337 -0.2071
 6284TIP3    H140343   5.111   2.173  14.117 -0.2184  0.8951  1.1505
 6284TIP3    H240344   4.968   2.203  14.079 -0.2590  0.8199  1.2416
 6285TIP3   OH240345   6.590   2.639   5.863  0.5061 -0.4767 -0.1938
 6285TIP3    H140346   6.553   2.602   5.783 -1.7102  1.2394 -0.0586
 6285TIP3    H240347   6.569   2.574   5.931  0.8438 -1.1331 -0.7105
 6286TIP3   OH240348   2.251   0.565  11.552  0.4479 -0.0853 -0.1628
 6286TIP3    H140349   2.268   0.607  11.636 -0.6173 -1.8349  1.0042
 6286TIP3    H240350   2.271   0.632  11.487  0.3902  1.6417  1.5084
 6287TIP3   OH240351   1.361   0.783   0.075 -0.3460 -0.1219 -0.7472
 6287TIP3    H140352   1.385   0.720   0.007  1.4469 -0.2220 -0.0684
 6287TIP3    H240353   1.289   0.741   0.123  0.4735 -1.4314 -0.6312
 6288TIP3   OH240354   0.634   3.166   3.807  0.2094  0.0482  0.8066
 6288TIP3    H140355   0.667   3.102   3.744 -1.3357  0.7360 -0.8014
 6288TIP3    H240356   0.608   3.114   3.883  2.1410 -0.8066  0.9389
 6289TIP3   OH240357   3.918   0.943  13.029 -0.1920 -0.2277 -0.1995
 6289TIP3    H140358   3.825   0.923  13.043 -0.3145 -0.2749 -1.0372
 6289TIP3    H240359   3.943   0.994  13.106 -0.8719 -0.3366  0.1057
 6290TIP3   OH240360   1.707   6.167   5.464 -0.1692 -0.0546  0.1098
 6290TIP3    H140361   1.756   6.125   5.535  0.6559 -2.7810 -1.8932
 6290TIP3    H240362   1.652   6.232   5.508  1.4648 -0.4594  3.0290
 6291TIP3   OH240363   5.978   6.723   1.066  0.1054 -0.7676 -0.7550
 6291TIP3    H140364   6.010   6.645   1.110 -0.6908 -0.7702 -0.1413
 6291TIP3    H240365   6.055   6.778   1.055  0.5918 -1.4447 -0.7796
 6292TIP3   OH240366   1.394   4.028   1.684  0.1100 -0.1181  0.0969
 6292TIP3    H140367   1.466   4.021   1.746  0.4140  0.1746 -0.2123
 6292TIP3    H240368   1.369   3.938   1.665 -0.1953 -0.1995  0.8817
 6293TIP3   OH240369   3.594   2.797   3.285  0.2223 -0.3086  0.2956
 6293TIP3    H140370   3.672   2.743   3.298  0.6623  0.6386  1.9497
 6293TIP3    H240371   3.605   2.835   3.198  1.7682  0.0202  0.5930
 6294TIP3   OH240372   4.069   0.975   4.821 -0.3650  0.4207  0.4699
 6294TIP3    H140373   4.015   0.907   4.862  0.3997 -0.3926  0.1464
 6294TIP3    H240374   4.095   1.031   4.894 -0.9134  0.3054  0.7601
 6295TIP3   OH240375   0.521   5.580   1.024  0.3010 -0.1662 -0.2393
 6295TIP3    H140376   0.608   5.566   0.987  0.2386  0.3463 -0.5973
 6295TIP3    H240377   0.515   5.518   1.096  0.5195 -1.0347 -0.9441
 6296TIP3   OH240378   6.626   4.682   1.064  0.0751  0.3200 -0.3381
 6296TIP3    H140379   6.655   4.720   0.980 -0.5326  2.7597  0.4623
 6296TIP3    H240380   6.650   4.748   1.129 -2.1712 -0.1177  1.0421
 6297TIP3   OH240381   1.589   2.990   2.991 -0.1136  0.1870 -0.4943
 6297TIP3    H140382   1.646   2.969   3.065  0.2557 -1.3999 -1.1725
 6297TIP3    H240383   1.637   3.056   2.942  0.6356 -0.3009 -0.4385
 6298TIP3   OH240384   2.136   3.028  11.453 -0.9805  0.3878 -0.0873
 6298TIP3    H140385   2.065   3.076  11.497  0.6367  2.9738 -0.0921
 6298TIP3    H240386   2.208   3.028  11.517 -0.4435 -0.7981 -0.6647
 6299TIP3   OH240387   2.492   6.121   0.003  0.3551 -0.3619 -0.5103
 6299TIP3    H140388   2.414   6.064   0.005 -2.0103  2.5617  2.7160
 6299TIP3    H240389   2.544   6.092   0.078  0.8816 -0.3725 -0.8735
 6300TIP3   OH240390   4.983   1.990  11.312 -0.3696 -0.5621  0.0366
 6300TIP3    H140391   4.954   1.963  11.399 -0.8975  0.7149  0.2866
 6300TIP3    H240392   4.914   1.959  11.253 -1.0882  0.3903  0.3469
 6301TIP3   OH240393   4.447   1.795   4.852 -0.3256  0.0949 -0.1114
 6301TIP3    H140394   4.540   1.777   4.855 -0.3604 -0.4808 -1.6819
 6301TIP3    H240395   4.438   1.882   4.892  0.6850 -0.4192  1.3016
 6302TIP3   OH240396   2.580   3.114  10.738 -0.3870  0.8552  0.4402
 6302TIP3    H140397   2.552   3.179  10.803 -0.4593  0.7868  0.4771
 6302TIP3    H240398   2.505   3.105  10.679 -0.8484 -0.1461  1.1736
 6303TIP3   OH240399   6.768   5.476  12.018 -0.4685 -0.0473 -0.2690
 6303TIP3    H140400   6.814   5.487  11.935 -1.2664  0.7247 -0.6214
 6303TIP3    H240401   6.690   5.530  12.010 -0.6128 -0.0397  0.9486
 6304TIP3   OH240402   5.445   5.261  13.496  0.0121 -0.8886 -0.5004
 6304TIP3    H140403   5.535   5.239  13.519  0.3805  0.4571 -0.5888
 6304TIP3    H240404   5.453   5.337  13.438 -1.2722  0.8193  1.4311
 6305TIP3   OH240405   2.932   0.410   6.645  0.1114  0.3734 -0.2490
 6305TIP3    H140406   2.934   0.345   6.714  0.2348 -0.2395 -0.8197
 6305TIP3    H240407   3.001   0.472   6.668  1.5117 -0.8892 -0.8236
 6306TIP3   OH240408   1.811   2.061   1.074 -0.2484 -0.2396  0.3679
 6306TIP3    H140409   1.886   2.042   1.130  0.9044 -1.5699 -1.5200
 6306TIP3    H240410   1.763   1.978   1.070 -1.2894  0.3242  0.7472
 6307TIP3   OH240411   0.717   0.769   4.684  0.3019 -0.1106 -1.1679
 6307TIP3    H140412   0.758   0.853   4.704  0.3623  0.1344 -2.2495
 6307TIP3    H240413   0.783   0.704   4.705  0.4367  0.1481 -0.7897
 6308TIP3   OH240414   5.635   4.380   1.483 -0.1554  0.1102 -0.1331
 6308TIP3    H140415   5.583   4.420   1.413 -0.4490 -0.2558 -0.1330
 6308TIP3    H240416   5.659   4.294   1.449 -0.3835 -0.1099  0.2475
 6309TIP3   OH240417   6.299   3.538   0.278 -0.0021  0.2193  0.0103
 6309TIP3    H140418   6.235   3.511   0.344 -0.0424 -0.4236 -0.2749
 6309TIP3    H240419   6.383   3.504   0.310 -0.0007  0.0161 -0.2021
 6310TIP3   OH240420   3.263   1.821   4.493  0.0346  0.3468  0.2989
 6310TIP3    H140421   3.307   1.841   4.410 -0.0729  1.3045  0.4598
 6310TIP3    H240422   3.329   1.774   4.544  0.4985  0.7901  0.1140
 6311TIP3   OH240423   1.642   0.627   5.751  0.2483  0.3036  0.1480
 6311TIP3    H140424   1.591   0.661   5.825 -0.9541  0.3396 -0.6761
 6311TIP3    H240425   1.634   0.532   5.758 -1.6366  0.3257 -1.0970
 6312TIP3   OH240426   6.147   0.151   3.171  0.0350  0.4446 -0.3233
 6312TIP3    H140427   6.133   0.149   3.076 -0.7818 -0.7106 -0.2016
 6312TIP3    H240428   6.064   0.182   3.207  0.0594  0.0683  0.0612
 6313TIP3   OH240429   5.887   0.142   6.149 -0.0880  0.2662  0.3156
 6313TIP3    H140430   5.807   0.194   6.162  0.5979  1.2484  0.6858
 6313TIP3    H240431   5.957   0.195   6.187  0.8222 -0.3685 -0.4288
 6314TIP3   OH240432   1.699   5.604  16.769  0.2766 -0.4214 -0.2275
 6314TIP3    H140433   1.627   5.632  16.712  0.3966  0.3377 -0.0093
 6314TIP3    H240434   1.764   5.674  16.762  0.3069 -0.3281  0.8180
 6315TIP3   OH240435   0.902   1.047   5.422  0.1824 -0.2706  0.5465
 6315TIP3    H140436   0.952   1.020   5.498 -0.0828 -1.6432  0.2649
 6315TIP3    H240437   0.965   1.045   5.350  0.2386  0.2046  0.5809
 6316TIP3   OH240438   6.088   6.510   5.563 -0.1582  0.4035 -0.2169
 6316TIP3    H140439   6.040   6.593   5.563 -2.1228 -0.6631 -0.0981
 6316TIP3    H240440   6.040   6.455   5.625  1.6042 -0.5749  0.3585
 6317TIP3   OH240441   3.406   1.832  12.460 -0.2508 -0.3741 -0.1100
 6317TIP3    H140442   3.389   1.796  12.546  0.1797  0.2555  0.2536
 6317TIP3    H240443   3.400   1.758  12.400 -1.8894 -0.5806  0.2791
 6318TIP3   OH240444   6.624   2.827   1.207  0.6358 -0.1241  0.1987
 6318TIP3    H140445   6.657   2.856   1.122 -1.4996 -1.5209 -1.2051
 6318TIP3    H240446   6.599   2.735   1.193  0.5581 -0.5081  2.4569
 6319TIP3   OH240447   4.703   6.072  14.433  0.3271 -0.7400 -0.2876
 6319TIP3    H140448   4.755   6.145  14.466 -2.6593  0.9457  1.1070
 6319TIP3    H240449   4.681   6.097  14.343 -0.5229  0.0854  0.1220
 6320TIP3   OH240450   2.525   0.688  11.799 -0.0110 -0.0696 -0.2663
 6320TIP3    H140451   2.599   0.748  11.799  0.6423 -0.8685 -0.1224
 6320TIP3    H240452   2.458   0.732  11.746  0.7292  0.4465 -0.7851
 6321TIP3   OH240453   3.001   2.309   1.445 -0.1046 -0.1209 -0.2126
 6321TIP3    H140454   3.074   2.357   1.484 -0.6610 -0.4152  1.2560
 6321TIP3    H240455   3.040   2.229   1.412  0.7032  0.9460 -2.0159
 6322TIP3   OH240456   5.939   3.552   0.266  0.8638 -0.0048 -0.5390
 6322TIP3    H140457   6.015   3.514   0.309  0.8868  0.0693 -0.5136
 6322TIP3    H240458   5.884   3.583   0.337  1.0178  0.3418 -0.5670
 6323TIP3   OH240459   0.011   5.313   0.428  0.1796 -0.8646 -0.2810
 6323TIP3    H140460   0.094   5.329   0.383  0.5675 -0.6323  0.5011
 6323TIP3    H240461  -0.055   5.351   0.370  0.8806  1.6424  0.4501
 6324TIP3   OH240462   0.350   1.719   1.442 -0.0171 -0.5350 -0.3455
 6324TIP3    H140463   0.372   1.812   1.437  0.9553 -0.6546  1.1673
 6324TIP3    H240464   0.258   1.715   1.416 -0.1244  0.8527 -0.2819
 6325TIP3   OH240465   4.728   5.310   1.439 -0.5106  0.4036  0.1786
 6325TIP3    H140466   4.771   5.347   1.516 -0.7414  1.8438 -0.3585
 6325TIP3    H240467   4.795   5.312   1.371  0.6066 -3.3593  0.9010
 6326TIP3   OH240468   4.673   0.740  15.045 -0.2718  0.3046 -0.4165
 6326TIP3    H140469   4.658   0.767  15.136  2.8741  0.9177  0.0645
 6326TIP3    H240470   4.586   0.723  15.010 -1.6151  0.0614  2.6943
 6327TIP3   OH240471   6.443   5.548   0.853  0.2585 -0.4549  0.0551
 6327TIP3    H140472   6.538   5.556   0.845  0.1007  0.3770 -1.2361
 6327TIP3    H240473   6.414   5.519   0.767 -0.9459  2.2449 -0.5389
 6328TIP3   OH240474   3.590   1.704   6.000  0.2214  0.7767 -0.2167
 6328TIP3    H140475   3.543   1.658   6.070 -0.0432 -1.9268 -1.9997
 6328TIP3    H240476   3.676   1.663   5.998 -0.3137 -0.3657 -2.4382
 6329TIP3   OH240477   5.479   5.923   0.659  0.2106 -0.3509  0.5328
 6329TIP3    H140478   5.466   5.950   0.750  0.1145 -2.0146  1.0432
 6329TIP3    H240479   5.399   5.875   0.637 -0.3251  1.0864 -0.8705
 6330TIP3   OH240480   5.608   0.424  15.434 -0.3635 -0.1243 -0.2177
 6330TIP3    H140481   5.526   0.398  15.393 -0.4309 -1.2952  0.6011
 6330TIP3    H240482   5.625   0.512  15.401 -1.3044 -0.3492 -1.3587
 6331TIP3   OH240483   4.627   6.009   5.596 -0.2865 -0.5689 -0.1677
 6331TIP3    H140484   4.703   6.066   5.586  0.4046 -1.3603  0.4178
 6331TIP3    H240485   4.601   5.988   5.506  1.2654 -1.6550 -0.4128
 6332TIP3   OH240486   5.494   0.825  14.931 -0.4663  0.5649 -0.1222
 6332TIP3    H140487   5.566   0.817  14.868 -0.8627 -2.4982 -0.3464
 6332TIP3    H240488   5.527   0.784  15.011 -1.8353 -0.6967 -0.1607
 6333TIP3   OH240489   5.703   0.540   1.311  0.2110  0.1900 -0.3023
 6333TIP3    H140490   5.608   0.554   1.317  0.2720  1.7120 -1.9159
 6333TIP3    H240491   5.741   0.618   1.353  0.6854  0.8776 -1.9426
 6334TIP3   OH240492   5.911   3.745  12.595 -0.3319  0.0838 -0.0325
 6334TIP3    H140493   5.897   3.721  12.504 -0.7110  0.9375 -0.2118
 6334TIP3    H240494   5.906   3.663  12.643 -0.0694 -0.3822 -0.7848
 6335TIP3   OH240495   1.112   4.746   2.425  0.0318  0.1199 -0.1737
 6335TIP3    H140496   1.178   4.809   2.395  0.1747  1.1477  2.0778
 6335TIP3    H240497   1.051   4.798   2.477 -2.7687 -0.7557 -2.3514
 6336TIP3   OH240498   0.975   4.311  15.796  0.2435 -0.5279 -0.3373
 6336TIP3    H140499   1.043   4.243  15.792  1.5389  0.7666 -1.8263
 6336TIP3    H240500   0.969   4.344  15.706  0.5992  2.2033  0.5493
 6337TIP3   OH240501   4.164   2.523  16.239  0.4243 -0.1231  0.3812
 6337TIP3    H140502   4.214   2.441  16.233 -1.0886 -1.0545 -0.2760
 6337TIP3    H240503   4.148   2.547  16.148 -0.9456 -0.2764  0.5609
 6338TIP3   OH240504   2.609   2.555   4.687  0.2882  0.2226 -0.4494
 6338TIP3    H140505   2.699   2.581   4.666 -0.2701  0.7014 -2.4825
 6338TIP3    H240506   2.565   2.554   4.603 -1.1903 -1.7697  0.2878
 6339TIP3   OH240507   2.362   3.752  16.664 -0.1776  0.1578 -0.4642
 6339TIP3    H140508   2.335   3.663  16.640 -0.0896  0.6594 -2.5700
 6339TIP3    H240509   2.280   3.795  16.691 -0.6018  0.0680 -1.5615
 6340TIP3   OH240510   2.211   3.296  15.678  0.1349  0.0023  0.0230
 6340TIP3    H140511   2.255   3.364  15.626  0.5947  1.0646  1.7041
 6340TIP3    H240512   2.262   3.217  15.661  0.5091  0.4023 -0.8099
 6341TIP3   OH240513   6.723   5.664  16.706 -0.1895  0.2808  0.3531
 6341TIP3    H140514   6.633   5.646  16.679 -0.0683  1.0688 -0.6186
 6341TIP3    H240515   6.717   5.746  16.755  0.0831  0.6894 -0.2827
 6342TIP3   OH240516   5.414   3.170  13.431  0.1124 -0.1957  0.6452
 6342TIP3    H140517   5.467   3.194  13.355 -0.8264  0.3321  0.1422
 6342TIP3    H240518   5.419   3.075  13.435 -2.6461 -0.6252 -2.2338
 6343TIP3   OH240519   3.104   1.561   1.211 -0.1925  0.2534 -0.1732
 6343TIP3    H140520   3.177   1.605   1.255 -0.3613 -0.2136  0.5944
 6343TIP3    H240521   3.042   1.631   1.191 -0.8626  0.3009  1.8198
 6344TIP3   OH240522   4.281   1.560  16.014 -0.2397 -0.2517 -0.4784
 6344TIP3    H140523   4.368   1.586  16.043 -0.5465  0.3029 -0.0373
 6344TIP3    H240524   4.264   1.615  15.937 -1.0914  1.2659  0.7492
 6345TIP3   OH240525   3.505   2.739  17.026 -0.1668  0.2290  0.0499
 6345TIP3    H140526   3.458   2.663  17.061 -1.0170  1.1410  0.9783
 6345TIP3    H240527   3.485   2.739  16.933 -0.4286 -0.4932  0.0988
 6346TIP3   OH240528   1.731   0.282   0.321  0.3053 -0.1952 -0.0311
 6346TIP3    H140529   1.742   0.190   0.342 -1.4533 -0.9500 -2.0536
 6346TIP3    H240530   1.733   0.285   0.225  1.3212  2.0266 -0.0041
 6347TIP3   OH240531   5.344   2.718  12.661 -0.0154  0.3564  0.1037
 6347TIP3    H140532   5.399   2.675  12.726 -0.6087  0.6928  0.8463
 6347TIP3    H240533   5.256   2.712  12.697 -0.0303  2.8426  0.6222
 6348TIP3   OH240534   2.520   1.064  13.958  0.1396 -0.4971  0.3356
 6348TIP3    H140535   2.592   1.118  13.989  0.4766 -0.3638 -0.6401
 6348TIP3    H240536   2.441   1.107  13.992  0.4195  0.4626 -0.2133
 6349TIP3   OH240537   1.705   5.736  11.604  1.0249 -0.0797  0.2934
 6349TIP3    H140538   1.744   5.664  11.555  0.4712 -2.9384  3.6302
 6349TIP3    H240539   1.611   5.719  11.602  0.8753  0.5486  1.1560
 6350TIP3   OH240540   2.771   2.232   1.580 -0.0749  0.0180  0.5549
 6350TIP3    H140541   2.856   2.272   1.562 -0.0626 -0.4530 -0.5259
 6350TIP3    H240542   2.792   2.154   1.631  0.1059  0.1419  0.6698
 6351TIP3   OH240543   2.942   6.782   3.812  0.0045  0.5076  0.0321
 6351TIP3    H140544   2.997   6.726   3.867 -1.9750 -0.6311  0.9790
 6351TIP3    H240545   2.943   6.739   3.726  0.8198  0.6843 -0.0585
 6352TIP3   OH240546   6.318   3.391   4.717 -0.2803 -0.1811 -0.1619
 6352TIP3    H140547   6.398   3.432   4.752 -0.1952 -0.5639  0.1011
 6352TIP3    H240548   6.304   3.434   4.633 -0.3786  0.6262  0.2549
 6353TIP3   OH240549   6.013   5.805   1.207  0.7112  0.6549 -0.4843
 6353TIP3    H140550   5.953   5.755   1.262  1.6116 -0.4228 -0.4406
 6353TIP3    H240551   6.014   5.758   1.123  1.3224  0.7815 -0.5520
 6354TIP3   OH240552   1.669   5.929   5.935 -0.0646  0.8612  0.2567
 6354TIP3    H140553   1.706   5.970   6.013 -1.2959 -2.0532  2.5986
 6354TIP3    H240554   1.740   5.875   5.900 -0.4479 -0.4806  1.4742
 6355TIP3   OH240555   2.408   2.530  13.768  0.1440 -0.5037  0.1789
 6355TIP3    H140556   2.334   2.522  13.828  0.9957  1.5520  1.6136
 6355TIP3    H240557   2.481   2.487  13.813  0.5272  0.0830  0.1282
 6356TIP3   OH240558   3.503   6.717   1.044 -0.7314  0.4546  0.1432
 6356TIP3    H140559   3.460   6.650   1.097 -0.2004  0.9128  1.1884
 6356TIP3    H240560   3.435   6.783   1.030 -1.8498 -1.0918 -2.5031
 6357TIP3   OH240561   0.910   6.133   2.388  0.1063 -0.2588  0.0626
 6357TIP3    H140562   0.821   6.103   2.373  1.2117 -3.1993 -1.4404
 6357TIP3    H240563   0.914   6.219   2.346 -1.7672 -0.4587 -0.6104
 6358TIP3   OH240564   4.121   0.079  12.264  0.4432  0.3093 -0.1804
 6358TIP3    H140565   4.104   0.028  12.343 -3.0551  1.8704  0.2854
 6358TIP3    H240566   4.109   0.170  12.291  0.5539  0.9841 -2.2075
 6359TIP3   OH240567   1.688   6.169   1.950  0.5658  0.2387  0.6101
 6359TIP3    H140568   1.759   6.209   1.899  1.1126 -0.6165  0.6762
 6359TIP3    H240569   1.663   6.092   1.900  0.3774 -0.0180  1.0921
 6360TIP3   OH240570   0.278   1.044  15.306 -0.3288  0.2788  0.6859
 6360TIP3    H140571   0.363   1.085  15.298 -0.4223  0.2843 -0.5550
 6360TIP3    H240572   0.218   1.104  15.262 -0.8992  0.0595  1.1477
 6361TIP3   OH240573   5.732   2.165  15.395  0.3650  0.1417 -0.3517
 6361TIP3    H140574   5.749   2.228  15.464 -0.9224  1.7243 -1.3987
 6361TIP3    H240575   5.688   2.216  15.326 -0.5163 -1.8381 -1.3445
 6362TIP3   OH240576   4.084   5.156  15.041 -0.1830  0.1321 -0.2428
 6362TIP3    H140577   4.156   5.217  15.026  0.7725 -0.5402  1.2909
 6362TIP3    H240578   4.123   5.069  15.027 -0.3285 -0.2944  1.7117
 6363TIP3   OH240579   0.916   0.250   2.944 -0.3023 -0.2884  0.1927
 6363TIP3    H140580   0.984   0.236   3.010 -1.2335  0.1182  1.2692
 6363TIP3    H240581   0.843   0.195   2.973 -0.7533 -0.0503 -0.4743
 6364TIP3   OH240582   5.459   1.826  17.043  0.5134  0.1142 -0.6306
 6364TIP3    H140583   5.458   1.854  16.951  2.8000 -0.6468 -0.9452
 6364TIP3    H240584   5.472   1.731  17.039 -1.5419 -0.2742  0.4925
 6365TIP3   OH240585   5.304   0.905   0.458  0.1800  0.6043 -0.0418
 6365TIP3    H140586   5.294   0.969   0.528  1.1579  1.2302 -0.4486
 6365TIP3    H240587   5.219   0.903   0.415 -0.0560  1.1398  0.3816
 6366TIP3   OH240588   5.609   6.494   2.788  0.0727  0.4831  0.5070
 6366TIP3    H140589   5.573   6.526   2.870 -0.2542 -0.7170  0.8445
 6366TIP3    H240590   5.599   6.399   2.792 -3.7612  0.5116 -2.6429
 6367TIP3   OH240591   1.248   2.400   1.460 -0.5696 -0.5726  0.1746
 6367TIP3    H140592   1.338   2.406   1.428 -0.4406 -0.8808  0.4712
 6367TIP3    H240593   1.254   2.425   1.553 -0.4214 -2.6782  0.7819
 6368TIP3   OH240594   2.178   0.413  11.210  0.8737 -0.0585 -0.2274
 6368TIP3    H140595   2.274   0.409  11.211  0.8923 -0.9822 -2.3225
 6368TIP3    H240596   2.150   0.335  11.258  1.1217  0.4917  0.8617
 6369TIP3   OH240597   5.478   1.636  14.299  0.7228  0.8219 -0.9894
 6369TIP3    H140598   5.468   1.542  14.316 -0.3248  0.9042 -1.1006
 6369TIP3    H240599   5.522   1.641  14.215 -0.1647  0.4179 -1.4923
 6370TIP3   OH240600   0.768   4.246   1.659 -0.5811 -0.0268  0.4495
 6370TIP3    H140601   0.744   4.167   1.611 -1.7506  0.9500 -0.6381
 6370TIP3    H240602   0.684   4.285   1.686  0.0030  0.2131  2.0549
 6371TIP3   OH240603   4.337   5.275  17.123 -0.6112 -0.1810  0.4097
 6371TIP3    H140604   4.281   5.280  17.200  0.1750 -0.6796  1.0351
 6371TIP3    H240605   4.375   5.187  17.126 -0.9919 -0.4174 -0.8606
 6372TIP3   OH240606   3.069   5.738  10.957 -0.1118  0.0046 -0.0120
 6372TIP3    H140607   3.089   5.672  11.023 -1.2774 -0.2890  0.0706
 6372TIP3    H240608   3.027   5.809  11.006  1.6066  1.0785 -0.0148
 6373TIP3   OH240609   0.922   5.281   4.700 -0.6107 -0.3410  0.6747
 6373TIP3    H140610   0.983   5.296   4.628 -1.0232  1.5510  0.6672
 6373TIP3    H240611   0.964   5.213   4.753  0.3162 -0.8219 -0.6311
 6374TIP3   OH240612   3.525   4.307  14.954  0.2344 -0.1639  0.4591
 6374TIP3    H140613   3.539   4.234  14.893 -1.4056  1.1506 -1.6218
 6374TIP3    H240614   3.446   4.284  15.001  1.0607 -0.8046  1.5833
 6375TIP3   OH240615   1.808   4.717  15.936 -0.6102  0.4844  0.2804
 6375TIP3    H140616   1.792   4.717  15.842 -1.7675 -1.8532  0.3971
 6375TIP3    H240617   1.733   4.763  15.973 -0.1735  1.3725  0.0873
 6376TIP3   OH240618   5.181   5.167  13.417 -0.6597 -0.3776  0.1758
 6376TIP3    H140619   5.165   5.235  13.351 -1.8756 -0.4848  0.3391
 6376TIP3    H240620   5.272   5.180  13.443 -0.5601  0.5135 -0.5564
 6377TIP3   OH240621   5.046   2.022  16.305 -0.5163  0.1388  0.2491
 6377TIP3    H140622   5.014   1.975  16.228  3.4053 -0.6139 -1.1485
 6377TIP3    H240623   5.018   1.969  16.379 -2.9379 -0.0263 -0.7046
 6378TIP3   OH240624   1.503   3.840  12.614 -0.5418 -0.1922  0.3368
 6378TIP3    H140625   1.448   3.841  12.536 -1.6679  0.8889  1.1078
 6378TIP3    H240626   1.441   3.846  12.687  0.5832  3.2326  1.2036
 6379TIP3   OH240627   1.529   5.185   3.675 -0.0214 -0.3694 -0.4405
 6379TIP3    H140628   1.443   5.152   3.699 -0.3625 -0.2570 -1.4619
 6379TIP3    H240629   1.582   5.173   3.753 -0.9286 -0.5618  0.1561
 6380TIP3   OH240630   0.283   0.589  12.899  0.7020 -0.4473  0.0260
 6380TIP3    H140631   0.372   0.585  12.863  0.7305 -2.6302  0.1855
 6380TIP3    H240632   0.231   0.532  12.842  0.2182 -2.0057  1.9065
 6381TIP3   OH240633   0.513   2.861   2.663 -0.3133  0.2377  0.1573
 6381TIP3    H140634   0.485   2.922   2.731  0.9753  0.5923  0.4079
 6381TIP3    H240635   0.561   2.916   2.600  1.3836 -0.5673  0.6892
 6382TIP3   OH240636   3.463   4.442  14.275 -0.7547 -0.0366  0.4324
 6382TIP3    H140637   3.545   4.406  14.240 -0.5483 -1.5950  2.3674
 6382TIP3    H240638   3.470   4.430  14.369 -2.7315  0.8797  0.7396
 6383TIP3   OH240639   1.971   0.560  12.256  0.1302 -0.0173  0.3226
 6383TIP3    H140640   1.916   0.491  12.217  0.5279  0.3010 -0.8682
 6383TIP3    H240641   1.950   0.638  12.204  1.3263  0.2191  0.1725
 6384TIP3   OH240642   4.553   2.799   5.999 -0.3543 -0.4085 -0.4559
 6384TIP3    H140643   4.586   2.851   6.072 -3.0086 -0.0330  0.5788
 6384TIP3    H240644   4.625   2.799   5.935  1.4408  0.6054  1.4517
 6385TIP3   OH240645   3.753   5.283  16.348 -0.3179  0.1250  0.1340
 6385TIP3    H140646   3.831   5.338  16.347 -1.0618  1.2116 -1.3958
 6385TIP3    H240647   3.787   5.193  16.339  0.9305  0.1818  2.9716
 6386TIP3   OH240648   4.887   1.931   6.205  0.1658  0.1763  0.2044
 6386TIP3    H140649   4.860   1.999   6.267  2.0613  1.2132 -0.0587
 6386TIP3    H240650   4.865   1.849   6.250 -1.1111  0.9117  1.0053
 6387TIP3   OH240651   5.428   4.385   6.124 -0.4896  0.4864 -0.1303
 6387TIP3    H140652   5.367   4.391   6.050  0.1124  1.2689 -0.5761
 6387TIP3    H240653   5.424   4.472   6.165 -1.5879 -0.2339  1.3943
 6388TIP3   OH240654   1.829   6.700   3.392 -0.2970  0.2557  0.0524
 6388TIP3    H140655   1.839   6.677   3.484 -0.1363 -0.8306 -0.2198
 6388TIP3    H240656   1.784   6.784   3.392 -0.2441  0.2894  1.1181
 6389TIP3   OH240657   0.201   4.932  14.844 -0.8561 -0.1821 -0.8984
 6389TIP3    H140658   0.234   4.887  14.922 -1.3137  1.7105  0.4661
 6389TIP3    H240659   0.264   4.910  14.775 -0.4822 -1.9725 -0.0423
 6390TIP3   OH240660   4.675   0.327  12.185  0.4859 -0.1876 -0.2884
 6390TIP3    H140661   4.633   0.413  12.192 -2.2062 -1.4986  1.9885
 6390TIP3    H240662   4.602   0.267  12.169  2.0922 -2.2026 -0.3607
 6391TIP3   OH240663   6.036   1.475  10.864 -0.1196 -0.4138  0.1673
 6391TIP3    H140664   5.973   1.403  10.873 -0.7854  0.3125  1.5913
 6391TIP3    H240665   6.091   1.469  10.942 -0.9781  1.3604  0.9567
 6392TIP3   OH240666   1.830   3.194  13.530 -0.2094  0.1455  0.5347
 6392TIP3    H140667   1.860   3.103  13.533 -1.5423 -0.3226  0.3729
 6392TIP3    H240668   1.767   3.201  13.601  0.4412  1.1736  1.0337
 6393TIP3   OH240669   5.685   1.803   1.585  0.6847 -0.0387 -0.3187
 6393TIP3    H140670   5.630   1.871   1.624 -0.7613 -1.9587  1.1455
 6393TIP3    H240671   5.688   1.734   1.650  0.0867 -2.4423 -2.6568
 6394TIP3   OH240672   0.335   0.513  15.145 -0.5051 -0.3766  0.0551
 6394TIP3    H140673   0.296   0.547  15.225  0.9092 -0.5850  0.8721
 6394TIP3    H240674   0.318   0.419  15.147  1.4731 -0.7771  1.3374
 6395TIP3   OH240675   0.065   3.064   4.968  0.3859 -1.1381  0.4879
 6395TIP3    H140676   0.077   3.079   5.062  1.0990  1.1744  0.0922
 6395TIP3    H240677   0.148   3.026   4.939  0.8109 -0.2453  0.5146
 6396TIP3   OH240678   2.984   1.610   4.423 -0.1528  0.9655 -0.4567
 6396TIP3    H140679   2.965   1.571   4.508 -0.4989  1.9617 -0.0700
 6396TIP3    H240680   3.071   1.576   4.400  0.0813  0.9532  0.4370
 6397TIP3   OH240681   3.609   1.091  13.888  0.0405 -0.1251  0.1914
 6397TIP3    H140682   3.693   1.132  13.867  1.1380 -1.4023  1.8686
 6397TIP3    H240683   3.553   1.164  13.915  0.7080  0.6946 -0.5812
 6398TIP3   OH240684   5.117   5.970  11.024  0.5556  0.4811  0.4354
 6398TIP3    H140685   5.082   6.045  10.976 -2.5621 -0.1610  1.4568
 6398TIP3    H240686   5.151   5.912  10.956 -1.1596  0.8297 -0.7771
 6399TIP3   OH240687   4.574   3.492  11.408 -0.2207  0.4989 -0.3410
 6399TIP3    H140688   4.507   3.424  11.398 -0.2184  0.3229  0.6986
 6399TIP3    H240689   4.651   3.457  11.365  0.1087 -0.6635  1.1250
 6400TIP3   OH240690   4.966   3.397  16.450  0.5434 -0.3291  0.1250
 6400TIP3    H140691   4.912   3.319  16.463  1.1670 -0.4327  2.6205
 6400TIP3    H240692   5.035   3.369  16.391 -1.0957 -0.6750 -1.7271
 6401TIP3   OH240693   5.709   3.284   1.532 -0.2549 -0.1262 -0.2194
 6401TIP3    H140694   5.755   3.326   1.459 -1.3093 -0.0824 -0.8683
 6401TIP3    H240695   5.617   3.286   1.508 -0.5268 -1.0320  0.6551
 6402TIP3   OH240696   6.118   1.745   4.322 -0.5087 -0.1885 -0.5176
 6402TIP3    H140697   6.158   1.794   4.393 -1.2932 -0.0814 -0.1383
 6402TIP3    H240698   6.028   1.729   4.351 -0.8864 -0.0225 -1.5320
 6403TIP3   OH240699   6.684   4.375   3.827  0.1866  0.4899 -0.2528
 6403TIP3    H140700   6.656   4.288   3.854  0.5542  0.4228 -0.0880
 6403TIP3    H240701   6.693   4.424   3.910 -0.6928  0.8931 -0.3776
 6404TIP3   OH240702   3.204   1.259   3.087  0.1431  0.2268  0.6314
 6404TIP3    H140703   3.117   1.288   3.112  0.2604  0.4191  0.8209
 6404TIP3    H240704   3.200   1.163   3.091 -0.0169  0.2401  0.7792
 6405TIP3   OH240705   4.817   4.346   6.267  0.1352  0.6547  0.3506
 6405TIP3    H140706   4.819   4.257   6.302 -0.4105  0.6763  0.4541
 6405TIP3    H240707   4.897   4.387   6.300  0.8601 -0.0820 -0.4848
 6406TIP3   OH240708   3.605   1.909   3.173  0.1821  0.1146 -0.1306
 6406TIP3    H140709   3.563   1.837   3.221 -4.0783  2.2083 -0.2024
 6406TIP3    H240710   3.556   1.914   3.091  3.4700  0.2982 -2.2444
 6407TIP3   OH240711   3.114   6.718  15.201 -0.3105  0.2558 -0.0444
 6407TIP3    H140712   3.022   6.744  15.195 -0.7610 -0.7311  1.8675
 6407TIP3    H240713   3.146   6.762  15.280  0.9010  0.6164 -0.7078
 6408TIP3   OH240714   4.296   2.451   2.304 -0.3026  0.2710 -0.7496
 6408TIP3    H140715   4.217   2.406   2.273 -0.7347 -1.1036  2.0514
 6408TIP3    H240716   4.311   2.519   2.239 -1.8661 -1.5045 -3.1509
 6409TIP3   OH240717   4.217   5.637   3.646  0.0262  0.1609 -0.0504
 6409TIP3    H140718   4.302   5.679   3.632 -0.0682 -0.0881 -1.4725
 6409TIP3    H240719   4.165   5.703   3.693  1.3958 -0.1682  2.0353
 6410TIP3   OH240720   3.220   5.473  14.225  0.2148 -0.0401  0.1180
 6410TIP3    H140721   3.154   5.481  14.294  0.8375 -0.1284  0.7334
 6410TIP3    H240722   3.177   5.508  14.147 -0.9513 -1.1630  0.2357
 6411TIP3   OH240723   4.774   4.520   0.003  0.3412 -0.4112 -0.3251
 6411TIP3    H140724   4.823   4.475  -0.067  0.4111  0.4162 -0.8178
 6411TIP3    H240725   4.804   4.611  -0.002 -0.8701 -0.0013 -0.2964
 6412TIP3   OH240726   6.639   6.561   5.414 -0.7816  0.0719 -0.2033
 6412TIP3    H140727   6.566   6.499   5.403 -1.8748  1.0856  0.9344
 6412TIP3    H240728   6.628   6.623   5.341 -1.3692  0.4857  0.2206
 6413TIP3   OH240729   3.579   6.630  14.080  0.1434 -0.3792 -0.3016
 6413TIP3    H140730   3.674   6.646  14.074  0.3063 -0.9252  0.6547
 6413TIP3    H240731   3.548   6.694  14.144  0.0284 -0.8222  0.0880
 6414TIP3   OH240732   0.417   5.938  15.418 -0.0157  0.1333  0.0304
 6414TIP3    H140733   0.377   5.946  15.331  0.4359 -0.9113 -0.2844
 6414TIP3    H240734   0.455   6.025  15.435  1.6436 -0.1997 -1.6942
 6415TIP3   OH240735   4.128   4.068  16.743 -0.5271 -0.0032  0.0529
 6415TIP3    H140736   4.062   4.137  16.749 -1.0495 -0.5652  0.8524
 6415TIP3    H240737   4.175   4.072  16.826  0.4140  0.3377 -0.4705
 6416TIP3   OH240738   1.968   1.200   0.457  0.2089  0.3076 -0.2616
 6416TIP3    H140739   1.901   1.176   0.393 -0.8419 -1.4113  1.4212
 6416TIP3    H240740   1.926   1.266   0.512 -1.0337 -2.2702  2.1319
 6417TIP3   OH240741   5.352   1.212   2.456  0.1276 -0.3779 -0.3751
 6417TIP3    H140742   5.323   1.125   2.482 -1.7230 -0.2072 -1.6238
 6417TIP3    H240743   5.408   1.197   2.380  1.1171 -0.5469  0.3706
 6418TIP3   OH240744   3.544   0.370   2.182 -0.5072  0.2391  0.0882
 6418TIP3    H140745   3.458   0.353   2.219 -0.3382 -0.9653 -0.0432
 6418TIP3    H240746   3.533   0.453   2.134 -1.8791 -0.4176 -0.8059
 6419TIP3   OH240747   6.132   5.246   1.969  0.2009  0.1731 -0.4682
 6419TIP3    H140748   6.153   5.187   1.896  0.1610  0.8124 -1.0148
 6419TIP3    H240749   6.045   5.280   1.947  0.9952  1.8726 -1.1645
 6420TIP3   OH240750   1.780   1.057  13.313  0.5915  0.2788  0.1079
 6420TIP3    H140751   1.843   1.099  13.371 -1.2176  0.3813  2.1387
 6420TIP3    H240752   1.725   1.129  13.280  2.0115  0.3200 -2.4136
 6421TIP3   OH240753   6.684   5.429   6.351 -0.0404  0.0138 -0.3513
 6421TIP3    H140754   6.751   5.382   6.301  0.7527 -1.2190  1.7580
 6421TIP3    H240755   6.687   5.519   6.317  2.6513 -0.0136 -0.3629
 6422TIP3   OH240756   1.193   2.663   1.664  0.3405  0.2228 -0.0243
 6422TIP3    H140757   1.158   2.690   1.748  0.2337  1.6444 -0.5028
 6422TIP3    H240758   1.288   2.660   1.677  0.4110  1.4534 -0.0969
 6423TIP3   OH240759   1.074   6.633   5.819  0.5458 -0.9658 -0.3303
 6423TIP3    H140760   1.002   6.616   5.879  0.2095 -1.1770 -0.7860
 6423TIP3    H240761   1.139   6.681   5.871 -0.7064  0.9131 -0.3789
 6424TIP3   OH240762   5.993   1.174  14.080 -0.3713 -0.3100  0.4035
 6424TIP3    H140763   6.073   1.206  14.122  1.1306 -2.6803 -0.4350
 6424TIP3    H240764   5.975   1.091  14.124  1.1668 -2.8145 -3.2122
 6425TIP3   OH240765   1.215   1.145   4.050 -0.1776  0.3590  0.5127
 6425TIP3    H140766   1.253   1.233   4.050  0.5858  0.0561  1.6952
 6425TIP3    H240767   1.205   1.123   3.957  1.4506  0.9272  0.1698
 6426TIP3   OH240768   0.472   3.590   4.454  0.5485  0.2202 -0.2896
 6426TIP3    H140769   0.487   3.617   4.545 -4.2279 -0.8701  1.0664
 6426TIP3    H240770   0.533   3.517   4.441  0.0643 -0.8832  2.7739
 6427TIP3   OH240771   4.554   0.888   2.767 -0.2660  0.1614 -0.0375
 6427TIP3    H140772   4.571   0.797   2.742  2.9937 -0.1116  2.4069
 6427TIP3    H240773   4.510   0.882   2.851 -0.0449  0.8105  0.1321
 6428TIP3   OH240774   3.987   6.450   5.148 -0.2250 -0.0512 -0.0775
 6428TIP3    H140775   3.961   6.403   5.069 -1.2355 -0.5162  0.5099
 6428TIP3    H240776   4.083   6.447   5.148 -0.2438 -0.8164 -0.8219
 6429TIP3   OH240777   6.241   1.017   1.906 -0.7946 -0.0432 -0.2477
 6429TIP3    H140778   6.328   0.990   1.933 -0.3234  0.0785 -1.5975
 6429TIP3    H240779   6.240   1.006   1.811 -2.7277 -1.4139 -0.1362
 6430TIP3   OH240780   2.321   2.916   3.161  0.2448 -0.5916 -0.1824
 6430TIP3    H140781   2.288   2.969   3.088 -0.3512 -0.9510 -0.1764
 6430TIP3    H240782   2.336   2.980   3.231  0.9292 -0.2271 -0.6508
 6431TIP3   OH240783   3.906   1.894  13.939 -0.4279 -0.4460 -0.7643
 6431TIP3    H140784   3.818   1.918  13.909 -1.0380 -0.7476  0.7036
 6431TIP3    H240785   3.892   1.818  13.995  0.6257  0.1749  0.3825
 6432TIP3   OH240786   4.455   0.953   6.157 -0.3041  0.1567  0.5851
 6432TIP3    H140787   4.461   1.048   6.153 -2.5165  0.4628  2.5568
 6432TIP3    H240788   4.520   0.927   6.222 -1.3471  0.6226  1.8566
 6433TIP3   OH240789   4.757   1.347   5.343  0.2211  0.1404 -0.1118
 6433TIP3    H140790   4.749   1.284   5.271 -2.1681  0.4460 -0.1906
 6433TIP3    H240791   4.847   1.336   5.374  0.2097 -2.5843 -0.7724
 6434TIP3   OH240792   5.851   2.635   5.722 -0.4279  0.2197  0.3149
 6434TIP3    H140793   5.907   2.620   5.646  0.8668  1.3975  0.9887
 6434TIP3    H240794   5.814   2.722   5.708  1.2466  1.2458  1.8230
 6435TIP3   OH240795   0.841   5.238   5.085  0.1288  0.5000 -0.4973
 6435TIP3    H140796   0.837   5.334   5.079  0.7949  0.5623 -0.1065
 6435TIP3    H240797   0.757   5.213   5.123 -0.0236  0.9377 -0.5362
 6436TIP3   OH240798   1.134   6.196   3.439 -0.1801  0.2336  0.0615
 6436TIP3    H140799   1.163   6.214   3.350  0.0948 -3.0087 -0.6302
 6436TIP3    H240800   1.040   6.216   3.439 -0.3481 -0.4737 -1.2103
 6437TIP3   OH240801   3.537   5.059  14.987  0.9208  0.3627 -0.1619
 6437TIP3    H140802   3.509   4.977  14.946  1.1564  0.2372 -0.0686
 6437TIP3    H240803   3.631   5.049  15.000  0.4427 -0.9933  3.4692
 6438TIP3   OH240804   1.124   5.270   1.382  0.8730 -0.3967 -0.3944
 6438TIP3    H140805   1.150   5.207   1.449  0.4173  1.2938  1.4414
 6438TIP3    H240806   1.200   5.278   1.325  1.7295 -0.9494  0.6440
 6439TIP3   OH240807   6.059   4.747  13.198 -0.3385  0.6089  0.6075
 6439TIP3    H140808   6.039   4.663  13.157  0.1102  0.4010  0.7996
 6439TIP3    H240809   5.997   4.808  13.160 -0.9298  0.1091  0.7549
 6440TIP3   OH240810   1.894   2.371   6.592 -0.3236  0.3721  0.8974
 6440TIP3    H140811   1.804   2.341   6.590  0.1228 -1.1525  2.3378
 6440TIP3    H240812   1.929   2.348   6.506 -1.3389  1.1990  0.2367
 6441TIP3   OH240813   5.459   5.684   2.524 -0.1062  0.2859 -0.2537
 6441TIP3    H140814   5.418   5.685   2.438  0.9674 -0.0343 -0.7866
 6441TIP3    H240815   5.386   5.677   2.586 -0.8171 -1.1188 -1.2013
 6442TIP3   OH240816   1.200   5.726  14.635 -0.1447 -0.2429  0.2028
 6442TIP3    H140817   1.164   5.792  14.695 -1.9497  0.1307 -1.2207
 6442TIP3    H240818   1.144   5.730  14.558  2.3532 -0.4204 -1.7249
 6443TIP3   OH240819   4.819   4.555   3.141  0.0604  0.0373 -0.1769
 6443TIP3    H140820   4.755   4.548   3.211  0.2287  0.2842  0.0030
 6443TIP3    H240821   4.900   4.582   3.185  0.2728 -0.2031 -0.4089
 6444TIP3   OH240822   3.958   6.655   0.794 -0.6113  0.2395  0.4110
 6444TIP3    H140823   4.042   6.624   0.827 -0.2231  1.5703  0.7600
 6444TIP3    H240824   3.923   6.582   0.742  0.9736 -0.1729 -0.1243
 6445TIP3   OH240825   2.112   5.207   4.681 -0.4659 -0.2894  0.7394
 6445TIP3    H140826   2.189   5.263   4.669 -0.8144  0.1063  0.3131
 6445TIP3    H240827   2.051   5.236   4.614 -1.9765  1.0613  2.5852
 6446TIP3   OH240828   2.710   1.111   0.279 -0.5531  0.7767 -0.1074
 6446TIP3    H140829   2.781   1.079   0.335 -1.0325  0.0645  0.1066
 6446TIP3    H240830   2.718   1.061   0.198  0.8367  2.5987 -1.1644
 6447TIP3   OH240831   3.948   3.128  16.137  0.1152  0.2273 -0.7042
 6447TIP3    H140832   4.043   3.130  16.136  0.2421  2.4915  2.4643
 6447TIP3    H240833   3.924   3.101  16.048  3.6414  0.0107 -1.7431
 6448TIP3   OH240834   1.400   1.897   3.136 -0.5104  0.5318 -0.1688
 6448TIP3    H140835   1.400   1.935   3.224  0.9120 -1.4187  0.7376
 6448TIP3    H240836   1.331   1.831   3.138 -0.0775  0.0712 -0.3260
 6449TIP3   OH240837   0.482   0.233  10.585  0.1904 -0.7704  0.0084
 6449TIP3    H140838   0.426   0.310  10.575 -0.2310 -0.7608  2.0718
 6449TIP3    H240839   0.423   0.163  10.612  0.5315 -1.9508 -2.0514
 6450TIP3   OH240840   1.189   2.830   1.418  0.7131 -0.3164  0.3682
 6450TIP3    H140841   1.184   2.782   1.500  0.5975  0.6270  0.9313
 6450TIP3    H240842   1.278   2.867   1.418  0.6579 -0.1827  0.1472
 6451TIP3   OH240843   0.113   1.030   0.555  0.4041 -0.0283  0.3424
 6451TIP3    H140844   0.026   1.067   0.541  1.2603  3.2120  2.4364
 6451TIP3    H240845   0.169   1.078   0.494  1.0610 -0.3167  0.7141
 6452TIP3   OH240846   6.766   0.121  16.546 -0.5410 -0.0413  0.2286
 6452TIP3    H140847   6.808   0.036  16.559 -2.4031 -1.3484 -1.7090
 6452TIP3    H240848   6.704   0.128  16.619 -0.7205 -0.5535  0.1241
 6453TIP3   OH240849   2.833   4.619  11.659  0.0282 -0.7544  0.3276
 6453TIP3    H140850   2.824   4.714  11.649  1.2609 -0.5975  0.5429
 6453TIP3    H240851   2.765   4.596  11.722 -0.9815 -0.1846 -0.5302
 6454TIP3   OH240852   2.049   5.843  13.555  0.2282 -0.0171 -0.8588
 6454TIP3    H140853   1.968   5.887  13.580 -0.1090  1.0215 -3.3901
 6454TIP3    H240854   2.117   5.909  13.567  0.3784 -0.2023 -0.6854
 6455TIP3   OH240855   1.865   4.105  13.006  0.1384  0.4388 -0.1093
 6455TIP3    H140856   1.857   4.095  12.911 -1.5331  0.9235 -0.0551
 6455TIP3    H240857   1.870   4.199  13.020 -0.7918  0.4273  0.3386
 6456TIP3   OH240858   1.445   4.477   1.742  0.5003  0.4799  0.3729
 6456TIP3    H140859   1.461   4.503   1.833 -0.0992 -1.2002  1.0022
 6456TIP3    H240860   1.382   4.405   1.749  1.2184 -0.3615 -1.3139
 6457TIP3   OH240861   4.381   2.014  12.586  0.2402 -0.0761 -0.4296
 6457TIP3    H140862   4.314   1.951  12.559  0.3108  0.0292 -0.8495
 6457TIP3    H240863   4.393   2.070  12.510 -0.0770  0.6712  0.0629
 6458TIP3   OH240864   6.164   5.194   2.644 -0.3890 -0.5583  0.5161
 6458TIP3    H140865   6.114   5.125   2.600  0.1034 -1.4189  1.2465
 6458TIP3    H240866   6.209   5.241   2.574 -1.4876 -0.3604 -0.0682
 6459TIP3   OH240867   6.370   3.694   3.234 -0.5488 -0.1840 -0.1171
 6459TIP3    H140868   6.405   3.690   3.145 -0.2780  0.0898 -0.0251
 6459TIP3    H240869   6.394   3.611   3.273 -1.6814 -0.7961 -0.6669
 6460TIP3   OH240870   5.038   4.686  11.158  0.3834  0.3949  0.1997
 6460TIP3    H140871   4.965   4.684  11.097  0.3050  0.7745  0.2778
 6460TIP3    H240872   5.034   4.773  11.198  0.9724  0.4750  0.0940
 6461TIP3   OH240873   2.464   2.244   4.546  0.1018 -0.1589  0.1751
 6461TIP3    H140874   2.483   2.155   4.574  0.4430  0.2607  1.3320
 6461TIP3    H240875   2.415   2.283   4.618 -2.6153 -0.2536 -1.4612
 6462TIP3   OH240876   3.593   1.766  16.225 -0.4299  0.3985  0.0795
 6462TIP3    H140877   3.671   1.806  16.187  0.0769 -0.4886  0.1547
 6462TIP3    H240878   3.547   1.727  16.151  0.2810 -0.8674  0.2783
 6463TIP3   OH240879   3.446   0.451   0.215  0.2112 -0.5680 -0.0206
 6463TIP3    H140880   3.373   0.420   0.162  0.0595 -0.7696  0.3004
 6463TIP3    H240881   3.422   0.426   0.304  0.0013  0.6383  0.2726
 6464TIP3   OH240882   0.754   2.263   6.191 -0.4732 -0.0647  0.7179
 6464TIP3    H140883   0.764   2.179   6.146 -0.0244 -0.4137  1.4382
 6464TIP3    H240884   0.840   2.305   6.184 -0.7995  0.5071  0.0421
 6465TIP3   OH240885   6.537   0.883   5.966  1.0193  0.4369 -0.0431
 6465TIP3    H140886   6.459   0.934   5.986 -0.5103 -0.7492 -2.4915
 6465TIP3    H240887   6.537   0.811   6.030 -0.2039  0.1771 -0.3195
 6466TIP3   OH240888   4.301   1.138  15.895 -0.1035  0.3833 -0.0671
 6466TIP3    H140889   4.369   1.156  15.829  0.4325  0.6762  0.5556
 6466TIP3    H240890   4.223   1.182  15.862  0.0321  0.1584 -0.7258
 6467TIP3   OH240891   1.910   5.455   2.608 -0.6857  0.4799  0.2313
 6467TIP3    H140892   1.888   5.518   2.538 -3.7808  1.9175  2.2325
 6467TIP3    H240893   1.996   5.483   2.639  0.5838  0.0668 -2.5880
 6468TIP3   OH240894   3.155   3.945   5.788 -0.0701  0.3559 -0.4922
 6468TIP3    H140895   3.235   3.893   5.796 -0.4269 -0.1354 -0.0598
 6468TIP3    H240896   3.086   3.888   5.821 -0.4475  1.1615  0.1340
 6469TIP3   OH240897   2.295   6.328  12.503  0.0508 -0.4636 -0.4751
 6469TIP3    H140898   2.321   6.312  12.412  0.7431 -1.4721 -0.1199
 6469TIP3    H240899   2.307   6.422  12.516 -0.8597 -0.1578 -1.6697
 6470TIP3   OH240900   4.496   2.950  11.159  0.3847  0.9075 -0.1553
 6470TIP3    H140901   4.457   3.036  11.143  0.2790  0.7879 -0.5498
 6470TIP3    H240902   4.590   2.964  11.148  0.3220  0.8508 -0.7800
 6471TIP3   OH240903   1.288   5.372   0.096  0.1309  0.0935  0.2759
 6471TIP3    H140904   1.241   5.323   0.164  1.8978  0.1581  1.6195
 6471TIP3    H240905   1.268   5.326   0.015  0.0712 -1.6309  1.2196
 6472TIP3   OH240906   0.024   3.873  16.298  0.3005 -0.0679 -0.1430
 6472TIP3    H140907  -0.013   3.961  16.303  1.6948  0.5590 -0.6467
 6472TIP3    H240908  -0.018   3.826  16.371 -0.2087  1.0980  0.3440
 6473TIP3   OH240909   2.423   6.099   4.340  0.2464  0.1170 -0.4422
 6473TIP3    H140910   2.457   6.177   4.384 -0.8067  1.1524 -1.3863
 6473TIP3    H240911   2.441   6.115   4.247 -0.3245 -0.5953 -0.6784
 6474TIP3   OH240912   0.516   1.959  11.110 -0.0999 -0.4403 -0.5570
 6474TIP3    H140913   0.500   2.044  11.151  0.8411  0.0700 -1.2084
 6474TIP3    H240914   0.602   1.968  11.067 -0.0620 -1.6574 -0.7896
 6475TIP3   OH240915   4.913   3.240  16.889 -0.2783  0.0637  0.4277
 6475TIP3    H140916   4.828   3.242  16.932 -1.3252 -1.2486 -1.4820
 6475TIP3    H240917   4.903   3.298  16.813  0.7596  0.4458  0.5686
 6476TIP3   OH240918   0.451   0.577  10.756 -0.0134 -0.4532  0.0269
 6476TIP3    H140919   0.387   0.545  10.692 -0.1893 -0.3479  0.1492
 6476TIP3    H240920   0.442   0.517  10.830 -0.7458  0.2065  0.4887
 6477TIP3   OH240921   5.385   4.751  15.272  0.0984 -0.4807 -0.2612
 6477TIP3    H140922   5.388   4.659  15.299 -0.5796 -0.5343 -0.3543
 6477TIP3    H240923   5.477   4.779  15.272  0.1820 -0.5009  2.0036
 6478TIP3   OH240924   1.305   2.120   0.918 -0.3050 -0.1496 -0.2047
 6478TIP3    H140925   1.253   2.198   0.937  1.1290  0.3889  1.8603
 6478TIP3    H240926   1.387   2.134   0.964  1.0748 -1.6918 -2.0364
 6479TIP3   OH240927   2.697   4.890   2.450  0.2375  0.1219 -0.3000
 6479TIP3    H140928   2.700   4.838   2.369 -0.6305  1.7189 -1.4077
 6479TIP3    H240929   2.719   4.827   2.519  1.2082 -1.2563 -1.7776
 6480TIP3   OH240930   3.793   6.459   4.270  0.1556  0.9169 -0.1093
 6480TIP3    H140931   3.777   6.385   4.329 -0.3347 -0.0325 -1.4002
 6480TIP3    H240932   3.708   6.477   4.231  0.4237  1.7155 -0.3500
 6481TIP3   OH240933   2.955   5.689  11.382 -0.2647 -0.0551 -0.2318
 6481TIP3    H140934   2.982   5.773  11.345 -0.8701  0.0465 -0.4501
 6481TIP3    H240935   3.013   5.677  11.458  0.1722  0.3066 -0.5022
 6482TIP3   OH240936   5.328   2.292   3.773 -0.1763  0.1887 -0.0983
 6482TIP3    H140937   5.386   2.238   3.826  1.4125  3.2236  1.5297
 6482TIP3    H240938   5.371   2.296   3.687 -0.7405 -1.6321 -0.5141
 6483TIP3   OH240939   5.458   6.396   5.006  0.4844  1.0689 -0.1935
 6483TIP3    H140940   5.550   6.393   4.980  0.1786 -1.1825 -1.2741
 6483TIP3    H240941   5.444   6.314   5.053 -0.5912  2.1483  1.4611
 6484TIP3   OH240942   3.138   4.902  11.109  0.6213 -1.0308 -0.8147
 6484TIP3    H140943   3.134   4.815  11.149  0.6320  0.1437  2.0241
 6484TIP3    H240944   3.115   4.962  11.181 -0.2456  1.2670 -2.8805
 6485TIP3   OH240945   5.716   1.231  13.053 -0.3308 -0.2971  0.7390
 6485TIP3    H140946   5.748   1.260  13.139 -2.1897  0.0314  1.3711
 6485TIP3    H240947   5.643   1.290  13.034 -3.1797 -3.3430  1.2704
 6486TIP3   OH240948   5.361   2.272   5.729 -0.3899 -0.3148  0.1172
 6486TIP3    H140949   5.398   2.336   5.668 -0.2834  0.1435  0.6548
 6486TIP3    H240950   5.330   2.201   5.673 -2.0900  0.9682 -0.6581
 6487TIP3   OH240951   2.931   3.918   2.711 -0.3245  0.5110  0.2965
 6487TIP3    H140952   3.014   3.892   2.752  0.8495  1.4060 -1.3960
 6487TIP3    H240953   2.884   3.835   2.697  0.2343 -0.0034  1.3294
 6488TIP3   OH240954   1.166   2.699   5.409  0.1128  0.1689 -0.0335
 6488TIP3    H140955   1.228   2.741   5.349 -1.9863  1.4569 -1.4149
 6488TIP3    H240956   1.191   2.607   5.408  0.8843  0.3536 -1.9936
 6489TIP3   OH240957   1.525   0.780   4.790 -0.2204  0.2283  0.1991
 6489TIP3    H140958   1.560   0.748   4.707 -0.2219 -2.9969  1.3246
 6489TIP3    H240959   1.569   0.727   4.856 -0.9299  2.0649  2.2410
 6490TIP3   OH240960   4.857   0.154  14.627  0.1127 -0.4678  0.0946
 6490TIP3    H140961   4.945   0.193  14.619 -0.4270  0.3788 -3.2916
 6490TIP3    H240962   4.861   0.075  14.572 -1.5063  0.2629 -1.1642
 6491TIP3   OH240963   1.696   1.063   1.032  0.1354  0.3423 -0.3078
 6491TIP3    H140964   1.641   0.985   1.043 -0.7855  1.1467  1.1895
 6491TIP3    H240965   1.639   1.135   1.056  1.0258  1.4837 -1.5128
 6492TIP3   OH240966   4.927   2.986  10.780 -0.2103  0.0708 -0.2713
 6492TIP3    H140967   5.014   2.968  10.816  0.5435 -0.7868 -2.3426
 6492TIP3    H240968   4.913   3.079  10.795  0.9964  0.1844  0.2392
 6493TIP3   OH240969   3.027   0.966   1.980  0.3544 -0.4406  0.4486
 6493TIP3    H140970   2.963   1.000   1.918  0.6485  0.9967  0.8898
 6493TIP3    H240971   2.994   0.993   2.065  0.4490 -1.5658  0.8500
 6494TIP3   OH240972   0.370   2.917   4.078  0.3089 -0.4192 -0.0160
 6494TIP3    H140973   0.296   2.967   4.041  1.9204  2.3457  0.1865
 6494TIP3    H240974   0.341   2.895   4.166 -0.3628  0.4994  0.0188
 6495TIP3   OH240975   0.602   0.617   1.034 -0.0199 -0.4801  0.3657
 6495TIP3    H140976   0.581   0.615   1.127 -2.7524 -0.0478 -0.1447
 6495TIP3    H240977   0.560   0.539   0.998 -1.5253  0.8105 -0.8702
 6496TIP3   OH240978   3.093   4.124   4.014 -0.1022  0.2543 -0.2532
 6496TIP3    H140979   3.029   4.189   3.985 -0.8956 -0.8908 -1.1825
 6496TIP3    H240980   3.128   4.087   3.933 -1.4129 -2.1247  0.1666
 6497TIP3   OH240981   4.741   0.599   5.126 -0.0752 -0.0840  0.0722
 6497TIP3    H140982   4.768   0.690   5.113  0.4611 -0.2817 -0.2328
 6497TIP3    H240983   4.813   0.547   5.089  1.5440 -0.7389  3.7043
 6498TIP3   OH240984   5.590   5.775  13.929  0.2998 -0.6431 -0.0464
 6498TIP3    H140985   5.658   5.841  13.913  0.0955  0.1557  2.0862
 6498TIP3    H240986   5.639   5.696  13.952  0.5233 -0.7334 -0.8073
 6499TIP3   OH240987   4.830   1.338  11.599 -0.6897 -0.8126  0.6105
 6499TIP3    H140988   4.795   1.332  11.510 -0.5829 -0.7336  0.5631
 6499TIP3    H240989   4.753   1.335  11.655 -0.8345  0.1518  0.4780
 6500TIP3   OH240990   4.805   6.028  11.493 -1.0481  0.1904 -0.7325
 6500TIP3    H140991   4.838   6.064  11.411 -1.1806 -0.2246 -0.9682
 6500TIP3    H240992   4.845   5.941  11.499 -0.5062  0.4726 -0.0286
 6501TIP3   OH240993   2.676   1.340   0.987 -0.1621 -0.2217 -0.1751
 6501TIP3    H140994   2.753   1.294   0.953  0.3749  0.7721 -0.3582
 6501TIP3    H240995   2.669   1.312   1.078  0.8530  0.2151  0.0515
 6502TIP3   OH240996   5.628   1.346  15.039 -0.5544 -0.1674 -0.6812
 6502TIP3    H140997   5.533   1.342  15.048 -0.4517 -0.4358  0.4727
 6502TIP3    H240998   5.656   1.408  15.107  0.3221 -2.4781  1.2262
 6503TIP3   OH240999   4.447   3.076   0.279 -0.4649 -0.7783  0.1602
 6503TIP3    H141000   4.498   3.000   0.308  1.5101  0.2895 -0.2681
 6503TIP3    H241001   4.430   3.059   0.186  0.2821 -0.5766 -0.0248
 6504TIP3   OH241002   4.741   6.249  12.230  0.3962  0.0365  0.0051
 6504TIP3    H141003   4.804   6.260  12.159 -1.4210  0.0097 -1.7313
 6504TIP3    H241004   4.770   6.309  12.298  2.1042  0.2287 -0.8448
 6505TIP3   OH241005   0.693   2.264  12.334  0.3179  0.2797  0.3313
 6505TIP3    H141006   0.626   2.214  12.288  0.1241  0.1746  0.7212
 6505TIP3    H241007   0.748   2.198  12.376  0.1256  0.3847  0.7561
 6506TIP3   OH241008   5.218   0.824  15.788 -0.1288 -1.1118 -0.0871
 6506TIP3    H141009   5.132   0.827  15.832 -0.7924 -0.5000 -1.3586
 6506TIP3    H241010   5.233   0.915  15.761  0.6151 -1.3453 -0.4646
 6507TIP3   OH241011   0.189   1.041   4.786 -0.8038  0.0473  0.1444
 6507TIP3    H141012   0.202   1.117   4.729 -2.0472 -0.3030 -0.6702
 6507TIP3    H241013   0.160   0.972   4.726 -0.9863 -0.6805  1.0538
 6508TIP3   OH241014   4.051   2.348  15.185  0.0527  0.0200  0.4285
 6508TIP3    H141015   4.042   2.273  15.244  0.7166 -0.1943  0.2597
 6508TIP3    H241016   4.079   2.420  15.242  0.1437 -0.0445  0.4651
 6509TIP3   OH241017   3.862   2.397  15.970 -0.0212 -0.1715 -0.1899
 6509TIP3    H141018   3.810   2.424  16.045 -0.2676  0.8704 -0.7162
 6509TIP3    H241019   3.798   2.383  15.900  0.2087 -1.0894 -0.2312
 6510TIP3   OH241020   4.187   6.522  11.877  0.2703  0.0334 -0.5046
 6510TIP3    H141021   4.224   6.462  11.942 -0.6878  0.1358  0.1621
 6510TIP3    H241022   4.181   6.606  11.922 -1.2619 -0.1112 -0.3919
 6511TIP3   OH241023   4.671   1.951   1.379  0.3521 -0.4228  0.0557
 6511TIP3    H141024   4.659   2.010   1.305 -0.3784 -0.8653 -0.1945
 6511TIP3    H241025   4.609   1.981   1.445  1.9711  0.8444  1.0850
 6512TIP3   OH241026   6.135   1.683  15.277 -0.4223 -0.1730 -0.1034
 6512TIP3    H141027   6.184   1.755  15.317  1.8306 -1.9755  0.6208
 6512TIP3    H241028   6.187   1.659  15.200 -0.6887 -1.5345  0.1233
 6513TIP3   OH241029   2.600   4.831   5.254  0.3405  0.2507 -0.0036
 6513TIP3    H141030   2.584   4.816   5.347  1.1683  2.4461  0.5361
 6513TIP3    H241031   2.512   4.840   5.216  0.0276  0.6509  0.7976
 6514TIP3   OH241032   2.467   5.016  15.773  0.2632 -0.4680  0.3552
 6514TIP3    H141033   2.558   5.047  15.771  0.6638 -1.6182 -0.5412
 6514TIP3    H241034   2.426   5.056  15.697 -0.4510  1.2541  1.5611
 6515TIP3   OH241035   5.783   1.967   1.399  0.0498 -0.1235  0.5129
 6515TIP3    H141036   5.751   1.906   1.332 -1.2018 -0.4834  1.4002
 6515TIP3    H241037   5.765   1.923   1.482 -0.7471  1.3754  1.1714
 6516TIP3   OH241038   5.855   1.148   3.092  0.3199 -0.1180 -0.1358
 6516TIP3    H141039   5.948   1.171   3.095  0.1306  0.6053  0.4436
 6516TIP3    H241040   5.836   1.116   3.180  0.0736 -0.4855 -0.3225
 6517TIP3   OH241041   6.576   5.977  11.113 -0.3279  0.4835  0.6253
 6517TIP3    H141042   6.502   6.003  11.060 -2.3294 -1.3069  2.3552
 6517TIP3    H241043   6.619   6.059  11.136 -1.3673  1.5192 -0.9262
 6518TIP3   OH241044   3.409   0.074   4.166  0.3951  0.6402  0.2700
 6518TIP3    H141045   3.381  -0.015   4.145  0.4457  0.2974  1.5379
 6518TIP3    H241046   3.429   0.114   4.082  2.6243 -1.2937 -0.2272
 6519TIP3   OH241047   1.732   3.764   4.777  0.0435  0.4293  0.3132
 6519TIP3    H141048   1.761   3.712   4.702  0.7950  0.2092  0.7477
 6519TIP3    H241049   1.759   3.713   4.854 -0.6949  0.6631  0.7395
 6520TIP3   OH241050   0.828   1.768  11.930  0.3419 -0.0174 -0.8168
 6520TIP3    H141051   0.765   1.706  11.967  0.9901  0.3045  0.9393
 6520TIP3    H241052   0.810   1.768  11.836 -3.5459  1.4977 -0.2441
 6521TIP3   OH241053   5.941   2.545  15.985  0.0555  0.1641  0.0690
 6521TIP3    H141054   5.950   2.548  15.889 -1.0935  3.8860 -0.0741
 6521TIP3    H241055   5.884   2.619  16.006 -0.8283 -1.3187  3.5836
 6522TIP3   OH241056   3.148   0.722   5.505 -0.4038  0.9761 -0.3039
 6522TIP3    H141057   3.069   0.682   5.542  0.9683 -0.2996  1.4142
 6522TIP3    H241058   3.115   0.787   5.443 -2.7753 -0.2554 -0.4439
 6523TIP3   OH241059   0.560   6.063  13.986  0.5654 -0.0215 -0.2866
 6523TIP3    H141060   0.558   6.018  13.902 -0.0876  1.4687 -1.0883
 6523TIP3    H241061   0.578   5.993  14.049 -1.4689 -1.6281 -1.3555
 6524TIP3   OH241062   4.764   1.870   0.824 -0.5796  0.4387 -0.1893
 6524TIP3    H141063   4.745   1.916   0.742 -0.3531  0.1238 -0.4197
 6524TIP3    H241064   4.740   1.779   0.807 -1.0591  0.4725  0.2787
 6525TIP3   OH241065   3.093   2.806  12.485  0.6069 -0.7062 -0.1333
 6525TIP3    H141066   3.182   2.805  12.450  0.1867  1.5192 -1.4333
 6525TIP3    H241067   3.069   2.714  12.492  2.0150 -1.3220 -2.4368
 6526TIP3   OH241068   2.835   1.244   1.481  0.2545 -0.4400  0.0419
 6526TIP3    H141069   2.906   1.296   1.518 -0.2359 -0.7530  1.4908
 6526TIP3    H241070   2.794   1.301   1.416  1.0560  0.1943  0.0868
 6527TIP3   OH241071   5.867   6.769  17.008  0.2823  0.2602 -0.0074
 6527TIP3    H141072   5.895   6.752  16.918  0.7178 -0.6567  0.2825
 6527TIP3    H241073   5.808   6.844  17.001  2.0049  1.6247 -0.7820
 6528TIP3   OH241074   5.732   6.556   1.150 -0.0332  0.0735  0.2208
 6528TIP3    H141075   5.687   6.574   1.067 -2.3116  1.5551  1.6634
 6528TIP3    H241076   5.810   6.611   1.146 -2.2723  3.6457  0.6948
 6529TIP3   OH241077   5.698   0.835  15.593  0.6720 -0.1433 -0.2274
 6529TIP3    H141078   5.675   0.871  15.678 -0.7524  0.4743 -0.8375
 6529TIP3    H241079   5.783   0.875  15.572  0.7492  0.1629  0.6288
 6530TIP3   OH241080   0.876   3.957  14.572 -0.7890 -0.3506 -0.0703
 6530TIP3    H141081   0.836   3.912  14.498 -0.2168 -1.0658  0.0505
 6530TIP3    H241082   0.839   4.045  14.569 -0.2578 -0.1607 -1.6044
 6531TIP3   OH241083   3.656   5.935   3.237  0.1675 -0.2086  0.6145
 6531TIP3    H141084   3.598   5.950   3.162 -0.8864  0.0525  1.4516
 6531TIP3    H241085   3.708   5.859   3.211  1.5541  1.3098 -1.3461
 6532TIP3   OH241086   5.442   0.605  12.837 -0.2101  0.2511  0.6814
 6532TIP3    H141087   5.363   0.650  12.807 -1.0670 -1.6030 -0.0645
 6532TIP3    H241088   5.505   0.674  12.853 -0.9731  1.6352 -1.7241
 6533TIP3   OH241089   3.122   3.368  13.168  0.3626  0.0153 -0.3069
 6533TIP3    H141090   3.151   3.300  13.228  0.8615  0.0720 -0.4785
 6533TIP3    H241091   3.198   3.425  13.158 -0.1359  0.7625  0.0639
 6534TIP3   OH241092   4.328   2.556  16.789 -0.0403  0.3772  0.1325
 6534TIP3    H141093   4.370   2.586  16.869  1.9537 -1.8873  0.0502
 6534TIP3    H241094   4.285   2.474  16.813  0.9492 -0.5631 -1.1457
 6535TIP3   OH241095   6.435   0.845   3.568  0.2085  0.1725  0.1335
 6535TIP3    H141096   6.350   0.821   3.606 -0.5771  0.2465 -1.4941
 6535TIP3    H241097   6.483   0.884   3.641 -1.4323  0.8231  0.9218
 6536TIP3   OH241098   4.162   5.370   0.636 -0.0414  0.5973  0.1201
 6536TIP3    H141099   4.228   5.436   0.615  1.6088 -0.3459  2.0146
 6536TIP3    H241100   4.125   5.345   0.551  0.2296  2.9305 -0.7632
 6537TIP3   OH241101   6.567   2.899   3.757  0.1253  0.0362  0.4522
 6537TIP3    H141102   6.588   2.909   3.664  0.1958 -1.2611  0.3122
 6537TIP3    H241103   6.600   2.978   3.798 -1.5029  1.4848 -0.8891
 6538TIP3   OH241104   4.666   1.132   4.459 -0.3787  0.2956  0.3956
 6538TIP3    H141105   4.751   1.168   4.481 -0.5955 -0.2166  2.2543
 6538TIP3    H241106   4.669   1.042   4.492 -1.3595  0.0221 -0.2157
 6539TIP3   OH241107   1.564   0.436  11.549  0.0874 -0.2913  0.6946
 6539TIP3    H141108   1.537   0.346  11.531  0.4120 -0.1988 -0.3140
 6539TIP3    H241109   1.621   0.430  11.626  0.0533 -0.9356  0.6713
 6540TIP3   OH241110   4.617   3.004   2.597 -0.6130  0.7264 -0.1588
 6540TIP3    H141111   4.545   2.943   2.577 -0.7366  1.0680 -0.7684
 6540TIP3    H241112   4.685   2.948   2.635 -1.9990  0.6992  2.4903
 6541TIP3   OH241113   3.755   6.266  14.091  0.5276 -0.1558 -0.0136
 6541TIP3    H141114   3.668   6.304  14.081  0.1061 -1.1056  0.0341
 6541TIP3    H241115   3.747   6.176  14.060  1.9556  0.2855 -1.8815
 6542TIP3   OH241116   4.787   3.852  15.728  0.5013  0.6783  0.1437
 6542TIP3    H141117   4.772   3.909  15.803  0.7234 -0.2385  0.9038
 6542TIP3    H241118   4.877   3.872  15.701  0.9488 -0.0398  1.0644
 6543TIP3   OH241119   1.677   5.627  14.002 -0.2718 -0.3868  0.2917
 6543TIP3    H141120   1.584   5.627  13.977 -0.3116  3.0631 -0.0559
 6543TIP3    H241121   1.676   5.612  14.097 -1.2126 -0.1290  0.3306
 6544TIP3   OH241122   4.640   6.625   0.715 -0.0055  0.6373 -0.2252
 6544TIP3    H141123   4.703   6.571   0.667  1.7205  2.3842 -0.0521
 6544TIP3    H241124   4.651   6.599   0.807 -1.8607 -1.2667 -0.4662
 6545TIP3   OH241125   1.726   5.578  11.096  0.4649 -0.1664 -0.0422
 6545TIP3    H141126   1.638   5.582  11.058  0.1411  1.1206  0.7731
 6545TIP3    H241127   1.732   5.657  11.150  2.2319 -0.0747 -0.3072
 6546TIP3   OH241128   1.327   0.492  15.213  0.6364 -0.7041 -0.6738
 6546TIP3    H141129   1.334   0.485  15.308  0.3875 -1.2416 -0.6917
 6546TIP3    H241130   1.361   0.409  15.180  0.3714 -0.6681 -1.0426
 6547TIP3   OH241131   2.738   5.865   5.975 -0.1906  0.2214  0.1232
 6547TIP3    H141132   2.783   5.940   6.013  1.1614 -0.1410 -0.6788
 6547TIP3    H241133   2.772   5.789   6.022 -1.0046  0.0319  0.4307
 6548TIP3   OH241134   6.208   6.647   5.288  0.4333  0.0470 -0.8242
 6548TIP3    H141135   6.244   6.676   5.204 -0.1003  0.8515 -0.7882
 6548TIP3    H241136   6.114   6.636   5.271  0.0387  1.7460  0.0288
 6549TIP3   OH241137   3.843   2.536   6.071  0.2273 -0.0418  0.0839
 6549TIP3    H141138   3.804   2.520   6.158 -0.7962  1.2284 -0.1034
 6549TIP3    H241139   3.838   2.451   6.027  0.0807 -0.5295  1.0069
 6550TIP3   OH241140   3.708   3.638   3.176 -0.0266  0.2076  0.8822
 6550TIP3    H141141   3.746   3.708   3.124 -0.3580  1.4893  2.3117
 6550TIP3    H241142   3.782   3.599   3.222  0.4195 -1.5637 -1.1536
 6551TIP3   OH241143   6.306   4.659  12.985 -0.4663 -0.0119  0.2548
 6551TIP3    H141144   6.210   4.658  12.985 -0.4884  1.1992  0.5199
 6551TIP3    H241145   6.329   4.661  13.078 -0.1760 -0.2836  0.1894
 6552TIP3   OH241146   2.391   3.963  16.360 -0.0240  0.1529  0.5128
 6552TIP3    H141147   2.346   3.885  16.325  0.2587 -0.5337  1.6426
 6552TIP3    H241148   2.479   3.959  16.323  0.1915 -0.4271  1.0763
 6553TIP3   OH241149   2.764   6.567  15.051 -0.4703 -0.7534  0.8200
 6553TIP3    H141150   2.717   6.592  15.131 -1.0435  0.9723 -0.0228
 6553TIP3    H241151   2.795   6.478  15.069 -2.0990 -1.0772  2.2844
 6554TIP3   OH241152   2.236   3.205  11.693 -0.3240 -0.7122  0.0830
 6554TIP3    H141153   2.257   3.223  11.784 -0.5468 -1.0454  0.2019
 6554TIP3    H241154   2.144   3.178  11.694 -1.0546  1.5942 -0.5492
 6555TIP3   OH241155   4.030   1.541  14.914 -0.2780  0.1697  0.1109
 6555TIP3    H141156   4.118   1.506  14.928 -0.9427 -0.8500  2.3062
 6555TIP3    H241157   4.034   1.584  14.829  2.4005  0.3777  0.2560
 6556TIP3   OH241158   4.741   2.441  10.478 -0.3785 -0.3703  0.4905
 6556TIP3    H141159   4.823   2.419  10.434 -1.0338  0.5590 -1.3033
 6556TIP3    H241160   4.742   2.536  10.484 -1.6596 -0.2897 -0.2686
 6557TIP3   OH241161   3.180   0.236  13.559  0.0254 -0.1612  0.4083
 6557TIP3    H141162   3.142   0.194  13.482  1.2608 -0.5567 -0.0225
 6557TIP3    H241163   3.110   0.291  13.593 -0.3076  0.7057 -1.5061
 6558TIP3   OH241164   3.664   1.467   0.470  0.5206  0.5846 -0.0152
 6558TIP3    H141165   3.653   1.473   0.376 -0.4342 -2.0750 -0.1330
 6558TIP3    H241166   3.575   1.467   0.506  0.8324  0.2998  0.7940
 6559TIP3   OH241167   3.593   0.831   5.871  0.4572  0.1508 -0.0308
 6559TIP3    H141168   3.572   0.890   5.798 -0.3452 -1.5079 -1.1942
 6559TIP3    H241169   3.595   0.744   5.832 -2.1864 -1.1121  2.2675
 6560TIP3   OH241170   0.337   6.787  12.827 -0.1152  0.5577 -0.5958
 6560TIP3    H141171   0.356   6.878  12.852  0.7775 -0.2064  1.7468
 6560TIP3    H241172   0.343   6.738  12.908 -0.4111 -1.6685 -1.8354
 6561TIP3   OH241173   5.905   0.937  13.704  0.2383  0.1568 -0.0459
 6561TIP3    H141174   5.958   0.877  13.756 -1.6259  1.0910  3.2523
 6561TIP3    H241175   5.962   1.012  13.687  0.8997 -0.1372  0.8150
 6562TIP3   OH241176   0.427   1.076   4.354  0.0070  0.1294  0.3841
 6562TIP3    H141177   0.467   1.156   4.320 -1.3475 -0.6879 -3.7013
 6562TIP3    H241178   0.497   1.010   4.348  0.2053  0.3066  0.7050
 6563TIP3   OH241179   1.850   5.319  12.145  0.3238 -0.7820 -0.0484
 6563TIP3    H141180   1.756   5.334  12.130  0.3086 -0.6971  0.1335
 6563TIP3    H241181   1.883   5.290  12.060  0.2703 -0.1196 -0.3025
 6564TIP3   OH241182   4.000   1.462   5.296  0.2830 -0.1626  0.4188
 6564TIP3    H141183   4.022   1.370   5.311  2.6105  0.4517  1.2556
 6564TIP3    H241184   4.034   1.480   5.208  0.9028  0.1572  0.7144
 6565TIP3   OH241185   4.262   0.077   3.990 -0.1091  0.1772 -0.4817
 6565TIP3    H141186   4.288   0.163   3.958  2.2835 -0.1854  0.3318
 6565TIP3    H241187   4.183   0.093   4.041  1.6059  2.3656  1.7377
 6566TIP3   OH241188   3.123   5.793   0.006 -0.1648 -0.2048 -0.5500
 6566TIP3    H141189   3.172   5.713  -0.012  0.8846  0.1736  0.4675
 6566TIP3    H241190   3.141   5.811   0.099 -3.5071 -0.9065  0.3398
 6567TIP3   OH241191   6.559   3.905   5.380 -0.0418 -0.3622 -0.4172
 6567TIP3    H141192   6.554   3.937   5.470  2.4325 -2.3287  0.5265
 6567TIP3    H241193   6.495   3.834   5.376  1.0101 -1.3815  0.3469
 6568TIP3   OH241194   5.612   0.026  11.132  0.0663  0.0089 -0.1242
 6568TIP3    H141195   5.673  -0.029  11.084 -0.6620 -2.0180  1.1538
 6568TIP3    H241196   5.532   0.026  11.080  0.2143  0.2755 -0.3566
 6569TIP3   OH241197   0.044   4.454  14.362 -0.1547 -0.0619  0.2087
 6569TIP3    H141198   0.107   4.463  14.433  1.0642  0.6745 -0.9306
 6569TIP3    H241199   0.014   4.363  14.367  1.3894 -0.5710  0.4486
 6570TIP3   OH241200   1.298   3.734   2.218 -0.2270 -0.5752 -0.5378
 6570TIP3    H141201   1.235   3.804   2.238  1.0844  0.4024  0.3486
 6570TIP3    H241202   1.249   3.653   2.233 -1.7048  0.1224 -1.3271
 6571TIP3   OH241203   0.045   1.815  14.299 -0.3177  0.1863 -0.5839
 6571TIP3    H141204   0.052   1.884  14.233 -0.5563 -0.6104 -1.4717
 6571TIP3    H241205   0.128   1.818  14.346 -0.4104  1.2174 -0.4625
 6572TIP3   OH241206   2.462   0.829   1.820  0.3722  0.2491 -0.4036
 6572TIP3    H141207   2.419   0.744   1.832 -0.3614  0.6458 -0.1656
 6572TIP3    H241208   2.479   0.834   1.726  0.3239 -0.1144 -0.4340
 6573TIP3   OH241209   5.325   1.553  16.785  0.1694 -0.2555 -0.2062
 6573TIP3    H141210   5.278   1.470  16.773  0.4953 -0.7354  1.4910
 6573TIP3    H241211   5.256   1.619  16.788 -0.1691 -0.5769 -0.6512
 6574TIP3   OH241212   1.349   3.144  12.765  0.1778 -0.3146 -0.4592
 6574TIP3    H141213   1.303   3.228  12.758  1.3314  0.4198  0.2596
 6574TIP3    H241214   1.409   3.156  12.839  0.3225 -1.8076 -0.3068
 6575TIP3   OH241215   2.684   3.198  14.396 -0.3020  0.6061  0.2511
 6575TIP3    H141216   2.634   3.276  14.422  0.0595  0.9025  0.0722
 6575TIP3    H241217   2.703   3.212  14.303  0.2423  0.5716  0.3512
 6576TIP3   OH241218   6.012   3.562   3.287 -0.4583  0.2045  0.4302
 6576TIP3    H141219   5.922   3.531   3.297 -0.2899 -0.7541 -0.7699
 6576TIP3    H241220   6.057   3.491   3.241  0.8551  0.7686  0.7924
 6577TIP3   OH241221   0.715   5.123   5.672 -0.2075 -0.1284  0.3761
 6577TIP3    H141222   0.711   5.028   5.661  1.3960 -0.3935  1.6749
 6577TIP3    H241223   0.658   5.157   5.604  1.1938 -1.9113 -1.8400
 6578TIP3   OH241224   6.438   6.344   3.084  0.4793 -0.2416 -0.0014
 6578TIP3    H141225   6.347   6.365   3.063 -0.1201 -1.4547  1.2577
 6578TIP3    H241226   6.468   6.417   3.138 -0.0200 -0.2403  0.2789
 6579TIP3   OH241227   6.770   2.487   2.673 -0.1882 -0.1844 -0.2031
 6579TIP3    H141228   6.845   2.533   2.710  0.0511 -0.2694 -0.5730
 6579TIP3    H241229   6.779   2.397   2.704  0.1678 -0.3194 -0.6982
 6580TIP3   OH241230   4.938   4.786   0.965  0.0359  0.5561 -0.0646
 6580TIP3    H141231   4.887   4.710   0.991 -0.0316  0.3273 -0.8454
 6580TIP3    H241232   4.977   4.762   0.882  0.7538  1.0410  0.1226
 6581TIP3   OH241233   0.153   2.496  15.185 -0.2419  0.2329 -0.3706
 6581TIP3    H141234   0.216   2.568  15.186  0.1831 -0.1385  0.5742
 6581TIP3    H241235   0.194   2.429  15.130 -0.2154  0.3369 -0.4784
 6582TIP3   OH241236   5.224   5.804  12.572  0.1485 -0.6990 -0.1179
 6582TIP3    H141237   5.238   5.727  12.626 -0.4309 -1.1206 -0.5551
 6582TIP3    H241238   5.290   5.867  12.602  0.1817 -1.1136  0.7059
 6583TIP3   OH241239   6.042   1.857  17.195 -0.3759 -0.0112  0.2028
 6583TIP3    H141240   6.095   1.841  17.273 -0.2421  0.3973  0.2037
 6583TIP3    H241241   6.101   1.839  17.122 -0.2594  0.3553  0.2026
 6584TIP3   OH241242   4.006   0.722  15.725  0.0317 -0.1381 -0.8833
 6584TIP3    H141243   3.952   0.665  15.780 -0.3912  0.6910 -0.4320
 6584TIP3    H241244   4.074   0.664  15.690  0.2777 -0.6940  0.4655
 6585TIP3   OH241245   1.048   2.467  15.295  0.2359  0.3606  0.1529
 6585TIP3    H141246   1.064   2.554  15.330 -2.0337  0.6372  0.6777
 6585TIP3    H241247   1.131   2.420  15.307  1.9105  2.7614 -1.3440
 6586TIP3   OH241248   0.381   2.441  11.987 -0.4394 -0.0558 -0.0663
 6586TIP3    H141249   0.368   2.349  11.964  0.4288  0.3379 -2.3675
 6586TIP3    H241250   0.306   2.462  12.042  0.0482 -2.4715  1.6981
 6587TIP3   OH241251   5.030   6.563  16.385  0.1845  0.3728 -0.3090
 6587TIP3    H141252   5.020   6.640  16.442 -0.0925  0.1544 -0.0543
 6587TIP3    H241253   5.124   6.547  16.382  0.4117  1.7349 -1.7444
 6588TIP3   OH241254   2.523   3.917  11.087 -0.4471 -0.1361  0.2213
 6588TIP3    H141255   2.490   3.849  11.029  0.8090 -1.3476  0.8652
 6588TIP3    H241256   2.613   3.933  11.057 -0.5704  0.9181  0.3681
 6589TIP3   OH241257   2.799   2.081  16.404 -0.2780 -0.1306  0.3916
 6589TIP3    H141258   2.801   1.986  16.392  1.7872  0.1114 -1.8683
 6589TIP3    H241259   2.849   2.095  16.485 -0.2436 -0.9301  0.5196
 6590TIP3   OH241260   1.493   2.980  15.582  0.0567 -0.2633 -0.0337
 6590TIP3    H141261   1.446   2.905  15.545  1.0628 -0.8402 -0.2024
 6590TIP3    H241262   1.576   2.943  15.612  1.9490  1.2466 -2.9199
 6591TIP3   OH241263   1.636   3.964  12.998  0.4049 -1.1236 -0.8995
 6591TIP3    H141264   1.571   4.012  12.947 -1.1592 -1.4164  0.7120
 6591TIP3    H241265   1.707   4.026  13.011 -0.3701 -0.1598 -1.1492
 6592TIP3   OH241266   2.750   6.826   1.494 -0.1856 -0.0177  0.1738
 6592TIP3    H141267   2.786   6.877   1.565 -0.3581  1.4053 -0.7205
 6592TIP3    H241268   2.777   6.872   1.414 -1.5048 -0.5436 -0.6151
 6593TIP3   OH241269   2.657   4.368   0.963 -0.1400  0.7612  0.1896
 6593TIP3    H141270   2.649   4.428   0.889 -0.2541  1.0389  0.4206
 6593TIP3    H241271   2.570   4.368   1.003  0.1099  1.1948  0.7533
 6594TIP3   OH241272   0.768   3.198  16.491 -0.3937 -1.0260  0.0036
 6594TIP3    H141273   0.710   3.275  16.492  0.6984 -0.1891  0.8415
 6594TIP3    H241274   0.718   3.132  16.442 -1.5641  0.0430 -0.3155
 6595TIP3   OH241275   4.344   0.322   3.946 -0.4089  0.3476 -0.2480
 6595TIP3    H141276   4.424   0.356   3.988 -0.7024 -0.1217  0.7219
 6595TIP3    H241277   4.333   0.376   3.868  0.1826  1.2258  0.2617
 6596TIP3   OH241278   3.995   6.514   3.301 -0.3431 -0.0584 -0.3396
 6596TIP3    H141279   3.968   6.422   3.303 -1.0095  0.1173 -0.8787
 6596TIP3    H241280   3.936   6.555   3.238  0.2489  0.6492 -0.4472
 6597TIP3   OH241281   4.597   5.243   4.214 -0.2844 -0.2595  0.1992
 6597TIP3    H141282   4.519   5.280   4.255 -0.3152  1.6989 -1.4495
 6597TIP3    H241283   4.650   5.319   4.189  0.8442 -1.4290 -1.1999
 6598TIP3   OH241284   0.004   2.821  15.114  0.0788 -0.2248 -0.0916
 6598TIP3    H141285   0.010   2.729  15.088 -1.1191 -0.8473  1.6332
 6598TIP3    H241286   0.094   2.853  15.111  0.6606 -1.7601  0.2954
 6599TIP3   OH241287   1.553   0.902   5.360 -0.0419 -0.1808  0.1665
 6599TIP3    H141288   1.617   0.968   5.334 -2.3456  2.1792  0.0305
 6599TIP3    H241289   1.582   0.873   5.446  0.7817  1.4194  0.4711
 6600TIP3   OH241290   0.919   5.199  13.613  0.3355 -0.3175 -0.3135
 6600TIP3    H141291   0.966   5.120  13.641  1.2930  0.0999 -0.7066
 6600TIP3    H241292   0.949   5.214  13.523  0.2326  0.5338 -0.2154
 6601TIP3   OH241293   5.550   5.552  12.880 -0.0616 -0.2223 -0.1404
 6601TIP3    H141294   5.594   5.475  12.915 -1.5445 -1.3865 -0.7599
 6601TIP3    H241295   5.501   5.587  12.954  0.1126 -0.2358 -0.0177
 6602TIP3   OH241296   2.399   5.715  15.944 -0.2097  0.1759  0.1140
 6602TIP3    H141297   2.329   5.770  15.979  0.4341  1.2125 -0.1904
 6602TIP3    H241298   2.420   5.655  16.015  0.7239  1.9005  1.3560
 6603TIP3   OH241299   6.823   1.626   0.249 -0.1309  0.2106 -0.2766
 6603TIP3    H141300   6.841   1.700   0.192 -1.0815  0.2283 -0.5571
 6603TIP3    H241301   6.895   1.565   0.232 -0.3007  0.2964 -1.3478
 6604TIP3   OH241302   1.004   0.406  15.146 -0.1459 -0.7966  1.1142
 6604TIP3    H141303   0.947   0.415  15.069  0.0580  0.0420  1.0505
 6604TIP3    H241304   0.968   0.468  15.209  0.2585 -0.7983  1.3467
 6605TIP3   OH241305   3.951   5.646  13.976  0.1137  0.0732 -0.3845
 6605TIP3    H141306   3.971   5.707  14.047 -2.3050  2.2027 -1.3633
 6605TIP3    H241307   3.906   5.573  14.019  1.6641 -0.3249  0.6286
 6606TIP3   OH241308   1.637   3.161   4.531  0.3901  0.2990  0.3969
 6606TIP3    H141309   1.712   3.164   4.471  0.9000  1.0190  1.0418
 6606TIP3    H241310   1.583   3.089   4.499  1.5533 -0.4830  0.1488
 6607TIP3   OH241311   1.002   1.213  11.781  0.1125 -0.2258  0.0462
 6607TIP3    H141312   1.046   1.247  11.703 -0.7165 -1.6265 -1.0791
 6607TIP3    H241313   0.909   1.217  11.759 -0.1839  0.0602  1.2872
 6608TIP3   OH241314   3.487   3.144  16.139 -0.4978 -0.4215 -0.0696
 6608TIP3    H141315   3.436   3.204  16.085 -0.2248  0.3168  0.4798
 6608TIP3    H241316   3.452   3.156  16.227  0.2105 -0.3487  0.2089
 6609TIP3   OH241317   5.805   0.503  12.943 -0.0620  0.0866 -0.7690
 6609TIP3    H141318   5.894   0.515  12.912  0.5580  2.6599  1.6615
 6609TIP3    H241319   5.750   0.542  12.875  0.6250 -1.0639 -2.0389
 6610TIP3   OH241320   3.394   2.485  13.525 -0.7645  0.5379  0.8778
 6610TIP3    H141321   3.354   2.437  13.453 -0.4214  0.9527  0.3949
 6610TIP3    H241322   3.461   2.426  13.560 -0.2118  0.7193  0.1612
 6611TIP3   OH241323   6.593   6.765   5.214  0.7154  0.6157  0.4234
 6611TIP3    H141324   6.673   6.794   5.170 -0.2391  1.1636 -1.0481
 6611TIP3    H241325   6.579   6.830   5.283 -0.2198  2.5500 -1.4516
 6612TIP3   OH241326   0.726   0.097  13.933 -0.0505 -0.5024 -0.2435
 6612TIP3    H141327   0.764   0.021  13.889 -0.2632 -1.5591  1.3284
 6612TIP3    H241328   0.797   0.133  13.986 -0.1650 -0.0874 -0.3679
 6613TIP3   OH241329   4.774   4.278  15.825 -0.9730  0.1769 -0.8072
 6613TIP3    H141330   4.837   4.309  15.890  0.8013 -0.1235 -2.2792
 6613TIP3    H241331   4.823   4.280  15.742 -2.5274 -1.2815 -1.8225
 6614TIP3   OH241332   6.059   6.643   3.105 -0.3731 -0.2506  0.0080
 6614TIP3    H141333   6.065   6.558   3.063  1.4223  0.9802 -2.4959
 6614TIP3    H241334   6.131   6.644   3.168  1.0319  0.1190 -1.5248
 6615TIP3   OH241335   4.796   4.853  13.467 -0.4139 -0.1604 -0.1173
 6615TIP3    H141336   4.713   4.853  13.419 -0.2369  1.1839 -0.4832
 6615TIP3    H241337   4.843   4.777  13.434 -1.1893 -0.5041 -0.4637
 6616TIP3   OH241338   4.177   6.634  13.376 -0.3847 -0.4031 -0.3547
 6616TIP3    H141339   4.253   6.643  13.434 -0.0420  0.6634 -0.9369
 6616TIP3    H241340   4.192   6.552  13.328  0.4556 -0.1522 -0.5320
 6617TIP3   OH241341   1.894   2.210  16.632  0.8681 -0.1591  0.2094
 6617TIP3    H141342   1.881   2.115  16.623  1.9274 -0.2132 -1.0941
 6617TIP3    H241343   1.847   2.247  16.558  0.7961  0.3194  0.4925
 6618TIP3   OH241344   3.456   1.893   0.806 -0.0618 -0.8667  0.7010
 6618TIP3    H141345   3.476   1.882   0.899  0.0759 -0.3740  0.7324
 6618TIP3    H241346   3.375   1.944   0.805 -0.1117 -0.9483  0.5501
 6619TIP3   OH241347   2.819   1.067   5.346  0.2152 -1.1056  1.0553
 6619TIP3    H141348   2.910   1.076   5.320  0.4672 -2.8857  1.1775
 6619TIP3    H241349   2.775   1.143   5.309  1.4271 -1.1276 -0.5316
 6620TIP3   OH241350   4.064   6.277  14.369 -0.0634 -0.6291  0.6741
 6620TIP3    H141351   4.037   6.334  14.441  0.2344  0.6887 -0.2109
 6620TIP3    H241352   4.146   6.316  14.337  0.2090 -1.6236  0.0956
 6621TIP3   OH241353   0.112   6.002  11.919  0.1844 -0.0917  0.2200
 6621TIP3    H141354   0.153   6.087  11.935  0.4821 -0.0205 -0.8399
 6621TIP3    H241355   0.019   6.017  11.938  0.3191  0.3110  0.5916
 6622TIP3   OH241356   0.486   2.414   3.087 -0.3171  0.1260 -0.5836
 6622TIP3    H141357   0.565   2.433   3.037  0.8522 -0.3244  1.0286
 6622TIP3    H241358   0.472   2.493   3.140  0.9566 -0.9775  1.5068
 6623TIP3   OH241359   0.168   3.464  13.668  0.3849  0.1036 -0.3653
 6623TIP3    H141360   0.187   3.557  13.674 -0.3276  0.2444 -0.1273
 6623TIP3    H241361   0.218   3.433  13.592 -0.8221  1.0576 -1.5939
 6624TIP3   OH241362   1.567   3.923   4.940 -0.1233 -0.1427  0.4057
 6624TIP3    H141363   1.582   3.867   4.864 -0.1725  1.7047 -1.0262
 6624TIP3    H241364   1.644   3.909   4.995  0.2707 -0.9680 -0.3214
 6625TIP3   OH241365   4.187   5.645  15.640 -0.1521 -0.1611  0.4150
 6625TIP3    H141366   4.135   5.608  15.711 -1.2582 -0.2786 -0.4376
 6625TIP3    H241367   4.126   5.652  15.566  0.9374  0.0863 -0.4848
 6626TIP3   OH241368   0.986   5.898  15.804 -0.0565 -0.0009  0.2053
 6626TIP3    H141369   0.984   5.979  15.854  1.0457  0.0260  0.2249
 6626TIP3    H241370   0.949   5.832  15.864  0.0275  0.2809  0.5690
 6627TIP3   OH241371   2.056   4.122  11.987 -0.1326 -0.5259  0.2331
 6627TIP3    H141372   1.963   4.098  11.983 -0.2000 -0.1814 -0.4341
 6627TIP3    H241373   2.057   4.215  12.009 -0.0005 -0.1839 -1.1388
 6628TIP3   OH241374   6.762   4.011  14.277  0.1906  0.5650  0.2855
 6628TIP3    H141375   6.715   4.030  14.195  0.5094  1.1318  0.2279
 6628TIP3    H241376   6.751   4.091  14.329  0.2853  0.3351  0.6558
 6629TIP3   OH241377   2.151   4.874  15.893  0.1249 -0.3455 -0.3050
 6629TIP3    H141378   2.205   4.821  15.834  1.1885 -1.8829  1.8506
 6629TIP3    H241379   2.205   4.951  15.912  0.1203 -0.2365 -0.7384
 6630TIP3   OH241380   4.577   4.344   3.839 -0.4395  0.5036 -0.4101
 6630TIP3    H141381   4.596   4.370   3.929  0.5203 -0.5737 -0.2709
 6630TIP3    H241382   4.603   4.420   3.786  2.4128 -0.0865 -0.0316
 6631TIP3   OH241383   3.218   5.725   3.994 -0.1815  0.2879 -0.4632
 6631TIP3    H141384   3.196   5.747   3.903  0.0082  0.4585 -0.4673
 6631TIP3    H241385   3.267   5.643   3.988 -0.8649 -0.1311 -0.4508
 6632TIP3   OH241386   1.895   0.032   0.459  0.3264 -0.6185  0.1852
 6632TIP3    H141387   1.989   0.049   0.460 -0.0892  2.6746  3.3339
 6632TIP3    H241388   1.876   0.002   0.548 -1.6834 -0.9620 -0.3225
 6633TIP3   OH241389   4.625   1.359   5.907 -0.8384 -0.0308  0.3434
 6633TIP3    H141390   4.624   1.322   5.995  0.1427 -1.0394 -0.0444
 6633TIP3    H241391   4.615   1.283   5.849  1.5691  0.2162 -0.4923
 6634TIP3   OH241392   3.003   1.547  15.428  0.2442  0.0923  0.1233
 6634TIP3    H141393   2.982   1.585  15.513  0.5498 -0.1836  0.3266
 6634TIP3    H241394   2.961   1.605  15.365  1.5176  1.3425  0.3753
 6635TIP3   OH241395   0.990   2.688  14.677 -0.1554 -0.2904  0.1574
 6635TIP3    H141396   1.060   2.715  14.618 -0.5421  0.1121 -0.1280
 6635TIP3    H241397   1.009   2.735  14.759 -0.5538  0.4907 -0.1859
 6636TIP3   OH241398   3.854   5.713  15.679 -1.1135 -0.1174 -0.6168
 6636TIP3    H141399   3.827   5.804  15.693 -0.5672 -0.0495  0.0385
 6636TIP3    H241400   3.864   5.677  15.767  0.5537 -0.2444 -0.8243
 6637TIP3   OH241401   5.223   3.194   6.162  0.0399 -0.1621 -0.1840
 6637TIP3    H141402   5.195   3.286   6.159 -0.6058 -0.3742 -0.7594
 6637TIP3    H241403   5.232   3.176   6.256 -0.1765  0.3813 -0.0528
 6638TIP3   OH241404   4.003   6.185   6.022  0.4009  0.2069 -0.2724
 6638TIP3    H141405   3.976   6.095   6.004 -0.7479  0.8141 -1.7437
 6638TIP3    H241406   4.082   6.198   5.969 -0.6920  0.7296 -1.8243
 6639TIP3   OH241407   4.733   3.845   5.657  0.2119 -0.0637  0.0880
 6639TIP3    H141408   4.790   3.768   5.665  1.0577  0.4071 -1.0989
 6639TIP3    H241409   4.712   3.850   5.564 -0.2826  0.8279  0.2383
 6640TIP3   OH241410   6.503   1.847   2.388 -0.1992 -0.5180  0.0174
 6640TIP3    H141411   6.466   1.920   2.338  2.4871  0.7956 -0.2236
 6640TIP3    H241412   6.498   1.875   2.479 -0.5358 -0.7262  0.0670
 6641TIP3   OH241413   2.834   5.603  12.760  0.0348 -0.4508 -0.1057
 6641TIP3    H141414   2.819   5.597  12.666  0.6299 -2.3879 -0.1086
 6641TIP3    H241415   2.747   5.602  12.798 -0.1703 -1.6155 -0.5670
 6642TIP3   OH241416   3.386   3.071  14.496  0.5319 -0.1074  0.2894
 6642TIP3    H141417   3.320   3.064  14.427  2.0494 -0.0366 -1.2403
 6642TIP3    H241418   3.430   2.986  14.495 -0.8501 -0.9602  2.7771
 6643TIP3   OH241419   1.044   5.904   2.500  0.2299  0.3842 -0.8991
 6643TIP3    H141420   0.994   5.979   2.467 -0.4753  0.0532 -0.5987
 6643TIP3    H241421   0.994   5.827   2.473  0.6483  0.0382 -0.7086
 6644TIP3   OH241422   3.415   3.001  14.093  0.1012  0.1283 -0.1411
 6644TIP3    H141423   3.395   3.033  14.005 -1.7237  2.1317  0.9164
 6644TIP3    H241424   3.329   2.989  14.134  0.8091 -2.9464  0.7268
 6645TIP3   OH241425   0.370   6.716   2.817  0.1516 -0.0409  0.7053
 6645TIP3    H141426   0.385   6.656   2.744 -0.5990 -1.2207  1.4882
 6645TIP3    H241427   0.330   6.662   2.885 -0.8727  1.4272  1.3179
 6646TIP3   OH241428   6.734   0.147   6.077  0.0621 -0.3919  0.1468
 6646TIP3    H141429   6.813   0.116   6.121  1.3030  2.3491  0.0835
 6646TIP3    H241430   6.685   0.194   6.144  0.3416  1.0201 -0.5918
 6647TIP3   OH241431   5.601   1.536   1.788  0.0733 -0.1947  0.0585
 6647TIP3    H141432   5.522   1.549   1.735  0.2339  0.0881 -0.1172
 6647TIP3    H241433   5.661   1.488   1.730 -0.5440 -1.8283  0.7304
 6648TIP3   OH241434   3.525   3.583  14.759 -0.1934 -0.0542  0.2274
 6648TIP3    H141435   3.574   3.663  14.780  1.8471 -0.9919 -0.6950
 6648TIP3    H241436   3.558   3.556  14.673 -1.8093 -1.1811 -0.0821
 6649TIP3   OH241437   0.819   6.684   0.146  0.3442  0.0879  0.0371
 6649TIP3    H141438   0.877   6.634   0.203 -1.6100  0.1092  2.1998
 6649TIP3    H241439   0.867   6.765   0.128  2.3456 -1.2739 -1.1243
 6650TIP3   OH241440   3.842   0.031   0.419  0.3156  0.6059  0.3582
 6650TIP3    H141441   3.872  -0.060   0.418 -0.3496  0.3424 -1.8955
 6650TIP3    H241442   3.896   0.074   0.352 -0.6752  1.4003  0.0501
 6651TIP3   OH241443   5.041   0.915  13.007  0.6935 -0.0447  0.2112
 6651TIP3    H141444   5.085   1.000  13.012  1.4302 -0.2875 -1.4893
 6651TIP3    H241445   5.050   0.889  12.916  0.6216 -2.0458  0.7369
 6652TIP3   OH241446   4.800   0.692   1.926  0.0279 -0.0889 -0.3469
 6652TIP3    H141447   4.875   0.721   1.873  0.2745  0.1837  0.1384
 6652TIP3    H241448   4.727   0.689   1.865  0.2085  0.6554 -0.6144
 6653TIP3   OH241449   4.443   0.944   5.520  0.2710 -0.0881 -1.0250
 6653TIP3    H141450   4.468   0.885   5.592 -0.9931 -0.9143 -1.2275
 6653TIP3    H241451   4.388   0.889   5.463 -2.4451  1.7059 -0.3266
 6654TIP3   OH241452   3.935   4.756  13.019 -0.1291  0.1501  0.0312
 6654TIP3    H141453   4.020   4.774  13.060 -0.4216  1.2595  0.1777
 6654TIP3    H241454   3.927   4.822  12.951 -0.9753  0.2006  0.1737
 6655TIP3   OH241455   1.069   0.154  10.549  0.4977  0.1986 -0.0460
 6655TIP3    H141456   1.096   0.125  10.462 -0.1763 -2.6890  0.6084
 6655TIP3    H241457   1.027   0.238  10.535  1.1010  0.1589 -2.3916
 6656TIP3   OH241458   3.440   2.540   3.595  0.4430 -0.0730  0.2454
 6656TIP3    H141459   3.354   2.552   3.554  0.6640  0.7151 -0.0118
 6656TIP3    H241460   3.497   2.602   3.549  1.0356 -0.2296  0.7544
 6657TIP3   OH241461   1.592   4.654   4.150 -0.3485  0.0678 -0.0375
 6657TIP3    H141462   1.638   4.572   4.164 -1.1589 -1.1402 -3.3945
 6657TIP3    H241463   1.519   4.652   4.213  0.1441 -1.3596  0.5291
 6658TIP3   OH241464   5.804   1.409   1.614  0.1358  0.3246 -0.2930
 6658TIP3    H141465   5.856   1.432   1.537  1.4207 -0.5246  0.2951
 6658TIP3    H241466   5.868   1.385   1.681 -0.9887 -0.0505  0.6877
 6659TIP3   OH241467   2.905   3.730   3.957 -0.5710  0.0952 -0.5594
 6659TIP3    H141468   2.891   3.815   3.999  0.1416  0.3786 -0.8734
 6659TIP3    H241469   2.908   3.668   4.030  0.0601  0.5041 -0.2276
 6660TIP3   OH241470   1.430   4.195  16.612  0.0514 -0.1124 -0.8073
 6660TIP3    H141471   1.397   4.264  16.554  2.4965  1.1278 -0.8215
 6660TIP3    H241472   1.524   4.194  16.598  0.1205 -3.6381 -0.9379
 6661TIP3   OH241473   5.245   2.602  12.424  0.2160  0.3310 -0.1205
 6661TIP3    H141474   5.273   2.690  12.399  0.1253  1.0321  2.0187
 6661TIP3    H241475   5.324   2.549  12.419  0.1697  0.3662 -1.9272
 6662TIP3   OH241476   5.831   5.927   0.471  0.4390  0.0428 -0.5618
 6662TIP3    H141477   5.796   5.856   0.525 -0.3884 -0.8184 -2.1454
 6662TIP3    H241478   5.761   5.993   0.470 -0.3118 -0.7167 -1.9417
 6663TIP3   OH241479   1.684   6.364   5.928 -0.1498  0.4655  0.4694
 6663TIP3    H141480   1.730   6.283   5.910 -0.0799  0.7238 -0.5279
 6663TIP3    H241481   1.730   6.402   6.003 -0.3085 -0.4986  1.0694
 6664TIP3   OH241482   3.300   4.815  16.239  0.5002 -0.4685  0.3025
 6664TIP3    H141483   3.302   4.731  16.286 -0.3609 -0.1221  0.9921
 6664TIP3    H241484   3.273   4.878  16.306  0.2921  0.2163 -0.4254
 6665TIP3   OH241485   0.480   5.644  10.623 -0.5408 -0.0764 -0.3519
 6665TIP3    H141486   0.494   5.713  10.687 -0.3584  0.0094 -0.4830
 6665TIP3    H241487   0.441   5.572  10.673  0.5138 -0.3827  0.0587
 6666TIP3   OH241488   4.982   6.313  13.241 -0.0929 -0.2780  0.0560
 6666TIP3    H141489   4.925   6.287  13.313 -0.9612 -1.4526 -0.9984
 6666TIP3    H241490   5.031   6.234  13.219  0.8861  0.3359  0.0080
 6667TIP3   OH241491   5.145   5.619  13.638  0.0799 -0.3528 -0.2216
 6667TIP3    H141492   5.101   5.643  13.557  0.8400 -0.0889 -0.5696
 6667TIP3    H241493   5.080   5.634  13.707 -0.7807 -1.1884 -0.8318
 6668TIP3   OH241494   4.042   5.018  14.254 -0.3794 -0.7931  0.2928
 6668TIP3    H141495   4.072   5.037  14.343 -0.4969  1.6981 -0.1333
 6668TIP3    H241496   4.018   4.926  14.256 -0.1295 -0.8644  2.7670
 6669TIP3   OH241497   1.937   0.264  14.935 -0.5078 -0.2815 -0.2639
 6669TIP3    H141498   1.867   0.202  14.956 -0.0297 -1.0057 -0.7473
 6669TIP3    H241499   1.990   0.269  15.014 -1.2571  0.4768  0.1942
 6670TIP3   OH241500   6.400   3.230  10.793 -0.0105 -0.7377  0.5293
 6670TIP3    H141501   6.319   3.266  10.756  0.2689 -0.9862 -0.3398
 6670TIP3    H241502   6.393   3.136  10.778  0.5941 -0.7223  0.1410
 6671TIP3   OH241503   3.036   3.694  13.699  0.2069  0.4762 -0.0758
 6671TIP3    H141504   3.099   3.624  13.719  0.1087  0.6120  0.7456
 6671TIP3    H241505   3.074   3.772  13.738  0.1626  0.8246 -0.7234
 6672TIP3   OH241506   4.159   3.607   1.523  0.5787  0.0143  0.0540
 6672TIP3    H141507   4.227   3.641   1.465 -0.4762  0.4299 -0.9849
 6672TIP3    H241508   4.077   3.634   1.482 -0.2903 -2.3184  0.1110
 6673TIP3   OH241509   6.812   1.875   0.646 -0.7249 -0.0100 -0.2768
 6673TIP3    H141510   6.770   1.874   0.732 -0.0441 -0.4845  0.0692
 6673TIP3    H241511   6.742   1.853   0.585 -1.3398  0.8696  0.0868
 6674TIP3   OH241512   1.012   1.188   4.633 -0.0199  0.1387 -0.2069
 6674TIP3    H141513   1.060   1.181   4.550  2.1969 -0.5324  1.0277
 6674TIP3    H241514   1.074   1.154   4.699 -1.1978  1.7984  1.8892
 6675TIP3   OH241515   1.650   4.763  15.228  0.4323  0.4264 -0.1240
 6675TIP3    H141516   1.583   4.695  15.221  1.1789 -0.3533  0.1405
 6675TIP3    H241517   1.656   4.801  15.140  1.5268 -1.3408 -0.8632
 6676TIP3   OH241518   1.685   6.694   2.580  0.2361  0.5700  0.3888
 6676TIP3    H141519   1.648   6.732   2.500  0.8356 -0.9658 -0.6561
 6676TIP3    H241520   1.724   6.612   2.552 -1.6854 -1.2808  2.7091
 6677TIP3   OH241521   2.473   3.982   4.757 -0.0699 -0.3203 -0.0086
 6677TIP3    H141522   2.463   3.887   4.760 -0.8386 -0.2326  0.7418
 6677TIP3    H241523   2.433   4.012   4.838  1.1320  0.5687  0.2894
 6678TIP3   OH241524   3.861   2.194   5.279 -0.2830 -0.2895 -0.3218
 6678TIP3    H141525   3.893   2.261   5.340  0.0532 -0.4589 -0.3078
 6678TIP3    H241526   3.859   2.113   5.332  0.7192 -0.5933 -0.7241
 6679TIP3   OH241527   5.217   1.942  13.087 -0.1664 -0.4637 -0.3264
 6679TIP3    H141528   5.261   1.882  13.027 -0.6575 -1.8431  0.6286
 6679TIP3    H241529   5.136   1.896  13.111  0.6058 -0.6259  2.3983
 6680TIP3   OH241530   6.119   5.437  15.379 -0.2985 -0.1914  0.3685
 6680TIP3    H141531   6.085   5.524  15.357  0.4304  0.3641  1.3601
 6680TIP3    H241532   6.163   5.450  15.463  0.4003 -1.3843  0.1956
 6681TIP3   OH241533   5.734   4.628   3.043  0.2994 -0.2443  0.0077
 6681TIP3    H141534   5.729   4.641   2.949  0.4485  1.3751  0.2068
 6681TIP3    H241535   5.667   4.686   3.079  2.1920  1.3726  1.0580
 6682TIP3   OH241536   1.231   3.046   3.617  0.2706 -0.1700 -0.7369
 6682TIP3    H141537   1.139   3.045   3.645  0.7345 -0.2720  0.8876
 6682TIP3    H241538   1.254   3.139   3.616  0.5524 -0.2179  0.3237
 6683TIP3   OH241539   0.105   6.236   3.002 -0.0232 -0.1691  0.2648
 6683TIP3    H141540   0.057   6.314   3.029  0.4670  0.2244  0.0029
 6683TIP3    H241541   0.075   6.168   3.062 -1.3996 -0.0974 -0.3106
 6684TIP3   OH241542   3.381   4.686   5.399  0.1587  0.1182 -0.3054
 6684TIP3    H141543   3.362   4.687   5.305  0.8272 -1.1984 -0.4730
 6684TIP3    H241544   3.308   4.638   5.438 -0.6652  1.5644  0.0095
 6685TIP3   OH241545   5.004   6.396   3.363  0.4505 -0.0360 -0.5904
 6685TIP3    H141546   5.004   6.417   3.269  2.0360 -1.7548 -1.0286
 6685TIP3    H241547   4.914   6.411   3.391 -0.1101  0.2873 -2.4431
 6686TIP3   OH241548   3.884   3.350  17.040 -0.0176  0.3339  0.4337
 6686TIP3    H141549   3.979   3.361  17.047 -0.0139 -0.1320  1.3061
 6686TIP3    H241550   3.854   3.344  17.131 -0.7684 -0.3896  0.1532
 6687TIP3   OH241551   2.948   0.090  13.868  0.2666  0.0223 -0.0653
 6687TIP3    H141552   3.040   0.110  13.854  0.8841 -2.1287  0.4943
 6687TIP3    H241553   2.948   0.030  13.942 -1.6134  0.1060  0.0439
 6688TIP3   OH241554   6.331   6.298  12.804 -0.8397 -0.2884 -0.5911
 6688TIP3    H141555   6.358   6.367  12.744  0.1788 -1.5127 -1.6328
 6688TIP3    H241556   6.396   6.229  12.790 -0.4703 -0.5648  2.0647
 6689TIP3   OH241557   2.421   3.654  16.001 -1.1013 -0.8316  0.0184
 6689TIP3    H141558   2.399   3.684  15.913  0.2130  0.1536 -0.0060
 6689TIP3    H241559   2.402   3.560  16.000 -3.0558 -0.4776 -0.6540
 6690TIP3   OH241560   2.213   6.536   5.301 -0.0860  0.1950 -0.3548
 6690TIP3    H141561   2.257   6.573   5.378 -1.6146  0.4536  0.4258
 6690TIP3    H241562   2.198   6.612   5.244 -1.0814  0.4073  0.1745
 6691TIP3   OH241563   6.505   2.619  12.736  0.2300  0.1876 -0.3131
 6691TIP3    H141564   6.549   2.535  12.726  1.9569  1.0965 -0.7510
 6691TIP3    H241565   6.504   2.635  12.831  3.1713  1.2499 -0.3585
 6692TIP3   OH241566   5.394   1.227  14.726 -0.3904 -0.2332  0.0041
 6692TIP3    H141567   5.344   1.289  14.780  1.9112 -0.0285  2.0412
 6692TIP3    H241568   5.431   1.281  14.656 -1.6314 -0.1055 -0.5900
 6693TIP3   OH241569   1.359   3.294   0.914 -0.0474 -0.2194 -1.0910
 6693TIP3    H141570   1.356   3.265   0.822 -0.1296  0.8518 -1.4338
 6693TIP3    H241571   1.453   3.303   0.932 -0.0586  0.4384 -1.3514
 6694TIP3   OH241572   6.122   0.471  14.634 -0.5157  0.0299  0.0107
 6694TIP3    H141573   6.132   0.550  14.687  1.8119  0.0413 -0.3279
 6694TIP3    H241574   6.154   0.401  14.690  4.0416  0.3000 -1.8396
 6695TIP3   OH241575   4.451   2.454  16.017  0.1260  0.5935  0.0553
 6695TIP3    H141576   4.449   2.548  15.999  0.8309  0.8619  1.2153
 6695TIP3    H241577   4.542   2.429  16.004 -0.2533 -0.1586 -1.2400
 6696TIP3   OH241578   5.442   0.703   5.711  0.0103 -0.2428  0.1176
 6696TIP3    H141579   5.362   0.753   5.725 -0.3701 -0.5455 -0.8839
 6696TIP3    H241580   5.510   0.751   5.759 -0.6974  0.2037  0.6840
 6697TIP3   OH241581   1.265   2.004   3.760 -0.4435 -0.0951 -0.4787
 6697TIP3    H141582   1.189   1.966   3.802 -0.0971 -0.8370 -0.5026
 6697TIP3    H241583   1.231   2.079   3.711 -1.1244 -0.3188 -0.3554
 6698TIP3   OH241584   3.160   5.042   5.697  0.0538  0.1795  0.0998
 6698TIP3    H141585   3.159   4.968   5.636 -1.8540  1.5840 -1.6942
 6698TIP3    H241586   3.071   5.047   5.730  0.5190  0.8258  1.3249
 6699TIP3   OH241587   0.794   3.216  11.871  0.3139  0.2676 -0.2484
 6699TIP3    H141588   0.768   3.209  11.779 -0.0329  0.0965 -0.1393
 6699TIP3    H241589   0.713   3.199  11.919  0.7998 -1.1040  0.1236
 6700TIP3   OH241590   5.462   2.074  12.170  0.7952 -0.6459 -0.4341
 6700TIP3    H141591   5.531   2.129  12.207  1.8739 -2.4111  0.3192
 6700TIP3    H241592   5.507   1.993  12.145 -0.8427 -1.4761 -0.8252
 6701TIP3   OH241593   1.650   6.278   3.740 -0.0419 -0.1740  0.8808
 6701TIP3    H141594   1.563   6.313   3.718 -0.3153 -0.5599  1.3286
 6701TIP3    H241595   1.700   6.288   3.660  0.4423  2.8562  1.4187
 6702TIP3   OH241596   3.527   2.130   6.324 -0.5708 -0.0737 -0.5043
 6702TIP3    H141597   3.604   2.186   6.336  0.3271 -1.3507 -0.0519
 6702TIP3    H241598   3.541   2.087   6.240 -0.7102 -0.4289 -0.3488
 6703TIP3   OH241599   5.224   6.294  14.051  0.2290 -0.8787  0.1992
 6703TIP3    H141600   5.217   6.296  14.147 -0.7125 -0.8656  0.1349
 6703TIP3    H241601   5.225   6.201  14.030 -0.6887 -0.8893  0.1566
 6704TIP3   OH241602   3.785   3.730   3.661  0.1105  0.1830 -0.2936
 6704TIP3    H141603   3.807   3.795   3.728  0.6490 -0.1337 -0.1553
 6704TIP3    H241604   3.690   3.723   3.664  0.1439 -0.0178  0.6245
 6705TIP3   OH241605   3.170   1.669  14.928  0.6221 -0.2083  0.4381
 6705TIP3    H141606   3.158   1.577  14.950  1.3638 -0.4557 -0.1518
 6705TIP3    H241607   3.261   1.687  14.952  1.5783 -0.5649 -2.5640
 6706TIP3   OH241608   0.614   0.982  12.373 -0.1708 -0.0375  0.6904
 6706TIP3    H141609   0.525   0.959  12.346  0.1311 -0.0441 -0.3297
 6706TIP3    H241610   0.652   1.026  12.296  1.1494 -1.2113  0.6380
 6707TIP3   OH241611   3.397   2.534   1.217  0.4533  0.1315 -0.3843
 6707TIP3    H141612   3.385   2.623   1.184 -0.5098  0.2753  0.2782
 6707TIP3    H241613   3.366   2.477   1.146  1.1557  0.3112 -0.8424
 6708TIP3   OH241614   2.722   0.193   3.629  0.3053  0.2378 -0.0167
 6708TIP3    H141615   2.688   0.173   3.542 -1.9437  2.0220  0.3549
 6708TIP3    H241616   2.672   0.138   3.688  0.7908  0.1135  0.2875
 6709TIP3   OH241617   2.741   3.388   0.009 -0.0756  0.4978  0.2189
 6709TIP3    H141618   2.756   3.380  -0.085 -2.4711  2.0689 -0.4034
 6709TIP3    H241619   2.736   3.483   0.025 -1.0922  0.2516  1.6474
 6710TIP3   OH241620   5.118   3.123  14.870  0.3938 -0.2350 -0.4238
 6710TIP3    H141621   5.088   3.043  14.911 -2.4344  0.1496 -1.5331
 6710TIP3    H241622   5.116   3.104  14.776  1.4775  0.5927 -0.6403
 6711TIP3   OH241623   0.437   1.693  14.254  0.3128 -0.1411  0.5529
 6711TIP3    H141624   0.404   1.747  14.181 -0.5292 -0.9221  0.3451
 6711TIP3    H241625   0.475   1.757  14.314  0.4368  0.5830 -0.2607
 6712TIP3   OH241626   2.917   1.204   4.102 -0.5152  0.3249  0.5976
 6712TIP3    H141627   2.864   1.249   4.168  0.5157  2.0046  0.3276
 6712TIP3    H241628   3.007   1.227   4.123  0.0608 -1.4063  0.2443
 6713TIP3   OH241629   5.923   5.247  16.508 -0.2485  0.6657 -0.2192
 6713TIP3    H141630   5.909   5.173  16.448  2.3902 -0.3213  0.2470
 6713TIP3    H241631   5.972   5.311  16.456  0.6016  0.5147  0.3716
 6714TIP3   OH241632   0.141   1.980  12.384  0.3983  0.2508  0.1933
 6714TIP3    H141633   0.192   1.913  12.340  0.8751 -0.4845  1.7953
 6714TIP3    H241634   0.051   1.962  12.359  0.6654 -0.0491 -0.5819
 6715TIP3   OH241635   5.210   0.881  11.612  0.3617  0.1190 -0.5482
 6715TIP3    H141636   5.189   0.850  11.524  0.0710  0.7859 -0.7234
 6715TIP3    H241637   5.304   0.896  11.611  0.0785  2.1130 -1.4159
 6716TIP3   OH241638   2.472   0.706   2.399 -0.1918  0.5283 -0.4066
 6716TIP3    H141639   2.430   0.792   2.399 -0.6759  0.2976 -0.1768
 6716TIP3    H241640   2.400   0.644   2.385  0.0878  0.1294 -0.1118
 6717TIP3   OH241641   4.232   0.772   1.704 -0.7474 -0.3538  0.8108
 6717TIP3    H141642   4.303   0.831   1.678 -0.9760 -0.0503  0.8698
 6717TIP3    H241643   4.267   0.725   1.780 -0.5551 -0.3156  0.7470
 6718TIP3   OH241644   1.127   1.752  10.291  0.3579  0.0899 -0.4479
 6718TIP3    H141645   1.073   1.674  10.299  0.5009 -0.0531 -0.8759
 6718TIP3    H241646   1.070   1.816  10.247  0.1814  0.2878  0.0592
 6719TIP3   OH241647   6.351   4.757  11.800  0.1539  0.7363 -0.0520
 6719TIP3    H141648   6.431   4.777  11.752  1.1928  0.3812  1.4648
 6719TIP3    H241649   6.298   4.836  11.791  1.4372  1.6910  0.3780
 6720TIP3   OH241650   0.031   3.842  12.882  0.3511  0.3223  0.1323
 6720TIP3    H141651  -0.011   3.928  12.888 -2.1681 -0.4947 -2.7540
 6720TIP3    H241652   0.002   3.809  12.797  1.6651 -3.1750  0.9179
 6721TIP3   OH241653   5.124   0.142   1.694  0.6584  0.4010 -0.0995
 6721TIP3    H141654   5.160   0.065   1.649 -0.2648  0.2748 -0.6601
 6721TIP3    H241655   5.136   0.214   1.632 -1.6059  0.0208 -1.0847
 6722TIP3   OH241656   5.629   6.207  11.902  0.4417 -0.1256 -0.0875
 6722TIP3    H141657   5.626   6.241  11.992 -2.1424  1.4920 -0.6933
 6722TIP3    H241658   5.619   6.112  11.913 -0.4188  0.0882  1.3545
 6723TIP3   OH241659   2.786   5.861  12.587  0.0027  0.2535  0.2979
 6723TIP3    H141660   2.697   5.826  12.591  0.9262 -2.3080  0.2342
 6723TIP3    H241661   2.798   5.902  12.673 -1.1982  0.5944  0.3326
 6724TIP3   OH241662   6.002   5.313   4.457 -0.0773  0.7985  0.0929
 6724TIP3    H141663   5.912   5.280   4.462 -1.1503  3.5051  0.1981
 6724TIP3    H241664   6.044   5.258   4.390 -1.2103 -1.7013  1.3342
 6725TIP3   OH241665   1.707   5.215  15.768 -0.6987 -0.2199  1.1001
 6725TIP3    H141666   1.724   5.224  15.861  0.4585 -1.3563  1.0235
 6725TIP3    H241667   1.753   5.136  15.742 -3.1488 -1.4299  0.0839
 6726TIP3   OH241668   5.962   0.813   4.010  0.1426 -0.3218  0.5671
 6726TIP3    H141669   5.877   0.773   3.989 -0.4357  0.4005  1.4674
 6726TIP3    H241670   5.951   0.847   4.099  0.0680  3.2293 -0.6572
 6727TIP3   OH241671   0.664   0.103  14.615  0.0829  0.3495  0.4485
 6727TIP3    H141672   0.631   0.013  14.615  2.4253 -0.6048 -0.1269
 6727TIP3    H241673   0.636   0.139  14.698 -0.1831 -1.2347  1.0922
 6728TIP3   OH241674   6.703   0.872   5.707  0.1481  0.5585 -0.0653
 6728TIP3    H141675   6.667   0.878   5.796  0.9006  2.4401  0.1574
 6728TIP3    H241676   6.713   0.963   5.679  1.3873  0.0281 -1.4793
 6729TIP3   OH241677   1.787   2.501  15.876 -0.1638 -0.1843 -0.1859
 6729TIP3    H141678   1.720   2.470  15.815 -1.1467 -0.7772  1.1356
 6729TIP3    H241679   1.805   2.425  15.931  1.3827  0.0647 -0.3036
 6730TIP3   OH241680   3.389   4.396  15.182  0.5955 -0.2381  0.6911
 6730TIP3    H141681   3.481   4.387  15.154  0.6940 -1.1055  1.2447
 6730TIP3    H241682   3.386   4.355  15.268 -0.1474  0.5465  1.0543
 6731TIP3   OH241683   6.784   3.199   0.711 -0.3355  0.2103  0.1737
 6731TIP3    H141684   6.841   3.144   0.766 -0.7304  0.9970  1.3937
 6731TIP3    H241685   6.817   3.184   0.622  0.8405 -0.4795  0.6897
 6732TIP3   OH241686   5.625   2.457  13.497 -0.4861  0.0701  0.0117
 6732TIP3    H141687   5.558   2.399  13.532 -1.4643  1.8212  1.2042
 6732TIP3    H241688   5.702   2.441  13.553 -0.6408 -0.2774  0.1316
 6733TIP3   OH241689   1.941   1.305   6.676  0.3933 -0.3298 -0.2758
 6733TIP3    H141690   2.023   1.262   6.701  1.8795  1.8430 -1.1324
 6733TIP3    H241691   1.950   1.395   6.708 -2.8269 -0.6326  1.9402
 6734TIP3   OH241692   0.319   3.004   4.866 -0.6272  0.5105 -0.8396
 6734TIP3    H141693   0.293   2.936   4.805  1.7656  0.0033 -1.4092
 6734TIP3    H241694   0.379   2.960   4.927 -0.7639  1.6253  0.1328
 6735TIP3   OH241695   0.626   4.276   1.900  0.4515  0.3937  0.1010
 6735TIP3    H141696   0.701   4.329   1.929  0.0653  0.6345  0.6809
 6735TIP3    H241697   0.554   4.304   1.956 -0.3681  0.9595 -1.2007
 6736TIP3   OH241698   0.135   0.913   5.407 -0.1844  0.0654 -0.0013
 6736TIP3    H141699   0.134   0.907   5.312  0.5386  0.4100 -0.0362
 6736TIP3    H241700   0.084   0.992   5.427 -0.8543 -0.3446 -0.0660
 6737TIP3   OH241701   2.349   2.193   5.597 -0.5351  0.0323  0.1575
 6737TIP3    H141702   2.311   2.217   5.681 -0.5430 -0.0656  0.1825
 6737TIP3    H241703   2.400   2.114   5.616  1.0356  1.0841  0.4728
 6738TIP3   OH241704   5.127   1.503  14.360 -0.4335  0.2874 -0.3820
 6738TIP3    H141705   5.205   1.465  14.319 -0.3164 -0.4111  0.4557
 6738TIP3    H241706   5.121   1.591  14.323  0.8318  0.4039 -0.3611
 6739TIP3   OH241707   3.240   2.630   0.933  0.4693  0.1324 -0.4363
 6739TIP3    H141708   3.217   2.564   0.868  1.0308 -1.0644  0.5349
 6739TIP3    H241709   3.179   2.616   1.005 -0.0677  1.3611 -0.6436
 6740TIP3   OH241710   0.054   0.956   1.343  0.0119 -0.5557 -0.2188
 6740TIP3    H141711   0.100   0.876   1.367 -0.8317 -1.5937 -1.8636
 6740TIP3    H241712   0.065   0.963   1.248 -3.5418 -1.1430 -0.8175
 6741TIP3   OH241713   3.856   3.262   4.943 -0.0508 -0.1497  0.0594
 6741TIP3    H141714   3.798   3.205   4.892  0.3656 -1.6267  1.1694
 6741TIP3    H241715   3.820   3.350   4.930 -1.2537 -0.7570 -0.9909
 6742TIP3   OH241716   2.259   1.074  13.017  0.2567 -0.4123 -0.1804
 6742TIP3    H141717   2.312   1.001  13.048  1.8925  1.2400  1.0942
 6742TIP3    H241718   2.322   1.140  12.988 -1.1342  0.8689 -0.4574
 6743TIP3   OH241719   3.132   6.681  15.876 -0.7366  0.5177 -0.1311
 6743TIP3    H141720   3.085   6.663  15.794 -1.4216  1.2727  0.0843
 6743TIP3    H241721   3.136   6.597  15.920 -1.7980  0.4125 -0.2099
 6744TIP3   OH241722   5.191   2.043  11.175  0.1433  0.0575  0.3228
 6744TIP3    H141723   5.153   2.078  11.094 -0.6257 -0.0618  0.6197
 6744TIP3    H241724   5.115   2.017  11.228  0.6208  0.5422  1.2664
 6745TIP3   OH241725   6.431   3.778   4.795 -0.1120 -0.0675 -0.2232
 6745TIP3    H141726   6.457   3.790   4.886  2.0473  2.2335 -1.0388
 6745TIP3    H241727   6.448   3.685   4.777  0.9195 -0.2020  1.2782
 6746TIP3   OH241728   1.089   1.996  14.580 -0.1564  0.0380 -0.1937
 6746TIP3    H141729   1.069   2.089  14.590 -0.9771  0.1881 -2.4867
 6746TIP3    H241730   1.168   1.994  14.526 -0.2653 -0.5707 -0.3423
 6747TIP3   OH241731   1.770   3.266  14.151 -0.0561 -0.1724 -0.1347
 6747TIP3    H141732   1.740   3.272  14.242  3.6762  0.1373  1.2416
 6747TIP3    H241733   1.783   3.172  14.136  0.5905 -0.1428  0.1771
 6748TIP3   OH241734   6.663   0.719   3.435 -0.8476  0.3297  0.3316
 6748TIP3    H141735   6.748   0.763   3.429 -0.8629  0.2234 -1.0938
 6748TIP3    H241736   6.619   0.761   3.509 -0.0485  1.2687  0.2991
 6749TIP3   OH241737   1.846   2.458   0.546 -0.1846 -0.0370 -0.6451
 6749TIP3    H141738   1.922   2.405   0.519  0.4041  0.1429  0.5738
 6749TIP3    H241739   1.843   2.448   0.641 -1.9796 -0.3902 -0.7059
 6750TIP3   OH241740   0.646   4.090  11.542 -0.2316 -0.4205  0.6297
 6750TIP3    H141741   0.585   4.031  11.498  1.6814  0.4303 -3.6162
 6750TIP3    H241742   0.723   4.036  11.559  0.8103  0.2715 -1.5597
 6751TIP3   OH241743   4.880   4.922   3.343 -0.3034  0.2848 -0.4633
 6751TIP3    H141744   4.919   4.988   3.401 -0.9583  0.0978  0.2023
 6751TIP3    H241745   4.899   4.838   3.385 -0.1505  0.0930 -0.9054
 6752TIP3   OH241746   1.825   5.528  11.482  0.5066 -0.3160 -0.4087
 6752TIP3    H141747   1.899   5.549  11.425 -0.0049  3.1969 -0.0089
 6752TIP3    H241748   1.864   5.486  11.558  2.1193  1.3556 -0.2631
 6753TIP3   OH241749   2.283   1.794  12.490 -0.4555 -0.5443  0.4940
 6753TIP3    H141750   2.367   1.774  12.451 -1.1051 -1.6576 -0.3746
 6753TIP3    H241751   2.253   1.872  12.444 -0.7797 -1.2888 -0.5678
 6754TIP3   OH241752   2.397   1.259  10.812 -0.2377 -0.1573  0.1123
 6754TIP3    H141753   2.325   1.198  10.793 -1.2255  0.8060  0.6156
 6754TIP3    H241754   2.360   1.320  10.876  0.6809  1.0246 -0.4480
 6755TIP3   OH241755   5.407   6.729  14.898  0.0717  0.6618  0.2120
 6755TIP3    H141756   5.383   6.643  14.864  1.1620  1.4761 -2.9993
 6755TIP3    H241757   5.498   6.740  14.872  0.6228  1.9912  2.4527
 6756TIP3   OH241758   5.156   2.715  15.634 -0.0242 -0.1115 -0.4469
 6756TIP3    H141759   5.186   2.804  15.617  2.4064 -0.5890  0.8844
 6756TIP3    H241760   5.116   2.687  15.551  0.2005  1.7846 -1.2487
 6757TIP3   OH241761   3.048   3.271   1.155  0.2635  0.1160  0.5336
 6757TIP3    H141762   3.000   3.188   1.154  0.0630  0.1673 -2.7543
 6757TIP3    H241763   2.980   3.337   1.171 -0.1361 -0.1206 -0.1368
 6758TIP3   OH241764   1.816   4.126  14.927 -0.1367  0.1196  0.1972
 6758TIP3    H141765   1.749   4.099  14.990 -0.1965 -0.3420 -0.0626
 6758TIP3    H241766   1.865   4.194  14.973 -1.0735  0.7997  0.2169
 6759TIP3   OH241767   3.555   1.997  15.401  0.4254 -0.0075  0.4397
 6759TIP3    H141768   3.497   2.001  15.326 -1.9620 -3.2900  1.8825
 6759TIP3    H241769   3.600   2.082  15.401 -2.1968  1.5911 -2.4489
 6760TIP3   OH241770   1.308   3.950   2.814  0.2639  0.0725  0.2212
 6760TIP3    H141771   1.325   4.010   2.887  1.4754 -1.4384  1.2603
 6760TIP3    H241772   1.355   3.988   2.740  1.3316  0.2197  0.9550
 6761TIP3   OH241773   5.483   5.992  13.458  0.4814 -0.3445 -0.5693
 6761TIP3    H141774   5.498   6.044  13.378 -0.9016 -1.3187 -1.5204
 6761TIP3    H241775   5.444   6.054  13.519 -1.7617 -0.3286 -1.9102
 6762TIP3   OH241776   4.714   4.036  15.913 -0.7854 -0.0120 -0.0880
 6762TIP3    H141777   4.661   4.042  15.993  0.5820  1.1446  0.7811
 6762TIP3    H241778   4.722   4.126  15.883  1.0426 -0.0893  0.0783
 6763TIP3   OH241779   0.087   6.813  15.301  0.3446  0.4079  0.5332
 6763TIP3    H141780   0.134   6.891  15.272  0.4595 -0.6228 -2.4135
 6763TIP3    H241781   0.155   6.747  15.315  0.0829  0.0878  0.3251
 6764TIP3   OH241782   6.039   5.218   1.155 -0.7908  0.9814  0.3884
 6764TIP3    H141783   6.045   5.192   1.247 -0.8201  0.2621  0.1876
 6764TIP3    H241784   5.945   5.226   1.138 -0.7736  2.5829  0.8150
 6765TIP3   OH241785   5.179   1.274  15.711 -0.1186  0.1375  0.0334
 6765TIP3    H141786   5.091   1.239  15.726  0.2459 -0.9422 -0.2947
 6765TIP3    H241787   5.221   1.210  15.655  0.7554  0.8526 -0.1471
 6766TIP3   OH241788   2.411   2.022  15.125  0.0719 -0.2748 -0.0496
 6766TIP3    H141789   2.428   2.115  15.111 -0.6749 -0.3784 -1.9162
 6766TIP3    H241790   2.316   2.014  15.126  0.0592 -0.7031  2.8040
 6767TIP3   OH241791   3.412   2.196   4.452  0.3335  0.1591  0.1903
 6767TIP3    H141792   3.358   2.170   4.377  0.1978 -0.8709  0.6318
 6767TIP3    H241793   3.390   2.288   4.467  0.1759  0.3089 -0.8729
 6768TIP3   OH241794   0.418   3.614  10.596  0.5911  0.3107 -0.2122
 6768TIP3    H141795   0.493   3.603  10.537 -0.1446  2.0789 -1.5836
 6768TIP3    H241796   0.342   3.592  10.541 -0.1183  2.0744  0.0141
 6769TIP3   OH241797   1.918   4.644  12.264 -0.8817  0.3138  0.1526
 6769TIP3    H141798   1.924   4.549  12.271 -2.0139  0.2032 -0.1420
 6769TIP3    H241799   1.862   4.659  12.188  1.9320  1.2814 -1.9021
 6770TIP3   OH241800   2.628   3.501   1.914  0.1790 -0.3245  0.1840
 6770TIP3    H141801   2.711   3.549   1.902 -0.6347  0.7564 -1.5923
 6770TIP3    H241802   2.591   3.538   1.994  0.4926  0.6389 -0.0920
 6771TIP3   OH241803   5.617   5.790   5.335 -0.0339  0.2410 -0.1282
 6771TIP3    H141804   5.648   5.875   5.366 -1.4134  0.2599  1.3689
 6771TIP3    H241805   5.655   5.726   5.396  0.7594 -0.2125 -1.0693
 6772TIP3   OH241806   5.354   5.239   2.808 -0.4801  0.8130 -0.0977
 6772TIP3    H141807   5.407   5.187   2.869 -0.3746  0.5695 -0.3965
 6772TIP3    H241808   5.270   5.250   2.852 -0.4546  0.5103  0.0290
 6773TIP3   OH241809   2.177   6.760   1.888  0.2183 -0.3732  0.4189
 6773TIP3    H141810   2.169   6.719   1.802 -1.6918  0.9431 -0.0879
 6773TIP3    H241811   2.159   6.689   1.950 -2.3453 -0.5191 -0.4104
 6774TIP3   OH241812   3.773   1.528  10.463 -0.1351 -0.7491  0.0228
 6774TIP3    H141813   3.785   1.608  10.513 -3.2772  0.8712 -1.5320
 6774TIP3    H241814   3.726   1.469  10.522 -2.5556  0.6252 -0.4144
 6775TIP3   OH241815   3.337   3.142  15.505 -0.8306  0.0695 -0.0192
 6775TIP3    H141816   3.327   3.073  15.439 -1.1693  1.0539 -1.0288
 6775TIP3    H241817   3.326   3.096  15.588  0.2939 -1.3282 -0.5903
 6776TIP3   OH241818   5.969   5.694  12.336 -0.2220  0.6927  0.6711
 6776TIP3    H141819   5.875   5.694  12.354 -0.3092 -0.3605  0.2685
 6776TIP3    H241820   5.978   5.645  12.255  0.6528  1.0927  0.5112
 6777TIP3   OH241821   6.221   6.778  12.608  0.1953  0.2175 -0.5712
 6777TIP3    H141822   6.167   6.851  12.578 -1.6934 -0.0297  1.8355
 6777TIP3    H241823   6.285   6.818  12.667 -1.1874 -0.0027  1.1839
 6778TIP3   OH241824   2.064   6.257  12.577 -0.1948  0.2612  0.1568
 6778TIP3    H141825   2.024   6.328  12.627 -1.3355  0.2163 -0.6606
 6778TIP3    H241826   2.156   6.283  12.568 -0.5335  1.4913  0.1149
 6779TIP3   OH241827   4.862   3.426   0.205  0.0685  0.2379  0.4448
 6779TIP3    H141828   4.895   3.485   0.136 -2.7245 -0.0806 -1.2986
 6779TIP3    H241829   4.938   3.372   0.227  1.6286  1.7589 -0.8218
 6780TIP3   OH241830   3.818   2.932   1.894  0.3379  0.1490 -0.0792
 6780TIP3    H141831   3.790   2.991   1.825 -2.3246  0.7586  1.3867
 6780TIP3    H241832   3.742   2.923   1.951  1.2300 -3.2494  0.8091
 6781TIP3   OH241833   5.730   5.297  11.868 -0.0548 -1.0315  0.0808
 6781TIP3    H141834   5.804   5.274  11.926  0.7814  0.7603 -0.1812
 6781TIP3    H241835   5.764   5.283  11.780 -0.2998 -0.9583 -0.0239
 6782TIP3   OH241836   1.569   0.242  13.557 -0.8261  0.0500 -0.1574
 6782TIP3    H141837   1.651   0.289  13.569 -1.2729  1.1019 -1.1211
 6782TIP3    H241838   1.518   0.260  13.637 -0.5474  0.2559 -0.0266
 6783TIP3   OH241839   1.278   5.623  16.998  0.2377 -0.3434  0.5381
 6783TIP3    H141840   1.274   5.718  17.011  2.9033 -0.3086  1.5830
 6783TIP3    H241841   1.367   5.599  17.021 -0.0955 -3.0112 -0.6039
 6784TIP3   OH241842   2.954   5.331   0.964 -0.2029  0.3175 -0.4072
 6784TIP3    H141843   2.894   5.365   1.029  0.5212 -0.7557  0.8925
 6784TIP3    H241844   2.905   5.261   0.920 -1.0457  1.7256 -1.7738
 6785TIP3   OH241845   4.929   6.085   5.805 -0.1671 -0.1123 -0.3559
 6785TIP3    H141846   4.931   6.128   5.719 -0.1331 -0.1032 -0.3504
 6785TIP3    H241847   5.020   6.084   5.833 -0.5249  4.2435  1.8542
 6786TIP3   OH241848   6.048   4.357  15.454  1.1163  0.3643  0.3883
 6786TIP3    H141849   6.082   4.343  15.366 -0.0843  2.2637 -0.4475
 6786TIP3    H241850   5.955   4.335  15.447  0.5746  2.3955  0.6093
 6787TIP3   OH241851   3.566   3.603  17.162  0.8460  0.0743  0.3595
 6787TIP3    H141852   3.589   3.643  17.246  1.4979 -0.9660  0.6972
 6787TIP3    H241853   3.472   3.621  17.151  0.5953 -0.3658  1.6492
 6788TIP3   OH241854   6.432   1.194   5.485  0.1236 -0.1866 -0.3790
 6788TIP3    H141855   6.466   1.283   5.499  1.2348 -0.8067  1.1664
 6788TIP3    H241856   6.494   1.155   5.423  0.5792 -0.4091  0.2185
 6789TIP3   OH241857   6.108   2.414   0.074  0.5196 -0.0391 -0.3630
 6789TIP3    H141858   6.199   2.443   0.080  0.0990  1.1318  0.5723
 6789TIP3    H241859   6.066   2.450   0.152 -0.1833 -2.6917  0.6127
 6790TIP3   OH241860   1.777   3.792   3.504  0.6707 -0.4114 -0.4994
 6790TIP3    H141861   1.752   3.805   3.596  2.1654  2.3026 -0.3783
 6790TIP3    H241862   1.728   3.858   3.456  2.1517  0.2108 -1.2074
 6791TIP3   OH241863   2.558   0.204  13.816 -0.3209  0.0676  0.1270
 6791TIP3    H141864   2.483   0.221  13.759  0.0005  0.4181 -0.1922
 6791TIP3    H241865   2.555   0.109  13.831  1.1484 -0.5443 -2.7164
 6792TIP3   OH241866   0.366   5.947  12.136 -0.5805 -0.8354 -0.1327
 6792TIP3    H141867   0.287   5.945  12.190 -1.2425  3.1200 -0.6104
 6792TIP3    H241868   0.437   5.967  12.197 -0.7481  0.1120 -0.2302
 6793TIP3   OH241869   2.726   0.687  14.936  0.2430 -0.4321 -0.6159
 6793TIP3    H141870   2.713   0.649  14.849  1.9814  0.2064 -1.2022
 6793TIP3    H241871   2.647   0.739  14.952 -0.9707 -2.1034 -0.9360
 6794TIP3   OH241872   6.503   5.369   5.498  0.4454  0.9349 -0.1179
 6794TIP3    H141873   6.560   5.434   5.457  1.8678 -0.1378  0.0823
 6794TIP3    H241874   6.551   5.341   5.576  0.1409 -0.7284 -0.4885
 6795TIP3   OH241875   5.022   5.955   4.085  0.3108 -0.3333  0.1132
 6795TIP3    H141876   5.044   5.908   4.165  1.5813 -1.4452 -0.8537
 6795TIP3    H241877   4.964   6.026   4.114 -1.0478 -2.0158  1.7036
 6796TIP3   OH241878   6.759   0.303   6.619 -0.0585 -0.3458  0.7991
 6796TIP3    H141879   6.760   0.271   6.709 -0.4689 -0.7379  0.6672
 6796TIP3    H241880   6.669   0.333   6.606 -0.2022 -0.9901  0.2787
 6797TIP3   OH241881   5.582   6.236  14.713 -0.0384 -0.1027  0.1855
 6797TIP3    H141882   5.658   6.226  14.771 -0.9206  0.2809  1.4321
 6797TIP3    H241883   5.603   6.312  14.659  1.7740 -1.7515 -1.6224
 6798TIP3   OH241884   5.618   2.846  11.320 -0.0075  0.0761  0.1217
 6798TIP3    H141885   5.629   2.926  11.371 -0.1201  0.2783 -0.1672
 6798TIP3    H241886   5.667   2.780  11.368  3.2172  1.0830 -1.5016
 6799TIP3   OH241887   1.312   3.321  14.079 -0.1009 -0.5471 -0.3545
 6799TIP3    H141888   1.309   3.411  14.047  0.3815 -0.6136 -0.5894
 6799TIP3    H241889   1.351   3.271  14.008 -0.6225 -0.9961 -0.3339
 6800TIP3   OH241890   3.752   0.564   4.197  0.0707  0.6470 -0.9915
 6800TIP3    H141891   3.797   0.500   4.141  0.3315 -0.7448  0.7295
 6800TIP3    H241892   3.659   0.552   4.177  0.1806  0.3701 -1.3452
 6801TIP3   OH241893   0.600   0.356   1.445  0.0193 -0.0063  0.7281
 6801TIP3    H141894   0.666   0.286   1.438 -0.4859 -0.4481  0.3526
 6801TIP3    H241895   0.592   0.371   1.539  0.5863 -0.0198  0.7825
 6802TIP3   OH241896   0.514   4.128   5.435  0.2043  0.2771  0.2300
 6802TIP3    H141897   0.453   4.197   5.461  0.9893  0.6010  1.2950
 6802TIP3    H241898   0.493   4.054   5.492 -0.3794 -0.2459 -0.6462
 6803TIP3   OH241899   3.519   5.927   1.806 -0.1982  0.1062  0.2245
 6803TIP3    H141900   3.557   5.910   1.892 -0.1839  0.2801  0.2523
 6803TIP3    H241901   3.592   5.959   1.753 -0.1158 -0.3967  0.0285
 6804TIP3   OH241902   4.791   3.887   4.175  0.3087  0.1178  0.4594
 6804TIP3    H141903   4.737   3.952   4.131 -0.7187 -2.0899 -1.8059
 6804TIP3    H241904   4.729   3.831   4.221  1.1378  0.4711  2.0867
 6805TIP3   OH241905   4.792   3.983   5.078  0.1277 -0.4010 -0.2950
 6805TIP3    H141906   4.729   4.054   5.094  0.4094 -0.0730 -0.6406
 6805TIP3    H241907   4.825   3.999   4.990  1.0147 -0.3245  0.0412
 6806TIP3   OH241908   3.873   6.375   2.096  0.7106  0.1729  0.2901
 6806TIP3    H141909   3.839   6.288   2.077  0.8832 -0.0174  0.8561
 6806TIP3    H241910   3.794   6.429   2.109  0.5911 -0.4056  2.2445
 6807TIP3   OH241911   3.697   2.260  14.533 -0.1152  0.0847  0.1859
 6807TIP3    H141912   3.618   2.273  14.585 -0.4792  0.9475 -0.5597
 6807TIP3    H241913   3.669   2.205  14.460  0.2286 -0.5266  0.5122
 6808TIP3   OH241914   1.103   5.966   6.450 -0.5551 -0.4929  0.2824
 6808TIP3    H141915   1.054   6.046   6.472 -2.4274 -1.7884  1.0480
 6808TIP3    H241916   1.074   5.944   6.361 -2.1314 -1.7288  1.0472
 6809TIP3   OH241917   1.365   5.145  17.042  0.2092  0.9414 -0.1749
 6809TIP3    H141918   1.399   5.213  16.984  1.5112  0.5771  0.1201
 6809TIP3    H241919   1.437   5.127  17.103  0.7642 -2.1316 -1.5092
 6810TIP3   OH241920   1.908   5.415   6.347 -0.1230 -0.3312  0.1388
 6810TIP3    H141921   1.877   5.501   6.376 -2.5288 -1.1880  0.3343
 6810TIP3    H241922   2.003   5.421   6.351 -0.2301  2.2554  0.3125
 6811TIP3   OH241923   4.196   6.194  12.302  0.2179  0.3186  0.3725
 6811TIP3    H141924   4.252   6.131  12.347 -0.5402 -0.9290 -0.3532
 6811TIP3    H241925   4.113   6.192  12.350 -0.7981 -1.4471 -1.2915
 6812TIP3   OH241926   2.546   4.691   6.857 -0.7742 -0.3778 -0.2598
 6812TIP3    H141927   2.465   4.731   6.827 -1.1291  0.7579  1.9765
 6812TIP3    H241928   2.534   4.597   6.841 -1.1163  0.0353 -2.9344
 6813TIP3   OH241929   4.712   6.532  12.872 -0.1646 -0.0358 -0.3844
 6813TIP3    H141930   4.723   6.595  12.800 -2.3687  1.6108  0.5844
 6813TIP3    H241931   4.779   6.556  12.936 -1.6356  2.1687  0.4478
 6814TIP3   OH241932   6.042   2.476   4.448  0.2842 -0.0503  0.1102
 6814TIP3    H141933   6.002   2.555   4.484 -1.2173  0.1233 -1.7391
 6814TIP3    H241934   6.134   2.499   4.435  0.1358  0.9667  0.7496
 6815TIP3   OH241935   1.307   3.450  13.221 -0.1130 -0.5477  0.0817
 6815TIP3    H141936   1.333   3.507  13.148 -0.8232  0.4096  0.5547
 6815TIP3    H241937   1.390   3.422  13.259  0.2582 -0.5083 -0.6694
 6816TIP3   OH241938   6.474   3.826   1.277  0.1894 -0.4383  0.0267
 6816TIP3    H141939   6.509   3.866   1.198  0.0418  1.7652  1.0257
 6816TIP3    H241940   6.394   3.874   1.295 -0.9382 -2.3255  0.3827
 6817TIP3   OH241941   1.490   2.549   2.713 -0.3603  0.3632 -0.5443
 6817TIP3    H141942   1.524   2.577   2.798 -0.1506  4.1756 -1.7174
 6817TIP3    H241943   1.395   2.561   2.720 -0.3607  0.5003 -0.7839
 6818TIP3   OH241944   5.392   6.489   6.259 -0.3064  0.4266 -0.3337
 6818TIP3    H141945   5.329   6.423   6.286 -0.4631  0.7075 -0.0064
 6818TIP3    H241946   5.477   6.445   6.265 -0.4529  0.1041 -0.6026
 6819TIP3   OH241947   1.116   2.059  11.842 -0.6445  0.2696  0.1838
 6819TIP3    H141948   1.186   2.107  11.797  0.2315 -0.5477  0.6451
 6819TIP3    H241949   1.119   2.091  11.932 -1.3130  0.7070  0.0616
 6820TIP3   OH241950   3.890   0.119   6.270  0.0382 -0.5665  0.7109
 6820TIP3    H141951   3.933   0.068   6.339 -0.8693 -1.8371  0.3563
 6820TIP3    H241952   3.963   0.155   6.218  0.6981 -0.7105  1.5206
 6821TIP3   OH241953   4.724   3.950  16.641  0.1405 -0.2198  0.1555
 6821TIP3    H141954   4.655   3.974  16.702 -0.8311  0.1802 -1.0572
 6821TIP3    H241955   4.700   3.863  16.610  1.1537 -0.8374  1.0423
 6822TIP3   OH241956   1.683   6.716  13.329  0.2164 -0.1279 -0.3209
 6822TIP3    H141957   1.706   6.735  13.420  0.6760 -0.8093 -0.2888
 6822TIP3    H241958   1.632   6.793  13.301 -1.2708 -0.5691  0.9867
 6823TIP3   OH241959   4.372   4.349  12.905 -0.2880 -0.3435  0.6395
 6823TIP3    H141960   4.427   4.407  12.957 -0.1527 -0.3394  0.4909
 6823TIP3    H241961   4.403   4.261  12.926  0.8911 -0.2777 -0.6967
 6824TIP3   OH241962   4.652   4.122  16.377 -0.8763 -0.3673 -0.5389
 6824TIP3    H141963   4.727   4.104  16.434  0.2513 -3.3107 -2.6598
 6824TIP3    H241964   4.578   4.079  16.421 -1.5049  2.5949  1.5903
 6825TIP3   OH241965   6.417   6.256  13.885 -0.0648 -0.0496  0.0933
 6825TIP3    H141966   6.409   6.347  13.914 -1.0720 -0.6580  1.8440
 6825TIP3    H241967   6.327   6.223  13.884  0.2364 -0.9069 -1.0121
 6826TIP3   OH241968   0.289   1.327  12.729 -0.4514  0.0148  0.1028
 6826TIP3    H141969   0.231   1.271  12.780 -2.7022  0.8242 -1.4188
 6826TIP3    H241970   0.371   1.278  12.722 -1.7423 -2.2693  0.3261
 6827TIP3   OH241971   5.697   6.772   5.060 -0.3177  0.2221  1.2053
 6827TIP3    H141972   5.744   6.749   5.140  0.7224  0.6290  0.7278
 6827TIP3    H241973   5.640   6.844   5.086  0.0979  0.4282  1.5652
 6828TIP3   OH241974   6.330   3.986   1.062  0.3136  0.0246  0.4328
 6828TIP3    H141975   6.323   4.025   1.149 -1.9675  0.6333  0.0630
 6828TIP3    H241976   6.418   4.007   1.032  1.0088  0.1240  2.4314
 6829TIP3   OH241977   4.316   3.033  14.868  0.4261  0.6084 -0.2965
 6829TIP3    H141978   4.343   3.123  14.852 -0.6035  1.4860  2.3479
 6829TIP3    H241979   4.237   3.022  14.814 -1.8511  2.7766  2.2943
 6830TIP3   OH241980   2.888   0.352   4.280  0.0519  0.3194  0.1367
 6830TIP3    H141981   2.833   0.397   4.344 -0.8555  0.3186 -0.6106
 6830TIP3    H241982   2.929   0.423   4.230  2.0293  0.3518  1.7089
 6831TIP3   OH241983   3.319   3.606  12.161 -0.1603  0.0860 -0.5038
 6831TIP3    H141984   3.319   3.529  12.104 -0.9326  2.3439 -3.8954
 6831TIP3    H241985   3.323   3.680  12.100 -0.0152  2.7713  2.5179
 6832TIP3   OH241986   3.339   4.560  16.299 -0.6537  0.5408  0.2364
 6832TIP3    H141987   3.423   4.560  16.253 -0.8293  0.7582 -0.0836
 6832TIP3    H241988   3.363   4.550  16.391 -0.2431  1.1570  0.2026
 6833TIP3   OH241989   1.886   4.438  13.767  0.0876 -0.0319 -0.3351
 6833TIP3    H141990   1.915   4.527  13.788 -2.1093  1.0095 -1.3628
 6833TIP3    H241991   1.910   4.386  13.844  1.2760  1.4813  0.3595
 6834TIP3   OH241992   3.307   6.807  17.126  0.5934  0.0985  0.1913
 6834TIP3    H141993   3.364   6.849  17.062  1.1554 -1.4297 -0.3580
 6834TIP3    H241994   3.305   6.715  17.100  2.3264 -1.0124  3.3847
 6835TIP3   OH241995   4.323   5.243   4.822  0.4497 -0.2623 -0.1933
 6835TIP3    H141996   4.394   5.256   4.759  1.7531  1.6420  1.5046
 6835TIP3    H241997   4.361   5.187   4.890  0.1100  0.1434  0.3456
 6836TIP3   OH241998   5.187   2.089   7.292  0.4526  0.4591 -0.0638
 6836TIP3    H141999   5.162   2.161   7.234  1.6301  0.9096 -0.0391
 6836TIP3    H242000   5.216   2.020   7.233 -0.3839  0.1131 -0.0766
 6837TIP3   OH242001   6.308   2.109   1.748 -0.2780  0.0429 -0.3468
 6837TIP3    H142002   6.290   2.199   1.722 -1.2880  1.2947  3.9454
 6837TIP3    H242003   6.230   2.060   1.721 -0.2700  0.6498 -1.5580
 6838TIP3   OH242004   2.916   4.653   3.715 -0.1704 -0.1976  0.0100
 6838TIP3    H142005   2.873   4.670   3.631  2.0083  0.2837 -1.0953
 6838TIP3    H242006   2.872   4.575   3.749 -1.1104 -0.4178 -1.5953
 6839TIP3   OH242007   0.701   1.419  15.323 -0.0615 -0.1342  0.0907
 6839TIP3    H142008   0.764   1.478  15.282  0.6358 -0.3660  0.8028
 6839TIP3    H242009   0.707   1.338  15.272  1.2763 -0.6474  1.0055
 6840TIP3   OH242010   6.479   0.292   4.867 -0.1644  0.3000  0.2750
 6840TIP3    H142011   6.513   0.213   4.827 -0.6359  0.5623 -0.6796
 6840TIP3    H242012   6.458   0.267   4.957  3.1699  0.2928  1.1980
 6841TIP3   OH242013   4.371   4.613   4.373  0.1938  0.4858 -0.6441
 6841TIP3    H142014   4.392   4.705   4.389 -0.0577  0.1100  2.5378
 6841TIP3    H242015   4.452   4.566   4.391 -0.2658 -0.0694  0.0255
 6842TIP3   OH242016   1.001   6.765   0.492  0.7527  0.9369 -0.0290
 6842TIP3    H142017   1.055   6.687   0.478  1.4205  1.2029  0.9299
 6842TIP3    H242018   1.027   6.825   0.422  2.1838  1.2980  0.7767
 6843TIP3   OH242019   5.511   4.310  12.383  0.0514 -0.2001 -0.2206
 6843TIP3    H142020   5.432   4.272  12.343 -1.7346  2.1327  0.8192
 6843TIP3    H242021   5.562   4.234  12.411 -1.1163 -1.8266 -2.1910
 6844TIP3   OH242022   2.976   0.655   2.470  0.4307  0.6388  0.5222
 6844TIP3    H142023   2.971   0.651   2.375 -0.3183 -0.8651  0.5968
 6844TIP3    H242024   3.010   0.570   2.497  0.2302  0.8802  1.6178
 6845TIP3   OH242025   5.399   5.208   1.879  0.0482 -0.6449 -0.1310
 6845TIP3    H142026   5.400   5.152   1.801 -2.5125  0.1742 -0.8518
 6845TIP3    H242027   5.448   5.285   1.853 -1.3014 -0.1045 -1.2351
 6846TIP3   OH242028   1.379   5.165  11.953 -0.8283  0.1320 -0.4397
 6846TIP3    H142029   1.320   5.211  12.013 -2.9452 -1.0381 -1.5071
 6846TIP3    H242030   1.333   5.162  11.870  1.2450  0.0855 -1.6723
 6847TIP3   OH242031   0.821   3.678  12.659 -0.2081 -0.4527  0.0043
 6847TIP3    H142032   0.757   3.744  12.631 -0.1403  0.4617  1.8117
 6847TIP3    H242033   0.891   3.729  12.700  1.5053 -1.4759 -1.5055
 6848TIP3   OH242034   2.632   2.745   5.179  0.4400 -0.1417 -0.0124
 6848TIP3    H142035   2.594   2.732   5.092 -1.4862  0.3829  0.7057
 6848TIP3    H242036   2.646   2.657   5.213  2.1350 -0.3826 -1.1794
 6849TIP3   OH242037   3.317   6.062  14.601  0.3711  0.6331  0.1002
 6849TIP3    H142038   3.354   6.112  14.674  1.2938  1.9226 -1.1881
 6849TIP3    H242039   3.391   6.048  14.541 -0.1680 -1.1414 -0.2259
 6850TIP3   OH242040   1.594   3.899   1.027 -0.2839 -0.1642 -0.2583
 6850TIP3    H142041   1.584   3.835   1.097 -2.0548 -2.3996 -2.3821
 6850TIP3    H242042   1.536   3.971   1.052  0.6535  0.0593  1.4659
 6851TIP3   OH242043   3.978   3.660  15.546 -0.1433 -0.0454  0.2998
 6851TIP3    H142044   3.958   3.675  15.638  0.1497  0.8481  0.2287
 6851TIP3    H242045   4.019   3.574  15.544  2.5202  1.0677  1.4447
 6852TIP3   OH242046   0.372   3.239  11.300 -0.8034 -0.2838 -0.3120
 6852TIP3    H142047   0.459   3.280  11.297 -0.7984 -0.3085 -0.5847
 6852TIP3    H242048   0.348   3.229  11.208 -1.0503 -0.3729 -0.2385
 6853TIP3   OH242049   6.613   3.150   3.898 -0.4378  0.0748 -0.2885
 6853TIP3    H142050   6.520   3.167   3.880 -0.1174  1.7606 -0.5319
 6853TIP3    H242051   6.616   3.128   3.990 -0.9441  1.5329  0.1081
 6854TIP3   OH242052   0.125   0.407  13.585 -0.4594 -1.0324 -0.0824
 6854TIP3    H142053   0.139   0.330  13.530  0.5540 -1.0946  0.2339
 6854TIP3    H242054   0.096   0.372  13.669  0.4015 -1.1082  0.1914
 6855TIP3   OH242055   0.197   4.596  11.511  0.0061 -0.4200 -0.1239
 6855TIP3    H142056   0.243   4.647  11.444  0.9313 -1.6508 -0.4569
 6855TIP3    H242057   0.109   4.582  11.474  0.1538 -0.1458 -0.5931
 6856TIP3   OH242058   4.476   6.700   5.752  0.6561 -0.1956 -0.0449
 6856TIP3    H142059   4.514   6.756   5.819 -1.3550  0.0506  0.9391
 6856TIP3    H242060   4.485   6.611   5.786  1.2252 -0.2389 -0.2873
 6857TIP3   OH242061   6.782   4.587  12.120 -0.4739  0.0308  0.0302
 6857TIP3    H142062   6.763   4.675  12.089  0.0575 -0.0281 -0.4847
 6857TIP3    H242063   6.720   4.531  12.073 -0.8421  0.1317  0.3924
 6858TIP3   OH242064   3.659   3.412  13.458  0.1238  0.4828 -0.4824
 6858TIP3    H142065   3.733   3.472  13.460 -0.1326  0.8239  1.7632
 6858TIP3    H242066   3.695   3.327  13.481  0.0214  0.3475 -0.8058
 6859TIP3   OH242067   0.981   3.925   0.993 -0.1249  0.1831 -0.5415
 6859TIP3    H142068   1.011   3.939   0.903 -0.9112  0.1766 -0.8140
 6859TIP3    H242069   0.898   3.877   0.984 -0.1913  0.1442  0.1857
 6860TIP3   OH242070   4.438   3.874   0.531 -0.0772 -0.6709 -0.0399
 6860TIP3    H142071   4.474   3.897   0.445 -1.1306 -2.1937 -0.9322
 6860TIP3    H242072   4.366   3.937   0.544  0.3480 -0.1726 -0.0695
 6861TIP3   OH242073   1.778   2.711   4.808  0.4235 -0.1175 -0.4044
 6861TIP3    H142074   1.842   2.708   4.879  0.5748  3.3917 -0.1967
 6861TIP3    H242075   1.831   2.722   4.729  0.1691  0.3845 -0.5109
 6862TIP3   OH242076   5.103   1.780   3.202  0.0647 -0.7900 -0.2935
 6862TIP3    H142077   5.139   1.782   3.114 -0.0537 -1.4916 -0.3646
 6862TIP3    H242078   5.053   1.862   3.210 -0.5227 -1.0548 -1.1321
 6863TIP3   OH242079   3.208   1.610   0.331 -0.0232  0.0424 -0.4732
 6863TIP3    H142080   3.147   1.640   0.264 -0.1935  1.0159  0.0875
 6863TIP3    H242081   3.280   1.571   0.282 -0.4938  0.0610 -1.1926
 6864TIP3   OH242082   1.831   6.801   0.183  0.1930 -0.4314  0.7413
 6864TIP3    H142083   1.817   6.881   0.132  2.9421  0.2751  0.9052
 6864TIP3    H242084   1.812   6.827   0.273 -1.0761 -0.6332  0.5504
 6865TIP3   OH242085   0.790   5.692  11.880 -0.5304 -0.3471 -0.0358
 6865TIP3    H142086   0.781   5.641  11.799 -0.6737  0.7525 -0.7255
 6865TIP3    H242087   0.878   5.671  11.912 -0.5694 -0.9873 -0.3236
 6866TIP3   OH242088   2.020   2.658   0.902  0.0847  0.8396  0.1257
 6866TIP3    H142089   1.948   2.689   0.847 -0.1453 -1.6315 -1.1032
 6866TIP3    H242090   2.093   2.718   0.883 -0.8161  1.6881 -0.7357
 6867TIP3   OH242091   0.524   3.793   2.711 -0.4169 -0.2913  0.5831
 6867TIP3    H142092   0.454   3.835   2.661 -2.2841 -0.6263  2.7790
 6867TIP3    H242093   0.525   3.839   2.795  1.2514 -1.0556  1.0316
 6868TIP3   OH242094   6.689   4.632  14.605 -0.6655 -0.0161  0.0250
 6868TIP3    H142095   6.645   4.669  14.682 -1.0561  0.8785 -0.6123
 6868TIP3    H242096   6.766   4.687  14.593 -0.1559 -0.6631  0.2492
 6869TIP3   OH242097   4.660   4.432   4.077  0.0078  0.3070 -0.2362
 6869TIP3    H142098   4.572   4.448   4.109  0.2389  1.4868 -0.1518
 6869TIP3    H242099   4.706   4.392   4.152 -0.6176 -0.9179 -0.4899
 6870TIP3   OH242100   5.889   5.772   1.484  0.6207 -0.0304  0.0291
 6870TIP3    H142101   5.821   5.706   1.499  0.1426  0.3655 -0.3742
 6870TIP3    H242102   5.845   5.856   1.499  1.3374  0.1861  0.9617
 6871TIP3   OH242103   4.462   5.426   2.392  0.0581  0.1180  0.2595
 6871TIP3    H142104   4.376   5.420   2.434 -0.3690  2.5329 -0.0831
 6871TIP3    H242105   4.453   5.378   2.310 -1.4007  1.3080 -0.3354
 6872TIP3   OH242106   3.763   1.923   4.952  0.3692  0.2504 -0.0043
 6872TIP3    H142107   3.788   2.014   4.969  2.5473 -0.3475  0.3581
 6872TIP3    H242108   3.741   1.887   5.038 -2.3977  0.8642 -0.3553
 6873TIP3   OH242109   3.151   0.712   4.107  0.6337 -0.3636  0.1332
 6873TIP3    H142110   3.088   0.640   4.096  1.0097 -0.4209 -1.9056
 6873TIP3    H242111   3.122   0.779   4.046  1.2926  0.5424  0.7832
 6874TIP3   OH242112   5.027   0.545  14.076  0.0198 -0.3829 -0.0017
 6874TIP3    H142113   4.991   0.471  14.125 -2.2488  0.3897 -0.3935
 6874TIP3    H242114   4.976   0.547  13.995  1.0071  0.7768 -0.6300
 6875TIP3   OH242115   5.387   0.541  13.145  0.1850  0.4895 -0.3954
 6875TIP3    H142116   5.420   0.628  13.126  0.5984  0.2408 -0.8205
 6875TIP3    H242117   5.425   0.519  13.231 -0.9028  1.2126  0.2952
 6876TIP3   OH242118   2.943   2.523  11.452 -0.5294  0.2550  0.3836
 6876TIP3    H142119   2.915   2.614  11.448 -0.2473  0.4034  1.5516
 6876TIP3    H242120   2.868   2.476  11.488 -0.5039  0.1077  0.2444
 6877TIP3   OH242121   2.256   2.967  16.914  0.3991 -0.0470  0.4968
 6877TIP3    H142122   2.343   2.942  16.945  0.7375  0.5242  0.0127
 6877TIP3    H242123   2.272   3.028  16.842 -0.3878 -0.5086 -0.0979
 6878TIP3   OH242124   0.859   0.011  15.284 -0.4022 -0.5513  0.5682
 6878TIP3    H142125   0.939   0.030  15.333 -0.8393 -0.9530  1.4626
 6878TIP3    H242126   0.818  -0.062  15.332 -2.3377  0.9610  1.3470
 6879TIP3   OH242127   4.230   5.252  13.770 -0.4990  0.0744 -0.2500
 6879TIP3    H142128   4.194   5.275  13.856  0.6847  0.6448  0.1120
 6879TIP3    H242129   4.266   5.334  13.736  0.1791 -0.4032 -0.7225
 6880TIP3   OH242130   4.002   0.554  14.350 -0.0698 -0.3503 -0.1346
 6880TIP3    H142131   4.085   0.591  14.320  0.0125 -1.1087 -0.8739
 6880TIP3    H242132   3.937   0.623  14.335  0.4447  0.3129  0.6133
 6881TIP3   OH242133   0.869   6.362   2.259  0.5564  0.0047  0.1559
 6881TIP3    H142134   0.896   6.315   2.180  2.6713 -0.0882  0.8726
 6881TIP3    H242135   0.854   6.452   2.229  2.5231  0.2528 -0.1910
 6882TIP3   OH242136   4.413   5.904   3.110  0.1267  0.0537 -0.0113
 6882TIP3    H142137   4.348   5.974   3.121 -0.0401  0.0680 -0.9532
 6882TIP3    H242138   4.425   5.868   3.198  0.2291  1.2759  0.4873
 6883TIP3   OH242139   6.545   0.732  11.214  0.0175 -0.2317  0.7856
 6883TIP3    H142140   6.631   0.746  11.254 -0.3437 -0.6360  1.7073
 6883TIP3    H242141   6.564   0.684  11.133  0.9930  2.6483 -0.8471
 6884TIP3   OH242142   4.410   5.020  11.244  0.5005 -0.5921  0.2010
 6884TIP3    H142143   4.403   5.114  11.260  0.7822 -0.4360 -0.5362
 6884TIP3    H242144   4.367   5.007  11.159 -2.2593 -1.5992  1.6127
 6885TIP3   OH242145   2.816   4.990   1.080 -0.0219 -0.0214  0.2456
 6885TIP3    H142146   2.888   4.947   1.127 -0.5276 -0.5683  0.5328
 6885TIP3    H242147   2.751   5.010   1.148 -0.6423 -0.5765 -0.1714
 6886TIP3   OH242148   2.066   6.543   2.364 -0.3529  0.1360  0.0181
 6886TIP3    H142149   2.011   6.469   2.390 -1.2858  1.1623  1.1006
 6886TIP3    H242150   2.080   6.591   2.446  0.7445  0.8331 -0.5583
 6887TIP3   OH242151   4.724   5.435  14.900 -0.2266  0.3037  0.1945
 6887TIP3    H142152   4.709   5.470  14.813 -2.0700 -1.8359 -0.4461
 6887TIP3    H242153   4.766   5.350  14.885 -1.9909 -0.8129  1.2405
 6888TIP3   OH242154   3.465   4.070   2.559 -0.2790 -0.0465 -0.4363
 6888TIP3    H142155   3.527   4.099   2.492 -1.9298  0.5933 -1.7849
 6888TIP3    H242156   3.476   3.975   2.562 -0.0164 -0.0658 -1.4872
 6889TIP3   OH242157   1.907   4.525   1.081 -0.4319 -0.5735  0.4318
 6889TIP3    H142158   1.924   4.446   1.030  1.5400  0.2161 -0.2363
 6889TIP3    H242159   1.929   4.597   1.021 -0.1875  0.4316  1.6975
 6890TIP3   OH242160   4.425   2.372  13.353  0.1178 -0.1395 -0.3693
 6890TIP3    H142161   4.419   2.294  13.298  2.7425 -0.9986  0.4151
 6890TIP3    H242162   4.504   2.358  13.406 -1.2190  1.4896  2.2775
 6891TIP3   OH242163   3.422   3.733   6.640  0.3535  0.1098 -0.1716
 6891TIP3    H142164   3.412   3.781   6.722 -1.2583  0.3352 -0.4611
 6891TIP3    H242165   3.516   3.718   6.632  0.7716  2.0791  0.5647
 6892TIP3   OH242166   3.537   1.256  11.912  0.3821 -0.2710 -0.1059
 6892TIP3    H142167   3.442   1.243  11.904  0.1064  1.2746  0.4005
 6892TIP3    H242168   3.564   1.193  11.979 -0.3168 -0.5615 -0.0876
 6893TIP3   OH242169   0.374   1.434   4.233 -0.0576  0.4341  0.1324
 6893TIP3    H142170   0.371   1.433   4.137 -2.2262  0.6065  0.1486
 6893TIP3    H242171   0.453   1.384   4.255 -1.1894 -2.4520 -1.7228
 6894TIP3   OH242172   2.156   0.312  15.109 -0.1035  0.0392  0.1567
 6894TIP3    H142173   2.153   0.271  15.196  1.1100 -1.5251 -0.4896
 6894TIP3    H242174   2.206   0.392  15.121 -0.0500 -0.1019  0.9224
 6895TIP3   OH242175   3.511   0.628   0.660 -0.3593  0.1185 -0.2019
 6895TIP3    H142176   3.420   0.616   0.632 -0.3978 -0.3951  0.1266
 6895TIP3    H242177   3.517   0.579   0.742  0.0929  0.5365  0.0173
 6896TIP3   OH242178   4.034   1.989   0.585 -0.1327 -0.4705  0.6378
 6896TIP3    H142179   4.021   1.896   0.569  0.1302 -0.1214 -2.2305
 6896TIP3    H242180   4.080   1.993   0.669 -0.4767 -2.8695  1.0094
 6897TIP3   OH242181   2.677   6.212  16.535 -0.5837  0.3096 -0.1147
 6897TIP3    H142182   2.642   6.300  16.528 -0.3061  0.2788 -3.6571
 6897TIP3    H242183   2.637   6.164  16.462 -0.7743 -2.5784  1.7009
 6898TIP3   OH242184   3.638   5.411  11.545  0.0265  0.0669  0.2576
 6898TIP3    H142185   3.702   5.353  11.587  0.1090 -0.8920 -1.1240
 6898TIP3    H242186   3.690   5.483  11.510  0.1308  0.1621  0.6089
 6899TIP3   OH242187   3.777   1.764   3.476 -0.1212  0.0078  0.3021
 6899TIP3    H142188   3.723   1.842   3.487  0.5951  0.9362 -2.1639
 6899TIP3    H242189   3.845   1.773   3.542 -3.3091 -1.7094  4.2349
 6900TIP3   OH242190   1.991   5.397  11.719  0.4431  0.6638 -0.0237
 6900TIP3    H142191   2.077   5.439  11.732  0.5247  0.4930 -0.0075
 6900TIP3    H242192   1.928   5.462  11.749  0.4989  1.3002 -1.2113
 6901TIP3   OH242193   1.780   5.621   2.960 -0.3131  0.2758  0.8046
 6901TIP3    H142194   1.741   5.599   2.876  1.8160 -0.7215  0.0068
 6901TIP3    H242195   1.706   5.628   3.020 -1.7532 -0.6333 -0.7906
 6902TIP3   OH242196   5.853   1.985  14.742  0.3092  0.5151 -0.2609
 6902TIP3    H142197   5.913   2.026  14.679 -0.2262 -0.6480 -1.5557
 6902TIP3    H242198   5.905   1.918  14.785  0.1152 -0.0830 -0.9504
 6903TIP3   OH242199   1.855   1.173  11.247  0.3595 -0.7232 -0.4557
 6903TIP3    H142200   1.931   1.209  11.294 -0.0205  0.4286 -0.6814
 6903TIP3    H242201   1.886   1.162  11.157  0.9071 -2.3632 -0.0953
 6904TIP3   OH242202   1.039   2.266  14.600  0.3830 -0.9273  0.4265
 6904TIP3    H142203   1.030   2.329  14.671  2.1925 -0.8845  0.6482
 6904TIP3    H242204   1.020   2.316  14.521  1.4681 -0.1694  0.6308
 6905TIP3   OH242205   6.804   1.831   2.227  0.1156  0.0723  0.4292
 6905TIP3    H142206   6.748   1.857   2.154 -0.5387 -0.3833  0.7593
 6905TIP3    H242207   6.802   1.735   2.226 -2.3332 -0.0213  2.8195
 6906TIP3   OH242208   6.695   0.274   1.119 -0.0702 -0.2441 -0.6247
 6906TIP3    H142209   6.748   0.354   1.126 -0.1463 -0.2049 -0.4983
 6906TIP3    H242210   6.649   0.283   1.035 -1.0497  0.4397 -0.0259
 6907TIP3   OH242211   4.170   0.374   4.632 -0.4617  0.6518 -0.4040
 6907TIP3    H142212   4.149   0.466   4.615  3.2192  1.5768 -0.9319
 6907TIP3    H242213   4.252   0.377   4.682 -0.2474 -2.3535 -0.3846
 6908TIP3   OH242214   6.250   2.343   2.105 -0.3389  0.5863  0.4808
 6908TIP3    H142215   6.172   2.311   2.059  1.4538 -0.7834 -1.8025
 6908TIP3    H242216   6.312   2.365   2.036  1.5073  1.2014  2.2153
 6909TIP3   OH242217   6.149   5.572  16.509 -0.2706  0.0590 -0.4067
 6909TIP3    H142218   6.131   5.529  16.592  0.1365  0.4053 -0.1345
 6909TIP3    H242219   6.134   5.504  16.443 -0.9206 -0.1230 -0.0784
 6910TIP3   OH242220   6.083   3.098  16.650 -0.2928  0.2041  0.3428
 6910TIP3    H142221   6.108   3.139  16.567 -0.2243 -0.1981  0.1605
 6910TIP3    H242222   6.066   3.006  16.627 -2.0841  0.4713  0.4094
 6911TIP3   OH242223   2.455   4.224  15.239 -0.2314 -0.2939  0.3202
 6911TIP3    H142224   2.534   4.197  15.287 -0.4112  1.5971  1.8172
 6911TIP3    H242225   2.487   4.244  15.151  0.3464 -2.5804 -0.0680
 6912TIP3   OH242226   6.069   0.702  11.403 -0.2873  0.2312 -0.0806
 6912TIP3    H142227   6.071   0.627  11.343 -0.2752  0.4461 -0.3491
 6912TIP3    H242228   6.144   0.755  11.378 -1.2712  1.2206 -1.0501
 6913TIP3   OH242229   3.566   0.103  12.979  0.2416  0.4917  0.1727
 6913TIP3    H142230   3.478   0.101  12.941  0.4470  1.3829 -0.3592
 6913TIP3    H242231   3.612   0.171  12.931  0.8878  0.7960  1.1858
 6914TIP3   OH242232   1.597   6.553  10.803  0.0284 -0.3814  0.3072
 6914TIP3    H142233   1.518   6.499  10.796 -0.9680  0.6778  2.4496
 6914TIP3    H242234   1.642   6.520  10.881  0.3652  0.6704  0.5783
 6915TIP3   OH242235   0.995   4.271  10.358  0.0994  0.1082  0.2187
 6915TIP3    H142236   0.926   4.213  10.325  0.5169 -0.5575  0.5108
 6915TIP3    H242237   0.950   4.355  10.374 -0.4050  0.0117 -0.6501
 6916TIP3   OH242238   5.958   2.697   4.575 -0.0079  0.6392 -0.7220
 6916TIP3    H142239   5.863   2.690   4.574 -0.1161  1.7291  0.1371
 6916TIP3    H242240   5.975   2.791   4.579  1.1049  0.4459 -0.6342
 6917TIP3   OH242241   1.527   5.901   4.430  0.3769 -0.2670 -0.6661
 6917TIP3    H142242   1.562   5.903   4.519 -0.8108  1.2082 -0.1677
 6917TIP3    H242243   1.598   5.867   4.376  1.8948  0.8505  0.5330
 6918TIP3   OH242244   6.065   3.967   0.460 -0.5141  0.3430 -0.4996
 6918TIP3    H142245   6.051   3.927   0.546  0.5969  0.1098 -0.4150
 6918TIP3    H242246   6.160   3.979   0.454 -0.7042  1.7895 -1.0640
 6919TIP3   OH242247   4.906   1.821  17.145  0.2886 -0.1877  0.3197
 6919TIP3    H142248   4.881   1.910  17.122 -0.8794 -0.6118 -0.1750
 6919TIP3    H242249   4.897   1.817  17.240  0.8059  0.3474  0.3942
 6920TIP3   OH242250   0.153   6.707  13.282  0.2659  0.5365  0.0564
 6920TIP3    H142251   0.085   6.715  13.215  0.0014 -1.2058  0.0628
 6920TIP3    H242252   0.227   6.665  13.237  0.3550  0.0280  0.6607
 6921TIP3   OH242253   3.092   0.825   2.248  0.3600 -0.2762 -0.5207
 6921TIP3    H142254   3.036   0.903   2.242  1.7476  0.7343 -0.8784
 6921TIP3    H242255   3.150   0.843   2.322  1.0554 -0.7277 -0.9439
 6922TIP3   OH242256   0.955   5.704  14.039  0.3993  0.1936 -0.0913
 6922TIP3    H142257   0.972   5.777  14.098 -1.2552  0.6713 -0.1738
 6922TIP3    H242258   1.010   5.722  13.963 -0.7258  1.9428 -0.5570
 6923TIP3   OH242259   6.685   4.683   2.714 -0.1646 -0.2582 -0.3388
 6923TIP3    H142260   6.774   4.717   2.728 -0.0733 -0.1045 -1.2052
 6923TIP3    H242261   6.652   4.734   2.641 -1.0815 -0.1249  0.1639
 6924TIP3   OH242262   0.261   1.875  14.438  0.5740 -0.4962  0.0955
 6924TIP3    H142263   0.313   1.839  14.509  0.7353  1.3799  1.0010
 6924TIP3    H242264   0.305   1.957  14.415 -1.3262  0.6251  0.1615
 6925TIP3   OH242265   0.965   2.264   3.867 -0.3578  0.1493  0.2109
 6925TIP3    H142266   0.989   2.338   3.812 -1.9637 -0.0755 -0.8512
 6925TIP3    H242267   1.003   2.188   3.823  1.9556  0.3395  1.7061
 6926TIP3   OH242268   2.928   4.067  14.429 -0.1231  0.1567  0.0528
 6926TIP3    H142269   2.896   4.104  14.511 -3.6705  1.6332 -1.7624
 6926TIP3    H242270   3.022   4.085  14.429 -0.6257  3.6495  2.1162
 6927TIP3   OH242271   3.717   2.766  10.568 -0.2749 -0.1620  0.1581
 6927TIP3    H142272   3.755   2.818  10.498  0.1050  0.0839  0.5383
 6927TIP3    H242273   3.661   2.827  10.616 -1.5316 -0.6315 -0.6685
 6928TIP3   OH242274   3.920   4.707  16.580  0.3203  0.9212 -0.2336
 6928TIP3    H142275   3.861   4.716  16.505  1.0293 -1.2354 -1.1147
 6928TIP3    H242276   3.929   4.796  16.614 -1.4515  1.6768 -1.5858
 6929TIP3   OH242277   5.238   3.077  12.399 -0.3684  0.0919  0.4398
 6929TIP3    H142278   5.279   3.155  12.437 -0.6705  0.4262  0.0879
 6929TIP3    H242279   5.311   3.019  12.378 -0.1081  0.4716  0.2829
 6930TIP3   OH242280   4.327   2.735   0.918 -0.1572  1.0153 -0.1163
 6930TIP3    H142281   4.412   2.724   0.961 -0.2748 -0.8462 -0.2931
 6930TIP3    H242282   4.322   2.829   0.900  2.9788  0.9310 -2.3219
 6931TIP3   OH242283   3.252   2.033  13.518 -0.0905  0.4115  0.0873
 6931TIP3    H142284   3.171   2.077  13.545 -0.4365 -0.4030  0.4274
 6931TIP3    H242285   3.267   1.967  13.586  0.0075 -0.4805 -0.7718
 6932TIP3   OH242286   4.850   3.694   0.050  0.2880  0.0952 -0.5831
 6932TIP3    H142287   4.816   3.773   0.092 -0.2818 -1.2578  1.6264
 6932TIP3    H242288   4.945   3.709   0.044  0.3839  0.4017  1.1386
 6933TIP3   OH242289   5.567   2.444  13.063  0.1641  0.2768  0.3084
 6933TIP3    H142290   5.597   2.529  13.095 -0.4441 -0.4562  3.1023
 6933TIP3    H242291   5.478   2.459  13.033  0.0806  0.6492  0.7365
 6934TIP3   OH242292   2.506   5.670   1.513  0.8448  0.6971  0.0600
 6934TIP3    H142293   2.586   5.715   1.486  0.5744  0.3891 -1.3123
 6934TIP3    H242294   2.530   5.626   1.595  1.6122  1.8897  0.5051
 6935TIP3   OH242295   5.828   0.031  13.004 -0.0468 -0.3031  0.0420
 6935TIP3    H142296   5.789   0.118  13.003  0.8800  0.1474  1.3625
 6935TIP3    H242297   5.922   0.046  13.017  0.0947 -1.5046  0.5481
 6936TIP3   OH242298   1.567   0.534   3.503  0.4568 -0.6074 -0.1785
 6936TIP3    H142299   1.497   0.568   3.448  0.0386  0.8364  1.1779
 6936TIP3    H242300   1.565   0.439   3.488 -0.4490 -0.3907 -1.6662
 6937TIP3   OH242301   1.206   5.243  16.146 -0.1140  0.4442 -0.1626
 6937TIP3    H142302   1.175   5.271  16.060  0.1158  1.8408  0.1769
 6937TIP3    H242303   1.145   5.176  16.174  0.9944 -1.5893 -2.2947
 6938TIP3   OH242304   3.017   4.763   4.831  0.9078 -0.6682 -0.5605
 6938TIP3    H142305   2.981   4.814   4.759  0.6948 -0.1792 -0.1112
 6938TIP3    H242306   3.112   4.771   4.822  0.8997  1.2776  0.5152
 6939TIP3   OH242307   6.502   2.979  16.146  0.3249  0.0247 -0.6463
 6939TIP3    H142308   6.529   2.908  16.087  1.6171  0.7481 -0.9618
 6939TIP3    H242309   6.434   3.025  16.098 -0.6467 -1.0624 -0.3738
 6940TIP3   OH242310   4.091   4.525  15.228 -0.0752  0.0259  0.1646
 6940TIP3    H142311   4.156   4.483  15.171  0.9081  0.3968  0.9696
 6940TIP3    H242312   4.111   4.619  15.221  0.0491  0.0759  1.0864
 6941TIP3   OH242313   2.417   5.117   1.907  0.0685 -0.6791  0.0771
 6941TIP3    H142314   2.469   5.062   1.966  0.8102  1.0610  1.1012
 6941TIP3    H242315   2.369   5.176   1.964 -1.7912 -1.1125 -0.9428
 6942TIP3   OH242316   1.774   5.568   1.868  0.5286 -0.7495 -0.0642
 6942TIP3    H142317   1.858   5.568   1.822  0.3415 -1.0312 -0.4122
 6942TIP3    H242318   1.708   5.564   1.798  0.2109 -0.1699  0.1895
 6943TIP3   OH242319   2.465   0.185  16.986  0.5076 -0.0830 -0.3972
 6943TIP3    H142320   2.486   0.278  16.976 -0.9498  0.5443  1.6874
 6943TIP3    H242321   2.550   0.142  16.993  1.2248  0.9572 -2.1051
 6944TIP3   OH242322   1.843   2.394  13.938  0.1089 -0.8674  0.0493
 6944TIP3    H142323   1.780   2.322  13.936 -0.4271 -0.3831 -1.9174
 6944TIP3    H242324   1.857   2.417  13.847  3.4117 -1.1357  0.3914
 6945TIP3   OH242325   6.024   1.549  10.572  0.0193 -0.1648  0.3554
 6945TIP3    H142326   5.939   1.540  10.529 -0.9334  0.0425  2.0967
 6945TIP3    H242327   6.008   1.524  10.663  1.4944  1.1921  1.0437
 6946TIP3   OH242328   5.930   5.938   1.829 -0.5992  0.3465  0.2349
 6946TIP3    H142329   5.852   5.892   1.860 -1.1859  1.3939  0.3397
 6946TIP3    H242330   5.898   6.022   1.797  0.5546  1.0450  0.8340
 6947TIP3   OH242331   0.735   0.299  12.695 -0.2832 -0.0776 -0.9788
 6947TIP3    H142332   0.654   0.320  12.650 -2.2453 -1.0174  1.8175
 6947TIP3    H242333   0.729   0.205  12.714 -0.0100  0.3703  1.7991
 6948TIP3   OH242334   1.266   3.968  17.175  0.4580 -0.1689  0.7090
 6948TIP3    H142335   1.344   4.004  17.133  1.9594 -0.4058  3.0884
 6948TIP3    H242336   1.209   4.044  17.189  0.9595  0.2761  0.3586
 6949TIP3   OH242337   2.457   1.644   5.257  0.3208  0.3657  0.2853
 6949TIP3    H142338   2.406   1.593   5.320  1.9499  0.0102  1.3613
 6949TIP3    H242339   2.479   1.582   5.188  0.3499  0.2165  0.4296
 6950TIP3   OH242340   4.348   2.942   4.345 -0.3253  0.0441 -0.1843
 6950TIP3    H142341   4.272   2.924   4.289 -1.2398 -0.1586  1.0787
 6950TIP3    H242342   4.383   2.855   4.366 -1.4343 -0.0504  1.4599
 6951TIP3   OH242343   5.223   4.008   4.952 -0.2848 -0.1771 -0.0378
 6951TIP3    H142344   5.135   4.010   4.912  0.0268 -0.2936 -0.7488
 6951TIP3    H242345   5.279   4.053   4.888  0.5543 -1.9043 -0.5670
 6952TIP3   OH242346   1.424   3.632   4.819  0.1557  0.1941  0.0020
 6952TIP3    H142347   1.384   3.633   4.732 -0.1973  0.2521  0.1615
 6952TIP3    H242348   1.350   3.629   4.880  0.3679  0.9046  0.3170
 6953TIP3   OH242349   4.525   1.591   6.136 -0.7390  0.0892 -0.1910
 6953TIP3    H142350   4.499   1.648   6.208 -0.4578 -0.4835  0.3697
 6953TIP3    H242351   4.480   1.628   6.059 -0.9534  0.7662  0.2467
 6954TIP3   OH242352   0.810   2.190   4.787 -0.7738 -0.3090 -0.2339
 6954TIP3    H142353   0.855   2.232   4.860 -1.6691  1.4506 -0.6254
 6954TIP3    H242354   0.821   2.096   4.802  1.8367  0.0207  0.3786
 6955TIP3   OH242355   1.621   0.915  16.934  0.1212 -0.1758 -1.1076
 6955TIP3    H142356   1.530   0.885  16.927 -0.8180  1.4338  2.0907
 6955TIP3    H242357   1.671   0.837  16.956  0.4182 -1.8950 -6.4519
 6956TIP3   OH242358   6.822   1.917   1.926  0.5441 -0.0170  0.1060
 6956TIP3    H142359   6.751   1.972   1.894  0.3345  0.1198  0.7977
 6956TIP3    H242360   6.863   1.968   1.996  1.2512 -0.1444 -0.1999
 6957TIP3   OH242361   1.055   4.151   5.092 -0.1629 -0.2317 -0.2850
 6957TIP3    H142362   1.029   4.243   5.081 -2.4211 -0.7612 -0.0179
 6957TIP3    H242363   1.137   4.143   5.044 -2.0439  0.9517 -4.1231
 6958TIP3   OH242364   5.596   3.969  10.937  0.3539 -0.3987  0.1064
 6958TIP3    H142365   5.511   3.963  10.895  0.7477 -0.1129 -0.7610
 6958TIP3    H242366   5.581   3.939  11.027 -0.9206  0.9035  0.3548
 6959TIP3   OH242367   0.869   1.537  17.192  0.4040  0.0060 -0.0009
 6959TIP3    H142368   0.807   1.570  17.257  1.4600  1.3214  0.3813
 6959TIP3    H242369   0.877   1.609  17.129  2.3295  0.3288  0.5430
 6960TIP3   OH242370   0.945   0.227  15.506  0.4783 -0.2414  0.4899
 6960TIP3    H142371   1.020   0.181  15.468  0.1037  0.5769 -1.3923
 6960TIP3    H242372   0.983   0.283  15.574  1.6608  0.3681 -0.6195
 6961TIP3   OH242373   2.770   4.872   6.340  0.1679 -0.6340  0.2325
 6961TIP3    H142374   2.841   4.887   6.404  0.1810 -0.3127  0.1455
 6961TIP3    H242375   2.815   4.848   6.259  0.1578 -0.8919  0.3033
 6962TIP3   OH242376   4.715   3.659  13.691 -0.0645  0.4579  0.6919
 6962TIP3    H142377   4.732   3.732  13.750 -0.0206  0.4510  0.6874
 6962TIP3    H242378   4.627   3.676  13.656  1.0271  2.0306 -1.5067
 6963TIP3   OH242379   2.728   0.709   0.105  0.1841  0.5618  0.6761
 6963TIP3    H142380   2.691   0.662   0.031  1.1151  0.3755  0.3162
 6963TIP3    H242381   2.736   0.799   0.074 -2.7879  1.3107  1.7899
 6964TIP3   OH242382   1.784   6.478   4.603  0.3209  0.4920  0.9094
 6964TIP3    H142383   1.759   6.548   4.542 -0.0566 -1.4066 -1.2496
 6964TIP3    H242384   1.721   6.486   4.675 -0.7958  1.3499 -0.1054
 6965TIP3   OH242385   4.960   6.057   6.113 -0.0304  0.3841  0.3352
 6965TIP3    H142386   4.899   6.070   6.041 -0.1540 -0.5217  0.2694
 6965TIP3    H242387   4.906   6.030   6.187  0.2102  0.2901  0.4798
 6966TIP3   OH242388   2.921   0.878  13.182 -0.0942  0.2210  0.5104
 6966TIP3    H142389   2.904   0.841  13.095 -1.5928 -0.1562  0.9415
 6966TIP3    H242390   3.003   0.926  13.171  0.0313 -0.2623 -0.9747
 6967TIP3   OH242391   0.685   6.604  16.287 -0.0678 -0.1680 -0.8238
 6967TIP3    H142392   0.615   6.596  16.221  0.9714 -0.0969 -1.9751
 6967TIP3    H242393   0.699   6.514  16.317 -2.3430  0.0723  1.3217
 6968TIP3   OH242394   2.034   4.337  13.981  0.4354 -0.6789  0.1904
 6968TIP3    H142395   1.985   4.271  14.029 -1.9841  1.7558  1.3324
 6968TIP3    H242396   2.050   4.407  14.045 -0.2676  1.3804 -1.7354
 6969TIP3   OH242397   4.988   0.207   0.123 -0.5258  0.6643  0.5128
 6969TIP3    H142398   5.008   0.244   0.210  1.2189 -1.6240  1.1746
 6969TIP3    H242399   4.893   0.193   0.125 -0.4440  0.0438  2.3489
 6970TIP3   OH242400   6.412   5.225   3.701 -0.3356  0.1346 -0.6603
 6970TIP3    H142401   6.475   5.167   3.658  2.4777  0.1374  2.9149
 6970TIP3    H242402   6.465   5.300   3.731 -2.3987  1.0238  1.0327
 6971TIP3   OH242403   5.488   5.702  16.426  0.4821 -0.1807  0.0433
 6971TIP3    H142404   5.396   5.679  16.415  0.5059 -1.0204  1.2882
 6971TIP3    H242405   5.496   5.790  16.390 -0.5380 -0.5632 -1.1663
 6972TIP3   OH242406   6.530   3.372  16.575  0.3315  0.0763  0.8768
 6972TIP3    H142407   6.547   3.288  16.534  1.0146  1.3947 -1.7788
 6972TIP3    H242408   6.514   3.351  16.667 -0.4561 -3.0049  0.1569
 6973TIP3   OH242409   1.147   0.517  11.734 -0.2270  0.0169  0.3016
 6973TIP3    H142410   1.221   0.495  11.791 -0.5093  1.6556  1.3445
 6973TIP3    H242411   1.071   0.477  11.776  0.0132 -1.7360 -0.8126
 6974TIP3   OH242412   6.673   2.889   2.375 -0.3770 -0.2614 -0.0331
 6974TIP3    H142413   6.663   2.806   2.422  0.5279 -0.0453  0.5736
 6974TIP3    H242414   6.764   2.889   2.345 -0.6263  0.1107 -0.8144
 6975TIP3   OH242415   4.068   4.731   6.187 -0.3897  0.3104  0.1478
 6975TIP3    H142416   4.008   4.774   6.248 -2.6054 -0.0946 -1.6004
 6975TIP3    H242417   4.013   4.669   6.140  1.6169 -0.6679 -1.0357
 6976TIP3   OH242418   6.084   2.172  14.856  0.2469 -1.0222  0.2425
 6976TIP3    H142419   6.086   2.131  14.769  0.9221 -1.1523  0.3130
 6976TIP3    H242420   6.121   2.106  14.914  0.0718 -0.8219  0.5817
 6977TIP3   OH242421   0.839   5.795   1.583 -0.0065  0.5654 -0.3073
 6977TIP3    H142422   0.826   5.718   1.639  0.8158 -0.3032 -1.2695
 6977TIP3    H242423   0.782   5.862   1.621  0.3250 -0.0604  1.4140
 6978TIP3   OH242424   6.056   6.212   5.696  0.1611  0.0247 -0.3903
 6978TIP3    H142425   5.994   6.139   5.692  0.9125 -0.6466 -0.0259
 6978TIP3    H242426   6.049   6.245   5.786 -0.6910  0.8705 -0.7537
 6979TIP3   OH242427   3.294   6.670   4.348  0.3898 -0.6378 -0.1840
 6979TIP3    H142428   3.226   6.605   4.370 -0.6066  0.4664  0.0950
 6979TIP3    H242429   3.245   6.745   4.315  1.5800 -0.3125 -1.2511
 6980TIP3   OH242430   6.373   6.487   4.883  0.0313  0.3203  0.1790
 6980TIP3    H142431   6.437   6.494   4.812 -0.9026 -1.4126 -0.9220
 6980TIP3    H242432   6.424   6.501   4.963  1.2782  1.4628 -0.7826
 6981TIP3   OH242433   4.336   5.664  17.201  0.6161  0.0004 -1.1536
 6981TIP3    H142434   4.382   5.648  17.283  0.5446 -1.5493 -1.3894
 6981TIP3    H242435   4.375   5.603  17.139  0.2252  0.6998 -2.1085
 6982TIP3   OH242436   0.880   4.963   3.980  0.2123 -0.0222 -0.1005
 6982TIP3    H142437   0.845   4.874   3.978  0.9805 -0.3427  0.3813
 6982TIP3    H242438   0.847   5.000   4.062  0.9750 -0.3283  0.3594
 6983TIP3   OH242439   6.592   6.708   0.074  0.1375 -0.4534 -0.3655
 6983TIP3    H142440   6.535   6.633   0.094 -0.4650  0.3346  0.9532
 6983TIP3    H242441   6.681   6.672   0.079 -0.1675 -1.6799 -2.3669
 6984TIP3   OH242442   6.035   0.678  14.102  0.3003  0.9160 -0.5126
 6984TIP3    H142443   6.124   0.707  14.081 -0.2684  1.2111 -2.7532
 6984TIP3    H242444   5.978   0.738  14.054 -1.0453 -0.5771 -0.8720
 6985TIP3   OH242445   5.354   0.278   0.038  0.1529  0.2139 -0.2547
 6985TIP3    H142446   5.313   0.205  -0.009 -0.3767  0.9386 -0.9517
 6985TIP3    H242447   5.325   0.356  -0.010  0.6398  0.8859  0.5271
 6986TIP3   OH242448   2.828   0.464   3.373  0.7719  0.1660 -0.1695
 6986TIP3    H142449   2.815   0.471   3.468 -1.2601  0.8393 -0.4483
 6986TIP3    H242450   2.849   0.552   3.345 -0.0890  0.2582 -0.5296
 6987TIP3   OH242451   5.582   2.075   1.714  0.0289  0.6740  0.1516
 6987TIP3    H142452   5.586   2.153   1.769 -1.1462  0.4494  0.5888
 6987TIP3    H242453   5.493   2.076   1.677  0.1857 -0.1524 -0.2825
 6988TIP3   OH242454   4.545   4.886   5.606 -0.1374  0.3784  0.3972
 6988TIP3    H142455   4.588   4.803   5.624 -0.4099 -0.1708 -1.2821
 6988TIP3    H242456   4.456   4.875   5.640 -0.2782 -0.1596 -0.1356
 6989TIP3   OH242457   2.873   5.433  15.896  0.0596 -0.4245 -0.6084
 6989TIP3    H142458   2.948   5.386  15.858  0.9917 -0.4296  1.1034
 6989TIP3    H242459   2.913   5.504  15.946 -1.1044 -0.2088  0.0397
 6990TIP3   OH242460   1.705   4.717  10.844 -0.0840  0.4387 -0.3059
 6990TIP3    H142461   1.682   4.632  10.806 -0.8034 -0.6602  2.4007
 6990TIP3    H242462   1.621   4.756  10.870  0.4303 -0.9011  4.1083
 6991TIP3   OH242463   4.601   3.857  12.988  0.1576 -0.0607  0.2488
 6991TIP3    H142464   4.648   3.899  12.915  2.2736 -0.1941  1.4511
 6991TIP3    H242465   4.575   3.772  12.954 -0.5452  0.5850 -0.9139
 6992TIP3   OH242466   5.699   5.591   1.562 -0.4942  0.0107  0.1122
 6992TIP3    H142467   5.619   5.630   1.596 -0.3191 -1.2693  2.1195
 6992TIP3    H242468   5.670   5.533   1.492 -1.1981  0.2729  0.1820
 6993TIP3   OH242469   0.266   4.853  13.029  0.0184 -0.1468 -0.1638
 6993TIP3    H142470   0.300   4.799  12.958 -0.9667 -2.3000  0.9065
 6993TIP3    H242471   0.174   4.827  13.038 -0.2503  1.0680  1.0031
 6994TIP3   OH242472   2.624   4.879  11.476 -0.2153 -0.5102  0.1570
 6994TIP3    H142473   2.644   4.917  11.391  0.0315  2.1965  1.3296
 6994TIP3    H242474   2.695   4.909  11.533 -1.3372 -0.7034  1.7130
 6995TIP3   OH242475   6.139   5.033  16.985  0.0031  0.5140  0.6581
 6995TIP3    H142476   6.200   5.040  17.058  0.3888 -0.1491  0.4105
 6995TIP3    H242477   6.193   5.044  16.907  0.4890 -3.4018  0.2639
 6996TIP3   OH242478   3.028   4.153  13.906  0.0139  0.1272 -0.4278
 6996TIP3    H142479   2.949   4.128  13.859 -0.1290  0.0718 -0.1556
 6996TIP3    H242480   3.049   4.240  13.873  0.9615 -0.6401 -1.9620
 6997TIP3   OH242481   5.193   2.860   2.451  0.1471 -0.3780 -0.1391
 6997TIP3    H142482   5.206   2.867   2.357 -1.6196  1.2430 -0.3270
 6997TIP3    H242483   5.278   2.886   2.489  0.4831  0.2124 -1.2631
 6998TIP3   OH242484   5.751   0.303  15.211 -0.0626 -0.1957 -0.0581
 6998TIP3    H142485   5.668   0.289  15.164  0.2742  1.1259 -1.1206
 6998TIP3    H242486   5.725   0.346  15.292 -0.6281 -2.2113  0.8762
 6999TIP3   OH242487   1.655   0.170   0.685  0.2960 -0.1154 -0.2337
 6999TIP3    H142488   1.722   0.236   0.703  0.5722 -0.8300  1.6086
 6999TIP3    H242489   1.705   0.090   0.670 -0.0867 -0.2165 -0.9892
 7000TIP3   OH242490   1.464   2.063   0.350 -0.0404  0.1054 -0.1535
 7000TIP3    H142491   1.431   2.147   0.317 -0.4844 -0.4838 -1.2908
 7000TIP3    H242492   1.511   2.085   0.430  1.6463  1.7268 -1.4810
 7001TIP3   OH242493   4.531   2.461   2.897  0.2218  0.2353  0.2700
 7001TIP3    H142494   4.511   2.429   2.809  1.3448  0.6135 -0.1483
 7001TIP3    H242495   4.589   2.394   2.934 -0.7432 -0.2294  0.9712
 7002TIP3   OH242496   2.423   5.153   3.882  0.1833  0.3539  0.1051
 7002TIP3    H142497   2.503   5.106   3.859  0.3452  0.4288  0.4971
 7002TIP3    H242498   2.389   5.107   3.959 -0.0570  0.4264  0.0444
 7003TIP3   OH242499   6.296   2.725   5.974  0.3397 -0.0365  0.7888
 7003TIP3    H142500   6.256   2.661   6.032  0.7405 -0.6591  0.3899
 7003TIP3    H242501   6.364   2.676   5.927 -0.1423  0.3781 -0.3886
 7004TIP3   OH242502   6.413   6.754   1.012  0.3260 -0.2518  0.4159
 7004TIP3    H142503   6.369   6.712   1.086  1.8291 -1.9746  0.4172
 7004TIP3    H242504   6.506   6.750   1.033  0.6430  1.5197 -0.4513
 7005TIP3   OH242505   6.588   3.735   3.799  0.0584  0.0552 -0.2807
 7005TIP3    H142506   6.659   3.674   3.778 -0.7162 -0.8347 -0.3678
 7005TIP3    H242507   6.529   3.731   3.724 -1.0526 -0.6640  0.5944
 7006TIP3   OH242508   5.965   2.438  11.695  0.5681 -0.3284  0.6914
 7006TIP3    H142509   5.982   2.348  11.723 -0.3391 -0.6110  0.3579
 7006TIP3    H242510   6.018   2.448  11.616 -0.9046 -1.2869 -0.4867
 7007TIP3   OH242511   5.071   0.956   4.707 -0.4159 -0.1498 -0.3768
 7007TIP3    H142512   5.153   0.978   4.664  0.2604 -1.2028  0.3342
 7007TIP3    H242513   5.028   1.041   4.721 -0.1677  0.2999 -2.1083
 7008TIP3   OH242514   6.571   5.237  14.468 -0.1811  0.3619 -0.3354
 7008TIP3    H142515   6.535   5.148  14.478  0.2243 -0.5240 -4.6245
 7008TIP3    H242516   6.511   5.279  14.406  1.1133  2.1443 -0.4287
 7009TIP3   OH242517   3.724   6.214   0.289  0.1453 -0.0730  0.5493
 7009TIP3    H142518   3.756   6.193   0.376 -0.8951 -1.5140  0.6137
 7009TIP3    H242519   3.688   6.302   0.298  0.6429  0.0554  1.3975
 7010TIP3   OH242520   2.734   0.733   2.561 -0.9242  0.5685 -0.1411
 7010TIP3    H142521   2.665   0.686   2.514 -1.6229  0.8861  0.5692
 7010TIP3    H242522   2.813   0.714   2.510 -1.3278 -0.7144 -0.3258
 7011TIP3   OH242523   6.397   4.832   4.687  0.1907 -0.1262 -0.0902
 7011TIP3    H142524   6.477   4.880   4.664 -0.2538  0.5657 -0.2179
 7011TIP3    H242525   6.352   4.889   4.749  1.1824 -1.7766  2.3060
 7012TIP3   OH242526   4.899   5.192  14.882  0.1729  0.0748  0.1904
 7012TIP3    H142527   4.986   5.191  14.923  0.3308  0.8582 -0.1024
 7012TIP3    H242528   4.915   5.173  14.790 -0.0283 -0.3037  0.2315
 7013TIP3   OH242529   5.445   0.634   0.160  0.5501  0.3671  0.4125
 7013TIP3    H142530   5.418   0.630   0.068  2.0733  0.1044 -0.0523
 7013TIP3    H242531   5.365   0.659   0.207 -0.3455  0.1756 -0.9293
 7014TIP3   OH242532   3.183   0.970  16.960 -0.7071  0.3392 -0.5746
 7014TIP3    H142533   3.217   0.914  16.891 -0.4360  0.4178 -0.5048
 7014TIP3    H242534   3.254   0.975  17.024 -0.3469  1.5901 -1.0502
 7015TIP3   OH242535   2.392   1.501  14.786  0.4449  0.2226  0.3917
 7015TIP3    H142536   2.353   1.431  14.839 -1.0195  1.0372  0.4390
 7015TIP3    H242537   2.376   1.581  14.836 -0.4275  0.9345 -0.9678
 7016TIP3   OH242538   1.250   3.535   1.701  0.3547  0.3119 -0.4217
 7016TIP3    H142539   1.160   3.504   1.694  0.7284 -0.6815 -1.0706
 7016TIP3    H242540   1.285   3.490   1.778 -0.0109  1.5513  0.5038
 7017TIP3   OH242541   4.563   6.619  13.236  0.2060  0.0481 -0.7597
 7017TIP3    H142542   4.552   6.696  13.180  1.8215 -0.3784 -1.7563
 7017TIP3    H242543   4.658   6.613  13.249  0.3406 -2.8452 -2.3115
 7018TIP3   OH242544   2.486   2.890   1.350 -0.1677 -0.5381 -0.2014
 7018TIP3    H142545   2.510   2.975   1.314  0.7923 -0.5621  0.3505
 7018TIP3    H242546   2.459   2.839   1.274  0.3855 -0.1193 -0.6872
 7019TIP3   OH242547   3.402   2.890  16.545 -0.6084 -0.2905 -0.0809
 7019TIP3    H142548   3.494   2.913  16.535 -0.6313 -0.0529  0.2629
 7019TIP3    H242549   3.366   2.894  16.456 -0.2061 -0.7278 -0.2649
 7020TIP3   OH242550   2.612   5.749  13.628 -0.2347  0.6999 -0.7578
 7020TIP3    H142551   2.595   5.796  13.546  0.6369  0.2183 -1.2290
 7020TIP3    H242552   2.551   5.787  13.691 -1.4517  0.5605 -1.8153
 7021TIP3   OH242553   5.356   2.862   1.676 -0.2135  0.2324 -0.1904
 7021TIP3    H142554   5.285   2.814   1.635  0.3399 -0.7914  0.0058
 7021TIP3    H242555   5.314   2.916   1.743 -0.8176 -0.2258 -0.1939
 7022TIP3   OH242556   1.584   6.157   6.201 -0.4452  0.0271  0.2243
 7022TIP3    H142557   1.666   6.112   6.182 -1.0220 -0.8430 -0.2609
 7022TIP3    H242558   1.575   6.152   6.297 -1.4248 -2.6044  0.0593
 7023TIP3   OH242559   3.110   2.112  14.514  0.6790  0.1507  0.3426
 7023TIP3    H142560   3.182   2.066  14.471  1.1421  0.6633  0.5469
 7023TIP3    H242561   3.054   2.141  14.442 -1.5469 -3.6365  0.2870
 7024TIP3   OH242562   0.378   4.677  13.539  0.4519  0.3307 -0.4711
 7024TIP3    H142563   0.342   4.632  13.463 -0.3691  0.6517 -0.2815
 7024TIP3    H242564   0.472   4.662  13.534  0.5345  1.2403 -2.1240
 7025TIP3   OH242565   5.830   2.282  14.633  0.4626  1.0618  0.1722
 7025TIP3    H142566   5.787   2.198  14.618  1.2627  0.6759 -0.0383
 7025TIP3    H242567   5.897   2.262  14.699  1.3670  1.2925 -0.6609
 7026TIP3   OH242568   3.194   1.970   2.728  0.2640 -0.2931  0.0134
 7026TIP3    H142569   3.289   1.959   2.732  0.3785  0.7427  0.3505
 7026TIP3    H242570   3.178   2.058   2.763 -0.5569  0.8334 -2.9052
 7027TIP3   OH242571   4.464   1.502  12.846 -0.2513  0.3702 -0.0284
 7027TIP3    H142572   4.427   1.564  12.783  0.9247 -0.8013 -1.9509
 7027TIP3    H242573   4.532   1.552  12.891 -0.6863  1.0467 -0.1103
 7028TIP3   OH242574   2.235   0.874   2.128  0.2898 -0.1204 -0.0958
 7028TIP3    H142575   2.252   0.780   2.132 -1.4298 -0.5170 -1.2158
 7028TIP3    H242576   2.140   0.881   2.131  0.3861  1.5944 -0.2415
 7029TIP3   OH242577   3.416   4.150   5.508  0.3714 -0.4221  0.6206
 7029TIP3    H142578   3.383   4.212   5.444 -1.8053 -0.7974  1.2740
 7029TIP3    H242579   3.510   4.146   5.492  0.1466  0.8033 -1.3545
 7030TIP3   OH242580   4.767   1.332  15.065  0.0388 -0.1406  0.2403
 7030TIP3    H142581   4.777   1.311  14.972 -0.2530  0.6214  0.0304
 7030TIP3    H242582   4.842   1.388  15.086 -0.0230 -0.1186  0.4067
 7031TIP3   OH242583   4.935   5.355  13.878 -0.3561  0.2922  0.0439
 7031TIP3    H142584   4.972   5.306  13.805  0.1609 -1.6686  1.5328
 7031TIP3    H242585   4.910   5.439  13.841  0.4957 -0.3949 -2.2201
 7032TIP3   OH242586   3.351   0.391   0.940  0.4559 -0.0450 -0.2881
 7032TIP3    H142587   3.321   0.452   0.873 -0.5417  1.5753  1.5163
 7032TIP3    H242588   3.400   0.446   1.002  2.3948 -1.6890 -0.2709
 7033TIP3   OH242589   2.527   0.683   6.307 -0.1712 -0.0900  0.6779
 7033TIP3    H142590   2.462   0.750   6.286 -1.7354 -2.3071 -2.3237
 7033TIP3    H242591   2.476   0.612   6.346 -0.0991 -2.5713 -3.2699
 7034TIP3   OH242592   2.474   5.850   5.892  0.0659 -0.3347 -0.0241
 7034TIP3    H142593   2.488   5.925   5.835 -1.3632  0.4762  0.6250
 7034TIP3    H242594   2.556   5.841   5.941  0.6092  0.1685 -0.8219
 7035TIP3   OH242595   1.520   1.876  14.552 -0.0211  0.0554 -0.1595
 7035TIP3    H142596   1.590   1.874  14.487  0.0818  0.6115 -0.0679
 7035TIP3    H242597   1.526   1.791  14.596 -0.1989 -0.3972 -0.9847
 7036TIP3   OH242598   1.645   0.543  13.454 -0.2492  0.1269  0.4105
 7036TIP3    H142599   1.635   0.558  13.360  0.2164  0.0424  0.3464
 7036TIP3    H242600   1.699   0.464  13.460  0.5951  0.7263  0.7513
 7037TIP3   OH242601   0.658   2.858  12.589 -0.3851 -0.2081  0.1161
 7037TIP3    H142602   0.721   2.805  12.638 -1.2477  0.0194  1.5504
 7037TIP3    H242603   0.663   2.826  12.499  1.8304 -0.1067  0.1686
 7038TIP3   OH242604   4.440   5.290  11.341 -0.2075 -0.7035  0.0242
 7038TIP3    H142605   4.404   5.372  11.376  2.1648 -0.7173  2.8753
 7038TIP3    H242606   4.493   5.317  11.266 -1.0827  0.0692 -0.3376
 7039TIP3   OH242607   1.835   6.286  13.518  0.2658  0.3596  0.0852
 7039TIP3    H142608   1.785   6.345  13.462  0.2281  1.4070  1.1790
 7039TIP3    H242609   1.921   6.281  13.476  0.0059  0.5144 -0.4728
 7040TIP3   OH242610   2.535   1.840  16.559 -0.9769  0.2734 -0.3673
 7040TIP3    H142611   2.603   1.817  16.495 -0.4125 -1.4771  0.7872
 7040TIP3    H242612   2.453   1.821  16.514 -0.7704  2.4479 -1.7987
 7041TIP3   OH242613   3.283   2.208   6.433 -0.5556 -0.1793  0.4506
 7041TIP3    H142614   3.375   2.186   6.420 -0.8600 -0.3430 -1.7612
 7041TIP3    H242615   3.236   2.128   6.412 -1.2451  0.0800  0.9776
 7042TIP3   OH242616   0.975   2.203  10.960 -0.4877 -0.0123  0.1360
 7042TIP3    H142617   0.912   2.244  10.901 -1.2474  0.7204  1.4210
 7042TIP3    H242618   1.055   2.196  10.907 -0.9008  1.3537 -0.7344
 7043TIP3   OH242619   3.987   2.788   3.767  0.2194 -0.1759 -0.5033
 7043TIP3    H142620   3.902   2.828   3.753 -0.1075 -0.9035 -0.6376
 7043TIP3    H242621   4.047   2.840   3.714 -0.2164  0.0483 -0.7791
 7044TIP3   OH242622   2.957   0.690   1.276  0.3025  0.0901 -0.8475
 7044TIP3    H142623   2.931   0.730   1.193 -0.6182  1.3202 -0.0144
 7044TIP3    H242624   3.040   0.732   1.297 -0.0827  0.7289 -0.5548
 7045TIP3   OH242625   0.520   1.078  11.864 -0.2538  0.0251 -0.1575
 7045TIP3    H142626   0.443   1.075  11.808  0.4917 -0.8131 -1.1777
 7045TIP3    H242627   0.589   1.036  11.813  0.2941 -1.3887  1.6426
 7046TIP3   OH242628   1.609   6.466  14.720  0.4188 -0.1102 -0.6046
 7046TIP3    H142629   1.649   6.524  14.655 -1.5983  0.3790 -1.4662
 7046TIP3    H242630   1.552   6.409  14.668 -0.9885  0.0724  0.7021
 7047TIP3   OH242631   4.595   2.600  14.930 -0.2190  0.8948  0.3155
 7047TIP3    H142632   4.555   2.683  14.905  1.1898  1.8494  1.1310
 7047TIP3    H242633   4.689   2.614  14.919 -0.0499 -1.4125 -1.9173
 7048TIP3   OH242634   1.770   3.784  13.975  0.9249  0.0449  0.1853
 7048TIP3    H142635   1.687   3.830  13.989 -0.1334 -1.9223  0.8698
 7048TIP3    H242636   1.835   3.853  13.966 -0.6859  1.6526  0.2825
 7049TIP3   OH242637   6.689   5.966   3.710  0.6237  0.4644  0.0478
 7049TIP3    H142638   6.628   5.893   3.721 -1.3795  1.9368 -0.6170
 7049TIP3    H242639   6.759   5.948   3.772  0.1204 -1.9141  0.0349
 7050TIP3   OH242640   5.118   4.348  17.147  0.2014 -0.7618  0.2903
 7050TIP3    H142641   5.136   4.256  17.163 -2.4628 -1.3089  0.5283
 7050TIP3    H242642   5.101   4.385  17.233  2.6108  0.3662  0.3726
 7051TIP3   OH242643   5.284   4.960  11.367  0.3867 -0.0317 -0.4817
 7051TIP3    H142644   5.325   4.933  11.450 -0.1551  1.9426  0.5143
 7051TIP3    H242645   5.345   4.930  11.300  2.9470  1.6469  0.8730
 7052TIP3   OH242646   1.577   2.055  11.728 -0.4714 -0.2762 -0.5491
 7052TIP3    H142647   1.540   2.026  11.645 -0.8412 -0.6066 -0.2765
 7052TIP3    H242648   1.612   1.974  11.767 -1.0880 -0.2738  0.0103
 7053TIP3   OH242649   2.996   3.531   6.711  0.1210  0.4804 -0.1678
 7053TIP3    H142650   3.084   3.513   6.746  0.1664 -0.7337 -0.8187
 7053TIP3    H242651   2.937   3.497   6.778  0.0397  3.1895  1.2662
 7054TIP3   OH242652   1.724   4.257   5.449  0.7171  0.0967  0.0311
 7054TIP3    H142653   1.740   4.328   5.511 -1.5016  0.8354 -0.1352
 7054TIP3    H242654   1.706   4.301   5.366  3.0517 -0.8540 -1.0901
 7055TIP3   OH242655   2.933   6.256   6.092 -0.0128 -0.1101  0.3625
 7055TIP3    H142656   3.027   6.273   6.083  0.1670 -0.5878  1.2966
 7055TIP3    H242657   2.927   6.163   6.112 -0.8328 -0.6536 -2.0104
 7056TIP3   OH242658   3.619   0.986  13.051  0.0318  0.1014  0.6286
 7056TIP3    H142659   3.616   1.041  13.128  0.8910  0.0070  0.7406
 7056TIP3    H242660   3.596   0.899  13.082  1.4532 -0.1704  1.0264
 7057TIP3   OH242661   3.763   3.812  15.485  0.0340 -0.3279  0.3360
 7057TIP3    H142662   3.700   3.755  15.442 -0.1217  0.6617 -0.8061
 7057TIP3    H242663   3.842   3.759  15.492 -0.9265 -1.6325  1.9162
 7058TIP3   OH242664   2.884   3.781  16.762  0.1099  0.3726 -0.0959
 7058TIP3    H142665   2.799   3.811  16.729 -0.3198  2.1702  2.3565
 7058TIP3    H242666   2.944   3.853  16.742  0.9388 -0.5508 -1.0992
 7059TIP3   OH242667   3.747   4.299   5.867 -0.1269  0.1613  0.2387
 7059TIP3    H142668   3.672   4.330   5.815 -0.8483 -2.2525 -0.2947
 7059TIP3    H242669   3.734   4.339   5.953 -1.7285  0.2786 -0.0179
 7060TIP3   OH242670   4.577   0.697  14.036 -0.1933  0.1934  0.1327
 7060TIP3    H142671   4.647   0.646  14.078 -0.8727 -0.7521  0.1537
 7060TIP3    H242672   4.615   0.724  13.953  0.9684  1.5916  1.0569
 7061TIP3   OH242673   6.605   0.945   5.450  0.3909 -0.1467  0.2937
 7061TIP3    H142674   6.669   0.876   5.466  2.7874  2.1217  1.2932
 7061TIP3    H242675   6.561   0.957   5.534 -1.5101 -1.7361 -0.4044
 7062TIP3   OH242676   4.278   1.617   4.764  0.0420  0.1415 -0.1984
 7062TIP3    H142677   4.348   1.680   4.784 -1.1490  1.1063  1.1903
 7062TIP3    H242678   4.228   1.611   4.845 -1.0297 -1.1284 -0.9233
 7063TIP3   OH242679   4.677   0.083   1.950 -0.4934  0.2443 -0.1267
 7063TIP3    H142680   4.741   0.025   1.910  1.3515  0.3911  2.3667
 7063TIP3    H242681   4.593   0.041   1.935  0.4816 -1.4922 -0.9915
 7064TIP3   OH242682   5.500   2.219   4.636 -0.2615 -0.0996 -0.1035
 7064TIP3    H142683   5.504   2.284   4.707  0.7084 -0.9780  0.6864
 7064TIP3    H242684   5.489   2.135   4.682 -0.8749 -0.5646 -1.0766
 7065TIP3   OH242685   2.474   1.343   5.637  0.0140 -0.0141 -0.7543
 7065TIP3    H142686   2.526   1.412   5.679  0.5427 -0.3439 -0.8585
 7065TIP3    H242687   2.536   1.272   5.623 -0.4021 -0.3018 -1.1532
 7066TIP3   OH242688   5.379   2.485   1.750 -0.5574 -0.2690 -0.7011
 7066TIP3    H142689   5.417   2.554   1.804  2.1409 -1.7516 -0.4909
 7066TIP3    H242690   5.285   2.492   1.763 -0.3545  2.9752 -0.2933
 7067TIP3   OH242691   4.201   1.861   5.114  0.5689 -0.1340  0.4505
 7067TIP3    H142692   4.281   1.822   5.152 -0.6734 -2.2879  1.0456
 7067TIP3    H242693   4.144   1.786   5.097 -0.8765  1.2430 -1.1108
 7068TIP3   OH242694   3.246   2.262   4.017  0.4172 -0.1043  0.4016
 7068TIP3    H142695   3.247   2.230   4.107  1.5371 -0.5939  0.2272
 7068TIP3    H242696   3.240   2.182   3.964 -1.0949  0.2147  0.0387
 7069TIP3   OH242697   2.357   0.734  15.844 -0.0252  1.0555  0.2625
 7069TIP3    H142698   2.286   0.675  15.868  0.7050  0.4194  0.9091
 7069TIP3    H242699   2.386   0.703  15.758  0.8765 -0.0498  0.9448
 7070TIP3   OH242700   1.700   3.663  13.007 -0.0932 -0.0302  0.2416
 7070TIP3    H142701   1.761   3.654  12.933  0.0507  0.6903  0.2670
 7070TIP3    H242702   1.681   3.757  13.011 -0.2440 -0.0894  1.0054
 7071TIP3   OH242703   4.450   3.106  13.048 -0.1575 -0.1584 -0.0580
 7071TIP3    H142704   4.365   3.105  13.093 -1.1264  0.0216 -1.7867
 7071TIP3    H242705   4.478   3.014  13.049  0.1858 -0.0660  1.4587
 7072TIP3   OH242706   0.355   2.388   1.707 -0.0059 -0.2516 -0.1095
 7072TIP3    H142707   0.390   2.347   1.628 -0.9851 -0.2246 -0.5761
 7072TIP3    H242708   0.271   2.425   1.680  0.7222  1.8903  0.3313
 7073TIP3   OH242709   1.962   3.199  13.291  0.6095 -0.0801 -0.0001
 7073TIP3    H142710   1.901   3.193  13.365  1.4415  1.0753  0.8205
 7073TIP3    H242711   1.987   3.108  13.273 -0.1192 -0.4287  0.6993
 7074TIP3   OH242712   3.881   3.698  15.807  0.3345 -0.5372 -0.0803
 7074TIP3    H142713   3.918   3.652  15.882 -1.9669 -0.9087  0.9178
 7074TIP3    H242714   3.846   3.779  15.844 -1.3996 -1.0167 -0.5539
 7075TIP3   OH242715   3.052   5.962  15.597  0.4198 -0.0716  0.4821
 7075TIP3    H142716   3.019   5.878  15.629 -1.1773  0.4188  0.2220
 7075TIP3    H242717   3.013   6.027  15.655  0.8602  0.5486  0.0970
 7076TIP3   OH242718   5.946   5.698   2.737  0.1029  0.2978 -0.3400
 7076TIP3    H142719   5.912   5.711   2.649  0.1928 -1.3028 -0.6525
 7076TIP3    H242720   5.877   5.730   2.795 -0.2273  0.7663 -0.9858
 7077TIP3   OH242721   3.781   0.442   1.776 -0.0301 -0.0385 -0.5979
 7077TIP3    H142722   3.807   0.467   1.864  0.0001  0.7764 -0.8367
 7077TIP3    H242723   3.705   0.496   1.756 -1.8297 -2.1920 -0.0120
 7078TIP3   OH242724   2.794   5.559  14.215  0.2457 -0.4178  0.1618
 7078TIP3    H142725   2.867   5.498  14.209  0.6986  0.2612 -2.0880
 7078TIP3    H242726   2.833   5.643  14.240  0.2397 -0.1252 -0.7475
 7079TIP3   OH242727   5.440   4.002   5.816 -0.2132  0.2735 -0.0338
 7079TIP3    H142728   5.523   4.015   5.771 -0.0474 -1.5944 -0.3289
 7079TIP3    H242729   5.464   3.981   5.906 -0.2599 -1.5520 -0.4111
 7080TIP3   OH242730   1.812   6.734   3.682 -0.3033  0.0433 -0.3923
 7080TIP3    H142731   1.724   6.721   3.717  0.2677  0.8079  1.4201
 7080TIP3    H242732   1.846   6.811   3.727  0.5794  0.9944 -2.5462
 7081TIP3   OH242733   3.515   6.006   0.406 -0.4881 -0.0992  0.3434
 7081TIP3    H142734   3.549   6.077   0.459 -1.5637 -0.0658  1.0080
 7081TIP3    H242735   3.440   6.043   0.360 -1.2686 -0.8708  0.9565
 7082TIP3   OH242736   5.117   6.535  14.044 -0.1357 -0.1346 -0.5805
 7082TIP3    H142737   5.182   6.601  14.067 -0.1796 -0.1387 -0.4424
 7082TIP3    H242738   5.162   6.451  14.055 -0.7296 -0.2374  1.4453
 7083TIP3   OH242739   0.516   0.140   4.607 -0.0922  0.4974  0.2586
 7083TIP3    H142740   0.469   0.143   4.691  0.2961 -1.2332  0.5644
 7083TIP3    H242741   0.529   0.047   4.590  1.6976  0.8860 -0.6938
 7084TIP3   OH242742   5.427   1.953   5.991 -0.4814  0.0938  0.2780
 7084TIP3    H142743   5.408   1.957   6.084 -2.5713  1.4510 -0.1399
 7084TIP3    H242744   5.342   1.936   5.950  0.0483  1.3962 -1.4789
 7085TIP3   OH242745   1.866   1.989  11.611 -0.1927 -0.0772  0.4677
 7085TIP3    H142746   1.957   2.011  11.631 -0.3374  0.9528  0.0397
 7085TIP3    H242747   1.872   1.923  11.542  0.2314  0.9478 -0.5061
 7086TIP3   OH242748   2.684   0.611  14.015 -0.4416 -0.2430 -0.5204
 7086TIP3    H142749   2.774   0.632  13.992 -0.4674 -1.0795 -1.4466
 7086TIP3    H242750   2.687   0.590  14.108  0.4071 -0.7242 -0.6472
 7087TIP3   OH242751   1.766   2.897  10.864  0.1623 -0.6076 -0.5227
 7087TIP3    H142752   1.748   2.807  10.890 -0.7555 -0.5250 -0.8326
 7087TIP3    H242753   1.847   2.892  10.813 -1.4372 -1.7613 -3.1874
 7088TIP3   OH242754   4.857   3.658  14.680  0.2621  0.7044 -0.0140
 7088TIP3    H142755   4.912   3.639  14.604 -0.8908 -2.4091 -0.1757
 7088TIP3    H242756   4.915   3.644  14.755  0.5507  0.6637 -0.2423
 7089TIP3   OH242757   0.066   2.093   0.148  0.9275  0.1134  0.0198
 7089TIP3    H142758   0.136   2.157   0.161  1.3101 -0.6539  2.0993
 7089TIP3    H242759  -0.005   2.143   0.110  1.5290  1.6016  0.7748
 7090TIP3   OH242760   0.047   5.496  17.032  0.3329  0.1616 -0.1029
 7090TIP3    H142761   0.107   5.426  17.054  0.2466  0.1540  0.1065
 7090TIP3    H242762   0.048   5.554  17.108  2.4070  1.7972 -1.2809
 7091TIP3   OH242763   3.082   6.492   4.413 -0.5098 -0.4652 -0.2201
 7091TIP3    H142764   3.067   6.411   4.461  0.1033 -0.1869  0.4512
 7091TIP3    H242765   2.996   6.535   4.411 -0.6602 -0.7471  0.1210
 7092TIP3   OH242766   4.206   5.162  16.762  0.1416 -0.0167  0.0031
 7092TIP3    H142767   4.163   5.151  16.678 -1.4227  1.6079  0.5314
 7092TIP3    H242768   4.259   5.241  16.752 -0.1289  0.2428  0.5737
 7093TIP3   OH242769   4.850   6.309  11.836  0.0502  0.3527  0.2611
 7093TIP3    H142770   4.922   6.293  11.898 -2.8445 -1.0732  3.6199
 7093TIP3    H242771   4.784   6.356  11.888 -1.2393  2.2484 -2.8478
 7094TIP3   OH242772   1.734   3.787  14.606  0.3413  0.2103 -0.1578
 7094TIP3    H142773   1.779   3.780  14.522 -1.0872  0.1006 -0.9499
 7094TIP3    H242774   1.801   3.818  14.667  1.5866 -0.3872 -1.1734
 7095TIP3   OH242775   1.678   3.685  10.487  0.5861 -0.3905  0.4262
 7095TIP3    H142776   1.663   3.775  10.517  1.1703 -0.5179  1.1209
 7095TIP3    H242777   1.729   3.645  10.557  1.1535 -0.9781 -0.3171
 7096TIP3   OH242778   2.855   5.410   2.836  0.5855 -0.0356  0.0203
 7096TIP3    H142779   2.870   5.476   2.904  0.4625 -1.0465  1.0426
 7096TIP3    H242780   2.813   5.337   2.881  0.3437 -0.6667 -1.1785
 7097TIP3   OH242781   6.629   6.433   1.213  0.4179  0.5378  0.6111
 7097TIP3    H142782   6.595   6.428   1.123  3.0367 -0.5291 -0.4517
 7097TIP3    H242783   6.665   6.346   1.229  0.3957  0.8513  2.5643
 7098TIP3   OH242784   2.349   1.254  13.456  0.2501  0.6096 -0.6221
 7098TIP3    H142785   2.380   1.285  13.371 -0.2242  3.2703  0.0759
 7098TIP3    H242786   2.288   1.183  13.435  0.1964  1.1485 -2.4997
 7099TIP3   OH242787   6.515   3.307   1.112  0.2735  0.1738 -0.1478
 7099TIP3    H142788   6.532   3.393   1.153  0.0112  0.0657  0.1934
 7099TIP3    H242789   6.567   3.309   1.032 -0.3318  0.9601 -0.5377
 7100TIP3   OH242790   5.860   4.149   3.674 -0.4775  0.3855  0.4732
 7100TIP3    H142791   5.835   4.084   3.741 -2.2265  0.1675 -0.3232
 7100TIP3    H242792   5.845   4.104   3.591 -0.1687  1.2897 -0.0789
 7101TIP3   OH242793   1.617   6.467   1.752  0.2919 -0.7415 -0.3289
 7101TIP3    H142794   1.687   6.402   1.744  0.6408 -0.3972 -0.0768
 7101TIP3    H242795   1.584   6.477   1.662 -0.2900 -1.8364 -0.2577
 7102TIP3   OH242796   0.884   3.413   1.910 -0.0976 -0.4941  0.4271
 7102TIP3    H142797   0.907   3.386   1.821  0.3918 -0.5073  0.5518
 7102TIP3    H242798   0.914   3.341   1.966 -1.0701 -0.8130  0.5404
 7103TIP3   OH242799   5.995   3.835  16.499 -0.7885 -0.0641  0.4748
 7103TIP3    H142800   5.960   3.884  16.573 -1.5247 -0.6374  0.5195
 7103TIP3    H242801   5.967   3.884  16.422 -2.3830 -0.9142  0.4739
 7104TIP3   OH242802   6.711   4.705   4.410  0.1445  0.0298 -0.1198
 7104TIP3    H142803   6.782   4.666   4.461 -0.8849 -2.0038 -0.1292
 7104TIP3    H242804   6.632   4.689   4.461 -0.2957  2.7992  0.1818
 7105TIP3   OH242805   5.262   2.198  12.560  0.1586  0.4765 -0.1089
 7105TIP3    H142806   5.289   2.122  12.509 -1.2726 -0.8177  0.9542
 7105TIP3    H242807   5.197   2.242  12.505  0.0510  0.2050 -0.2000
 7106TIP3   OH242808   2.569   3.614   1.653 -0.4331 -0.0351  0.2265
 7106TIP3    H142809   2.580   3.707   1.675  1.0300 -0.6799  2.6328
 7106TIP3    H242810   2.562   3.570   1.738  1.4898 -2.4025 -0.7211
 7107TIP3   OH242811   2.892   3.868   1.616 -0.4564 -0.7550 -0.3416
 7107TIP3    H142812   2.811   3.876   1.666 -0.4355 -1.1308 -0.2448
 7107TIP3    H242813   2.908   3.956   1.583  0.0055 -0.2943  1.0391
 7108TIP3   OH242814   2.503   0.282   5.792  0.0583 -0.1587  0.8653
 7108TIP3    H142815   2.464   0.224   5.857  0.6818  0.7772  2.1333
 7108TIP3    H242816   2.539   0.354   5.843  0.4798  0.6766 -0.5447
 7109TIP3   OH242817   4.013   1.898  15.748  0.1466  0.3681  0.4142
 7109TIP3    H142818   3.981   1.936  15.666 -0.8980  0.8741  1.0263
 7109TIP3    H242819   3.938   1.904  15.808  0.5764 -0.8915  1.1190
 7110TIP3   OH242820   1.327   0.012   0.574  0.0121 -1.0145 -0.5373
 7110TIP3    H142821   1.305   0.019   0.481  0.7178 -0.2339 -0.6585
 7110TIP3    H242822   1.333  -0.082   0.591 -0.6226 -1.1712 -1.1570
 7111TIP3   OH242823   2.176   1.977  16.574  0.0688  0.0899  0.2077
 7111TIP3    H142824   2.156   1.959  16.666  0.1859 -0.3772  0.1446
 7111TIP3    H242825   2.198   1.891  16.537  0.6159  0.3635 -0.1086
 7112TIP3   OH242826   2.872   1.301  10.848 -0.2449 -0.3563  0.3755
 7112TIP3    H142827   2.802   1.235  10.853 -1.3843  0.8019  0.3898
 7112TIP3    H242828   2.891   1.322  10.939 -1.6532  1.0831  0.3834
 7113TIP3   OH242829   1.462   2.313  13.855 -0.8803 -0.4442 -0.0643
 7113TIP3    H142830   1.432   2.300  13.765  1.3633  0.4780 -1.0222
 7113TIP3    H242831   1.407   2.384  13.889 -0.6275  0.3735 -1.3194
 7114TIP3   OH242832   1.262   2.756   4.113 -0.6680  0.0582  0.6606
 7114TIP3    H142833   1.173   2.733   4.141 -0.0303 -2.5562  0.8151
 7114TIP3    H242834   1.295   2.676   4.071  0.9148  1.6137 -1.2558
 7115TIP3   OH242835   5.562   2.481  15.765 -0.0534 -0.1789  0.1658
 7115TIP3    H142836   5.527   2.569  15.773  0.9269  0.2095  0.2192
 7115TIP3    H242837   5.494   2.433  15.717  0.5510  1.3112 -2.4008
 7116TIP3   OH242838   1.755   6.168   2.895  0.0251  0.3222 -0.1979
 7116TIP3    H142839   1.720   6.255   2.914 -1.1895 -0.4546  1.3465
 7116TIP3    H242840   1.698   6.135   2.825 -1.3473 -0.2638  1.1282
 7117TIP3   OH242841   5.399   5.027   4.663 -0.0467 -0.2071 -0.1596
 7117TIP3    H142842   5.425   5.050   4.753  0.3283 -2.1355  0.2621
 7117TIP3    H242843   5.348   4.948   4.673  0.8941 -1.0490 -1.7362
 7118TIP3   OH242844   0.538   0.919   1.170  0.5730 -0.3342  0.2407
 7118TIP3    H142845   0.504   0.832   1.147  2.0718 -1.0076  0.4771
 7118TIP3    H242846   0.524   0.926   1.264  0.3449 -0.2673  0.2024
 7119TIP3   OH242847   1.878   0.021   2.280  0.0574 -0.4035  0.3721
 7119TIP3    H142848   1.803  -0.034   2.303 -1.0425  0.8016 -0.1950
 7119TIP3    H242849   1.879   0.021   2.184  1.7056 -1.5923  0.3617
 7120TIP3   OH242850   0.252   1.271   0.105  0.0236  0.2127 -0.5221
 7120TIP3    H142851   0.342   1.300   0.091  0.3027  0.1147  0.8777
 7120TIP3    H242852   0.229   1.223   0.026  1.5383 -0.5584 -0.5183
 7121TIP3   OH242853   4.440   1.293   4.483 -0.3912  0.3352  0.3940
 7121TIP3    H142854   4.388   1.238   4.541  0.9571 -0.1403  1.1929
 7121TIP3    H242855   4.523   1.246   4.473 -0.9470 -0.2141 -2.8918
 7122TIP3   OH242856   6.564   0.760  15.395  0.0213  0.2312  0.4090
 7122TIP3    H142857   6.653   0.770  15.431  0.4658 -1.0838 -0.2583
 7122TIP3    H242858   6.573   0.782  15.302 -0.9921  2.9722  0.8769
 7123TIP3   OH242859   5.677   5.414  13.116 -0.1777 -0.9240 -1.0327
 7123TIP3    H142860   5.655   5.324  13.139 -1.5094 -0.3075  0.3206
 7123TIP3    H242861   5.686   5.459  13.201  2.4288 -0.1839 -1.6242
 7124TIP3   OH242862   2.974   2.997   6.564 -0.0669  0.0544  0.1873
 7124TIP3    H142863   2.949   2.910   6.594  1.8848 -0.7229 -0.2991
 7124TIP3    H242864   3.044   3.024   6.623  1.9950 -0.3771 -1.9224
 7125TIP3   OH242865   5.558   1.396  13.413  0.2545  0.0891 -0.3277
 7125TIP3    H142866   5.571   1.370  13.504 -0.0216  1.4891  0.1362
 7125TIP3    H242867   5.490   1.336  13.381 -1.4926  1.1682  1.1571
 7126TIP3   OH242868   0.027   4.341  11.544 -0.3554  0.1942  0.0398
 7126TIP3    H142869  -0.027   4.262  11.546  0.8450 -0.6822 -0.3765
 7126TIP3    H242870  -0.029   4.408  11.506 -1.7370 -0.1738  1.3703
 7127TIP3   OH242871   2.565   1.800  15.050 -0.1917  0.0373 -0.1539
 7127TIP3    H142872   2.531   1.878  15.092 -2.2547 -0.7651 -0.2034
 7127TIP3    H242873   2.641   1.830  15.000 -0.9456  1.9995 -0.1917
 7128TIP3   OH242874   5.596   4.209   4.967  0.0226  0.0691  0.2300
 7128TIP3    H142875   5.513   4.248   4.993 -0.0181  0.2968 -0.2217
 7128TIP3    H242876   5.602   4.228   4.873  0.2804 -0.5018  0.1274
 7129TIP3   OH242877   6.709   1.183   3.292  0.5304 -0.0028 -0.7502
 7129TIP3    H142878   6.676   1.254   3.347  1.4636  0.3209 -0.5890
 7129TIP3    H242879   6.798   1.211   3.268  2.0699 -2.3827  1.6817
 7130TIP3   OH242880   2.210   1.863   2.051 -0.4094 -0.2336 -0.1920
 7130TIP3    H142881   2.253   1.792   2.099 -1.0536 -0.6005 -0.1494
 7130TIP3    H242882   2.117   1.841   2.055 -0.4153 -0.9318 -2.6528
 7131TIP3   OH242883   2.974   6.334   3.864  0.5150 -0.6344 -0.1588
 7131TIP3    H142884   2.993   6.297   3.951  0.1320 -0.8447 -0.1612
 7131TIP3    H242885   3.058   6.371   3.836  0.6572 -0.6054  0.2800
 7132TIP3   OH242886   1.187   3.919  12.100  0.1641 -0.0948 -0.2269
 7132TIP3    H142887   1.147   3.927  12.187 -0.6480 -1.0674 -0.4926
 7132TIP3    H242888   1.119   3.948  12.040  1.1632  1.8290 -0.4961
 7133TIP3   OH242889   3.745   0.956   2.172  0.1741 -0.4774  0.2096
 7133TIP3    H142890   3.770   0.924   2.258  0.6962  2.2498  1.1688
 7133TIP3    H242891   3.809   0.917   2.112  0.5174 -1.4859  1.2107
 7134TIP3   OH242892   4.191   4.983   0.378 -0.2354  0.6846 -0.4234
 7134TIP3    H142893   4.131   4.941   0.440  1.1889 -0.0502  0.5194
 7134TIP3    H242894   4.166   4.948   0.292  0.8439 -2.1834  0.3130
 7135TIP3   OH242895   4.924   3.270   2.314 -0.1152 -0.1053 -0.3174
 7135TIP3    H142896   4.869   3.192   2.327  0.8605 -0.7992 -0.2927
 7135TIP3    H242897   5.012   3.242   2.338  0.4734  0.6468 -1.5021
 7136TIP3   OH242898   2.748   2.399   4.484  0.1597 -0.7009  0.1767
 7136TIP3    H142899   2.751   2.326   4.545 -0.6751 -0.5988  0.3645
 7136TIP3    H242900   2.837   2.407   4.450  1.2213  0.5452  2.9227
 7137TIP3   OH242901   1.812   0.520   0.046 -0.2374  0.1996  0.8437
 7137TIP3    H142902   1.717   0.507   0.047 -0.4912  1.6545 -0.1437
 7137TIP3    H242903   1.845   0.449  -0.009 -0.5635 -1.0925  2.2314
 7138TIP3   OH242904   5.099   3.668  17.045 -0.1842 -0.1947 -0.0625
 7138TIP3    H142905   5.185   3.688  17.082  0.2131 -1.3710 -0.3059
 7138TIP3    H242906   5.069   3.592  17.094 -1.5212  0.7465  0.6456
 7139TIP3   OH242907   1.599   6.376   3.023 -0.4900 -0.0502 -1.3951
 7139TIP3    H142908   1.523   6.374   3.080  0.6192  0.9118  0.1851
 7139TIP3    H242909   1.616   6.469   3.009  2.8017  0.0214  1.7530
 7140TIP3   OH242910   6.289   2.214  11.442 -0.3993 -0.2002 -0.2117
 7140TIP3    H142911   6.209   2.266  11.437 -1.0253 -0.9040  1.5109
 7140TIP3    H242912   6.360   2.277  11.435 -1.1235  0.6177 -0.3062
 7141TIP3   OH242913   4.432   2.405  12.569  0.5049 -1.1057 -0.3188
 7141TIP3    H142914   4.508   2.350  12.584 -0.1861 -2.0024 -0.0327
 7141TIP3    H242915   4.465   2.477  12.515  1.3989 -1.8427 -0.7827
 7142TIP3   OH242916   5.881   6.349  13.083  0.3829  0.7260  0.0192
 7142TIP3    H142917   5.969   6.312  13.089  0.8045  1.6758 -0.0798
 7142TIP3    H242918   5.823   6.273  13.083  1.2379  0.0508 -0.6470
 7143TIP3   OH242919   6.482   3.042   0.972  0.1203 -0.2985  0.2804
 7143TIP3    H142920   6.479   3.120   1.026  1.4432  0.3898 -0.5850
 7143TIP3    H242921   6.401   2.995   0.992 -0.1612  0.7291  1.6333
 7144TIP3   OH242922   5.407   2.513   2.664  0.1209 -0.2437 -0.1168
 7144TIP3    H142923   5.317   2.534   2.689 -0.3469  0.5311 -2.2389
 7144TIP3    H242924   5.458   2.589   2.693 -0.3569  0.5065 -1.1945
 7145TIP3   OH242925   5.862   3.692   5.551  0.1211 -0.0450 -1.2094
 7145TIP3    H142926   5.934   3.629   5.551  0.2538  0.0858 -2.5050
 7145TIP3    H242927   5.886   3.756   5.485  0.5552  2.0742  0.8724
 7146TIP3   OH242928   5.748   0.822  11.009  0.0714 -0.0935  0.5019
 7146TIP3    H142929   5.661   0.829  10.969  0.5548 -1.8775 -1.0323
 7146TIP3    H242930   5.799   0.892  10.969 -0.5443  0.7638  1.1757
 7147TIP3   OH242931   1.439   4.660  15.920 -0.2377 -0.5163  0.1359
 7147TIP3    H142932   1.444   4.629  15.829 -0.7989  2.2608 -0.9297
 7147TIP3    H242933   1.350   4.638  15.948 -0.5584 -0.0943 -0.5215
 7148TIP3   OH242934   0.200   1.736   1.193  0.2135 -0.0836  0.2839
 7148TIP3    H142935   0.263   1.778   1.134  1.4927 -0.2200  1.5009
 7148TIP3    H242936   0.141   1.807   1.219 -0.6726 -0.1086 -1.4672
 7149TIP3   OH242937   6.582   5.318   5.209 -0.0069 -0.3916  0.2627
 7149TIP3    H142938   6.650   5.323   5.276 -1.8177 -0.5492  2.1999
 7149TIP3    H242939   6.506   5.282   5.254 -0.9441 -1.7779 -2.2051
 7150TIP3   OH242940   5.630   4.021   3.081 -0.3262  0.3585 -0.5168
 7150TIP3    H142941   5.652   3.976   3.000  0.8685  0.7927 -0.4589
 7150TIP3    H242942   5.534   4.024   3.082 -0.4469 -2.0247 -0.5755
 7151TIP3   OH242943   6.452   0.856  12.231  0.1555 -1.2864 -0.0890
 7151TIP3    H142944   6.498   0.776  12.205 -0.9308 -2.0198  0.1807
 7151TIP3    H242945   6.370   0.853  12.182  0.3201 -0.0677 -0.4568
 7152TIP3   OH242946   5.388   2.237  14.374 -0.5127 -0.2944 -0.2665
 7152TIP3    H142947   5.444   2.230  14.452  0.0661 -0.4979 -0.6919
 7152TIP3    H242948   5.322   2.168  14.385  0.0966 -0.9045 -0.3735
 7153TIP3   OH242949   3.206   0.979  12.800 -0.1274  0.2185 -0.0704
 7153TIP3    H142950   3.297   0.980  12.832 -0.3978  1.2665  0.7527
 7153TIP3    H242951   3.211   1.021  12.714  0.7679 -3.5419 -2.0786
 7154TIP3   OH242952   1.679   0.216   0.076  0.3033  0.3843 -0.7100
 7154TIP3    H142953   1.688   0.228  -0.019  0.4494 -1.7579 -1.0227
 7154TIP3    H242954   1.589   0.185   0.087 -0.7810  3.5409  0.2646
 7155TIP3   OH242955   4.363   4.290  16.971  0.3901  0.3353 -0.2370
 7155TIP3    H142956   4.290   4.344  17.002  0.2529  0.2555 -0.4214
 7155TIP3    H242957   4.329   4.201  16.970  0.3843  0.3416 -0.6491
 7156TIP3   OH242958   4.138   1.503   4.249  0.1767 -0.1065 -0.6696
 7156TIP3    H142959   4.213   1.537   4.297  0.8318 -1.4719 -0.6959
 7156TIP3    H242960   4.128   1.412   4.278 -0.7437 -0.3062 -1.5240
 7157TIP3   OH242961   1.953   1.962  16.094  0.0164 -0.8005  0.0094
 7157TIP3    H142962   1.922   1.874  16.118  1.0911 -1.1704  0.0742
 7157TIP3    H242963   2.003   1.991  16.170 -0.2358 -0.1693 -0.0618
 7158TIP3   OH242964   4.243   0.614   0.194 -0.5259  0.7571 -0.2460
 7158TIP3    H142965   4.286   0.550   0.251 -0.4361 -0.1996 -1.3398
 7158TIP3    H242966   4.204   0.678   0.254 -0.5981 -0.3117  0.8840
 7159TIP3   OH242967   5.949   5.207   4.162  0.4886  0.1008  0.0814
 7159TIP3    H142968   5.899   5.229   4.084 -0.4773 -1.3034  0.2652
 7159TIP3    H242969   5.883   5.198   4.231  1.1469 -0.4371  0.6526
 7160TIP3   OH242970   0.507   1.900   3.641  0.0873  0.1529 -0.3953
 7160TIP3    H142971   0.415   1.879   3.627  0.5553 -0.7514 -2.5812
 7160TIP3    H242972   0.512   1.995   3.632 -0.7090  0.2891  0.4507
 7161TIP3   OH242973   5.207   3.584   1.900  0.1224 -0.1336  0.0330
 7161TIP3    H142974   5.193   3.568   1.993  1.1914  2.6206  0.7567
 7161TIP3    H242975   5.292   3.544   1.881  0.6968  0.7147  0.7051
 7162TIP3   OH242976   4.798   2.721  11.425  0.0304 -0.7610  0.1118
 7162TIP3    H142977   4.738   2.795  11.414  3.3142  1.8135 -2.7316
 7162TIP3    H242978   4.770   2.681  11.508 -1.0029  4.6979  2.9528
 7163TIP3   OH242979   0.182   0.632   3.947 -0.6068 -0.0448  0.4333
 7163TIP3    H142980   0.169   0.539   3.969 -0.1834 -0.3985 -0.7788
 7163TIP3    H242981   0.128   0.646   3.870 -0.3656  0.6289  0.3854
 7164TIP3   OH242982   4.958   5.137  12.900 -0.6368  0.1441 -0.1982
 7164TIP3    H142983   4.919   5.224  12.911  0.2083  0.3968  0.9679
 7164TIP3    H242984   5.033   5.153  12.842  0.5018  0.5146  1.3312
 7165TIP3   OH242985   1.622   6.025   3.834 -0.2792  0.2819 -0.2223
 7165TIP3    H142986   1.633   6.098   3.773  1.5534  0.1454 -0.1065
 7165TIP3    H242987   1.670   6.051   3.912 -0.2874 -0.7090  0.1306
 7166TIP3   OH242988   0.121   0.104  13.061  0.2851 -0.1960 -0.2366
 7166TIP3    H142989   0.102   0.171  13.127  2.1548  0.0955  0.0802
 7166TIP3    H242990   0.036   0.068  13.037 -0.4630 -0.4991  2.5253
 7167TIP3   OH242991   2.826   3.217   3.561 -0.8193  0.2077 -0.3262
 7167TIP3    H142992   2.886   3.244   3.492  0.3092 -2.5264 -0.5134
 7167TIP3    H242993   2.876   3.227   3.642 -0.4671 -1.0675 -0.3788
 7168TIP3   OH242994   3.139   3.701  16.627 -0.0133 -0.0872 -0.3608
 7168TIP3    H142995   3.202   3.631  16.643  0.5332  0.7102  1.1401
 7168TIP3    H242996   3.064   3.678  16.682  0.1487  0.4542  0.0994
 7169TIP3   OH242997   5.830   4.666  17.155  0.1555 -0.0488  0.3951
 7169TIP3    H142998   5.862   4.697  17.070 -1.4097 -0.8347 -0.5148
 7169TIP3    H242999   5.849   4.739  17.215  0.6274  0.8213 -0.7602
 7170TIP3   OH243000   3.530   1.672  11.619  0.0746 -0.8871  0.0849
 7170TIP3    H143001   3.487   1.648  11.701  2.5133 -2.3168  1.0859
 7170TIP3    H243002   3.553   1.588  11.579  0.5971 -0.2050 -1.0874
 7171TIP3   OH243003   3.829   6.244   0.027  0.1882 -0.5573 -0.3803
 7171TIP3    H143004   3.789   6.189   0.094 -0.6758  0.2790 -0.1808
 7171TIP3    H243005   3.901   6.288   0.071 -1.1676  0.9936  0.4279
 7172TIP3   OH243006   4.927   6.520  13.065 -0.3771  0.2025 -0.4516
 7172TIP3    H143007   4.932   6.449  13.129 -0.6091  0.4700 -0.1315
 7172TIP3    H243008   5.017   6.550  13.054 -0.4670  0.9168  0.6217
 7173TIP3   OH243009   3.958   1.989  12.380 -0.0267  0.5201  0.0535
 7173TIP3    H143010   3.901   2.066  12.370  0.7076  1.0106 -0.4334
 7173TIP3    H243011   3.898   1.915  12.371 -0.4833  1.0168 -1.3490
 7174TIP3   OH243012   6.729   2.521  15.116  0.4601  0.9031 -0.1707
 7174TIP3    H143013   6.822   2.498  15.126  0.3780  1.2006  1.5961
 7174TIP3    H243014   6.687   2.485  15.194 -1.1398 -0.2072 -1.4718
 7175TIP3   OH243015   3.942   0.166  13.696  0.1116 -0.7360  0.1707
 7175TIP3    H143016   3.908   0.171  13.607 -0.6010  1.8204  0.5093
 7175TIP3    H243017   4.036   0.183  13.686 -0.4384  3.3213  0.0600
 7176TIP3   OH243018   4.982   6.377  12.085 -0.1610 -0.7289 -0.2351
 7176TIP3    H143019   4.998   6.414  12.172 -1.2273 -0.8908  0.0378
 7176TIP3    H243020   5.033   6.432  12.026 -0.8899  0.5275  0.2866
 7177TIP3   OH243021   0.476   2.075   4.364 -0.2131  0.3426 -0.5549
 7177TIP3    H143022   0.571   2.067   4.378 -0.0317  1.1744 -1.2127
 7177TIP3    H243023   0.451   2.151   4.417 -0.4509  0.3310 -0.6525
 7178TIP3   OH243024   4.055   5.694   3.021 -0.4270  0.0874  0.1989
 7178TIP3    H143025   4.127   5.755   3.004 -0.2345 -0.4999 -1.2274
 7178TIP3    H243026   4.072   5.662   3.110  1.7029 -0.8312 -0.4684
 7179TIP3   OH243027   2.008   3.841   2.356 -0.2351 -0.0185 -0.0694
 7179TIP3    H143028   1.961   3.845   2.273  0.2932  1.0105 -0.3368
 7179TIP3    H243029   2.090   3.887   2.339 -0.1672  0.3044  1.0493
 7180TIP3   OH243030   1.524   5.506  14.787  0.0973 -0.1261 -0.0233
 7180TIP3    H143031   1.511   5.600  14.800  0.2057 -0.2939  1.4887
 7180TIP3    H243032   1.618   5.497  14.773  0.1010 -0.0197 -0.0728
 7181TIP3   OH243033   4.756   0.731  15.524 -0.1759  0.3020  0.6803
 7181TIP3    H143034   4.741   0.799  15.589 -0.1482  1.0569 -0.0810
 7181TIP3    H243035   4.826   0.677  15.561  0.6339  1.3863  0.7889
 7182TIP3   OH243036   5.473   1.909   4.462 -0.9514  0.0149 -0.0473
 7182TIP3    H143037   5.497   1.817   4.473 -1.3167  0.0078  0.7573
 7182TIP3    H243038   5.551   1.957   4.489 -1.4055 -0.0318  1.4212
 7183TIP3   OH243039   3.164   3.869   3.644 -0.1835 -0.5111 -0.3052
 7183TIP3    H143040   3.091   3.810   3.627 -1.1026  0.6347 -0.4195
 7183TIP3    H243041   3.232   3.841   3.584  0.1475 -2.7160  0.9875
 7184TIP3   OH243042   5.961   3.207  14.234 -0.2943 -0.1461 -0.5596
 7184TIP3    H143043   5.902   3.158  14.177 -1.4222 -1.3242  1.4903
 7184TIP3    H243044   5.968   3.153  14.313  0.4362  1.8342  0.8146
 7185TIP3   OH243045   2.176   0.503   1.251 -0.5458  0.3254 -0.8774
 7185TIP3    H143046   2.227   0.445   1.194 -1.0719 -1.4677  0.4016
 7185TIP3    H243047   2.148   0.574   1.193 -1.6342 -1.7451 -3.0926
 7186TIP3   OH243048   1.223   3.587  17.123 -0.5901  0.0148 -0.2455
 7186TIP3    H143049   1.205   3.556  17.034  2.6045  0.2583 -1.0998
 7186TIP3    H243050   1.244   3.680  17.112 -2.0380  0.5353  1.1016
 7187TIP3   OH243051   0.505   4.725  11.839 -0.7526  0.5397 -0.0862
 7187TIP3    H143052   0.592   4.685  11.847 -0.9132  0.0879 -0.5575
 7187TIP3    H243053   0.448   4.653  11.812 -1.4288  0.6607  0.9296
 7188TIP3   OH243054   6.036   2.943  12.141 -0.9656 -0.2520 -0.5714
 7188TIP3    H143055   6.017   3.002  12.067  0.0175 -0.1107 -0.7238
 7188TIP3    H243056   6.130   2.951  12.154 -0.9073 -1.3796 -0.2273
 7189TIP3   OH243057   4.795   3.079  12.746  0.0334  0.3287 -0.1261
 7189TIP3    H143058   4.772   3.147  12.683 -0.8397  0.3095  0.1673
 7189TIP3    H243059   4.878   3.043  12.713  0.5917  1.6294 -0.1942
 7190TIP3   OH243060   3.021   6.807   4.146 -0.0356  0.3865 -0.3084
 7190TIP3    H143061   3.053   6.718   4.134  1.7771  0.7258  1.3759
 7190TIP3    H243062   3.033   6.824   4.240  0.1379  2.5432 -0.6574
 7191TIP3   OH243063   2.363   2.103   5.314  0.1137 -0.1490 -0.0989
 7191TIP3    H143064   2.325   2.168   5.374 -1.1049 -0.8746 -0.0508
 7191TIP3    H243065   2.292   2.041   5.298  0.7390 -0.5458 -1.4855
 7192TIP3   OH243066   2.720   0.728   5.825 -0.3483 -0.0892 -0.5544
 7192TIP3    H143067   2.711   0.748   5.732  0.1744  0.7052 -0.4505
 7192TIP3    H243068   2.700   0.811   5.869 -2.9674 -0.9998  0.1992
 7193TIP3   OH243069   3.546   2.026   0.244 -0.1976 -0.0167  0.3208
 7193TIP3    H143070   3.462   1.990   0.216 -1.4665  3.2070 -0.5498
 7193TIP3    H243071   3.523   2.101   0.299  2.0925  0.9258  0.1274
 7194TIP3   OH243072   1.292   6.512  16.421 -0.4999 -0.0347  0.1927
 7194TIP3    H143073   1.289   6.453  16.345  0.3742 -0.6311  0.6003
 7194TIP3    H243074   1.237   6.469  16.487  0.0075 -0.3320  0.4323
 7195TIP3   OH243075   2.461   4.206  12.869  0.1008  0.3201 -0.2926
 7195TIP3    H143076   2.455   4.177  12.778  0.5376  1.2330 -0.6296
 7195TIP3    H243077   2.470   4.126  12.920  1.8578 -0.1233 -1.2343
 7196TIP3   OH243078   5.742   1.454  16.866  0.3460 -0.2374  0.4868
 7196TIP3    H143079   5.680   1.404  16.814  2.1294 -2.5337  0.4085
 7196TIP3    H243080   5.755   1.535  16.817 -1.1893 -0.4782 -0.3852
 7197TIP3   OH243081   0.538   1.987   0.511 -0.1257 -0.2316 -0.2643
 7197TIP3    H143082   0.626   2.020   0.496 -0.2062  0.3847  0.5733
 7197TIP3    H243083   0.484   2.065   0.521 -0.2372 -0.5538  2.2648
 7198TIP3   OH243084   6.317   5.772   3.944 -0.2632  0.5197  0.1286
 7198TIP3    H143085   6.263   5.787   4.022 -0.7033 -0.3690  0.0109
 7198TIP3    H243086   6.276   5.697   3.901  0.9193 -0.0320 -0.0903
 7199TIP3   OH243087   4.213   5.129  13.012 -0.0244  0.2982 -0.4511
 7199TIP3    H143088   4.137   5.179  13.039  0.8880  1.0392  0.8177
 7199TIP3    H243089   4.260   5.110  13.093 -0.4198 -2.8131 -0.8196
 7200TIP3   OH243090   5.852   0.094   2.780 -0.0329 -0.1285 -0.7069
 7200TIP3    H143091   5.864   0.144   2.699  1.5820  0.0115 -0.4156
 7200TIP3    H243092   5.779   0.137   2.825  0.4270  1.1053 -1.1098
 7201TIP3   OH243093   3.479   1.070   2.228  0.0913  0.3593 -0.1124
 7201TIP3    H143094   3.411   1.030   2.174  1.3171  0.7304 -2.0122
 7201TIP3    H243095   3.526   0.996   2.266 -0.0773  0.0747 -0.4526
 7202TIP3   OH243096   4.528   3.649   1.930 -0.1776  0.0820 -0.1339
 7202TIP3    H143097   4.446   3.629   1.885 -0.8643  2.6315 -0.2028
 7202TIP3    H243098   4.522   3.601   2.013 -1.9385  0.4692  0.0085
 7203TIP3   OH243099   6.673   5.047   1.235 -0.0499 -0.6081  0.0764
 7203TIP3    H143100   6.673   5.059   1.140  0.7794 -0.8100  0.0402
 7203TIP3    H243101   6.665   4.952   1.247 -0.6232 -0.5423  0.2192
 7204TIP3   OH243102   5.369   4.077  11.921  0.0685  0.0875 -0.1150
 7204TIP3    H143103   5.355   4.109  11.831  1.8875 -2.5557 -1.4802
 7204TIP3    H243104   5.292   4.023  11.938  0.0426  0.0403 -0.3671
 7205TIP3   OH243105   3.662   4.011  11.375 -0.1172 -0.1623 -0.3745
 7205TIP3    H143106   3.677   3.991  11.283  2.0233 -0.8187  0.0697
 7205TIP3    H243107   3.612   3.937  11.409  0.3522 -0.6316 -0.6957
 7206TIP3   OH243108   1.845   5.663  12.824 -0.4487 -0.3962  0.3036
 7206TIP3    H143109   1.909   5.592  12.821 -1.9287 -1.7450 -1.5321
 7206TIP3    H243110   1.883   5.732  12.769 -0.2588 -0.8917 -0.1933
 7207TIP3   OH243111   3.807   1.720   1.305 -0.1314  0.3222  0.3999
 7207TIP3    H143112   3.839   1.633   1.283  2.2918  1.2088  0.1245
 7207TIP3    H243113   3.880   1.762   1.352 -1.1010  2.2995  0.2658
 7208TIP3   OH243114   5.460   5.717   4.922 -0.4405  0.2919  0.0490
 7208TIP3    H143115   5.441   5.672   5.005  1.6328  0.7726  0.8492
 7208TIP3    H243116   5.477   5.808   4.948  1.4723  0.1870 -0.6980
 7209TIP3   OH243117   3.668   2.288  11.293 -0.2677 -0.5833 -0.4694
 7209TIP3    H143118   3.721   2.368  11.298 -1.3389  0.1217 -0.1013
 7209TIP3    H243119   3.707   2.230  11.358 -0.6959  0.4100  0.7314
 7210TIP3   OH243120   4.143   6.050   5.499 -0.1377 -0.0157  0.1657
 7210TIP3    H143121   4.173   6.111   5.431 -0.4396 -0.4272 -0.3498
 7210TIP3    H243122   4.106   5.976   5.450  2.2876 -1.7169  0.6993
 7211TIP3   OH243123   3.411   6.149   3.181  0.0211  0.1501 -0.1279
 7211TIP3    H143124   3.500   6.125   3.153 -0.4915 -1.9827 -0.1346
 7211TIP3    H243125   3.389   6.084   3.247 -1.8621  0.1020 -0.7491
 7212TIP3   OH243126   3.574   1.419  11.704 -0.0038  0.0891 -0.4581
 7212TIP3    H143127   3.631   1.480  11.750 -2.1647  2.5580 -0.7749
 7212TIP3    H243128   3.549   1.354  11.770  2.0707 -0.3378 -0.0173
 7213TIP3   OH243129   2.613   3.078  14.648 -0.4667  0.0902 -0.2196
 7213TIP3    H143130   2.584   3.167  14.673 -0.3746  0.1164 -0.2067
 7213TIP3    H243131   2.634   3.085  14.555 -0.1657  0.1585 -0.1477
 7214TIP3   OH243132   0.630   5.616  12.108 -0.3182  0.6958 -0.4139
 7214TIP3    H143133   0.694   5.629  12.038 -0.7580  0.8903 -0.7866
 7214TIP3    H243134   0.601   5.525  12.096  0.7770  0.2010  0.5169
 7215TIP3   OH243135   3.879   0.730  11.934  0.6584  0.0537  0.0434
 7215TIP3    H143136   3.858   0.648  11.888  1.5602  0.2032 -0.6608
 7215TIP3    H243137   3.805   0.744  11.993  0.1313 -0.8717 -0.3789
 7216TIP3   OH243138   2.006   2.238  15.189 -0.0006  0.1666 -0.7294
 7216TIP3    H143139   1.935   2.201  15.137 -0.2471  0.5875 -0.6962
 7216TIP3    H243140   2.063   2.164  15.208 -1.4744 -0.5972  0.9678
 7217TIP3   OH243141   4.912   1.532   2.515 -0.7864 -0.0127 -0.0219
 7217TIP3    H143142   4.957   1.472   2.456  0.8511 -0.1490  1.2745
 7217TIP3    H243143   4.944   1.619   2.490 -3.1374  0.4098 -1.8830
 7218TIP3   OH243144   0.373   3.239   1.749 -0.6747  0.0323  0.3243
 7218TIP3    H143145   0.338   3.311   1.696 -1.2398 -0.8932 -0.5916
 7218TIP3    H243146   0.463   3.228   1.719 -1.2979 -1.1810 -1.2739
 7219TIP3   OH243147   4.917   5.509  14.134  0.3677 -0.0507  0.5277
 7219TIP3    H143148   4.839   5.479  14.180 -0.2324  0.0576 -0.3975
 7219TIP3    H243149   4.945   5.433  14.082  0.2034  0.2677 -0.0284
 7220TIP3   OH243150   1.874   2.245   5.597 -0.1474  0.4280  0.1800
 7220TIP3    H143151   1.858   2.205   5.683  0.9518 -0.0248  0.1895
 7220TIP3    H243152   1.814   2.200   5.538 -0.4271  0.2611  0.5854
 7221TIP3   OH243153   6.740   5.232   0.128  0.0989  0.1654 -0.4428
 7221TIP3    H143154   6.668   5.288   0.159 -0.8031 -2.1676  2.1006
 7221TIP3    H243155   6.715   5.209   0.039 -1.5446  0.6800 -0.1641
 7222TIP3   OH243156   6.119   0.079  17.056 -0.4943  0.3161  0.2836
 7222TIP3    H143157   6.024   0.077  17.054 -0.5243  0.0945  1.1785
 7222TIP3    H243158   6.143   0.004  17.112  0.3129 -1.1982 -1.9672
 7223TIP3   OH243159   0.668   3.842   3.371  0.5154 -0.3064 -0.1510
 7223TIP3    H143160   0.746   3.790   3.389  2.2363  2.2402  0.2274
 7223TIP3    H243161   0.624   3.847   3.456  0.8547 -0.3224  0.0288
 7224TIP3   OH243162   3.011   2.689  13.850  0.1468  0.6153  0.0329
 7224TIP3    H143163   2.962   2.720  13.773  1.5489 -0.1364 -1.2083
 7224TIP3    H243164   3.083   2.752  13.859 -0.4495  1.1549  1.2513
 7225TIP3   OH243165   5.713   3.146   0.821  0.0051 -0.2227  0.3232
 7225TIP3    H143166   5.684   3.194   0.744  1.9321 -0.1481 -0.4143
 7225TIP3    H243167   5.809   3.153   0.820  0.1979 -1.7579  1.7153
 7226TIP3   OH243168   0.552   0.501   4.414  0.2328 -0.7966  0.2920
 7226TIP3    H143169   0.635   0.509   4.367  0.5382 -0.8053  0.8193
 7226TIP3    H243170   0.508   0.426   4.373  0.2249 -0.4419 -0.3678
 7227TIP3   OH243171   2.216   4.039  11.472  0.0610  0.3934 -0.5380
 7227TIP3    H143172   2.260   4.038  11.387 -0.5106  0.0012 -0.8385
 7227TIP3    H243173   2.183   4.128  11.481  0.0115  0.4010 -0.7852
 7228TIP3   OH243174   0.430   2.039  16.077  0.5519  0.1470  0.2537
 7228TIP3    H143175   0.381   2.117  16.049 -1.3324 -1.6336 -1.7924
 7228TIP3    H243176   0.507   2.074  16.122 -0.6581  3.1561  0.2155
 7229TIP3   OH243177   1.322   0.542  13.939  0.0829 -0.1384  0.1534
 7229TIP3    H143178   1.304   0.610  13.874  1.3865 -0.3446 -0.4724
 7229TIP3    H243179   1.417   0.544  13.949  0.0454 -1.2151  0.8436
 7230TIP3   OH243180   0.937   3.602  13.010 -0.5717 -0.0097  0.2375
 7230TIP3    H143181   0.875   3.556  12.955  1.0427 -1.7547 -0.2379
 7230TIP3    H243182   0.971   3.672  12.955  0.3559 -1.1792 -0.7432
 7231TIP3   OH243183   2.489   2.840  14.640  0.0165 -0.3029 -0.0850
 7231TIP3    H143184   2.499   2.811  14.730 -3.1679  0.1569  0.5503
 7231TIP3    H243185   2.516   2.932  14.641  0.7489 -0.5224  0.2128
 7232TIP3   OH243186   4.488   4.802  15.978  0.7306  0.7705 -0.1254
 7232TIP3    H143187   4.494   4.735  16.045 -1.1674  1.3053  0.6597
 7232TIP3    H243188   4.569   4.795  15.929  1.7772 -0.2427  1.6579
 7233TIP3   OH243189   6.381   1.712   0.887  0.5834  0.9659  0.2108
 7233TIP3    H143190   6.361   1.621   0.911  2.7680  0.0561 -1.0713
 7233TIP3    H243191   6.449   1.738   0.950  2.1189  0.6115 -1.2412
 7234TIP3   OH243192   4.678   1.359   0.666 -0.2838  0.1628 -0.0969
 7234TIP3    H143193   4.645   1.287   0.613  0.8301 -0.9031  0.5989
 7234TIP3    H243194   4.743   1.319   0.724 -1.2702  1.3048  1.9327
 7235TIP3   OH243195   0.860   0.053   4.552 -0.0604 -0.4417  0.0286
 7235TIP3    H143196   0.786  -0.008   4.542 -2.4633  2.2179  0.3465
 7235TIP3    H243197   0.880   0.079   4.462 -1.5385  0.9985  0.0746
 7236TIP3   OH243198   4.148   1.632   6.075  0.4340 -0.5468 -0.0928
 7236TIP3    H143199   4.231   1.667   6.044  0.4847 -0.3860  0.2186
 7236TIP3    H243200   4.123   1.567   6.009  0.7705 -0.5468 -0.2222
 7237TIP3   OH243201   2.930   5.009   5.899 -0.0709  0.4913  0.4797
 7237TIP3    H143202   2.852   5.061   5.918 -2.5265 -2.4742 -0.6859
 7237TIP3    H243203   2.925   4.936   5.961  0.3418 -1.0589 -1.2383
 7238TIP3   OH243204   0.313   1.487   0.444  0.5776  0.3301  0.1624
 7238TIP3    H143205   0.351   1.414   0.395  2.4868  1.1731  0.2814
 7238TIP3    H243206   0.385   1.519   0.499 -0.1365  2.3855 -0.0103
 7239TIP3   OH243207   2.128   2.370  16.627 -0.1910  0.1963 -0.0331
 7239TIP3    H143208   2.195   2.321  16.675 -0.6462  1.4765  2.0461
 7239TIP3    H243209   2.051   2.312  16.628 -0.2949  0.3357  1.1249
 7240TIP3   OH243210   3.790   2.217  12.399  0.0578 -0.1912  0.2377
 7240TIP3    H143211   3.781   2.311  12.416  2.8081  0.2256 -0.1375
 7240TIP3    H243212   3.706   2.191  12.362 -0.3141  2.4245 -0.9674
 7241TIP3   OH243213   5.574   6.647   1.968  0.1925  0.1056 -0.2385
 7241TIP3    H143214   5.545   6.708   1.901 -1.8938 -0.2186  0.2945
 7241TIP3    H243215   5.556   6.691   2.051  1.7001  0.0461  0.1558
 7242TIP3   OH243216   0.954   0.573  13.620  0.2083  0.3239 -0.6623
 7242TIP3    H143217   1.003   0.653  13.639  1.3056  0.1303 -2.3903
 7242TIP3    H243218   1.015   0.519  13.569 -0.3362 -1.8406  0.8281
 7243TIP3   OH243219   5.575   4.121  11.236  0.8499  0.0636 -0.0828
 7243TIP3    H143220   5.590   4.208  11.199 -0.1262  0.5870  0.7103
 7243TIP3    H243221   5.657   4.074  11.220  1.3410  1.0776 -0.6441
 7244TIP3   OH243222   3.438   5.002   6.347 -0.0733  0.3908  0.3582
 7244TIP3    H143223   3.409   5.094   6.342  0.2864  0.4615 -0.6323
 7244TIP3    H243224   3.366   4.957   6.391 -1.6731  0.6096 -1.8239
 7245TIP3   OH243225   3.345   1.188  13.185 -0.4668 -0.2674  0.3552
 7245TIP3    H143226   3.432   1.168  13.219 -0.6722 -1.3905  0.2700
 7245TIP3    H243227   3.361   1.239  13.106  0.1194 -0.4682  0.3409
 7246TIP3   OH243228   1.707   0.111   3.459 -0.3701  0.1452 -0.3155
 7246TIP3    H143229   1.756   0.160   3.393  0.0672  0.3304  0.1431
 7246TIP3    H243230   1.742   0.142   3.543 -0.1793 -0.8556 -0.0132
 7247TIP3   OH243231   6.566   4.454  16.804 -0.3123  0.5795 -0.5209
 7247TIP3    H143232   6.640   4.502  16.841  0.9390 -1.9888  0.5694
 7247TIP3    H243233   6.561   4.374  16.856 -0.6809 -1.6690 -3.7343
 7248TIP3   OH243234   4.842   5.302  12.459  0.6484  0.6618 -0.1796
 7248TIP3    H143235   4.891   5.364  12.406 -1.4147  1.1475 -1.6338
 7248TIP3    H243236   4.750   5.321  12.441 -0.1333 -0.4261  2.1418
 7249TIP3   OH243237   2.996   4.457  14.694  0.5317 -0.1008  0.1617
 7249TIP3    H143238   2.984   4.384  14.754  0.4112 -1.1961 -1.1459
 7249TIP3    H243239   3.048   4.520  14.743  0.4379 -0.9549  1.4059
 7250TIP3   OH243240   2.064   3.605   1.007  0.3483  0.0253  0.0471
 7250TIP3    H143241   2.023   3.533   0.959 -0.2765  0.7807 -0.5663
 7250TIP3    H243242   2.144   3.566   1.044 -0.4312 -1.2110  0.4811
 7251TIP3   OH243243   6.644   5.942   2.311  0.3701 -0.0474  0.9162
 7251TIP3    H143244   6.606   5.870   2.361  2.4362 -1.1841  0.9738
 7251TIP3    H243245   6.679   6.002   2.377 -0.7957  0.7179  0.8586
 7252TIP3   OH243246   5.048   5.008  12.594 -0.2869  0.2028  0.4169
 7252TIP3    H143247   5.088   5.087  12.632 -0.0060  1.5024 -2.3636
 7252TIP3    H243248   5.016   5.036  12.509 -1.3656 -2.4256 -0.1260
 7253TIP3   OH243249   3.144   1.249  10.813 -0.3266  0.1838  0.1237
 7253TIP3    H143250   3.163   1.332  10.769 -1.5430 -0.2166 -1.2119
 7253TIP3    H243251   3.063   1.265  10.861 -1.1751 -0.5307 -1.0366
 7254TIP3   OH243252   3.443   6.624  16.754 -0.0051  0.2406 -0.0674
 7254TIP3    H143253   3.512   6.575  16.799 -0.9566 -1.3033 -0.2190
 7254TIP3    H243254   3.387   6.557  16.716  0.2662  1.4399 -2.8755
 7255TIP3   OH243255   6.733   3.996   3.714 -0.2782 -0.1465 -0.1641
 7255TIP3    H143256   6.712   3.907   3.741 -0.3332  0.8239  3.5348
 7255TIP3    H243257   6.656   4.026   3.666 -0.6949 -1.7036 -0.5262
 7256TIP3   OH243258   0.735   3.530   4.221  0.2541  0.4284  0.1880
 7256TIP3    H143259   0.679   3.604   4.246  1.4262  1.4033  0.0246
 7256TIP3    H243260   0.677   3.454   4.223 -2.1648  1.8910 -3.8065
 7257TIP3   OH243261   0.576   4.708   2.976 -0.7023 -0.1237 -0.1575
 7257TIP3    H143262   0.512   4.639   2.957 -0.6753  0.4454 -2.6578
 7257TIP3    H243263   0.589   4.703   3.070  1.0106 -5.0240 -0.4139
 7258TIP3   OH243264   6.783   2.699  11.615  0.2169 -0.0218 -0.0421
 7258TIP3    H143265   6.859   2.745  11.579  0.0957 -0.0442 -0.3289
 7258TIP3    H243266   6.788   2.714  11.709 -0.8977  2.2918 -0.2758
 7259TIP3   OH243267   5.891   2.328  16.407 -0.2726 -0.3414  0.0396
 7259TIP3    H143268   5.930   2.413  16.387 -1.1757 -0.0679 -0.6460
 7259TIP3    H243269   5.856   2.338  16.496 -1.8129  0.5766 -0.6294
 7260TIP3   OH243270   4.551   1.287   5.553 -0.7762 -0.4679 -0.1478
 7260TIP3    H143271   4.611   1.295   5.479 -2.3165 -1.3507 -1.5581
 7260TIP3    H243272   4.537   1.377   5.582 -0.6098 -0.0352 -1.3476
 7261TIP3   OH243273   1.212   5.924  15.634 -0.2057 -0.0232  0.6099
 7261TIP3    H143274   1.118   5.927  15.656 -0.1957  0.4944  0.6087
 7261TIP3    H243275   1.213   5.913  15.539 -0.2480 -2.4903  0.8386
 7262TIP3   OH243276   1.628   5.038   5.303 -0.0019  0.3136 -0.0493
 7262TIP3    H143277   1.576   4.983   5.245 -0.3677 -0.8680  1.3344
 7262TIP3    H243278   1.578   5.042   5.385  0.3085  2.2380  0.1086
 7263TIP3   OH243279   6.721   3.296   2.684  0.0597 -0.3970 -0.3848
 7263TIP3    H143280   6.692   3.314   2.774 -1.5494 -1.0164 -0.7365
 7263TIP3    H243281   6.787   3.227   2.693  0.3317 -0.0551  0.3513
 7264TIP3   OH243282   3.466   2.075  10.368 -0.1222 -0.4117 -0.6782
 7264TIP3    H143283   3.429   2.031  10.445  0.8874  0.4050  0.3093
 7264TIP3    H243284   3.559   2.083  10.387  0.7096 -2.6060 -3.2023
 7265TIP3   OH243285   4.909   2.719   0.396 -0.8254 -0.2465  0.2467
 7265TIP3    H143286   4.922   2.716   0.491 -2.5052  1.1720  0.5837
 7265TIP3    H243287   4.895   2.628   0.371  0.2665 -0.7185  1.2504
 7266TIP3   OH243288   0.232   4.889  13.641  0.7003  0.0612 -0.3437
 7266TIP3    H143289   0.215   4.961  13.581  0.5697 -0.8332 -1.4301
 7266TIP3    H243290   0.258   4.816  13.585 -0.3343 -1.0920  0.5838
 7267TIP3   OH243291   3.982   5.906   6.047  0.3775 -0.6684 -0.5737
 7267TIP3    H143292   4.000   5.859   5.965  0.5946 -2.2292  0.3198
 7267TIP3    H243293   3.911   5.856   6.087 -1.2014  1.3027 -0.7481
 7268TIP3   OH243294   6.808   0.001   3.059 -0.2791 -0.4468  0.2173
 7268TIP3    H143295   6.725  -0.044   3.071 -1.4174  1.0917 -1.4011
 7268TIP3    H243296   6.807   0.070   3.126 -1.5549  1.1948 -1.4093
 7269TIP3   OH243297   4.087   5.620  11.568  0.4093 -0.2066  0.4607
 7269TIP3    H143298   4.077   5.603  11.662  1.8471 -2.2919  0.2757
 7269TIP3    H243299   4.132   5.704  11.564 -1.4927  0.9489  1.5403
 7270TIP3   OH243300   3.803   6.813   5.541 -0.1156 -0.0820  0.1505
 7270TIP3    H143301   3.824   6.893   5.590 -1.2678 -0.0210  0.5586
 7270TIP3    H243302   3.847   6.743   5.590  0.9232  0.2886 -0.2228
 7271TIP3   OH243303   3.739   4.942  15.680  0.2870 -0.0534 -0.0069
 7271TIP3    H143304   3.698   4.995  15.613 -1.4758  0.3170  1.2943
 7271TIP3    H243305   3.699   4.855  15.670 -0.4852  0.1803  0.9665
 7272TIP3   OH243306   2.109   1.857   4.615 -0.1711  0.0999  0.6152
 7272TIP3    H143307   2.130   1.794   4.546  2.2248  0.4330  0.9575
 7272TIP3    H243308   2.108   1.805   4.695  0.0414  0.2041  0.6857
 7273TIP3   OH243309   6.619   3.696   5.027 -0.2142  0.3113  0.0636
 7273TIP3    H143310   6.707   3.732   5.042  0.2017 -0.6188 -0.1140
 7273TIP3    H243311   6.634   3.614   4.981 -1.1818  0.1057  0.0957
 7274TIP3   OH243312   3.078   4.932  16.063 -0.3370 -0.3595  0.5319
 7274TIP3    H143313   3.056   5.025  16.058 -1.6436 -0.6550  0.4350
 7274TIP3    H243314   3.133   4.925  16.142 -0.3846  0.4591  0.6514
 7275TIP3   OH243315   4.565   6.796  17.113  0.0405  0.1901 -0.0599
 7275TIP3    H143316   4.535   6.886  17.097  1.1354  0.5164 -0.3372
 7275TIP3    H243317   4.497   6.758  17.168  0.2899  1.6446  1.3093
 7276TIP3   OH243318   5.928   2.487  17.080 -0.0521 -0.0873  0.2989
 7276TIP3    H143319   5.965   2.569  17.049 -0.1041 -0.0382  0.3679
 7276TIP3    H243320   5.981   2.463  17.156 -0.1382 -0.0366  0.3749
 7277TIP3   OH243321   0.415   5.627  11.150 -0.1578  0.4654  0.2526
 7277TIP3    H143322   0.396   5.634  11.057  0.5473  1.4476  0.1642
 7277TIP3    H243323   0.453   5.539  11.161  0.7565  0.7460 -0.5790
 7278TIP3   OH243324   0.784   3.636  11.189  0.3027  0.1812  0.1876
 7278TIP3    H143325   0.849   3.589  11.137 -0.0633  0.3736 -0.4569
 7278TIP3    H243326   0.819   3.725  11.197 -0.3266  0.5501 -0.9873
 7279TIP3   OH243327   4.320   0.318   0.307  0.0544 -0.5052  0.5157
 7279TIP3    H143328   4.294   0.333   0.216  0.3988  0.5294  0.5724
 7279TIP3    H243329   4.240   0.332   0.358 -0.1347 -1.0694  0.3750
 7280TIP3   OH243330   3.576   5.824  11.665  0.2920 -0.8377  0.2622
 7280TIP3    H143331   3.549   5.785  11.581 -1.1819  1.0278 -0.1997
 7280TIP3    H243332   3.575   5.918  11.649  1.0419 -0.4816  2.0937
 7281TIP3   OH243333   3.251   0.332   5.158 -0.6728  0.2233 -0.2202
 7281TIP3    H143334   3.264   0.388   5.235  1.3078 -0.1672 -0.2020
 7281TIP3    H243335   3.202   0.387   5.096 -0.4850  1.2796  0.5391
 7282TIP3   OH243336   2.354   5.661   5.717 -0.0808  0.3249  0.5798
 7282TIP3    H143337   2.395   5.721   5.780  1.4026 -2.4663  2.4909
 7282TIP3    H243338   2.414   5.658   5.643  0.0706  0.7927  0.6816
 7283TIP3   OH243339   4.503   4.184  13.890  0.2016 -0.2551 -0.1018
 7283TIP3    H143340   4.514   4.260  13.833  1.3912  0.7560  1.3877
 7283TIP3    H243341   4.591   4.170  13.927  0.7704 -4.0477 -2.3196
 7284TIP3   OH243342   2.330   4.231   2.478  0.5676 -0.0784 -0.2864
 7284TIP3    H143343   2.332   4.295   2.407 -0.3208 -0.5032 -0.7106
 7284TIP3    H243344   2.260   4.261   2.536  1.1204  0.1292  0.2867
 7285TIP3   OH243345   5.546   4.417  15.041 -0.8582  0.3411 -0.2547
 7285TIP3    H143346   5.564   4.366  14.962  1.3144 -0.8788  0.9472
 7285TIP3    H243347   5.609   4.489  15.038 -0.2714 -0.1188  0.6989
 7286TIP3   OH243348   3.188   5.625  15.923 -0.1518  0.3026  0.3758
 7286TIP3    H143349   3.252   5.586  15.982  0.0193  0.6408  0.4139
 7286TIP3    H243350   3.240   5.671  15.857 -0.2550 -1.6204 -1.1626
 7287TIP3   OH243351   0.017   5.928  10.913 -0.3288 -0.1292  0.2431
 7287TIP3    H143352   0.020   6.009  10.863 -1.7567  0.0337  0.3658
 7287TIP3    H243353  -0.069   5.890  10.893  0.6932 -2.1562 -0.6091
 7288TIP3   OH243354   3.414   2.645   4.965 -0.6868 -0.0960  0.2442
 7288TIP3    H143355   3.460   2.627   5.047 -0.8511 -0.2670  0.2999
 7288TIP3    H243356   3.377   2.732   4.977 -1.5605 -0.5187  0.7492
 7289TIP3   OH243357   1.629   3.457  16.846  0.4306 -0.2435  0.4416
 7289TIP3    H143358   1.571   3.401  16.897  1.5167 -0.7041  1.1948
 7289TIP3    H243359   1.671   3.397  16.783  1.0871 -0.1623  0.7980
 7290TIP3   OH243360   1.063   6.623   4.633 -0.3245 -0.8960  0.1458
 7290TIP3    H143361   0.986   6.669   4.666  0.0374 -0.9266  1.0589
 7290TIP3    H243362   1.119   6.693   4.598 -0.7471 -0.8737 -0.5126
 7291TIP3   OH243363   0.360   4.272  15.691 -0.1580 -1.0837  0.1144
 7291TIP3    H143364   0.402   4.296  15.608  0.9054 -1.5374  0.4931
 7291TIP3    H243365   0.268   4.292  15.678 -0.1284 -1.8368 -1.4374
 7292TIP3   OH243366   0.640   6.597  13.484  0.4011 -0.3552 -0.0232
 7292TIP3    H143367   0.634   6.508  13.449  0.2051 -0.5959  0.6220
 7292TIP3    H243368   0.706   6.640  13.429  0.7059 -0.9790 -0.1497
 7293TIP3   OH243369   4.370   4.638  11.449 -0.0676 -0.2898 -0.3474
 7293TIP3    H143370   4.343   4.598  11.532  0.8306 -0.4546 -0.1237
 7293TIP3    H243371   4.344   4.575  11.382  1.4793 -1.3677  0.0147
 7294TIP3   OH243372   2.034   2.829   5.987 -0.5033  0.3936  0.7749
 7294TIP3    H143373   2.033   2.887   5.910  0.5893  0.2829  0.6660
 7294TIP3    H243374   1.970   2.869   6.047 -0.9784  0.7791  0.0309
 7295TIP3   OH243375   6.402   5.240  12.530 -0.2444  0.3349 -0.2179
 7295TIP3    H143376   6.341   5.293  12.581 -0.3037  0.3245 -0.2782
 7295TIP3    H243377   6.488   5.265  12.562 -0.2685  0.5324 -0.3089
 7296TIP3   OH243378   6.241   2.834   3.835  0.2107  0.1946 -0.1025
 7296TIP3    H143379   6.198   2.759   3.794  0.0760  1.0422 -1.5947
 7296TIP3    H243380   6.331   2.830   3.803 -0.4535  2.1879 -2.5426
 7297TIP3   OH243381   5.465   4.535  11.703  0.6332 -0.4811 -0.0911
 7297TIP3    H143382   5.448   4.572  11.790  0.2365  2.2727 -1.2499
 7297TIP3    H243383   5.396   4.470  11.692  0.6780 -0.8775  1.6298
 7298TIP3   OH243384   1.080   6.525  12.411  0.0141 -0.3901 -0.0593
 7298TIP3    H143385   1.142   6.592  12.440  2.3157 -1.4605 -2.1718
 7298TIP3    H243386   1.107   6.445  12.457 -2.0997 -0.2151  1.6885
 7299TIP3   OH243387   5.266   6.718   6.319  0.0047  0.3691  0.0204
 7299TIP3    H143388   5.216   6.752   6.244  0.8242  1.3442 -0.1010
 7299TIP3    H243389   5.298   6.633   6.290 -1.0552  0.0012 -0.1248
 7300TIP3   OH243390   3.706   5.758   1.618 -0.0548 -0.4123 -0.5043
 7300TIP3    H143391   3.706   5.727   1.709 -0.5579 -2.1228 -1.0616
 7300TIP3    H243392   3.799   5.760   1.595  0.2046  1.4668  0.4683
 7301TIP3   OH243393   0.342   3.783   5.466  0.6362 -0.1438  0.4754
 7301TIP3    H143394   0.357   3.814   5.377 -0.9189 -0.9656 -0.1219
 7301TIP3    H243395   0.299   3.856   5.510  1.8097  0.4240  0.7055
 7302TIP3   OH243396   0.772   3.797   0.878 -0.3641 -0.0068  0.1610
 7302TIP3    H143397   0.738   3.709   0.867  2.3447 -0.9556 -1.7786
 7302TIP3    H243398   0.706   3.854   0.839 -1.2705 -1.3765 -0.3573
 7303TIP3   OH243399   6.786   4.706  14.254 -0.4654  0.2256  0.1841
 7303TIP3    H143400   6.879   4.711  14.230 -0.3616 -0.5686  0.3928
 7303TIP3    H243401   6.775   4.617  14.288 -1.4221  0.1289 -0.3404
 7304TIP3   OH243402   0.045   2.069   5.592  0.0251  0.4511 -0.0068
 7304TIP3    H143403  -0.023   2.067   5.524 -0.7109  3.3652  0.5298
 7304TIP3    H243404   0.124   2.039   5.547 -0.4610  2.1552 -2.1839
 7305TIP3   OH243405   0.379   1.971   5.434 -0.0982 -0.5862 -0.5444
 7305TIP3    H143406   0.387   2.027   5.357  0.4938  0.6375  0.3687
 7305TIP3    H243407   0.468   1.959   5.465 -0.2991 -1.3524 -0.2389
 7306TIP3   OH243408   4.321   1.007  15.585  0.4896 -0.2693  0.8340
 7306TIP3    H143409   4.355   0.918  15.597  1.8011  0.0336 -0.3063
 7306TIP3    H243410   4.252   1.016  15.651  0.3619 -2.1057  0.9907
 7307TIP3   OH243411   0.317   3.451   3.400  0.0221  0.3358 -0.1959
 7307TIP3    H143412   0.407   3.420   3.391 -0.3107 -0.3332 -1.4828
 7307TIP3    H243413   0.309   3.524   3.339 -0.4541  0.0160 -0.5312
 7308TIP3   OH243414   1.137   5.277   0.490  0.2670  0.1923 -0.5643
 7308TIP3    H143415   1.228   5.304   0.502  0.4590 -0.8406  0.4934
 7308TIP3    H243416   1.134   5.187   0.523 -1.2452  0.3823 -0.1089
 7309TIP3   OH243417   1.157   2.210  13.226  0.5880 -0.5993 -0.3120
 7309TIP3    H143418   1.123   2.124  13.250  3.3605 -1.3070  1.5490
 7309TIP3    H243419   1.079   2.261  13.202 -1.4396 -2.7940  1.2020
 7310TIP3   OH243420   6.251   2.752  12.986  0.1081  1.1310 -0.1510
 7310TIP3    H143421   6.197   2.811  13.040 -0.2468  1.6496 -1.0540
 7310TIP3    H243422   6.261   2.798  12.903 -0.3256 -0.1757 -0.9424
 7311TIP3   OH243423   2.481   0.076  12.723 -0.6477  0.7237  0.0904
 7311TIP3    H143424   2.548   0.012  12.743 -0.4895  1.2930  1.5192
 7311TIP3    H243425   2.520   0.133  12.657 -0.0718  0.4877  0.2257
 7312TIP3   OH243426   0.874   3.134  10.459 -0.0919  0.0033  0.3140
 7312TIP3    H143427   0.911   3.049  10.439  0.9593  0.8718 -1.7342
 7312TIP3    H243428   0.806   3.148  10.393 -0.8878  0.3899  1.1834
 7313TIP3   OH243429   4.842   1.053  17.009  0.0836 -0.2771 -0.2366
 7313TIP3    H143430   4.860   1.142  17.038  0.0430 -0.4157  0.2271
 7313TIP3    H243431   4.830   1.060  16.914  1.2862  0.0196 -0.3791
 7314TIP3   OH243432   3.653   3.469  16.939 -0.1664 -0.3547 -0.0394
 7314TIP3    H143433   3.737   3.449  16.980 -0.0061  0.6021  0.1354
 7314TIP3    H243434   3.611   3.529  17.001  0.6727  2.2778 -1.8417
 7315TIP3   OH243435   5.196   6.573  13.041  0.3485 -0.1806 -0.4023
 7315TIP3    H143436   5.206   6.659  13.083 -1.0323  0.1162 -0.6210
 7315TIP3    H243437   5.247   6.514  13.096  1.5989  0.8143 -0.4318
 7316TIP3   OH243438   6.027   2.547  15.731  0.0076  0.4626 -0.5848
 7316TIP3    H143439   6.057   2.485  15.665 -0.3132  1.3797 -1.6190
 7316TIP3    H243440   5.995   2.622  15.681  0.5083  1.5298  0.6382
 7317TIP3   OH243441   6.628   5.991   2.605 -0.4255  0.0774 -0.3608
 7317TIP3    H143442   6.612   5.897   2.591  0.0525 -0.2676  1.2389
 7317TIP3    H243443   6.721   6.002   2.590 -0.7386  0.6278 -2.1030
 7318TIP3   OH243444   0.712   0.658  14.979 -0.3897  0.2782  0.8210
 7318TIP3    H143445   0.624   0.655  14.940 -0.8987  0.1882  1.9295
 7318TIP3    H243446   0.697   0.643  15.072  1.0000 -1.7197  0.7868
 7319TIP3   OH243447   6.826   0.532   1.127  0.0089 -0.6939  0.5476
 7319TIP3    H143448   6.886   0.559   1.057 -1.8591 -1.5467 -1.4869
 7319TIP3    H243449   6.765   0.605   1.136 -0.4190 -1.0452  0.5147
 7320TIP3   OH243450   2.994   2.943   2.048 -0.3787  0.8532 -0.4858
 7320TIP3    H143451   3.047   2.869   2.022 -0.3381  0.4988  0.5729
 7320TIP3    H243452   2.904   2.909   2.049 -0.4390  1.0032 -0.6391
 7321TIP3   OH243453   2.229   6.269   0.435  0.2956 -0.1309  0.6454
 7321TIP3    H143454   2.308   6.242   0.483 -1.1086 -1.7079  2.2267
 7321TIP3    H243455   2.179   6.320   0.499  0.1220  1.0447 -0.4088
 7322TIP3   OH243456   3.680   3.338   3.385 -0.2012 -0.2762 -0.4001
 7322TIP3    H143457   3.730   3.275   3.334 -1.8881 -1.2650 -0.9256
 7322TIP3    H243458   3.741   3.370   3.451  0.6790 -2.5871  0.0023
 7323TIP3   OH243459   4.246   0.036   2.877  0.1947  0.3778 -0.1066
 7323TIP3    H143460   4.279   0.052   2.789  1.6155  0.6095  0.4261
 7323TIP3    H243461   4.289   0.103   2.931  0.5354 -0.6735  0.9952
 7324TIP3   OH243462   5.938   5.662  15.867  0.6691  1.0027  0.2572
 7324TIP3    H143463   5.983   5.609  15.801 -0.5785  0.3493 -0.0975
 7324TIP3    H243464   5.860   5.694  15.822  0.2406  1.2512  1.1676
 7325TIP3   OH243465   5.980   5.880   4.442 -0.2334  0.3478  0.4680
 7325TIP3    H143466   5.924   5.903   4.368  0.4633  0.2505 -0.1000
 7325TIP3    H243467   6.058   5.935   4.431 -0.0589  0.2249  1.0475
 7326TIP3   OH243468   4.753   3.351  15.754  0.4124  0.7700  0.1480
 7326TIP3    H143469   4.804   3.314  15.682 -0.7241  0.7164 -0.6452
 7326TIP3    H243470   4.796   3.434  15.774  0.3459  1.1181 -1.0588
 7327TIP3   OH243471   4.032   0.443   1.955  0.2871 -0.1172 -0.2179
 7327TIP3    H143472   4.095   0.515   1.960  0.5798 -0.4740  1.9762
 7327TIP3    H243473   3.954   0.476   1.999 -0.1663 -0.5965 -0.6483
 7328TIP3   OH243474   4.572   3.460  13.829  0.8368 -0.0336 -0.1699
 7328TIP3    H143475   4.637   3.418  13.774  0.9316 -0.0716 -0.0295
 7328TIP3    H243476   4.622   3.508  13.894  0.7437  1.2216 -0.9972
 7329TIP3   OH243477   6.423   3.380   3.622 -0.3439  0.0748  0.4055
 7329TIP3    H143478   6.387   3.326   3.692  0.8483 -0.2031  0.8317
 7329TIP3    H243479   6.351   3.438   3.597 -1.1467 -0.6238  1.0485
 7330TIP3   OH243480   5.871   2.028  15.625 -0.3349  0.3285  0.1650
 7330TIP3    H143481   5.800   2.082  15.589 -0.7769  0.9411  1.8673
 7330TIP3    H243482   5.868   1.948  15.574  1.1670  2.2816 -3.3717
 7331TIP3   OH243483   4.187   3.148   4.098 -0.1477 -0.5230 -0.5925
 7331TIP3    H143484   4.234   3.164   4.016 -1.2704 -0.9821 -1.3537
 7331TIP3    H243485   4.121   3.217   4.102  2.6660  2.3218  2.2347
 7332TIP3   OH243486   5.658   4.197   6.229 -0.1986  0.4814  0.4006
 7332TIP3    H143487   5.609   4.278   6.242 -0.0538  0.2802  2.4676
 7332TIP3    H243488   5.739   4.209   6.279 -0.5408 -1.2327  1.4393
 7333TIP3   OH243489   0.478   3.794  11.184  0.0387  0.3251 -0.5839
 7333TIP3    H143490   0.411   3.834  11.129  0.4812  1.4393 -0.3312
 7333TIP3    H243491   0.536   3.748  11.122 -1.6980 -1.8529 -0.7012
 7334TIP3   OH243492   5.356   1.526   4.303  0.3612 -0.4321 -0.1639
 7334TIP3    H143493   5.335   1.602   4.250  0.5317  0.2258  0.6871
 7334TIP3    H243494   5.420   1.558   4.367  0.8083 -1.4071 -0.0997
 7335TIP3   OH243495   5.759   0.581   0.072 -0.6169 -0.1411 -0.0159
 7335TIP3    H143496   5.675   0.542   0.097 -0.4426 -1.9349 -1.9388
 7335TIP3    H243497   5.820   0.549   0.138 -1.0929 -0.4338  0.2942
 7336TIP3   OH243498   1.534   2.255   1.328  0.0700 -0.1597 -0.2022
 7336TIP3    H143499   1.623   2.223   1.344  0.3836  1.3823  1.4114
 7336TIP3    H243500   1.480   2.212   1.395 -0.1902 -0.1875 -0.4253
 7337TIP3   OH243501   5.518   6.346   0.454  0.0388  0.8509  0.0192
 7337TIP3    H143502   5.429   6.333   0.485 -0.0571 -0.2524 -0.6468
 7337TIP3    H243503   5.564   6.265   0.476  0.5861  0.9828 -0.5870
 7338TIP3   OH243504   0.033   1.424   0.595 -0.7384  0.2357  0.2624
 7338TIP3    H143505   0.113   1.427   0.543 -1.3505 -0.9197 -0.8047
 7338TIP3    H243506  -0.036   1.447   0.533 -1.4260 -0.6216  0.6948
 7339TIP3   OH243507   4.198   4.193   2.470 -0.2815  0.1884  0.5393
 7339TIP3    H143508   4.204   4.289   2.465  0.4118  0.1770  0.9551
 7339TIP3    H243509   4.112   4.176   2.509 -1.1829  0.5733 -1.1878
 7340TIP3   OH243510   3.757   1.208  11.417  0.2219 -0.0145  0.3618
 7340TIP3    H143511   3.674   1.257  11.417  0.8416  1.1517 -2.0863
 7340TIP3    H243512   3.799   1.233  11.499  0.3025  3.3176 -0.5587
 7341TIP3   OH243513   4.382   3.620   2.731 -0.3646  0.4853 -0.2123
 7341TIP3    H143514   4.377   3.674   2.652  0.4351  1.5277  0.4172
 7341TIP3    H243515   4.476   3.610   2.746 -0.4590 -1.9674 -0.8660
 7342TIP3   OH243516   1.168   5.805  15.381 -0.4874  0.2431  0.7698
 7342TIP3    H143517   1.234   5.738  15.364  0.8369  1.5509  0.4836
 7342TIP3    H243518   1.085   5.765  15.357  0.2669 -1.2818  0.6368
 7343TIP3   OH243519   2.093   3.570  13.753  0.0215  0.1269  0.3240
 7343TIP3    H143520   2.055   3.585  13.839 -0.3913 -1.2065  0.3936
 7343TIP3    H243521   2.187   3.566  13.768 -0.1157 -1.3138  0.9324
 7344TIP3   OH243522   5.255   3.003  14.623 -0.5604 -0.2817 -0.5336
 7344TIP3    H143523   5.339   2.962  14.606 -0.7514 -0.5363 -0.8662
 7344TIP3    H243524   5.266   3.094  14.595  0.3434  0.3272  1.6033
 7345TIP3   OH243525   3.053   5.993   4.089  0.5058  0.5959 -0.2123
 7345TIP3    H143526   3.095   5.914   4.121  1.2689  0.9373 -0.3382
 7345TIP3    H243527   2.963   5.988   4.121  0.1078 -1.0523 -1.4728
 7346TIP3   OH243528   4.709   0.116  16.550 -0.3722  0.0597 -0.2626
 7346TIP3    H143529   4.733   0.071  16.469 -0.1187  0.6703 -0.5398
 7346TIP3    H243530   4.627   0.075  16.577  0.0594 -0.8391 -0.2759
 7347TIP3   OH243531   6.695   0.350  14.013 -0.0815 -0.4471 -0.0670
 7347TIP3    H143532   6.641   0.273  14.030 -0.3407  0.0192  1.3937
 7347TIP3    H243533   6.646   0.400  13.948 -1.0760 -0.4123  0.6767
 7348TIP3   OH243534   6.406   0.978  12.868  0.0348 -0.3282 -0.2563
 7348TIP3    H143535   6.346   0.983  12.794 -3.7534 -1.3756  2.4169
 7348TIP3    H243536   6.442   1.067  12.876  0.8023 -0.2713 -3.3645
 7349TIP3   OH243537   2.248   0.401  16.299 -0.2124 -0.1413  0.5542
 7349TIP3    H143538   2.216   0.487  16.270 -0.5596  0.1102  1.6141
 7349TIP3    H243539   2.168   0.351  16.316 -0.0125 -0.5424  0.2966
 7350TIP3   OH243540   2.819   1.805  15.899  0.4064  0.0125  0.2745
 7350TIP3    H143541   2.902   1.810  15.947 -0.8423  0.1614  2.5910
 7350TIP3    H243542   2.766   1.875  15.938 -1.6602 -1.6812  0.7051
 7351TIP3   OH243543   5.529   1.471  11.993  0.2509 -0.3175  0.2358
 7351TIP3    H143544   5.618   1.507  11.998  1.0600 -2.2613  0.9115
 7351TIP3    H243545   5.501   1.488  11.904  0.9415  1.1015  0.2603
 7352TIP3   OH243546   0.547   4.367  13.210 -0.0025 -0.0006  0.3755
 7352TIP3    H143547   0.546   4.401  13.120 -0.8386 -1.4036 -0.1823
 7352TIP3    H243548   0.509   4.280  13.203 -0.1363 -0.1202  2.1214
 7353TIP3   OH243549   0.463   0.012  10.390  0.1373 -0.3837 -0.5685
 7353TIP3    H143550   0.538  -0.037  10.357 -0.2997 -0.3369 -1.6848
 7353TIP3    H243551   0.497   0.063  10.463  1.1122 -0.6215 -0.8491
 7354TIP3   OH243552   6.240   0.774   4.051  0.1404  0.0344 -0.1639
 7354TIP3    H143553   6.153   0.803   4.078  0.8222  0.5736  1.5677
 7354TIP3    H243554   6.281   0.742   4.131  1.8912  0.7191 -0.7435
 7355TIP3   OH243555   6.030   3.962  12.855  0.6161  0.1086 -0.5967
 7355TIP3    H143556   6.104   3.983  12.797  0.5320  2.6935  0.1149
 7355TIP3    H243557   6.052   4.004  12.938  0.4534 -2.9963  1.1684
 7356TIP3   OH243558   5.109   2.392  12.155 -0.1975 -0.4369  0.0512
 7356TIP3    H143559   5.058   2.357  12.082 -1.0541  0.6473  0.1053
 7356TIP3    H243560   5.182   2.437  12.114 -1.1919  0.9942 -0.2217
 7357TIP3   OH243561   6.303   3.687  14.618  0.4318 -0.1941  0.1506
 7357TIP3    H143562   6.377   3.690  14.679  0.4369 -1.4154  0.2350
 7357TIP3    H243563   6.228   3.719  14.669  0.9409  1.3930 -0.0419
 7358TIP3   OH243564   4.506   1.259   4.007  0.1587  0.4131  0.3422
 7358TIP3    H143565   4.418   1.262   3.971  0.4594  2.6204 -0.3707
 7358TIP3    H243566   4.560   1.304   3.942  1.1069  2.5695  2.4759
 7359TIP3   OH243567   1.120   6.794   5.038 -0.5603 -0.2066  0.6209
 7359TIP3    H143568   1.118   6.701   5.019 -1.1476 -0.2127  0.7054
 7359TIP3    H243569   1.150   6.835   4.957  2.2514 -0.6474  1.3049
 7360TIP3   OH243570   5.388   4.124  12.595  0.1917 -0.5625  0.4670
 7360TIP3    H143571   5.318   4.088  12.542 -0.5851  1.9894 -0.3885
 7360TIP3    H243572   5.350   4.202  12.636  2.3124  0.5079  0.5464
 7361TIP3   OH243573   3.439   1.412   3.174  0.6766  0.0350  0.3974
 7361TIP3    H143574   3.358   1.393   3.128  1.5380 -0.7379 -0.8610
 7361TIP3    H243575   3.433   1.361   3.255  0.9088 -2.0381 -0.8033
 7362TIP3   OH243576   4.364   0.796   4.439 -0.7452 -0.4875 -0.6201
 7362TIP3    H143577   4.338   0.862   4.502  0.3292 -1.5232  0.9919
 7362TIP3    H243578   4.423   0.842   4.379  0.6389 -0.1065  0.9568
 7363TIP3   OH243579   1.597   1.446  13.009  0.4106 -0.8812 -0.2980
 7363TIP3    H143580   1.523   1.429  12.950 -0.1482  1.8760 -0.4960
 7363TIP3    H243581   1.590   1.539  13.031  2.7238 -0.9908  1.2494
 7364TIP3   OH243582   5.963   1.224   0.195 -0.3361  0.2940 -0.6682
 7364TIP3    H143583   5.943   1.317   0.179  2.2758  1.2805  1.1626
 7364TIP3    H243584   5.914   1.203   0.275  0.4232  0.6369 -0.1039
 7365TIP3   OH243585   6.590   5.673   4.307  0.6739  0.0510  0.1653
 7365TIP3    H143586   6.503   5.671   4.345  0.8424  0.2988  0.5696
 7365TIP3    H243587   6.624   5.584   4.318  0.5140 -0.0184  0.0996
 7366TIP3   OH243588   5.807   0.806   1.085 -0.0958 -0.1543 -0.7004
 7366TIP3    H143589   5.801   0.897   1.056 -0.1369 -0.4694 -1.7225
 7366TIP3    H243590   5.785   0.809   1.178  1.1626  1.0408 -0.4088
 7367TIP3   OH243591   0.569   0.581  12.956  0.2221 -0.2440 -0.1839
 7367TIP3    H143592   0.584   0.654  13.017  0.0527 -0.6364  0.3325
 7367TIP3    H243593   0.640   0.589  12.892  0.0685  0.5195 -0.2743
 7368TIP3   OH243594   1.194   4.667  11.526  0.1143 -0.3060 -0.4628
 7368TIP3    H143595   1.283   4.637  11.543  0.1575 -0.0741 -0.2600
 7368TIP3    H243596   1.205   4.758  11.497 -0.0529 -0.2896 -0.4769
 7369TIP3   OH243597   6.654   2.392  15.334  0.1609 -0.1367  0.1548
 7369TIP3    H143598   6.582   2.388  15.398  2.0204 -1.4559  2.3032
 7369TIP3    H243599   6.687   2.303  15.329  1.4926  0.3815 -1.0190
 7370TIP3   OH243600   4.446   0.904  15.985  0.3413 -0.2553 -0.0736
 7370TIP3    H143601   4.392   0.975  15.950 -0.7179 -1.1617 -0.3086
 7370TIP3    H243602   4.535   0.940  15.985  0.0316  0.5967 -1.4851
 7371TIP3   OH243603   2.619   1.950   4.434  0.2821  0.8345 -0.0049
 7371TIP3    H143604   2.660   1.901   4.506  0.4329  0.2193 -0.5019
 7371TIP3    H243605   2.598   1.884   4.369 -1.4600  1.1458  0.2004
 7372TIP3   OH243606   2.507   5.231  17.149 -0.6377  0.5843  0.4191
 7372TIP3    H143607   2.527   5.153  17.097 -1.6294  0.0479  0.8104
 7372TIP3    H243608   2.434   5.205  17.204 -3.7450  2.9162 -2.2118
 7373TIP3   OH243609   0.700   6.540   4.383 -0.4954 -0.2075  0.3766
 7373TIP3    H143610   0.639   6.519   4.311  1.2207 -0.1881 -1.1422
 7373TIP3    H243611   0.750   6.460   4.395  1.9893  0.9585 -1.3177
 7374TIP3   OH243612   1.664   4.297  16.254  0.2391 -0.4084 -0.1850
 7374TIP3    H143613   1.593   4.233  16.258 -0.4002  0.2934  0.0496
 7374TIP3    H243614   1.623   4.376  16.218  0.0960  0.9742  2.6918
 7375TIP3   OH243615   5.752   0.025  11.767  0.4079  0.2457  0.4334
 7375TIP3    H143616   5.719   0.113  11.748 -2.8743 -0.7948  0.6839
 7375TIP3    H243617   5.847   0.034  11.767  0.1929  3.6478 -0.1272
 7376TIP3   OH243618   4.597   6.824   2.508  0.2006  0.2108  0.3130
 7376TIP3    H143619   4.542   6.757   2.549 -0.6757  0.1644 -0.8771
 7376TIP3    H243620   4.642   6.778   2.437 -0.0068  0.7646 -0.1843
 7377TIP3   OH243621   1.725   4.024   2.629 -0.1670  0.3978 -0.4043
 7377TIP3    H143622   1.741   4.048   2.537 -1.0472 -2.1868 -1.3045
 7377TIP3    H243623   1.646   3.969   2.626 -0.3481  0.4435  1.9596
 7378TIP3   OH243624   3.231   2.670  15.959  0.5578 -0.1271 -0.3953
 7378TIP3    H143625   3.146   2.688  16.000  0.5491 -0.3791 -0.3049
 7378TIP3    H243626   3.287   2.741  15.989  0.6243 -0.4493  0.2611
 7379TIP3   OH243627   0.667   2.324   5.437  0.2389 -0.0719  0.1253
 7379TIP3    H143628   0.712   2.275   5.506  1.0542 -0.5679 -0.7382
 7379TIP3    H243629   0.646   2.408   5.477  1.5517  0.0103  0.7078
 7380TIP3   OH243630   2.744   3.760   1.250 -0.1665  0.1205  0.0789
 7380TIP3    H143631   2.709   3.767   1.339  0.8746 -1.2551  0.6331
 7380TIP3    H243632   2.836   3.787   1.258  0.3193 -1.3367 -0.2676
 7381TIP3   OH243633   5.367   3.753   2.448  0.0174 -0.2199 -0.3612
 7381TIP3    H143634   5.379   3.802   2.529 -1.3851 -0.4158 -0.0166
 7381TIP3    H243635   5.385   3.662   2.472  1.4355 -0.0520 -0.7214
 7382TIP3   OH243636   5.870   5.076   5.379  0.3811  0.3965  0.0439
 7382TIP3    H143637   5.840   5.051   5.467 -1.2019 -1.2279 -0.8919
 7382TIP3    H243638   5.962   5.050   5.377  1.1473  2.5906  1.9420
 7383TIP3   OH243639   6.294   5.952   4.836  0.2899  0.0493  0.0711
 7383TIP3    H143640   6.263   5.883   4.777 -0.3604  1.4589 -1.3167
 7383TIP3    H243641   6.280   6.033   4.787  1.1952  1.1653  1.5785
 7384TIP3   OH243642   4.448   2.184   5.248 -0.0603  0.0915  0.3051
 7384TIP3    H143643   4.482   2.115   5.190 -1.1612 -1.8506  1.8294
 7384TIP3    H243644   4.445   2.262   5.193 -1.5061 -1.7392 -2.4833
 7385TIP3   OH243645   6.256   0.003   0.304  0.3854 -0.0552 -0.3506
 7385TIP3    H143646   6.222   0.090   0.323 -1.6939 -0.9580  0.2664
 7385TIP3    H243647   6.226  -0.015   0.215  3.9184  1.2248 -1.9942
 7386TIP3   OH243648   6.149   2.949  14.649 -0.4900 -0.2339  0.1004
 7386TIP3    H143649   6.190   2.863  14.655  0.7428  0.3219  0.0219
 7386TIP3    H243650   6.214   3.009  14.685 -1.6911  0.5779  0.9923
 7387TIP3   OH243651   0.307   0.272   5.515  0.0050 -0.5151  0.4310
 7387TIP3    H143652   0.233   0.212   5.528 -0.4669 -0.2824 -0.9739
 7387TIP3    H243653   0.267   0.358   5.507  0.3800 -0.4123 -0.5334
 7388TIP3   OH243654   0.798   3.620   2.721 -0.5749  0.0392 -0.1155
 7388TIP3    H143655   0.751   3.655   2.796 -0.3465  1.8075 -0.7469
 7388TIP3    H243656   0.782   3.683   2.651 -2.2347 -2.4437 -2.1252
 7389TIP3   OH243657   2.689   1.649   1.825  0.4019 -0.4591 -0.1795
 7389TIP3    H143658   2.654   1.693   1.747 -1.5208  0.5200  1.1557
 7389TIP3    H243659   2.782   1.668   1.823 -0.1785  3.0129 -0.1660
 7390TIP3   OH243660   0.568   2.948   1.894  0.8648 -0.4518  0.2348
 7390TIP3    H143661   0.620   2.978   1.819  2.1240  0.0992  1.2954
 7390TIP3    H243662   0.633   2.920   1.959 -0.1945 -0.6766  1.2338
 7391TIP3   OH243663   0.327   1.662   0.108 -0.0375 -0.2769 -0.2037
 7391TIP3    H143664   0.337   1.602   0.182 -0.3249 -0.1509 -0.0596
 7391TIP3    H243665   0.329   1.750   0.148 -0.1837 -0.2083 -0.3447
 7392TIP3   OH243666   2.179   2.698   6.231  0.0182 -0.2590  0.0361
 7392TIP3    H143667   2.224   2.751   6.297 -0.7728 -1.6457  1.7694
 7392TIP3    H243668   2.147   2.762   6.167  2.1432  0.9938  0.1151
 7393TIP3   OH243669   3.676   2.251  15.771  0.0301 -0.4436  0.1201
 7393TIP3    H143670   3.681   2.202  15.853 -2.2973 -0.6078  0.2248
 7393TIP3    H243671   3.583   2.274  15.762  0.7183  2.3013 -0.8919
 7394TIP3   OH243672   0.018   1.923  13.035  0.1289  0.0400 -0.1293
 7394TIP3    H143673   0.010   1.835  13.072 -0.0277 -0.1028 -0.5008
 7394TIP3    H243674  -0.063   1.936  12.986  0.4614  0.1110 -0.6675
 7395TIP3   OH243675   2.261   3.982  14.193  0.4709  0.5123 -0.6998
 7395TIP3    H143676   2.230   4.047  14.256 -0.2750 -1.4820  1.1031
 7395TIP3    H243677   2.319   3.925  14.243 -0.5639 -1.4710 -1.6272
 7396TIP3   OH243678   2.670   2.712   6.409 -0.0672  0.0466  0.8430
 7396TIP3    H143679   2.758   2.715   6.447  0.7433 -0.4711 -0.8900
 7396TIP3    H243680   2.663   2.624   6.373 -1.3305  0.0747  1.0015
 7397TIP3   OH243681   3.343   6.512   6.093 -0.4595 -0.4231  0.5136
 7397TIP3    H143682   3.331   6.446   6.162  1.6397 -2.0713 -0.5916
 7397TIP3    H243683   3.374   6.462   6.017  1.8508  1.8632 -0.1928
 7398TIP3   OH243684   0.157   4.099  14.653  0.0336  0.0875  0.5333
 7398TIP3    H143685   0.236   4.094  14.706  0.1289  0.4293  0.4240
 7398TIP3    H243686   0.094   4.145  14.707 -0.2880 -0.7076  0.8544
 7399TIP3   OH243687   4.875   3.125  16.142  0.3580 -0.2218 -0.1127
 7399TIP3    H143688   4.816   3.050  16.148  1.7044 -1.4377 -1.1446
 7399TIP3    H243689   4.822   3.195  16.106 -1.0314 -0.5413  1.1986
 7400TIP3   OH243690   5.303   1.782   0.443 -0.2814  0.1897  0.6508
 7400TIP3    H143691   5.269   1.696   0.419 -1.0690  0.9365 -1.0448
 7400TIP3    H243692   5.326   1.823   0.360  0.6237  1.4229  1.4643
 7401TIP3   OH243693   3.146   1.144   2.232 -0.0180 -0.1199 -0.2230
 7401TIP3    H143694   3.185   1.090   2.163 -3.0734  0.3153 -2.4646
 7401TIP3    H243695   3.150   1.233   2.197  0.2440  0.4217  1.1304
 7402TIP3   OH243696   3.761   6.802  12.780 -0.3355  0.0745  0.1909
 7402TIP3    H143697   3.819   6.823  12.854 -0.7013  0.4503  0.3705
 7402TIP3    H243698   3.785   6.865  12.712 -0.9826  0.6590  0.4986
 7403TIP3   OH243699   0.990   3.485  15.694 -0.3708 -0.2492 -0.1009
 7403TIP3    H143700   0.902   3.450  15.682 -0.9962  1.0510  0.4968
 7403TIP3    H243701   1.036   3.417  15.743 -0.9735 -1.0263 -0.5922
 7404TIP3   OH243702   6.697   3.752   2.076 -1.0530  0.4780 -0.6930
 7404TIP3    H143703   6.779   3.800   2.068 -1.5850  1.5389 -0.0522
 7404TIP3    H243704   6.704   3.707   2.160 -0.5552 -0.6136 -1.2918
 7405TIP3   OH243705   1.704   0.491   1.731  0.1339 -0.1144 -0.4604
 7405TIP3    H143706   1.770   0.434   1.771  1.5171  0.7311 -1.4543
 7405TIP3    H243707   1.722   0.577   1.768 -1.5029 -0.1421  0.5034
 7406TIP3   OH243708   1.776   5.190  14.781  0.1791 -0.2085  0.5986
 7406TIP3    H143709   1.817   5.119  14.831  3.3005 -1.1234 -2.8527
 7406TIP3    H243710   1.699   5.149  14.741  1.1539 -1.3051 -0.2220
 7407TIP3   OH243711   2.616   5.778  14.599 -0.3476 -0.2790  0.9268
 7407TIP3    H143712   2.584   5.826  14.676 -0.2502 -1.4257  1.7132
 7407TIP3    H243713   2.694   5.731  14.631  0.2601 -0.0269 -0.1315
 7408TIP3   OH243714   6.504   6.766  13.845 -0.4431  0.1334  0.0870
 7408TIP3    H143715   6.435   6.712  13.882  0.6637 -1.0635  0.4707
 7408TIP3    H243716   6.473   6.856  13.855 -1.7784 -0.3689  0.5502
 7409TIP3   OH243717   2.131   3.500  12.631 -0.4919  0.2935 -0.7111
 7409TIP3    H143718   2.216   3.521  12.592  1.1982 -1.8083  1.5353
 7409TIP3    H243719   2.120   3.563  12.702  0.5312 -1.0049  0.6627
 7410TIP3   OH243720   5.953   3.424  13.341 -0.1060 -0.1437  0.2448
 7410TIP3    H143721   5.982   3.372  13.416 -1.1015  0.4111  1.0425
 7410TIP3    H243722   6.007   3.393  13.268  1.0077 -0.5718  1.2153
 7411TIP3   OH243723   3.005   1.885   4.376  0.5947 -0.1016 -0.1317
 7411TIP3    H143724   2.980   1.793   4.366 -1.6942  0.1953  1.9152
 7411TIP3    H243725   3.071   1.884   4.445  0.2059 -0.1903  0.2464
 7412TIP3   OH243726   0.242   5.996  17.041  0.5977  0.7051 -0.3084
 7412TIP3    H143727   0.288   5.916  17.016  0.7902  0.7074  0.0320
 7412TIP3    H243728   0.245   6.051  16.963 -0.3814  0.0004 -0.8715
 7413TIP3   OH243729   1.601   3.029  11.328  0.7854 -0.7346  0.5490
 7413TIP3    H143730   1.508   3.015  11.309  1.0754 -2.0414  0.0325
 7413TIP3    H243731   1.647   2.967  11.272  1.9482 -0.4587  1.1704
 7414TIP3   OH243732   4.113   0.346  15.539 -0.1028  0.0102 -0.3232
 7414TIP3    H143733   4.185   0.407  15.524  0.5475  0.0326  2.3630
 7414TIP3    H243734   4.156   0.263  15.560 -0.8515 -0.1145  0.7891
 7415TIP3   OH243735   0.781   4.241   5.398 -0.1992  0.4474  0.0783
 7415TIP3    H143736   0.810   4.151   5.384 -1.8910 -0.1853  0.3379
 7415TIP3    H243737   0.685   4.235   5.397 -0.4390  1.6664  3.5189
 7416TIP3   OH243738   4.556   3.905  12.310  0.0363 -0.0419 -0.7160
 7416TIP3    H143739   4.507   3.966  12.255  0.5433 -1.9345 -3.4802
 7416TIP3    H243740   4.514   3.910  12.396 -1.2166  2.6138 -1.4010
 7417TIP3   OH243741   0.416   6.434  14.072 -0.0655 -0.0000 -0.4469
 7417TIP3    H143742   0.389   6.476  13.991 -0.2531 -0.4169 -0.6034
 7417TIP3    H243743   0.504   6.468  14.089 -1.1547  2.4133  0.7927
 7418TIP3   OH243744   0.987   5.155  12.397  0.0422  0.0137  0.4138
 7418TIP3    H143745   1.013   5.065  12.412 -0.3157 -0.1661 -0.0096
 7418TIP3    H243746   0.989   5.165  12.301 -0.1698  0.3756  0.4437
 7419TIP3   OH243747   5.440   0.135  12.714  0.1912 -0.6386  0.2921
 7419TIP3    H143748   5.524   0.178  12.700 -0.0844 -0.3504 -0.5096
 7419TIP3    H243749   5.389   0.198  12.764  0.0423 -0.3311 -0.2464
 7420TIP3   OH243750   2.709   5.424   6.239 -1.3864  0.2662  0.1645
 7420TIP3    H143751   2.642   5.357   6.255 -0.3403 -1.8858 -3.4091
 7420TIP3    H243752   2.791   5.381   6.262 -0.8544  1.2723  0.1957
 7421TIP3   OH243753   4.047   6.143  11.088 -0.0627 -0.3272 -0.1462
 7421TIP3    H143754   4.104   6.134  11.012 -1.3011 -0.4767 -1.0972
 7421TIP3    H243755   3.962   6.169  11.051 -0.9111 -1.1919  1.1062
 7422TIP3   OH243756   1.220   6.326   5.172 -0.2465 -0.2455  0.7080
 7422TIP3    H143757   1.246   6.235   5.188 -0.2568 -0.4717 -0.4734
 7422TIP3    H243758   1.164   6.322   5.095 -0.6129  0.7212  0.9009
 7423TIP3   OH243759   2.713   2.782  16.461 -0.3673 -0.4126 -0.5116
 7423TIP3    H143760   2.618   2.785  16.467 -0.3527  1.8748 -0.1520
 7423TIP3    H243761   2.737   2.865  16.420  1.4144 -1.6301 -2.1119
 7424TIP3   OH243762   2.778   5.410   1.161 -0.3394  0.3747 -0.4986
 7424TIP3    H143763   2.771   5.457   1.244 -1.3553 -0.4977 -0.0690
 7424TIP3    H243764   2.711   5.342   1.165  0.6324 -0.7027 -1.3786
 7425TIP3   OH243765   3.597   5.708  13.769  0.1527 -0.5990  0.1996
 7425TIP3    H143766   3.652   5.631  13.756  0.4719 -0.6918  1.9444
 7425TIP3    H243767   3.658   5.782  13.769  0.2166 -0.6319  1.3784
 7426TIP3   OH243768   2.153   2.137  15.764 -0.1331  0.2409  0.2105
 7426TIP3    H143769   2.060   2.158  15.776 -0.4202  0.3477 -1.8544
 7426TIP3    H243770   2.164   2.127  15.669  2.3034  1.9343  0.2019
 7427TIP3   OH243771   1.732   3.295  14.948 -0.6920  0.1587 -0.1517
 7427TIP3    H143772   1.708   3.271  14.858 -0.2386 -2.3699  0.3236
 7427TIP3    H243773   1.741   3.211  14.993 -0.3078  1.3560  2.1141
 7428TIP3   OH243774   3.240   0.224  11.862  0.2551  0.0041 -0.0365
 7428TIP3    H143775   3.229   0.309  11.820 -2.4121 -0.1994  0.0478
 7428TIP3    H243776   3.220   0.160  11.794  0.9441 -0.5347  0.2452
 7429TIP3   OH243777   5.068   2.413   1.595 -0.5481 -0.5358  0.1906
 7429TIP3    H143778   5.114   2.390   1.515 -2.3651 -0.5886 -0.9065
 7429TIP3    H243779   5.009   2.339   1.611 -1.0787  0.0218  0.8644
 7430TIP3   OH243780   2.063   2.898   3.764 -0.3635 -0.1887  0.0717
 7430TIP3    H143781   2.075   2.993   3.767 -1.2845 -0.0746  0.8494
 7430TIP3    H243782   2.034   2.881   3.674 -2.4591  0.6018  0.5355
 7431TIP3   OH243783   5.020   6.426   5.122 -0.0483  0.6006 -0.0425
 7431TIP3    H143784   5.035   6.410   5.029  0.5682 -0.7303  0.2653
 7431TIP3    H243785   4.996   6.519   5.126 -0.0001  0.7097 -1.5087
 7432TIP3   OH243786   4.166   1.125   5.729  0.2775  0.1655 -0.2606
 7432TIP3    H143787   4.233   1.170   5.781  1.9857 -1.9967 -0.4681
 7432TIP3    H243788   4.090   1.121   5.786  1.2538  0.1566  1.0833
 7433TIP3   OH243789   2.004   6.039  16.834 -0.6406 -0.0089 -0.2736
 7433TIP3    H143790   2.008   6.026  16.929 -1.3962 -0.6521 -0.3162
 7433TIP3    H243791   2.094   6.058  16.808 -0.6513  1.6439  0.7693
 7434TIP3   OH243792   4.826   6.693  11.882 -0.0627 -0.2493  0.8957
 7434TIP3    H143793   4.890   6.763  11.867  1.0829 -1.0293  1.9500
 7434TIP3    H243794   4.751   6.718  11.829  1.3265  0.4042 -0.8656
 7435TIP3   OH243795   0.007   5.327   5.338  0.0919  0.0411  0.0315
 7435TIP3    H143796   0.010   5.316   5.433 -0.4414  0.3480  0.0889
 7435TIP3    H243797   0.096   5.355   5.314  0.4208 -0.7240  0.3456
 7436TIP3   OH243798   1.633   6.779  16.403  0.1229  0.0541  0.0215
 7436TIP3    H143799   1.646   6.728  16.323 -0.2879  1.7689 -1.1931
 7436TIP3    H243800   1.697   6.850  16.397 -1.2702  1.3770  0.1793
 7437TIP3   OH243801   6.382   0.090   1.502 -0.3360 -0.4985 -0.3971
 7437TIP3    H143802   6.372   0.089   1.407  1.8290 -2.4923 -0.6914
 7437TIP3    H243803   6.300   0.054   1.535 -1.5098  1.1228 -1.3990
 7438TIP3   OH243804   1.332   4.151  11.849  0.1072 -0.6843 -0.8868
 7438TIP3    H143805   1.284   4.141  11.931  1.1900  0.2138 -0.1183
 7438TIP3    H243806   1.350   4.062  11.820 -3.0282 -1.1443 -1.8626
 7439TIP3   OH243807   2.718   0.290  14.157 -0.4455  0.0933  0.0150
 7439TIP3    H143808   2.786   0.354  14.137  0.0035 -0.7018 -1.1000
 7439TIP3    H243809   2.764   0.206  14.161 -0.8319 -0.0715  2.6270
 7440TIP3   OH243810   2.671   4.904   3.360  0.6083 -0.4681 -0.1750
 7440TIP3    H143811   2.732   4.844   3.317 -0.5852 -1.8088 -0.0614
 7440TIP3    H243812   2.714   4.927   3.443  1.0738 -1.2116 -0.2018
 7441TIP3   OH243813   2.356   2.968   4.934  0.1790  0.4848  0.3990
 7441TIP3    H143814   2.322   2.927   4.855 -0.6474  0.6309  0.6672
 7441TIP3    H243815   2.445   2.995   4.911  0.3347 -0.4291 -0.1376
 7442TIP3   OH243816   2.306   4.726   2.906  0.4919 -0.2855  0.4763
 7442TIP3    H143817   2.304   4.815   2.940 -1.3790  0.5668 -1.5889
 7442TIP3    H243818   2.236   4.681   2.952 -0.1125  0.0174 -0.1330
 7443TIP3   OH243819   6.179   2.053  14.313  0.4662 -0.3595  0.2179
 7443TIP3    H143820   6.219   2.123  14.262  1.9291 -0.6565  0.8957
 7443TIP3    H243821   6.253   2.008  14.354 -0.5078 -1.6630  0.6173
 7444TIP3   OH243822   2.899   5.658   4.508 -0.1220 -0.2259 -0.0716
 7444TIP3    H143823   2.834   5.663   4.579  1.4573 -0.4068  1.4619
 7444TIP3    H243824   2.872   5.582   4.457 -1.4855  0.1005  0.1143
 7445TIP3   OH243825   5.917   4.470   0.737 -0.2280 -0.1231  0.4688
 7445TIP3    H143826   5.988   4.436   0.791 -0.7699 -0.3970  1.0210
 7445TIP3    H243827   5.875   4.392   0.700 -1.5623 -0.0927  1.8500
 7446TIP3   OH243828   3.611   0.729   4.993  0.2824 -0.1284 -0.2794
 7446TIP3    H143829   3.586   0.654   4.939  1.6047 -1.3879  0.7579
 7446TIP3    H243830   3.537   0.789   4.987 -0.9040 -1.5965 -1.0088
 7447TIP3   OH243831   2.213   4.571   5.417  0.0174  0.2548  0.7273
 7447TIP3    H143832   2.249   4.498   5.367  0.1190 -0.1307  1.3470
 7447TIP3    H243833   2.119   4.568   5.400  0.0355  0.0440  0.6609
 7448TIP3   OH243834   2.145   1.440   3.954 -0.3673  0.1123 -0.0244
 7448TIP3    H143835   2.086   1.425   4.028 -1.7446 -1.9411 -1.4279
 7448TIP3    H243836   2.089   1.431   3.877  1.0851  1.8651 -1.3621
 7449TIP3   OH243837   5.662   2.955  16.267 -0.2142  0.1136  0.4888
 7449TIP3    H143838   5.577   2.970  16.225 -0.2878 -2.4816 -0.4438
 7449TIP3    H243839   5.642   2.945  16.360 -1.2117 -1.9071  0.1188
 7450TIP3   OH243840   2.043   0.295   2.094  0.6401 -0.5951 -0.2727
 7450TIP3    H143841   1.975   0.351   2.132  0.4878 -2.4063  2.4057
 7450TIP3    H243842   2.123   0.347   2.102 -0.0108  0.6039 -1.1943
 7451TIP3   OH243843   4.151   3.142   2.225  0.1442  0.7518 -0.0736
 7451TIP3    H143844   4.099   3.138   2.145 -0.1329  0.6630  0.1119
 7451TIP3    H243845   4.108   3.081   2.285  0.8944  0.1110 -0.1729
 7452TIP3   OH243846   0.920   6.359   4.597  0.1147  0.4456 -0.5085
 7452TIP3    H143847   0.957   6.318   4.519  2.6365 -0.9628  1.2904
 7452TIP3    H243848   0.978   6.433   4.615 -0.0546  0.3766  0.3762
 7453TIP3   OH243849   0.213   5.939   0.105  0.3171 -0.3941  0.2372
 7453TIP3    H143850   0.229   5.967   0.015  0.2172 -1.3686 -0.0994
 7453TIP3    H243851   0.292   5.891   0.129 -0.5702 -2.1412 -0.1722
 7454TIP3   OH243852   0.116   6.788  11.394  0.2691  0.1082  0.5129
 7454TIP3    H143853   0.189   6.726  11.392 -1.6718 -2.3031 -0.6967
 7454TIP3    H243854   0.045   6.739  11.437 -1.5860  1.1732 -1.2149
 7455TIP3   OH243855   0.474   1.609   1.658  0.0269  0.1093  0.4295
 7455TIP3    H143856   0.464   1.652   1.574  0.1105 -0.4858  0.1118
 7455TIP3    H243857   0.426   1.527   1.650 -0.5618  0.3634  1.1998
 7456TIP3   OH243858   2.943   0.457  16.982  0.6765 -0.0331 -0.2267
 7456TIP3    H143859   2.955   0.538  17.031 -0.9249  0.4949 -0.6467
 7456TIP3    H243860   2.917   0.393  17.048  0.0327  0.2913 -0.1572
 7457TIP3   OH243861   2.386   2.246  14.765  0.2281 -0.2611  0.3093
 7457TIP3    H143862   2.353   2.278  14.850 -1.5404 -0.9555 -0.0766
 7457TIP3    H243863   2.372   2.152  14.768  4.1818 -0.9988  0.9002
 7458TIP3   OH243864   2.590   4.900   7.030 -0.1354 -0.6893 -0.2514
 7458TIP3    H143865   2.617   4.814   6.998 -1.8529 -0.8547 -1.3818
 7458TIP3    H243866   2.499   4.910   7.000 -0.1236  1.3395  0.2182
 7459TIP3   OH243867   2.589   2.926   0.505 -0.8062 -0.1429  0.1485
 7459TIP3    H143868   2.538   2.997   0.466 -0.1882 -0.0264 -0.4601
 7459TIP3    H243869   2.679   2.944   0.479 -0.3828 -0.1104  1.5743
 7460TIP3   OH243870   1.149   4.097   3.725 -0.4894  0.2988 -0.3101
 7460TIP3    H143871   1.115   4.107   3.813  0.6716 -2.7623  0.6435
 7460TIP3    H243872   1.074   4.068   3.673 -0.9853  1.2714 -0.1549
 7461TIP3   OH243873   2.391   1.477   0.320  0.4382  0.4090  0.0013
 7461TIP3    H143874   2.296   1.485   0.319  0.3570 -0.5457 -0.5864
 7461TIP3    H243875   2.420   1.545   0.382 -0.5567  1.2281 -0.4068
 7462TIP3   OH243876   1.815   2.791   1.356  0.1724  0.3758  0.2447
 7462TIP3    H143877   1.828   2.739   1.435  1.3668  0.5068  0.1527
 7462TIP3    H243878   1.890   2.770   1.301 -1.2149 -0.5770 -1.3510
 7463TIP3   OH243879   2.419   5.158   5.910 -0.0987  0.1971 -0.5370
 7463TIP3    H143880   2.399   5.071   5.876 -0.2389  0.5063 -1.2637
 7463TIP3    H243881   2.341   5.184   5.959  0.4208 -0.5929  0.7626
 7464TIP3   OH243882   5.738   6.660  15.051  0.6428  0.1286 -0.1541
 7464TIP3    H143883   5.685   6.618  14.983  0.1131  0.6072 -0.0355
 7464TIP3    H243884   5.707   6.750  15.054  0.6150  0.0918  0.7817
 7465TIP3   OH243885   0.647   6.326   5.104  0.4902 -0.1897  0.0357
 7465TIP3    H143886   0.736   6.303   5.077  0.7207 -1.6878  1.8959
 7465TIP3    H243887   0.607   6.243   5.128 -1.0204  0.6080  0.3950
 7466TIP3   OH243888   0.429   5.490   4.087 -0.0783  0.7700  1.0455
 7466TIP3    H143889   0.525   5.493   4.082 -0.0104  0.9911  2.2413
 7466TIP3    H243890   0.400   5.530   4.006  0.8397  0.5787  0.6028
 7467TIP3   OH243891   4.843   2.058  15.088  0.2593  0.2766  0.4216
 7467TIP3    H143892   4.764   2.009  15.062  0.3189  0.8359 -0.8663
 7467TIP3    H243893   4.914   2.015  15.040  0.3863  1.2845 -0.3092
 7468TIP3   OH243894   6.350   6.010  10.947 -0.1070 -0.0893 -0.1953
 7468TIP3    H143895   6.278   5.981  10.891 -0.0426 -0.2780 -0.1807
 7468TIP3    H243896   6.395   6.076  10.895 -0.2471 -0.0208 -0.2315
 7469TIP3   OH243897   1.314   0.408  15.755 -0.1948  0.2079  0.1844
 7469TIP3    H143898   1.334   0.418  15.662 -1.0365 -0.2464 -0.0522
 7469TIP3    H243899   1.370   0.336  15.783  0.0183  0.3063  0.0204
 7470TIP3   OH243900   1.674   3.371  15.695 -0.4010  0.4424 -0.3268
 7470TIP3    H143901   1.695   3.461  15.722 -0.9280 -0.1760  2.5246
 7470TIP3    H243902   1.594   3.350  15.743 -0.9554 -1.1822 -1.8773
 7471TIP3   OH243903   3.878   3.362  12.604  0.6190  0.2567  0.2455
 7471TIP3    H143904   3.811   3.336  12.542  1.1016 -0.1131 -0.1247
 7471TIP3    H243905   3.884   3.457  12.594  0.5313  0.2274 -0.1024
 7472TIP3   OH243906   1.280   3.116  15.821 -0.2721 -0.1850 -0.3527
 7472TIP3    H143907   1.274   3.084  15.911 -1.6552  0.8098 -0.0492
 7472TIP3    H243908   1.250   3.042  15.768 -0.7051 -0.3484  0.1093
 7473TIP3   OH243909   0.429   0.223  14.541  0.0917 -0.3976 -0.3692
 7473TIP3    H143910   0.444   0.274  14.462  0.9083 -0.5462 -0.3215
 7473TIP3    H243911   0.497   0.155  14.539 -0.5362 -1.0533 -0.0777
 7474TIP3   OH243912   5.721   0.485   0.813 -0.5150  0.3658  0.0498
 7474TIP3    H143913   5.789   0.421   0.835  0.4903  0.5573 -2.1591
 7474TIP3    H243914   5.645   0.431   0.789  0.6100 -0.1887 -2.7205
 7475TIP3   OH243915   4.959   2.752   2.519 -0.4986 -0.5296 -0.3006
 7475TIP3    H143916   4.962   2.671   2.468 -0.0425 -0.6832 -0.0377
 7475TIP3    H243917   5.050   2.781   2.523 -0.7125  0.2443 -0.7773
 7476TIP3   OH243918   3.457   2.169  13.113  0.1152  0.3543  0.8443
 7476TIP3    H143919   3.415   2.089  13.085  0.1525  1.5761 -3.3161
 7476TIP3    H243920   3.385   2.230  13.131 -0.0116  0.9680 -1.4750
 7477TIP3   OH243921   3.556   5.623   5.538 -0.4177  0.4741  0.0800
 7477TIP3    H143922   3.626   5.656   5.595  0.4448  0.6558 -1.0391
 7477TIP3    H243923   3.497   5.698   5.528  0.7933  1.3064 -1.3088
 7478TIP3   OH243924   5.455   0.973  14.628 -0.0270 -0.2505  0.0891
 7478TIP3    H143925   5.389   0.921  14.673  0.8360 -1.3804  0.1068
 7478TIP3    H243926   5.435   1.064  14.652  0.6349 -0.8069  3.1429
 7479TIP3   OH243927   5.834   3.871   0.918 -0.0614  0.0715  0.3268
 7479TIP3    H143928   5.897   3.881   0.990 -1.5274  0.7304  1.5840
 7479TIP3    H243929   5.871   3.801   0.864  1.3711 -0.0734  1.4083
 7480TIP3   OH243930   1.095   0.249   4.433 -0.7695  0.2956  0.4342
 7480TIP3    H143931   1.029   0.288   4.489  0.5951  2.0175  0.9432
 7480TIP3    H243932   1.082   0.290   4.348 -0.9451 -0.0708  0.2825
 7481TIP3   OH243933   4.477   2.410  11.411 -0.0853 -0.1692  0.1969
 7481TIP3    H143934   4.537   2.381  11.343 -0.0907 -0.2281  0.2169
 7481TIP3    H243935   4.401   2.443  11.364  0.3550  0.8042  0.1408
 7482TIP3   OH243936   6.158   6.097   5.086 -0.0927  0.1864  0.6522
 7482TIP3    H143937   6.183   6.031   5.022  1.3780  0.3861  0.9721
 7482TIP3    H243938   6.133   6.173   5.034  0.3315  0.0843  0.2904
 7483TIP3   OH243939   1.174   3.179   5.982 -0.0403  0.1396  0.0008
 7483TIP3    H143940   1.177   3.207   5.890 -0.9514  2.5001  0.6128
 7483TIP3    H243941   1.147   3.087   5.978 -0.6994  0.3604 -2.0721
 7484TIP3   OH243942   0.803   0.213  15.954  0.1688  0.0563 -0.1587
 7484TIP3    H143943   0.890   0.217  15.914 -0.0589 -0.2750 -0.7045
 7484TIP3    H243944   0.789   0.301  15.990  0.4250  0.3323 -0.7225
 7485TIP3   OH243945   5.211   2.409   6.827 -0.4670  0.0106  0.1348
 7485TIP3    H143946   5.236   2.324   6.863  0.0424  1.0991  2.5102
 7485TIP3    H243947   5.234   2.402   6.734 -2.0304 -2.9972 -0.1451
 7486TIP3   OH243948   3.061   2.280   1.951 -0.3631  0.3790 -0.1366
 7486TIP3    H143949   3.128   2.304   2.015 -0.1774  2.2482 -0.9626
 7486TIP3    H243950   3.108   2.277   1.867 -0.9357 -0.3056 -0.4482
 7487TIP3   OH243951   4.280   0.315  16.758 -0.0277 -0.1205  0.6767
 7487TIP3    H143952   4.268   0.345  16.848  0.1689  2.7844 -0.1628
 7487TIP3    H243953   4.334   0.236  16.766  0.4795  0.3983  3.0641
 7488TIP3   OH243954   2.777   4.427  10.799 -0.1478  0.0333  0.0431
 7488TIP3    H143955   2.777   4.404  10.892 -0.2942  1.0133  0.2901
 7488TIP3    H243956   2.748   4.347  10.755  1.1853 -0.8529  0.7238
 7489TIP3   OH243957   5.471   1.950   0.959 -0.0147 -0.1998 -0.3338
 7489TIP3    H143958   5.478   1.898   0.879  1.0691  1.1472 -1.1592
 7489TIP3    H243959   5.470   1.886   1.030 -1.1415 -1.4363 -1.4077
 7490TIP3   OH243960   1.786   0.435   0.781  0.9038  0.5798 -0.1126
 7490TIP3    H143961   1.866   0.415   0.731  0.0811 -2.1193 -0.5232
 7490TIP3    H243962   1.725   0.469   0.715 -0.1298 -2.8366 -1.1334
 7491TIP3   OH243963   3.903   4.591   1.307  0.3447  0.6783  0.0228
 7491TIP3    H143964   3.920   4.583   1.401  1.1232 -0.8292 -0.2161
 7491TIP3    H243965   3.900   4.685   1.291 -1.3138  0.9879  1.8041
 7492TIP3   OH243966   1.011   4.696  14.067  0.3703 -0.4427  0.1290
 7492TIP3    H143967   0.918   4.684  14.082 -0.3405  3.9492  0.4063
 7492TIP3    H243968   1.019   4.717  13.974  0.9180  0.0952  0.2833
 7493TIP3   OH243969   1.125   3.531  14.526 -0.5372 -0.2861  0.7817
 7493TIP3    H143970   1.073   3.489  14.458 -2.0403  0.3629  1.4890
 7493TIP3    H243971   1.143   3.461  14.589 -0.0085 -0.6449  0.2556
 7494TIP3   OH243972   1.235   0.100   1.944 -0.3919 -0.2508 -0.0343
 7494TIP3    H143973   1.155   0.088   1.894 -1.7901  1.0524  1.7585
 7494TIP3    H243974   1.244   0.195   1.953  1.8916 -0.3090 -0.9539
 7495TIP3   OH243975   0.070   3.839  11.536  0.1276 -0.3974 -0.2789
 7495TIP3    H143976   0.140   3.816  11.597 -1.0991 -0.3769  1.2158
 7495TIP3    H243977   0.036   3.754  11.507 -0.3864 -0.4425  0.4202
 7496TIP3   OH243978   5.545   2.744  14.378  0.1089 -0.0776 -0.1292
 7496TIP3    H143979   5.617   2.806  14.366  0.5130 -0.4521  0.2820
 7496TIP3    H243980   5.583   2.659  14.356  0.0446 -0.3963  0.8912
 7497TIP3   OH243981   5.243   5.484  14.815 -0.0581  0.3122 -0.3099
 7497TIP3    H143982   5.282   5.502  14.901 -1.5773  0.7669  0.3302
 7497TIP3    H243983   5.168   5.544  14.810 -1.1624 -1.0629 -1.0995
 7498TIP3   OH243984   1.953   0.308  12.417 -0.3081  0.1191  0.3367
 7498TIP3    H143985   1.896   0.329  12.491  1.2198  0.2481  1.5340
 7498TIP3    H243986   1.959   0.390  12.367  0.0773  0.5644  1.0964
 7499TIP3   OH243987   6.242   1.280   1.927 -0.3765  0.6699 -1.0389
 7499TIP3    H143988   6.249   1.184   1.930  3.5433  0.8073  0.1169
 7499TIP3    H243989   6.182   1.297   1.855 -1.5402 -2.6147 -1.0462
 7500TIP3   OH243990   6.611   5.855  15.208 -0.0616 -0.0725 -0.7453
 7500TIP3    H143991   6.569   5.805  15.138  0.7867  0.1367 -1.4254
 7500TIP3    H243992   6.703   5.861  15.181  0.4658 -0.6937  0.8044
 7501TIP3   OH243993   5.589   5.960  15.375  0.3122 -0.1119 -0.1733
 7501TIP3    H143994   5.580   5.991  15.285 -0.5201 -1.3706 -0.5526
 7501TIP3    H243995   5.679   5.981  15.398  0.4617  0.4624 -1.2115
 7502TIP3   OH243996   4.623   2.123   4.020 -0.2935 -0.1549  0.2559
 7502TIP3    H143997   4.713   2.093   4.006  0.1286  0.7786  0.8538
 7502TIP3    H243998   4.597   2.161   3.936  0.4881  1.0761  0.5477
 7503TIP3   OH243999   3.282   2.821   0.641  0.5193 -0.3979 -0.1377
 7503TIP3    H144000   3.270   2.887   0.709  1.4527 -0.4198  0.0632
 7503TIP3    H244001   3.367   2.841   0.603  0.4094 -0.9433 -0.6804
 7504TIP3   OH244002   0.137   4.104  15.909  0.3470 -0.7573  0.0376
 7504TIP3    H144003   0.099   4.016  15.916  0.3943 -0.6473  2.3187
 7504TIP3    H244004   0.231   4.090  15.918  0.2830 -0.4090  1.4066
 7505TIP3   OH244005   2.917   1.982   4.126  0.4605  0.0918  0.4806
 7505TIP3    H144006   2.907   2.074   4.148 -0.6052 -0.2337  1.4590
 7505TIP3    H244007   2.894   1.936   4.207  1.2539 -1.0243  0.0950
 7506TIP3   OH244008   3.339   4.802   0.189 -0.7222  0.5262  0.3836
 7506TIP3    H144009   3.296   4.869   0.243 -1.7342 -0.7806  1.2673
 7506TIP3    H244010   3.266   4.755   0.148 -0.1259 -1.0805  1.0893
 7507TIP3   OH244011   2.814   4.771   1.682 -0.9172  0.1068 -0.0154
 7507TIP3    H144012   2.748   4.802   1.745  0.1174  1.5423  0.4152
 7507TIP3    H244013   2.845   4.688   1.718 -0.2641  0.9557  1.4736
 7508TIP3   OH244014   5.941   6.421   0.021 -0.2027 -0.9756  0.0370
 7508TIP3    H144015   5.951   6.478   0.096 -0.3128 -1.6564  0.5817
 7508TIP3    H244016   5.846   6.409   0.012 -0.1486 -1.9742  0.6361
 7509TIP3   OH244017   0.609   2.277  15.625  0.5144  0.3675 -0.0013
 7509TIP3    H144018   0.563   2.234  15.697  0.6520  1.6911  0.9264
 7509TIP3    H244019   0.699   2.286  15.655  0.7400  0.2962 -0.6370
 7510TIP3   OH244020   3.195   6.220   0.024  0.7400 -0.4163  0.4340
 7510TIP3    H144021   3.256   6.277  -0.023  0.7569 -0.0787  0.8618
 7510TIP3    H244022   3.158   6.163  -0.044  0.6023  0.2114 -0.0267
 7511TIP3   OH244023   1.955   2.476   4.187  0.3908  0.2218 -0.1918
 7511TIP3    H144024   1.931   2.569   4.194  1.6405  0.5094  0.9404
 7511TIP3    H244025   2.051   2.478   4.181  0.6738 -1.0544  2.5457
 7512TIP3   OH244026   2.084   4.429  13.140 -0.2647 -0.2363 -0.4345
 7512TIP3    H144027   2.078   4.522  13.160  0.0587 -0.8002  2.8177
 7512TIP3    H244028   2.030   4.386  13.207  0.1360 -2.4209 -1.4173
 7513TIP3   OH244029   0.491   6.724   5.878 -0.1437 -0.3067  0.2095
 7513TIP3    H144030   0.415   6.705   5.933 -0.8727 -2.2031 -1.3297
 7513TIP3    H244031   0.510   6.817   5.894 -2.6195  0.1636  0.8197
 7514TIP3   OH244032   1.366   6.137   3.749  0.5111  0.0376  0.8374
 7514TIP3    H144033   1.330   6.068   3.694  0.6479  0.3580  0.3326
 7514TIP3    H244034   1.425   6.092   3.809 -0.6844 -0.4924  1.6614
 7515TIP3   OH244035   2.524   4.273   5.027  0.2794  0.0202 -0.7117
 7515TIP3    H144036   2.594   4.261   4.963 -1.2792 -0.3203 -2.4300
 7515TIP3    H244037   2.454   4.214   4.999 -1.3897  1.5847 -0.0946
 7516TIP3   OH244038   4.792   6.035  16.143 -0.2781  1.0546 -0.0048
 7516TIP3    H144039   4.887   6.027  16.149 -0.4445 -1.1195  0.5030
 7516TIP3    H244040   4.777   6.067  16.054  0.9576  3.6656  0.6189
 7517TIP3   OH244041   1.711   0.347   3.903  0.2355 -0.1185 -0.2414
 7517TIP3    H144042   1.716   0.432   3.861  1.2937 -0.2217 -0.3565
 7517TIP3    H244043   1.648   0.359   3.974 -0.1827  0.5485 -0.7148
 7518TIP3   OH244044   2.079   1.106   1.495 -0.6970  0.2309 -0.2041
 7518TIP3    H144045   2.148   1.169   1.478 -2.0714  1.3801 -1.8557
 7518TIP3    H244046   2.092   1.080   1.587  3.2096 -1.3615 -1.0353
 7519TIP3   OH244047   3.702   6.389  15.273  0.0168 -0.0912  0.0073
 7519TIP3    H144048   3.644   6.321  15.307  0.1424 -0.5260 -0.6421
 7519TIP3    H244049   3.736   6.432  15.352  0.4299 -1.1880  0.4403
 7520TIP3   OH244050   0.122   4.314   3.479  0.5320 -0.3061 -0.7865
 7520TIP3    H144051   0.154   4.371   3.409 -0.0193  2.3189  0.9761
 7520TIP3    H244052   0.196   4.305   3.538 -0.5920  2.5138  1.2669
 7521TIP3   OH244053   5.351   0.426   3.708  0.2243  0.0019  0.2998
 7521TIP3    H144054   5.384   0.509   3.673  0.4053 -1.1706 -2.4865
 7521TIP3    H244055   5.258   0.443   3.724  0.2058  0.6800 -0.4839
 7522TIP3   OH244056   5.207   5.794   0.053  0.3053 -0.6608 -0.7119
 7522TIP3    H144057   5.163   5.879   0.064 -2.6609 -2.0770 -0.4895
 7522TIP3    H244058   5.240   5.796  -0.037  0.5567  0.8084 -0.6186
 7523TIP3   OH244059   6.639   3.171  11.634 -0.4389  0.5144  0.4083
 7523TIP3    H144060   6.679   3.110  11.696  1.3459  0.9355 -0.2974
 7523TIP3    H244061   6.635   3.122  11.551  1.4172  1.4330 -0.2800
 7524TIP3   OH244062   0.118   0.815   0.717  0.3687  0.1441 -0.2346
 7524TIP3    H144063   0.163   0.775   0.643  0.3964  0.2898 -0.2978
 7524TIP3    H244064   0.117   0.909   0.697 -0.1581  0.1180 -0.3391
 7525TIP3   OH244065   6.394   0.409  11.163 -0.2038 -0.0589 -0.0888
 7525TIP3    H144066   6.441   0.480  11.120  1.9291 -1.9882 -1.1564
 7525TIP3    H244067   6.424   0.412  11.254 -0.2966  0.5412 -0.0760
 7526TIP3   OH244068   3.607   5.861   0.701 -0.2340 -0.2497 -0.1598
 7526TIP3    H144069   3.616   5.813   0.618 -0.2841  1.7517 -1.3862
 7526TIP3    H244070   3.691   5.850   0.745  0.4828  0.2411 -1.3736
 7527TIP3   OH244071   0.285   2.805   6.045  0.3836 -0.2133 -0.0930
 7527TIP3    H144072   0.260   2.750   6.120 -2.8002  1.7062  0.4276
 7527TIP3    H244073   0.354   2.862   6.078 -0.1261 -0.2207  1.0027
 7528TIP3   OH244074   4.623   2.870  16.968 -0.0875 -0.5105 -0.3765
 7528TIP3    H144075   4.684   2.902  16.902 -0.2446 -0.6270 -0.5819
 7528TIP3    H244076   4.650   2.912  17.049  0.3487 -0.6722 -0.4386
 7529TIP3   OH244077   5.070   4.727   3.665  0.7261  0.2678  0.2615
 7529TIP3    H144078   4.992   4.699   3.617 -1.0362  0.0068  3.0628
 7529TIP3    H244079   5.107   4.647   3.700  0.3396  0.6434  1.6006
 7530TIP3   OH244080   4.105   5.645   1.067  0.1323 -0.5806  0.0459
 7530TIP3    H144081   4.155   5.590   1.128 -1.5132 -0.9794  1.0951
 7530TIP3    H244082   4.076   5.584   0.999  0.7922 -0.4054 -0.4035
 7531TIP3   OH244083   2.858   4.320  15.320  0.6614  0.3171 -0.5241
 7531TIP3    H144084   2.829   4.274  15.399  2.3471  0.2378  0.0875
 7531TIP3    H244085   2.936   4.368  15.347  0.8647  0.8599 -1.9783
 7532TIP3   OH244086   3.690   6.054   6.569  0.2044  0.1874  0.5648
 7532TIP3    H144087   3.654   6.043   6.658 -1.2911  1.3263  0.1539
 7532TIP3    H244088   3.638   6.126   6.532  1.0805 -0.0022 -1.0962
 7533TIP3   OH244089   4.993   5.939   1.044 -0.2037  0.3489 -0.1402
 7533TIP3    H144090   4.903   5.969   1.029  0.2820  1.4191 -1.0772
 7533TIP3    H244091   5.011   5.963   1.135 -0.2407  1.9374 -0.5105
 7534TIP3   OH244092   1.919   3.090   2.633 -0.2233  0.2494  0.1508
 7534TIP3    H144093   1.999   3.142   2.647 -0.0129 -0.0768  0.1611
 7534TIP3    H244094   1.950   3.006   2.601 -0.6427  0.5691 -1.1425
 7535TIP3   OH244095   6.738   2.251  10.551  0.3685 -0.0397 -0.1361
 7535TIP3    H144096   6.708   2.198  10.477  0.3378 -0.2593  0.0336
 7535TIP3    H244097   6.792   2.192  10.603 -1.0296 -0.4083  0.9710
 7536TIP3   OH244098   0.312   3.120   0.235 -0.1979 -0.3409  0.6874
 7536TIP3    H144099   0.277   3.097   0.148  1.7064  1.2952 -0.5985
 7536TIP3    H244100   0.263   3.198   0.260 -1.3493 -1.2990  1.5395
 7537TIP3   OH244101   5.897   6.331  12.552 -0.1500 -0.0155  0.3860
 7537TIP3    H144102   5.919   6.421  12.577 -0.4489  0.5843 -1.3749
 7537TIP3    H244103   5.821   6.340  12.495  0.0405 -1.3689 -0.1190
 7538TIP3   OH244104   4.120   2.311   1.452 -0.1035 -0.0462  0.8007
 7538TIP3    H144105   4.215   2.321   1.462 -0.1065  0.4290  0.3894
 7538TIP3    H244106   4.106   2.307   1.357 -0.5531  0.5247  0.8370
 7539TIP3   OH244107   6.656   2.610  15.688  0.1786  0.0051  0.3736
 7539TIP3    H144108   6.741   2.654  15.688 -0.2629  0.8866  0.0248
 7539TIP3    H244109   6.596   2.672  15.730 -0.0447 -1.1338  1.7950
 7540TIP3   OH244110   0.296   4.994   3.645  0.1002  0.4843 -0.3257
 7540TIP3    H144111   0.280   4.908   3.683 -2.3542  1.0578  0.1615
 7540TIP3    H244112   0.249   5.054   3.703  0.4802  1.9696 -1.5019
 7541TIP3   OH244113   1.701   1.020   3.113  0.1371  0.0595 -0.5774
 7541TIP3    H144114   1.712   1.045   3.205  0.2807  0.7787 -0.7830
 7541TIP3    H244115   1.608   0.998   3.105  0.2852 -0.8110 -0.0759
 7542TIP3   OH244116   0.795   1.032   2.446 -0.6281 -0.1804 -0.1493
 7542TIP3    H144117   0.701   1.015   2.436 -0.9431  0.5433  1.3367
 7542TIP3    H244118   0.814   1.005   2.536  0.8400 -1.3284 -0.7646
 7543TIP3   OH244119   4.335   3.538  13.718  0.0409  1.0105  0.2308
 7543TIP3    H144120   4.382   3.581  13.647  0.0033  1.0711  0.2432
 7543TIP3    H244121   4.404   3.491  13.767 -0.1740 -0.7630 -1.0543
 7544TIP3   OH244122   4.637   2.953   4.775 -0.3448  0.6879  0.2055
 7544TIP3    H144123   4.673   3.029   4.730 -0.2804 -1.1754 -3.2600
 7544TIP3    H244124   4.714   2.904   4.803 -0.1322 -0.4741 -2.1209
 7545TIP3   OH244125   3.574   4.187   0.446 -0.1573 -0.0471  0.4278
 7545TIP3    H144126   3.629   4.262   0.423 -0.8652  0.4831  0.4143
 7545TIP3    H244127   3.494   4.200   0.395 -0.8798 -0.0127  1.5454
 7546TIP3   OH244128   4.849   1.984   3.523  0.4346 -0.4262  0.2215
 7546TIP3    H144129   4.757   1.971   3.548  0.9295 -1.1059  1.7949
 7546TIP3    H244130   4.857   1.940   3.438 -0.9217  0.5398 -0.4520
 7547TIP3   OH244131   2.382   1.737   3.303 -0.5258 -0.0606  0.0740
 7547TIP3    H144132   2.397   1.818   3.352  0.2170  0.6353 -1.2557
 7547TIP3    H244133   2.437   1.672   3.347  0.4764  0.6587 -0.0959
 7548TIP3   OH244134   4.007   4.020  11.330  0.6082  0.1512  0.4816
 7548TIP3    H144135   4.051   4.082  11.272 -0.4685 -0.9989 -1.6931
 7548TIP3    H244136   3.919   4.012  11.294 -0.0611 -0.7484  2.2220
 7549TIP3   OH244137   3.443   1.665  15.051  0.1090  0.5441  0.2767
 7549TIP3    H144138   3.425   1.644  15.143  0.2839  1.3993  0.5090
 7549TIP3    H244139   3.522   1.719  15.054  1.9894 -1.9297 -0.6150
 7550TIP3   OH244140   3.970   6.279  12.470 -0.4118  0.1336  0.0350
 7550TIP3    H144141   3.892   6.333  12.484  0.0313  0.9254 -0.4971
 7550TIP3    H244142   3.935   6.190  12.460 -1.1491  0.3011  0.9174
 7551TIP3   OH244143   2.702   1.051  12.179  0.7516  0.3474  0.1063
 7551TIP3    H144144   2.721   0.987  12.111 -0.4783  0.8292 -0.7303
 7551TIP3    H244145   2.705   1.135  12.133 -1.5303  0.5727  0.3017
 7552TIP3   OH244146   4.568   1.242   5.101  0.3512 -0.0031 -0.3589
 7552TIP3    H144147   4.514   1.321   5.102  0.1183 -0.1629  1.0973
 7552TIP3    H244148   4.520   1.179   5.155  0.5347 -1.1614 -1.4882
 7553TIP3   OH244149   2.193   3.187   1.917 -0.2015 -0.3511 -0.5290
 7553TIP3    H144150   2.111   3.140   1.934 -0.6210  0.8393  0.9784
 7553TIP3    H244151   2.261   3.134   1.958 -0.2991 -0.9542 -1.1289
 7554TIP3   OH244152   0.771   0.876  15.498 -0.1937  0.0629 -0.4307
 7554TIP3    H144153   0.681   0.874  15.465 -0.8488  0.4128  1.2055
 7554TIP3    H244154   0.795   0.783  15.505 -0.6032 -0.0482 -0.4417
 7555TIP3   OH244155   1.144   4.810  10.890  0.2803  0.0727  0.1183
 7555TIP3    H144156   1.104   4.875  10.832 -0.6147 -0.4427  0.1388
 7555TIP3    H244157   1.197   4.755  10.832  1.9153  1.4406  0.2444
 7556TIP3   OH244158   3.196   6.405   4.784  0.2268 -0.2828  0.2028
 7556TIP3    H144159   3.113   6.444   4.758  0.5613 -0.3146 -0.9470
 7556TIP3    H244160   3.179   6.368   4.871 -0.3781  1.5039  0.8840
 7557TIP3   OH244161   3.824   1.592  15.067 -0.3543  0.0413  0.4181
 7557TIP3    H144162   3.899   1.575  15.010 -0.3437 -1.1037  0.7545
 7557TIP3    H244163   3.794   1.679  15.042  0.6951  0.2531 -0.1610
 7558TIP3   OH244164   0.942   3.635   2.183 -0.5416 -0.4012 -0.6039
 7558TIP3    H144165   0.901   3.717   2.155  0.7030  0.5388  0.2064
 7558TIP3    H244166   0.931   3.635   2.279 -1.3248 -1.6410 -0.6780
 7559TIP3   OH244167   4.251   4.040  13.892  0.0032 -0.4982 -0.2445
 7559TIP3    H144168   4.338   4.073  13.868  1.1108 -2.7603  0.3387
 7559TIP3    H244169   4.245   4.054  13.986  0.2555 -1.3581 -0.0869
 7560TIP3   OH244170   6.524   3.729  14.056 -0.7184  0.2369 -0.2886
 7560TIP3    H144171   6.573   3.694  13.981  1.9760 -0.2246  1.5319
 7560TIP3    H244172   6.570   3.694  14.133 -2.6263  1.6489  1.6061
 7561TIP3   OH244173   1.244   6.577   1.129 -0.3420 -0.2795 -0.1548
 7561TIP3    H144174   1.317   6.551   1.073 -0.7084 -2.7168  0.4099
 7561TIP3    H244175   1.247   6.673   1.128  0.9385 -0.2621 -2.6054
 7562TIP3   OH244176   5.073   6.071   1.316  0.1699  0.4221 -0.1235
 7562TIP3    H144177   5.094   6.028   1.399 -2.1268 -1.2121 -0.3079
 7562TIP3    H244178   5.006   6.136   1.339 -1.0705 -0.5874 -0.7413
 7563TIP3   OH244179   2.544   5.751  11.365  0.2384 -0.2365  0.2811
 7563TIP3    H144180   2.562   5.796  11.283 -0.4650  0.0122  0.2574
 7563TIP3    H244181   2.585   5.806  11.432  0.5915 -0.3061  0.1243
 7564TIP3   OH244182   6.073   4.700   5.464 -0.0277 -0.8671  0.5212
 7564TIP3    H144183   6.130   4.646   5.518  2.1422 -0.0141 -0.7793
 7564TIP3    H244184   6.073   4.658   5.379 -0.5363 -0.2904  0.2278
 7565TIP3   OH244185   4.546   5.603  14.443 -0.2273  0.2362  0.5810
 7565TIP3    H144186   4.542   5.591  14.537  2.2902  0.6974  0.8088
 7565TIP3    H244187   4.597   5.683  14.431  0.2471 -0.2792 -1.1718
 7566TIP3   OH244188   5.512   4.294   5.803  0.0120 -0.3758  0.4370
 7566TIP3    H144189   5.443   4.287   5.870 -0.8142 -1.8226 -0.5139
 7566TIP3    H244190   5.474   4.351   5.736  0.6432  0.6592  0.9334
 7567TIP3   OH244191   4.847   5.479  13.346 -0.5918 -0.0309 -0.6111
 7567TIP3    H144192   4.908   5.438  13.285  0.2255 -0.3649  0.4056
 7567TIP3    H244193   4.896   5.552  13.384 -0.6854 -0.4944  0.4538
 7568TIP3   OH244194   1.949   3.882  10.349  0.3784  0.4556  0.2228
 7568TIP3    H144195   1.951   3.822  10.423  1.5415 -0.1704 -0.2846
 7568TIP3    H244196   1.935   3.826  10.273  2.4022  0.6554 -0.3634
 7569TIP3   OH244197   1.281   3.896  16.240 -0.5160 -0.1175  0.2346
 7569TIP3    H144198   1.252   3.846  16.163 -1.1832  0.6799 -0.0522
 7569TIP3    H244199   1.372   3.870  16.252  0.4466  1.6070 -2.3965
 7570TIP3   OH244200   6.115   3.554  11.275  0.6543 -0.4740  0.4443
 7570TIP3    H144201   6.027   3.518  11.276  0.0982  0.8143 -0.0762
 7570TIP3    H244202   6.148   3.539  11.364 -0.5102  0.0278  0.9813
 7571TIP3   OH244203   2.341   5.404  15.207  0.3287 -0.3970  0.2457
 7571TIP3    H144204   2.371   5.472  15.147  0.8083 -0.1029  0.8084
 7571TIP3    H244205   2.390   5.326  15.182 -0.1073 -0.5025 -0.2998
 7572TIP3   OH244206   2.124   1.645   3.271  0.0208  0.0224  0.9064
 7572TIP3    H144207   2.080   1.729   3.260  0.4295  0.1262 -0.0554
 7572TIP3    H244208   2.216   1.664   3.253 -0.0271 -0.8150 -0.3054
 7573TIP3   OH244209   2.821   0.966  13.406  0.4833 -0.5889  0.3760
 7573TIP3    H144210   2.727   0.971  13.388  0.6063  0.6751  0.0237
 7573TIP3    H244211   2.859   0.929  13.326  0.4693  0.5406 -0.1774
 7574TIP3   OH244212   4.807   3.545  11.956  0.2391 -0.6911  0.5859
 7574TIP3    H144213   4.822   3.544  12.051  0.6593  1.5286  0.5898
 7574TIP3    H244214   4.760   3.626  11.940 -0.9048 -1.6200 -0.9913
 7575TIP3   OH244215   4.780   6.075  16.851 -0.6575 -0.2478 -0.5519
 7575TIP3    H144216   4.860   6.028  16.827  0.0873  0.1617  1.0227
 7575TIP3    H244217   4.743   6.103  16.767  1.8625  1.2020 -1.2620
 7576TIP3   OH244218   6.798   3.236  12.036  0.3338  0.3367  0.1738
 7576TIP3    H144219   6.811   3.253  12.130  1.0776  1.2455 -0.0858
 7576TIP3    H244220   6.745   3.309  12.005 -1.5789 -0.9458  0.2505
 7577TIP3   OH244221   5.721   4.111  15.742  0.2240  0.8324 -0.3851
 7577TIP3    H144222   5.726   4.141  15.652 -1.4862  0.8104 -0.5290
 7577TIP3    H244223   5.677   4.026  15.737  1.9438 -0.1531  0.3156
 7578TIP3   OH244224   1.683   0.805   0.881 -0.3256 -0.3302 -0.2129
 7578TIP3    H144225   1.658   0.771   0.795  0.7975 -2.9957  0.4045
 7578TIP3    H244226   1.606   0.851   0.912 -1.0246  0.0034 -2.2984
 7579TIP3   OH244227   3.836   1.090  10.927  0.0889 -1.1261  0.0782
 7579TIP3    H144228   3.932   1.088  10.934  0.2175 -1.8856 -1.4002
 7579TIP3    H244229   3.815   1.183  10.916  0.9181 -1.1422 -2.1021
 7580TIP3   OH244230   2.388   4.314  16.475  0.5289 -0.3394  0.1861
 7580TIP3    H144231   2.322   4.261  16.431  0.7015  0.8656 -1.6360
 7580TIP3    H244232   2.457   4.251  16.500  0.0496 -1.1720 -0.5461
 7581TIP3   OH244233   3.330   1.307  12.191  0.0659 -0.3935 -0.5710
 7581TIP3    H144234   3.321   1.216  12.220  0.3836 -0.5999 -1.1130
 7581TIP3    H244235   3.307   1.305  12.098 -1.3547  0.3350 -0.2690
 7582TIP3   OH244236   2.355   3.714  15.361 -0.6770 -0.2168 -0.4249
 7582TIP3    H144237   2.413   3.742  15.290 -1.2313  1.4485 -0.2702
 7582TIP3    H244238   2.376   3.622  15.375  1.8585  0.3061 -0.4225
 7583TIP3   OH244239   3.178   0.748   0.986 -0.2185 -0.3135  0.2048
 7583TIP3    H144240   3.234   0.701   1.048 -1.8124  1.4362  3.2380
 7583TIP3    H244241   3.096   0.699   0.987 -0.0021 -0.7695 -1.3279
 7584TIP3   OH244242   4.355   4.906   1.651 -0.4787  0.6144 -0.3788
 7584TIP3    H144243   4.434   4.940   1.691 -0.4483  2.7119 -2.0391
 7584TIP3    H244244   4.384   4.831   1.599  0.4266  1.2584 -0.8340
 7585TIP3   OH244245   0.132   5.913   0.703  0.0360  0.6341  0.6391
 7585TIP3    H144246   0.158   5.998   0.740 -1.1314  2.0026 -1.4625
 7585TIP3    H244247   0.055   5.933   0.650  0.2457 -1.5996 -0.6289
 7586TIP3   OH244248   0.671   1.769   3.002 -0.3435  0.7481 -0.0724
 7586TIP3    H144249   0.738   1.835   2.983  0.1960  0.0555 -0.5845
 7586TIP3    H244250   0.588   1.817   2.995  0.0840  1.5894  0.4897
 7587TIP3   OH244251   4.275   3.084  16.985 -0.3486 -0.1826 -0.6664
 7587TIP3    H144252   4.226   3.011  17.022 -0.6358 -0.0892 -0.8561
 7587TIP3    H244253   4.237   3.097  16.899 -0.8224  0.6927 -0.3352
 7588TIP3   OH244254   0.791   6.235  11.036  0.1180 -0.0751  0.7149
 7588TIP3    H144255   0.743   6.283  11.104  1.1729  0.6240  0.9812
 7588TIP3    H244256   0.741   6.250  10.956  0.1019  0.9780  0.9146
 7589TIP3   OH244257   1.101   1.864   1.350 -0.3633  0.1916  0.0595
 7589TIP3    H144258   1.109   1.877   1.445  1.9208 -1.6558  0.2154
 7589TIP3    H244259   1.089   1.770   1.340 -0.3031  0.3320 -1.4918
 7590TIP3   OH244260   6.094   0.709   4.943 -0.2723 -0.0730 -0.6568
 7590TIP3    H144261   6.122   0.758   5.021 -0.6623 -0.3508 -0.3419
 7590TIP3    H244262   6.037   0.640   4.977 -0.9018  0.1514 -1.2439
 7591TIP3   OH244263   4.434   5.273   6.306 -0.3960  0.4326  0.1275
 7591TIP3    H144264   4.395   5.350   6.266 -0.4804 -0.0902 -0.8333
 7591TIP3    H244265   4.398   5.270   6.395  0.6106  2.2091  0.6509
 7592TIP3   OH244266   2.004   1.973  10.510  0.5017  0.3231 -0.5045
 7592TIP3    H144267   1.984   1.880  10.517  0.2888  0.2915 -1.4340
 7592TIP3    H244268   2.043   1.983  10.423 -1.4661  1.4309 -1.3403
 7593TIP3   OH244269   0.808   6.691  13.843 -0.0272 -0.5469 -0.2844
 7593TIP3    H144270   0.883   6.661  13.894  0.0319 -0.8690 -0.5541
 7593TIP3    H244271   0.827   6.662  13.754  0.4264  1.0370 -0.7342
 7594TIP3   OH244272   3.846   2.637   5.393  0.5265 -0.1933 -0.4846
 7594TIP3    H144273   3.799   2.578   5.334 -0.4308  0.5498 -0.4925
 7594TIP3    H244274   3.830   2.724   5.357 -1.2349  0.4276  1.6082
 7595TIP3   OH244275   4.606   3.951  11.330  0.5794  0.0629  0.5723
 7595TIP3    H144276   4.645   3.882  11.277  0.8802 -0.2302  1.1615
 7595TIP3    H244277   4.651   4.031  11.303 -1.0064  0.3722 -1.4139
 7596TIP3   OH244278   0.673   4.495   1.590  0.2650 -0.4752 -0.0840
 7596TIP3    H144279   0.638   4.584   1.576  0.5309 -0.4577 -0.6895
 7596TIP3    H244280   0.718   4.475   1.508  1.2242 -0.7095  0.4840
 7597TIP3   OH244281   3.752   1.303  12.866  0.2753  0.3556  0.6093
 7597TIP3    H144282   3.754   1.239  12.795 -0.2380  2.0249 -0.9936
 7597TIP3    H244283   3.842   1.304  12.899  0.5503 -0.4118 -0.0714
 7598TIP3   OH244284   3.834   0.613   2.069 -0.1540  0.9811 -0.5681
 7598TIP3    H144285   3.791   0.685   2.021 -0.1182  1.4171  0.0439
 7598TIP3    H244286   3.905   0.655   2.117 -0.4313  0.6113  0.1746
 7599TIP3   OH244287   5.744   4.935   4.712 -0.0398  0.1730  0.3511
 7599TIP3    H144288   5.763   4.849   4.673 -0.9438 -0.8623  2.0548
 7599TIP3    H244289   5.717   4.915   4.801 -0.9427  2.2073  0.5862
 7600TIP3   OH244290   3.305   2.387   4.688 -0.1775 -0.8838 -0.3805
 7600TIP3    H144291   3.210   2.394   4.683 -0.1810  0.8976  1.0554
 7600TIP3    H244292   3.336   2.416   4.602 -0.9033 -0.8538 -0.6409
 7601TIP3   OH244293   6.136   0.379  16.408  0.6053 -0.0112 -0.6590
 7601TIP3    H144294   6.125   0.413  16.319  0.3711  0.2591 -0.5279
 7601TIP3    H244295   6.191   0.301  16.397 -2.6268 -2.3698 -1.5706
 7602TIP3   OH244296   5.033   5.996   2.745  0.3392 -0.0281  0.6088
 7602TIP3    H144297   5.116   5.950   2.732 -1.1086 -2.3378 -1.5042
 7602TIP3    H244298   5.016   5.988   2.839  1.2460 -1.9489  0.6630
 7603TIP3   OH244299   4.786   1.969  12.903 -0.0031 -0.3372 -0.1812
 7603TIP3    H144300   4.774   1.948  12.810  0.2355 -0.6055 -0.1547
 7603TIP3    H244301   4.699   1.960  12.942  0.3438 -3.0279  0.1770
 7604TIP3   OH244302   4.968   4.742  14.629 -0.7439  0.2299 -0.1893
 7604TIP3    H144303   5.018   4.672  14.588  0.0266  1.2753 -1.1046
 7604TIP3    H244304   5.028   4.778  14.695 -1.0876  0.1303  0.1823
 7605TIP3   OH244305   0.038   4.048   3.475  0.5472  0.2096 -0.6720
 7605TIP3    H144306   0.050   4.142   3.465 -1.4802  0.2776 -3.7014
 7605TIP3    H244307  -0.017   4.039   3.552 -0.0318  1.6182 -0.8850
 7606TIP3   OH244308   3.475   0.981   2.856  0.0179 -0.9950 -0.6296
 7606TIP3    H144309   3.509   0.900   2.895 -2.2439 -1.8960 -0.3876
 7606TIP3    H244310   3.495   1.049   2.921  2.3062 -1.2035 -1.0113
 7607TIP3   OH244311   2.836   4.711  16.865  0.1004 -0.0925  0.2870
 7607TIP3    H144312   2.803   4.728  16.777  0.4627  0.1354  0.1950
 7607TIP3    H244313   2.798   4.627  16.890  1.7212 -1.2306 -0.9225
 7608TIP3   OH244314   1.702   2.847  15.231  0.1915 -0.3603  0.5920
 7608TIP3    H144315   1.743   2.794  15.162  0.3497  0.3344  0.1462
 7608TIP3    H244316   1.741   2.814  15.312  0.0998 -1.0966  0.3504
 7609TIP3   OH244317   6.626   3.714   0.023 -0.4859 -0.1113  0.0178
 7609TIP3    H144318   6.559   3.780   0.005  0.3332  0.3991 -1.3390
 7609TIP3    H244319   6.703   3.744  -0.026 -0.2129 -2.2575 -0.9968
 7610TIP3   OH244320   5.633   0.322  11.967  0.3672  0.4947  0.0079
 7610TIP3    H144321   5.543   0.291  11.958  0.9184 -1.3442  0.5298
 7610TIP3    H244322   5.655   0.356  11.880 -1.6824  3.5874  0.5277
 7611TIP3   OH244323   4.782   0.757   0.608  0.0328  0.3955 -0.4492
 7611TIP3    H144324   4.758   0.758   0.516 -2.2415  0.8895  0.0930
 7611TIP3    H244325   4.860   0.701   0.612  0.4834  0.7836 -2.7025
 7612TIP3   OH244326   3.295   5.905   4.170  0.0188 -0.1713  0.3489
 7612TIP3    H144327   3.270   5.856   4.092 -2.9028  0.0366  1.0361
 7612TIP3    H244328   3.255   5.856   4.243  1.1449  0.6087  1.5282
 7613TIP3   OH244329   0.707   0.873   1.937  0.2574  0.3345  0.0202
 7613TIP3    H144330   0.750   0.958   1.924  2.2895 -0.6125  0.2436
 7613TIP3    H244331   0.613   0.894   1.935  0.6661  2.3981 -1.1706
 7614TIP3   OH244332   2.195   4.698  13.682  0.1471  0.0142 -0.3235
 7614TIP3    H144333   2.142   4.764  13.639 -1.9523 -0.5089  1.3035
 7614TIP3    H244334   2.192   4.722  13.775  0.2777 -1.7297  0.1557
 7615TIP3   OH244335   0.571   3.089   0.557  0.1021 -0.4258 -0.8968
 7615TIP3    H144336   0.554   3.072   0.649 -1.9304 -2.3610 -1.5376
 7615TIP3    H244337   0.546   3.181   0.545 -0.6331 -0.4491  0.2830
 7616TIP3   OH244338   0.228   4.577  11.786  0.4696  0.2060  0.6726
 7616TIP3    H144339   0.147   4.627  11.787 -0.8672 -1.7851 -0.5574
 7616TIP3    H244340   0.255   4.576  11.694  2.5667  1.7461  1.1843
 7617TIP3   OH244341   0.148   1.195  16.583  0.7506 -0.3652  0.2521
 7617TIP3    H144342   0.127   1.211  16.675 -2.9513 -1.2662 -0.2581
 7617TIP3    H244343   0.168   1.101  16.579  1.9097 -0.1313  0.2450
 7618TIP3   OH244344   6.322   2.726  11.269 -0.1796  0.1755 -0.4601
 7618TIP3    H144345   6.361   2.652  11.224 -1.3052 -0.3702 -0.5479
 7618TIP3    H244346   6.260   2.763  11.207 -0.4461  0.5103 -0.0032
 7619TIP3   OH244347   6.673   1.920  16.481 -0.0243  0.5850  0.2446
 7619TIP3    H144348   6.655   1.832  16.515  0.7452  0.3633  0.0786
 7619TIP3    H244349   6.600   1.973  16.515 -1.1322 -0.3390 -0.5864
 7620TIP3   OH244350   2.284   4.088  13.885 -0.2581  0.0847  0.7015
 7620TIP3    H144351   2.282   4.101  13.980  1.2837  1.7999  0.5620
 7620TIP3    H244352   2.217   4.022  13.868 -0.0838 -0.7903  3.0553
 7621TIP3   OH244353   1.720   6.543   5.635  0.5383 -0.3409  0.4790
 7621TIP3    H144354   1.773   6.527   5.557  2.1793 -0.1781  1.4999
 7621TIP3    H244355   1.763   6.492   5.704  0.2727  0.9853  1.6815
 7622TIP3   OH244356   1.836   5.004   0.391  0.5330  0.3426 -0.4915
 7622TIP3    H144357   1.826   4.946   0.466  0.2458  2.1770  0.9380
 7622TIP3    H244358   1.796   4.956   0.318 -2.3397 -0.0680  1.2402
 7623TIP3   OH244359   1.380   4.122   3.008  0.8056 -0.0832  0.1770
 7623TIP3    H144360   1.454   4.167   2.967  1.1292 -0.8178 -0.0567
 7623TIP3    H244361   1.326   4.193   3.044 -0.8205  0.9024 -3.6496
 7624TIP3   OH244362   2.766   6.604  15.848 -0.0503 -0.1288  0.4178
 7624TIP3    H144363   2.842   6.612  15.904 -0.6479 -0.7850  1.3500
 7624TIP3    H244364   2.770   6.681  15.790  0.4452  0.6983  1.5191
 7625TIP3   OH244365   1.248   0.383  16.282  0.5359 -0.0777  0.3713
 7625TIP3    H144366   1.265   0.432  16.363  1.2840 -0.4868  0.4700
 7625TIP3    H244367   1.248   0.292  16.310 -1.3841 -0.1455  0.2879
 7626TIP3   OH244368   3.167   3.111  12.274  1.0672  0.4260 -0.1261
 7626TIP3    H144369   3.178   3.034  12.218  0.1272 -0.3232  0.6800
 7626TIP3    H244370   3.207   3.086  12.357  0.9902  0.8998  0.0561
 7627TIP3   OH244371   4.284   0.143   1.319  0.3872 -0.2216  0.0382
 7627TIP3    H144372   4.206   0.099   1.354  0.4955 -1.4051 -1.1231
 7627TIP3    H244373   4.259   0.235   1.313 -0.4291 -0.3651  0.9958
 7628TIP3   OH244374   3.679   5.340  14.321  0.1369  0.1403  0.3182
 7628TIP3    H144375   3.710   5.353  14.410  0.0747 -0.3464  0.4120
 7628TIP3    H244376   3.583   5.340  14.328  0.1052 -2.5787  0.6695
 7629TIP3   OH244377   4.065   2.607  14.418 -0.3740 -0.0065 -0.1528
 7629TIP3    H144378   4.075   2.528  14.471 -1.6344 -1.6104 -2.1442
 7629TIP3    H244379   4.155   2.636  14.401  0.0756 -0.3368  1.4982
 7630TIP3   OH244380   4.621   5.111  15.062 -0.3856 -0.2284  0.7134
 7630TIP3    H144381   4.612   5.105  14.967  1.3895 -0.4617  0.5264
 7630TIP3    H244382   4.550   5.169  15.089 -0.0128  1.0782 -0.9427
 7631TIP3   OH244383   1.870   0.214  11.335  0.3954 -0.4879  0.2491
 7631TIP3    H144384   1.844   0.127  11.365  1.3682 -0.3959  1.4629
 7631TIP3    H244385   1.966   0.210  11.329  0.3610  0.0997 -1.0323
 7632TIP3   OH244386   6.427   1.313   3.613 -0.0323  0.6480 -0.0025
 7632TIP3    H144387   6.390   1.225   3.622 -0.5572  0.7889 -0.6844
 7632TIP3    H244388   6.432   1.346   3.702  2.0149 -0.7983  0.5056
 7633TIP3   OH244389   6.149   1.933  10.920 -0.6729 -0.3722  0.2431
 7633TIP3    H144390   6.171   1.869  10.989  0.5472 -1.4096 -1.0369
 7633TIP3    H244391   6.166   1.886  10.839 -1.7184  0.9581 -0.7781
 7634TIP3   OH244392   4.009   4.394   5.422 -0.6576 -0.1118 -0.0741
 7634TIP3    H144393   4.070   4.335   5.377  0.2335 -0.1361  1.1283
 7634TIP3    H244394   4.060   4.431   5.494 -1.1429  2.1979 -0.8077
 7635TIP3   OH244395   1.742   4.176  11.154  0.3723  0.8728  0.0965
 7635TIP3    H144396   1.820   4.219  11.120 -1.4247  2.2507 -2.6713
 7635TIP3    H244397   1.717   4.113  11.086 -2.2317  2.2598 -0.3850
 7636TIP3   OH244398   2.065   5.211  15.330  0.1708 -0.1587 -0.3434
 7636TIP3    H144399   2.060   5.145  15.399  4.3764 -2.4154 -1.8639
 7636TIP3    H244400   2.003   5.180  15.263  0.5294 -1.4430 -0.1187
 7637TIP3   OH244401   5.849   3.446  10.867  0.2345 -0.1098 -0.2956
 7637TIP3    H144402   5.782   3.410  10.809 -0.6282  0.7019  0.1807
 7637TIP3    H244403   5.802   3.469  10.947  1.2985 -0.6505  0.5114
 7638TIP3   OH244404   4.323   2.666   4.055  0.3359  0.9395  0.9206
 7638TIP3    H144405   4.234   2.701   4.050  0.4631  1.3670  1.4431
 7638TIP3    H244406   4.330   2.605   3.982 -1.0584 -0.6606  2.0621
 7639TIP3   OH244407   3.215   1.974   1.602 -0.5307  0.3825  0.2138
 7639TIP3    H144408   3.278   1.905   1.583  2.3268  2.1286  2.5052
 7639TIP3    H244409   3.215   2.029   1.524  0.2249 -0.0749 -0.1209
 7640TIP3   OH244410   5.394   3.292   1.516  0.6777 -0.1007  0.2655
 7640TIP3    H144411   5.443   3.242   1.581 -0.7476 -0.5485  1.0537
 7640TIP3    H244412   5.328   3.340   1.567  0.0462  0.1628 -0.7656
 7641TIP3   OH244413   3.412   2.236  14.014  0.0546  0.4258  0.0756
 7641TIP3    H144414   3.345   2.195  13.960  0.5240 -0.5586  0.2349
 7641TIP3    H244415   3.363   2.276  14.087 -0.3898  0.0120  0.0080
 7642TIP3   OH244416   5.011   5.369  12.141 -0.8199  0.1659 -0.3153
 7642TIP3    H144417   5.016   5.284  12.185 -0.6390  0.6888  0.7065
 7642TIP3    H244418   4.985   5.430  12.210 -0.7531  0.9738 -0.9911
 7643TIP3   OH244419   2.903   4.897  13.133  0.5182 -0.0703  0.1613
 7643TIP3    H144420   2.942   4.983  13.126 -0.6519  0.4669 -0.0327
 7643TIP3    H244421   2.883   4.872  13.042  1.0383 -0.6506  0.1931
 7644TIP3   OH244422   0.695   3.922  12.822 -0.3155  0.7119  0.4717
 7644TIP3    H144423   0.782   3.903  12.856 -0.0916  0.1911 -0.3425
 7644TIP3    H244424   0.644   3.951  12.897 -0.1551 -1.4365  1.4940
 7645TIP3   OH244425   0.021   2.500   0.286 -0.5119  0.0822  0.0054
 7645TIP3    H144426  -0.070   2.479   0.266 -0.3456 -0.3105 -0.3466
 7645TIP3    H244427   0.036   2.466   0.374 -1.0520  1.2179  0.5600
 7646TIP3   OH244428   1.465   3.056   1.226 -0.3565  0.1780 -0.6625
 7646TIP3    H144429   1.386   3.052   1.173 -0.6369 -0.2679 -0.2159
 7646TIP3    H244430   1.534   3.021   1.170 -0.6851 -0.4632 -0.6682
 7647TIP3   OH244431   6.584   5.833   4.549  0.2564  0.0216  0.0873
 7647TIP3    H144432   6.633   5.753   4.531  0.7549  0.4672 -0.5746
 7647TIP3    H244433   6.497   5.803   4.576  0.0972 -0.7237 -1.1943
 7648TIP3   OH244434   5.745   5.949   1.160  0.3039  0.1939  0.0100
 7648TIP3    H144435   5.760   6.043   1.155  0.4087  0.1991  0.4092
 7648TIP3    H244436   5.812   5.911   1.103  0.8498  0.3071  0.5740
 7649TIP3   OH244437   5.721   1.861   5.921  0.3868 -0.2404 -0.6302
 7649TIP3    H144438   5.631   1.891   5.935  0.2768  0.3322 -2.3023
 7649TIP3    H244439   5.717   1.766   5.937 -0.7476 -0.3740 -1.5540
 7650TIP3   OH244440   4.092   1.061   0.220  0.0213 -0.1996  0.2083
 7650TIP3    H144441   4.032   1.027   0.154 -1.9269  0.3018  1.6381
 7650TIP3    H244442   4.168   1.090   0.169 -0.9217 -0.8217 -1.6864
 7651TIP3   OH244443   1.178   3.436   3.532  0.1741 -0.3997  0.3640
 7651TIP3    H144444   1.179   3.531   3.525 -0.1341 -0.3995  0.2747
 7651TIP3    H244445   1.254   3.415   3.586  1.3857 -0.2462 -1.2059
 7652TIP3   OH244446   1.460   1.528  15.158 -0.2237  0.0679 -0.0808
 7652TIP3    H144447   1.391   1.593  15.150  0.5392  1.0682  1.1123
 7652TIP3    H244448   1.503   1.548  15.241  1.1338 -0.8701 -0.5141
 7653TIP3   OH244449   5.400   3.271   4.211 -0.5652  0.1793  0.5452
 7653TIP3    H144450   5.322   3.309   4.250 -1.2508 -0.1706 -0.4340
 7653TIP3    H244451   5.368   3.229   4.130  0.7506  0.7176 -0.2850
 7654TIP3   OH244452   3.215   3.653   6.229 -0.1681 -0.5042 -0.4310
 7654TIP3    H144453   3.126   3.620   6.224 -0.6246  0.6090  0.0354
 7654TIP3    H244454   3.247   3.623   6.315 -0.5355  0.1169 -0.0667
 7655TIP3   OH244455   3.645   4.971   4.038 -0.2410  0.2201 -0.1601
 7655TIP3    H144456   3.591   4.894   4.019  1.6245 -0.9214 -1.1101
 7655TIP3    H244457   3.734   4.936   4.048  0.6848  2.2633 -0.7515
 7656TIP3   OH244458   2.243   4.926   1.808 -0.4396 -0.1086 -0.1407
 7656TIP3    H144459   2.286   4.996   1.857  3.1366 -1.6138 -0.8477
 7656TIP3    H244460   2.267   4.846   1.855 -0.6797 -1.2240 -1.8395
 7657TIP3   OH244461   6.206   4.203   5.468  0.4112  0.4993 -0.4098
 7657TIP3    H144462   6.253   4.270   5.418 -0.6925  1.1242 -0.6496
 7657TIP3    H244463   6.126   4.246   5.496 -0.5630 -0.8608 -0.9813
 7658TIP3   OH244464   2.954   4.061   4.264  0.5894  0.4145 -0.2419
 7658TIP3    H144465   3.003   4.113   4.200  1.0317  0.5240  0.1843
 7658TIP3    H244466   2.889   4.014   4.211  0.7260  0.7637 -0.7312
 7659TIP3   OH244467   1.174   1.444   1.035  0.3048 -0.1827 -0.4689
 7659TIP3    H144468   1.093   1.494   1.027  0.6636  0.5320  0.2443
 7659TIP3    H244469   1.197   1.421   0.945 -0.9717 -0.8757 -0.6464
 7660TIP3   OH244470   4.043   3.711   5.949 -0.4403 -0.3118  0.3395
 7660TIP3    H144471   4.073   3.758   5.872 -0.3710  0.7725  1.0078
 7660TIP3    H244472   3.950   3.733   5.956 -0.9863 -2.1219 -0.6314
 7661TIP3   OH244473   3.283   6.131  15.538 -0.4894  0.0896  0.2124
 7661TIP3    H144474   3.281   6.129  15.443  1.6061 -2.1431  0.0929
 7661TIP3    H244475   3.203   6.086  15.565 -0.4631 -0.4404 -0.5558
 7662TIP3   OH244476   5.319   3.106  13.826 -0.0419 -0.4938  0.0065
 7662TIP3    H144477   5.372   3.186  13.818 -2.0294  0.7843 -1.2262
 7662TIP3    H244478   5.383   3.037  13.841  1.8217  1.2142  0.4659
 7663TIP3   OH244479   0.227   1.157   3.585  0.1726  0.1835  0.5349
 7663TIP3    H144480   0.272   1.215   3.647 -0.0937  0.5124  0.4215
 7663TIP3    H244481   0.134   1.169   3.604  0.1505 -1.3165  1.5153
 7664TIP3   OH244482   5.619   0.666  16.665 -0.0665 -0.1832 -0.1432
 7664TIP3    H144483   5.705   0.681  16.626 -0.1822  0.8295 -0.0327
 7664TIP3    H244484   5.617   0.572  16.685  1.3063 -0.0839  0.5596
 7665TIP3   OH244485   3.612   0.237  14.934 -0.4288  0.0396  0.3336
 7665TIP3    H144486   3.532   0.290  14.932  0.0831  0.8283  0.0934
 7665TIP3    H244487   3.664   0.275  15.005  1.2825  1.9393 -1.7720
 7666TIP3   OH244488   5.586   5.110  11.302 -0.8360 -0.2516 -0.6466
 7666TIP3    H144489   5.536   5.041  11.259 -0.9316  0.0477 -1.0287
 7666TIP3    H244490   5.668   5.114  11.254 -0.7444 -0.2483 -0.4891
 7667TIP3   OH244491   6.472   6.572  13.488  0.8251  0.0416 -0.3580
 7667TIP3    H144492   6.532   6.608  13.553  0.7294 -0.5858  0.0838
 7667TIP3    H244493   6.397   6.542  13.539  1.5582 -2.2205 -0.5014
 7668TIP3   OH244494   2.268   2.315  10.802 -0.1901  0.0878 -0.4698
 7668TIP3    H144495   2.222   2.278  10.727 -0.7554 -0.5099  0.1555
 7668TIP3    H244496   2.312   2.239  10.842  1.3092  0.6362 -1.0264
 7669TIP3   OH244497   0.623   5.022  12.038  0.0326 -0.6847 -0.3388
 7669TIP3    H144498   0.677   4.976  11.974  0.4814 -0.8341  0.1346
 7669TIP3    H244499   0.537   5.029  11.997  0.4918 -0.1484 -1.2477
 7670TIP3   OH244500   4.982   4.505  15.452  0.4818  0.3224 -0.0716
 7670TIP3    H144501   5.035   4.585  15.441 -0.3718  1.1765  1.6724
 7670TIP3    H244502   4.892   4.536  15.454 -0.0005 -0.9194 -1.1050
 7671TIP3   OH244503   6.684   6.676   4.571  0.2389 -0.1555  0.1660
 7671TIP3    H144504   6.744   6.612   4.534  2.0165  1.6212 -0.2110
 7671TIP3    H244505   6.665   6.736   4.499 -0.6613  0.2732  0.7321
 7672TIP3   OH244506   1.195   1.120  15.862  0.3535 -0.4196  0.0919
 7672TIP3    H144507   1.190   1.048  15.925  0.4429  0.0545  0.6490
 7672TIP3    H244508   1.104   1.137  15.838  0.2945 -0.4198  0.3094
 7673TIP3   OH244509   1.910   1.960   0.126  0.1428  0.0075 -0.3905
 7673TIP3    H144510   1.933   1.900   0.055 -1.9125 -1.5356  0.1823
 7673TIP3    H244511   1.827   1.998   0.099  0.9546  1.9695 -0.2968
 7674TIP3   OH244512   0.913   2.211   4.443 -0.5051 -0.5880 -0.5279
 7674TIP3    H144513   0.940   2.226   4.533  0.2733 -1.3458 -0.6278
 7674TIP3    H244514   0.991   2.229   4.391 -0.5977 -1.3451 -0.9437
 7675TIP3   OH244515   3.063   1.407  15.009  0.8257  0.0258  0.0879
 7675TIP3    H144516   3.086   1.372  15.095 -2.6671  0.2064  1.2506
 7675TIP3    H244517   3.078   1.333  14.949 -0.3616 -1.4761  1.5226
 7676TIP3   OH244518   2.727   5.821  12.977  0.3031 -0.3731 -0.7914
 7676TIP3    H144519   2.657   5.857  13.031  1.7820 -1.6496  2.2294
 7676TIP3    H244520   2.777   5.897  12.949 -0.3178  0.3273 -0.0360
 7677TIP3   OH244521   6.398   1.437  14.001 -0.2254 -0.1427 -0.5788
 7677TIP3    H144522   6.441   1.370  13.947  0.3244  0.5585 -1.0238
 7677TIP3    H244523   6.362   1.388  14.075  0.6581 -0.8589 -0.6045
 7678TIP3   OH244524   6.522   5.963  10.590 -0.1806 -0.6021 -0.5208
 7678TIP3    H144525   6.570   5.976  10.508  0.3597  0.4116 -0.0733
 7678TIP3    H244526   6.431   5.952  10.563  0.1719 -1.6286 -1.3312
 7679TIP3   OH244527   3.834   1.103  14.209 -0.5799  0.2782 -0.0721
 7679TIP3    H144528   3.794   1.029  14.164 -1.7180  1.1399 -0.5211
 7679TIP3    H244529   3.927   1.099  14.184 -0.6083 -1.0207 -0.0219
 7680TIP3   OH244530   4.122   2.096   3.996 -0.3321 -0.1208 -0.3722
 7680TIP3    H144531   4.059   2.037   3.955  1.5452 -1.6411 -1.2558
 7680TIP3    H244532   4.166   2.139   3.923  0.5333 -0.0926  0.1428
 7681TIP3   OH244533   2.268   3.384  13.548 -0.0389 -0.5272 -0.1513
 7681TIP3    H144534   2.298   3.298  13.519 -1.6854 -0.6559 -1.6504
 7681TIP3    H244535   2.218   3.366  13.628  0.9421 -0.7308  0.4335
 7682TIP3   OH244536   6.669   6.194  11.876  0.2554 -0.4524  0.0544
 7682TIP3    H144537   6.669   6.115  11.929  2.1178 -0.4884  0.0389
 7682TIP3    H244538   6.595   6.245  11.910 -0.5963 -1.9036  0.4623
 7683TIP3   OH244539   6.013   5.286  13.773  0.1934 -0.2013  0.1980
 7683TIP3    H144540   5.967   5.313  13.853 -0.5094  0.3830 -0.3828
 7683TIP3    H244541   5.997   5.192  13.767  1.4558 -0.5328  1.4928
 7684TIP3   OH244542   1.984   3.365   0.340  0.2025 -0.4979  0.6251
 7684TIP3    H144543   2.069   3.402   0.365  2.2571 -3.9511 -0.4554
 7684TIP3    H244544   2.006   3.284   0.294 -3.6197 -0.0553 -2.5990
 7685TIP3   OH244545   4.836   2.257  16.955 -0.0529  0.4232 -0.0663
 7685TIP3    H144546   4.879   2.231  16.874 -0.8372  0.7540 -0.6068
 7685TIP3    H244547   4.751   2.213  16.952  0.5680 -0.9386  1.4071
 7686TIP3   OH244548   3.823   4.172  13.126  0.2403  0.5031 -0.3853
 7686TIP3    H144549   3.808   4.266  13.124  0.9312  0.6434 -3.3283
 7686TIP3    H244550   3.902   4.161  13.179  0.3106  1.5913 -0.2380
 7687TIP3   OH244551   5.995   6.041  12.110 -0.2312 -0.3645  1.1181
 7687TIP3    H144552   5.999   6.069  12.201  1.5080 -1.4001  1.4217
 7687TIP3    H244553   5.911   5.996  12.102 -0.7778  0.4851  1.9687
 7688TIP3   OH244554   5.752   1.111   0.777 -0.2618 -0.6852 -0.3655
 7688TIP3    H144555   5.670   1.119   0.729  0.6154 -3.4516 -2.6318
 7688TIP3    H244556   5.786   1.025   0.753  2.7623 -0.1553  1.3772
 7689TIP3   OH244557   0.880   1.560  12.228 -0.1608  0.1457  0.5251
 7689TIP3    H144558   0.888   1.510  12.146  1.2545 -0.7858  1.1874
 7689TIP3    H244559   0.798   1.530  12.266 -1.2725  1.1995 -0.9100
 7690TIP3   OH244560   2.733   6.029   1.273 -1.0518 -0.7576 -0.3133
 7690TIP3    H144561   2.790   5.993   1.205  0.2761 -0.4151  0.5642
 7690TIP3    H244562   2.783   6.103   1.309 -0.9737 -1.8675  2.0854
 7691TIP3   OH244563   3.106   1.997  17.192  0.0102 -0.4377 -0.2152
 7691TIP3    H144564   3.173   2.041  17.244 -0.9197  0.0127  0.6349
 7691TIP3    H244565   3.118   2.030  17.103 -1.3136  2.3962  0.5628
 7692TIP3   OH244566   4.432   5.296  15.104  0.1075 -0.0546  0.3058
 7692TIP3    H144567   4.440   5.272  15.196 -0.6030 -0.8972  0.1669
 7692TIP3    H244568   4.450   5.390  15.101 -0.7825  0.1668  1.4288
 7693TIP3   OH244569   6.267   2.991   5.070 -0.0579 -0.1641 -0.6069
 7693TIP3    H144570   6.345   3.046   5.074 -0.3130  0.1629  0.0014
 7693TIP3    H244571   6.288   2.914   5.123 -0.6412  0.5747  0.7416
 7694TIP3   OH244572   2.102   1.369   3.120 -0.4948  1.0819  0.4574
 7694TIP3    H144573   2.119   1.392   3.029  0.3041 -0.1634  0.2712
 7694TIP3    H244574   2.030   1.307   3.117 -1.5520  2.2477  0.8264
 7695TIP3   OH244575   5.663   0.703   2.969  0.2550 -0.2018  0.5716
 7695TIP3    H144576   5.687   0.635   2.905  2.6414 -0.1548  1.3089
 7695TIP3    H244577   5.723   0.775   2.950 -0.0792  0.4419  1.8529
 7696TIP3   OH244578   3.488   3.145  14.744 -0.8758 -0.0233  0.4587
 7696TIP3    H144579   3.435   3.197  14.804 -1.1523  1.2938 -0.8576
 7696TIP3    H244580   3.425   3.113  14.678 -0.4167 -0.5682  0.2741
 7697TIP3   OH244581   6.662   1.132   0.528  0.4201 -0.3032  0.4765
 7697TIP3    H144582   6.685   1.117   0.436 -0.8446 -2.1829  0.3997
 7697TIP3    H244583   6.643   1.226   0.533 -0.8761 -0.3832 -1.5541
 7698TIP3   OH244584   6.738   4.774   1.289 -0.4551 -0.0036 -0.1653
 7698TIP3    H144585   6.668   4.716   1.319  0.2321 -0.7933 -0.0298
 7698TIP3    H244586   6.810   4.714   1.266 -0.2334  0.7030 -1.4178
 7699TIP3   OH244587   5.971   3.010  16.382 -0.1972 -0.7009  0.0367
 7699TIP3    H144588   5.878   3.027  16.366 -0.5237 -0.6696  1.7839
 7699TIP3    H244589   6.015   3.091  16.359 -1.1364  0.9036  3.2472
 7700TIP3   OH244590   0.715   1.634  14.275  0.6607 -0.2988 -0.4592
 7700TIP3    H144591   0.621   1.630  14.254  0.4414  1.7220 -0.0964
 7700TIP3    H244592   0.718   1.650  14.369  1.2621  1.3327 -0.7088
 7701TIP3   OH244593   2.974   5.699  15.719 -0.0879 -0.1970  0.1781
 7701TIP3    H144594   3.031   5.698  15.797  2.0132  2.7039 -1.1264
 7701TIP3    H244595   3.024   5.652  15.653 -1.8971 -2.7021  0.4663
 7702TIP3   OH244596   1.233   5.969   3.550  0.4980  0.0482 -0.2431
 7702TIP3    H144597   1.192   6.039   3.499  0.3662  0.5718  0.5702
 7702TIP3    H244598   1.218   5.890   3.498  1.7962  0.7811 -1.8491
 7703TIP3   OH244599   0.256   3.082  12.198 -0.0877 -0.4060 -0.4525
 7703TIP3    H144600   0.273   3.081  12.292  0.1491  1.0683 -0.4525
 7703TIP3    H244601   0.166   3.052  12.189 -0.4779  0.4735  0.3574
 7704TIP3   OH244602   1.879   4.862   2.035  0.0906 -0.2114 -0.2519
 7704TIP3    H144603   1.953   4.917   2.060 -0.9446  0.3048  1.8406
 7704TIP3    H244604   1.896   4.841   1.943  2.3689  0.5996 -0.0860
 7705TIP3   OH244605   5.742   5.058   5.676 -0.3552  0.3547 -0.0637
 7705TIP3    H144606   5.723   5.110   5.754 -0.2414  1.6411 -0.8745
 7705TIP3    H244607   5.819   5.006   5.700 -0.6667  0.3068  0.8641
 7706TIP3   OH244608   4.069   4.172  15.417  0.7562  0.0666 -0.4766
 7706TIP3    H144609   3.982   4.166  15.456  0.2863  1.2543 -1.2980
 7706TIP3    H244610   4.113   4.091  15.444 -0.4705 -0.3865  0.2379
 7707TIP3   OH244611   2.868   3.195   1.729  0.2670 -0.9520  0.4734
 7707TIP3    H144612   2.946   3.196   1.784  0.3296  0.6422  0.3887
 7707TIP3    H244613   2.881   3.266   1.667 -1.0177 -1.0092  0.1123
 7708TIP3   OH244614   5.184   5.775   3.911 -0.3581 -0.3609  0.2776
 7708TIP3    H144615   5.264   5.761   3.962 -0.7961 -1.7437  0.6239
 7708TIP3    H244616   5.140   5.847   3.956  0.5728  0.2818  0.2049
 7709TIP3   OH244617   1.905   1.044  17.197 -0.4048 -0.1195 -0.1005
 7709TIP3    H144618   1.862   1.088  17.270 -2.7850 -0.1227 -1.3932
 7709TIP3    H244619   1.888   0.951  17.211  1.4443 -0.3849  0.6819
 7710TIP3   OH244620   0.616   0.890  12.039  0.8650  0.5147  0.6840
 7710TIP3    H144621   0.615   0.964  12.100  2.8052 -0.0624  1.5049
 7710TIP3    H244622   0.552   0.913  11.971  0.6401  2.4235  1.4932
 7711TIP3   OH244623   0.671   0.051  10.788 -0.4232  0.3082  0.2290
 7711TIP3    H144624   0.584   0.052  10.749 -0.1867  2.3734 -0.3327
 7711TIP3    H244625   0.722   0.112  10.735  0.2083  2.4362  3.0826
 7712TIP3   OH244626   6.428   1.907   0.674 -0.3316  0.1880  0.0748
 7712TIP3    H144627   6.396   1.864   0.753 -2.2256 -0.0250 -0.7513
 7712TIP3    H244628   6.405   1.847   0.603 -0.9739  1.5172 -0.8903
 7713TIP3   OH244629   5.117   2.113  14.678 -0.1919 -0.0574 -0.1677
 7713TIP3    H144630   5.202   2.084  14.643  0.4465  2.4788 -0.9332
 7713TIP3    H244631   5.053   2.085  14.613  0.4975  0.9289 -1.3100
 7714TIP3   OH244632   6.054   1.493   1.080  0.0578 -0.1684  0.1216
 7714TIP3    H144633   6.048   1.562   1.146  2.7217  0.6894 -0.4280
 7714TIP3    H244634   6.015   1.417   1.123 -1.7013  1.2830  1.2602
 7715TIP3   OH244635   4.524   4.755  15.158  0.5512 -0.5082  0.3841
 7715TIP3    H144636   4.607   4.797  15.179 -0.0175  0.0963  1.5732
 7715TIP3    H244637   4.470   4.769  15.236 -0.8309 -0.4357 -0.5383
 7716TIP3   OH244638   0.470   3.341  13.942 -0.4229  0.5145  0.0301
 7716TIP3    H144639   0.390   3.297  13.913  0.6214 -0.3475 -1.6556
 7716TIP3    H244640   0.469   3.330  14.037 -2.1523  0.2769  0.0286
 7717TIP3   OH244641   6.768   3.688   5.439  0.2962 -0.6121  0.7250
 7717TIP3    H144642   6.815   3.667   5.359 -0.1498  0.7947  0.0540
 7717TIP3    H244643   6.688   3.636   5.435  0.8445 -1.4848  0.8835
 7718TIP3   OH244644   1.873   2.049  10.923  0.1745  0.5181 -0.4067
 7718TIP3    H144645   1.781   2.034  10.904  0.4971 -0.2085 -1.4923
 7718TIP3    H244646   1.898   2.120  10.863  0.2458  0.9330  0.1108
 7719TIP3   OH244647   5.152   4.490   1.734  0.0421 -0.0470 -0.0110
 7719TIP3    H144648   5.099   4.433   1.789  1.6712 -0.9116  0.7180
 7719TIP3    H244649   5.103   4.496   1.651 -1.3617 -0.4699  0.7526
 7720TIP3   OH244650   0.599   3.067   4.057 -0.3635  0.4751  0.1852
 7720TIP3    H144651   0.530   3.010   4.022  0.8609 -1.4053  0.6729
 7720TIP3    H244652   0.554   3.124   4.119 -1.4535 -1.0544  0.8807
 7721TIP3   OH244653   6.230   4.551   3.503  0.1958 -0.0173  0.2773
 7721TIP3    H144654   6.169   4.543   3.577 -1.0518 -0.4833 -0.7709
 7721TIP3    H244655   6.310   4.507   3.533  0.1933  0.9193  1.8184
 7722TIP3   OH244656   4.517   4.895  12.273  0.1354 -0.5441 -0.2662
 7722TIP3    H144657   4.565   4.816  12.295  1.0291  0.1032  0.1692
 7722TIP3    H244658   4.584   4.963  12.267 -0.7140  0.3722  0.3279
 7723TIP3   OH244659   2.173   0.235   3.110  1.0596 -0.4196 -0.1797
 7723TIP3    H144660   2.131   0.313   3.145  1.8201 -1.2969  2.9897
 7723TIP3    H244661   2.256   0.229   3.156  1.8243 -2.1553 -1.6452
 7724TIP3   OH244662   2.395   1.871  17.004  0.5132  0.3514 -1.1092
 7724TIP3    H144663   2.329   1.914  17.058 -1.8284 -3.1196 -0.9403
 7724TIP3    H244664   2.478   1.890  17.049 -0.9288  0.6483  1.6630
 7725TIP3   OH244665   4.030   5.526   1.610 -0.4411 -0.1272  0.6150
 7725TIP3    H144666   4.009   5.598   1.550 -1.3991  0.7179  1.8991
 7725TIP3    H244667   4.125   5.523   1.612 -0.3976  0.6261 -0.0291
 7726TIP3   OH244668   2.036   5.205  16.191  0.2074 -0.7161  0.1898
 7726TIP3    H144669   2.081   5.284  16.221  1.0786 -1.1531  0.0794
 7726TIP3    H244670   2.048   5.205  16.096 -0.3755 -0.6364  0.1155
 7727TIP3   OH244671   2.907   3.565   3.229 -0.0739  0.1079 -0.6291
 7727TIP3    H144672   2.929   3.553   3.137 -0.0206 -0.1255 -0.5856
 7727TIP3    H244673   2.814   3.546   3.235 -0.3577  1.3105 -0.8537
 7728TIP3   OH244674   0.966   2.717   0.286 -0.1940 -0.3872 -0.2426
 7728TIP3    H144675   1.011   2.731   0.203 -0.7732  0.2829 -0.4551
 7728TIP3    H244676   1.035   2.695   0.348  0.1957 -1.3934 -1.0056
 7729TIP3   OH244677   2.578   5.192  14.631  0.6307  0.0294  0.0890
 7729TIP3    H144678   2.652   5.156  14.680  1.8885  2.3894  0.0382
 7729TIP3    H244679   2.614   5.215  14.545 -0.6524 -0.5748 -0.6417
 7730TIP3   OH244680   0.495   5.654  10.340  0.4876 -0.3105 -0.3139
 7730TIP3    H144681   0.559   5.591  10.306 -0.5380 -1.3380 -0.4299
 7730TIP3    H244682   0.502   5.646  10.435  0.5625 -0.3963 -0.3259
 7731TIP3   OH244683   5.234   1.541   3.626 -0.8428  0.2160  0.2508
 7731TIP3    H144684   5.158   1.565   3.680 -1.0154  1.1273 -0.3775
 7731TIP3    H244685   5.220   1.588   3.544 -0.4471 -0.9370 -0.4976
 7732TIP3   OH244686   0.520   0.845   4.477 -0.1408 -0.5101  0.4139
 7732TIP3    H144687   0.574   0.808   4.546 -0.9122 -0.7661  0.8928
 7732TIP3    H244688   0.454   0.897   4.523 -0.4102 -0.3435 -0.1449
 7733TIP3   OH244689   5.169   5.248  16.481 -0.1874 -0.4895  0.0060
 7733TIP3    H144690   5.232   5.293  16.537  0.7457 -2.1004  0.3089
 7733TIP3    H244691   5.095   5.228  16.538  0.0753 -0.7316  0.2600
 7734TIP3   OH244692   6.179   4.523  16.319  0.5803 -0.3507 -0.7484
 7734TIP3    H144693   6.088   4.494  16.310 -0.0108  1.0332  0.2817
 7734TIP3    H244694   6.231   4.444  16.307 -0.8592 -1.5420  0.4052
 7735TIP3   OH244695   6.085   5.007  13.654  0.7649  0.5089  0.3806
 7735TIP3    H144696   6.006   4.958  13.631 -1.1959  3.2584  0.7361
 7735TIP3    H244697   6.070   5.036  13.744  2.5711  0.4713  0.7386
 7736TIP3   OH244698   3.927   0.528  11.413 -0.1983 -0.6599  0.4368
 7736TIP3    H144699   4.020   0.550  11.401 -0.3725  0.8695  1.5434
 7736TIP3    H244700   3.921   0.500  11.505 -0.9497  0.0168  0.6044
 7737TIP3   OH244701   3.371   1.690  12.737 -0.4534 -0.1554  0.0865
 7737TIP3    H144702   3.409   1.749  12.802  0.1378  1.9077 -1.9754
 7737TIP3    H244703   3.431   1.615  12.736  1.0005  0.9468  0.1621
 7738TIP3   OH244704   5.745   5.215  16.725  0.2388  0.2776 -0.4985
 7738TIP3    H144705   5.815   5.211  16.661  1.4314 -3.2965  0.7990
 7738TIP3    H244706   5.788   5.240  16.807 -0.1856 -0.7318  0.0536
 7739TIP3   OH244707   6.246   1.264   1.314 -0.1310 -0.6642  0.0361
 7739TIP3    H144708   6.164   1.295   1.354  0.6709 -1.1721  2.2406
 7739TIP3    H244709   6.283   1.342   1.272 -1.3659 -0.2425 -0.3104
 7740TIP3   OH244710   2.147   0.595   5.108 -0.2505 -0.8323  0.0919
 7740TIP3    H144711   2.185   0.587   5.195  1.0194 -1.4867 -0.4985
 7740TIP3    H244712   2.214   0.560   5.049  1.1574  4.1275 -1.7181
 7741TIP3   OH244713   0.761   0.292  11.938  0.0365  0.1967 -0.4254
 7741TIP3    H144714   0.732   0.222  11.997  0.5537  0.4902  0.1866
 7741TIP3    H244715   0.687   0.306  11.879  0.3804 -1.7387 -1.3909
 7742TIP3   OH244716   3.443   5.874   2.161 -0.0886 -0.1030 -0.8003
 7742TIP3    H144717   3.394   5.951   2.189 -0.2487 -0.9298  1.4977
 7742TIP3    H244718   3.445   5.818   2.239  1.5185 -1.6476 -1.8616
 7743TIP3   OH244719   1.287   6.526  14.814 -0.5860 -0.1346 -0.3474
 7743TIP3    H144720   1.197   6.557  14.821 -0.9642 -1.5033  2.0246
 7743TIP3    H244721   1.340   6.591  14.860 -0.2192  0.9842 -2.2627
 7744TIP3   OH244722   3.881   3.565  15.014  0.1178  0.1001 -0.8200
 7744TIP3    H144723   3.825   3.487  15.012  1.4047 -0.8527 -0.9526
 7744TIP3    H244724   3.968   3.533  14.988  1.1351  1.1896  1.0091
 7745TIP3   OH244725   4.453   0.223  11.061  0.3791 -0.2818  0.4102
 7745TIP3    H144726   4.453   0.232  10.966  1.7042  0.4999  0.4598
 7745TIP3    H244727   4.372   0.177  11.081  0.0145 -0.3270 -1.0833
 7746TIP3   OH244728   0.580   6.281  14.439  0.0071  0.2295  0.4075
 7746TIP3    H144729   0.607   6.217  14.373 -1.4688  0.8235 -0.8244
 7746TIP3    H244730   0.654   6.341  14.446 -0.0482  0.5270 -1.2061
 7747TIP3   OH244731   2.219   3.842   3.329 -0.4075 -0.2142  0.4708
 7747TIP3    H144732   2.195   3.888   3.410 -1.7534  0.1379 -0.1057
 7747TIP3    H244733   2.136   3.822   3.287  0.2771 -0.2008 -0.9428
 7748TIP3   OH244734   1.520   2.277  15.935  0.0354 -0.0990 -0.1193
 7748TIP3    H144735   1.545   2.352  15.988 -0.2532 -0.4781  0.5676
 7748TIP3    H244736   1.465   2.224  15.993  1.3069 -1.5016 -0.1483
 7749TIP3   OH244737   4.649   1.804  12.367  0.0359  0.3317 -0.2156
 7749TIP3    H144738   4.585   1.856  12.318  0.7234  1.2489 -0.1713
 7749TIP3    H244739   4.633   1.714  12.339  0.0784  0.7742 -1.7480
 7750TIP3   OH244740   6.616   4.175   1.529  0.4010  0.5466 -0.3519
 7750TIP3    H144741   6.687   4.111   1.533  0.2490  0.3658 -0.5644
 7750TIP3    H244742   6.553   4.145   1.595  0.5101  0.6954 -0.1782
 7751TIP3   OH244743   3.576   2.566  12.894  0.4120  0.8743  0.5070
 7751TIP3    H144744   3.610   2.575  12.983  0.3775  1.2271  0.4834
 7751TIP3    H244745   3.593   2.474  12.871 -0.5270  0.4959  1.2686
 7752TIP3   OH244746   4.394   3.856  11.616 -0.2529  0.0439  0.4370
 7752TIP3    H144747   4.314   3.808  11.596 -0.0449  0.4184 -1.4523
 7752TIP3    H244748   4.387   3.936  11.565  1.0283  0.3935  0.7810
 7753TIP3   OH244749   2.589   3.909   5.092 -0.4848 -0.2413 -0.4533
 7753TIP3    H144750   2.588   3.931   5.185  0.9161 -1.3761 -0.1418
 7753TIP3    H244751   2.545   3.824   5.087 -1.1096  0.0973 -0.9303
 7754TIP3   OH244752   5.943   3.196   4.789 -0.2312  0.7277  0.1261
 7754TIP3    H144753   5.960   3.287   4.764  0.4108  0.3710 -0.8157
 7754TIP3    H244754   5.960   3.192   4.883 -2.6158  2.1111  0.7064
 7755TIP3   OH244755   3.157   3.896  12.448  0.2430  0.3073 -0.3599
 7755TIP3    H144756   3.064   3.874  12.438 -1.2881  4.4637  1.9298
 7755TIP3    H244757   3.167   3.978  12.398  2.1339  0.9658  1.0004
 7756TIP3   OH244758   1.460   6.127   3.478 -0.1164  0.2718 -0.0785
 7756TIP3    H144759   1.410   6.127   3.560  1.0266 -3.0348  0.7993
 7756TIP3    H244760   1.497   6.038   3.473  3.5348  1.6747 -1.9097
 7757TIP3   OH244761   2.222   3.476  11.095  0.1708  0.3223 -0.0357
 7757TIP3    H144762   2.209   3.412  11.165 -0.0057  1.4523  1.0003
 7757TIP3    H244763   2.174   3.440  11.020  0.0383 -0.7269  0.5379
 7758TIP3   OH244764   2.402   3.462  15.494 -0.8064 -0.1743  0.3200
 7758TIP3    H144765   2.491   3.468  15.528 -0.5493  1.2912 -0.5136
 7758TIP3    H244766   2.401   3.382  15.442  0.3881  0.3581 -0.5737
 7759TIP3   OH244767   6.131   2.179  16.393 -0.2267  0.1655  0.5623
 7759TIP3    H144768   6.036   2.188  16.388 -0.0156  1.8592 -1.2761
 7759TIP3    H244769   6.157   2.244  16.458 -0.1205  1.8099 -1.0542
 7760TIP3   OH244770   6.296   6.194  15.121 -0.5016 -0.2334 -0.2777
 7760TIP3    H144771   6.353   6.146  15.061  0.9438 -0.5560  1.2801
 7760TIP3    H244772   6.208   6.184  15.084  0.3207 -0.3721 -2.3406
 7761TIP3   OH244773   4.013   4.010  11.604  0.7356  0.3549 -0.4566
 7761TIP3    H144774   4.055   3.924  11.605 -0.4063 -0.2205 -0.0459
 7761TIP3    H244775   3.997   4.028  11.512  0.4594 -0.1367 -0.5046
 7762TIP3   OH244776   0.778   4.816  17.117 -0.2376  0.1010 -0.2692
 7762TIP3    H144777   0.689   4.783  17.107 -0.1502 -0.2860  0.2057
 7762TIP3    H244778   0.770   4.890  17.177 -0.0495 -0.8827  1.0296
 7763TIP3   OH244779   0.620   6.765  11.318  0.2505 -0.0589  0.2356
 7763TIP3    H144780   0.589   6.842  11.271 -0.9763  0.8407  2.3857
 7763TIP3    H244781   0.627   6.793  11.409  4.1883 -1.2247  0.4970
 7764TIP3   OH244782   6.549   5.781  14.494 -0.4912  0.0901 -0.1028
 7764TIP3    H144783   6.551   5.769  14.399 -0.3699  1.1185 -0.2440
 7764TIP3    H244784   6.630   5.830  14.513 -1.2549  1.2297  0.3186
 7765TIP3   OH244785   6.223   0.970  17.102 -0.1079  0.0041 -0.3137
 7765TIP3    H144786   6.215   1.037  17.169 -0.7266  0.6802 -1.0321
 7765TIP3    H244787   6.308   0.986  17.062 -0.5307  0.8405 -0.9383
 7766TIP3   OH244788   6.144   6.381  13.443  0.4981  0.7585  0.0250
 7766TIP3    H144789   6.203   6.358  13.371 -0.7181 -0.6002 -0.5990
 7766TIP3    H244790   6.082   6.442  13.404  0.7650  1.2389  0.3516
 7767TIP3   OH244791   0.643   1.606   4.291  0.5264 -0.2406 -0.5465
 7767TIP3    H144792   0.723   1.599   4.239  1.9675  1.5762  1.2577
 7767TIP3    H244793   0.654   1.541   4.361  0.5536  0.2019 -0.1384
 7768TIP3   OH244794   1.882   0.809  15.264  0.1988 -0.3296 -0.0375
 7768TIP3    H144795   1.846   0.872  15.326 -1.6692 -2.0893  0.7963
 7768TIP3    H244796   1.861   0.844  15.178 -0.9480  0.1348  0.4075
 7769TIP3   OH244797   1.853   6.811  13.115 -0.4165 -0.8135  0.5462
 7769TIP3    H144798   1.906   6.886  13.143  0.2475 -1.7586  1.9236
 7769TIP3    H244799   1.813   6.779  13.196 -1.5630 -1.3072 -0.1885
 7770TIP3   OH244800   3.491   3.954  13.787  0.1919 -0.8068  0.1644
 7770TIP3    H144801   3.455   4.023  13.842  0.7554 -1.1257  0.9468
 7770TIP3    H244802   3.417   3.924  13.735 -0.4325 -0.7090  0.9762
 7771TIP3   OH244803   5.914   0.491   5.634 -0.1451  0.8412  0.2766
 7771TIP3    H144804   5.851   0.481   5.562  0.3289  0.1977 -0.0553
 7771TIP3    H244805   5.866   0.541   5.700 -1.5595 -0.9047  0.6771
 7772TIP3   OH244806   5.006   5.183   2.661  0.0314 -0.4954  0.0004
 7772TIP3    H144807   5.054   5.233   2.594  0.4918 -0.5082  0.3146
 7772TIP3    H244808   4.928   5.235   2.678  1.3861  1.1384  1.6968
 7773TIP3   OH244809   3.161   2.619   4.247 -0.3631  0.3099  0.2265
 7773TIP3    H144810   3.210   2.568   4.183 -1.2178  0.5308 -0.6401
 7773TIP3    H244811   3.174   2.710   4.221  0.4761  0.5078  1.2674
 7774TIP3   OH244812   0.879   3.955   2.989  0.0163  0.1309 -0.3712
 7774TIP3    H144813   0.969   3.942   3.020 -0.0066 -1.9442 -1.0760
 7774TIP3    H244814   0.839   3.868   2.990 -2.5869  1.2122  1.5727
 7775TIP3   OH244815   4.675   6.723  16.788  0.0100 -0.2350  0.1288
 7775TIP3    H144816   4.747   6.689  16.841 -0.5221 -0.9981  0.3774
 7775TIP3    H244817   4.692   6.688  16.700 -0.8490 -1.6724  0.5082
 7776TIP3   OH244818   2.100   4.697  16.682 -0.2620  0.0929  0.0655
 7776TIP3    H144819   2.083   4.606  16.657 -3.0232  0.5983 -0.2100
 7776TIP3    H244820   2.108   4.695  16.777 -2.9301 -0.1537  0.3333
 7777TIP3   OH244821   0.163   0.556  12.421 -0.5311 -0.2473 -0.3586
 7777TIP3    H144822   0.098   0.488  12.435  0.0684 -0.9343 -0.8213
 7777TIP3    H244823   0.245   0.518  12.455 -0.4873  0.8584  0.8547
 7778TIP3   OH244824   2.059   3.255  16.544 -0.1407  0.0425 -0.5121
 7778TIP3    H144825   2.103   3.275  16.462  0.2149  0.7161 -0.1657
 7778TIP3    H244826   2.056   3.339  16.591  1.5143 -0.6956  1.0570
 7779TIP3   OH244827   6.677   1.271  12.475 -0.4060  0.3789  0.0503
 7779TIP3    H144828   6.612   1.340  12.463 -0.3859  0.1488 -1.6707
 7779TIP3    H244829   6.756   1.317  12.504 -0.0835  1.2859 -2.0837
 7780TIP3   OH244830   1.987   1.901   2.492 -0.1390 -0.1615  0.3299
 7780TIP3    H144831   1.910   1.909   2.436  0.1500  0.5940  0.0288
 7780TIP3    H244832   1.978   1.972   2.555  0.6112  0.2978 -0.0751
 7781TIP3   OH244833   3.085   0.546  15.772 -0.0216  0.5109 -0.2680
 7781TIP3    H144834   3.007   0.586  15.811  0.3594  1.1851 -0.1914
 7781TIP3    H244835   3.092   0.461  15.816  1.4054  1.9155  2.4989
 7782TIP3   OH244836   4.838   6.777  13.497  0.4243 -0.6004  0.2873
 7782TIP3    H144837   4.854   6.792  13.405 -2.0610  0.1093 -0.1106
 7782TIP3    H244838   4.820   6.683  13.503 -2.8592 -0.1590 -0.6802
 7783TIP3   OH244839   1.846   2.215  15.661 -0.1798  0.2765  0.7075
 7783TIP3    H144840   1.814   2.125  15.652 -0.8832  0.3354  2.2200
 7783TIP3    H244841   1.846   2.250  15.572 -1.6144 -0.6628  0.3070
 7784TIP3   OH244842   1.909   5.189  11.872  0.3597  0.3474  0.0780
 7784TIP3    H144843   1.814   5.178  11.874  0.1614  1.8102  0.0055
 7784TIP3    H244844   1.925   5.246  11.796  0.9479  2.7512  1.8861
 7785TIP3   OH244845   4.498   0.496  15.582 -0.3026  0.1097  0.0008
 7785TIP3    H144846   4.454   0.426  15.630  0.2923 -0.5824 -0.4277
 7785TIP3    H244847   4.592   0.479  15.595 -0.1125 -0.1978 -1.4959
 7786TIP3   OH244848   5.975   2.882   5.652 -0.2045 -0.2717 -0.8858
 7786TIP3    H144849   5.883   2.890   5.626 -0.9855 -1.6808  1.1736
 7786TIP3    H244850   5.990   2.958   5.709 -1.0102 -1.4951  1.0553
 7787TIP3   OH244851   2.839   3.409   2.905 -0.0258 -0.4171 -0.2215
 7787TIP3    H144852   2.869   3.500   2.906  1.1928 -0.7984  0.0149
 7787TIP3    H244853   2.748   3.413   2.934  0.3576  0.6219  0.9147
 7788TIP3   OH244854   0.212   5.546   3.005  0.1950 -0.0338  0.1757
 7788TIP3    H144855   0.221   5.515   2.915  0.3722 -0.7843  0.4491
 7788TIP3    H244856   0.123   5.581   3.010 -0.9651 -2.7882  0.5351
 7789TIP3   OH244857   6.325   2.752  17.189  0.1239 -0.1134  0.0730
 7789TIP3    H144858   6.350   2.665  17.157  0.3766 -0.4675  1.1963
 7789TIP3    H244859   6.408   2.795  17.208  0.0912  1.0349 -2.0531
 7790TIP3   OH244860   5.649   1.385  11.492  0.5576  0.5873 -0.5402
 7790TIP3    H144861   5.709   1.310  11.491  1.3770  1.2311 -0.5923
 7790TIP3    H244862   5.631   1.400  11.585  0.7007  0.5786 -0.5119
 7791TIP3   OH244863   6.205   6.017  13.534  0.4316  0.0437  0.3066
 7791TIP3    H144864   6.187   6.011  13.440 -1.0123  1.8248  0.4278
 7791TIP3    H244865   6.256   6.097  13.543  0.5181 -0.0922  1.0606
 7792TIP3   OH244866   1.773   0.963   6.723 -0.0078  0.3169 -0.1672
 7792TIP3    H144867   1.840   1.031   6.736  1.6880 -1.5667  1.8059
 7792TIP3    H244868   1.694   0.999   6.764  1.0019  0.8997  1.3574
 7793TIP3   OH244869   5.968   3.095  12.379  0.3568 -0.1912  0.1697
 7793TIP3    H144870   5.938   3.013  12.418 -0.3972  0.1442  0.3027
 7793TIP3    H244871   6.012   3.068  12.298  0.8478 -0.7866  0.6293
 7794TIP3   OH244872   5.842   3.313  16.824 -0.0020 -0.4138 -0.4851
 7794TIP3    H144873   5.900   3.329  16.899  0.5761  1.5125 -1.2743
 7794TIP3    H244874   5.789   3.238  16.851  1.7625 -1.2603  0.9104
 7795TIP3   OH244875   1.968   0.723  16.001 -0.3445  0.2096 -0.3328
 7795TIP3    H144876   1.892   0.779  16.017  0.2267  0.9289 -0.1161
 7795TIP3    H244877   1.994   0.743  15.911 -0.4235 -0.0607 -0.4175
 7796TIP3   OH244878   0.846   1.997  15.264  0.0955  0.0570 -0.4150
 7796TIP3    H144879   0.793   2.044  15.328  1.0830 -0.4648  0.8162
 7796TIP3    H244880   0.791   1.993  15.185 -0.8365  1.3731  0.1435
 7797TIP3   OH244881   5.579   2.615   0.010  0.4982  0.2235  0.3428
 7797TIP3    H144882   5.607   2.589   0.098 -0.4526  0.3645  0.7000
 7797TIP3    H244883   5.592   2.537  -0.043 -0.4204 -0.3766  0.9672
 7798TIP3   OH244884   5.544   3.902  12.257  0.4037 -0.1923 -0.3751
 7798TIP3    H144885   5.454   3.935  12.263  0.4341 -0.2594  0.5445
 7798TIP3    H244886   5.549   3.863  12.169  0.0024  1.1682 -1.0371
 7799TIP3   OH244887   3.570   3.974  15.999 -0.0156  0.3652  0.1635
 7799TIP3    H144888   3.574   3.880  16.014 -0.0341  0.4745  0.9231
 7799TIP3    H244889   3.599   3.986  15.909 -2.1977 -0.5697 -0.7208
 7800TIP3   OH244890   0.692   1.637  13.989  0.6031 -0.4056  0.3103
 7800TIP3    H144891   0.665   1.545  13.992 -1.1577  0.0027 -1.3226
 7800TIP3    H244892   0.694   1.664  14.081  2.5656 -2.4121  0.9357
 7801TIP3   OH244893   2.644   0.630  15.687  0.0103 -0.4603  0.3896
 7801TIP3    H144894   2.577   0.698  15.681 -1.4032 -1.9050 -1.6556
 7801TIP3    H244895   2.654   0.598  15.598  1.0519 -2.5347  1.1752
 7802TIP3   OH244896   6.657   4.316  13.465  0.2445  0.0776 -0.8327
 7802TIP3    H144897   6.655   4.250  13.535  0.1264 -0.5484 -1.4084
 7802TIP3    H244898   6.597   4.384  13.495  1.1536  0.4309  0.2476
 7803TIP3   OH244899   3.447   1.453  11.027  0.0043  0.2978  0.0588
 7803TIP3    H144900   3.375   1.515  11.041  0.9121  1.0903  1.4356
 7803TIP3    H244901   3.434   1.421  10.937 -0.4801  2.4923 -0.7025
 7804TIP3   OH244902   4.935   4.135  16.399  0.0982 -0.3375  0.3960
 7804TIP3    H144903   4.965   4.053  16.436  1.1578  0.4262  1.2843
 7804TIP3    H244904   4.948   4.125  16.304 -0.8943 -1.6018  0.3669
 7805TIP3   OH244905   5.864   6.371  12.067 -0.4518 -0.0068 -0.0274
 7805TIP3    H144906   5.953   6.337  12.068 -0.0705  0.9554 -0.0742
 7805TIP3    H244907   5.873   6.460  12.032 -1.2817  0.5097  1.0344
 7806TIP3   OH244908   2.121   2.316   5.545  0.0391 -0.2770 -0.5193
 7806TIP3    H144909   2.200   2.264   5.558 -0.1151 -0.5660 -0.6986
 7806TIP3    H244910   2.050   2.260   5.576 -0.0286  0.2984  0.3982
 7807TIP3   OH244911   0.714   5.297  16.607 -0.2833 -0.3779  0.1425
 7807TIP3    H144912   0.631   5.260  16.634 -0.7701  1.1740  0.9072
 7807TIP3    H244913   0.757   5.323  16.689 -0.2761  1.3110 -0.3520
 7808TIP3   OH244914   6.115   1.338  15.524 -0.4963  0.4318  0.0965
 7808TIP3    H144915   6.044   1.293  15.478  0.5152 -0.9887 -0.1683
 7808TIP3    H244916   6.119   1.295  15.610 -1.6391  2.2974  1.1478
 7809TIP3   OH244917   1.176   3.524   5.604  0.0665 -0.0902  0.3739
 7809TIP3    H144918   1.166   3.430   5.587  0.5449 -0.0779 -0.0187
 7809TIP3    H244919   1.266   3.543   5.577 -0.2505  0.6198 -0.2208
 7810TIP3   OH244920   3.168   4.354   3.762 -0.3825  0.5391 -0.4131
 7810TIP3    H144921   3.233   4.284   3.773 -0.6677  0.5181  1.4968
 7810TIP3    H244922   3.084   4.313   3.783 -0.4563  1.6036  1.6413
 7811TIP3   OH244923   4.684   0.095   0.536 -0.5736 -0.0768 -0.2795
 7811TIP3    H144924   4.619   0.038   0.493  1.0007 -0.4488 -2.3587
 7811TIP3    H244925   4.669   0.181   0.497 -0.7659  0.1850  0.3618
 7812TIP3   OH244926   2.461   0.841   4.708  0.4050 -0.3788  0.0580
 7812TIP3    H144927   2.469   0.920   4.654 -1.1030  0.1124  0.4928
 7812TIP3    H244928   2.551   0.810   4.718  0.7077 -1.2321 -3.7735
 7813TIP3   OH244929   1.430   4.728   4.902 -0.1849  0.3466 -0.7439
 7813TIP3    H144930   1.454   4.641   4.869  0.2606  0.2109 -0.0876
 7813TIP3    H244931   1.507   4.782   4.884  0.7866 -0.1287  1.5158
 7814TIP3   OH244932   3.610   3.864   3.390  0.3057  0.6285  0.9488
 7814TIP3    H144933   3.628   3.948   3.432  0.7655  1.0786 -0.1143
 7814TIP3    H244934   3.696   3.834   3.360 -0.1696  1.0620 -1.0056
 7815TIP3   OH244935   6.579   3.827  12.424 -0.1992 -0.4059 -0.0915
 7815TIP3    H144936   6.501   3.879  12.442 -0.3422 -0.3340 -0.8944
 7815TIP3    H244937   6.545   3.746  12.385  0.0865 -0.6831  0.2220
 7816TIP3   OH244938   0.595   0.545   2.252 -0.3896 -0.0328 -0.2328
 7816TIP3    H144939   0.531   0.540   2.323 -0.7779  0.2016 -0.5669
 7816TIP3    H244940   0.605   0.455   2.222 -1.3616  0.0709 -0.8896
 7817TIP3   OH244941   3.543   4.254  11.308  0.0742 -0.0353 -0.4459
 7817TIP3    H144942   3.594   4.179  11.338 -0.0005 -0.1763 -0.6650
 7817TIP3    H244943   3.568   4.325  11.367 -0.7772 -0.5392  0.5503
 7818TIP3   OH244944   1.979   3.214   5.544 -0.1579  0.3670  0.2091
 7818TIP3    H144945   1.905   3.169   5.502  0.0749  1.4535 -1.4525
 7818TIP3    H244946   1.952   3.225   5.635 -1.7492  0.1012 -0.2036
 7819TIP3   OH244947   4.546   1.732   1.623  0.0311  0.8075 -0.0336
 7819TIP3    H144948   4.536   1.699   1.534  1.6854 -0.3356  0.1406
 7819TIP3    H244949   4.512   1.662   1.678  3.1548 -0.6402  0.3223
 7820TIP3   OH244950   2.454   6.181  12.011  0.2753 -0.5232  0.0662
 7820TIP3    H144951   2.547   6.188  12.035  0.1255  0.8517  0.3195
 7820TIP3    H244952   2.448   6.225  11.926 -0.4059  0.9063  0.8140
 7821TIP3   OH244953   6.025   0.652   1.010  0.4573  0.3403 -0.8984
 7821TIP3    H144954   5.948   0.707   1.027  0.0978  0.0632 -1.5905
 7821TIP3    H244955   6.087   0.677   1.078 -0.8476 -0.6047  0.7370
 7822TIP3   OH244956   3.225   3.248  14.791  0.3123  0.3092 -0.1198
 7822TIP3    H144957   3.180   3.323  14.830 -0.6098 -1.4556  2.5518
 7822TIP3    H244958   3.155   3.188  14.766  1.0460 -0.3206 -0.7138
 7823TIP3   OH244959   1.430   0.362   2.946  0.1630 -0.1729  0.8024
 7823TIP3    H144960   1.434   0.414   2.865 -3.2231  0.3717  0.8530
 7823TIP3    H244961   1.395   0.422   3.011 -1.9301 -1.9102  1.3803
 7824TIP3   OH244962   3.537   0.263  16.652 -0.3532 -0.4510 -0.1465
 7824TIP3    H144963   3.495   0.178  16.639 -2.2158 -0.0856  2.6697
 7824TIP3    H244964   3.599   0.249  16.723 -0.7601  0.5413  0.4272
 7825TIP3   OH244965   2.935   1.716  15.094  0.4072  0.5145  0.3222
 7825TIP3    H144966   2.927   1.655  15.020 -0.8068  0.1211  0.7629
 7825TIP3    H244967   2.959   1.799  15.053 -2.3228  0.8461 -0.7877
 7826TIP3   OH244968   0.206   3.824   5.153 -0.3475 -0.6721  0.0926
 7826TIP3    H144969   0.183   3.780   5.071  1.2743 -1.5916  0.0862
 7826TIP3    H244970   0.272   3.889   5.128  0.7070 -1.4570  0.7260
 7827TIP3   OH244971   5.026   3.564  14.876  0.4754 -0.0696  0.0816
 7827TIP3    H144972   4.988   3.484  14.912  2.6390 -1.0513  0.3285
 7827TIP3    H244973   5.043   3.619  14.952  0.9742 -0.2880  0.1304
 7828TIP3   OH244974   4.683   3.427   4.080  0.5161  0.2030 -0.6960
 7828TIP3    H144975   4.625   3.390   4.013  0.6434  0.8171 -1.1590
 7828TIP3    H244976   4.626   3.446   4.154  0.1344  0.7047 -1.1106
 7829TIP3   OH244977   2.199   4.913   0.523 -0.1744  0.2586  0.4532
 7829TIP3    H144978   2.147   4.937   0.600  1.4728  1.5764  1.2004
 7829TIP3    H244979   2.276   4.869   0.559 -0.0379 -0.3266 -0.5369
 7830TIP3   OH244980   1.735   4.162   3.558  0.0728 -0.1397  0.1654
 7830TIP3    H144981   1.674   4.235   3.564 -1.0705 -1.1048  0.5078
 7830TIP3    H244982   1.695   4.102   3.496  0.6921 -0.7636  0.3588
 7831TIP3   OH244983   4.506   1.388  17.138  0.1612  0.0077  0.0067
 7831TIP3    H144984   4.596   1.374  17.108  0.3801  1.8517 -0.3016
 7831TIP3    H244985   4.460   1.419  17.060 -0.2352  1.0160  0.6251
 7832TIP3   OH244986   5.176   6.120  11.655 -0.2046  0.3035  0.3987
 7832TIP3    H144987   5.108   6.134  11.589  0.1391 -0.7624 -0.2106
 7832TIP3    H244988   5.187   6.205  11.698 -1.4865  0.6392  0.0959
 7833TIP3   OH244989   5.044   4.594  13.950 -0.0031 -0.1872  0.5060
 7833TIP3    H144990   4.971   4.546  13.989 -0.1377  0.4903  1.1075
 7833TIP3    H244991   5.017   4.609  13.859 -0.3497 -0.4624  0.5623
 7834TIP3   OH244992   0.641   2.635   5.101  0.2551 -0.0560 -0.2298
 7834TIP3    H144993   0.659   2.544   5.125 -0.3570 -0.4420 -1.1677
 7834TIP3    H244994   0.545   2.639   5.096  0.3185  0.0783 -2.1827
 7835TIP3   OH244995   6.756   5.926   1.272  0.1932 -0.3871 -0.0428
 7835TIP3    H144996   6.761   5.878   1.190 -1.5391  0.3900 -0.6587
 7835TIP3    H244997   6.847   5.938   1.299  0.7077 -3.1863 -0.3120
 7836TIP3   OH244998   4.046   6.417   0.147  0.2194 -0.4889  0.0260
 7836TIP3    H144999   4.001   6.501   0.138  0.3241 -0.0908  2.4483
 7836TIP3    H245000   4.132   6.433   0.108  0.9527  1.2541  2.0804
 7837TIP3   OH245001   3.039   1.976   5.035  0.3191  0.3180  0.3286
 7837TIP3    H145002   2.947   2.000   5.024 -0.1229 -1.9921 -1.8495
 7837TIP3    H245003   3.087   2.038   4.981  0.0426  1.2928  1.1672
 7838TIP3   OH245004   6.772   4.755   4.925  0.3215  0.0791 -0.4920
 7838TIP3    H145005   6.743   4.729   5.012 -1.4664 -0.6906 -1.2694
 7838TIP3    H245006   6.722   4.833   4.904 -0.9332 -0.9792 -1.6597
 7839TIP3   OH245007   6.782   2.444  15.899  0.5280  0.1074  0.5957
 7839TIP3    H145008   6.750   2.500  15.828  0.7895 -1.5882 -0.9084
 7839TIP3    H245009   6.755   2.490  15.979 -1.2895  1.2130 -0.5843
 7840TIP3   OH245010   4.187   0.509  15.768  0.5454  0.4573  0.0989
 7840TIP3    H145011   4.257   0.571  15.788  0.5088  0.9375 -1.1586
 7840TIP3    H245012   4.233   0.426  15.754  0.6026  0.1859  1.6870
 7841TIP3   OH245013   1.957   0.611   2.012  0.0284 -0.3185  0.0035
 7841TIP3    H145014   1.891   0.674   1.981 -0.1670 -1.3853 -1.9470
 7841TIP3    H245015   1.940   0.603   2.106 -1.2255  1.0212 -0.0628
 7842TIP3   OH245016   0.135   3.988  13.319  0.1770 -0.3140  0.3232
 7842TIP3    H145017   0.135   4.032  13.404  0.5245 -2.0859  1.2857
 7842TIP3    H245018   0.185   4.046  13.262  0.6976  0.4958  1.5623
 7843TIP3   OH245019   3.486   5.241  14.784 -0.3291 -0.5182  0.0014
 7843TIP3    H145020   3.396   5.231  14.755 -0.1855 -0.5811 -0.4366
 7843TIP3    H245021   3.496   5.178  14.856 -0.0869 -1.9241 -1.2219
 7844TIP3   OH245022   3.507   1.476   6.145  0.2304  0.2304 -0.5594
 7844TIP3    H145023   3.582   1.426   6.111  1.4846  1.1045  0.7920
 7844TIP3    H245024   3.448   1.409   6.180  0.9326 -0.4144 -0.5766
 7845TIP3   OH245025   0.350   2.724  11.233 -0.5213 -0.7143  0.2170
 7845TIP3    H145026   0.274   2.764  11.190  0.4212 -0.1190 -0.9341
 7845TIP3    H245027   0.426   2.760  11.187  0.6211  0.9510  3.1947
 7846TIP3   OH245028   2.977   6.681  12.009  0.4195  0.3387 -0.1548
 7846TIP3    H145029   2.932   6.764  12.023 -0.4340 -0.1949  0.4412
 7846TIP3    H245030   3.049   6.682  12.072  0.7404  0.8397 -0.5205
 7847TIP3   OH245031   0.377   0.417  10.244 -0.0284  0.4343  0.1910
 7847TIP3    H145032   0.450   0.355  10.253  0.0716  0.7724  2.4109
 7847TIP3    H245033   0.298   0.362  10.247  0.0815  0.3113  1.2475
 7848TIP3   OH245034   0.464   4.517   1.776  0.5010  0.1787  0.2062
 7848TIP3    H145035   0.441   4.438   1.727  0.8905 -1.4654  2.5191
 7848TIP3    H245036   0.554   4.536   1.750  0.2675  0.1146 -0.6739
 7849TIP3   OH245037   1.611   0.864   1.523  0.0618  0.1075 -0.2697
 7849TIP3    H145038   1.595   0.945   1.570 -1.2297  0.6745 -1.5829
 7849TIP3    H245039   1.691   0.880   1.473 -0.4963  0.8206 -0.9667
 7850TIP3   OH245040   6.079   6.528   1.213 -0.1082 -0.1160 -0.6064
 7850TIP3    H145041   6.027   6.570   1.282  1.1905  1.3457 -0.4572
 7850TIP3    H245042   6.087   6.437   1.240 -0.5180  0.1986  0.6310
 7851TIP3   OH245043   3.095   4.941  16.666  0.1360 -0.6894 -0.1200
 7851TIP3    H145044   3.137   4.902  16.743  0.6634  1.0399  0.5242
 7851TIP3    H245045   3.068   5.028  16.695  0.0068 -0.1295 -1.8032
 7852TIP3   OH245046   3.611   6.450   3.719 -0.5035 -0.2083 -0.0683
 7852TIP3    H145047   3.669   6.503   3.773  1.3181 -1.9405 -0.1979
 7852TIP3    H245048   3.596   6.503   3.640 -0.4358  0.9315  0.6633
 7853TIP3   OH245049   3.585   1.660   6.758  0.6355 -0.2228  0.1261
 7853TIP3    H145050   3.619   1.709   6.833  0.3582  0.6329 -0.2960
 7853TIP3    H245051   3.663   1.640   6.706  1.0614 -2.2091  1.3833
 7854TIP3   OH245052   5.721   0.079  12.395  0.0442  1.0746  0.2335
 7854TIP3    H145053   5.759  -0.006  12.414  0.2965  1.1606  0.1148
 7854TIP3    H245054   5.689   0.072  12.306  1.5696  1.6267 -0.3986
 7855TIP3   OH245055   2.707   1.959  17.042 -0.0562 -0.4704  0.2832
 7855TIP3    H145056   2.701   1.863  17.037  1.5120 -0.6049  0.4108
 7855TIP3    H245057   2.728   1.986  16.952  0.6646 -0.3635  0.4788
 7856TIP3   OH245058   5.999   0.890   1.653 -0.5620  0.1396 -0.5853
 7856TIP3    H145059   6.072   0.949   1.636 -0.1828 -0.6542 -1.8099
 7856TIP3    H245060   6.010   0.820   1.590 -1.6940 -0.6276  0.0440
 7857TIP3   OH245061   4.590   1.627   0.049 -0.2053  0.6938  0.1545
 7857TIP3    H145062   4.552   1.554   0.000 -1.4950  1.7976 -0.5868
 7857TIP3    H245063   4.684   1.617   0.037 -0.4525  1.0942 -2.9553
 7858TIP3   OH245064   2.126   6.658   4.399 -0.3741 -0.1715 -0.1775
 7858TIP3    H145065   2.161   6.732   4.350 -2.7336 -0.8000 -3.0699
 7858TIP3    H245066   2.164   6.667   4.486  2.0982  2.4562 -1.3782
 7859TIP3   OH245067   0.170   5.930  12.338  0.5662  0.2331 -0.4516
 7859TIP3    H145068   0.092   5.937  12.392  0.1040  1.1073 -1.2001
 7859TIP3    H245069   0.186   5.836  12.329 -0.9028  0.0198 -1.0078
 7860TIP3   OH245070   3.253   4.559   0.462  0.6452 -0.5491 -0.3841
 7860TIP3    H145071   3.169   4.604   0.470  0.1329 -1.1695 -1.8263
 7860TIP3    H245072   3.318   4.628   0.472 -0.1082  0.9056 -3.8013
 7861TIP3   OH245073   1.364   3.200   3.364 -0.1938  0.2923  0.0414
 7861TIP3    H145074   1.442   3.256   3.357 -0.0149  0.0113 -0.2319
 7861TIP3    H245075   1.321   3.229   3.445  0.3533  0.2472  0.3547
 7862TIP3   OH245076   3.730   1.588  14.172  0.5759 -0.2064 -0.0842
 7862TIP3    H145077   3.664   1.583  14.241  0.3640  2.5322  0.0100
 7862TIP3    H245078   3.721   1.505  14.124 -0.5299 -1.3680  2.0076
 7863TIP3   OH245079   3.489   2.702   1.032  0.0570 -0.3747 -0.2956
 7863TIP3    H145080   3.399   2.707   0.999 -0.3670 -0.4659  0.7834
 7863TIP3    H245081   3.543   2.686   0.955 -0.6522  1.4722 -1.2167
 7864TIP3   OH245082   1.396   3.591  13.006 -0.3129 -0.0500  0.1727
 7864TIP3    H145083   1.334   3.645  12.956  0.6916  2.0856  1.0988
 7864TIP3    H245084   1.481   3.614  12.970  0.0957 -1.8381 -0.0821
 7865TIP3   OH245085   1.628   3.577  15.283  0.8094  0.4857 -0.5006
 7865TIP3    H145086   1.625   3.497  15.336  1.2306  1.1694  0.5800
 7865TIP3    H245087   1.615   3.546  15.193  0.8729 -0.7855 -0.0961
 7866TIP3   OH245088   1.931   3.879  11.857 -0.2358  0.1336 -0.4040
 7866TIP3    H145089   1.989   3.956  11.864  4.3537 -3.0953  2.5766
 7866TIP3    H245090   1.847   3.910  11.890  1.2282  3.9562  0.3519
 7867TIP3   OH245091   6.383   2.807   2.384  0.7562  0.0610 -0.0700
 7867TIP3    H145092   6.333   2.815   2.303  0.5274  0.2494  0.0868
 7867TIP3    H245093   6.457   2.750   2.362  1.3166  1.0187 -0.6850
 7868TIP3   OH245094   4.931   4.269  13.097 -0.5332 -0.1992 -0.2800
 7868TIP3    H145095   4.989   4.336  13.061  1.2998 -1.1373  0.7470
 7868TIP3    H245096   4.869   4.318  13.151 -0.6470  0.8258 -1.3020
 7869TIP3   OH245097   3.336   3.959   0.653 -0.9128 -0.0482  0.2769
 7869TIP3    H145098   3.315   4.013   0.576 -1.7680  2.2623  1.9917
 7869TIP3    H245099   3.421   3.991   0.682 -0.5456 -0.9802  0.2536
 7870TIP3   OH245100   4.846   1.795   1.186  0.4972 -0.0855 -0.5172
 7870TIP3    H145101   4.751   1.802   1.194  0.5781 -0.3949  1.2632
 7870TIP3    H245102   4.860   1.720   1.128 -0.2993  1.2518 -2.5538
 7871TIP3   OH245103   4.599   6.480   5.852 -0.0314  0.3019  0.0760
 7871TIP3    H145104   4.661   6.485   5.780  2.1865 -0.9576  1.7829
 7871TIP3    H245105   4.608   6.391   5.886 -1.4587  0.6570  1.5149
 7872TIP3   OH245106   4.903   0.612  11.413  0.3097 -0.1553 -0.3975
 7872TIP3    H145107   4.859   0.575  11.336  0.2111  1.4311 -1.1345
 7872TIP3    H245108   4.872   0.559  11.486 -1.5959 -0.0985 -1.1052
 7873TIP3   OH245109   4.920   1.321   3.017  0.3926  0.1204 -0.0088
 7873TIP3    H145110   4.912   1.409   2.982 -1.2167  0.0751  0.1555
 7873TIP3    H245111   4.953   1.268   2.945 -1.4694  0.3091 -1.0561
 7874TIP3   OH245112   0.027   4.492  13.321 -0.3511 -0.1191 -0.2684
 7874TIP3    H145113  -0.015   4.435  13.385 -0.2255  0.4688  0.3378
 7874TIP3    H245114  -0.032   4.566  13.310  0.1811  0.3679  0.0695
 7875TIP3   OH245115   0.676   6.028  14.317 -0.4056 -0.5060 -0.2398
 7875TIP3    H145116   0.638   6.006  14.402 -1.9154 -0.7384 -0.9421
 7875TIP3    H245117   0.659   5.951  14.263  2.6222 -1.3492 -0.1536
 7876TIP3   OH245118   0.962   2.861  16.279  0.2502  0.8702  0.3157
 7876TIP3    H145119   1.036   2.893  16.228 -1.0981  1.1573 -1.5384
 7876TIP3    H245120   0.885   2.895  16.235 -1.0609 -0.5505  1.3844
 7877TIP3   OH245121   4.291   3.361  12.983  0.2483 -0.1739  0.0596
 7877TIP3    H145122   4.335   3.310  13.051  1.4391 -0.6082 -0.9793
 7877TIP3    H245123   4.346   3.348  12.905  0.3269  2.3060 -0.3869
 7878TIP3   OH245124   2.525   4.516   0.446 -0.3248  0.4620  0.2894
 7878TIP3    H145125   2.455   4.522   0.380  0.0534 -0.5999 -0.2330
 7878TIP3    H245126   2.552   4.424   0.443 -0.1960  0.4326  1.8364
 7879TIP3   OH245127   1.048   2.490  12.061  0.5441 -0.0060  0.2911
 7879TIP3    H145128   1.046   2.452  11.973 -1.1487 -1.2375  0.8195
 7879TIP3    H245129   1.090   2.422  12.114  1.7982  0.8393  0.4181
 7880TIP3   OH245130   4.110   1.584   1.776 -0.7115 -0.7005 -0.2683
 7880TIP3    H145131   4.062   1.505   1.802  1.1640 -2.9322 -3.1172
 7880TIP3    H245132   4.051   1.628   1.715 -1.1707 -0.6094  0.2230
 7881TIP3   OH245133   3.999   4.836   3.597 -0.2450 -0.4747  0.0973
 7881TIP3    H145134   4.015   4.920   3.640 -0.4995  0.4626 -1.5911
 7881TIP3    H245135   4.035   4.846   3.509 -0.7273 -1.9664 -0.2981
 7882TIP3   OH245136   6.243   5.934  13.270 -0.1455  0.3930 -0.2869
 7882TIP3    H145137   6.289   5.998  13.215 -0.4459  0.9177  0.0631
 7882TIP3    H245138   6.289   5.852  13.254  0.7618  0.8541 -0.1368
 7883TIP3   OH245139   2.860   2.307   5.532  0.4862 -0.0859 -0.0266
 7883TIP3    H145140   2.896   2.262   5.609  0.0860  1.4096  1.1013
 7883TIP3    H245141   2.903   2.265   5.457  2.2002 -0.4637  1.0999
 7884TIP3   OH245142   5.436   0.793   1.175 -0.9953  0.1860 -0.0854
 7884TIP3    H145143   5.493   0.735   1.125 -0.5947  1.3522 -1.0383
 7884TIP3    H245144   5.423   0.748   1.258 -0.1689 -0.9488 -0.5429
 7885TIP3   OH245145   5.632   1.041   4.089 -0.7495  0.6383  0.5659
 7885TIP3    H145146   5.559   1.030   4.150  0.7619  0.5421  2.4435
 7885TIP3    H245147   5.649   0.953   4.056  0.3929  0.1095  2.4420
 7886TIP3   OH245148   1.128   1.219  16.246  0.4249 -0.4942 -0.0708
 7886TIP3    H145149   1.123   1.260  16.333  1.1946 -1.0223  0.2359
 7886TIP3    H245150   1.221   1.202  16.233  0.3246 -0.3448 -1.0450
 7887TIP3   OH245151   4.573   4.512  11.730  0.4297 -0.0908  0.5173
 7887TIP3    H145152   4.641   4.446  11.716  0.8726  0.2187  1.1370
 7887TIP3    H245153   4.601   4.587  11.677 -1.4929 -1.2688 -2.4823
 7888TIP3   OH245154   3.703   5.428   1.677  0.8804 -0.6200 -0.4039
 7888TIP3    H145155   3.687   5.455   1.587  1.1906  0.7451 -0.0721
 7888TIP3    H245156   3.788   5.384   1.673  0.3004 -1.7093 -0.9831
 7889TIP3   OH245157   5.333   6.226   6.193  0.0986  0.5450 -0.0631
 7889TIP3    H145158   5.331   6.163   6.121 -3.6315 -0.5286  0.7709
 7889TIP3    H245159   5.410   6.200   6.245  0.1374 -1.6915 -1.1105
 7890TIP3   OH245160   4.008   0.547   3.241  0.2660 -0.7689  0.2939
 7890TIP3    H145161   4.072   0.565   3.311  0.1986 -0.6065  0.3132
 7890TIP3    H245162   4.007   0.626   3.188 -0.3185 -0.5704  0.6041
 7891TIP3   OH245163   3.931   1.248  11.200  0.1356  0.0552 -0.1141
 7891TIP3    H145164   3.870   1.270  11.129  0.4588 -0.4949 -0.5740
 7891TIP3    H245165   3.886   1.277  11.280  0.5178  2.3044 -0.6636
 7892TIP3   OH245166   4.462   6.447  12.922 -0.4579  0.4657 -0.2090
 7892TIP3    H145167   4.555   6.464  12.928 -0.6479  0.9035  2.0501
 7892TIP3    H245168   4.425   6.526  12.883  0.1659 -0.0662 -1.9876
 7893TIP3   OH245169   2.385   3.297   2.158 -0.9371 -0.0609  0.4360
 7893TIP3    H145170   2.417   3.219   2.113  1.2295  0.1568  1.4840
 7893TIP3    H245171   2.382   3.365   2.090 -1.1927 -0.6091 -0.1113
 7894TIP3   OH245172   5.336   3.541   3.303 -0.2371  0.0270  0.5185
 7894TIP3    H145173   5.280   3.575   3.373  0.1370 -0.4914  1.0744
 7894TIP3    H245174   5.394   3.615   3.282 -1.5320  0.7952 -0.5275
 7895TIP3   OH245175   2.540   3.876   4.009 -0.9035 -0.1374 -0.1020
 7895TIP3    H145176   2.588   3.817   3.950 -0.9877  1.2132 -1.5827
 7895TIP3    H245177   2.450   3.844   4.007 -0.7837 -0.4723 -0.2073
 7896TIP3   OH245178   0.995   6.130  15.992  0.5700  0.2751 -0.1340
 7896TIP3    H145179   0.979   6.220  15.962  2.4733  0.2194 -1.4822
 7896TIP3    H245180   1.091   6.123  15.997  0.4757 -1.8308 -0.5359
 7897TIP3   OH245181   6.023   1.052  13.376  0.0222  0.2232 -0.0482
 7897TIP3    H145182   5.950   1.002  13.339  0.4641 -0.7181  0.3331
 7897TIP3    H245183   6.064   1.093  13.301  1.5038 -2.4266 -0.8179
 7898TIP3   OH245184   5.004   0.273   5.466 -0.7333 -0.3776  0.2512
 7898TIP3    H145185   5.039   0.338   5.404 -0.1967 -1.6053 -0.7881
 7898TIP3    H245186   4.931   0.317   5.508  0.6823  1.4950  0.8524
 7899TIP3   OH245187   2.207   0.579   2.373  0.1558 -0.0405  0.1567
 7899TIP3    H145188   2.228   0.508   2.435  0.7263  0.3724  0.4418
 7899TIP3    H245189   2.149   0.637   2.423 -1.1695 -0.8266 -0.4106
 7900TIP3   OH245190   2.070   4.976   0.743 -0.1851  0.1087 -0.3494
 7900TIP3    H145191   2.090   4.890   0.778  1.1701  0.5262 -0.0500
 7900TIP3    H245192   1.974   4.984   0.750 -0.3853 -1.5670 -0.8819
 7901TIP3   OH245193   1.457   1.306  12.601  0.2985 -0.3966  0.7587
 7901TIP3    H145194   1.452   1.215  12.629  3.0776 -1.0554 -0.5052
 7901TIP3    H245195   1.551   1.327  12.605  0.1618  1.2938 -2.1692
 7902TIP3   OH245196   5.677   2.635   4.100 -0.3874  0.1085  0.5535
 7902TIP3    H145197   5.773   2.628   4.093 -0.4114 -1.1626  1.1392
 7902TIP3    H245198   5.645   2.601   4.016 -0.3534 -2.2702  1.4148
 7903TIP3   OH245199   6.331   5.947  12.862 -0.0269 -0.2731  0.3761
 7903TIP3    H145200   6.338   5.855  12.887  0.6248 -0.3079  0.0936
 7903TIP3    H245201   6.237   5.964  12.859 -0.2718 -1.5681 -1.7523
 7904TIP3   OH245202   3.469   5.062   6.668  0.2511  0.2075  0.0861
 7904TIP3    H145203   3.515   4.979   6.678  0.7928  0.2654 -1.5973
 7904TIP3    H245204   3.376   5.039   6.676  0.3259 -0.7688 -1.3577
 7905TIP3   OH245205   6.327   5.959   2.275 -0.4797  0.6009 -0.0230
 7905TIP3    H145206   6.388   6.027   2.306  0.6517 -0.4963  0.2193
 7905TIP3    H245207   6.369   5.923   2.197 -0.9946  0.0622 -0.0573
 7906TIP3   OH245208   1.085   2.451  12.684  0.1322  0.2432  0.4834
 7906TIP3    H145209   1.150   2.418  12.622 -0.3092  0.0217  0.1351
 7906TIP3    H245210   1.135   2.469  12.764  0.3604 -1.4734  0.7630
 7907TIP3   OH245211   1.982   2.718   4.978  0.1351  0.3180 -0.6269
 7907TIP3    H145212   2.026   2.734   5.062 -0.2547 -2.0673  0.0901
 7907TIP3    H245213   2.011   2.790   4.922  0.5327  1.8976  1.4838
 7908TIP3   OH245214   1.063   5.658   3.991 -0.5168 -0.7360 -0.1433
 7908TIP3    H145215   1.010   5.599   4.045  0.8811 -1.4861  0.4636
 7908TIP3    H245216   1.131   5.690   4.050 -0.1025 -0.0353 -0.9784
 7909TIP3   OH245217   2.944   6.208   0.930 -0.2726  0.3512 -0.6525
 7909TIP3    H145218   2.919   6.276   0.992 -1.3873  0.3954 -1.1207
 7909TIP3    H245219   2.883   6.220   0.857 -1.6744 -2.2427 -0.0114
 7910TIP3   OH245220   3.604   3.012  15.438  0.2481 -0.4542 -0.1367
 7910TIP3    H145221   3.539   3.077  15.412  1.5695  1.6033  1.4283
 7910TIP3    H245222   3.688   3.054  15.424  1.1275 -1.1520  2.4495
 7911TIP3   OH245223   4.110   4.273  15.931  0.1408  0.3848  0.2588
 7911TIP3    H145224   4.142   4.186  15.907  0.7412  0.9406 -1.0467
 7911TIP3    H245225   4.022   4.277  15.895  0.2690  0.4586 -0.0529
 7912TIP3   OH245226   6.078   4.788   0.776 -0.0951  0.1104  0.0091
 7912TIP3    H145227   6.136   4.712   0.782  0.0265  0.0681 -1.4424
 7912TIP3    H245228   6.134   4.860   0.748 -0.1555  0.8510  1.6172
 7913TIP3   OH245229   5.029   6.731   4.667 -0.2497 -0.3808  0.5296
 7913TIP3    H145230   4.955   6.690   4.712  0.5217 -0.8836  1.3498
 7913TIP3    H245231   5.014   6.712   4.574 -0.8775 -0.9161  0.7357
 7914TIP3   OH245232   5.433   5.215   4.390  0.3131  0.3803  0.8831
 7914TIP3    H145233   5.427   5.163   4.470  0.1772 -0.0524  0.6010
 7914TIP3    H245234   5.417   5.151   4.320  0.1281  0.8116  0.5306
 7915TIP3   OH245235   2.036   5.693  12.124  0.2269  0.3794 -0.3072
 7915TIP3    H145236   1.956   5.718  12.170  0.7715  0.4403  0.6378
 7915TIP3    H245237   2.106   5.728  12.178  0.8961  0.2058 -1.0528
 7916TIP3   OH245238   5.672   6.218   3.025 -0.0753  0.4200  0.5362
 7916TIP3    H145239   5.605   6.149   3.027 -0.0967  0.2570 -2.1344
 7916TIP3    H245240   5.754   6.171   3.011  0.0646  0.8611 -0.1504
 7917TIP3   OH245241   6.420   0.561  13.405 -0.0271 -0.3336 -0.3560
 7917TIP3    H145242   6.414   0.625  13.334 -1.0814 -0.5438 -0.4647
 7917TIP3    H245243   6.512   0.563  13.430  0.2144  0.2776 -1.2319
 7918TIP3   OH245244   1.022   0.743  12.776  0.2208  0.6228  0.4203
 7918TIP3    H145245   1.040   0.649  12.785 -1.5530  0.3416  1.7318
 7918TIP3    H245246   1.007   0.773  12.866 -0.8350  1.7914 -0.1104
 7919TIP3   OH245247   1.155   4.816   0.789  0.6149  0.1812  0.0974
 7919TIP3    H145248   1.139   4.864   0.707 -3.6529 -1.6873 -0.4285
 7919TIP3    H245249   1.129   4.878   0.858  2.0133  0.9509 -0.0164
 7920TIP3   OH245250   2.651   6.669   4.696 -0.3918 -0.0565  0.5324
 7920TIP3    H145251   2.560   6.685   4.673  0.0274  4.2721  1.0521
 7920TIP3    H245252   2.659   6.697   4.787  1.7656  1.4358 -0.0293
 7921TIP3   OH245253   3.104   3.494   1.365 -0.1638 -0.3144  0.1754
 7921TIP3    H145254   3.199   3.485   1.371  0.1299  0.0393 -2.5723
 7921TIP3    H245255   3.086   3.493   1.271 -3.0013 -1.3849  0.6323
 7922TIP3   OH245256   0.475   2.176   3.730  0.5078  0.0441 -0.1340
 7922TIP3    H145257   0.551   2.224   3.699  0.1376  0.9182  0.2902
 7922TIP3    H245258   0.499   2.145   3.817 -0.2082  1.7951  0.7382
 7923TIP3   OH245259   2.255   1.772   5.704 -0.3003  0.5046  0.1881
 7923TIP3    H145260   2.187   1.840   5.701 -0.6425  0.2384  1.4431
 7923TIP3    H245261   2.337   1.820   5.712 -0.2536  0.8525 -1.8715
 7924TIP3   OH245262   0.264   2.111   3.520  0.9253  0.1878 -0.0906
 7924TIP3    H145263   0.194   2.118   3.584  1.3273 -1.7845  0.6172
 7924TIP3    H245264   0.344   2.119   3.572  1.2545 -1.3670 -0.3250
 7925TIP3   OH245265   5.517   1.867  13.333  0.1369 -0.3078 -0.2263
 7925TIP3    H145266   5.510   1.772  13.324  0.1152 -0.2714 -0.5819
 7925TIP3    H245267   5.503   1.883  13.427 -0.4409 -0.6022 -0.2600
 7926TIP3   OH245268   3.523   1.358  14.324 -0.2821 -0.2783 -0.3918
 7926TIP3    H145269   3.545   1.302  14.250 -0.2798 -0.4548 -0.2576
 7926TIP3    H245270   3.604   1.365  14.374  0.2899  1.5021 -1.4784
 7927TIP3   OH245271   2.981   6.128   2.461 -0.0183 -0.3206 -0.2041
 7927TIP3    H145272   3.045   6.085   2.519 -0.1157 -1.2420 -0.7564
 7927TIP3    H245273   3.032   6.157   2.386  0.3907  2.2257  0.9445
 7928TIP3   OH245274   3.398   2.471   4.450  0.1926 -0.7796 -0.2213
 7928TIP3    H145275   3.334   2.542   4.443  0.9386  0.2736  2.3906
 7928TIP3    H245276   3.475   2.505   4.405  0.2343 -0.3154  0.1892
 7929TIP3   OH245277   6.765   1.805   5.586  0.4288  0.7833  0.1025
 7929TIP3    H145278   6.711   1.731   5.559  0.3604  1.9178 -3.3065
 7929TIP3    H245279   6.711   1.882   5.569  1.9885  1.8015 -0.4677
 7930TIP3   OH245280   4.636   2.298  12.227  0.2417 -0.1160  0.2242
 7930TIP3    H145281   4.619   2.294  12.133  1.1910  1.1168 -0.0325
 7930TIP3    H245282   4.664   2.389  12.242  2.3747 -0.8679  1.2824
 7931TIP3   OH245283   4.482   2.964   1.103  0.1819 -0.0295 -0.1974
 7931TIP3    H145284   4.423   3.038   1.116  0.0253  0.1191 -1.6517
 7931TIP3    H245285   4.551   2.977   1.169 -1.0457  0.1262  1.1164
 7932TIP3   OH245286   0.772   3.026   2.771 -0.0096  0.2721  0.1259
 7932TIP3    H145287   0.718   3.096   2.733 -1.2705 -0.5284  0.3686
 7932TIP3    H245288   0.777   3.048   2.864 -0.9576 -0.2766  0.3218
 7933TIP3   OH245289   6.367   4.352   3.751 -0.2412 -0.4627  0.5248
 7933TIP3    H145290   6.416   4.286   3.701  0.0851 -0.3718  0.7196
 7933TIP3    H245291   6.276   4.338   3.726 -0.1227 -0.6784  0.2055
 7934TIP3   OH245292   2.027   3.425   1.562 -0.2965 -0.4777  0.0326
 7934TIP3    H145293   2.051   3.332   1.563 -0.7329 -0.5936 -0.1067
 7934TIP3    H245294   2.094   3.467   1.508  0.0135 -0.6790  0.2572
 7935TIP3   OH245295   3.071   6.794  11.102  0.4701 -0.1371  0.0865
 7935TIP3    H145296   3.024   6.716  11.134 -1.2277  0.2009 -1.4184
 7935TIP3    H245297   3.038   6.806  11.013  1.5406  1.6781 -0.0988
 7936TIP3   OH245298   1.838   5.401  13.400  0.2097 -0.4232 -0.6146
 7936TIP3    H145299   1.836   5.496  13.399  0.0008 -0.4168  0.0768
 7936TIP3    H245300   1.911   5.379  13.458  0.5650 -0.6879 -1.1503
 7937TIP3   OH245301   3.484   4.082  12.008 -0.4235 -0.0864  0.1210
 7937TIP3    H145302   3.443   3.998  11.987  0.8054 -0.7543  0.3312
 7937TIP3    H245303   3.540   4.102  11.933 -2.0697  1.4878 -0.7733
 7938TIP3   OH245304   2.856   5.149   0.398  0.1904  0.2045  0.2835
 7938TIP3    H145305   2.797   5.079   0.423 -0.8369  1.1676  0.6422
 7938TIP3    H245306   2.864   5.141   0.303 -1.8779  1.0393 -0.0212
 7939TIP3   OH245307   0.627   4.612  13.340 -0.1765  0.6639 -0.0514
 7939TIP3    H145308   0.577   4.532  13.329 -0.7278  0.6986  1.9146
 7939TIP3    H245309   0.711   4.583  13.377 -0.4978  0.9855  0.9690
 7940TIP3   OH245310   4.362   0.597   3.866  0.0649 -0.2420 -0.2559
 7940TIP3    H145311   4.315   0.671   3.829  1.3451  0.3767 -0.7066
 7940TIP3    H245312   4.344   0.601   3.960 -0.4268  0.2183 -0.3657
 7941TIP3   OH245313   2.850   4.829  12.860 -0.7278  0.1150  0.1077
 7941TIP3    H145314   2.929   4.882  12.846 -1.1279  1.1800  1.6336
 7941TIP3    H245315   2.844   4.773  12.782  2.4455 -1.2105  0.6703
 7942TIP3   OH245316   0.591   5.753  15.860  0.0680 -0.5397 -0.5347
 7942TIP3    H145317   0.582   5.824  15.924  1.6204 -1.5479  0.8875
 7942TIP3    H245318   0.536   5.780  15.786 -0.6764  1.3393  0.6357
 7943TIP3   OH245319   1.529   1.277  14.548  0.0346 -0.9903  0.0084
 7943TIP3    H145320   1.442   1.286  14.509  0.1612 -1.7086 -0.4603
 7943TIP3    H245321   1.546   1.183  14.547  1.9178 -0.7353 -2.4391
 7944TIP3   OH245322   6.637   4.353  11.960  0.7330 -0.0849  0.7327
 7944TIP3    H145323   6.593   4.271  11.939 -0.0963  0.5330 -0.0021
 7944TIP3    H245324   6.715   4.353  11.905 -1.0410  1.1835 -2.0162
 7945TIP3   OH245325   5.792   1.930  13.302  0.5467  0.8262 -0.0780
 7945TIP3    H145326   5.704   1.893  13.291  0.4018  0.7452  1.2318
 7945TIP3    H245327   5.834   1.914  13.217 -0.0318 -0.9557 -0.0906
 7946TIP3   OH245328   3.997   3.743   0.940  0.1239 -0.1952 -0.1583
 7946TIP3    H145329   4.063   3.675   0.926 -0.4281 -0.6413 -0.6575
 7946TIP3    H245330   3.915   3.695   0.955  0.1806  0.3173  2.1121
 7947TIP3   OH245331   6.335   4.763  13.600 -0.2965 -0.0503 -0.1454
 7947TIP3    H145332   6.317   4.802  13.685  1.5732  0.5670  0.0214
 7947TIP3    H245333   6.249   4.748  13.561 -1.2484 -1.5969  2.3620
 7948TIP3   OH245334   4.022   1.796   2.447 -1.3270  0.2863 -0.6258
 7948TIP3    H145335   4.044   1.704   2.463 -1.6926  0.1797 -0.7192
 7948TIP3    H245336   3.965   1.820   2.521  1.7709  1.5754  1.5791
 7949TIP3   OH245337   2.848   6.262  11.355 -0.3900 -0.2116  0.9666
 7949TIP3    H145338   2.849   6.280  11.450  0.3861 -0.8324  1.0849
 7949TIP3    H245339   2.937   6.283  11.326 -0.2726 -1.1683  0.5996
 7950TIP3   OH245340   2.160   0.431   0.558 -0.0935  0.4958  0.0905
 7950TIP3    H145341   2.074   0.396   0.581  0.6195 -1.1636  0.4667
 7950TIP3    H245342   2.171   0.507   0.615 -1.2158  0.6134  0.1751
 7951TIP3   OH245343   5.762   3.239   2.782  0.3503  0.6471  0.6293
 7951TIP3    H145344   5.850   3.250   2.747 -0.1060  1.4635 -0.3017
 7951TIP3    H245345   5.759   3.148   2.813  0.8584 -0.0407 -1.2382
 7952TIP3   OH245346   0.602   4.865  12.936 -0.1222  0.3076 -0.3202
 7952TIP3    H145347   0.648   4.784  12.914 -0.9316 -0.0912 -0.5466
 7952TIP3    H245348   0.617   4.877  13.030 -1.4922 -1.0582  0.0965
 7953TIP3   OH245349   3.349   1.221   1.640 -0.7942 -0.4360 -0.0602
 7953TIP3    H145350   3.317   1.182   1.721 -0.7740  0.9576  0.6413
 7953TIP3    H245351   3.425   1.273   1.666 -0.9202  0.2168 -0.9323
 7954TIP3   OH245352   0.394   0.641  10.398  0.3233 -0.1977  0.1286
 7954TIP3    H145353   0.306   0.659  10.432  1.3686  1.6686  2.0892
 7954TIP3    H245354   0.381   0.572  10.333 -2.7112  0.6735 -0.3383
 7955TIP3   OH245355   5.809   1.338  17.143  0.5073  0.4881 -0.2173
 7955TIP3    H145356   5.814   1.392  17.064 -1.3600  1.8554  0.5158
 7955TIP3    H245357   5.868   1.264  17.126 -0.5824  0.1864 -3.3233
 7956TIP3   OH245358   3.753   4.810  14.209  0.2933 -0.2155  0.4139
 7956TIP3    H145359   3.704   4.859  14.275  0.6415  1.5009 -0.5569
 7956TIP3    H245360   3.697   4.811  14.132 -0.0761 -2.1416  0.6021
 7957TIP3   OH245361   4.699   5.323  16.880  0.2968  0.1192 -0.1951
 7957TIP3    H145362   4.623   5.270  16.856  0.1105  0.7092 -0.9248
 7957TIP3    H245363   4.676   5.412  16.854  0.1987  0.7697  1.9049
 7958TIP3   OH245364   3.225   3.619  12.668  0.6056  0.0601  0.9201
 7958TIP3    H145365   3.237   3.663  12.583 -0.8988  1.8568  1.5725
 7958TIP3    H245366   3.302   3.643  12.718 -0.0152  1.7481  1.1354
 7959TIP3   OH245367   1.943   4.548   3.104 -0.0644  0.1694  0.2163
 7959TIP3    H145368   1.905   4.591   3.180 -0.7338 -0.9876  0.5603
 7959TIP3    H245369   2.027   4.513   3.136 -0.0321  0.2732  0.2434
 7960TIP3   OH245370   3.938   1.348   1.812 -0.2457 -0.0001 -0.2699
 7960TIP3    H145371   3.868   1.378   1.869 -0.6337 -1.0927 -0.1563
 7960TIP3    H245372   3.894   1.295   1.745  0.3838 -0.0593 -0.6482
 7961TIP3   OH245373   4.739   2.714  10.483  0.2688 -0.0197  0.0525
 7961TIP3    H145374   4.753   2.800  10.523 -1.2103 -0.9870  2.9589
 7961TIP3    H245375   4.646   2.714  10.458 -0.2449 -1.3194  1.7696
 7962TIP3   OH245376   2.302   2.148  15.527  0.1192  0.0637 -0.2692
 7962TIP3    H145377   2.397   2.149  15.535  0.1591 -2.2479  0.5810
 7962TIP3    H245378   2.283   2.064  15.486 -1.6053 -0.4234  1.3454
 7963TIP3   OH245379   3.261   6.144   2.947 -0.1792  0.3909  0.0466
 7963TIP3    H145380   3.328   6.151   3.014  1.9420  0.6048 -1.9869
 7963TIP3    H245381   3.285   6.209   2.881 -1.4576 -0.6176 -1.5057
 7964TIP3   OH245382   0.574   4.979  12.363 -0.0066 -0.0119 -0.6206
 7964TIP3    H145383   0.528   5.058  12.333  0.8047  0.4132 -0.7622
 7964TIP3    H245384   0.623   4.949  12.287  1.4720  0.6466  0.0201
 7965TIP3   OH245385   4.460   0.391  14.285 -0.3061  0.4500 -0.4895
 7965TIP3    H145386   4.467   0.377  14.380  0.8223  1.4054 -0.4102
 7965TIP3    H245387   4.384   0.447  14.275 -0.7344 -0.0706 -0.1961
 7966TIP3   OH245388   6.332   0.720  14.594 -0.2221 -0.0932 -0.8402
 7966TIP3    H145389   6.293   0.689  14.512 -2.4099 -1.1555  0.5139
 7966TIP3    H245390   6.307   0.812  14.599 -0.3111 -0.0930 -1.2165
 7967TIP3   OH245391   4.375   0.489  10.733  0.2434 -0.0957  0.0810
 7967TIP3    H145392   4.447   0.429  10.755  0.8954  0.5072 -0.3505
 7967TIP3    H245393   4.342   0.457  10.650  1.4968  0.9080 -0.8509
 7968TIP3   OH245394   4.706   1.583  16.502 -0.8045 -0.7129  0.7764
 7968TIP3    H145395   4.700   1.629  16.419  0.4553 -1.6685  0.1314
 7968TIP3    H245396   4.626   1.530  16.506 -1.8817  0.8697  1.1691
 7969TIP3   OH245397   0.966   3.197  12.618 -0.6531  0.1998  0.3370
 7969TIP3    H145398   0.997   3.180  12.706 -1.2075  0.7212  0.6406
 7969TIP3    H245399   0.962   3.293  12.612  1.3943  0.2686 -0.9633
 7970TIP3   OH245400   0.277   4.606   4.769 -0.0748  0.7693 -0.0158
 7970TIP3    H145401   0.232   4.571   4.846  2.3365 -1.0620  0.6922
 7970TIP3    H245402   0.364   4.632   4.802  0.9631  0.0584 -2.0505
 7971TIP3   OH245403   4.822   1.972   6.617 -0.6186 -0.1925 -0.5451
 7971TIP3    H145404   4.816   1.879   6.595  0.3643 -0.7634  1.3612
 7971TIP3    H245405   4.890   2.006   6.558  0.0282 -1.0179 -0.3016
 7972TIP3   OH245406   6.471   6.444  12.605 -0.1679  0.1224  0.1770
 7972TIP3    H145407   6.510   6.406  12.526 -0.3426 -0.8994  0.5646
 7972TIP3    H245408   6.544   6.480  12.654  0.2248 -1.1604  0.5664
 7973TIP3   OH245409   0.855   6.174   3.475 -0.2698 -0.0091 -0.2854
 7973TIP3    H145410   0.799   6.181   3.553  0.4377 -0.0417  0.2388
 7973TIP3    H245411   0.793   6.172   3.402 -0.9092  1.2098  0.1877
 7974TIP3   OH245412   2.220   0.655   3.504 -0.4438  0.5080  0.0939
 7974TIP3    H145413   2.277   0.730   3.487 -0.1100  0.0752 -0.8111
 7974TIP3    H245414   2.275   0.579   3.485 -1.3344  0.0818 -0.9065
 7975TIP3   OH245415   2.439   1.129  15.090  0.5867 -0.0049  0.0801
 7975TIP3    H145416   2.354   1.119  15.047  0.9776 -1.9505 -0.3082
 7975TIP3    H245417   2.425   1.094  15.178  0.9541 -0.1653  0.0742
 7976TIP3   OH245418   5.834   2.127   2.178 -0.1904  0.9091  0.1345
 7976TIP3    H145419   5.819   2.049   2.231  0.4000  0.4493 -0.3678
 7976TIP3    H245420   5.761   2.127   2.115 -0.7903  1.3586  0.8060
 7977TIP3   OH245421   0.409   2.377   1.443 -0.2713  0.2358 -0.1320
 7977TIP3    H145422   0.496   2.404   1.415 -1.1026  2.9024 -0.4176
 7977TIP3    H245423   0.351   2.447   1.413 -2.1830 -0.1861  2.2417
 7978TIP3   OH245424   4.651   4.616  14.135  0.0213 -0.0065  0.3708
 7978TIP3    H145425   4.594   4.579  14.203 -0.3459  0.0982  0.1184
 7978TIP3    H245426   4.713   4.670  14.183 -0.4692  0.3639  0.5929
 7979TIP3   OH245427   5.298   3.513  13.373  0.1363  0.2602 -0.2228
 7979TIP3    H145428   5.386   3.535  13.343 -0.7814  2.5597 -1.5404
 7979TIP3    H245429   5.252   3.483  13.295 -0.4196 -0.3048  0.3096
 7980TIP3   OH245430   4.537   5.778  11.515  0.7661  0.0675 -0.1771
 7980TIP3    H145431   4.566   5.695  11.552  0.1851  0.4876  1.2737
 7980TIP3    H245432   4.568   5.845  11.576  1.4109  0.9586 -1.4258
 7981TIP3   OH245433   6.594   1.627   2.937  0.7858 -0.0758 -0.0078
 7981TIP3    H145434   6.659   1.556   2.932  1.5125  0.4200  1.7411
 7981TIP3    H245435   6.523   1.589   2.988  0.7339  0.1303  0.0707
 7982TIP3   OH245436   5.420   2.957   3.790 -0.0965  0.0624 -0.1583
 7982TIP3    H145437   5.371   2.886   3.832 -0.3199  1.3313  1.8606
 7982TIP3    H245438   5.503   2.917   3.764 -1.0549 -1.4426 -1.0890
 7983TIP3   OH245439   0.094   5.921  13.180  0.4363 -0.6091 -0.0653
 7983TIP3    H145440  -0.001   5.916  13.187  0.2397  2.4516  1.4740
 7983TIP3    H245441   0.111   5.930  13.086 -0.9064 -0.1123 -0.2762
 7984TIP3   OH245442   6.518   2.580  13.008 -0.1938 -0.3068  0.3539
 7984TIP3    H145443   6.452   2.645  13.033  0.4580  0.5989 -0.1827
 7984TIP3    H245444   6.555   2.550  13.090  0.7496  1.3609  0.5760
 7985TIP3   OH245445   3.121   1.957   1.139 -0.2743  0.1618  0.7189
 7985TIP3    H145446   3.212   1.950   1.111  0.1001 -0.1855  1.9372
 7985TIP3    H245447   3.074   1.891   1.088  0.6114 -1.3533  1.7734
 7986TIP3   OH245448   1.716   5.805   1.502  0.0436  0.5851 -0.3537
 7986TIP3    H145449   1.697   5.776   1.412 -1.5053 -1.5464  0.5796
 7986TIP3    H245450   1.670   5.889   1.509 -2.7531 -0.8047 -0.6008
 7987TIP3   OH245451   5.567   1.286   1.204 -0.7285 -0.0029  0.0243
 7987TIP3    H145452   5.514   1.359   1.173 -0.6835  0.8402  1.8402
 7987TIP3    H245453   5.511   1.238   1.264 -0.3498 -0.7766 -0.2165
 7988TIP3   OH245454   2.318   2.760   3.755 -0.1222  0.2286 -0.5327
 7988TIP3    H145455   2.304   2.841   3.705 -0.1331  0.1646 -0.6348
 7988TIP3    H245456   2.238   2.709   3.739  0.1313 -0.0531 -0.9486
 7989TIP3   OH245457   4.037   5.759   4.188  0.2069  0.7627  0.2280
 7989TIP3    H145458   3.961   5.817   4.189  0.5449  1.3066 -1.5772
 7989TIP3    H245459   4.109   5.812   4.221 -0.0353  0.4652  1.2669
 7990TIP3   OH245460   3.808   0.517  12.745  0.5009  0.1690 -0.3289
 7990TIP3    H145461   3.742   0.451  12.765  0.8016  0.2593  1.0007
 7990TIP3    H245462   3.781   0.595  12.794  0.9472  0.5804 -0.7154
 7991TIP3   OH245463   3.302   4.803   4.353  0.3452 -0.2341  0.1845
 7991TIP3    H145464   3.357   4.879   4.370 -1.4722  0.7454  2.1432
 7991TIP3    H245465   3.333   4.736   4.414  0.5554 -0.3430 -0.0380
 7992TIP3   OH245466   2.479   4.661  11.593 -0.0061 -0.2855 -0.1986
 7992TIP3    H145467   2.528   4.742  11.577 -0.6537  0.3544  0.9897
 7992TIP3    H245468   2.442   4.672  11.680  0.1802 -2.0161  0.1234
 7993TIP3   OH245469   3.314   5.687  13.890 -0.1196  0.2806  0.1024
 7993TIP3    H145470   3.269   5.699  13.806 -0.3093  2.3447  0.4571
 7993TIP3    H245471   3.399   5.651  13.866 -0.2702  0.5813 -0.9601
 7994TIP3   OH245472   6.749   3.022  11.854 -0.2236 -0.1547  0.6039
 7994TIP3    H145473   6.749   3.066  11.939 -0.7433 -1.4846  1.3330
 7994TIP3    H245474   6.739   2.929  11.876 -0.6671 -0.4944 -0.9332
 7995TIP3   OH245475   6.610   0.611   4.743  0.4274  0.0701  0.4341
 7995TIP3    H145476   6.658   0.528   4.748  0.0113 -0.2343 -0.4825
 7995TIP3    H245477   6.518   0.586   4.746  0.2081  0.2340 -2.4797
 7996TIP3   OH245478   3.855   0.259  15.551 -0.6539 -0.2120 -0.3834
 7996TIP3    H145479   3.942   0.292  15.528 -0.9223  0.5122 -0.3845
 7996TIP3    H245480   3.872   0.175  15.592  0.0290 -0.2303 -0.6784
 7997TIP3   OH245481   5.831   6.815   0.470 -0.3411 -0.1715  0.5095
 7997TIP3    H145482   5.779   6.749   0.425 -2.2375  1.0669  0.7508
 7997TIP3    H245483   5.915   6.773   0.487 -1.6038 -2.6722  1.0455
 7998TIP3   OH245484   0.379   0.251   2.467  0.1959  0.4471  0.7996
 7998TIP3    H145485   0.447   0.196   2.429 -1.1333 -1.4612  1.0126
 7998TIP3    H245486   0.319   0.269   2.395 -0.2067  0.2696  1.0863
 7999TIP3   OH245487   0.482   0.609   1.644 -0.0547  0.4271 -1.2279
 7999TIP3    H145488   0.421   0.558   1.591 -1.8026 -0.0211  1.0620
 7999TIP3    H245489   0.544   0.545   1.679 -0.3426  0.3455 -0.8607
 8000TIP3   OH245490   5.150   3.460  14.603  0.6117 -0.0659  0.5467
 8000TIP3    H145491   5.109   3.508  14.675  0.6529  0.4385  0.2470
 8000TIP3    H245492   5.176   3.529  14.541 -2.0461 -0.5680 -1.3629
 8001TIP3   OH245493   0.559   2.774  16.393 -0.3248 -0.3707  0.2267
 8001TIP3    H145494   0.472   2.797  16.427 -0.6617 -1.2820  0.0041
 8001TIP3    H245495   0.602   2.858  16.379 -1.6182  0.1454 -0.8298
 8002TIP3   OH245496   4.424   3.756   3.411  0.2329 -0.0640 -0.3129
 8002TIP3    H145497   4.373   3.678   3.390 -2.2616  1.5613 -0.6203
 8002TIP3    H245498   4.494   3.724   3.468 -1.4880 -2.3432  0.6585
 8003TIP3   OH245499   4.015   4.681   4.716 -0.3383 -0.0131 -0.0658
 8003TIP3    H145500   3.952   4.613   4.692  0.9930 -1.1820 -0.3824
 8003TIP3    H245501   4.014   4.742   4.642 -1.5452  0.3488  0.2215
 8004TIP3   OH245502   3.260   5.707  13.166  0.0499  0.5551  0.0830
 8004TIP3    H145503   3.335   5.718  13.107 -0.8520  1.3335 -0.9607
 8004TIP3    H245504   3.264   5.782  13.224  0.6385  0.0626  0.6998
 8005TIP3   OH245505   4.592   3.264  14.169  0.0292 -0.1717 -0.0876
 8005TIP3    H145506   4.667   3.206  14.179 -0.0865 -0.2246  0.4702
 8005TIP3    H245507   4.623   3.332  14.109  0.4389 -0.3325 -0.0654
 8006TIP3   OH245508   3.979   6.008   5.750  0.8756 -0.5693  0.8872
 8006TIP3    H145509   4.066   6.032   5.718 -0.3596 -0.1293 -2.5284
 8006TIP3    H245510   3.966   5.918   5.720  0.4793 -0.9666  2.1909
 8007TIP3   OH245511   5.475   2.069  13.131 -0.6154 -0.5386 -0.3256
 8007TIP3    H145512   5.497   2.003  13.197 -0.6671 -0.4763 -0.2454
 8007TIP3    H245513   5.385   2.048  13.106 -0.9107 -0.0272  0.2679
 8008TIP3   OH245514   1.741   0.980  15.441 -0.1616  0.2351 -0.2560
 8008TIP3    H145515   1.766   1.015  15.526  2.6852 -1.3380 -0.3306
 8008TIP3    H245516   1.653   1.015  15.426  0.7411  3.7309  1.5215
 8009TIP3   OH245517   5.950   1.567   0.830  0.4476  0.1349 -0.3791
 8009TIP3    H145518   5.899   1.490   0.855  0.2872 -0.1027 -1.3939
 8009TIP3    H245519   6.034   1.555   0.875 -0.1787  0.2579  0.8616
 8010TIP3   OH245520   6.407   6.231   3.656 -0.5388  0.0793 -0.1440
 8010TIP3    H145521   6.370   6.168   3.717  0.1044 -0.1276  0.0371
 8010TIP3    H245522   6.452   6.295   3.712  2.6572 -1.7149 -0.4199
 8011TIP3   OH245523   2.023   6.359  13.759 -0.1567 -0.1898  0.4256
 8011TIP3    H145524   2.012   6.427  13.693  0.6139 -1.0060 -0.5663
 8011TIP3    H245525   1.939   6.312  13.760 -0.7236  0.8144  1.1829
 8012TIP3   OH245526   5.093   5.104  10.729  0.1497  0.1138 -1.0001
 8012TIP3    H145527   5.050   5.035  10.679 -0.7852 -0.3199  0.3552
 8012TIP3    H245528   5.186   5.092  10.710 -0.1951  0.3383 -3.0588
 8013TIP3   OH245529   6.564   6.052  13.422  0.0277  0.1621 -0.0739
 8013TIP3    H145530   6.622   6.025  13.492 -0.7781 -0.4346  0.3702
 8013TIP3    H245531   6.492   6.098  13.466 -0.2813  0.1376 -0.5432
 8014TIP3   OH245532   6.061   5.397   5.106 -0.4965  0.0920  0.0535
 8014TIP3    H145533   6.090   5.423   5.193 -0.5028 -0.6387  0.2760
 8014TIP3    H245534   5.985   5.342   5.120  1.0851 -2.3033 -0.2271
 8015TIP3   OH245535   6.743   0.240   3.307  0.2985 -0.9533 -0.2708
 8015TIP3    H145536   6.662   0.252   3.258 -0.3622 -0.3532  0.9010
 8015TIP3    H245537   6.727   0.285   3.391  1.0837 -2.5725  0.8073
 8016TIP3   OH245538   4.863   0.806   4.844 -0.1578  0.5763 -0.6986
 8016TIP3    H145539   4.906   0.859   4.777 -0.9137 -0.0191 -1.7028
 8016TIP3    H245540   4.893   0.717   4.826  0.1841  0.5026  0.2168
 8017TIP3   OH245541   0.540   3.469   0.224  0.6608 -0.5475 -0.4322
 8017TIP3    H145542   0.568   3.402   0.286 -3.7199 -1.6123  0.6961
 8017TIP3    H245543   0.567   3.552   0.266  0.5940 -1.3730  1.3526
 8018TIP3   OH245544   4.770   2.285   0.373 -0.2443  0.3277 -0.2727
 8018TIP3    H145545   4.754   2.322   0.460  0.1461 -0.4883  0.1575
 8018TIP3    H245546   4.694   2.311   0.321 -0.1048  1.5040  0.0807
 8019TIP3   OH245547   2.742   3.709  17.203 -0.0725  0.7033  0.7561
 8019TIP3    H145548   2.795   3.772  17.156  0.3763 -0.2600 -0.0621
 8019TIP3    H245549   2.669   3.690  17.144 -0.0313  0.2212  0.8536
 8020TIP3   OH245550   1.017   0.439  12.161 -0.0129 -0.4727 -0.0236
 8020TIP3    H145551   1.014   0.534  12.174 -0.8081 -0.1308 -2.1476
 8020TIP3    H245552   0.928   0.409  12.181 -0.2934 -0.4433 -1.1363
 8021TIP3   OH245553   0.546   2.826  13.334 -0.0466 -0.3964  0.4183
 8021TIP3    H145554   0.590   2.822  13.419  3.0993 -0.3691 -1.0835
 8021TIP3    H245555   0.588   2.758  13.281 -2.3481 -0.8451 -0.9904
 8022TIP3   OH245556   1.772   2.762   3.156 -0.0142 -0.2667 -0.2250
 8022TIP3    H145557   1.708   2.737   3.089 -1.0923 -1.5139  1.2076
 8022TIP3    H245558   1.837   2.691   3.155 -1.2403 -1.4984  1.5094
 8023TIP3   OH245559   3.124   4.959  11.870  0.0072 -0.3991  0.4086
 8023TIP3    H145560   3.118   4.867  11.896  0.8227  0.0964  2.6665
 8023TIP3    H245561   3.216   4.970  11.844 -0.3434 -0.4385 -0.8884
 8024TIP3   OH245562   6.699   5.562   2.207  0.0395  0.6175  0.7639
 8024TIP3    H145563   6.779   5.578   2.157  0.0806  1.3178  1.0439
 8024TIP3    H245564   6.631   5.551   2.140 -0.2961  3.5089  0.4991
 8025TIP3   OH245565   4.442   6.372  14.787 -0.4771  0.1077  0.3589
 8025TIP3    H145566   4.493   6.438  14.741 -1.2056  0.1401 -0.4132
 8025TIP3    H245567   4.501   6.340  14.856 -0.2840  1.9231  1.0972
 8026TIP3   OH245568   3.858   0.463   0.644  0.4488  0.3054 -0.6050
 8026TIP3    H145569   3.865   0.442   0.737 -0.1371  0.8469 -0.4387
 8026TIP3    H245570   3.785   0.409   0.613  1.6797 -1.1267 -1.1260
 8027TIP3   OH245571   4.270   2.891   1.378 -0.2798  0.2168 -0.4725
 8027TIP3    H145572   4.264   2.914   1.471  0.6674 -0.8678 -0.1074
 8027TIP3    H245573   4.300   2.971   1.335  0.5919  0.3699  0.3770
 8028TIP3   OH245574   4.200   2.569   3.600  0.1610  0.5998  0.8734
 8028TIP3    H145575   4.119   2.525   3.628  0.5443 -0.4348  0.3946
 8028TIP3    H245576   4.182   2.663   3.614 -1.2201  0.4127  0.5191
 8029TIP3   OH245577   1.858   5.971  12.069 -0.1187 -0.6618  0.5483
 8029TIP3    H145578   1.952   5.972  12.086  0.1504  0.2728 -0.8442
 8029TIP3    H245579   1.850   5.920  11.988 -0.5631  1.0810 -0.5388
 8030TIP3   OH245580   2.968   5.117  15.264  0.1788  1.0921  0.2464
 8030TIP3    H145581   3.063   5.102  15.270 -0.1005 -0.6693  0.9618
 8030TIP3    H245582   2.950   5.184  15.329  0.6935  0.0683  1.4911
 8031TIP3   OH245583   1.717   1.129  15.190  0.2442 -0.7967  0.4945
 8031TIP3    H145584   1.797   1.155  15.234 -0.1598 -2.6094  2.4424
 8031TIP3    H245585   1.729   1.037  15.169 -1.7836 -1.5122  2.1075
 8032TIP3   OH245586   6.427   0.385   1.586 -0.3555 -0.2125 -0.3525
 8032TIP3    H145587   6.471   0.406   1.503 -0.8143 -0.3826 -0.6408
 8032TIP3    H245588   6.446   0.292   1.600  2.9067  0.5919  1.6568
 8033TIP3   OH245589   2.734   5.025  14.154 -0.0056 -0.0448 -0.1585
 8033TIP3    H145590   2.691   5.075  14.223  1.0329  0.7561 -0.0650
 8033TIP3    H245591   2.824   5.057  14.154  0.1137 -0.3140 -1.6214
 8034TIP3   OH245592   0.820   2.379  16.085 -0.8904 -0.3583 -0.0380
 8034TIP3    H145593   0.845   2.465  16.118 -0.9601 -0.8730  1.4634
 8034TIP3    H245594   0.889   2.321  16.117 -1.5158 -1.0493  0.0818
 8035TIP3   OH245595   1.205   4.153   1.354  0.0273  0.0293  0.2975
 8035TIP3    H145596   1.218   4.248   1.365  1.5135  0.0605 -1.2372
 8035TIP3    H245597   1.269   4.113   1.412  0.2644  0.0089  0.0276
 8036TIP3   OH245598   4.081   0.517  11.050  0.6480  0.4001 -0.2962
 8036TIP3    H145599   4.130   0.543  10.972  0.8011 -0.2283 -0.4140
 8036TIP3    H245600   3.989   0.520  11.024  0.6943  0.2870 -0.4726
 8037TIP3   OH245601   1.262   5.694   1.076 -0.1632 -0.4435  0.3545
 8037TIP3    H145602   1.255   5.733   0.989  0.2951  2.4207  1.4733
 8037TIP3    H245603   1.190   5.734   1.126  0.3722 -1.0052  1.6361
 8038TIP3   OH245604   1.612   3.174  16.204 -0.2276  0.0421  0.3539
 8038TIP3    H145605   1.530   3.212  16.236 -1.0305 -0.5881 -0.8599
 8038TIP3    H245606   1.595   3.156  16.111  0.7556 -1.5353  0.4441
 8039TIP3   OH245607   3.741   0.547   4.559  0.1142 -0.0150 -0.1840
 8039TIP3    H145608   3.797   0.568   4.633  0.8995  0.0392 -0.7763
 8039TIP3    H245609   3.730   0.631   4.513  0.3262 -0.2041 -0.5857
 8040TIP3   OH245610   4.179   2.313  14.143 -0.0934  0.2724  0.1656
 8040TIP3    H145611   4.231   2.326  14.222 -0.3366  0.1879  0.3396
 8040TIP3    H245612   4.098   2.273  14.173 -0.7435  1.4452  0.0487
 8041TIP3   OH245613   4.085   5.404   4.218  0.1677 -0.2041  0.7469
 8041TIP3    H145614   4.106   5.447   4.135  0.2585  1.0031  1.3668
 8041TIP3    H245615   4.004   5.358   4.201 -0.1708  0.5810  0.1525
 8042TIP3   OH245616   1.926   3.511  13.413  0.0867 -0.4804  0.0616
 8042TIP3    H145617   1.861   3.497  13.344  0.4143  0.6130 -0.4775
 8042TIP3    H245618   1.948   3.423  13.443 -1.6415 -0.8803  0.2559
 8043TIP3   OH245619   3.308   2.894   5.008 -0.0466 -0.0634 -0.0483
 8043TIP3    H145620   3.257   2.939   4.940  1.1015  0.4207 -0.6316
 8043TIP3    H245621   3.245   2.876   5.078 -1.2562 -0.5429 -1.2233
 8044TIP3   OH245622   1.622   5.971  16.685 -0.2941 -0.5093  0.0596
 8044TIP3    H145623   1.627   6.025  16.606  0.5437 -1.5305 -0.6155
 8044TIP3    H245624   1.584   5.889  16.655 -0.3474 -0.7632  0.8085
 8045TIP3   OH245625   4.006   2.825  16.146  0.6317  0.2977 -0.0032
 8045TIP3    H145626   4.046   2.765  16.208  2.3765  2.3764  1.0241
 8045TIP3    H245627   3.977   2.899  16.200 -1.1842  0.5419 -1.2388
 8046TIP3   OH245628   5.806   5.325   5.546  0.0089  0.1880 -0.1599
 8046TIP3    H145629   5.755   5.259   5.499  0.6904  0.4573 -1.2933
 8046TIP3    H245630   5.739   5.380   5.587 -0.6639  0.7745 -1.9503
 8047TIP3   OH245631   2.365   0.485  16.563  0.2952 -0.5460 -0.5421
 8047TIP3    H145632   2.451   0.527  16.562 -0.1371  0.3994 -2.3100
 8047TIP3    H245633   2.343   0.475  16.471 -0.8831 -2.0889 -0.1239
 8048TIP3   OH245634   1.287   5.873  13.518 -0.6653  0.0234  0.2789
 8048TIP3    H145635   1.294   5.888  13.424  2.8075 -1.1438  0.1890
 8048TIP3    H245636   1.198   5.840  13.531 -2.1859  2.7838 -2.0974
 8049TIP3   OH245637   4.129   6.157   3.556  0.3940 -0.0618  0.2530
 8049TIP3    H145638   4.042   6.119   3.547 -0.1841  1.5581 -1.5740
 8049TIP3    H245639   4.187   6.081   3.563 -0.8598 -1.3058 -1.6884
 8050TIP3   OH245640   5.447   3.993  14.185  0.2303  0.2760  0.1568
 8050TIP3    H145641   5.520   4.025  14.238  0.3802 -0.2737  0.2855
 8050TIP3    H245642   5.463   4.029  14.098  2.0065 -1.7873 -0.4596
 8051TIP3   OH245643   0.681   0.346  16.404  0.3243  0.1799 -0.1942
 8051TIP3    H145644   0.587   0.364  16.396  0.0547 -0.9637  0.2327
 8051TIP3    H245645   0.687   0.251  16.399  1.4857  0.2576 -0.3780
 8052TIP3   OH245646   3.656   6.679   3.913  0.2404 -0.0406  0.0105
 8052TIP3    H145647   3.569   6.650   3.941  0.5267  0.2992  1.2825
 8052TIP3    H245648   3.638   6.747   3.848 -0.4401 -0.2040  0.0135
 8053TIP3   OH245649   1.072   5.792  14.360 -0.4296 -0.6880 -0.4882
 8053TIP3    H145650   1.046   5.884  14.357 -0.6785 -0.6216  1.7825
 8053TIP3    H245651   1.132   5.781  14.286  1.4732  1.9345  0.5065
 8054TIP3   OH245652   2.246   5.972   0.310  0.0133 -0.1113  0.0358
 8054TIP3    H145653   2.311   5.909   0.341  0.8764  0.0625 -1.3363
 8054TIP3    H245654   2.296   6.034   0.257 -0.7779  1.8662  1.4678
 8055TIP3   OH245655   0.662   2.551  12.703  0.0939  0.1642 -0.1809
 8055TIP3    H145656   0.746   2.594  12.722 -0.6109  1.1516  0.8469
 8055TIP3    H245657   0.634   2.516  12.787 -1.2580  1.2030 -0.1757
 8056TIP3   OH245658   0.513   3.925  13.527  0.0051 -0.1050  0.2788
 8056TIP3    H145659   0.521   3.840  13.484  0.0749  0.6989 -1.3646
 8056TIP3    H245660   0.424   3.954  13.506 -0.4333 -0.2495  1.8023
 8057TIP3   OH245661   5.004   6.420   3.866  0.6525  0.0565 -0.2162
 8057TIP3    H145662   4.912   6.448   3.869  0.6946  0.1653  0.0597
 8057TIP3    H245663   5.039   6.464   3.788  1.1978  2.3150  1.2186
 8058TIP3   OH245664   2.737   3.806   0.258  0.1124 -0.2825 -0.4221
 8058TIP3    H145665   2.828   3.784   0.277  0.0338  0.2928  0.7076
 8058TIP3    H245666   2.717   3.758   0.178  2.0194  1.1132 -1.8366
 8059TIP3   OH245667   5.948   0.745   6.052  0.4501  0.0123  0.0338
 8059TIP3    H145668   5.951   0.794   5.970 -2.2616 -0.3985 -0.4086
 8059TIP3    H245669   5.951   0.812   6.121 -0.1946  0.5964 -0.4950
 8060TIP3   OH245670   2.025   0.239   4.757  0.0201 -0.3908 -0.3504
 8060TIP3    H145671   1.967   0.315   4.748  0.4464 -0.1325 -0.9211
 8060TIP3    H245672   2.084   0.244   4.682 -1.2053 -2.3949 -1.5279
 8061TIP3   OH245673   1.420   3.835   3.957 -0.1829  0.5243  0.2604
 8061TIP3    H145674   1.478   3.797   4.023 -0.0037 -0.9838 -0.7024
 8061TIP3    H245675   1.356   3.884   4.007  1.1520  1.1433  1.4227
 8062TIP3   OH245676   5.691   6.594  15.365  0.0602  0.2784 -0.3804
 8062TIP3    H145677   5.735   6.678  15.380 -0.2714  0.4754 -0.4968
 8062TIP3    H245678   5.645   6.605  15.282 -3.6406  1.5955  1.5908
 8063TIP3   OH245679   1.503   0.046  14.242 -0.1001 -0.5212  0.2728
 8063TIP3    H145680   1.497   0.072  14.150  1.2919 -0.0253  0.2899
 8063TIP3    H245681   1.417   0.012  14.263 -0.2739 -1.2006 -1.3839
 8064TIP3   OH245682   1.106   0.228   3.132 -0.3801  0.2197 -0.2880
 8064TIP3    H145683   1.168   0.272   3.190 -0.6586  1.1519 -0.6809
 8064TIP3    H245684   1.053   0.174   3.190  0.2303  0.0982  0.1564
 8065TIP3   OH245685   3.654   1.419  16.741 -0.1516  0.2319  0.1962
 8065TIP3    H145686   3.693   1.471  16.811  0.2924 -0.1740  0.2568
 8065TIP3    H245687   3.647   1.480  16.667 -0.3512  0.5807  0.5000
 8066TIP3   OH245688   1.999   4.402  15.689  0.7742  0.3597 -0.6783
 8066TIP3    H145689   1.961   4.314  15.681  1.6716  0.0559 -2.2254
 8066TIP3    H245690   1.942   4.448  15.750 -0.4230 -0.9296 -0.7642
 8067TIP3   OH245691   1.571   5.372  12.589  0.3685 -0.1495 -0.3235
 8067TIP3    H145692   1.621   5.428  12.648 -0.6739 -2.0357  2.5664
 8067TIP3    H245693   1.507   5.329  12.645 -0.9104 -1.9079 -2.9268
 8068TIP3   OH245694   1.456   5.601   2.200  0.2661  0.1221  0.5115
 8068TIP3    H145695   1.539   5.569   2.165 -0.2330 -1.9265  1.1028
 8068TIP3    H245696   1.472   5.613   2.293  0.2972  1.2121  0.3844
 8069TIP3   OH245697   2.953   2.329  17.120 -0.0253 -0.1147 -0.0188
 8069TIP3    H145698   2.909   2.388  17.060  0.0439  0.5475  0.5775
 8069TIP3    H245699   2.952   2.244  17.075 -1.6514 -0.0609 -0.1299
 8070TIP3   OH245700   5.518   6.142   1.556  0.4866  0.4674 -0.5459
 8070TIP3    H145701   5.482   6.185   1.478 -0.1046  0.3508 -0.3390
 8070TIP3    H245702   5.578   6.077   1.520 -0.8079 -0.5348 -0.9777
 8071TIP3   OH245703   6.368   1.454   3.377  0.8820  0.5870 -0.8266
 8071TIP3    H145704   6.406   1.540   3.397 -0.3831  0.9418  0.1772
 8071TIP3    H245705   6.403   1.396   3.444 -0.8164  1.0594  0.5047
 8072TIP3   OH245706   0.577   4.907   1.106 -0.4737 -0.1038 -0.6906
 8072TIP3    H145707   0.499   4.938   1.060 -0.2855  0.3789 -0.6963
 8072TIP3    H245708   0.634   4.873   1.036 -0.7668 -0.6664 -0.6634
 8073TIP3   OH245709   5.286   0.266   1.897 -0.6905  0.6869 -0.1476
 8073TIP3    H145710   5.243   0.223   1.823 -1.1133  0.2253  0.3547
 8073TIP3    H245711   5.311   0.194   1.955  0.7089  0.9523 -0.3853
 8074TIP3   OH245712   5.831   2.467  11.223  0.6900 -0.2224 -0.4150
 8074TIP3    H145713   5.762   2.402  11.233 -1.3418  1.5514 -1.8954
 8074TIP3    H245714   5.847   2.470  11.129 -0.2250  2.2492 -0.5588
 8075TIP3   OH245715   2.600   5.788   2.804 -0.4992 -0.2571 -0.7678
 8075TIP3    H145716   2.648   5.853   2.856 -1.2550 -0.5879  0.3734
 8075TIP3    H245717   2.660   5.767   2.732  1.2850 -1.0171  0.8479
 8076TIP3   OH245718   5.406   1.922  14.114  0.2042  0.2795  0.2424
 8076TIP3    H145719   5.378   1.914  14.206 -0.3044  0.0711  0.0715
 8076TIP3    H245720   5.456   1.842  14.098  0.8076  0.5965  0.5141
 8077TIP3   OH245721   2.099   4.470  14.504 -0.4615  0.5160  0.1881
 8077TIP3    H145722   2.051   4.551  14.488  2.7021  2.3800 -0.8780
 8077TIP3    H245723   2.102   4.463  14.600 -3.1612  0.0080  0.2989
 8078TIP3   OH245724   2.045   2.185   5.318  0.2343  0.3238  0.1444
 8078TIP3    H145725   1.994   2.117   5.362  0.2494  0.6220  0.6276
 8078TIP3    H245726   2.074   2.243   5.388  1.0961  0.2572 -0.1455
 8079TIP3   OH245727   3.586   1.820   4.761 -0.2068  0.1356 -0.5031
 8079TIP3    H145728   3.617   1.852   4.846  0.0182  1.1800 -0.9673
 8079TIP3    H245729   3.498   1.786   4.779 -0.1170  0.2478  0.1722
 8080TIP3   OH245730   4.363   0.119  11.519 -0.0161 -0.6692 -0.2505
 8080TIP3    H145731   4.299   0.116  11.448 -0.2807  0.7162 -0.0990
 8080TIP3    H245732   4.446   0.138  11.475 -0.3417  1.2413 -0.1667
 8081TIP3   OH245733   6.017   5.769  13.030  0.4642  0.0566 -0.5215
 8081TIP3    H145734   5.923   5.782  13.016 -0.3650 -1.9031  2.2732
 8081TIP3    H245735   6.052   5.857  13.043 -1.3768  0.7335  0.2737
 8082TIP3   OH245736   6.486   1.867   2.658 -0.4681  0.2534 -0.1505
 8082TIP3    H145737   6.423   1.909   2.717  1.1344  1.2244  0.9540
 8082TIP3    H245738   6.570   1.879   2.701  0.4102 -1.6097 -1.2511
 8083TIP3   OH245739   4.665   5.169   6.271 -0.1674 -0.0845 -0.1679
 8083TIP3    H145740   4.572   5.191   6.279 -0.3787 -0.7514 -0.7065
 8083TIP3    H245741   4.710   5.251   6.290 -0.8839  0.3793 -0.4032
 8084TIP3   OH245742   1.388   6.082   2.501  0.1539 -0.1741  0.1707
 8084TIP3    H145743   1.419   6.054   2.415 -0.1002  0.9993 -0.3146
 8084TIP3    H245744   1.350   6.002   2.539  2.4400 -1.3057  0.2316
 8085TIP3   OH245745   2.756   0.401   4.721  0.5073  0.5258  0.1495
 8085TIP3    H145746   2.838   0.412   4.672 -0.2883 -1.3200 -1.7240
 8085TIP3    H245747   2.761   0.311   4.756  0.3471  1.2575  2.1788
 8086TIP3   OH245748   0.126   5.442   3.998 -0.2069 -0.6284 -0.3160
 8086TIP3    H145749   0.062   5.502   3.961 -0.7020 -1.1681 -0.3406
 8086TIP3    H245750   0.115   5.450   4.092 -2.4843 -2.9602 -0.2771
 8087TIP3   OH245751   3.319   0.277   2.348  0.0351  0.7194  0.0030
 8087TIP3    H145752   3.390   0.230   2.392 -2.4288 -1.7540  1.7303
 8087TIP3    H245753   3.324   0.366   2.382  1.2204  0.1312  1.5042
 8088TIP3   OH245754   0.690   3.138  15.184  0.9203 -0.5970 -0.3897
 8088TIP3    H145755   0.598   3.148  15.211  2.0695 -1.1281  4.6462
 8088TIP3    H245756   0.726   3.226  15.188  0.9612 -0.5736 -1.1156
 8089TIP3   OH245757   1.751   1.764  10.680  0.6247 -0.0419 -0.1618
 8089TIP3    H145758   1.688   1.719  10.624  0.9451 -1.4542  0.5651
 8089TIP3    H245759   1.716   1.852  10.689  0.2616  0.0514 -2.0819
 8090TIP3   OH245760   3.395   4.967  17.174  1.3883  0.2131 -0.3061
 8090TIP3    H145761   3.397   4.921  17.258  2.2287 -1.7743 -1.3407
 8090TIP3    H245762   3.416   4.899  17.110 -1.4153  1.1382 -2.3799
 8091TIP3   OH245763   4.523   3.155   5.587 -0.4490 -0.6715  0.3895
 8091TIP3    H145764   4.474   3.236   5.599 -2.7670 -1.9950  0.4834
 8091TIP3    H245765   4.529   3.118   5.675 -0.3029 -1.0705  0.2116
 8092TIP3   OH245766   4.614   5.630   3.883  0.1789 -0.0347  0.5455
 8092TIP3    H145767   4.670   5.707   3.891 -0.9331  1.0744 -1.6763
 8092TIP3    H245768   4.644   5.587   3.803 -1.2425 -0.1531  0.0463
 8093TIP3   OH245769   0.177   2.889  17.104 -0.2120 -0.4227 -0.3039
 8093TIP3    H145770   0.112   2.954  17.077  0.4901 -0.5860 -2.6303
 8093TIP3    H245771   0.126   2.813  17.129 -1.0080  0.6614  1.6293
 8094TIP3   OH245772   4.089   2.514  11.791 -0.2055 -0.6013  0.5238
 8094TIP3    H145773   4.133   2.472  11.865 -1.1203 -0.7929  0.9804
 8094TIP3    H245774   3.997   2.519  11.818 -0.0980  1.9822  0.6061
 8095TIP3   OH245775   0.337   4.328   1.088 -0.6765 -1.0535 -0.2780
 8095TIP3    H145776   0.428   4.358   1.081 -1.5033  1.6912 -0.5979
 8095TIP3    H245777   0.343   4.246   1.138  1.8337 -0.0918  1.2367
 8096TIP3   OH245778   5.231   0.310   5.264 -0.5425 -0.0188  0.6937
 8096TIP3    H145779   5.215   0.375   5.195 -1.7019  0.7607  1.6683
 8096TIP3    H245780   5.185   0.231   5.233  1.9718 -0.9168 -1.1435
 8097TIP3   OH245781   6.460   1.229  12.907  0.1940  0.4799 -0.0086
 8097TIP3    H145782   6.409   1.306  12.933 -1.7446 -0.0439 -1.9257
 8097TIP3    H245783   6.544   1.265  12.879 -1.1402  2.2165 -2.2621
 8098TIP3   OH245784   6.282   5.589  11.895  0.0652 -0.4561  0.1908
 8098TIP3    H145785   6.286   5.685  11.900  0.9850 -0.4134 -0.9782
 8098TIP3    H245786   6.226   5.571  11.820  0.1467 -0.8266  0.2170
 8099TIP3   OH245787   1.127   2.077  12.864  0.3726  0.4697  0.1162
 8099TIP3    H145788   1.089   2.165  12.862  1.8135  1.1648  1.3611
 8099TIP3    H245789   1.197   2.079  12.799 -0.2028 -0.0770 -0.5355
 8100TIP3   OH245790   2.168   3.832  14.955  0.8246 -0.3704 -0.6410
 8100TIP3    H145791   2.137   3.781  15.030 -0.2068  0.3338 -0.5645
 8100TIP3    H245792   2.196   3.915  14.992 -1.9221  0.9231 -1.2269
 8101TIP3   OH245793   4.639   0.646   3.091 -0.3225  0.7916 -0.1954
 8101TIP3    H145794   4.664   0.572   3.037 -2.0168  1.6333 -2.2699
 8101TIP3    H245795   4.659   0.619   3.181  2.6229 -0.6616 -1.1568
 8102TIP3   OH245796   6.290   1.397  15.150  0.3324 -0.4330 -0.5238
 8102TIP3    H145797   6.318   1.484  15.124  0.8013 -0.4368 -0.0647
 8102TIP3    H245798   6.371   1.346  15.155  0.3473 -0.2882  1.4196
 8103TIP3   OH245799   2.257   1.825  14.563 -0.4284 -0.3900  0.1105
 8103TIP3    H145800   2.261   1.730  14.573  0.1336 -0.2547  1.4388
 8103TIP3    H245801   2.177   1.840  14.513  0.4577 -1.6497 -1.7907
 8104TIP3   OH245802   1.616   4.962   3.426  0.5287  0.0427  0.1659
 8104TIP3    H145803   1.629   5.019   3.350  0.7904 -1.0053 -0.5959
 8104TIP3    H245804   1.521   4.961   3.440  0.4704  0.1398 -0.2227
 8105TIP3   OH245805   3.596   5.008  12.217  0.2521 -0.6066 -0.0375
 8105TIP3    H145806   3.638   4.937  12.265  1.6941  2.5638  3.9296
 8105TIP3    H245807   3.520   5.032  12.270 -0.3730  0.6437 -1.4331
 8106TIP3   OH245808   5.907   2.051   4.818  0.0408 -0.0680  0.5502
 8106TIP3    H145809   5.985   1.997   4.814 -0.4604 -1.1435  3.0461
 8106TIP3    H245810   5.845   2.000   4.871 -1.0790  2.1803  1.5810
 8107TIP3   OH245811   4.823   6.091  15.869 -0.2871 -0.8081  0.4275
 8107TIP3    H145812   4.795   6.057  15.784 -0.8821  0.6744 -0.0108
 8107TIP3    H245813   4.899   6.145  15.849 -0.1721 -0.7962  0.8933
 8108TIP3   OH245814   4.227   1.584  11.087  0.3906 -0.1067  0.2272
 8108TIP3    H145815   4.231   1.600  11.182  0.7727  3.0505 -0.1904
 8108TIP3    H245816   4.168   1.510  11.077  2.6943 -2.5794  3.0634
 8109TIP3   OH245817   0.000   0.628   3.727 -0.4193 -0.0192 -0.5535
 8109TIP3    H145818  -0.059   0.558   3.753 -0.9592  0.6102 -0.0561
 8109TIP3    H245819  -0.055   0.706   3.723  0.3945  0.6017  0.0152
 8110TIP3   OH245820   3.397   6.618   3.146 -0.8509 -0.0526 -0.6758
 8110TIP3    H145821   3.464   6.666   3.196 -1.0798 -0.4485  0.0301
 8110TIP3    H245822   3.433   6.612   3.058 -0.3795  0.5612 -0.5371
 8111TIP3   OH245823   0.043   0.338  15.351 -0.0051 -0.4816 -0.1634
 8111TIP3    H145824  -0.017   0.394  15.302  0.4620  0.8898  0.7772
 8111TIP3    H245825   0.010   0.341  15.441  1.1836 -0.1033  0.2690
 8112TIP3   OH245826   5.019   1.825  12.524  0.4780  0.2340 -0.3006
 8112TIP3    H145827   5.051   1.841  12.436  2.9450  1.1684  0.6851
 8112TIP3    H245828   4.998   1.912  12.558 -2.2039 -0.2450 -0.4887
 8113TIP3   OH245829   3.683   0.617  15.265  0.1367  0.3669  0.1858
 8113TIP3    H145830   3.669   0.701  15.308 -2.3534 -1.2567  2.8951
 8113TIP3    H245831   3.752   0.575  15.316 -0.1891 -0.0932  0.2583
 8114TIP3   OH245832   5.800   1.810   0.908 -0.2571  0.1237 -0.1256
 8114TIP3    H145833   5.829   1.726   0.872 -2.6561 -1.1022  0.5707
 8114TIP3    H245834   5.881   1.856   0.930  1.1566 -2.3496  0.2268
 8115TIP3   OH245835   0.985   4.387   4.309  0.2499 -0.3591  0.1844
 8115TIP3    H145836   0.946   4.381   4.396  1.2125  1.2341  0.7654
 8115TIP3    H245837   0.938   4.459   4.267  0.9598  0.0222  0.0349
 8116TIP3   OH245838   3.712   1.805  12.774 -0.3949  0.0311 -0.6955
 8116TIP3    H145839   3.781   1.870  12.763  0.6259 -0.6891  1.0456
 8116TIP3    H245840   3.755   1.721  12.761 -0.9946 -0.4124  0.0741
 8117TIP3   OH245841   3.507   5.039   4.385 -0.3481  0.6608  0.8801
 8117TIP3    H145842   3.575   5.102   4.409  1.4782 -0.9291  0.1878
 8117TIP3    H245843   3.477   5.068   4.299  0.5743  0.5482  0.5034
 8118TIP3   OH245844   2.221   2.420  15.566 -0.5197  0.1567  0.3757
 8118TIP3    H145845   2.246   2.333  15.535 -0.7910  0.7777 -1.6814
 8118TIP3    H245846   2.233   2.415  15.661 -0.3283 -2.0490  0.2923
 8119TIP3   OH245847   5.695   4.483   2.480  0.9326 -0.5599 -0.8817
 8119TIP3    H145848   5.724   4.465   2.569 -0.1935 -1.1103 -0.6165
 8119TIP3    H245849   5.668   4.575   2.481 -1.1072 -1.1251 -0.0688
 8120TIP3   OH245850   3.513   3.260  10.831 -0.5582  0.1537 -0.4303
 8120TIP3    H145851   3.445   3.264  10.899  0.7635  0.2383  0.9485
 8120TIP3    H245852   3.586   3.309  10.868 -0.3264  1.6098 -2.6078
 8121TIP3   OH245853   6.541   2.762  10.813 -0.3071 -0.6909 -0.2664
 8121TIP3    H145854   6.501   2.841  10.777  1.4474 -0.6325 -2.2836
 8121TIP3    H245855   6.466   2.709  10.841 -1.5790  1.1734  0.0853
 8122TIP3   OH245856   6.285   4.095  12.741  0.2189 -0.2752  0.4738
 8122TIP3    H145857   6.260   4.184  12.768 -1.1838 -0.7088  0.6568
 8122TIP3    H245858   6.360   4.074  12.797  0.2979  0.6274  0.7262
 8123TIP3   OH245859   6.627   2.308  16.701  0.4699  0.1322 -0.3079
 8123TIP3    H145860   6.696   2.280  16.762 -1.4234  0.2820  2.0773
 8123TIP3    H245861   6.572   2.367  16.753 -2.1552 -0.9623 -1.6429
 8124TIP3   OH245862   1.468   1.514  11.164 -0.5377  0.0534 -0.1576
 8124TIP3    H145863   1.475   1.420  11.178 -1.7172  0.0754  0.7305
 8124TIP3    H245864   1.409   1.545  11.233  1.4563  1.7764  0.8968
 8125TIP3   OH245865   6.537   2.041  13.602  0.0574 -0.4309 -0.0089
 8125TIP3    H145866   6.563   2.008  13.516 -0.2897 -2.0221  0.4690
 8125TIP3    H245867   6.619   2.044  13.652  0.0714 -0.6661 -0.0193
 8126TIP3   OH245868   0.446   2.052  15.125  0.1846 -0.2669  0.5330
 8126TIP3    H145869   0.435   1.993  15.051  1.1618 -1.0097  0.9700
 8126TIP3    H245870   0.405   2.007  15.199 -1.1988  0.6696  0.3819
 8127TIP3   OH245871   4.816   1.080  12.276 -0.0567  0.0783  0.2296
 8127TIP3    H145872   4.873   1.146  12.315 -1.3675  1.9425 -0.8708
 8127TIP3    H245873   4.728   1.114  12.287 -0.8137 -1.6559 -0.1310
 8128TIP3   OH245874   3.184   2.207  13.828  0.5180 -0.7047 -0.6148
 8128TIP3    H145875   3.186   2.292  13.784  0.1740  2.0162  3.9783
 8128TIP3    H245876   3.091   2.183  13.829  0.5424 -0.8597 -1.3724
 8129TIP3   OH245877   2.530   0.401  16.286 -0.1559  0.3990 -0.6052
 8129TIP3    H145878   2.458   0.374  16.229 -0.2099  0.0793 -0.3826
 8129TIP3    H245879   2.568   0.319  16.317 -1.9523  0.4877  2.1807
 8130TIP3   OH245880   5.083   1.123   1.685 -0.2648 -0.1993  0.1722
 8130TIP3    H145881   5.043   1.131   1.771 -1.3648 -0.2688 -0.3244
 8130TIP3    H245882   5.081   1.030   1.666 -0.2229 -0.1594 -0.0299
 8131TIP3   OH245883   0.173   3.961   3.174 -0.4982  0.5760  0.1894
 8131TIP3    H145884   0.176   3.924   3.085 -1.5230  0.4033  0.2190
 8131TIP3    H245885   0.127   3.895   3.226  0.1806  0.6309  0.8861
 8132TIP3   OH245886   6.368   4.536  14.543  0.1661  0.4502  0.4760
 8132TIP3    H145887   6.442   4.497  14.495 -0.2085  1.4865 -0.9904
 8132TIP3    H245888   6.405   4.561  14.627  1.0893 -0.5304  0.3785
 8133TIP3   OH245889   2.475   5.657   5.225 -0.6457 -0.2942 -0.0939
 8133TIP3    H145890   2.533   5.732   5.221 -0.5725 -0.3493 -0.0651
 8133TIP3    H245891   2.388   5.692   5.204 -1.4876  0.6744  4.0953
 8134TIP3   OH245892   6.242   5.136   4.484  0.1907  0.2573  0.5014
 8134TIP3    H145893   6.282   5.169   4.403  0.8711 -0.1470  0.6611
 8134TIP3    H245894   6.316   5.127   4.545 -0.1504 -0.4620  0.8229
 8135TIP3   OH245895   3.452   0.787  16.947  0.3817 -0.5538 -0.1764
 8135TIP3    H145896   3.534   0.835  16.932  0.6003 -1.4692 -2.4323
 8135TIP3    H245897   3.479   0.705  16.987  0.3191  0.0026  1.0295
 8136TIP3   OH245898   1.715   5.505   2.121 -0.2604  0.5978  0.5150
 8136TIP3    H145899   1.752   5.547   2.044  0.0424 -0.7008 -0.0773
 8136TIP3    H245900   1.747   5.415   2.117 -1.1661  0.2045  1.5359
 8137TIP3   OH245901   1.484   0.866  12.208 -0.2638  0.8390  0.0324
 8137TIP3    H145902   1.437   0.950  12.204  0.4211  1.2106 -0.3901
 8137TIP3    H245903   1.520   0.863  12.297 -1.6656  0.2198  0.6055
 8138TIP3   OH245904   0.314   5.236  12.283 -0.0246  0.1545  0.4085
 8138TIP3    H145905   0.339   5.229  12.375  3.3878  0.1105 -0.3934
 8138TIP3    H245906   0.307   5.145  12.253 -0.1828  0.1617  0.4282
 8139TIP3   OH245907   2.798   0.497   5.380 -0.1661 -0.1605  0.2496
 8139TIP3    H145908   2.866   0.438   5.345 -0.7245  0.6510 -2.4063
 8139TIP3    H245909   2.719   0.443   5.381 -0.1043 -0.2515  0.5643
 8140TIP3   OH245910   5.217   2.257   2.175  0.3887 -0.1356 -0.3226
 8140TIP3    H145911   5.242   2.166   2.163  0.0098 -0.5116  1.5060
 8140TIP3    H245912   5.131   2.265   2.134  0.6985 -0.4085 -1.0516
 8141TIP3   OH245913   4.917   0.542   4.935 -0.4020 -0.0680  0.0507
 8141TIP3    H145914   4.873   0.458   4.919 -0.1229 -0.3734  0.8052
 8141TIP3    H245915   5.005   0.517   4.963 -0.1726  0.4983 -0.1448
 8142TIP3   OH245916   2.731   5.721   1.301  0.4147  0.3984 -1.0105
 8142TIP3    H145917   2.779   5.738   1.220  0.5142  1.7886 -0.6767
 8142TIP3    H245918   2.737   5.802   1.351 -0.5570 -0.0767 -0.0687
 8143TIP3   OH245919   2.043   3.828   4.388 -0.0200  0.0476 -0.1119
 8143TIP3    H145920   2.049   3.787   4.475 -0.8642  2.6613  1.2890
 8143TIP3    H245921   2.104   3.902   4.392 -1.2093  1.1433 -1.1374
 8144TIP3   OH245922   0.845   3.273  11.236 -0.7895  0.2516  0.1947
 8144TIP3    H145923   0.878   3.208  11.298 -2.5632 -0.1503  0.7626
 8144TIP3    H245924   0.879   3.244  11.151 -0.9330 -1.0065  0.5437
 8145TIP3   OH245925   2.429   1.213  17.194 -0.1660  0.0995 -0.0585
 8145TIP3    H145926   2.338   1.241  17.205  0.7357  2.7482  1.9801
 8145TIP3    H245927   2.475   1.293  17.170  1.6558 -1.2052 -1.0985
 8146TIP3   OH245928   5.274   0.032   3.597 -0.5402 -0.2220  0.0208
 8146TIP3    H145929   5.193   0.001   3.639 -1.0669  0.7054 -0.2756
 8146TIP3    H245930   5.344  -0.011   3.645 -1.1404  0.3888  1.5096
 8147TIP3   OH245931   4.656   1.983  11.698 -0.4017  0.5021 -0.2473
 8147TIP3    H145932   4.589   2.029  11.750 -0.9599  1.2929 -1.6047
 8147TIP3    H245933   4.609   1.953  11.620  1.0145  2.0323 -1.7756
 8148TIP3   OH245934   6.632   4.823  12.183 -0.1989 -0.0265 -0.1458
 8148TIP3    H145935   6.694   4.840  12.254  0.3327  0.4999 -0.7198
 8148TIP3    H245936   6.655   4.887  12.115 -1.2869  0.0905 -0.4263
 8149TIP3   OH245937   2.976   0.839  14.947  0.6178 -0.4063  0.6147
 8149TIP3    H145938   2.929   0.909  14.901  1.1135 -1.3575 -1.4592
 8149TIP3    H245939   2.910   0.772  14.965  0.8754 -1.1780 -1.1425
 8150TIP3   OH245940   5.474   4.309  16.598  0.1068 -0.0792 -0.0194
 8150TIP3    H145941   5.542   4.363  16.639 -0.4201  0.7950 -0.2782
 8150TIP3    H245942   5.522   4.239  16.554  0.7533 -0.3875  1.1154
 8151TIP3   OH245943   1.963   6.328  13.269 -0.0738  0.8663 -0.3515
 8151TIP3    H145944   2.000   6.244  13.241  1.5704  1.4879 -0.1698
 8151TIP3    H245945   1.977   6.386  13.194 -1.7864  0.8619 -0.7271
 8152TIP3   OH245946   5.269   1.493  13.223  0.1345 -0.6939 -0.1228
 8152TIP3    H145947   5.292   1.408  13.261 -0.3600 -0.5496  0.5124
 8152TIP3    H245948   5.350   1.543  13.224  0.7471 -1.5910 -1.7056
 8153TIP3   OH245949   1.934   5.486   5.451  0.1838  1.2525 -0.3224
 8153TIP3    H145950   1.886   5.569   5.453  0.0919  1.2076 -0.5697
 8153TIP3    H245951   2.006   5.498   5.513 -0.2755  1.2392  0.2264
 8154TIP3   OH245952   0.081   1.066  12.251  0.3514  0.2779  0.0566
 8154TIP3    H145953   0.100   1.159  12.266 -1.6633  0.7612 -0.1623
 8154TIP3    H245954  -0.012   1.057  12.271  0.1623 -1.3933 -1.3532
 8155TIP3   OH245955   2.626   0.421  17.004  0.3040  0.1195 -0.7295
 8155TIP3    H145956   2.677   0.502  17.006 -0.9929  0.9634  1.0427
 8155TIP3    H245957   2.647   0.377  17.086  0.6672 -1.1544 -1.4842
 8156TIP3   OH245958   3.903   3.262   2.475 -0.0200 -0.1477 -0.6571
 8156TIP3    H145959   3.937   3.179   2.441  0.9578  0.1948 -0.5307
 8156TIP3    H245960   3.875   3.242   2.564  2.1953  0.1098  0.1556
 8157TIP3   OH245961   6.218   5.430  17.060  0.0992 -0.5014  0.4350
 8157TIP3    H145962   6.237   5.524  17.064 -0.4667 -0.3654  0.1104
 8157TIP3    H245963   6.198   5.405  17.150  0.0072 -0.2572  0.4830
 8158TIP3   OH245964   5.304   3.707   5.045 -0.1135 -0.1261 -0.3507
 8158TIP3    H145965   5.345   3.740   4.965 -0.4073  0.1099 -0.4083
 8158TIP3    H245966   5.343   3.621   5.058  1.0498  0.4454  0.0902
 8159TIP3   OH245967   4.009   2.596   3.979  0.0311 -0.3025  0.3158
 8159TIP3    H145968   4.022   2.529   3.912 -2.1808  0.6119 -1.1302
 8159TIP3    H245969   3.975   2.672   3.932 -1.2802  0.4874  2.4028
 8160TIP3   OH245970   6.345   0.150  13.766  0.0969 -0.5611 -0.4843
 8160TIP3    H145971   6.281   0.080  13.751 -1.9918  1.3931 -1.3928
 8160TIP3    H245972   6.298   0.215  13.818  1.3432  0.9465 -1.1299
 8161TIP3   OH245973   6.228   2.447  13.013  0.7483 -0.0524  0.6138
 8161TIP3    H145974   6.227   2.539  12.986 -1.0560 -0.2895 -0.2837
 8161TIP3    H245975   6.295   2.443  13.081  0.3384  2.1044  1.2392
 8162TIP3   OH245976   1.547   3.695   2.369  0.1439  0.4843 -0.3754
 8162TIP3    H145977   1.471   3.704   2.311 -0.2567  0.9269  0.2046
 8162TIP3    H245978   1.539   3.607   2.406  0.2715  0.2896 -0.8058
 8163TIP3   OH245979   1.391   3.020  16.783  0.5879  0.2741 -0.0857
 8163TIP3    H145980   1.398   3.111  16.755 -2.3183  0.5990 -0.0472
 8163TIP3    H245981   1.375   2.971  16.703  0.3304  0.0624  0.0913
 8164TIP3   OH245982   0.207   4.896   4.208 -0.4981  0.8247 -0.7404
 8164TIP3    H145983   0.292   4.853   4.214  0.0382  1.9595  0.0817
 8164TIP3    H245984   0.162   4.851   4.136  0.3929 -0.4575 -0.5309
 8165TIP3   OH245985   6.031   0.018  16.560 -0.6618  0.4035 -0.0170
 8165TIP3    H145986   6.090   0.042  16.631 -0.7333 -0.4506  0.3350
 8165TIP3    H245987   6.088  -0.023  16.494 -0.4892  1.7651 -0.7591
 8166TIP3   OH245988   3.166   0.068   5.940 -0.3746 -0.2667  0.2235
 8166TIP3    H145989   3.185   0.144   5.995 -1.1166 -0.3037  0.5424
 8166TIP3    H245990   3.109   0.102   5.871 -2.2263 -0.8441  1.3857
 8167TIP3   OH245991   2.656   2.275  14.153 -0.5293  0.1192 -0.1809
 8167TIP3    H145992   2.692   2.337  14.216  1.6675 -0.7895 -0.4582
 8167TIP3    H245993   2.583   2.233  14.199  0.0454  0.5782  1.1862
 8168TIP3   OH245994   2.328   4.450  16.757 -1.1048  0.3582  0.0170
 8168TIP3    H145995   2.391   4.426  16.688  0.7908  0.6317  1.5569
 8168TIP3    H245996   2.256   4.388  16.745 -0.9644  0.5426 -2.3192
 8169TIP3   OH245997   1.436   1.272   0.373  0.8580 -0.4526 -0.1227
 8169TIP3    H145998   1.446   1.178   0.358 -1.3230 -0.3971 -2.4989
 8169TIP3    H245999   1.376   1.301   0.305  2.0735  2.8497  0.0484
 8170TIP3   OH246000   1.906   3.309  12.809  0.5814  0.0932 -0.2521
 8170TIP3    H146001   1.997   3.278  12.818  0.8391  0.7721 -0.4380
 8170TIP3    H246002   1.909   3.369  12.735  0.1679  0.8246  0.3063
 8171TIP3   OH246003   4.222   3.138  16.226 -0.3401 -0.1525  0.5788
 8171TIP3    H146004   4.261   3.087  16.297 -1.1600 -1.3214  0.2362
 8171TIP3    H246005   4.252   3.227  16.240  0.2481 -0.5335  1.8618
 8172TIP3   OH246006   3.000   6.601  12.623 -0.0459 -0.0225 -0.3625
 8172TIP3    H146007   2.968   6.691  12.631 -0.4647 -0.0232 -1.7485
 8172TIP3    H246008   3.093   6.607  12.643 -0.5202  0.2565  2.1173
 8173TIP3   OH246009   1.112   1.431  17.096  0.8784 -0.9421  0.2009
 8173TIP3    H146010   1.184   1.486  17.127  0.4737 -0.5523  0.4649
 8173TIP3    H246011   1.036   1.460  17.147 -0.2240  0.8765 -2.2897
 8174TIP3   OH246012   6.267   1.086   2.682 -0.1028 -0.3205  0.2560
 8174TIP3    H146013   6.331   1.047   2.742  0.7571  1.6936  0.7555
 8174TIP3    H246014   6.320   1.134   2.618 -1.0821  0.0349 -0.3111
 8175TIP3   OH246015   6.727   6.521   4.265 -0.3160  0.2129 -0.1398
 8175TIP3    H146016   6.710   6.449   4.326 -0.5263  1.9423  1.9699
 8175TIP3    H246017   6.647   6.528   4.213 -0.6081 -0.5601  0.1962
 8176TIP3   OH246018   4.870   3.747  13.374 -0.3491  0.1076  0.0599
 8176TIP3    H146019   4.789   3.706  13.345  1.2692 -0.9891 -3.5167
 8176TIP3    H246020   4.896   3.803  13.301  1.3985  1.5797  1.6982
 8177TIP3   OH246021   1.225   5.933  12.180 -0.6149  0.1495 -0.1454
 8177TIP3    H146022   1.131   5.938  12.161 -1.0698 -1.4527  1.4262
 8177TIP3    H246023   1.254   5.855  12.133 -0.7350 -1.0418  1.6744
 8178TIP3   OH246024   4.610   3.583  16.135 -0.0806 -0.3574 -0.2824
 8178TIP3    H146025   4.518   3.588  16.163 -0.6685  0.4812 -2.1555
 8178TIP3    H246026   4.651   3.661  16.173 -0.4536 -0.0833 -0.4371
 8179TIP3   OH246027   1.362   1.159   2.945 -0.3700 -0.4062  0.0426
 8179TIP3    H146028   1.410   1.091   2.992  0.9875  1.0017  0.8155
 8179TIP3    H246029   1.351   1.229   3.010  0.5599  1.1525 -1.4004
 8180TIP3   OH246030   5.186   4.235   2.815  0.0259 -0.2687  0.1677
 8180TIP3    H146031   5.200   4.261   2.724  1.1206 -1.8808 -0.1559
 8180TIP3    H246032   5.119   4.296   2.847  1.7963  2.3219 -0.7724
 8181TIP3   OH246033   5.977   4.805   3.025  0.0428  0.3579  0.3923
 8181TIP3    H146034   5.897   4.756   3.003  0.6712 -0.3353 -0.4406
 8181TIP3    H246035   5.998   4.853   2.945 -0.5233  1.9756  1.1816
 8182TIP3   OH246036   2.314   6.812   6.315  0.6273  0.0942  0.2869
 8182TIP3    H146037   2.273   6.896   6.336 -1.1779 -0.5626 -0.4301
 8182TIP3    H246038   2.280   6.752   6.381  2.0152 -0.0706  0.8796
 8183TIP3   OH246039   6.491   2.958   0.191 -0.1516  0.4599 -0.1273
 8183TIP3    H146040   6.416   3.000   0.149 -0.4728 -0.6001 -0.6270
 8183TIP3    H246041   6.461   2.870   0.212  0.3759  0.5895  1.3110
 8184TIP3   OH246042   0.104   3.488  14.310 -0.6708 -0.0190  0.1415
 8184TIP3    H146043   0.177   3.481  14.372 -1.0210 -1.2835  0.4354
 8184TIP3    H246044   0.096   3.582  14.293 -0.1373  0.2964  1.4993
 8185TIP3   OH246045   0.072   2.035   6.142  0.1687 -0.1337  0.0336
 8185TIP3    H146046   0.083   2.016   6.049  2.3278 -0.9871  0.4118
 8185TIP3    H246047   0.152   2.081   6.168 -0.2758 -0.1268  1.5088
 8186TIP3   OH246048   1.252   2.490  11.421  0.5107 -0.1122 -0.1855
 8186TIP3    H146049   1.314   2.428  11.459 -1.3820 -1.4663  0.9028
 8186TIP3    H246050   1.178   2.435  11.394 -0.7794  1.5524 -0.1653
 8187TIP3   OH246051   3.065   6.333  15.445  0.1197  0.3863 -0.5913
 8187TIP3    H146052   3.009   6.389  15.391  1.0543  0.5150 -1.4540
 8187TIP3    H246053   3.075   6.253  15.395 -0.0656 -0.0088 -0.0015
 8188TIP3   OH246054   4.548   2.279  16.549  0.2843  0.1868  0.1163
 8188TIP3    H146055   4.557   2.247  16.460 -0.7645  0.9627 -0.3012
 8188TIP3    H246056   4.586   2.367  16.547 -0.1580  0.3864  0.3152
 8189TIP3   OH246057   5.899   2.128  16.164  0.0545  0.0140 -0.6485
 8189TIP3    H146058   5.979   2.171  16.135 -1.3120  1.4429 -2.6362
 8189TIP3    H246059   5.863   2.185  16.231  1.1270 -1.1537  1.0058
 8190TIP3   OH246060   3.272   3.067   3.042  0.1961  0.5869 -0.3578
 8190TIP3    H146061   3.359   3.100   3.022  0.0731 -0.4738 -3.0401
 8190TIP3    H246062   3.215   3.143   3.033  0.6577  0.9607 -0.1574
 8191TIP3   OH246063   4.047   0.977  15.140  0.0868 -0.7018  0.4193
 8191TIP3    H146064   4.125   1.005  15.189 -0.2939 -1.5995  1.5962
 8191TIP3    H246065   3.974   0.997  15.198 -0.7164  1.2261 -1.1527
 8192TIP3   OH246066   3.876   6.031   2.320 -0.3601  0.6428 -0.3507
 8192TIP3    H146067   3.923   6.013   2.238 -1.3782  0.6125 -0.9455
 8192TIP3    H246068   3.938   6.006   2.389  0.1008 -0.4154 -1.1145
 8193TIP3   OH246069   1.422   1.820   1.960  0.9316 -0.5713 -0.5394
 8193TIP3    H146070   1.338   1.774   1.969 -0.3462  1.7798  0.2074
 8193TIP3    H246071   1.448   1.805   1.869 -0.2528 -1.4114 -0.7690
 8194TIP3   OH246072   5.509   0.600  15.065 -0.1857  0.2580 -0.2554
 8194TIP3    H146073   5.569   0.582  14.992  0.0648 -1.3065  0.2784
 8194TIP3    H246074   5.436   0.540  15.051 -0.2152  0.0559  0.6631
 8195TIP3   OH246075   1.014   4.452  16.462 -0.4938 -0.1521  0.9214
 8195TIP3    H146076   0.984   4.417  16.378  2.2023  2.0233 -1.1065
 8195TIP3    H246077   0.982   4.542  16.464  1.2759  0.5016  1.1784
 8196TIP3   OH246078   4.493   6.009   5.302 -0.6802  0.1378  0.3276
 8196TIP3    H146079   4.421   5.953   5.331  0.6200 -0.9908  1.5752
 8196TIP3    H246080   4.555   5.948   5.261  0.4580  0.7605  1.0770
 8197TIP3   OH246081   1.042   6.181  16.464  0.3239 -0.3759  0.4006
 8197TIP3    H146082   1.101   6.217  16.398  1.4492  1.8235  2.4547
 8197TIP3    H246083   0.961   6.230  16.453 -0.6236 -2.1746 -1.2660
 8198TIP3   OH246084   3.128   4.621  12.871  0.2626 -0.6046 -0.1543
 8198TIP3    H146085   3.223   4.622  12.877  0.2140 -0.7809  0.9074
 8198TIP3    H246086   3.102   4.713  12.879  0.3543 -0.5058 -0.9036
 8199TIP3   OH246087   5.540   6.698  11.467  0.4909  0.2682  0.3040
 8199TIP3    H146088   5.486   6.752  11.409  0.8766  0.1426 -0.1785
 8199TIP3    H246089   5.583   6.636  11.408  0.9316  0.1746  0.7210
 8200TIP3   OH246090   4.280   5.919   3.486  0.0654 -0.1194  0.6313
 8200TIP3    H146091   4.247   5.871   3.410  1.3989 -0.4154  0.2142
 8200TIP3    H246092   4.346   5.860   3.524  0.1142  0.4448  1.4470
 8201TIP3   OH246093   4.132   2.939  17.200  0.0740 -0.7517  0.6936
 8201TIP3    H146094   4.119   2.988  17.282  0.3140 -0.5832  0.6317
 8201TIP3    H246095   4.210   2.886  17.217  0.8544  0.1917  0.1539
 8202TIP3   OH246096   1.109   5.085   2.178 -0.9591  0.3772 -0.1158
 8202TIP3    H146097   1.022   5.121   2.200  0.2736  1.6963  3.2151
 8202TIP3    H246098   1.167   5.120   2.245  2.0693 -1.0936 -1.7712
 8203TIP3   OH246099   2.855   6.592  16.668  0.0203  0.1070 -0.0245
 8203TIP3    H146100   2.778   6.607  16.723 -0.1001 -0.1301 -0.1230
 8203TIP3    H246101   2.917   6.660  16.694 -0.5425  0.8389 -0.5466
 8204TIP3   OH246102   2.869   5.924  11.043 -0.3780 -0.4262  0.3353
 8204TIP3    H146103   2.864   5.889  10.954  0.4215  2.0533 -0.7928
 8204TIP3    H246104   2.782   5.908  11.080 -0.5702 -1.9425 -0.6729
 8205TIP3   OH246105   2.743   4.173   4.866  0.5755 -0.0986  0.1917
 8205TIP3    H146106   2.759   4.089   4.908  0.5665 -0.5419 -0.6874
 8205TIP3    H246107   2.831   4.207   4.847  0.6371  0.7007  1.6849
 8206TIP3   OH246108   3.080   5.079   4.179  0.3611  0.3558 -0.1203
 8206TIP3    H146109   3.125   5.087   4.095  0.5216  1.1394  0.0341
 8206TIP3    H246110   3.050   4.988   4.181 -0.2395  0.4905 -1.3309
 8207TIP3   OH246111   2.417   6.519   2.721  0.3980 -0.2597  0.0809
 8207TIP3    H146112   2.413   6.457   2.794 -1.1530 -0.9004 -0.5187
 8207TIP3    H246113   2.466   6.473   2.653  2.5185  0.6187  0.9102
 8208TIP3   OH246114   0.877   6.712  14.574 -0.6903  0.3023  0.4649
 8208TIP3    H146115   0.874   6.798  14.616 -2.0908  0.8284 -0.6497
 8208TIP3    H246116   0.940   6.723  14.503 -1.4959  0.6908 -0.2111
 8209TIP3   OH246117   5.970   6.436   3.685  0.5558 -0.2215 -0.2407
 8209TIP3    H146118   6.046   6.476   3.727  2.6820 -2.2399 -1.9182
 8209TIP3    H246119   5.972   6.470   3.596  0.1522 -1.1193 -0.6007
 8210TIP3   OH246120   4.420   2.722  15.914  0.1700  0.2638  0.5309
 8210TIP3    H146121   4.366   2.800  15.903 -0.0375  0.1794  0.9317
 8210TIP3    H246122   4.480   2.724  15.840  1.1914  1.6257  1.3454
 8211TIP3   OH246123   4.908   5.465  11.761  0.4316  0.2458  0.4329
 8211TIP3    H146124   4.962   5.395  11.798 -0.2011 -0.1541  0.6136
 8211TIP3    H246125   4.860   5.500  11.836 -0.7222 -0.4501  0.0423
 8212TIP3   OH246126   2.982   1.386  14.468 -0.2397 -0.2370  0.0006
 8212TIP3    H146127   2.914   1.338  14.420 -0.3727 -0.8485  0.7690
 8212TIP3    H246128   3.063   1.338  14.448 -0.4464 -1.1108  1.1597
 8213TIP3   OH246129   5.018   4.916  11.314 -0.0859 -0.0587  0.0875
 8213TIP3    H146130   4.957   4.987  11.293 -1.1672 -1.1800 -0.7460
 8213TIP3    H246131   5.104   4.957  11.315 -0.6819  1.2550 -0.3945
 8214TIP3   OH246132   4.088   0.696   5.947  0.5020 -0.4842 -0.1183
 8214TIP3    H146133   3.993   0.703   5.942  0.4712 -0.6319  0.1906
 8214TIP3    H246134   4.121   0.782   5.923  0.2116  0.2364  1.8641
 8215TIP3   OH246135   4.230   4.013   6.299  0.8300  0.2416 -0.4981
 8215TIP3    H146136   4.153   3.980   6.346  1.3948  1.8664  1.7954
 8215TIP3    H246137   4.194   4.070   6.231 -0.0791  1.1207  0.6576
 8216TIP3   OH246138   5.146   5.261   4.236 -0.0955 -0.4131 -0.1352
 8216TIP3    H146139   5.052   5.262   4.255 -0.1758  1.1431 -0.5550
 8216TIP3    H246140   5.159   5.181   4.184 -1.1102 -0.8371  0.2446
 8217TIP3   OH246141   5.823   5.924  13.888 -0.0494 -0.2181  0.2552
 8217TIP3    H146142   5.861   5.938  13.801 -2.3844 -0.3512 -0.8792
 8217TIP3    H246143   5.883   5.863  13.931  2.2320  1.3950 -0.4417
 8218TIP3   OH246144   6.790   6.239  14.300 -0.8175 -0.0804 -0.1149
 8218TIP3    H146145   6.781   6.184  14.222 -0.8135 -1.3064  0.7193
 8218TIP3    H246146   6.732   6.313  14.284 -0.3694 -0.0183 -1.5255
 8219TIP3   OH246147   5.705   4.623   3.430 -0.3985 -0.1444  0.1565
 8219TIP3    H146148   5.619   4.583   3.417  0.1669 -1.5611  0.6049
 8219TIP3    H246149   5.766   4.549   3.434  1.0126  0.8759 -1.2686
 8220TIP3   OH246150   3.926   4.862   1.388  0.1689 -0.0208  0.2320
 8220TIP3    H146151   4.008   4.848   1.434  0.2374  0.9353  0.4231
 8220TIP3    H246152   3.876   4.921   1.444 -1.2248 -1.6072  0.7703
 8221TIP3   OH246153   0.232   4.995  16.847  0.7009 -0.3301  0.2070
 8221TIP3    H146154   0.208   4.906  16.872 -0.1130  0.3496  2.0089
 8221TIP3    H246155   0.318   5.008  16.888  0.8997 -0.3503 -0.2061
 8222TIP3   OH246156   5.237   1.609   0.792 -0.0972  0.3713 -0.2955
 8222TIP3    H146157   5.208   1.559   0.716  1.2555  2.5700 -2.3875
 8222TIP3    H246158   5.170   1.677   0.803 -2.7254 -2.3767  3.4277
 8223TIP3   OH246159   3.507   4.502   5.134  0.2575  0.1430  0.7089
 8223TIP3    H146160   3.487   4.458   5.217 -0.9609 -1.3063 -0.3177
 8223TIP3    H246161   3.425   4.502   5.086  0.4383  2.7547  0.2490
 8224TIP3   OH246162   4.404   2.248   4.815 -0.0292 -0.5210 -0.2585
 8224TIP3    H146163   4.366   2.241   4.728 -0.9162 -0.5389  0.1251
 8224TIP3    H246164   4.358   2.182   4.867 -1.9934  1.7360  1.0801
 8225TIP3   OH246165   0.625   1.503   6.349 -0.1608  0.9836  0.1352
 8225TIP3    H146166   0.653   1.520   6.439  0.7315  1.5816 -0.2404
 8225TIP3    H246167   0.673   1.567   6.297  0.5549 -0.3974 -0.9463
 8226TIP3   OH246168   6.578   6.118   5.283  0.0766 -0.0786  0.6208
 8226TIP3    H146169   6.525   6.192   5.252 -0.5866 -0.1662  1.4833
 8226TIP3    H246170   6.668   6.146   5.270 -0.1679  0.5664  0.2205
 8227TIP3   OH246171   4.251   3.378   2.438 -0.0709  0.0001  0.3491
 8227TIP3    H146172   4.223   3.327   2.361 -1.6433  1.0909  0.1489
 8227TIP3    H246173   4.341   3.349   2.454  0.2136 -0.4726 -1.7276
 8228TIP3   OH246174   2.685   1.862  11.825  0.4245 -0.1925 -0.1534
 8228TIP3    H146175   2.622   1.889  11.891  0.3660  1.2022 -0.7251
 8228TIP3    H246176   2.667   1.769  11.810 -0.2204 -0.2765  1.0497
 8229TIP3   OH246177   1.832   1.577   3.109  0.1491 -0.1523  0.0281
 8229TIP3    H146178   1.881   1.657   3.128  0.6567 -0.6891  1.1080
 8229TIP3    H246179   1.757   1.605   3.057  0.9118  0.8669 -0.5530
 8230TIP3   OH246180   6.357   4.479   2.283  0.1368 -0.2243 -0.0753
 8230TIP3    H146181   6.448   4.492   2.259  1.1221 -1.7497  2.3962
 8230TIP3    H246182   6.338   4.389   2.259 -0.1591 -0.4365  0.8766
 8231TIP3   OH246183   2.339   0.680   1.077 -0.1535 -0.1992 -0.6245
 8231TIP3    H146184   2.293   0.606   1.038 -0.5391  0.4285 -1.3960
 8231TIP3    H246185   2.287   0.756   1.051  1.4121  0.5595 -1.6801
 8232TIP3   OH246186   6.267   2.250   1.098  0.1033  0.3460  0.0211
 8232TIP3    H146187   6.360   2.228   1.091  0.1843  0.1689  1.4122
 8232TIP3    H246188   6.265   2.343   1.120  0.0516 -0.0349  1.8012
 8233TIP3   OH246189   1.504   4.042   6.786  0.3214 -0.0039 -0.1715
 8233TIP3    H146190   1.415   4.077   6.774  0.5949  1.5695  1.7469
 8233TIP3    H246191   1.508   3.965   6.729 -2.1041  0.1520 -0.6611
 8234TIP3   OH246192   0.673   0.593   2.997  0.0835 -0.7486  0.6176
 8234TIP3    H146193   0.673   0.682   3.033  0.3679 -0.4903 -0.0072
 8234TIP3    H246194   0.765   0.577   2.975 -0.2465 -0.4457 -1.0835
 8235TIP3   OH246195   2.468   4.645   6.472  0.3587 -0.2959  0.3251
 8235TIP3    H146196   2.413   4.575   6.435 -0.7699  1.0199 -0.6264
 8235TIP3    H246197   2.545   4.647   6.416  1.6650 -2.4549  1.9344
 8236TIP3   OH246198   2.318   5.077   1.226 -0.1151 -0.6050 -0.1045
 8236TIP3    H146199   2.339   5.021   1.301  1.6349  0.6729  0.4343
 8236TIP3    H246200   2.235   5.118   1.250 -1.5247 -2.9636 -0.5721
 8237TIP3   OH246201   5.406   6.374   1.706 -0.1694 -0.0830  0.2558
 8237TIP3    H146202   5.430   6.292   1.662 -1.6294 -0.4427  0.0551
 8237TIP3    H246203   5.326   6.402   1.662 -0.8448  0.3420  1.6836
 8238TIP3   OH246204   3.830   2.401   0.119  0.1747  0.0522  0.3788
 8238TIP3    H146205   3.744   2.413   0.080  0.8754  2.6687 -0.5907
 8238TIP3    H246206   3.888   2.386   0.045  0.6616 -1.0322  0.9610
 8239TIP3   OH246207   0.150   0.782  13.050  0.0125 -0.3914  0.6253
 8239TIP3    H146208   0.095   0.825  12.985 -0.2485 -1.3433  0.2138
 8239TIP3    H246209   0.191   0.709  13.003  0.8403 -0.3038  1.1873
 8240TIP3   OH246210   6.121   3.904   5.439  0.4052 -0.4851 -0.5701
 8240TIP3    H146211   6.148   3.996   5.447 -1.4743 -0.0367  1.8455
 8240TIP3    H246212   6.149   3.864   5.521 -2.8952 -0.8200  0.5379
 8241TIP3   OH246213   5.700   3.615  15.935  0.0950 -0.4967 -0.0216
 8241TIP3    H146214   5.740   3.613  16.022  1.0954  0.8281 -0.4109
 8241TIP3    H246215   5.622   3.560  15.943 -0.3883  0.3939  1.9851
 8242TIP3   OH246216   0.736   5.706   3.125 -0.3902  0.6399 -0.3071
 8242TIP3    H146217   0.752   5.664   3.210 -0.7614  1.9033  0.4196
 8242TIP3    H246218   0.647   5.740   3.132  0.1102  2.1093 -0.5945
 8243TIP3   OH246219   2.408   3.278   4.776 -0.1218 -0.1892 -0.7053
 8243TIP3    H146220   2.314   3.274   4.765 -0.3607 -3.2517  1.1928
 8243TIP3    H246221   2.444   3.222   4.707 -0.0492 -1.9946  0.7245
 8244TIP3   OH246222   0.559   0.557  13.663  0.5017  0.6623  0.2661
 8244TIP3    H146223   0.591   0.501  13.734 -1.3640 -0.0525  0.5995
 8244TIP3    H246224   0.619   0.541  13.591  0.5971 -1.0388  0.6790
 8245TIP3   OH246225   3.816   0.072  16.338  0.7057  0.2265 -0.5237
 8245TIP3    H146226   3.812   0.026  16.422  3.9580  1.0756  0.2172
 8245TIP3    H246227   3.853   0.008  16.277  0.6207  0.3757 -0.7334
 8246TIP3   OH246228   2.674   4.775  16.664  0.7240  0.3057  0.3264
 8246TIP3    H146229   2.601   4.780  16.725  0.2042 -0.4164 -0.2128
 8246TIP3    H246230   2.639   4.807  16.581  0.3522 -2.0115 -0.4870
 8247TIP3   OH246231   4.857   6.158   6.683  0.0319 -0.4121  0.0742
 8247TIP3    H146232   4.783   6.098   6.685 -1.5077  1.3052 -1.6705
 8247TIP3    H246233   4.934   6.101   6.695 -1.5061 -2.1333  3.0822
 8248TIP3   OH246234   5.876   5.148   5.116  0.1730 -0.7670  0.1454
 8248TIP3    H146235   5.821   5.083   5.072 -0.1085 -0.6391  0.3058
 8248TIP3    H246236   5.872   5.124   5.208 -1.7241  0.7520  0.5377
 8249TIP3   OH246237   5.388   2.370   0.105 -0.0927 -0.1256 -0.8417
 8249TIP3    H146238   5.465   2.336   0.151 -0.9649 -1.0676 -0.0433
 8249TIP3    H246239   5.405   2.349   0.013 -0.6453 -2.9993 -0.4031
 8250TIP3   OH246240   0.201   2.185  11.292 -0.2093  0.1881  0.1208
 8250TIP3    H146241   0.269   2.186  11.224 -0.8964 -0.5886 -0.6155
 8250TIP3    H246242   0.249   2.170  11.373  0.3610 -3.7273 -0.7091
 8251TIP3   OH246243   6.427   2.031  14.760  0.0738 -0.8008  0.0151
 8251TIP3    H146244   6.487   1.965  14.727 -1.2668 -1.8269 -0.4884
 8251TIP3    H246245   6.411   2.089  14.686  1.8561  0.6170  0.6712
 8252TIP3   OH246246   1.783   6.698  12.124 -0.8562  0.3261 -0.0391
 8252TIP3    H146247   1.791   6.777  12.177 -0.8965  0.2971  0.0101
 8252TIP3    H246248   1.708   6.651  12.161  0.9081 -1.2094  1.9078
 8253TIP3   OH246249   3.705   0.935   3.669 -0.7396  0.4839  0.5058
 8253TIP3    H146250   3.738   1.017   3.631  0.5979 -0.6503 -0.8661
 8253TIP3    H246251   3.777   0.902   3.722 -0.6971 -0.5849 -0.2027
 8254TIP3   OH246252   5.267   3.924  15.773 -0.4244 -0.3531  0.1030
 8254TIP3    H146253   5.252   3.993  15.709 -2.4238  0.0502  0.9163
 8254TIP3    H246254   5.235   3.960  15.855  0.7480 -1.3900  1.0527
 8255TIP3   OH246255   3.735   2.510  14.821  0.3011  0.7632  0.9128
 8255TIP3    H146256   3.753   2.545  14.734  2.2395 -1.1859  0.4392
 8255TIP3    H246257   3.653   2.463  14.812  0.8756 -0.0837 -0.1117
 8256TIP3   OH246258   3.393   6.030  13.805 -1.0103 -0.4162  0.7008
 8256TIP3    H146259   3.369   5.949  13.758 -0.3622 -0.7272  0.9017
 8256TIP3    H246260   3.363   6.100  13.748 -0.0404 -0.7877 -0.3028
 8257TIP3   OH246261   0.860   2.927  14.540 -0.7532 -0.0387 -0.2587
 8257TIP3    H146262   0.848   2.880  14.622  0.0621  0.6889  0.2967
 8257TIP3    H246263   0.951   2.910  14.515 -0.9828 -0.2288 -1.0014
 8258TIP3   OH246264   2.517   6.152  12.849  0.5896 -0.1998  0.1095
 8258TIP3    H146265   2.487   6.148  12.758 -1.9133  2.5205  0.6702
 8258TIP3    H246266   2.607   6.118  12.846  0.0466 -1.7379 -3.0340
 8259TIP3   OH246267   2.652   3.476  15.636 -0.1212 -0.2504 -0.6156
 8259TIP3    H146268   2.686   3.523  15.561 -1.3846  2.1634  0.2245
 8259TIP3    H246269   2.685   3.524  15.712 -0.0787 -1.7433  0.3531
 8260TIP3   OH246270   1.420   4.997   5.475  0.3020 -0.4934  0.2426
 8260TIP3    H146271   1.394   5.020   5.564  2.4391 -1.6781  1.2687
 8260TIP3    H246272   1.345   5.021   5.421 -1.0720  0.2669  2.3394
 8261TIP3   OH246273   6.588   1.091   5.210  0.2060 -0.2254 -0.5568
 8261TIP3    H146274   6.496   1.071   5.196  0.0973  0.0130 -0.2156
 8261TIP3    H246275   6.609   1.049   5.294 -0.5960  2.7600  1.2975
 8262TIP3   OH246276   1.099   0.099  16.058  0.4537  0.0445  0.1429
 8262TIP3    H146277   1.076   0.191  16.047  4.2759  1.1224 -0.0008
 8262TIP3    H246278   1.112   0.088  16.152  0.3573 -0.2697  0.1226
 8263TIP3   OH246279   5.789   5.843   3.971 -0.1035  0.0494 -0.3604
 8263TIP3    H146280   5.715   5.784   3.981 -0.1078 -0.1497 -1.4415
 8263TIP3    H246281   5.750   5.926   3.941 -0.1506  0.7783  1.5804
 8264TIP3   OH246282   3.704   2.201  15.480  0.0949 -0.7613 -0.3078
 8264TIP3    H146283   3.754   2.276  15.448  1.2320 -1.9331 -1.3844
 8264TIP3    H246284   3.707   2.209  15.576 -1.4477  1.5708 -0.3507
 8265TIP3   OH246285   0.974   2.624  16.034  0.1810  0.3693  0.6976
 8265TIP3    H146286   0.959   2.716  16.012  0.3347  0.7924  2.2485
 8265TIP3    H246287   1.007   2.585  15.953  1.8356  2.0836  0.4731
 8266TIP3   OH246288   3.231   6.587  14.599  0.0663  0.1033  0.4407
 8266TIP3    H146289   3.267   6.611  14.685 -1.8174  1.0131  1.0458
 8266TIP3    H246290   3.179   6.509  14.616 -0.7016  0.5656  0.2398
 8267TIP3   OH246291   6.554   2.555   2.230  0.3112 -0.0027  0.5659
 8267TIP3    H146292   6.565   2.519   2.318 -1.0684  3.3792  2.2965
 8267TIP3    H246293   6.638   2.595   2.209  0.3748 -0.0468  0.7390
 8268TIP3   OH246294   2.178   4.074   0.250  0.1124  0.6316 -0.3074
 8268TIP3    H146295   2.108   4.029   0.203  0.4549  0.1418 -0.3625
 8268TIP3    H246296   2.164   4.050   0.342  1.0910 -0.7476 -0.4741
 8269TIP3   OH246297   4.684   6.607  16.109 -0.0922 -0.1678 -0.3015
 8269TIP3    H146298   4.735   6.537  16.150 -1.2539 -0.2779  1.0527
 8269TIP3    H246299   4.689   6.589  16.016  1.0904 -1.0356 -0.0950
 8270TIP3   OH246300   6.821   1.129   5.671  0.2162 -0.2157 -0.3342
 8270TIP3    H146301   6.911   1.161   5.667  0.6673 -1.0355  1.8641
 8270TIP3    H246302   6.768   1.203   5.642  1.5534  0.5100 -1.0046
 8271TIP3   OH246303   4.793   3.579   4.541 -0.2794 -0.1369  0.1497
 8271TIP3    H146304   4.757   3.496   4.510 -3.8215  1.3835 -0.2239
 8271TIP3    H246305   4.813   3.627   4.460 -0.4497  0.2643  0.3497
 8272TIP3   OH246306   6.769   3.317  12.315 -0.0347  0.2478 -0.3721
 8272TIP3    H146307   6.748   3.225  12.329  0.5900 -0.2591 -2.5400
 8272TIP3    H246308   6.847   3.332  12.369  1.1774 -1.1042 -1.6719
 8273TIP3   OH246309   5.729   6.251   4.380 -0.1109  0.0172  0.5503
 8273TIP3    H146310   5.674   6.191   4.330 -2.4594  2.6459 -0.2957
 8273TIP3    H246311   5.710   6.229   4.472 -2.0229  0.2928  0.2688
 8274TIP3   OH246312   6.779   4.393   1.531  0.3180  0.1457 -0.2652
 8274TIP3    H146313   6.756   4.437   1.448 -0.7391  2.0147  0.9372
 8274TIP3    H246314   6.707   4.332   1.545  0.2869  0.1186 -0.5310
 8275TIP3   OH246315   3.135   1.120   0.038  0.2394  0.2149  0.0936
 8275TIP3    H146316   3.125   1.182   0.111  0.1776  1.5589 -1.0086
 8275TIP3    H246317   3.130   1.175  -0.040 -0.4149 -1.2819 -0.9565
 8276TIP3   OH246318   5.182   3.691  13.571  0.1040  0.3012 -0.0104
 8276TIP3    H146319   5.212   3.631  13.640 -1.4951 -1.4766 -0.7639
 8276TIP3    H246320   5.202   3.645  13.489  1.6651  2.2247 -0.8022
 8277TIP3   OH246321   4.396   4.648  14.947 -0.2022  0.8870  0.0147
 8277TIP3    H146322   4.388   4.554  14.964  2.0506  0.8057  0.8933
 8277TIP3    H246323   4.437   4.683  15.026  0.1906  2.3948 -0.8277
 8278TIP3   OH246324   5.551   5.928   5.097  0.4250  0.3299  0.8100
 8278TIP3    H146325   5.641   5.898   5.101  0.0868 -0.8439  0.1136
 8278TIP3    H246326   5.532   5.961   5.184  0.9113 -1.2652  1.5566
 8279TIP3   OH246327   3.978   5.575  12.646  0.1599  0.5318 -0.1818
 8279TIP3    H146328   4.002   5.571  12.553  1.1560 -0.1553  0.0843
 8279TIP3    H246329   3.973   5.484  12.673 -0.3710  0.7259  0.3892
 8280TIP3   OH246330   3.498   3.227   1.971  0.9274 -0.3343  0.3491
 8280TIP3    H146331   3.446   3.307   1.977  1.1109 -0.2261  0.5088
 8280TIP3    H246332   3.438   3.162   1.935  1.3976  0.4413 -2.0023
 8281TIP3   OH246333   5.891   1.642   4.105  0.2355  0.0628 -0.1855
 8281TIP3    H146334   5.882   1.596   4.022 -0.8958  1.4893 -0.9092
 8281TIP3    H246335   5.857   1.581   4.170  2.8666 -1.8230 -0.4489
 8282TIP3   OH246336   5.223   5.598  15.487 -0.2529 -0.8254 -0.2989
 8282TIP3    H146337   5.186   5.614  15.401  0.5788 -1.3621 -0.7768
 8282TIP3    H246338   5.181   5.662  15.544 -0.7949 -0.4461 -1.1063
 8283TIP3   OH246339   2.370   2.854   1.087  0.1597  0.1390  0.5161
 8283TIP3    H146340   2.413   2.884   1.007  2.7165  0.4898  1.9160
 8283TIP3    H246341   2.348   2.763   1.070 -0.9969  0.6834 -1.1807
 8284TIP3   OH246342   0.573   2.092   0.144 -0.2053 -0.1786 -0.0927
 8284TIP3    H146343   0.494   2.039   0.135 -0.3690 -0.0467  0.5270
 8284TIP3    H246344   0.542   2.181   0.160 -0.0146 -0.5659  3.0124
 8285TIP3   OH246345   1.724   4.923   1.336  0.1074 -0.0163 -0.3259
 8285TIP3    H146346   1.765   4.961   1.258 -0.8571 -0.5062 -1.1033
 8285TIP3    H246347   1.733   4.828   1.323 -0.7684 -0.1169 -0.2440
 8286TIP3   OH246348   0.196   4.535  12.541  0.3420  0.3937  0.2927
 8286TIP3    H146349   0.188   4.631  12.544 -2.1494  0.2216  1.7120
 8286TIP3    H246350   0.126   4.507  12.482  2.9250 -0.5286 -2.6479
 8287TIP3   OH246351   1.700   2.627   2.209 -0.2114  0.1976  0.9199
 8287TIP3    H146352   1.690   2.602   2.117  4.0243  3.2996 -0.7008
 8287TIP3    H246353   1.675   2.720   2.210 -1.3618 -0.0759  3.2867
 8288TIP3   OH246354   1.166   2.727  12.059  0.0879 -0.4155  0.2093
 8288TIP3    H146355   1.072   2.708  12.062 -0.3068  1.2987 -0.4700
 8288TIP3    H246356   1.207   2.650  12.100 -1.5965 -1.1695  0.5636
 8289TIP3   OH246357   3.060   1.866   3.713 -0.3237  0.3837 -0.4505
 8289TIP3    H146358   3.057   1.932   3.644  0.6782  0.4094 -0.4897
 8289TIP3    H246359   3.153   1.849   3.725 -0.4778  0.4495  0.9671
 8290TIP3   OH246360   1.974   5.434  14.216  0.0563 -0.1402 -0.0732
 8290TIP3    H146361   2.068   5.418  14.209  0.1805 -0.3008  1.5434
 8290TIP3    H246362   1.946   5.380  14.290 -0.7279  2.1277  1.3971
 8291TIP3   OH246363   3.182   4.101  14.490  0.5354 -0.1065  0.1152
 8291TIP3    H146364   3.189   4.006  14.501  1.1652 -0.0976 -0.1490
 8291TIP3    H246365   3.264   4.126  14.447  0.8013  0.6866  1.0489
 8292TIP3   OH246366   2.672   1.170   2.725 -0.1560 -0.3630 -0.4906
 8292TIP3    H146367   2.703   1.222   2.651  3.2035  0.1014  1.0704
 8292TIP3    H246368   2.606   1.225   2.767  1.0672  1.3273 -0.6707
 8293TIP3   OH246369   2.452   1.044   5.689  0.4433  0.1574 -0.3774
 8293TIP3    H146370   2.500   1.014   5.766 -0.6538  0.6715  0.5527
 8293TIP3    H246371   2.377   1.092   5.725 -0.7363 -0.5590 -1.7353
 8294TIP3   OH246372   5.979   0.501  15.774 -0.1328 -0.5963  0.1923
 8294TIP3    H146373   5.967   0.596  15.776  0.0924 -0.4925 -1.6363
 8294TIP3    H246374   5.906   0.467  15.826 -0.1178  0.5610  1.0283
 8295TIP3   OH246375   2.519   2.720  11.572  0.2469 -0.1469 -0.1251
 8295TIP3    H146376   2.533   2.710  11.666  0.8527 -0.3077 -0.2340
 8295TIP3    H246377   2.601   2.754  11.538 -0.7626  2.4565 -0.2212
 8296TIP3   OH246378   4.253   4.592  15.621  0.0146  0.1424  0.3440
 8296TIP3    H146379   4.241   4.503  15.655  0.2762 -0.2450 -0.5352
 8296TIP3    H246380   4.181   4.602  15.558 -0.6236  0.9413  1.1838
 8297TIP3   OH246381   5.493   1.109  13.688  0.0105 -0.1015  0.1774
 8297TIP3    H146382   5.558   1.089  13.621 -1.2619 -1.9071 -0.5722
 8297TIP3    H246383   5.417   1.057  13.665 -2.4630  3.2529 -0.0366
 8298TIP3   OH246384   2.521   1.899  11.564 -0.0712 -0.0800  0.1288
 8298TIP3    H146385   2.454   1.860  11.621 -2.4616  1.0125 -1.7613
 8298TIP3    H246386   2.585   1.937  11.625 -1.9771  0.1779  2.0998
 8299TIP3   OH246387   3.386   6.613  13.378 -0.3588  0.0472  0.1861
 8299TIP3    H146388   3.364   6.558  13.454 -0.0568 -0.1765  0.1134
 8299TIP3    H246389   3.481   6.601  13.367 -0.5220 -0.5401 -0.7028
 8300TIP3   OH246390   1.110   4.728   1.910  0.6639 -0.9156  0.0521
 8300TIP3    H146391   1.060   4.777   1.976  0.5836  0.7833 -1.2262
 8300TIP3    H246392   1.086   4.637   1.926 -1.8609 -0.2815  0.3298
 8301TIP3   OH246393   2.853   5.095  10.923  0.4336  0.0404 -0.0440
 8301TIP3    H146394   2.820   5.017  10.969 -1.5804  1.2226  0.6566
 8301TIP3    H246395   2.936   5.067  10.884 -0.3483 -2.5166 -0.0353
 8302TIP3   OH246396   5.392   4.575  13.861 -0.0371  0.2390  0.2539
 8302TIP3    H146397   5.388   4.658  13.908  2.0758 -0.7019  2.2684
 8302TIP3    H246398   5.465   4.528  13.900  2.4345 -0.4177 -4.3934
 8303TIP3   OH246399   5.493   5.068  13.919 -0.7692 -0.6065  0.2359
 8303TIP3    H146400   5.417   5.082  13.863 -0.8614 -1.1067  0.2266
 8303TIP3    H246401   5.466   5.100  14.005 -0.1420  1.4821 -0.2830
 8304TIP3   OH246402   3.490   0.300   1.869  0.4551  0.0534 -0.2538
 8304TIP3    H146403   3.395   0.304   1.880  0.6411 -0.8099  2.3436
 8304TIP3    H246404   3.517   0.392   1.861 -0.4609  0.4549  0.8958
 8305TIP3   OH246405   5.076   5.032   3.136 -0.4054  0.7257  0.0857
 8305TIP3    H146406   5.039   4.961   3.189  0.2466  0.3227  0.0034
 8305TIP3    H246407   5.150   5.064   3.188  0.4070  0.1510 -0.6945
 8306TIP3   OH246408   2.736   0.516  16.111 -0.0167 -0.0728  0.0747
 8306TIP3    H146409   2.778   0.602  16.120  2.5170 -1.3152  1.1854
 8306TIP3    H246410   2.684   0.505  16.190  0.4047  0.0626  0.3708
 8307TIP3   OH246411   2.827   4.914  11.647  0.2920  0.1204 -0.3734
 8307TIP3    H146412   2.900   4.974  11.664  1.8905 -1.7408 -0.1531
 8307TIP3    H246413   2.768   4.926  11.722  1.1406  0.6369  0.2362
 8308TIP3   OH246414   6.597   1.430   1.339 -0.2058  0.1367  0.0942
 8308TIP3    H146415   6.518   1.443   1.286 -0.7792 -2.6657  0.1306
 8308TIP3    H246416   6.615   1.337   1.333  0.6631 -0.0399  3.5394
 8309TIP3   OH246417   2.931   1.539   2.029 -0.0537  0.2680 -0.3371
 8309TIP3    H146418   2.905   1.452   1.999  0.6737 -0.1165  0.1087
 8309TIP3    H246419   2.945   1.589   1.949 -0.0690 -0.1519 -0.6073
 8310TIP3   OH246420   6.118   2.126   2.573  0.0429  0.2105 -0.3297
 8310TIP3    H146421   6.135   2.191   2.506  0.4471 -0.7857 -1.2257
 8310TIP3    H246422   6.116   2.043   2.526 -0.0375 -0.4752  0.8405
 8311TIP3   OH246423   0.429   5.606   0.634  0.0410  0.3180  0.0300
 8311TIP3    H146424   0.519   5.631   0.654  0.6277 -0.4560 -1.4444
 8311TIP3    H246425   0.389   5.592   0.719  1.1454  1.2402  0.7320
 8312TIP3   OH246426   6.446   1.446   2.090 -0.0636 -0.4030  0.1256
 8312TIP3    H146427   6.355   1.462   2.114  0.0367  0.4468 -0.0100
 8312TIP3    H246428   6.441   1.392   2.011 -0.4698  0.0513 -0.1673
 8313TIP3   OH246429   4.249   2.347  13.810  0.1620  0.0675  0.0897
 8313TIP3    H146430   4.253   2.375  13.902 -2.2508 -1.6873  0.8363
 8313TIP3    H246431   4.156   2.335  13.793  0.6827 -1.7788 -1.9012
 8314TIP3   OH246432   1.241   2.347   5.448 -0.3544  0.0022 -0.4284
 8314TIP3    H146433   1.183   2.363   5.522  1.1976 -0.3441  0.9043
 8314TIP3    H246434   1.183   2.312   5.380 -1.8686  0.6300  0.4844
 8315TIP3   OH246435   1.610   1.995  12.080 -0.1146  0.2513 -0.1232
 8315TIP3    H146436   1.544   2.051  12.038  1.7225  0.5219 -2.8729
 8315TIP3    H246437   1.606   1.913  12.032  1.1119  0.0554  0.0912
 8316TIP3   OH246438   6.172   3.378  16.734 -0.2834 -0.0823  0.1809
 8316TIP3    H146439   6.240   3.389  16.800 -0.0259 -0.2189 -0.0577
 8316TIP3    H246440   6.131   3.294  16.755  1.3913 -1.3185 -1.2474
 8317TIP3   OH246441   5.909   3.003   2.607 -0.2410  0.0128  0.3970
 8317TIP3    H146442   5.941   2.995   2.697  1.7601  0.9078 -0.1653
 8317TIP3    H246443   5.962   2.942   2.557 -1.2746 -0.4094 -0.2040
 8318TIP3   OH246444   6.043   3.661   4.513 -0.2053 -0.0744 -0.3290
 8318TIP3    H146445   6.045   3.755   4.494 -1.0395 -0.6151 -3.8115
 8318TIP3    H246446   5.955   3.633   4.488 -1.3711 -1.3339  4.1600
 8319TIP3   OH246447   6.355   0.243  15.520  0.3829 -0.4636 -0.3620
 8319TIP3    H146448   6.282   0.194  15.483 -2.3108  2.7522  0.2389
 8319TIP3    H246449   6.314   0.312  15.572  3.8596  1.7219 -0.1926
 8320TIP3   OH246450   1.078   6.162   4.505  0.5389  0.2414  0.2504
 8320TIP3    H146451   1.117   6.078   4.531  2.2663  0.7211 -0.6833
 8320TIP3    H246452   1.052   6.149   4.414 -0.4222  0.3254  0.5006
 8321TIP3   OH246453   3.742   4.473  14.170  0.0330 -0.6037  0.5824
 8321TIP3    H146454   3.760   4.524  14.091 -0.4399 -0.7397  0.3881
 8321TIP3    H246455   3.816   4.413  14.177  1.9081  1.6797  2.1330
 8322TIP3   OH246456   2.827   5.824  14.292  0.1008  0.0754  0.1212
 8322TIP3    H146457   2.866   5.882  14.359 -0.8656 -1.2064  1.8662
 8322TIP3    H246458   2.735   5.818  14.316  0.0728 -1.7724 -0.3077
 8323TIP3   OH246459   0.648   0.280   3.482  0.3692 -0.0144 -0.3754
 8323TIP3    H146460   0.558   0.269   3.454  0.1063 -2.2737  1.0993
 8323TIP3    H246461   0.653   0.370   3.515 -1.5333 -0.0783  0.1518
 8324TIP3   OH246462   0.700   1.861  13.104 -0.5975  0.4998 -0.4953
 8324TIP3    H146463   0.742   1.787  13.061 -3.2801 -1.3256 -0.2561
 8324TIP3    H246464   0.748   1.938  13.073  1.8191 -1.2423 -1.3683
 8325TIP3   OH246465   2.914   1.306   3.148  0.4541 -0.1176  0.5390
 8325TIP3    H146466   2.910   1.287   3.054 -0.1554  1.7223  0.1510
 8325TIP3    H246467   2.863   1.386   3.159  0.5961 -0.2323  2.4381
 8326TIP3   OH246468   3.320   1.268   6.631 -0.7011  0.9542  0.4003
 8326TIP3    H146469   3.343   1.339   6.692  0.4116  1.3944 -0.4772
 8326TIP3    H246470   3.255   1.307   6.573  0.7237  1.6721 -0.7819
 8327TIP3   OH246471   2.661   2.639  14.511  0.1978 -0.0470  0.0094
 8327TIP3    H146472   2.633   2.729  14.530  1.2288  0.4771 -0.8325
 8327TIP3    H246473   2.664   2.597  14.597  1.1633  1.1793  0.6291
 8328TIP3   OH246474   3.300   5.518  16.608  0.2565  0.2574  0.4401
 8328TIP3    H146475   3.385   5.480  16.589 -0.3094 -0.0570 -1.8363
 8328TIP3    H246476   3.293   5.517  16.703  2.9182  0.6321  0.7225
 8329TIP3   OH246477   2.782   4.497   4.356  0.2580  0.5876  0.1758
 8329TIP3    H146478   2.743   4.419   4.396 -1.0329  0.6884 -0.7988
 8329TIP3    H246479   2.865   4.466   4.319 -0.7266 -0.6354 -1.1479
 8330TIP3   OH246480   4.941   3.790   3.957  0.0332  0.1057 -0.4794
 8330TIP3    H146481   4.884   3.819   4.028  0.0644 -0.8828 -0.0419
 8330TIP3    H246482   5.027   3.782   3.996  0.5100  1.6355 -1.1525
 8331TIP3   OH246483   0.496   6.189  11.984  0.0257 -0.0407 -0.4969
 8331TIP3    H146484   0.491   6.149  11.897 -0.6989  0.3577 -0.6461
 8331TIP3    H246485   0.430   6.144  12.036  0.5159 -0.3374 -0.1170
 8332TIP3   OH246486   5.820   6.157  12.777 -0.2242 -0.0310 -0.1471
 8332TIP3    H146487   5.859   6.243  12.759  2.2178 -0.7847  1.0226
 8332TIP3    H246488   5.799   6.121  12.691  1.9249  0.4121 -0.9306
 8333TIP3   OH246489   6.064   1.047   5.620 -0.0143  0.2563 -0.5366
 8333TIP3    H146490   5.999   1.047   5.549 -1.6396 -0.2274  0.8726
 8333TIP3    H246491   6.013   1.029   5.699  1.6133  1.4658  0.8794
 8334TIP3   OH246492   4.620   6.722   5.507 -0.5486  0.5041 -0.2188
 8334TIP3    H146493   4.554   6.719   5.577 -1.6774  0.1402 -1.2558
 8334TIP3    H246494   4.703   6.708   5.552 -1.3199 -0.5853  0.9545
 8335TIP3   OH246495   2.774   6.801  13.703 -0.0928 -0.3393  0.2033
 8335TIP3    H146496   2.727   6.733  13.751  0.7590 -1.6443 -0.7282
 8335TIP3    H246497   2.821   6.851  13.770 -0.5068 -0.8484  0.8803
 8336TIP3   OH246498   4.487   3.242   2.503 -0.0162  0.0559  0.0201
 8336TIP3    H146499   4.545   3.224   2.430  0.9238  0.7802  0.5682
 8336TIP3    H246500   4.528   3.199   2.578 -1.7161 -1.9247 -0.1049
 8337TIP3   OH246501   6.141   2.978  11.557 -0.5290  0.2587 -1.1270
 8337TIP3    H146502   6.169   3.009  11.471 -4.4327  1.4109 -2.2016
 8337TIP3    H246503   6.151   2.883  11.553  2.4737  0.4957 -1.4714
 8338TIP3   OH246504   6.024   6.549  13.275 -0.4704  0.2305  0.2831
 8338TIP3    H146505   6.102   6.593  13.240  0.4707  0.0466  2.0161
 8338TIP3    H246506   5.982   6.510  13.199  1.8170 -0.7159 -0.5887
 8339TIP3   OH246507   2.389   3.218   3.765 -0.6672  0.4313  0.0136
 8339TIP3    H146508   2.436   3.277   3.705 -0.1538 -0.8701 -0.8983
 8339TIP3    H246509   2.373   3.139   3.714 -1.1391 -0.3229  1.2842
 8340TIP3   OH246510   5.248   5.528  16.949 -0.1912 -0.4440 -0.0046
 8340TIP3    H146511   5.255   5.499  16.858 -1.1377  0.0453 -0.2473
 8340TIP3    H246512   5.155   5.520  16.969 -0.0464 -0.1787  0.7983
 8341TIP3   OH246513   2.160   0.982   0.495  0.0009  0.3841 -0.6223
 8341TIP3    H146514   2.103   1.048   0.455  0.1062  0.6203 -0.3876
 8341TIP3    H246515   2.242   0.990   0.448  0.1778  0.7754 -0.2569
 8342TIP3   OH246516   3.430   6.016  13.046 -0.1447 -0.0716 -0.6780
 8342TIP3    H146517   3.388   6.084  12.993 -1.1993 -1.5952 -1.8614
 8342TIP3    H246518   3.431   5.939  12.991  2.5010 -0.6668  0.0319
 8343TIP3   OH246519   6.531   0.142   0.060 -0.0210 -0.2788 -0.2926
 8343TIP3    H146520   6.445   0.118   0.026 -0.0270 -0.7622  0.0570
 8343TIP3    H246521   6.580   0.060   0.063 -0.2242 -0.3714  1.4167
 8344TIP3   OH246522   0.447   0.980  15.527  0.0501  0.2963  0.0679
 8344TIP3    H146523   0.361   1.008  15.495 -0.1954 -0.9699 -0.4405
 8344TIP3    H246524   0.481   0.922  15.459  1.1878  0.5392  0.4041
 8345TIP3   OH246525   4.141   0.354   3.007  0.0382  0.5411  0.5698
 8345TIP3    H146526   4.184   0.438   2.994  0.8406  0.0600  0.0296
 8345TIP3    H246527   4.193   0.311   3.074 -0.6638  0.6627  1.2084
 8346TIP3   OH246528   4.001   2.816   6.423  0.1679 -0.4418  0.0363
 8346TIP3    H146529   3.972   2.734   6.463 -2.4996 -0.2856 -1.3531
 8346TIP3    H246530   3.929   2.842   6.366  1.9063  1.6842 -1.3708
 8347TIP3   OH246531   0.178   6.625   1.550  0.0266  0.4623  0.1361
 8347TIP3    H146532   0.157   6.532   1.546  2.1189 -0.0574  0.3286
 8347TIP3    H246533   0.112   6.667   1.494 -0.9564 -1.1143  0.0620
 8348TIP3   OH246534   0.130   4.131  14.954 -0.5727  0.1863  0.5519
 8348TIP3    H146535   0.192   4.204  14.961 -0.4060  0.0972  0.0780
 8348TIP3    H246536   0.176   4.057  14.994 -2.3421  1.2114  5.1078
 8349TIP3   OH246537   1.887   6.257  14.609  0.3348 -0.6297  0.8710
 8349TIP3    H146538   1.801   6.243  14.568  0.4180  0.4221  0.3239
 8349TIP3    H246539   1.908   6.171  14.647  0.2685 -1.6992 -1.3178
 8350TIP3   OH246540   4.195   6.467  12.316 -0.1479 -0.2752  0.0913
 8350TIP3    H146541   4.166   6.376  12.310 -1.1988 -0.2445  2.9684
 8350TIP3    H246542   4.234   6.473  12.404  1.9572  1.5467 -0.8733
 8351TIP3   OH246543   3.883   2.813   3.361  0.1698  0.2684  0.1754
 8351TIP3    H146544   3.855   2.722   3.375  0.6497 -0.3566 -2.4712
 8351TIP3    H246545   3.975   2.807   3.337  0.0106  1.3510 -0.8133
 8352TIP3   OH246546   6.203   5.127  14.003 -0.5260  0.2575  0.3183
 8352TIP3    H146547   6.273   5.075  14.043  0.0016  1.8137  1.5167
 8352TIP3    H246548   6.239   5.152  13.917 -0.1346  0.0038  0.4033
 8353TIP3   OH246549   5.055   1.465  13.389  0.2070  0.4383 -0.2247
 8353TIP3    H146550   5.047   1.528  13.461 -0.6315  0.4383 -0.2999
 8353TIP3    H246551   5.123   1.501  13.333  1.0226  0.3299  0.6728
 8354TIP3   OH246552   3.652   6.081   1.385 -0.3245 -0.2601 -0.0009
 8354TIP3    H146553   3.630   6.146   1.453 -0.7070 -0.4077  0.0191
 8354TIP3    H246554   3.622   6.121   1.304  3.0407  1.3887 -0.5929
 8355TIP3   OH246555   3.879   3.048   5.873 -0.1647  0.7563 -0.0155
 8355TIP3    H146556   3.923   3.008   5.797 -0.5431  0.5228 -0.1156
 8355TIP3    H246557   3.867   2.976   5.934 -1.3196  0.5854 -0.4117
 8356TIP3   OH246558   3.735   0.340  15.155 -0.3191 -0.2457 -0.8458
 8356TIP3    H146559   3.693   0.413  15.201 -0.4352 -1.5008  1.1221
 8356TIP3    H246560   3.822   0.334  15.194 -0.3220 -1.1806 -0.9641
 8357TIP3   OH246561   3.668   1.702   0.031 -0.4696  0.6458 -0.0716
 8357TIP3    H146562   3.599   1.697  -0.035  0.8511  1.7446 -1.6074
 8357TIP3    H246563   3.723   1.775   0.003  1.1858 -0.0349  1.2334
 8358TIP3   OH246564   1.617   1.850   4.827 -0.0748  0.3583  0.1732
 8358TIP3    H146565   1.549   1.875   4.890 -0.7448  0.1833 -0.4714
 8358TIP3    H246566   1.699   1.862   4.875 -0.5346  0.9295  0.8409
 8359TIP3   OH246567   1.568   5.775   0.478  0.5722 -0.1942 -0.0238
 8359TIP3    H146568   1.489   5.823   0.504  0.9971  0.6272 -0.2185
 8359TIP3    H246569   1.639   5.818   0.524  0.9815 -0.5546 -0.3065
 8360TIP3   OH246570   6.775   5.975   3.955  0.3029  0.4236 -0.3255
 8360TIP3    H146571   6.815   5.913   4.017 -0.3681 -1.9012 -2.1143
 8360TIP3    H246572   6.681   5.963   3.966  0.1764  0.4038 -1.4039
 8361TIP3   OH246573   0.310   3.843  14.095 -0.3375  0.2350  0.4121
 8361TIP3    H146574   0.306   3.766  14.039 -1.7579  1.0519 -0.6721
 8361TIP3    H246575   0.401   3.872  14.090 -0.6680  1.1535 -2.7877
 8362TIP3   OH246576   5.690   0.219   1.411 -0.4850 -0.2842  0.2850
 8362TIP3    H146577   5.695   0.174   1.326 -1.3585 -0.6654  0.4241
 8362TIP3    H246578   5.766   0.188   1.459 -2.1501 -3.4154  1.2178
 8363TIP3   OH246579   2.333   0.408   1.908  0.3342 -0.0071 -0.3025
 8363TIP3    H146580   2.359   0.398   2.000 -2.4978 -1.1740  0.4863
 8363TIP3    H246581   2.324   0.318   1.877 -0.7984  0.3631 -1.0635
 8364TIP3   OH246582   1.589   5.743  12.598  0.5897 -0.7486  0.0875
 8364TIP3    H146583   1.656   5.714  12.660  2.0206 -0.1967 -1.1373
 8364TIP3    H246584   1.626   5.821  12.558 -1.0233 -0.1420 -0.2751
 8365TIP3   OH246585   2.568   3.413   4.325 -0.4489 -0.6645 -0.0365
 8365TIP3    H146586   2.654   3.438   4.359  0.1653 -0.7627 -1.4553
 8365TIP3    H246587   2.570   3.318   4.322 -1.3294 -0.7796  1.6642
 8366TIP3   OH246588   4.766   1.680  14.884 -0.2770  0.6050 -0.2413
 8366TIP3    H146589   4.789   1.639  14.967  0.9065 -1.7147 -1.6002
 8366TIP3    H246590   4.849   1.708  14.846 -0.5179 -0.2396 -1.4974
 8367TIP3   OH246591   4.173   5.886   1.208  0.3804  0.1583 -0.1021
 8367TIP3    H146592   4.098   5.941   1.228  0.5727  0.9901 -1.5560
 8367TIP3    H246593   4.137   5.816   1.153  0.6189  0.4270 -0.6045
 8368TIP3   OH246594   4.370   3.357  10.045 -0.6410  0.2366  0.1918
 8368TIP3    H146595   4.303   3.404  10.095 -0.5730  1.0836 -0.4926
 8368TIP3    H246596   4.450   3.408  10.058 -0.6874  0.6510 -1.0088
 8369TIP3   OH246597   3.300   6.430  13.591 -0.4398  0.4003 -0.7025
 8369TIP3    H146598   3.354   6.356  13.563  0.4340  0.7279  0.0664
 8369TIP3    H246599   3.285   6.415  13.684 -1.1245  0.6624 -0.7664
 8370TIP3   OH246600   0.542   1.161   4.014  0.0490 -0.1679  0.0764
 8370TIP3    H146601   0.611   1.175   3.949 -0.5861  1.0978 -0.3533
 8370TIP3    H246602   0.557   1.072   4.046  1.7237 -0.0003 -0.1771
 8371TIP3   OH246603   3.572   2.362   3.376 -0.1569  0.7910 -0.7705
 8371TIP3    H146604   3.501   2.344   3.438 -0.6037 -0.1174 -1.5065
 8371TIP3    H246605   3.576   2.283   3.322  2.9666 -0.1633  0.6898
 8372TIP3   OH246606   5.242   5.841   5.153  0.0387 -0.7056 -0.3561
 8372TIP3    H146607   5.273   5.930   5.168 -1.7210 -0.1840  0.4380
 8372TIP3    H246608   5.319   5.786   5.163  0.7031  0.5027  1.5652
 8373TIP3   OH246609   5.542   3.981   6.069  0.2391 -0.4155 -0.2181
 8373TIP3    H146610   5.611   3.938   6.019  1.1309  1.6650 -0.8972
 8373TIP3    H246611   5.588   4.045   6.123 -1.1108  1.0141 -0.6751
 8374TIP3   OH246612   5.492   1.924   5.729 -0.5461  0.9984 -0.3538
 8374TIP3    H146613   5.479   1.933   5.824  0.9753 -1.1008  0.1136
 8374TIP3    H246614   5.404   1.916   5.693 -1.1122 -2.2457  1.4045
 8375TIP3   OH246615   2.290   5.131  15.141  0.1278  0.4315  0.2594
 8375TIP3    H146616   2.214   5.157  15.192 -0.4023  0.3970 -0.4986
 8375TIP3    H246617   2.343   5.078  15.202 -0.5875  0.2166  0.7016
 8376TIP3   OH246618   5.035   0.829  12.724  1.2121 -0.5806  0.3691
 8376TIP3    H146619   4.960   0.770  12.720 -0.6448  1.6060  0.8498
 8376TIP3    H246620   5.025   0.887  12.649  1.5576  0.6848  1.2625
 8377TIP3   OH246621   2.279   2.355   2.006  0.0431  0.0510  0.1850
 8377TIP3    H146622   2.322   2.299   2.071 -0.5041  0.3499  0.8159
 8377TIP3    H246623   2.262   2.297   1.932 -0.5519 -0.6406  0.8472
 8378TIP3   OH246624   1.006   1.420   4.948  0.2057  0.2089 -0.6024
 8378TIP3    H146625   0.930   1.476   4.935  0.9576  1.5632  0.4878
 8378TIP3    H246626   1.064   1.440   4.875  0.7725  1.4246  0.1504
 8379TIP3   OH246627   4.368   0.791   5.274 -0.0306 -0.3550 -0.0756
 8379TIP3    H146628   4.359   0.770   5.181 -1.7057  0.9935 -0.2778
 8379TIP3    H246629   4.414   0.716   5.312  2.1625 -0.2106 -2.2537
 8380TIP3   OH246630   1.851   6.033   5.726  0.4330  0.1126  0.4320
 8380TIP3    H146631   1.766   5.995   5.747 -0.8941  3.4517  1.8882
 8380TIP3    H246632   1.913   5.989   5.784 -0.7400 -0.6445  1.1493
 8381TIP3   OH246633   2.521   3.650   5.374 -0.5063 -0.3905 -0.5034
 8381TIP3    H146634   2.473   3.732   5.360 -1.4188 -0.4566  1.7885
 8381TIP3    H246635   2.610   3.669   5.343 -1.4063  0.4477 -2.8066
 8382TIP3   OH246636   3.060   1.726  14.684 -0.3122 -0.0605  0.2573
 8382TIP3    H146637   3.003   1.802  14.694 -1.0416 -0.4379 -0.7917
 8382TIP3    H246638   3.118   1.728  14.761  1.2352  2.8198 -0.8273
 8383TIP3   OH246639   0.962   0.105   4.788 -0.1043  0.2089 -0.1263
 8383TIP3    H146640   0.918   0.098   4.703 -0.1777  2.2529 -0.2953
 8383TIP3    H246641   0.897   0.073   4.851 -0.5177 -0.1276 -0.7058
 8384TIP3   OH246642   2.647   4.722   2.171  0.1570 -0.4600 -0.2774
 8384TIP3    H146643   2.585   4.663   2.215  0.7666 -0.0605  1.1553
 8384TIP3    H246644   2.708   4.662   2.127  0.6758 -0.9263  1.0284
 8385TIP3   OH246645   5.703   5.547  11.406  0.4249  0.3836  0.1504
 8385TIP3    H146646   5.718   5.555  11.500 -0.4259  0.5715  0.2777
 8385TIP3    H246647   5.741   5.626  11.369  1.6494 -0.1505  0.2158
 8386TIP3   OH246648   1.672   3.969   3.078  0.0213  0.6159  0.0350
 8386TIP3    H146649   1.672   4.032   3.006 -1.0544  1.7068  0.9365
 8386TIP3    H246650   1.604   3.905   3.055 -0.2160  0.8769  0.0051
 8387TIP3   OH246651   3.336   6.405  15.443 -0.3930 -0.2130 -0.1584
 8387TIP3    H146652   3.322   6.415  15.349 -0.5713  0.4079 -0.0701
 8387TIP3    H246653   3.250   6.380  15.478 -0.3117 -0.5087 -0.1693
 8388TIP3   OH246654   3.330   3.022   2.082 -0.0418 -0.5067 -0.3686
 8388TIP3    H146655   3.332   3.056   2.172  2.1983  2.0677 -1.2574
 8388TIP3    H246656   3.240   2.992   2.070 -1.5566  2.6780  1.5563
 8389TIP3   OH246657   2.977   4.721  16.558  0.0335 -0.5069  0.6887
 8389TIP3    H146658   3.022   4.798  16.592 -0.3741 -0.3386  0.8548
 8389TIP3    H246659   2.884   4.745  16.558 -0.1745 -1.2466  1.4031
 8390TIP3   OH246660   0.357   4.100   4.520  0.4031 -0.0013  0.4232
 8390TIP3    H146661   0.312   4.165   4.573 -2.0518 -1.1792 -0.0603
 8390TIP3    H246662   0.364   4.140   4.433 -0.0686  0.0457  0.4061
 8391TIP3   OH246663   3.073   3.066   2.519  0.5087  0.6467  0.2008
 8391TIP3    H146664   3.062   3.151   2.561 -1.0339  1.2754 -1.3251
 8391TIP3    H246665   3.002   3.063   2.454  0.4275 -1.8799  0.3274
 8392TIP3   OH246666   5.636   2.076   3.713 -0.2261  0.5107  0.1245
 8392TIP3    H146667   5.667   2.166   3.711 -1.9013  1.1117 -0.9774
 8392TIP3    H246668   5.572   2.074   3.784 -0.1785  0.1824  0.1609
 8393TIP3   OH246669   1.151   1.010  11.458 -0.5463 -0.5188 -0.2852
 8393TIP3    H146670   1.143   0.983  11.549 -1.0093 -0.4076 -0.2929
 8393TIP3    H246671   1.085   1.078  11.446 -2.8064 -2.7504 -1.5343
 8394TIP3   OH246672   4.226   3.238   3.819  0.4982  0.4196 -0.3906
 8394TIP3    H146673   4.217   3.186   3.739  3.0566  0.4971 -0.8118
 8394TIP3    H246674   4.146   3.291   3.823  0.1684  0.1934 -2.7080
 8395TIP3   OH246675   6.752   3.184   0.988  0.3077 -0.0957  0.1969
 8395TIP3    H146676   6.748   3.210   0.896  0.5633 -4.2469 -1.1888
 8395TIP3    H246677   6.845   3.167   1.004 -0.0291 -2.0896  0.2735
 8396TIP3   OH246678   3.391   0.887   5.012  0.0182 -0.1284  0.1475
 8396TIP3    H146679   3.302   0.905   4.981  0.0500  0.6422  0.4887
 8396TIP3    H246680   3.399   0.937   5.093  0.2910 -1.3125  0.8750
 8397TIP3   OH246681   4.854   3.909  11.528 -0.0048 -0.0329  0.2403
 8397TIP3    H146682   4.766   3.925  11.496  0.0282  0.4800  0.3874
 8397TIP3    H246683   4.852   3.820  11.563 -0.7469  0.3367  1.1806
 8398TIP3   OH246684   3.852   0.826   6.292 -0.4495  0.7459 -0.1968
 8398TIP3    H146685   3.781   0.820   6.356  0.7617 -1.4344  1.0618
 8398TIP3    H246686   3.914   0.887   6.332 -0.1153  0.0890  0.3112
 8399TIP3   OH246687   0.448   5.123  15.870 -0.5531  0.6370 -0.2798
 8399TIP3    H146688   0.425   5.079  15.788  0.4893 -1.9935  0.7089
 8399TIP3    H246689   0.390   5.084  15.935  1.2608 -0.2787  0.8688
 8400TIP3   OH246690   1.129   6.170  12.934 -0.4017 -0.5111 -0.2243
 8400TIP3    H146691   1.163   6.095  12.884 -0.3425 -1.2687  0.9094
 8400TIP3    H246692   1.197   6.236  12.927  0.6249 -1.4324  0.6899
 8401TIP3   OH246693   2.949   4.134   1.533 -0.4405 -0.2358  0.1670
 8401TIP3    H146694   2.978   4.216   1.574 -1.2533  1.2010 -1.9716
 8401TIP3    H246695   2.998   4.129   1.451  0.1125 -2.3066  0.5733
 8402TIP3   OH246696   6.057   5.535  12.090 -0.0277 -0.3899  0.4510
 8402TIP3    H146697   6.061   5.500  12.179  0.3946 -0.0824  0.5570
 8402TIP3    H246698   6.065   5.458  12.034  0.9285 -0.4739  0.6812
 8403TIP3   OH246699   2.592   5.920   2.187 -0.0995 -0.0741 -0.6468
 8403TIP3    H146700   2.604   5.832   2.222  0.0401  0.5429  0.9638
 8403TIP3    H246701   2.548   5.967   2.258  1.0416  1.5010 -0.9330
 8404TIP3   OH246702   0.133   1.642   1.665 -0.1028  0.5399  0.6462
 8404TIP3    H146703   0.039   1.633   1.655  0.0325 -1.2239  0.6468
 8404TIP3    H246704   0.170   1.562   1.626  1.4055  1.2985  0.4253
 8405TIP3   OH246705   4.442   4.349   1.345  0.6330  0.9190 -0.3122
 8405TIP3    H146706   4.516   4.402   1.375  0.5337  0.7157  0.3090
 8405TIP3    H246707   4.475   4.303   1.268  2.1300 -1.3694  1.5313
 8406TIP3   OH246708   0.597   5.287  13.403 -0.3033  0.3829  0.5432
 8406TIP3    H146709   0.617   5.200  13.367 -0.8628 -0.5055  2.2629
 8406TIP3    H246710   0.511   5.307  13.368 -0.7903 -0.4132  1.2397
 8407TIP3   OH246711   3.036   5.126  11.662  0.0729 -0.1241 -0.3483
 8407TIP3    H146712   3.059   5.091  11.748 -1.4104 -2.6971 -0.8973
 8407TIP3    H246713   3.115   5.111  11.609  0.2454 -0.5482  0.0214
 8408TIP3   OH246714   1.547   2.563   0.940  0.1225  0.3760 -0.1945
 8408TIP3    H146715   1.630   2.549   0.986  0.4347  1.0536 -0.5333
 8408TIP3    H246716   1.546   2.497   0.871  0.4004  0.3983 -0.2195
 8409TIP3   OH246717   5.279   3.058   4.072  0.9150 -0.1251 -0.4497
 8409TIP3    H146718   5.195   3.091   4.104  1.0814  0.3773 -0.5242
 8409TIP3    H246719   5.264   2.964   4.056  0.4068 -0.0606 -0.3536
 8410TIP3   OH246720   6.585   3.287  10.297  0.5620 -0.0273 -0.5514
 8410TIP3    H146721   6.503   3.290  10.346  0.5430 -0.3799 -0.5625
 8410TIP3    H246722   6.591   3.198  10.264  0.8876  0.0318 -0.6617
 8411TIP3   OH246723   6.102   6.509  11.211  0.5380  0.2095  0.6210
 8411TIP3    H146724   6.111   6.440  11.276 -0.3579 -0.0367  0.4930
 8411TIP3    H246725   6.028   6.482  11.157  0.7588  0.8133 -0.0027
 8412TIP3   OH246726   3.942   0.097  17.086  0.0497  0.1265 -0.1747
 8412TIP3    H146727   3.921   0.155  17.159 -1.2473  0.2913 -0.6539
 8412TIP3    H246728   3.943   0.155  17.010  2.4918  0.1651 -0.1911
 8413TIP3   OH246729   1.514   6.046   0.340  0.5393 -0.6853 -0.3443
 8413TIP3    H146730   1.474   6.029   0.425 -0.4281 -0.8757 -0.8197
 8413TIP3    H246731   1.588   5.986   0.335  0.2334 -1.1020  0.1106
 8414TIP3   OH246732   1.075   3.935   0.747  0.1198 -0.0759 -0.3390
 8414TIP3    H146733   1.021   3.873   0.698  0.2714 -0.8273  0.4287
 8414TIP3    H246734   1.077   4.013   0.692 -2.5188  0.3293  0.0435
 8415TIP3   OH246735   6.679   6.642   4.862  0.5360 -0.6809  0.1519
 8415TIP3    H146736   6.755   6.628   4.806  0.8343  2.5033 -0.4467
 8415TIP3    H246737   6.694   6.728   4.902 -3.2420  0.7513 -0.9744
 8416TIP3   OH246738   3.149   0.917  11.860 -0.1984 -0.4607  0.0070
 8416TIP3    H146739   3.063   0.931  11.820 -0.3665 -2.2995 -0.3878
 8416TIP3    H246740   3.212   0.941  11.791 -0.3091  1.7537  0.5914
 8417TIP3   OH246741   5.635   0.782   0.265 -0.1511  0.4272  0.0580
 8417TIP3    H146742   5.665   0.789   0.174  1.0013  0.4950  0.4279
 8417TIP3    H246743   5.557   0.726   0.260 -0.5356  1.0248 -1.0542
 8418TIP3   OH246744   4.557   2.694   1.062 -0.0111 -0.1496 -0.2603
 8418TIP3    H146745   4.641   2.686   1.108  0.0888 -0.2509 -0.4544
 8418TIP3    H246746   4.535   2.787   1.067 -0.8222 -0.4134  1.4039
 8419TIP3   OH246747   3.660   1.667  16.531 -1.0740  0.0585  0.1120
 8419TIP3    H146748   3.656   1.690  16.438 -1.2222  2.4353  0.6449
 8419TIP3    H246749   3.754   1.660  16.549 -0.9088  2.1505  0.2928
 8420TIP3   OH246750   3.017   0.613  16.218  0.1106 -0.3676  0.1801
 8420TIP3    H146751   3.100   0.609  16.267 -1.2889  0.4265  2.8032
 8420TIP3    H246752   2.966   0.540  16.253 -1.2115  0.6745  0.4889
 8421TIP3   OH246753   2.784   1.484   2.260 -0.5368 -0.4606 -0.2400
 8421TIP3    H146754   2.698   1.499   2.222 -0.7377  0.2658  0.4872
 8421TIP3    H246755   2.845   1.513   2.192 -0.8904  0.4387 -0.1865
 8422TIP3   OH246756   3.752   5.624   0.868  0.5346  0.4197  0.0012
 8422TIP3    H146757   3.660   5.611   0.845  0.2047  2.3618  0.0013
 8422TIP3    H246758   3.753   5.621   0.963 -0.1115  3.2117  0.1812
 8423TIP3   OH246759   3.711   0.018   6.063  0.7671 -0.6230  0.4064
 8423TIP3    H146760   3.750   0.093   6.108  0.9148 -0.8451  0.6530
 8423TIP3    H246761   3.648   0.056   6.002  1.0245 -0.2863  0.3482
 8424TIP3   OH246762   6.110   0.773  13.748 -0.5708  0.4674 -0.3461
 8424TIP3    H146763   6.159   0.696  13.775 -3.6112 -1.5113  0.0224
 8424TIP3    H246764   6.138   0.790  13.659  1.3246 -0.0059  0.1228
 8425TIP3   OH246765   0.064   3.604  14.633 -0.6300 -0.1676 -0.2992
 8425TIP3    H146766   0.076   3.639  14.722  1.5812 -2.2570  0.3230
 8425TIP3    H246767   0.088   3.676  14.576  0.3311  0.4606  0.8510
 8426TIP3   OH246768   6.710   1.763   1.647 -0.2226  0.4626  0.0316
 8426TIP3    H146769   6.643   1.827   1.623  0.3807  1.5769  1.2032
 8426TIP3    H246770   6.730   1.782   1.739 -0.0837 -1.4846  0.4551
 8427TIP3   OH246771   5.949   5.700   1.988  0.2608  0.2440 -0.0188
 8427TIP3    H146772   6.014   5.649   1.939  0.3242 -0.5676  0.8708
 8427TIP3    H246773   5.963   5.790   1.960  1.0422 -0.0646 -0.6514
 8428TIP3   OH246774   3.132   2.835  14.485  0.1735  0.4503 -0.3753
 8428TIP3    H146775   3.172   2.803  14.565  1.6095  0.3742 -1.0958
 8428TIP3    H246776   3.106   2.925  14.505 -2.4177 -0.5219  1.1466
 8429TIP3   OH246777   4.197   0.653  10.839  0.0444  0.4927  0.5475
 8429TIP3    H146778   4.278   0.628  10.795 -0.3718 -0.0537  0.0592
 8429TIP3    H246779   4.135   0.666  10.767 -0.9252 -1.3920  0.9688
 8430TIP3   OH246780   3.882   1.498  13.793  0.3125  0.2559 -0.1469
 8430TIP3    H146781   3.795   1.459  13.790  0.3973 -0.3348  2.6608
 8430TIP3    H246782   3.919   1.481  13.706 -0.6938 -3.5030  0.0035
 8431TIP3   OH246783   2.814   1.939   5.846  0.1911  0.0152 -0.6096
 8431TIP3    H146784   2.818   1.852   5.886 -2.0877  1.2183  2.6535
 8431TIP3    H246785   2.747   1.931   5.778 -0.2020 -0.7337 -0.1439
 8432TIP3   OH246786   6.279   3.641  15.501 -0.0271 -0.0357  0.0098
 8432TIP3    H146787   6.341   3.686  15.558 -0.8198  1.1620 -0.0510
 8432TIP3    H246788   6.303   3.670  15.412 -0.0175 -0.3946 -0.1081
 8433TIP3   OH246789   5.249   4.789  13.956 -0.1790  0.2286  0.9042
 8433TIP3    H146790   5.197   4.864  13.925  0.0332  0.3209  0.7679
 8433TIP3    H246791   5.185   4.719  13.970 -0.1393 -0.2207 -0.9668
 8434TIP3   OH246792   5.871   3.110  11.316  0.3815  0.3881 -0.1464
 8434TIP3    H146793   5.880   3.126  11.223  1.5616  0.3037 -0.0630
 8434TIP3    H246794   5.903   3.020  11.328 -0.5559  0.0803  0.2360
 8435TIP3   OH246795   4.774   2.012   0.413  0.3174  0.4852 -0.8085
 8435TIP3    H146796   4.691   1.992   0.456  0.5316 -1.2005 -1.1147
 8435TIP3    H246797   4.778   2.108   0.412 -1.1645  0.5851  0.0630
 8436TIP3   OH246798   2.835   2.813   4.277  0.1102  0.1891  0.8822
 8436TIP3    H146799   2.906   2.857   4.230  1.1126  0.5505  2.6376
 8436TIP3    H246800   2.757   2.833   4.226  1.2516 -0.2917 -1.1562
 8437TIP3   OH246801   4.857   4.505   3.867 -0.0530 -0.8977 -0.5767
 8437TIP3    H146802   4.799   4.469   3.934 -0.3253 -0.9565 -0.8431
 8437TIP3    H246803   4.905   4.575   3.912  0.7870 -1.8631  0.0600
 8438TIP3   OH246804   3.671   3.746   4.427  1.1169 -0.3966  0.5898
 8438TIP3    H146805   3.611   3.810   4.464  1.1459 -0.2665  0.4112
 8438TIP3    H246806   3.651   3.665   4.474  0.0904 -0.6076 -0.1743
 8439TIP3   OH246807   0.344   6.124   3.215 -0.6503 -0.1990 -0.3742
 8439TIP3    H146808   0.276   6.189   3.236 -0.0411  0.2145  0.3607
 8439TIP3    H246809   0.386   6.159   3.137  0.8140  1.2254  0.9915
 8440TIP3   OH246810   5.930   4.845  16.957 -0.0856 -0.3529  0.0505
 8440TIP3    H146811   5.854   4.903  16.960 -1.3081 -1.6652 -2.4198
 8440TIP3    H246812   6.000   4.895  16.998 -1.1986  2.6610 -1.4549
 8441TIP3   OH246813   5.970   0.790  15.809 -0.5181 -0.3359  1.2814
 8441TIP3    H146814   5.879   0.809  15.832 -0.2296  2.2837  0.5940
 8441TIP3    H246815   6.020   0.856  15.856  0.8707 -0.5579  0.1691
 8442TIP3   OH246816   2.712   2.324  11.498  0.3379 -0.6020 -0.2452
 8442TIP3    H146817   2.658   2.380  11.441  0.0812  0.9856  1.4594
 8442TIP3    H246818   2.649   2.285  11.558  0.8654 -0.1798  0.5945
 8443TIP3   OH246819   1.767   6.748  12.850  0.5050 -0.2088  0.0534
 8443TIP3    H146820   1.781   6.777  12.940 -0.3080  0.5907 -0.0643
 8443TIP3    H246821   1.691   6.797  12.821  0.9805 -0.1857 -1.1978
 8444TIP3   OH246822   5.839   0.812   5.576  0.1190 -0.2031  0.0885
 8444TIP3    H146823   5.906   0.779   5.517 -0.8250 -0.0422 -1.1213
 8444TIP3    H246824   5.866   0.784   5.663  0.9212 -1.4967 -0.5651
 8445TIP3   OH246825   2.264   0.838  12.698  0.3445  0.0837 -0.8078
 8445TIP3    H146826   2.248   0.765  12.637  0.9268  1.3384 -2.5598
 8445TIP3    H246827   2.197   0.828  12.765 -0.1653 -1.5412 -1.4932
 8446TIP3   OH246828   3.033   1.768   2.181 -0.4084  0.2079 -0.2941
 8446TIP3    H146829   2.960   1.740   2.125  0.3414  0.3001 -1.3322
 8446TIP3    H246830   3.109   1.720   2.148  0.1706  0.7176  0.2689
 8447TIP3   OH246831   3.903   4.931   4.072 -0.4984  0.5714  0.0863
 8447TIP3    H146832   3.979   4.880   4.043 -1.1101 -0.0913 -0.3972
 8447TIP3    H246833   3.939   4.998   4.129  0.6781  1.4957 -1.6724
 8448TIP3   OH246834   4.853   5.092   2.072 -0.5118 -0.0344 -0.5003
 8448TIP3    H146835   4.781   5.081   2.134 -0.3636 -0.6076 -0.4290
 8448TIP3    H246836   4.838   5.026   2.005  0.1466 -0.4050 -0.2936
 8449TIP3   OH246837   6.632   0.296   5.216  0.4234  0.0597  0.3313
 8449TIP3    H146838   6.543   0.276   5.187 -0.2348 -0.2697  2.4213
 8449TIP3    H246839   6.630   0.390   5.235  0.6615  0.1390 -0.0185
 8450TIP3   OH246840   2.860   4.360   0.280  0.5551 -0.4442  0.5224
 8450TIP3    H146841   2.950   4.372   0.247  0.1587  2.8317  0.3419
 8450TIP3    H246842   2.871   4.351   0.375  1.0275  2.3982  0.8189
 8451TIP3   OH246843   4.322   0.835   2.471 -0.4080 -0.3930 -0.1232
 8451TIP3    H146844   4.400   0.799   2.513 -0.1710  0.7738  0.4820
 8451TIP3    H246845   4.314   0.786   2.389  1.7899  0.3965 -0.8895
 8452TIP3   OH246846   4.824   2.838  15.437  0.3575  0.0376  0.0650
 8452TIP3    H146847   4.889   2.767  15.438 -0.7114 -1.0502  2.8745
 8452TIP3    H246848   4.756   2.807  15.377  0.9733 -0.2390 -0.4979
 8453TIP3   OH246849   5.288   3.644  13.880 -0.0780 -0.3875  0.1265
 8453TIP3    H146850   5.317   3.563  13.922  0.3130 -0.7169 -0.7453
 8453TIP3    H246851   5.354   3.661  13.813 -0.6460  0.1532 -0.3118
 8454TIP3   OH246852   6.773   1.897  11.539 -0.4253  0.3028 -0.4349
 8454TIP3    H146853   6.727   1.909  11.456 -0.9204  0.1350 -0.1882
 8454TIP3    H246854   6.748   1.974  11.591 -1.1602 -0.2423  0.0308
 8455TIP3   OH246855   6.805   5.361  13.152 -0.0990 -0.4921  0.3386
 8455TIP3    H146856   6.716   5.352  13.186  0.1357 -2.0612  0.5970
 8455TIP3    H246857   6.847   5.424  13.211 -0.5508 -1.0144  1.2411
 8456TIP3   OH246858   4.144   1.566   2.985 -0.3726 -0.2456 -0.3813
 8456TIP3    H146859   4.235   1.592   2.995 -0.8962  1.0658  1.5752
 8456TIP3    H246860   4.141   1.474   3.012  0.6037 -0.8364 -2.1329
 8457TIP3   OH246861   2.947   4.297   2.171  0.2929  0.3747  0.7667
 8457TIP3    H146862   2.956   4.213   2.127 -1.1364  1.9799 -3.0469
 8457TIP3    H246863   2.898   4.278   2.250 -2.8997 -2.1051 -1.5481
 8458TIP3   OH246864   1.799   6.557   0.350  0.1847 -0.7000 -0.5144
 8458TIP3    H146865   1.803   6.464   0.325  0.3789 -0.7237 -0.3960
 8458TIP3    H246866   1.755   6.599   0.276  0.5783 -0.8015 -0.8120
 8459TIP3   OH246867   4.147   2.911   1.122 -0.3647 -0.0938 -0.3843
 8459TIP3    H146868   4.081   2.842   1.122 -2.3303  1.7086 -1.4956
 8459TIP3    H246869   4.203   2.889   1.197 -0.8505 -2.8880 -0.7262
 8460TIP3   OH246870   4.256   1.594   5.705  0.3054 -0.0628 -0.3819
 8460TIP3    H146871   4.235   1.675   5.659  0.8928 -0.6834 -1.8362
 8460TIP3    H246872   4.324   1.553   5.650 -0.5776 -1.9278 -0.1628
 8461TIP3   OH246873   1.120   6.819  13.641 -0.5928 -0.2058  0.3243
 8461TIP3    H146874   1.051   6.754  13.627 -0.8148 -0.4147  2.0888
 8461TIP3    H246875   1.190   6.792  13.582 -1.5520 -0.7046 -0.6214
 8462TIP3   OH246876   6.160   3.084   2.362 -0.1713 -0.0143 -0.4556
 8462TIP3    H146877   6.131   3.036   2.284 -1.8645 -2.0803  1.2959
 8462TIP3    H246878   6.168   3.016   2.429  0.7608  1.7431  1.2958
 8463TIP3   OH246879   3.783   1.570  13.500  0.3051 -0.2034 -0.0685
 8463TIP3    H146880   3.783   1.644  13.560 -1.5460 -0.9738  0.9727
 8463TIP3    H246881   3.691   1.552  13.483  0.5207 -3.5534  1.4327
 8464TIP3   OH246882   0.238   4.312  11.090 -0.0784 -0.0114 -0.2247
 8464TIP3    H146883   0.201   4.400  11.090  1.0374  0.4999 -1.7031
 8464TIP3    H246884   0.253   4.293  11.183 -0.8291  1.1344  0.1603
 8465TIP3   OH246885   0.302   5.117  11.922  0.5619 -0.0448 -0.0330
 8465TIP3    H146886   0.333   5.206  11.907  0.6613 -0.3581 -1.9622
 8465TIP3    H246887   0.210   5.119  11.894  0.8909 -0.8023 -1.2373
 8466TIP3   OH246888   5.989   6.628  15.962  0.0249 -0.1395  0.3819
 8466TIP3    H146889   6.077   6.665  15.961  0.7794 -1.8482  0.7508
 8466TIP3    H246890   5.962   6.635  16.054 -0.7787  1.5360  0.0617
 8467TIP3   OH246891   0.603   5.150   1.921  0.1814 -0.0536  0.0418
 8467TIP3    H146892   0.696   5.129   1.933  0.1446 -0.0898  0.2806
 8467TIP3    H246893   0.557   5.083   1.972 -0.0232 -0.7325 -1.0255
 8468TIP3   OH246894   5.200   6.366  11.733  0.4816  0.2820  0.4626
 8468TIP3    H146895   5.178   6.438  11.791  0.0619  2.4874 -2.2268
 8468TIP3    H246896   5.288   6.387  11.701 -0.3736  0.6710 -1.7787
 8469TIP3   OH246897   0.693   2.316  14.336  0.5406  0.4014 -0.7174
 8469TIP3    H146898   0.779   2.322  14.295  0.4052  4.0582 -0.8158
 8469TIP3    H246899   0.631   2.324  14.263  0.2739  3.1056 -0.3067
 8470TIP3   OH246900   1.402   3.137  15.196 -0.4877  0.0357 -0.3051
 8470TIP3    H146901   1.361   3.152  15.282  1.2373  2.0056  0.2668
 8470TIP3    H246902   1.347   3.187  15.135 -0.3019  0.7506  0.0909
 8471TIP3   OH246903   2.988   4.052  13.502 -0.2697 -0.1439  0.2320
 8471TIP3    H146904   2.937   4.102  13.439  0.2298  0.1911  0.0862
 8471TIP3    H246905   2.956   4.081  13.587 -0.8139 -0.4589  0.1415
 8472TIP3   OH246906   6.002   2.558   5.478 -0.5067 -0.3816 -0.2350
 8472TIP3    H146907   6.074   2.592   5.531 -1.1472  1.1991 -0.3246
 8472TIP3    H246908   6.044   2.521   5.400  0.1767  2.2102 -1.2019
 8473TIP3   OH246909   2.142   3.810  17.053  0.3377 -0.2872  0.2618
 8473TIP3    H146910   2.208   3.866  17.093  1.3361 -1.8937  0.9941
 8473TIP3    H246911   2.078   3.795  17.122  0.2560 -0.3279  0.1786
 8474TIP3   OH246912   3.287   3.770  16.965  0.2714  0.3235  0.0467
 8474TIP3    H146913   3.195   3.753  16.986  0.2999 -0.5720 -0.4963
 8474TIP3    H246914   3.284   3.846  16.906 -0.4543 -1.6665 -2.6712
 8475TIP3   OH246915   5.558   4.395  16.047  0.1896 -0.2809 -0.0662
 8475TIP3    H146916   5.489   4.354  16.098  0.6126 -0.6351  0.2315
 8475TIP3    H246917   5.517   4.416  15.963 -0.9035  1.5695  0.8718
 8476TIP3   OH246918   2.124   0.204  13.846  0.4226  0.0541  0.3237
 8476TIP3    H146919   2.038   0.163  13.835  1.1434 -1.3130 -0.4150
 8476TIP3    H246920   2.167   0.150  13.912  1.0076  0.2504  0.1040
 8477TIP3   OH246921   1.971   5.818   1.517  0.1044  0.3157  0.0377
 8477TIP3    H146922   1.880   5.807   1.542 -0.8394  1.3152 -2.5919
 8477TIP3    H246923   2.016   5.741   1.553 -1.8252 -0.3903  1.0435
 8478TIP3   OH246924   6.303   2.512   4.241  0.2113  0.1183 -0.7461
 8478TIP3    H146925   6.236   2.571   4.276  0.6481 -0.2481  0.7638
 8478TIP3    H246926   6.386   2.553   4.265  0.5231 -0.9823  0.1163
 8479TIP3   OH246927   4.418   5.060  13.717  0.2863 -0.5862 -0.1345
 8479TIP3    H146928   4.358   5.112  13.770 -0.0224 -2.1731  1.1618
 8479TIP3    H246929   4.371   5.043  13.635 -1.0127 -1.6501  0.7885
 8480TIP3   OH246930   5.549   2.534  16.517  0.1315  0.5701  0.8342
 8480TIP3    H146931   5.561   2.495  16.431  0.8699  1.2226  0.6373
 8480TIP3    H246932   5.483   2.602  16.503 -0.0652  0.3936  0.8820
 8481TIP3   OH246933   5.031   0.792  16.213 -0.0511 -0.2655 -0.0924
 8481TIP3    H146934   5.124   0.814  16.203  0.2763 -1.8782 -0.8170
 8481TIP3    H246935   4.987   0.877  16.214  1.4802  0.5657  0.9560
 8482TIP3   OH246936   3.856   3.648  13.444 -0.1567 -0.0622  0.6090
 8482TIP3    H146937   3.916   3.689  13.508  0.1916  1.0457 -0.3819
 8482TIP3    H246938   3.803   3.721  13.413  0.5354 -0.3218 -1.2857
 8483TIP3   OH246939   4.220   1.863   0.097 -0.2512 -0.2401  0.3829
 8483TIP3    H146940   4.182   1.908   0.173  0.8191  1.7240 -0.1636
 8483TIP3    H246941   4.246   1.934   0.038 -0.1282 -1.6768 -1.3924
 8484TIP3   OH246942   0.150   2.641   2.093 -0.5615 -0.1600  0.1411
 8484TIP3    H146943   0.220   2.698   2.061 -1.4565  1.0999  0.3331
 8484TIP3    H246944   0.187   2.553   2.089  0.8092  0.4052 -0.3410
 8485TIP3   OH246945   5.811   3.962  12.708  0.2788  0.1882 -0.0236
 8485TIP3    H146946   5.838   3.884  12.659  0.5151  1.5688 -2.2477
 8485TIP3    H246947   5.887   3.985  12.761  1.3780  0.6350 -1.7256
 8486TIP3   OH246948   3.201   4.956  14.881 -0.4015 -0.1382 -0.6654
 8486TIP3    H146949   3.219   4.907  14.961 -0.9601  0.1479 -0.3550
 8486TIP3    H246950   3.131   5.017  14.906  1.7400  2.3863 -0.4216
 8487TIP3   OH246951   4.436   3.431  15.420  0.1028  0.4257  0.3234
 8487TIP3    H146952   4.398   3.356  15.376  1.0899 -0.5985  1.1653
 8487TIP3    H246953   4.530   3.416  15.417  0.5288  2.8270 -1.5894
 8488TIP3   OH246954   2.764   2.909  14.827  0.5688 -0.2641  0.3803
 8488TIP3    H146955   2.691   2.949  14.780  0.5708 -0.2260  0.4103
 8488TIP3    H246956   2.733   2.902  14.917  0.8675  0.4045  0.5408
 8489TIP3   OH246957   5.955   0.153   1.949  0.1120  0.0563  0.5147
 8489TIP3    H146958   5.899   0.139   2.025  1.7766  0.4252  1.8733
 8489TIP3    H246959   5.977   0.065   1.919  1.2845 -0.1500  1.9072
 8490TIP3   OH246960   2.679   4.249   1.631  0.2546  0.2799  0.3068
 8490TIP3    H146961   2.754   4.214   1.584 -0.6415 -1.5194  0.1361
 8490TIP3    H246962   2.679   4.202   1.715 -0.3579  0.6806  0.5372
 8491TIP3   OH246963   6.267   4.177  11.731  0.1132  0.0004 -0.5517
 8491TIP3    H146964   6.174   4.179  11.755 -0.4706 -0.1373 -2.6495
 8491TIP3    H246965   6.280   4.255  11.677  1.3137  0.1747 -0.0579
 8492TIP3   OH246966   6.444   4.421   2.547 -0.5803  0.0536 -0.0910
 8492TIP3    H146967   6.389   4.459   2.615 -1.8206 -0.1140 -0.9469
 8492TIP3    H246968   6.399   4.443   2.465  1.4035  1.1371 -0.9488
 8493TIP3   OH246969   6.365   2.700   3.287  0.3119 -0.4214  0.5352
 8493TIP3    H146970   6.374   2.673   3.196  1.5720  1.7626 -0.0435
 8493TIP3    H246971   6.271   2.696   3.304 -0.3630  2.1168 -1.8842
 8494TIP3   OH246972   3.695   3.365   1.792  0.0859 -0.1411  0.4136
 8494TIP3    H146973   3.743   3.442   1.824  0.3121 -0.6927  1.4451
 8494TIP3    H246974   3.647   3.334   1.868 -2.5149  0.7844 -0.7600
 8495TIP3   OH246975   3.068   1.965  15.104 -0.1244 -0.6504 -0.0596
 8495TIP3    H146976   3.137   1.998  15.162  0.1938 -0.9221 -0.2764
 8495TIP3    H246977   3.020   2.043  15.077 -0.8271 -0.5890  1.2449
 8496TIP3   OH246978   0.100   1.708   5.800  0.4538  0.3810 -0.1573
 8496TIP3    H146979   0.019   1.704   5.750  1.0926 -1.4304 -1.1352
 8496TIP3    H246980   0.119   1.617   5.823  1.3868  0.9382  1.4319
 8497TIP3   OH246981   3.805   2.399   1.007  0.0756  0.2627  0.5573
 8497TIP3    H146982   3.755   2.478   1.028  0.9436  1.3990 -1.3481
 8497TIP3    H246983   3.794   2.389   0.912  1.4937 -0.8277  0.4826
 8498TIP3   OH246984   6.329   1.645   6.020  0.0366 -0.9320 -0.1388
 8498TIP3    H146985   6.338   1.558   6.057 -1.0517 -1.8583 -1.9188
 8498TIP3    H246986   6.256   1.684   6.068  1.0242 -0.6400  1.2044
 8499TIP3   OH246987   2.497   5.490  11.459  0.7261  0.1195  0.0699
 8499TIP3    H146988   2.589   5.471  11.478  0.8863  0.4055 -0.4064
 8499TIP3    H246989   2.493   5.585  11.450 -0.0348  0.3510  2.2358
 8500TIP3   OH246990   4.965   1.006   3.424 -0.2474  0.2451 -0.1978
 8500TIP3    H146991   4.978   0.922   3.380  0.0426 -0.8779  1.8914
 8500TIP3    H246992   5.014   1.069   3.371  2.6091 -1.5533  0.1038
 8501TIP3   OH246993   0.584   6.155  15.397 -0.1276 -0.6723 -0.7348
 8501TIP3    H146994   0.608   6.244  15.371 -0.0100 -0.4159  0.2344
 8501TIP3    H246995   0.642   6.134  15.470 -1.5284 -0.7542  0.4065
 8502TIP3   OH246996   6.422   1.821   4.629 -0.0700  0.2360 -0.1385
 8502TIP3    H146997   6.502   1.834   4.680 -0.1706 -1.9388  0.6609
 8502TIP3    H246998   6.441   1.863   4.545  2.5511 -1.5103 -0.5416
 8503TIP3   OH246999   4.775   1.681   6.068  0.2927 -0.1567  0.4416
 8503TIP3    H147000   4.787   1.714   6.157  0.5860 -0.7599  0.6289
 8503TIP3    H247001   4.695   1.628   6.073  1.9220 -2.7342  1.1078
 8504TIP3   OH247002   1.248   4.529  14.161  0.3923  0.1782 -0.4137
 8504TIP3    H147003   1.159   4.537  14.126 -0.1710  1.6538  1.1988
 8504TIP3    H247004   1.305   4.533  14.084 -0.8350  1.7944 -1.2911
 8505TIP3   OH247005   3.140   1.388   6.470  0.5049  0.6233  0.1528
 8505TIP3    H147006   3.186   1.467   6.499  1.5344  0.7200 -1.5984
 8505TIP3    H247007   3.088   1.417   6.396  1.7078 -0.5170 -1.1870
 8506TIP3   OH247008   4.014   5.310   5.419 -0.1158  0.4850 -0.1150
 8506TIP3    H147009   4.055   5.321   5.505 -1.2301 -1.5671  0.7653
 8506TIP3    H247010   3.921   5.297   5.439 -0.3039 -0.6468 -1.5457
 8507TIP3   OH247011   5.656   1.378   4.893  0.5063 -0.2279  0.1312
 8507TIP3    H147012   5.561   1.372   4.899  0.5120  0.6499  1.3757
 8507TIP3    H247013   5.672   1.446   4.827  0.3119 -1.3326 -1.0975
 8508TIP3   OH247014   4.251   5.480  11.930 -0.3654 -0.2661  0.5536
 8508TIP3    H147015   4.343   5.464  11.952  0.2536  1.5086 -0.4949
 8508TIP3    H247016   4.202   5.426  11.992  1.3647 -0.3000  2.0006
 8509TIP3   OH247017   3.574   3.804  12.150 -0.2570 -0.5242 -0.5408
 8509TIP3    H147018   3.576   3.808  12.055 -1.7894 -3.1591 -0.7761
 8509TIP3    H247019   3.494   3.754  12.170  0.1554 -0.2483  2.1084
 8510TIP3   OH247020   0.455   2.034   4.696  0.8268  0.0745  0.2717
 8510TIP3    H147021   0.506   2.093   4.752 -1.2192  2.1300  0.1230
 8510TIP3    H247022   0.394   2.092   4.649 -1.3594 -2.1552  0.1476
 8511TIP3   OH247023   3.256   1.216  11.916 -0.0171 -0.2199  0.2709
 8511TIP3    H147024   3.169   1.253  11.933 -0.4054 -0.7660 -0.4326
 8511TIP3    H247025   3.252   1.189  11.824  0.9313 -0.1758  0.2101
 8512TIP3   OH247026   0.748   3.214  13.865  0.0378 -0.1176  0.2245
 8512TIP3    H147027   0.826   3.267  13.844  0.7326 -0.8798  0.8345
 8512TIP3    H247028   0.681   3.279  13.885 -0.0353  0.6173 -2.0679
 8513TIP3   OH247029   0.072   1.171  12.819  0.1226 -0.0624  0.0329
 8513TIP3    H147030   0.090   1.098  12.878 -0.8228  0.6358  1.2449
 8513TIP3    H247031   0.091   1.137  12.732  2.4963 -0.8405  0.7858
 8514TIP3   OH247032   4.411   1.347   0.700  0.3866  0.2974 -0.0065
 8514TIP3    H147033   4.383   1.280   0.639 -1.4471  0.8796  0.1398
 8514TIP3    H247034   4.504   1.361   0.680  0.7652 -2.0790 -0.1732
 8515TIP3   OH247035   3.192   5.720   1.973  0.6474 -0.2910  0.2016
 8515TIP3    H147036   3.244   5.793   2.008 -1.5398  0.3768  2.3764
 8515TIP3    H247037   3.102   5.755   1.970 -0.5315 -2.9116  1.6275
 8516TIP3   OH247038   4.466   2.091   3.197 -0.2606  0.2663  0.1180
 8516TIP3    H147039   4.493   2.051   3.280  1.2793  0.8953 -0.0563
 8516TIP3    H247040   4.379   2.127   3.216 -0.4389 -0.6111  1.1054
 8517TIP3   OH247041   0.416   2.511   4.874  0.0519 -0.2312  0.4410
 8517TIP3    H147042   0.348   2.452   4.840  1.0670 -1.3123  0.2242
 8517TIP3    H247043   0.399   2.515   4.968  0.5582 -1.7146  0.6286
 8518TIP3   OH247044   2.066   4.460  12.489 -0.1942 -0.5864  0.6132
 8518TIP3    H147045   2.055   4.490  12.579  1.5978 -0.0587  0.7041
 8518TIP3    H247046   2.161   4.462  12.475 -0.3701 -1.5940 -0.9767
 8519TIP3   OH247047   5.867   5.972   0.788  0.0702 -0.4676 -0.6670
 8519TIP3    H147048   5.961   5.954   0.782 -0.2814 -3.0388  0.0638
 8519TIP3    H247049   5.826   5.893   0.752 -1.8346  0.5606 -0.8884
 8520TIP3   OH247050   1.150   2.541   3.202 -0.1477  0.0828  0.0992
 8520TIP3    H147051   1.221   2.600   3.227 -0.6521  1.1907 -0.9847
 8520TIP3    H247052   1.194   2.465   3.163  0.4812  0.1149  0.7336
 8521TIP3   OH247053   4.529   0.433  12.804  0.0282 -0.3462  0.0084
 8521TIP3    H147054   4.574   0.449  12.887  0.1870 -0.2689 -0.0911
 8521TIP3    H247055   4.589   0.378  12.754  0.6306  0.8644 -0.6565
 8522TIP3   OH247056   3.589   5.694  16.707  0.7154 -0.5773  0.1243
 8522TIP3    H147057   3.532   5.696  16.784  2.3958 -2.1099  1.4782
 8522TIP3    H247058   3.671   5.732  16.738  1.1032 -0.2720 -1.2342
 8523TIP3   OH247059   3.544   4.781  14.031  0.3336  0.8094  0.2486
 8523TIP3    H147060   3.551   4.713  13.964 -0.4108  1.3797 -0.4310
 8523TIP3    H247061   3.484   4.744  14.096  1.3094  0.1250  0.7896
 8524TIP3   OH247062   6.163   5.131  11.458  1.1049 -0.3547  0.8953
 8524TIP3    H147063   6.077   5.092  11.439 -0.2937  2.2884  1.3351
 8524TIP3    H247064   6.220   5.097  11.389 -1.1987  0.5302 -1.6453
 8525TIP3   OH247065   3.403   2.728   5.741  0.1775  0.4407 -0.0840
 8525TIP3    H147066   3.358   2.675   5.806  0.8177 -2.2230 -1.6719
 8525TIP3    H247067   3.447   2.796   5.792 -0.0122 -1.0156  2.1589
 8526TIP3   OH247068   4.881   0.732  14.225  0.1778 -0.1626 -0.4063
 8526TIP3    H147069   4.904   0.819  14.193  0.1500  0.2895  0.7494
 8526TIP3    H247070   4.946   0.674  14.185 -0.4862  0.1871 -2.1056
 8527TIP3   OH247071   3.936   3.661   1.375  0.0202  0.3708  0.1043
 8527TIP3    H147072   3.911   3.599   1.307  0.1632  1.5346 -1.0328
 8527TIP3    H247073   3.858   3.714   1.391  0.1090  0.3705  0.5798
 8528TIP3   OH247074   1.429   5.077  12.296 -0.5822  0.2880  0.4303
 8528TIP3    H147075   1.437   5.160  12.342  2.5699  0.4795 -0.2479
 8528TIP3    H247076   1.460   5.095  12.207 -0.4992 -1.4647  0.0579
 8529TIP3   OH247077   5.771   1.189   0.385  0.0297  0.2868  0.1534
 8529TIP3    H147078   5.741   1.112   0.433  0.1871  0.1563  0.0446
 8529TIP3    H247079   5.691   1.239   0.367 -0.0299  0.3342  0.5428
 8530TIP3   OH247080   0.063   5.199   4.398 -0.3852  0.0317  0.2549
 8530TIP3    H147081   0.054   5.107   4.370  0.7988 -0.3451  1.0823
 8530TIP3    H247082   0.071   5.195   4.493  2.0850  0.7696  0.1439
 8531TIP3   OH247083   2.550   5.257   1.204  0.4399  0.4269  0.1324
 8531TIP3    H147084   2.484   5.187   1.203 -0.6528  1.4431 -0.3302
 8531TIP3    H247085   2.501   5.336   1.227  1.4507  1.2592 -0.5226
 8532TIP3   OH247086   0.775   5.343  14.472 -0.3239 -0.0517  0.7406
 8532TIP3    H147087   0.775   5.406  14.544  1.3108  0.7046  0.1161
 8532TIP3    H247088   0.802   5.393  14.396  0.2115 -1.3370  0.0519
 8533TIP3   OH247089   6.367   1.311   2.520  0.0379  0.2152 -1.0454
 8533TIP3    H147090   6.350   1.402   2.544  3.4271  0.8124 -0.4037
 8533TIP3    H247091   6.387   1.314   2.426 -0.4454  0.0048 -1.1600
 8534TIP3   OH247092   1.881   2.246  10.744 -0.2029 -0.4863  0.1327
 8534TIP3    H147093   1.811   2.261  10.680  0.6143  0.5368 -0.5524
 8534TIP3    H247094   1.958   2.289  10.706  0.4997 -0.5398  1.4433
 8535TIP3   OH247095   5.485   5.085  14.697  0.4709 -0.0398 -0.1533
 8535TIP3    H147096   5.505   5.080  14.791  1.6575  0.3591 -0.3729
 8535TIP3    H247097   5.486   4.994  14.667  0.0996 -0.1683  0.2025
 8536TIP3   OH247098   1.291   2.357   3.060  0.3579  0.6011  0.3832
 8536TIP3    H147099   1.290   2.298   2.984 -1.2391  1.7034 -0.5088
 8536TIP3    H247100   1.376   2.402   3.054  1.6399 -1.5627  1.1228
 8537TIP3   OH247101   6.507   2.507   3.848  0.0703  0.1854 -0.3913
 8537TIP3    H147102   6.427   2.505   3.901  0.5648 -0.0101  0.3605
 8537TIP3    H247103   6.476   2.508   3.757 -0.7801 -1.3858 -0.1510
 8538TIP3   OH247104   5.923   0.782  11.622  0.5297  0.2373 -0.7408
 8538TIP3    H147105   5.958   0.760  11.536 -0.5254  0.4320 -1.2468
 8538TIP3    H247106   5.869   0.706  11.646  1.4255 -0.1526  0.1152
 8539TIP3   OH247107   1.467   1.976  13.921 -0.7165 -0.1203  0.2533
 8539TIP3    H147108   1.470   1.988  13.826 -1.1754 -1.2822  0.0766
 8539TIP3    H247109   1.486   2.063  13.956  0.9996  0.0339 -0.8905
 8540TIP3   OH247110   1.272   1.146   2.335 -0.5996 -0.4081 -0.0175
 8540TIP3    H147111   1.290   1.053   2.342  1.0107 -0.1866 -0.7669
 8540TIP3    H247112   1.237   1.157   2.247 -3.2934 -0.6235  0.9385
 8541TIP3   OH247113   0.306   4.617   1.998 -0.6830  0.7381  0.5177
 8541TIP3    H147114   0.372   4.571   2.050  0.4071 -0.1230 -1.4925
 8541TIP3    H247115   0.327   4.594   1.907 -0.0366  5.2345 -0.6993
 8542TIP3   OH247116   5.104   3.681   0.822  0.3620  0.0046  0.4360
 8542TIP3    H147117   5.196   3.655   0.811  1.5941  2.9742  2.3344
 8542TIP3    H247118   5.085   3.664   0.914 -1.4691 -1.6513 -0.1803
 8543TIP3   OH247119   5.778   2.962  13.349 -0.1885 -0.3537 -0.2766
 8543TIP3    H147120   5.697   2.910  13.358 -0.3974 -0.0977 -0.6358
 8543TIP3    H247121   5.760   3.019  13.275  0.2716 -0.1890 -0.2580
 8544TIP3   OH247122   4.512   4.085   2.203  0.0811 -0.0390 -0.1870
 8544TIP3    H147123   4.579   4.123   2.260 -1.3447  0.2049  1.4003
 8544TIP3    H247124   4.524   3.990   2.210  0.0489 -0.0029  0.3727
 8545TIP3   OH247125   1.672   4.560   4.979  0.3859 -0.2901 -0.2357
 8545TIP3    H147126   1.687   4.654   4.992 -0.8868  0.1473 -1.6566
 8545TIP3    H247127   1.742   4.533   4.920  1.0244 -0.3556  0.5337
 8546TIP3   OH247128   3.113   6.762   2.365  0.1241  0.7641 -0.0722
 8546TIP3    H147129   3.177   6.793   2.429 -0.0305  1.6997 -0.3503
 8546TIP3    H247130   3.073   6.842   2.332 -0.8261  0.2138 -0.2776
 8547TIP3   OH247131   6.579   3.996  15.730  0.3663  0.7498 -0.6408
 8547TIP3    H147132   6.597   3.957  15.645  0.0509  0.9774 -0.8119
 8547TIP3    H247133   6.541   4.081  15.710 -1.1415  0.1779 -0.2861
 8548TIP3   OH247134   0.684   0.048   1.363  0.5307  0.1627 -0.2293
 8548TIP3    H147135   0.642   0.106   1.299 -0.4643  0.4677  0.6696
 8548TIP3    H247136   0.613  -0.006   1.397  0.9268  0.3480  0.9664
 8549TIP3   OH247137   0.854   2.810  17.116  0.6291 -0.0586  0.1341
 8549TIP3    H147138   0.799   2.782  17.189  1.4551  1.0535  1.2140
 8549TIP3    H247139   0.792   2.820  17.043 -0.5840  0.9008  1.2399
 8550TIP3   OH247140   6.431   0.616  14.117 -0.2805 -0.2760  0.1565
 8550TIP3    H147141   6.495   0.594  14.050 -0.4049 -0.2888  0.0431
 8550TIP3    H247142   6.349   0.627  14.070 -0.7742 -2.0966  0.5058
 8551TIP3   OH247143   3.713   2.795   4.479  0.0155 -0.4730  0.0731
 8551TIP3    H147144   3.655   2.869   4.493 -0.9030 -1.2203  0.3463
 8551TIP3    H247145   3.764   2.789   4.559  1.0952  0.7040 -0.4990
 8552TIP3   OH247146   5.273   2.572   3.484 -0.4501 -0.2550 -0.5736
 8552TIP3    H147147   5.321   2.571   3.401  0.2995  1.4677 -0.2053
 8552TIP3    H247148   5.195   2.518   3.468  0.7276 -1.7199 -1.7139
 8553TIP3   OH247149   3.675   0.628  16.784 -0.1633  0.4883 -0.5069
 8553TIP3    H147150   3.721   0.591  16.859 -1.4253 -0.6793 -0.2810
 8553TIP3    H247151   3.583   0.616  16.803 -0.5237  0.6036 -2.0246
 8554TIP3   OH247152   4.204   4.472   5.587 -0.2421 -0.0677 -0.0215
 8554TIP3    H147153   4.266   4.542   5.569 -0.5316  0.0271 -0.6583
 8554TIP3    H247154   4.204   4.464   5.683  0.6150  0.0483 -0.0077
 8555TIP3   OH247155   5.466   2.889  13.446 -0.3290  0.0153  0.2331
 8555TIP3    H147156   5.482   2.816  13.387 -2.0462  0.2496 -0.5932
 8555TIP3    H247157   5.525   2.874  13.520  1.7038 -0.4105 -1.4004
 8556TIP3   OH247158   3.944   0.605   3.543  0.0450  0.0167  0.5111
 8556TIP3    H147159   3.924   0.696   3.566 -1.2235  0.4093 -1.8508
 8556TIP3    H247160   4.038   0.607   3.521  0.1253  0.6510  0.8694
 8557TIP3   OH247161   6.128   3.130  13.033 -0.1661  0.7265  0.3329
 8557TIP3    H147162   6.131   3.070  13.108  0.3219  1.2307  0.7288
 8557TIP3    H247163   6.089   3.079  12.962  2.3588 -0.8177 -0.0435
 8558TIP3   OH247164   5.605   6.526   4.468 -0.6877  0.4916  0.2615
 8558TIP3    H147165   5.525   6.540   4.519 -0.8164 -0.0596  0.2128
 8558TIP3    H247166   5.602   6.434   4.442 -0.3567  0.6316 -0.2903
 8559TIP3   OH247167   3.993   0.663   1.541  0.5072 -0.5647  1.2461
 8559TIP3    H147168   4.074   0.637   1.497  0.4123  0.8265  0.1707
 8559TIP3    H247169   4.022   0.699   1.624  1.2004  1.3360  0.2528
 8560TIP3   OH247170   1.416   6.344   2.383 -0.4197 -0.2626 -0.1935
 8560TIP3    H147171   1.350   6.353   2.314 -1.1348  0.2816  0.5467
 8560TIP3    H247172   1.392   6.263   2.429 -1.3874  0.6242  0.9094
 8561TIP3   OH247173   4.214   2.787  16.689  0.0949 -1.0404 -0.7790
 8561TIP3    H147174   4.265   2.706  16.692 -1.1365 -1.8531 -0.4728
 8561TIP3    H247175   4.178   2.795  16.778  1.5958  0.8270 -0.2789
 8562TIP3   OH247176   2.945   2.264   5.245  0.1151 -0.3428 -0.0881
 8562TIP3    H147177   2.950   2.336   5.182  0.7411 -0.2770  0.0255
 8562TIP3    H247178   3.020   2.279   5.303  0.5160 -1.3422 -0.3337
 8563TIP3   OH247179   2.777   5.383   3.600 -0.2991 -0.0778 -0.0461
 8563TIP3    H147180   2.801   5.451   3.664  0.6892  0.3706 -0.8668
 8563TIP3    H247181   2.693   5.412   3.565  0.5413  1.2591 -1.0634
 8564TIP3   OH247182   4.828   5.988  13.257  0.2964  0.6380  0.0428
 8564TIP3    H147183   4.890   5.922  13.225  1.3953  0.4967  2.2884
 8564TIP3    H247184   4.755   5.938  13.292 -0.1309  0.7259 -0.7186
 8565TIP3   OH247185   3.303   5.534   1.752  0.5317 -0.2227  0.0915
 8565TIP3    H147186   3.273   5.588   1.825 -1.9885 -1.2139 -0.1059
 8565TIP3    H247187   3.278   5.583   1.674 -1.3414 -1.3817 -0.0843
 8566TIP3   OH247188   6.251   1.885   2.011  0.5908  0.3213  0.1476
 8566TIP3    H147189   6.170   1.916   1.971  1.2932  0.5989 -1.1230
 8566TIP3    H247190   6.269   1.947   2.081  0.2851  0.8884 -0.2725
 8567TIP3   OH247191   1.278   0.616   4.795 -0.2078  0.1017 -0.1569
 8567TIP3    H147192   1.258   0.629   4.703  0.9451 -1.4399 -0.6727
 8567TIP3    H247193   1.356   0.670   4.810 -1.3217  1.6314  0.3770
 8568TIP3   OH247194   2.835   1.592  14.848 -0.5348  0.0093  0.0474
 8568TIP3    H147195   2.783   1.521  14.811 -0.1403  0.0927 -0.6817
 8568TIP3    H247196   2.919   1.587  14.803 -0.0015  0.0562  1.0121
 8569TIP3   OH247197   2.369   4.287   5.846  0.2235 -0.1686 -0.7245
 8569TIP3    H147198   2.422   4.208   5.858 -0.8607 -1.0368 -1.4257
 8569TIP3    H247199   2.281   4.254   5.826 -1.0143  1.2120  2.0071
 8570TIP3   OH247200   5.091   4.404  12.080 -0.1410 -0.5739  0.1240
 8570TIP3    H147201   5.032   4.336  12.047  0.5023 -0.4348 -1.3632
 8570TIP3    H247202   5.141   4.431  12.004  1.5115 -0.3322  1.2577
 8571TIP3   OH247203   2.316   3.260  11.960 -0.0049 -0.1664  0.0043
 8571TIP3    H147204   2.367   3.340  11.975 -0.4670 -0.1308  1.6269
 8571TIP3    H247205   2.235   3.274  12.010 -0.0733 -1.6641  0.3461
 8572TIP3   OH247206   6.671   2.156  15.526 -0.5275 -0.3963  0.4649
 8572TIP3    H147207   6.751   2.105  15.530  0.6592  1.3779  0.2470
 8572TIP3    H247208   6.603   2.093  15.500  0.8915 -1.7933  0.0325
 8573TIP3   OH247209   2.132   6.376   3.453 -0.1449 -0.1986 -0.0175
 8573TIP3    H147210   2.197   6.311   3.477  0.3904  0.4620  0.3471
 8573TIP3    H247211   2.182   6.447   3.413 -0.5643  0.5282  0.7017
 8574TIP3   OH247212   6.145   5.858  14.977  0.1600  0.1817 -0.0378
 8574TIP3    H147213   6.147   5.822  14.888  0.8688  0.2409 -0.0456
 8574TIP3    H247214   6.215   5.923  14.979 -1.2547  1.7797 -0.0925
 8575TIP3   OH247215   0.576   1.292   2.399 -0.4271  0.0031  0.3299
 8575TIP3    H147216   0.534   1.206   2.391 -0.0100 -0.2056  0.3607
 8575TIP3    H247217   0.649   1.289   2.337 -1.0428  0.7248 -0.4628
 8576TIP3   OH247218   5.881   0.465  13.860 -0.0712 -0.1570  0.0559
 8576TIP3    H147219   5.807   0.508  13.901  0.0167  0.1767 -0.1314
 8576TIP3    H247220   5.904   0.521  13.786  0.8929  0.1862  0.5948
 8577TIP3   OH247221   4.748   4.582  12.912  0.3919 -0.2965  0.4406
 8577TIP3    H147222   4.755   4.489  12.892 -1.2594 -0.8933  2.2778
 8577TIP3    H247223   4.672   4.612  12.862  1.1245  0.1626 -0.4129
 8578TIP3   OH247224   2.797   4.764   5.075  0.0458  0.1623 -0.2165
 8578TIP3    H147225   2.737   4.714   5.020 -0.3252 -1.0822  1.2715
 8578TIP3    H247226   2.748   4.779   5.156  0.1895  2.8637 -0.5378
 8579TIP3   OH247227   0.492   4.820  11.193  0.4717 -0.3258 -0.3712
 8579TIP3    H147228   0.553   4.859  11.255 -0.2571 -0.3788  0.4020
 8579TIP3    H247229   0.497   4.876  11.115  1.4316 -0.2929 -0.2899
 8580TIP3   OH247230   3.256   1.976   2.020 -0.2786 -0.5512 -0.1049
 8580TIP3    H147231   3.338   2.021   2.000  0.2081 -0.5515  1.7083
 8580TIP3    H247232   3.203   1.986   1.941  1.4680 -0.5977 -1.3472
 8581TIP3   OH247233   2.484   1.045  11.398  0.7105 -0.0205  0.0011
 8581TIP3    H147234   2.545   1.020  11.328  1.3886 -0.3933  0.7038
 8581TIP3    H247235   2.504   0.985  11.470 -1.9104 -1.5536 -0.4294
 8582TIP3   OH247236   3.029   6.437  15.996  0.3232  0.4620  0.1409
 8582TIP3    H147237   3.068   6.458  16.080  0.3853  0.4114  0.1266
 8582TIP3    H247238   3.050   6.345  15.982 -1.0677  0.0154  0.8131
 8583TIP3   OH247239   1.813   1.084  14.375  0.9905  0.4928 -0.0762
 8583TIP3    H147240   1.847   1.114  14.459  1.6379 -0.0074 -0.1557
 8583TIP3    H247241   1.718   1.087  14.385  1.0597 -0.2727  0.9288
 8584TIP3   OH247242   0.680   3.601   3.748 -0.2832 -0.5359 -0.1224
 8584TIP3    H147243   0.744   3.544   3.790 -0.6043 -0.3918  0.5662
 8584TIP3    H247244   0.678   3.572   3.657  0.7614 -0.5391 -0.1498
 8585TIP3   OH247245   1.768   1.159   0.223 -0.2390  0.2960 -0.0109
 8585TIP3    H147246   1.681   1.196   0.211  0.0613  1.4887  1.2817
 8585TIP3    H247247   1.752   1.071   0.258 -0.9219 -0.1254 -1.3167
 8586TIP3   OH247248   4.746   2.257  14.208 -0.2652 -0.0987  0.1969
 8586TIP3    H147249   4.777   2.317  14.139 -0.2414  1.5294  1.5584
 8586TIP3    H247250   4.651   2.261  14.202 -0.2672 -0.6635 -0.2945
 8587TIP3   OH247251   2.132   4.120   3.845 -0.1179  0.0882  0.3443
 8587TIP3    H147252   2.126   4.027   3.821  0.5077  0.0988  0.1351
 8587TIP3    H247253   2.041   4.149   3.852 -0.3512  0.0682 -1.9269
 8588TIP3   OH247254   5.541   0.703   2.627 -0.1087  0.6503 -0.6983
 8588TIP3    H147255   5.447   0.715   2.639 -0.0174  0.3078  0.4566
 8588TIP3    H247256   5.558   0.612   2.652  0.5528  0.7491 -0.7589
 8589TIP3   OH247257   5.918   6.367   2.417 -0.1012 -0.3941  0.1911
 8589TIP3    H147258   5.973   6.440   2.446  0.3728 -0.7394  0.1475
 8589TIP3    H247259   5.829   6.395   2.441 -0.3847  1.6694 -2.6584
 8590TIP3   OH247260   1.943   6.044  13.224  0.4979 -0.2051 -0.2933
 8590TIP3    H147261   2.005   6.028  13.154  0.9968  0.4608 -0.0243
 8590TIP3    H247262   1.885   5.968  13.224  0.9314 -0.5420 -0.9530
 8591TIP3   OH247263   5.629   4.742  15.572 -0.8616 -0.2112 -0.0352
 8591TIP3    H147264   5.619   4.831  15.608  1.9692 -0.2930  1.2100
 8591TIP3    H247265   5.662   4.756  15.483  0.3840  0.0188  0.4479
 8592TIP3   OH247266   5.788   4.839  14.034 -0.0769 -0.0040 -0.1431
 8592TIP3    H147267   5.772   4.881  13.950  1.0854  0.2438 -0.2510
 8592TIP3    H247268   5.701   4.818  14.067 -0.6176  1.2818 -0.6969
 8593TIP3   OH247269   2.205   4.431  11.805  0.6475 -0.3955  0.4181
 8593TIP3    H147270   2.234   4.347  11.770  1.6974 -0.4181  1.3030
 8593TIP3    H247271   2.177   4.480  11.728  0.8991 -1.2123 -0.2127
 8594TIP3   OH247272   0.726   3.472   1.580  0.3137  0.3230 -0.0031
 8594TIP3    H147273   0.753   3.519   1.501  0.1585 -0.3195 -0.4479
 8594TIP3    H247274   0.704   3.541   1.643  0.0412  0.8486 -0.6605
 8595TIP3   OH247275   6.257   6.810   3.351 -0.0478  0.1234 -0.1441
 8595TIP3    H147276   6.295   6.862   3.422  2.8753 -0.6148 -1.0356
 8595TIP3    H247277   6.221   6.875   3.290  0.8747  0.9441  0.1690
 8596TIP3   OH247278   5.117   3.356  10.510  0.1012  0.1127  0.2886
 8596TIP3    H147279   5.099   3.272  10.469  0.8320 -0.0171  0.2198
 8596TIP3    H247280   5.032   3.387  10.540 -0.5906  0.5366 -1.9111
 8597TIP3   OH247281   5.018   6.099   4.826 -0.1019 -0.3940  0.4162
 8597TIP3    H147282   4.925   6.092   4.846 -0.8589 -0.6681 -2.6778
 8597TIP3    H247283   5.039   6.017   4.780  1.3568  0.1736  0.0091
 8598TIP3   OH247284   6.804   3.534  15.204  0.3345 -0.4738 -0.1211
 8598TIP3    H147285   6.732   3.597  15.208  2.0403  1.8641 -2.6497
 8598TIP3    H247286   6.761   3.449  15.194 -2.1285  0.8200 -1.4422
 8599TIP3   OH247287   6.463   6.802   0.557  0.1150 -0.3513 -0.6698
 8599TIP3    H147288   6.534   6.865   0.551  1.1782 -1.4813 -0.4067
 8599TIP3    H247289   6.411   6.817   0.478  0.1162  1.0977 -0.4148
 8600TIP3   OH247290   6.080   5.449  16.046 -0.0883  0.4061  0.5422
 8600TIP3    H147291   5.986   5.465  16.047 -0.4199 -0.8601 -1.7146
 8600TIP3    H247292   6.119   5.535  16.035 -1.0008  0.9057  1.0726
 8601TIP3   OH247293   2.759   4.828   1.372 -0.1443  0.1197 -0.0138
 8601TIP3    H147294   2.767   4.796   1.461 -1.9150  0.8446  0.4533
 8601TIP3    H247295   2.846   4.862   1.350  0.4171 -0.4606  1.2697
 8602TIP3   OH247296   2.146   6.737  12.190  0.0483  0.3218  0.4113
 8602TIP3    H147297   2.096   6.690  12.256  0.1262  0.2015  0.3842
 8602TIP3    H247298   2.108   6.708  12.107  0.1037  0.2979  0.3948
 8603TIP3   OH247299   0.487   5.171   0.761 -0.6771 -0.1602 -0.4321
 8603TIP3    H147300   0.407   5.214   0.731 -0.4528  1.9414  1.7547
 8603TIP3    H247301   0.494   5.194   0.853  1.9720 -1.0765 -0.3173
 8604TIP3   OH247302   6.425   1.033  14.680  0.4176 -0.1156 -0.9240
 8604TIP3    H147303   6.520   1.031  14.691  0.2890  0.2847  0.5606
 8604TIP3    H247304   6.401   1.124  14.697 -0.1903 -0.1211 -1.7228
 8605TIP3   OH247305   5.883   2.688   2.737  0.2445  0.1787 -0.5688
 8605TIP3    H147306   5.911   2.743   2.809 -1.8804 -0.6372  0.9735
 8605TIP3    H247307   5.961   2.636   2.715  0.6931 -0.2628  1.8080
 8606TIP3   OH247308   1.250   6.522  13.784  0.3290 -0.3697  0.1649
 8606TIP3    H147309   1.185   6.529  13.854  0.4845 -1.2988  0.4190
 8606TIP3    H247310   1.238   6.601  13.732 -0.8546 -0.4100  0.3474
 8607TIP3   OH247311   1.326   6.283   0.715 -0.3533  0.0685  0.0471
 8607TIP3    H147312   1.304   6.195   0.687  1.5857 -0.0791 -1.1823
 8607TIP3    H247313   1.242   6.324   0.736 -1.2116 -2.4322  1.8743
 8608TIP3   OH247314   6.451   1.679  17.120 -0.0612 -0.3962  0.5428
 8608TIP3    H147315   6.424   1.751  17.063 -1.0351 -1.5804 -0.5448
 8608TIP3    H247316   6.370   1.632  17.140  0.5068 -0.9885  1.5441
 8609TIP3   OH247317   2.611   4.470  11.752 -0.4022  0.3806 -0.1623
 8609TIP3    H147318   2.536   4.508  11.704  0.2954  1.3347 -0.5404
 8609TIP3    H247319   2.655   4.415  11.687 -2.9669 -3.5377  1.0874
 8610TIP3   OH247320   5.568   1.216   2.899  0.6685 -0.0645  0.4290
 8610TIP3    H147321   5.571   1.296   2.846  1.0334  1.1689  2.1915
 8610TIP3    H247322   5.607   1.242   2.983 -0.9395 -1.5870  1.7153
 8611TIP3   OH247323   3.142   1.875  16.451  0.2324 -0.5606  0.4350
 8611TIP3    H147324   3.119   1.968  16.456 -1.1154 -0.8472  0.0078
 8611TIP3    H247325   3.213   1.871  16.386  0.5563  0.1984  0.7300
 8612TIP3   OH247326   1.387   6.443  16.019 -0.4864 -0.3665  0.2415
 8612TIP3    H147327   1.465   6.484  15.982 -1.1592 -1.5562 -2.7957
 8612TIP3    H247328   1.420   6.365  16.063  0.3586  1.1805  2.5600
 8613TIP3   OH247329   0.862   3.731  17.206 -0.1633 -0.8028 -0.5397
 8613TIP3    H147330   0.945   3.744  17.251 -0.4115  0.1198 -0.3357
 8613TIP3    H247331   0.833   3.644  17.234 -0.8005  0.1125  1.9269
 8614TIP3   OH247332   0.223   1.973   2.254  0.1046  0.3916 -0.4641
 8614TIP3    H147333   0.141   2.009   2.221  0.1532  0.6911 -0.2671
 8614TIP3    H247334   0.291   2.025   2.212  0.2366 -0.5129 -1.4095
 8615TIP3   OH247335   6.609   3.716  14.625  0.1322 -0.4681 -0.4085
 8615TIP3    H147336   6.590   3.623  14.616  0.1390 -0.6611  1.2422
 8615TIP3    H247337   6.701   3.720  14.649  0.2191 -0.0126 -0.8022
 8616TIP3   OH247338   2.857   4.419   3.002  0.0663 -0.2347  0.7204
 8616TIP3    H147339   2.897   4.459   2.925 -1.3296 -0.2544 -0.0423
 8616TIP3    H247340   2.917   4.440   3.073  0.6894  0.9714 -0.1218
 8617TIP3   OH247341   4.020   4.854   4.478  0.4244 -0.0502  0.3617
 8617TIP3    H147342   3.974   4.931   4.443 -0.1179 -0.9714 -1.0355
 8617TIP3    H247343   4.031   4.796   4.403  0.8793 -1.3299  1.3735
 8618TIP3   OH247344   4.575   4.189   5.100  0.2093 -0.7532  0.2721
 8618TIP3    H147345   4.640   4.256   5.078 -1.8708  0.7610 -1.7756
 8618TIP3    H247346   4.563   4.197   5.194 -0.9985  2.8958 -0.0566
 8619TIP3   OH247347   0.540   1.344  13.302  0.4754 -0.1354  0.7066
 8619TIP3    H147348   0.572   1.432  13.286 -0.3515  0.1576  0.6273
 8619TIP3    H247349   0.619   1.293  13.320  1.2519  0.0365 -1.8283
 8620TIP3   OH247350   3.012   2.956  11.461  0.1919  0.4915 -0.1132
 8620TIP3    H147351   3.061   3.033  11.434  1.9203 -0.4090  0.3082
 8620TIP3    H247352   2.927   2.990  11.489  1.3369  2.3935  1.2696
 8621TIP3   OH247353   1.298   0.070  15.849 -0.1009 -0.2293 -0.4005
 8621TIP3    H147354   1.313  -0.021  15.825  0.6826  0.2027 -1.6603
 8621TIP3    H247355   1.219   0.068  15.903 -0.3436 -1.5962 -0.7664
 8622TIP3   OH247356   6.656   2.540   2.960  0.1984 -0.0714  0.3410
 8622TIP3    H147357   6.677   2.459   3.005 -1.5654 -1.6677 -1.4910
 8622TIP3    H247358   6.591   2.514   2.893 -0.9853  2.9590  0.1533
 8623TIP3   OH247359   6.770   6.371  15.520 -0.0605  0.8899 -0.1864
 8623TIP3    H147360   6.794   6.405  15.434 -0.6898  1.9749  0.0512
 8623TIP3    H247361   6.851   6.374  15.571  0.6431 -1.0083 -1.0926
 8624TIP3   OH247362   6.010   6.115  12.385 -0.1812  0.1357 -0.2218
 8624TIP3    H147363   6.062   6.054  12.437 -0.5903 -0.2690 -0.2828
 8624TIP3    H247364   5.958   6.163  12.449  0.0453  0.3347 -0.1846
 8625TIP3   OH247365   5.157   5.387  10.795 -0.3392 -0.5152  0.0705
 8625TIP3    H147366   5.140   5.296  10.821  2.7289 -0.6737  1.9616
 8625TIP3    H247367   5.204   5.379  10.712 -1.9753 -0.4643 -0.9104
 8626TIP3   OH247368   2.386   3.176   1.687 -0.3190  0.1230  0.3773
 8626TIP3    H147369   2.321   3.188   1.756 -0.9248  1.4555 -0.3838
 8626TIP3    H247370   2.469   3.197   1.728 -0.9452  3.7358  0.0943
 8627TIP3   OH247371   0.520   1.938   1.504  0.1668 -0.2759  0.5999
 8627TIP3    H147372   0.577   1.874   1.464  0.3135  1.1647 -1.6861
 8627TIP3    H247373   0.503   2.002   1.435  1.2616  2.9953  3.1025
 8628TIP3   OH247374   0.397   0.452  14.381 -0.4323  0.0439 -0.1667
 8628TIP3    H147375   0.452   0.399  14.324 -0.5573  0.0693 -0.3123
 8628TIP3    H247376   0.307   0.425  14.359 -0.6221  1.6842 -1.6198
 8629TIP3   OH247377   1.456   6.062  15.512 -0.0019  0.0473 -0.3103
 8629TIP3    H147378   1.436   6.052  15.605  0.8148 -0.5106 -0.1837
 8629TIP3    H247379   1.497   5.979  15.487 -0.9641 -0.1299 -1.3724
 8630TIP3   OH247380   2.538   1.555   2.480  0.0816  0.0663  0.1002
 8630TIP3    H147381   2.448   1.555   2.446  0.1782  0.2533 -0.1505
 8630TIP3    H247382   2.578   1.634   2.444  0.3209  0.0298  0.2845
 8631TIP3   OH247383   3.191   4.594  16.993 -0.1811  0.5527  0.4552
 8631TIP3    H147384   3.184   4.505  17.028  0.5288  0.4338  0.3132
 8631TIP3    H247385   3.285   4.605  16.975 -0.3572  1.0868 -0.1565
 8632TIP3   OH247386   5.154   6.753   4.017  0.2694  0.1773 -0.6146
 8632TIP3    H147387   5.059   6.758   4.008  0.3015  0.5286 -0.7835
 8632TIP3    H247388   5.187   6.826   3.965  0.5634  1.1125  0.8176
 8633TIP3   OH247389   0.835   2.332   3.549 -0.8080  0.2377 -0.0935
 8633TIP3    H147390   0.832   2.250   3.501  1.6999 -0.1341  0.2042
 8633TIP3    H247391   0.786   2.315   3.630  1.5596 -1.8702  1.0676
 8634TIP3   OH247392   2.778   6.142   2.678 -0.0712  0.0119 -0.4546
 8634TIP3    H147393   2.839   6.166   2.608  1.0078  2.5127  1.2167
 8634TIP3    H247394   2.780   6.215   2.739 -3.6522 -0.4675  0.4935
 8635TIP3   OH247395   1.485   1.621   1.015 -0.5105  0.0167 -0.3259
 8635TIP3    H147396   1.453   1.644   1.102 -0.6085  1.7643 -0.7791
 8635TIP3    H247397   1.554   1.557   1.031  0.5342  1.4275  1.1755
 8636TIP3   OH247398   3.330   4.927  12.544  0.4723  0.5079  0.0858
 8636TIP3    H147399   3.300   4.846  12.504 -0.9190  0.3052  1.4638
 8636TIP3    H247400   3.392   4.899  12.612  2.8246  0.8488 -1.7739
 8637TIP3   OH247401   0.644   1.994  16.653 -0.5637  0.2508 -0.1925
 8637TIP3    H147402   0.688   2.079  16.644 -0.0167  0.2290  1.8566
 8637TIP3    H247403   0.557   2.008  16.614 -0.7635  1.9911  0.7945
 8638TIP3   OH247404   1.438   1.220   1.031 -0.0744 -0.4610  0.0460
 8638TIP3    H147405   1.411   1.168   0.955 -0.8815  0.6185 -0.4229
 8638TIP3    H247406   1.369   1.206   1.095 -1.1108  1.2141 -0.6495
 8639TIP3   OH247407   4.832   6.777  15.001  0.0465 -0.5419  0.3188
 8639TIP3    H147408   4.891   6.778  14.926  0.0069 -0.8795  0.2807
 8639TIP3    H247409   4.799   6.687  15.004 -0.2619 -0.4248  0.4982
 8640TIP3   OH247410   5.610   1.845   0.048 -0.0767 -0.4310  0.5244
 8640TIP3    H147411   5.604   1.853  -0.047 -2.6898  1.5484  0.7339
 8640TIP3    H247412   5.520   1.857   0.079  0.7823 -0.3531  3.3028
 8641TIP3   OH247413   1.373   1.576  14.439 -0.2961  0.2853  0.3276
 8641TIP3    H147414   1.359   1.621  14.522 -1.3410  1.5183 -0.4714
 8641TIP3    H247415   1.317   1.623  14.376  0.4365 -0.6226 -1.0691
 8642TIP3   OH247416   2.089   5.288   4.970 -0.4209  0.8241  0.4487
 8642TIP3    H147417   2.100   5.247   4.885  1.6064 -2.1465  1.9769
 8642TIP3    H247418   1.994   5.291   4.984 -0.7498  0.7919 -1.5984
 8643TIP3   OH247419   4.405   5.143   5.150  0.0734  0.3306  0.0259
 8643TIP3    H147420   4.417   5.079   5.220 -0.8134  0.1437  0.0209
 8643TIP3    H247421   4.377   5.223   5.195 -1.1340  0.0268 -0.1452
 8644TIP3   OH247422   5.983   3.513  16.228 -0.0709 -0.0767 -0.6699
 8644TIP3    H147423   5.890   3.512  16.206 -0.0874 -0.0820 -0.5992
 8644TIP3    H247424   5.986   3.490  16.321  0.1425 -2.3474 -1.1783
 8645TIP3   OH247425   0.070   6.475   5.100 -0.2693  0.1695  0.0634
 8645TIP3    H147426   0.160   6.491   5.070  0.4536 -0.4242  1.7787
 8645TIP3    H247427   0.040   6.559   5.135  0.6454 -0.2261  1.9271
 8646TIP3   OH247428   1.997   3.399  11.593 -0.2444 -0.1343  0.5697
 8646TIP3    H147429   2.078   3.415  11.545 -1.2292  1.0590 -0.8143
 8646TIP3    H247430   1.989   3.474  11.652 -0.8366  0.3092 -0.0556
 8647TIP3   OH247431   4.446   4.369   1.892  0.3644  0.1082  0.2111
 8647TIP3    H147432   4.455   4.452   1.845  1.8329  0.1105  0.4568
 8647TIP3    H247433   4.528   4.359   1.939 -0.1865 -1.0133  0.9830
 8648TIP3   OH247434   1.571   5.156   1.324  0.8635 -0.0773  0.1715
 8648TIP3    H147435   1.632   5.085   1.343  0.0230 -0.7427  0.4486
 8648TIP3    H247436   1.530   5.175   1.409  0.6551  0.3428 -0.0203
 8649TIP3   OH247437   1.085   2.079  11.490  0.2511 -0.5152 -0.5738
 8649TIP3    H147438   0.997   2.086  11.527  1.0206  1.0492  1.1561
 8649TIP3    H247439   1.073   2.088  11.396 -1.3998  0.1703 -0.3251
 8650TIP3   OH247440   6.734   6.358   4.535 -0.1998 -0.0252  0.4652
 8650TIP3    H147441   6.790   6.394   4.603  0.2303  0.3050 -0.0525
 8650TIP3    H247442   6.779   6.279   4.506  2.0940  2.1574 -2.5862
 8651TIP3   OH247443   3.760   6.757  16.558  0.0631  0.0935  0.0623
 8651TIP3    H147444   3.824   6.775  16.627 -0.4682 -0.1795  0.6413
 8651TIP3    H247445   3.747   6.662  16.561 -1.4509  0.2948  0.9592
 8652TIP3   OH247446   5.482   1.425  14.022  0.4233 -0.0576  0.4834
 8652TIP3    H147447   5.563   1.376  14.010  0.6923  0.7017 -1.0273
 8652TIP3    H247448   5.413   1.360  14.012  0.8162 -0.4614  0.3648
 8653TIP3   OH247449   5.059   1.531  15.656 -0.0263  0.3078  0.0923
 8653TIP3    H147450   5.031   1.521  15.565 -1.3563  0.0231  0.5070
 8653TIP3    H247451   5.115   1.456  15.673 -1.1902 -0.6070  0.0013
 8654TIP3   OH247452   1.102   3.265   5.458 -0.1789 -0.1664 -0.0062
 8654TIP3    H147453   1.071   3.176   5.445  0.4051 -0.1623 -1.6780
 8654TIP3    H247454   1.192   3.264   5.426  0.1757  0.7980  0.8847
 8655TIP3   OH247455   5.354   5.178  14.362  0.4513 -0.0197 -0.2755
 8655TIP3    H147456   5.392   5.223  14.438 -0.8806  0.6740  0.0141
 8655TIP3    H247457   5.345   5.087  14.390 -1.4482  0.5089  1.0121
 8656TIP3   OH247458   4.144   0.766   0.856 -0.0874  0.4596 -0.8265
 8656TIP3    H147459   4.201   0.689   0.849  1.6668  1.1895  3.0390
 8656TIP3    H247460   4.088   0.748   0.931 -0.7584  2.2937 -0.8393
 8657TIP3   OH247461   6.514   6.434   0.969  0.1301  0.0354 -0.0130
 8657TIP3    H147462   6.433   6.384   0.958 -1.2540  1.6759  1.8897
 8657TIP3    H247463   6.508   6.503   0.903 -0.5589  0.7528  0.7780
 8658TIP3   OH247464   0.464   5.539  15.536 -0.4520  0.4656 -0.3510
 8658TIP3    H147465   0.526   5.487  15.587  1.2386  2.4537 -0.2508
 8658TIP3    H247466   0.490   5.524  15.445 -0.3551  0.6455 -0.3542
 8659TIP3   OH247467   1.434   4.168  13.343 -0.2330 -0.4799 -0.3327
 8659TIP3    H147468   1.528   4.153  13.347  0.2579  2.3496  1.0145
 8659TIP3    H247469   1.397   4.102  13.402  1.2858  0.5124  1.8521
 8660TIP3   OH247470   5.202   3.421  15.809 -0.4276 -0.0448 -0.2680
 8660TIP3    H147471   5.166   3.492  15.862  1.7960  0.0596  1.2660
 8660TIP3    H247472   5.154   3.343  15.838 -0.5669  0.3225  0.5159
 8661TIP3   OH247473   6.182   4.356  11.325 -0.0571  0.4652  0.0350
 8661TIP3    H147474   6.092   4.325  11.330 -0.3245  1.3399  1.1589
 8661TIP3    H247475   6.183   4.416  11.251 -0.4251  0.5475  0.0966
 8662TIP3   OH247476   5.910   3.750   0.629 -0.4153  0.0476 -0.0819
 8662TIP3    H147477   5.859   3.817   0.584  0.1783  1.7814  1.6851
 8662TIP3    H247478   5.887   3.668   0.585 -0.5680  1.4689 -2.8633
 8663TIP3   OH247479   3.717   6.397  12.527 -0.3217 -0.6591  0.1193
 8663TIP3    H147480   3.641   6.342  12.543 -0.1167 -0.7503  0.8240
 8663TIP3    H247481   3.749   6.420  12.614  0.7357 -1.0109 -0.1580
 8664TIP3   OH247482   3.646   4.810  11.296  0.3356 -0.0641  0.3302
 8664TIP3    H147483   3.710   4.742  11.313  1.5930  1.1849  0.7445
 8664TIP3    H247484   3.562   4.763  11.291  0.9619 -1.4562  1.9935
 8665TIP3   OH247485   3.952   4.941   6.363  0.7213 -0.6164  0.0572
 8665TIP3    H147486   3.884   5.007   6.376  2.1128  0.9225 -0.2405
 8665TIP3    H247487   3.954   4.893   6.446  0.2179  0.2256  0.5705
 8666TIP3   OH247488   2.248   5.423  11.591  0.7712  0.0375 -0.3973
 8666TIP3    H147489   2.339   5.441  11.569  0.6479 -0.3186 -1.2385
 8666TIP3    H247490   2.215   5.372  11.517 -0.8015  2.2420 -1.3365
 8667TIP3   OH247491   1.108   6.563   5.555 -1.0047 -0.3467  0.5802
 8667TIP3    H147492   1.112   6.603   5.641  0.3812 -0.8138  0.7586
 8667TIP3    H247493   1.119   6.636   5.494 -3.0859  0.1403  0.7259
 8668TIP3   OH247494   0.026   0.818   4.089  0.6945  0.2780 -0.2802
 8668TIP3    H147495  -0.046   0.754   4.088 -0.0273  1.0641 -1.3703
 8668TIP3    H247496   0.105   0.765   4.088  0.1549 -0.6163  1.0084
 8669TIP3   OH247497   1.834   5.963   0.035 -0.1686 -0.1287  0.4222
 8669TIP3    H147498   1.752   5.921   0.060 -0.9919  0.2745 -1.3651
 8669TIP3    H247499   1.899   5.928   0.095 -1.1914 -2.3361  0.3456
 8670TIP3   OH247500   3.437   1.309   0.819  0.3825  0.2027 -0.0303
 8670TIP3    H147501   3.410   1.383   0.873 -1.0866 -0.0163 -0.4140
 8670TIP3    H247502   3.430   1.340   0.729 -0.0779 -0.3300 -0.1881
 8671TIP3   OH247503   6.204   1.567   4.638 -0.2112  0.1799  0.7174
 8671TIP3    H147504   6.249   1.489   4.670 -0.3092 -0.5267 -0.7832
 8671TIP3    H247505   6.274   1.625   4.610 -0.1581 -0.6341 -0.9649
 8672TIP3   OH247506   1.528   1.179   5.525 -0.7186  0.6992  0.0748
 8672TIP3    H147507   1.573   1.246   5.473  0.0219 -0.7051 -1.1863
 8672TIP3    H247508   1.591   1.155   5.593  0.8427 -1.6256 -1.9880
 8673TIP3   OH247509   4.330   1.985   1.178  0.0685  0.2583  0.3007
 8673TIP3    H147510   4.293   2.025   1.257 -1.4322 -0.7177  0.1251
 8673TIP3    H247511   4.301   1.893   1.182 -0.4421  0.3002 -1.6090
 8674TIP3   OH247512   3.334   5.750   1.194  0.3451 -0.4030  0.1568
 8674TIP3    H147513   3.241   5.756   1.215  0.5277 -0.5904  1.0941
 8674TIP3    H247514   3.378   5.794   1.267  0.9267  1.6396 -1.3208
 8675TIP3   OH247515   6.252   5.249  13.013  0.3836 -0.0263 -0.1385
 8675TIP3    H147516   6.333   5.201  12.996  0.0417 -0.5062 -0.4217
 8675TIP3    H247517   6.196   5.187  13.060  0.3875  0.4850  0.5589
 8676TIP3   OH247518   1.782   3.959   5.114 -0.0167  0.1387  0.1118
 8676TIP3    H147519   1.837   4.035   5.132  0.0104 -0.0937  1.0561
 8676TIP3    H247520   1.764   3.921   5.200  1.5129 -2.0111 -0.4142
 8677TIP3   OH247521   5.806   5.868  14.980 -0.2371  0.2823 -0.3308
 8677TIP3    H147522   5.867   5.881  15.053  0.2303  1.0649 -0.8520
 8677TIP3    H247523   5.859   5.878  14.901 -0.8713  0.1366 -0.7881
 8678TIP3   OH247524   0.773   6.362  13.281 -0.0614 -0.2783 -0.1313
 8678TIP3    H147525   0.842   6.328  13.225 -0.7977 -2.1111  0.0180
 8678TIP3    H247526   0.751   6.290  13.339 -1.5013  0.5532  0.4163
 8679TIP3   OH247527   6.824   1.368  14.645  0.0411  0.0905  0.0405
 8679TIP3    H147528   6.739   1.405  14.621  0.2878 -0.1068 -1.2493
 8679TIP3    H247529   6.803   1.294  14.702 -0.5444  1.0681  1.1364
 8680TIP3   OH247530   3.959   2.211   2.650  0.0650  0.5989  0.0592
 8680TIP3    H147531   4.040   2.169   2.621 -0.0292  0.6828 -0.3313
 8680TIP3    H247532   3.978   2.305   2.645 -0.6336  0.6733 -1.7607
 8681TIP3   OH247533   0.261   6.769  16.990 -0.1285 -0.1283 -0.0373
 8681TIP3    H147534   0.320   6.779  16.915 -0.9043  0.8942 -0.5261
 8681TIP3    H247535   0.284   6.683  17.027  0.0819 -0.7789 -1.6083
 8682TIP3   OH247536   3.118   3.408  11.393 -0.4864 -0.1626 -0.3820
 8682TIP3    H147537   3.140   3.413  11.300 -0.2577  2.0556 -0.2818
 8682TIP3    H247538   3.156   3.326  11.423  1.1974  0.0196 -1.8327
 8683TIP3   OH247539   1.247   5.870  17.049  0.2041 -0.0953 -0.0517
 8683TIP3    H147540   1.158   5.898  17.028  0.4652  0.9824  0.1945
 8683TIP3    H247541   1.303   5.919  16.987  0.6864  0.0369  0.4758
 8684TIP3   OH247542   6.756   0.371  16.434 -0.0980  0.4328  0.5992
 8684TIP3    H147543   6.670   0.390  16.395  0.9470  0.1264 -2.0516
 8684TIP3    H247544   6.753   0.278  16.455 -1.2866  0.9451  3.0846
 8685TIP3   OH247545   2.033   5.601  11.368 -0.5301  0.6307  0.2575
 8685TIP3    H147546   2.082   5.519  11.360  0.1218  0.9747  0.6417
 8685TIP3    H247547   2.097   5.669  11.353 -1.1191  1.0748 -0.2748
 8686TIP3   OH247548   5.661   1.606   6.023  0.1302  0.1045 -0.5351
 8686TIP3    H147549   5.734   1.623   6.082 -0.5735  1.6041 -0.0682
 8686TIP3    H247550   5.607   1.541   6.069  1.7845 -2.0371 -1.4493
 8687TIP3   OH247551   0.502   6.189  16.992  0.7412 -0.4261  0.3784
 8687TIP3    H147552   0.474   6.107  17.032  1.0989 -0.3269  0.8438
 8687TIP3    H247553   0.540   6.239  17.065  1.6503 -0.3527 -0.1387
 8688TIP3   OH247554   0.799   0.959  11.492  0.4378 -0.2982 -0.3683
 8688TIP3    H147555   0.825   0.896  11.424 -1.7325 -1.6184 -0.0846
 8688TIP3    H247556   0.844   0.929  11.571  1.1351 -0.1535 -0.7021
 8689TIP3   OH247557   1.298   5.512  14.501  0.0376 -0.6695  0.3748
 8689TIP3    H147558   1.382   5.535  14.461  0.0556 -1.9528 -0.3797
 8689TIP3    H247559   1.280   5.583  14.563  1.4409 -0.1370  0.1977
 8690TIP3   OH247560   1.713   1.042   3.612  0.3544 -0.3346  0.4264
 8690TIP3    H147561   1.741   1.044   3.704 -0.8146  1.8990  0.7961
 8690TIP3    H247562   1.669   0.958   3.602 -0.0460 -0.3618  2.1105
 8691TIP3   OH247563   4.272   5.838   6.550 -0.2125 -0.3890 -0.0628
 8691TIP3    H147564   4.243   5.795   6.631  2.9092  0.9395  1.9606
 8691TIP3    H247565   4.339   5.780   6.514 -1.7305 -1.0818 -1.9442
 8692TIP3   OH247566   6.685   6.658  14.871 -0.2635  0.3104 -0.6101
 8692TIP3    H147567   6.746   6.667  14.798  0.2024 -1.4127 -0.4843
 8692TIP3    H247568   6.606   6.621  14.831 -0.2963  0.1254 -0.3787
 8693TIP3   OH247569   0.553   5.042  10.665 -0.2367 -0.2698 -0.5675
 8693TIP3    H147570   0.613   5.115  10.653 -1.3608  1.1612  1.7746
 8693TIP3    H247571   0.609   4.970  10.694  0.8171 -0.2619 -2.4226
 8694TIP3   OH247572   3.135   6.667  12.259  0.3250  0.1157 -0.0151
 8694TIP3    H147573   3.127   6.573  12.278 -0.4146 -0.1946 -1.6489
 8694TIP3    H247574   3.215   6.694  12.303 -0.7369 -0.6906  2.6345
 8695TIP3   OH247575   6.477   2.881  13.117 -0.6026  0.4552 -0.3259
 8695TIP3    H147576   6.496   2.921  13.032 -0.1908  0.5688 -0.1844
 8695TIP3    H247577   6.444   2.953  13.171 -1.5219  0.2484 -0.5859
 8696TIP3   OH247578   1.785   6.710  10.699 -0.1322  0.2388 -0.6370
 8696TIP3    H147579   1.730   6.632  10.702 -0.3768  0.4109 -0.5638
 8696TIP3    H247580   1.875   6.678  10.706 -0.3037  0.1029  1.1950
 8697TIP3   OH247581   4.603   2.140   1.195 -0.3792  0.6465  0.4699
 8697TIP3    H147582   4.536   2.156   1.128  0.6136 -0.0441 -0.7160
 8697TIP3    H247583   4.668   2.209   1.181  1.7336 -1.5873 -1.8389
 8698TIP3   OH247584   1.746   6.249  12.080  0.0562  0.0761 -0.0261
 8698TIP3    H147585   1.775   6.164  12.045 -0.1881  0.8273 -2.2233
 8698TIP3    H247586   1.680   6.279  12.017  0.1248  1.8864  0.7158
 8699TIP3   OH247587   3.015   0.315   5.996 -0.3003 -0.6093  0.1976
 8699TIP3    H147588   2.941   0.255   5.998 -1.9315  1.2645  2.6870
 8699TIP3    H247589   3.060   0.299   6.079 -0.0514  0.7496  0.3399
 8700TIP3   OH247590   6.598   6.278  13.088 -0.2704  0.2201 -0.4106
 8700TIP3    H147591   6.643   6.362  13.087  0.6447 -0.2448  0.4459
 8700TIP3    H247592   6.589   6.254  12.995  1.1277  0.3898 -0.6046
 8701TIP3   OH247593   1.368   1.618   5.550 -0.0864 -0.2798  0.6368
 8701TIP3    H147594   1.399   1.661   5.630  1.7049  1.3175 -0.8217
 8701TIP3    H247595   1.273   1.625   5.555 -0.1549 -1.4881  3.2374
 8702TIP3   OH247596   6.464   2.894  11.460 -0.2585  0.0497  0.3376
 8702TIP3    H147597   6.537   2.943  11.422  2.7406 -2.1440  2.7869
 8702TIP3    H247598   6.419   2.857  11.384  1.1685  1.4502 -1.2819
 8703TIP3   OH247599   1.687   1.905  14.061 -0.3625 -0.2184  0.8021
 8703TIP3    H147600   1.749   1.948  14.002  0.4181 -1.1560  0.9054
 8703TIP3    H247601   1.603   1.907  14.015  0.2818 -1.1797 -0.4840
 8704TIP3   OH247602   5.013   3.107   4.459 -0.4821  0.2403  0.1397
 8704TIP3    H147603   5.071   3.033   4.439  0.9743  1.6249 -1.0312
 8704TIP3    H247604   4.941   3.068   4.509  1.1939 -1.6416  1.2230
 8705TIP3   OH247605   2.146   1.926  15.545  0.1012 -0.2972 -0.0982
 8705TIP3    H147606   2.113   1.933  15.635 -0.7223  0.1186 -0.4107
 8705TIP3    H247607   2.210   1.856  15.548 -0.6026 -0.9310  0.6216
 8706TIP3   OH247608   5.220   0.183  11.651 -0.0093 -0.5840 -0.0643
 8706TIP3    H147609   5.237   0.275  11.671 -2.1266  0.2112 -1.5682
 8706TIP3    H247610   5.287   0.159  11.586 -0.2065  0.3030 -0.6086
 8707TIP3   OH247611   2.215   5.267  13.394  0.2105 -0.3039 -0.4862
 8707TIP3    H147612   2.286   5.298  13.338 -0.3776 -0.4446 -1.3473
 8707TIP3    H247613   2.200   5.176  13.366  1.1792 -1.0424  1.2414
 8708TIP3   OH247614   5.858   6.186  13.990  0.0432 -0.6646  0.6026
 8708TIP3    H147615   5.868   6.232  13.907 -1.7015 -0.1556  0.6317
 8708TIP3    H247616   5.852   6.094  13.965 -0.2332 -0.5381  0.1828
 8709TIP3   OH247617   3.046   4.759  15.844 -0.0052  0.2972 -0.1646
 8709TIP3    H147618   3.058   4.800  15.930  2.3663 -0.9221  0.1860
 8709TIP3    H247619   3.094   4.816  15.784  0.5524 -0.2131 -0.2139
 8710TIP3   OH247620   3.738   1.956   4.584 -0.2741  0.1897  0.2441
 8710TIP3    H147621   3.701   2.040   4.611  0.0887 -0.2925  2.4944
 8710TIP3    H247622   3.678   1.891   4.621 -0.8694 -0.5973 -1.9535
 8711TIP3   OH247623   0.828   1.144  10.076  0.0810  0.7761 -0.5885
 8711TIP3    H147624   0.892   1.214  10.067  0.5074  0.6591  1.2028
 8711TIP3    H247625   0.874   1.066  10.045  0.0751  1.0454 -1.2871
 8712TIP3   OH247626   0.138   3.708  16.872  0.4050 -0.1428 -0.0050
 8712TIP3    H147627   0.193   3.780  16.841  1.2721 -1.0174 -0.5407
 8712TIP3    H247628   0.144   3.641  16.804 -1.3990 -0.2445 -0.1178
 8713TIP3   OH247629   2.585   2.288  15.952 -0.1313 -0.4027  0.3482
 8713TIP3    H147630   2.533   2.301  16.031  0.0063 -0.5470  0.4630
 8713TIP3    H247631   2.673   2.316  15.976  0.1504 -1.4319  0.5725
 8714TIP3   OH247632   6.660   6.205   6.449  0.2248  0.2170 -0.1669
 8714TIP3    H147633   6.617   6.200   6.364 -0.9177  0.8687  0.3502
 8714TIP3    H247634   6.753   6.191   6.430  0.1407  1.5171 -1.6643
 8715TIP3   OH247635   0.509   5.516  13.709 -0.4350  0.5390 -0.2998
 8715TIP3    H147636   0.497   5.534  13.802 -2.8516  0.6932 -0.5890
 8715TIP3    H247637   0.421   5.498  13.676  0.2034  1.5068 -2.7704
 8716TIP3   OH247638   6.570   1.055   4.823  0.0177  0.0221 -0.4190
 8716TIP3    H147639   6.486   1.009   4.829  0.2259 -0.3451 -0.2742
 8716TIP3    H247640   6.631   0.999   4.872  0.0932  0.8780  0.4952
 8717TIP3   OH247641   0.242   3.335   4.002  0.0744  0.3664  0.0069
 8717TIP3    H147642   0.223   3.296   3.917 -0.2428  1.2507 -0.3337
 8717TIP3    H247643   0.160   3.328   4.051  0.8159 -2.1370  1.0833
 8718TIP3   OH247644   6.332   4.407  17.018 -0.2411 -0.2147  0.6719
 8718TIP3    H147645   6.259   4.355  17.051  0.6015 -1.3303  0.8278
 8718TIP3    H247646   6.297   4.451  16.941 -0.1980 -3.3845 -1.3154
 8719TIP3   OH247647   1.095   4.713   0.480  0.8387  0.6892  0.2253
 8719TIP3    H147648   1.126   4.631   0.440 -0.1979  0.7268 -0.7022
 8719TIP3    H247649   1.047   4.685   0.558  0.6339  0.4120  0.0051
 8720TIP3   OH247650   4.486   4.731  11.129 -0.2576 -0.1163 -0.2165
 8720TIP3    H147651   4.503   4.785  11.207 -0.5964 -1.6459  0.9659
 8720TIP3    H247652   4.395   4.702  11.140 -0.1188 -0.8230 -0.8860
 8721TIP3   OH247653   5.947   6.712   4.684  0.0863 -0.0582  0.2232
 8721TIP3    H147654   5.855   6.738   4.687 -0.0385 -0.4547 -0.0629
 8721TIP3    H247655   5.962   6.664   4.765 -0.0276 -0.2190  0.1490
 8722TIP3   OH247656   4.258   4.280   6.617 -0.3353  0.1551 -0.3869
 8722TIP3    H147657   4.284   4.191   6.593 -2.8512 -1.0886  1.0998
 8722TIP3    H247658   4.300   4.295   6.701 -1.5515 -0.5156  0.3737
 8723TIP3   OH247659   3.644   0.489  14.145 -0.2731  0.1162 -0.1368
 8723TIP3    H147660   3.649   0.521  14.055 -0.5101 -1.8269 -0.8803
 8723TIP3    H247661   3.578   0.420  14.143 -1.1327  0.7976  1.7914
 8724TIP3   OH247662   5.941   3.551   2.521 -0.0346  0.1227  0.2768
 8724TIP3    H147663   5.987   3.481   2.475 -0.4210  0.8512 -1.2651
 8724TIP3    H247664   6.007   3.621   2.529 -0.1984  0.2899  0.1551
 8725TIP3   OH247665   0.197   4.463  10.576  0.5325  0.5384 -0.2442
 8725TIP3    H147666   0.118   4.412  10.561  0.9112  0.4784 -2.3044
 8725TIP3    H247667   0.215   4.452  10.669 -0.7926 -1.0323 -0.1265
 8726TIP3   OH247668   4.788   6.645  17.108 -0.4292  0.1298  0.0150
 8726TIP3    H147669   4.849   6.693  17.053 -1.4764  0.1827 -1.1180
 8726TIP3    H247670   4.709   6.699  17.111 -0.6732 -0.2482  0.9316
 8727TIP3   OH247671   1.522   4.333   3.429  0.0838 -0.0491  0.5096
 8727TIP3    H147672   1.471   4.317   3.508  1.8736  0.0636  1.7437
 8727TIP3    H247673   1.463   4.383   3.373 -1.6777 -1.2133  1.2097
 8728TIP3   OH247674   3.539   0.571   1.791 -0.7586  0.2028  0.2596
 8728TIP3    H147675   3.499   0.623   1.861  0.2949  1.8415 -0.3111
 8728TIP3    H247676   3.475   0.574   1.719 -0.7854  0.5458  0.2995
 8729TIP3   OH247677   2.815   5.547  13.867  0.0222 -0.2019 -0.2269
 8729TIP3    H147678   2.790   5.458  13.841 -0.3569 -0.8501  2.0808
 8729TIP3    H247679   2.747   5.575  13.927 -0.2765  2.0271 -1.5005
 8730TIP3   OH247680   1.281   0.606   4.298  0.4766 -0.0311  0.0409
 8730TIP3    H147681   1.337   0.683   4.297 -0.0755  0.3897  0.7644
 8730TIP3    H247682   1.219   0.622   4.369  0.1374 -0.9850 -0.0249
 8731TIP3   OH247683   4.371   2.972  11.404 -0.4549  0.1768 -0.3402
 8731TIP3    H147684   4.401   2.941  11.319 -1.3482 -0.0455 -0.5860
 8731TIP3    H247685   4.444   2.955  11.464  1.0022  2.1918 -1.4248
 8732TIP3   OH247686   6.461   5.868  16.287  0.2697 -0.3117 -0.3274
 8732TIP3    H147687   6.493   5.778  16.292  0.0762 -0.3197  2.3163
 8732TIP3    H247688   6.366   5.860  16.288  0.1503 -0.1096 -3.0944
 8733TIP3   OH247689   3.841   5.609   4.692  0.4865 -0.5508 -0.1427
 8733TIP3    H147690   3.832   5.609   4.596 -0.3094 -0.4353 -0.0734
 8733TIP3    H247691   3.779   5.675   4.722  2.1520  0.8664  0.3465
 8734TIP3   OH247692   0.507   6.523  12.142 -0.1089  0.1582 -0.1754
 8734TIP3    H147693   0.572   6.577  12.096  1.8802 -1.7535  0.1972
 8734TIP3    H247694   0.431   6.522  12.084  1.7365 -0.9023 -2.7568
 8735TIP3   OH247695   2.452   2.448   3.705 -0.3536  0.0386 -0.3013
 8735TIP3    H147696   2.526   2.390   3.690  0.8730  1.4014  0.2618
 8735TIP3    H247697   2.376   2.398   3.675  0.4470 -2.3813  1.3457
 8736TIP3   OH247698   5.569   5.944  11.648 -0.0489  0.1507 -0.3554
 8736TIP3    H147699   5.494   5.903  11.605 -1.3011  0.1633  1.6986
 8736TIP3    H247700   5.580   6.028  11.603 -0.5250 -0.3514 -1.4291
 8737TIP3   OH247701   5.661   3.171  13.232 -0.6592  0.3127  0.9184
 8737TIP3    H147702   5.667   3.265  13.216 -0.3467 -0.0988 -2.0697
 8737TIP3    H247703   5.592   3.141  13.173  0.3339 -1.5163  0.6037
 8738TIP3   OH247704   3.701   4.678   5.231 -0.4596  0.7504  0.0769
 8738TIP3    H147705   3.635   4.636   5.177 -0.7428  0.3623  0.7133
 8738TIP3    H247706   3.780   4.625   5.218 -0.3774  0.9814 -0.3759
 8739TIP3   OH247707   2.229   4.493   3.118  0.0258 -0.5175  0.4392
 8739TIP3    H147708   2.316   4.517   3.151  0.0572 -0.0105  0.0038
 8739TIP3    H247709   2.246   4.434   3.045  0.0754  0.6789 -0.5573
 8740TIP3   OH247710   1.079   3.453   5.104  0.2938  0.0611 -0.6953
 8740TIP3    H147711   1.124   3.387   5.051 -0.2598 -1.6083  0.7987
 8740TIP3    H247712   0.998   3.470   5.057  0.1354 -0.8621 -0.7894
 8741TIP3   OH247713   4.992   5.770  12.886  0.0760 -0.3098 -0.1088
 8741TIP3    H147714   5.037   5.845  12.850 -2.2061  1.3521  0.2910
 8741TIP3    H247715   4.947   5.730  12.812  0.7641 -0.9280 -0.2071
 8742TIP3   OH247716   2.377   6.506   0.624 -0.1836  0.2904 -0.2536
 8742TIP3    H147717   2.417   6.563   0.689 -0.9566 -2.7966  3.2399
 8742TIP3    H247718   2.438   6.433   0.614 -1.6981 -1.0469 -0.1814
 8743TIP3   OH247719   6.254   0.697  15.982 -0.1719 -0.6312  0.8206
 8743TIP3    H147720   6.197   0.625  16.009 -1.8912 -0.2744 -1.4955
 8743TIP3    H247721   6.198   0.774  15.983  0.4486 -0.1080 -0.7060
 8744TIP3   OH247722   1.142   6.506   0.628  0.0148  0.3984 -0.1885
 8744TIP3    H147723   1.135   6.553   0.711 -0.0935 -1.7292  1.0878
 8744TIP3    H247724   1.232   6.521   0.600 -0.0538  1.4498  0.0930
 8745TIP3   OH247725   3.190   6.023   5.562 -0.1469  0.7098  0.2497
 8745TIP3    H147726   3.112   5.969   5.565 -0.2405  0.8520  0.4084
 8745TIP3    H247727   3.170   6.098   5.618  0.7359 -0.1154  1.7590
 8746TIP3   OH247728   4.121   0.602   4.057 -0.1769  0.3480  0.8084
 8746TIP3    H147729   4.085   0.588   3.969 -1.1026  1.3384  1.0075
 8746TIP3    H247730   4.082   0.532   4.110 -1.3424  1.0248  0.8813
 8747TIP3   OH247731   2.199   2.671  10.504  0.2375 -0.5582  0.6390
 8747TIP3    H147732   2.288   2.645  10.482 -0.0866 -0.4139 -0.9053
 8747TIP3    H247733   2.209   2.753  10.553  0.9007  0.5507 -1.2506
 8748TIP3   OH247734   3.897   5.430   1.021  0.3416 -0.3166  0.2047
 8748TIP3    H147735   3.856   5.502   1.069  1.7106  0.6578 -0.0367
 8748TIP3    H247736   3.845   5.421   0.942  0.4246  0.7345  0.0136
 8749TIP3   OH247737   5.546   6.399  12.880  0.4877  0.3535  0.5698
 8749TIP3    H147738   5.501   6.483  12.887 -1.3884 -0.6103  0.7387
 8749TIP3    H247739   5.537   6.375  12.787 -0.7929 -0.5671  0.9034
 8750TIP3   OH247740   2.818   2.172   0.300  0.0991 -0.1256  0.2631
 8750TIP3    H147741   2.808   2.084   0.261  0.5761 -0.4721  0.9074
 8750TIP3    H247742   2.791   2.232   0.230  2.2946 -0.6539 -1.1503
 8751TIP3   OH247743   6.776   2.185  13.144  0.1882 -0.0920 -0.6623
 8751TIP3    H147744   6.785   2.225  13.231  0.6887  1.4820 -1.3861
 8751TIP3    H247745   6.797   2.093  13.157  2.4951  0.5166  0.5142
 8752TIP3   OH247746   1.611   3.975   0.213 -0.5227  0.2564 -0.0634
 8752TIP3    H147747   1.576   3.936   0.133  0.1948 -0.2607 -0.1322
 8752TIP3    H247748   1.595   4.069   0.202  0.1787  0.2757 -1.1334
 8753TIP3   OH247749   5.758   0.205  15.864 -0.6381 -0.5089  0.2366
 8753TIP3    H147750   5.845   0.180  15.832 -1.6819 -0.7208 -2.7941
 8753TIP3    H247751   5.758   0.300  15.861 -1.3484 -0.5057 -2.6849
 8754TIP3   OH247752   1.356   6.376  14.602 -0.3421  0.7455 -0.1553
 8754TIP3    H147753   1.318   6.450  14.554 -0.9445  1.3084  1.1349
 8754TIP3    H247754   1.355   6.404  14.694 -0.2493 -0.7216  0.3206
 8755TIP3   OH247755   6.645   6.820  10.471  0.9152  0.0409  0.1114
 8755TIP3    H147756   6.578   6.756  10.496 -0.9579  1.4555 -0.9538
 8755TIP3    H247757   6.695   6.777  10.403 -0.0687 -0.4589 -0.3206
 8756TIP3   OH247758   1.272   3.645  10.491  0.5514 -0.4689 -0.0684
 8756TIP3    H147759   1.318   3.685  10.564 -0.9333 -0.3386  0.8412
 8756TIP3    H247760   1.310   3.557  10.484  0.2908 -0.7169  1.3020
 8757TIP3   OH247761   6.208   3.515   2.772 -0.2450  0.1206  0.4002
 8757TIP3    H147762   6.297   3.479   2.774 -0.3909 -0.2187  1.5249
 8757TIP3    H247763   6.157   3.452   2.722  0.4667  1.1431 -1.7310
 8758TIP3   OH247764   4.197   4.631  10.846 -0.2408  0.2107 -0.0390
 8758TIP3    H147765   4.133   4.559  10.846  0.9761 -0.9036  0.5540
 8758TIP3    H247766   4.151   4.703  10.889 -1.5747 -0.0962 -0.8664
 8759TIP3   OH247767   3.497   4.375   2.141 -0.3921  0.0279 -0.4275
 8759TIP3    H147768   3.521   4.468   2.143  0.2248 -0.1235  0.6957
 8759TIP3    H247769   3.403   4.374   2.124 -0.5986  0.9258  0.5209
 8760TIP3   OH247770   5.450   0.396   3.100 -0.2715  0.2897 -0.1550
 8760TIP3    H147771   5.383   0.373   3.036 -1.7870  0.2845  1.3797
 8760TIP3    H247772   5.415   0.472   3.146  0.1656 -0.4885  1.5379
 8761TIP3   OH247773   1.631   0.070   2.765  0.5387 -0.4712 -0.0393
 8761TIP3    H147774   1.609   0.004   2.700  2.0670 -0.8309 -0.2289
 8761TIP3    H247775   1.597   0.035   2.847  0.3882 -0.9894 -0.3169
 8762TIP3   OH247776   6.572   6.394  15.726  0.3698 -0.6409  0.4127
 8762TIP3    H147777   6.607   6.317  15.772  1.1887 -0.4769  0.0940
 8762TIP3    H247778   6.602   6.382  15.636 -0.0573 -0.2742  0.2211
 8763TIP3   OH247779   1.338   0.014  17.202 -0.1743 -0.5284  0.1990
 8763TIP3    H147780   1.414  -0.044  17.201  0.4209  0.2323 -0.2787
 8763TIP3    H247781   1.306   0.010  17.292  0.0981 -1.2789  0.2700
 8764TIP3   OH247782   0.351   4.977  15.224 -0.0060  0.4671 -0.0217
 8764TIP3    H147783   0.287   4.955  15.156 -0.7312  0.7939  0.5433
 8764TIP3    H247784   0.324   4.926  15.300  1.1455 -0.3386 -0.1316
 8765TIP3   OH247785   0.315   6.070  14.356 -0.0833 -0.3287 -0.3702
 8765TIP3    H147786   0.398   6.114  14.335 -0.4236 -0.0895 -1.2567
 8765TIP3    H247787   0.275   6.053  14.271 -1.0496 -0.2485  0.0558
 8766TIP3   OH247788   4.028   0.729   5.047 -0.1221 -0.2138 -0.4795
 8766TIP3    H147789   4.123   0.732   5.041 -0.0710 -0.4713  0.2006
 8766TIP3    H247790   4.007   0.639   5.070 -0.4610  0.0995  0.4977
 8767TIP3   OH247791   6.455   3.700   0.595 -0.2948 -0.0371  0.1179
 8767TIP3    H147792   6.363   3.699   0.620 -0.5098  0.4576 -0.6242
 8767TIP3    H247793   6.455   3.730   0.504  0.3496 -2.8875 -0.9264
 8768TIP3   OH247794   1.722   4.988  15.399  0.1896 -0.3546  0.9648
 8768TIP3    H147795   1.782   5.023  15.334  1.2621 -1.3321  1.3942
 8768TIP3    H247796   1.679   4.915  15.355 -1.9912  1.3656  0.0917
 8769TIP3   OH247797   0.055   0.654  12.183 -0.1094 -0.1179  0.0521
 8769TIP3    H147798   0.147   0.670  12.162  0.4957 -1.5396  1.4113
 8769TIP3    H247799   0.056   0.623  12.274 -1.9537  0.0177  0.1598
 8770TIP3   OH247800   2.720   3.966   4.589  0.5754 -0.1665  0.1890
 8770TIP3    H147801   2.742   4.052   4.555  1.6744 -0.6061 -0.2800
 8770TIP3    H247802   2.627   3.972   4.613  0.4931  0.9662 -0.3550
 8771TIP3   OH247803   4.403   5.382  16.759  0.3349  0.3961  0.0125
 8771TIP3    H147804   4.408   5.467  16.715  1.4506  0.5659  0.4426
 8771TIP3    H247805   4.442   5.320  16.697 -3.1035 -0.4148 -1.6010
 8772TIP3   OH247806   5.983   2.415   1.441  0.1375 -0.1281 -0.1639
 8772TIP3    H147807   5.922   2.351   1.478  0.8334 -1.8971 -1.9037
 8772TIP3    H247808   5.996   2.386   1.350  0.3270  2.6357 -1.0977
 8773TIP3   OH247809   3.723   0.964  11.778 -0.0948  0.2503  0.1155
 8773TIP3    H147810   3.664   0.944  11.851 -0.3814  1.1988  0.1658
 8773TIP3    H247811   3.770   0.883  11.762 -2.6032 -1.0963 -1.0313
 8774TIP3   OH247812   3.088   5.593   5.473 -0.5426 -0.2535  0.1775
 8774TIP3    H147813   3.137   5.514   5.495  1.4173  0.9222  0.2539
 8774TIP3    H247814   3.132   5.627   5.395  0.1073  1.9224  1.4045
 8775TIP3   OH247815   4.412   3.278  14.785  0.3512 -0.4348 -0.0303
 8775TIP3    H147816   4.503   3.251  14.774  0.5853 -0.0895  0.9905
 8775TIP3    H247817   4.395   3.336  14.710  0.2209 -2.3260 -1.5406
 8776TIP3   OH247818   2.708   5.396  15.632  0.5004  0.0243 -0.0350
 8776TIP3    H147819   2.722   5.305  15.659 -0.9144 -0.3952 -0.6134
 8776TIP3    H247820   2.694   5.444  15.713 -0.9477 -0.7022  0.1707
 8777TIP3   OH247821   1.210   0.527  14.199 -0.2679  0.0472  0.3545
 8777TIP3    H147822   1.142   0.585  14.232 -3.0216 -3.4031  1.4257
 8777TIP3    H247823   1.253   0.577  14.130 -1.4897  3.6962  1.9933
 8778TIP3   OH247824   3.224   2.490  11.463 -0.5010 -0.3433 -0.3111
 8778TIP3    H147825   3.130   2.491  11.442 -0.1752 -1.6105 -2.0309
 8778TIP3    H247826   3.228   2.463  11.555 -1.7642 -2.9210 -0.9195
 8779TIP3   OH247827   6.057   5.307  11.661  0.1347 -0.1109  0.0710
 8779TIP3    H147828   6.109   5.337  11.587 -0.4189 -0.9065 -0.6574
 8779TIP3    H247829   5.988   5.254  11.622 -0.1043 -0.6380  1.1719
 8780TIP3   OH247830   1.895   5.722  12.434  0.4200  0.1190  0.0380
 8780TIP3    H147831   1.931   5.666  12.502  2.9405  0.2082 -1.1263
 8780TIP3    H247832   1.912   5.811  12.464 -0.1475  0.2060  0.1224
 8781TIP3   OH247833   1.105   1.813  12.025  0.2873  0.0602  0.0111
 8781TIP3    H147834   1.101   1.899  12.068 -0.3342  0.4770 -0.8575
 8781TIP3    H247835   1.015   1.795  11.999  0.6511 -0.1643 -1.1381
 8782TIP3   OH247836   2.416   6.739   3.459  0.3931 -0.2146 -0.1332
 8782TIP3    H147837   2.470   6.814   3.432  1.8852 -1.0313  0.4718
 8782TIP3    H247838   2.412   6.746   3.554  0.6349 -0.9568 -0.0657
 8783TIP3   OH247839   1.448   2.391   6.239 -0.2599 -0.3529  0.2728
 8783TIP3    H147840   1.378   2.430   6.291 -0.5353 -3.2091  2.2879
 8783TIP3    H247841   1.418   2.303   6.219  2.6598 -1.7215  1.2314
 8784TIP3   OH247842   2.604   4.826   0.826  0.6608  0.6772  0.7283
 8784TIP3    H147843   2.640   4.747   0.785 -0.2634  0.7504 -0.2377
 8784TIP3    H247844   2.647   4.898   0.781 -1.7046  0.8136 -1.5137
 8785TIP3   OH247845   1.399   1.005   5.982  0.2162  0.5255  0.0443
 8785TIP3    H147846   1.394   1.027   5.889 -0.0404  0.6607  0.0876
 8785TIP3    H247847   1.308   0.983   6.006  0.2288  0.7766  0.3316
 8786TIP3   OH247848   2.473   4.130   0.159  0.1455 -0.0912 -0.0739
 8786TIP3    H147849   2.514   4.087   0.084  3.2874  0.9796  0.8535
 8786TIP3    H247850   2.416   4.064   0.197 -2.0579 -0.4819 -3.6592
 8787TIP3   OH247851   6.791   6.456  16.370 -0.4890 -0.3160  0.1356
 8787TIP3    H147852   6.697   6.440  16.384 -0.2532  0.1690  3.0271
 8787TIP3    H247853   6.794   6.540  16.324 -1.4770 -0.2263  0.2135
 8788TIP3   OH247854   3.528   5.683  11.126  0.7760 -0.1903 -0.2352
 8788TIP3    H147855   3.534   5.723  11.039  0.9255 -0.0394 -0.1567
 8788TIP3    H247856   3.562   5.595  11.115  1.6761  0.1292 -0.1398
 8789TIP3   OH247857   5.703   4.012  13.417  0.1566  0.4818 -0.3982
 8789TIP3    H147858   5.761   3.977  13.484 -0.2819 -0.3716 -0.4490
 8789TIP3    H247859   5.757   4.015  13.338  0.0065 -0.8547 -0.5878
 8790TIP3   OH247860   2.241   6.277   3.946 -0.7029  0.3247  0.1828
 8790TIP3    H147861   2.215   6.191   3.980  1.4825 -1.1427 -1.5381
 8790TIP3    H247862   2.227   6.270   3.852  1.3671  1.0913 -0.2294
 8791TIP3   OH247863   5.721   0.057   1.212  0.0032 -0.4134 -0.4431
 8791TIP3    H147864   5.671  -0.022   1.235  0.7070 -0.7906 -0.1799
 8791TIP3    H247865   5.739   0.047   1.119  1.1199 -1.1727 -0.1679
 8792TIP3   OH247866   1.974   0.096  12.029  0.1487 -0.4057 -0.2780
 8792TIP3    H147867   1.978   0.006  11.997 -1.7093 -0.4661 -0.4158
 8792TIP3    H247868   1.930   0.090  12.114  0.2192  0.3432 -0.1834
 8793TIP3   OH247869   5.515   6.544   6.538 -0.0642  1.0462  0.1543
 8793TIP3    H147870   5.511   6.458   6.581 -1.0565  1.5937  1.2080
 8793TIP3    H247871   5.472   6.530   6.454  2.5299 -0.2124 -1.0896
 8794TIP3   OH247872   4.343   4.932   5.322  0.3008 -0.9626 -0.2218
 8794TIP3    H147873   4.287   4.888   5.386 -1.7422  0.9699 -0.5571
 8794TIP3    H247874   4.325   4.887   5.239 -1.0589 -0.1786 -0.3843
 8795TIP3   OH247875   2.743   2.608   1.420  0.5578 -0.3996 -0.3921
 8795TIP3    H147876   2.714   2.531   1.469  0.3984  0.9103  1.6878
 8795TIP3    H247877   2.803   2.653   1.480  1.0865  0.8147 -1.7828
 8796TIP3   OH247878   3.561   6.820  13.543 -0.1245  0.3408 -0.4098
 8796TIP3    H147879   3.616   6.743  13.526  0.4296  0.5124  0.5485
 8796TIP3    H247880   3.473   6.792  13.518 -0.3319 -1.3911  1.9154
 8797TIP3   OH247881   3.701   4.544   2.498  0.5643 -0.6654  0.1008
 8797TIP3    H147882   3.787   4.501   2.501  1.1880  0.5405  0.2399
 8797TIP3    H247883   3.686   4.575   2.587  0.0441 -0.7346  0.0428
 8798TIP3   OH247884   2.542   6.586   4.406  0.3316 -0.1711 -0.5828
 8798TIP3    H147885   2.496   6.592   4.489 -2.1993  1.7342 -1.9754
 8798TIP3    H247886   2.503   6.509   4.363  0.8418 -0.4970 -0.4699
 8799TIP3   OH247887   2.144   0.706  15.324  0.0775  0.5780  0.5448
 8799TIP3    H147888   2.055   0.722  15.295 -0.2718  0.5695  1.5609
 8799TIP3    H247889   2.134   0.657  15.406  1.0158  0.3288  0.5251
 8800TIP3   OH247890   5.665   5.926  16.034  0.3470 -0.2344 -0.0183
 8800TIP3    H147891   5.661   6.016  16.000 -0.6064 -0.2619 -0.0010
 8800TIP3    H247892   5.675   5.872  15.957 -0.4009 -0.1969 -0.1497
 8801TIP3   OH247893   4.118   0.447   5.832  0.0554  0.3402  0.3134
 8801TIP3    H147894   4.208   0.422   5.854 -0.4165 -0.1855  1.7981
 8801TIP3    H247895   4.103   0.528   5.880 -0.0592  0.7893 -0.4658
 8802TIP3   OH247896   2.513   6.049   1.435  0.4689  0.5391  0.3258
 8802TIP3    H147897   2.590   6.032   1.381 -0.7199 -0.6954 -1.0921
 8802TIP3    H247898   2.484   5.963   1.463 -0.0319  1.0364  1.3849
 8803TIP3   OH247899   4.913   1.598   3.175 -0.0117  0.4567 -0.6698
 8803TIP3    H147900   4.914   1.547   3.256 -1.4677  0.3349 -0.6996
 8803TIP3    H247901   4.993   1.651   3.179  2.1632 -2.5397 -1.1597
 8804TIP3   OH247902   6.299   4.495  16.749  0.3283  0.5295 -0.2321
 8804TIP3    H147903   6.277   4.548  16.672 -0.0681  2.6673  1.2687
 8804TIP3    H247904   6.393   4.509  16.762 -0.3923  4.3160  2.4438
 8805TIP3   OH247905   6.261   3.328  15.545  0.6434 -0.7950 -0.1231
 8805TIP3    H147906   6.351   3.301  15.562  1.0761  0.5990 -0.0215
 8805TIP3    H247907   6.270   3.418  15.512 -0.7911 -0.1961  1.0427
 8806TIP3   OH247908   0.841   2.625  15.110 -0.0970  0.0141 -0.5623
 8806TIP3    H147909   0.793   2.694  15.156  0.5798  0.6689 -0.8129
 8806TIP3    H247910   0.904   2.592  15.174 -0.7921 -0.7739 -0.2658
 8807TIP3   OH247911   1.779   4.506  16.622 -0.2816 -0.2657  0.1259
 8807TIP3    H147912   1.797   4.565  16.549 -0.5171 -0.0493  0.2437
 8807TIP3    H247913   1.704   4.544  16.667 -0.3808 -0.6048  0.2550
 8808TIP3   OH247914   3.620   6.544   1.461  0.2020  0.5490  0.3539
 8808TIP3    H147915   3.677   6.584   1.526  0.1561  0.3949  0.4876
 8808TIP3    H247916   3.562   6.486   1.511 -0.7030  1.4163  0.3466
 8809TIP3   OH247917   0.067   3.473  17.098 -0.2870 -0.1062  0.3714
 8809TIP3    H147918   0.077   3.561  17.135  1.0318 -0.2005  0.3074
 8809TIP3    H247919   0.076   3.415  17.173 -1.9767 -0.1855  0.5411
 8810TIP3   OH247920   3.621   0.562   5.777  0.1161  0.2139 -0.2379
 8810TIP3    H147921   3.679   0.485   5.778  0.4216  0.4176 -1.4760
 8810TIP3    H247922   3.560   0.546   5.850  1.0352 -0.5299  0.3956
 8811TIP3   OH247923   5.286   5.355  14.010  0.3569 -0.0070 -0.0751
 8811TIP3    H147924   5.242   5.278  14.047  1.6858 -0.7381  0.0529
 8811TIP3    H247925   5.344   5.319  13.943 -1.8919  1.2832 -2.8652
 8812TIP3   OH247926   2.112   6.740  13.289  0.0919 -0.3829 -0.5229
 8812TIP3    H147927   2.163   6.737  13.208  2.2438  1.1253  0.6934
 8812TIP3    H247928   2.167   6.696  13.354 -0.0072  1.4771  0.9003
 8813TIP3   OH247929   2.031   2.923  12.122  0.0961  1.0262 -0.3422
 8813TIP3    H147930   1.943   2.885  12.132  0.3415  0.8521  1.5817
 8813TIP3    H247931   2.090   2.853  12.149  0.7664  1.5000 -0.5754
 8814TIP3   OH247932   4.360   1.405   3.583 -0.1263  0.0352  0.5284
 8814TIP3    H147933   4.291   1.466   3.610 -0.0604  1.3381 -1.9092
 8814TIP3    H247934   4.322   1.358   3.509  0.4528 -1.7241  1.2898
 8815TIP3   OH247935   2.954   5.615   3.002 -0.1069  0.4397  0.1147
 8815TIP3    H147936   2.903   5.657   3.070 -0.8643  0.0863 -0.2267
 8815TIP3    H247937   3.042   5.607   3.039 -0.2325  1.2783  0.6089
 8816TIP3   OH247938   1.390   2.745   5.235  0.3357  0.2114 -0.0277
 8816TIP3    H147939   1.483   2.722   5.238  0.0913 -0.9145 -0.8708
 8816TIP3    H247940   1.375   2.773   5.145 -0.0980  0.6082  0.1643
 8817TIP3   OH247941   4.339   5.969  16.395 -0.0922  0.3850 -0.4141
 8817TIP3    H147942   4.262   5.937  16.443 -0.5489 -0.0287 -1.3756
 8817TIP3    H247943   4.333   6.064  16.401 -1.0721  0.3796 -1.0413
 8818TIP3   OH247944   5.975   6.798   0.755  0.4747 -0.2010 -0.3824
 8818TIP3    H147945   5.974   6.819   0.661 -0.3163  0.5841 -0.2099
 8818TIP3    H247946   6.055   6.748   0.767  2.5777  2.7981 -0.8132
 8819TIP3   OH247947   1.748   4.898  12.368  0.4215 -0.5282  0.4004
 8819TIP3    H147948   1.748   4.899  12.272  0.5095 -1.9867  0.3533
 8819TIP3    H247949   1.751   4.990  12.394  2.6543 -0.1120 -1.0099
 8820TIP3   OH247950   2.755   6.099  15.419  0.2605 -0.3576  0.2619
 8820TIP3    H147951   2.827   6.077  15.360  0.6003 -1.5324  1.0751
 8820TIP3    H247952   2.678   6.104  15.363  0.9407  0.8521 -0.6110
 8821TIP3   OH247953   6.570   4.417  10.541  0.4758  0.0477  0.3941
 8821TIP3    H147954   6.633   4.486  10.518  2.2812 -1.3865  0.8086
 8821TIP3    H247955   6.487   4.463  10.550  1.3652  1.9628 -0.6047
 8822TIP3   OH247956   0.273   3.360   2.881 -0.4310 -0.6049  0.0218
 8822TIP3    H147957   0.361   3.351   2.917 -0.6905 -0.7203  0.6476
 8822TIP3    H247958   0.285   3.362   2.786  0.1077 -2.2196  0.0339
 8823TIP3   OH247959   0.016   2.491  10.625  0.3867 -0.3025  0.2547
 8823TIP3    H147960  -0.039   2.414  10.634  1.5418 -0.9908  1.9902
 8823TIP3    H247961   0.065   2.476  10.544  0.0204 -1.0084  0.1554
 8824TIP3   OH247962   2.337   4.680  11.847 -0.1699 -0.0721 -0.1350
 8824TIP3    H147963   2.295   4.595  11.835 -0.5419 -0.2439  2.0160
 8824TIP3    H247964   2.337   4.694  11.941  0.8638  1.8414 -0.3643
 8825TIP3   OH247965   0.455   1.012   5.592 -0.6412  0.0841 -0.2973
 8825TIP3    H147966   0.400   1.083   5.625  0.3768  0.7152  0.0821
 8825TIP3    H247967   0.464   0.953   5.667 -0.4337  0.2113 -0.2214
 8826TIP3   OH247968   5.242   6.736   1.167 -0.0766  0.4572 -0.1986
 8826TIP3    H147969   5.321   6.732   1.113  0.0735  0.3609  0.0247
 8826TIP3    H247970   5.173   6.764   1.107 -0.1129 -0.5795 -0.6640
 8827TIP3   OH247971   0.628   0.922  16.015  0.1379  0.1340 -0.2617
 8827TIP3    H147972   0.682   0.886  15.943  0.3168 -0.4536  0.1535
 8827TIP3    H247973   0.561   0.973  15.971 -0.0203 -0.5785 -0.8830
 8828TIP3   OH247974   2.449   6.071  10.667  0.1952 -0.4497  0.2872
 8828TIP3    H147975   2.427   6.085  10.575 -0.7643 -2.3116  0.1792
 8828TIP3    H247976   2.544   6.082  10.671  0.0403  1.5018 -0.5242
 8829TIP3   OH247977   4.661   6.452  11.164 -0.1298  0.3354  0.2856
 8829TIP3    H147978   4.627   6.493  11.084 -5.0558  0.3571  2.0642
 8829TIP3    H247979   4.716   6.380  11.132  0.6093  2.1411 -2.9886
 8830TIP3   OH247980   3.698   2.295   2.121 -0.2957  0.2533 -0.0882
 8830TIP3    H147981   3.720   2.203   2.131  0.6090  0.4963  0.2522
 8830TIP3    H247982   3.707   2.332   2.209 -0.1045  0.7696 -0.3186
 8831TIP3   OH247983   4.188   6.694  11.577  0.3923 -0.6703 -0.5205
 8831TIP3    H147984   4.214   6.785  11.589 -0.2516 -0.5457 -0.0624
 8831TIP3    H247985   4.117   6.680  11.639  1.3666 -1.8772  0.3729
 8832TIP3   OH247986   0.901   0.203  11.550 -0.5323 -0.6714  0.2879
 8832TIP3    H147987   0.918   0.297  11.548  1.3000 -0.9645  0.1719
 8832TIP3    H247988   0.815   0.193  11.508 -0.4206  0.8712 -0.3767
 8833TIP3   OH247989   2.309   1.637  16.149  0.2862 -0.4390 -0.1926
 8833TIP3    H147990   2.294   1.724  16.184 -1.6061 -0.1805 -1.4630
 8833TIP3    H247991   2.403   1.633  16.131  0.4900  1.0993  0.4235
 8834TIP3   OH247992   1.564   3.512   5.099  0.3882  0.5299  0.1269
 8834TIP3    H147993   1.501   3.538   5.032 -1.2480  0.6564  1.6100
 8834TIP3    H247994   1.644   3.559   5.077  0.3450 -0.4932 -2.4482
 8835TIP3   OH247995   2.348   4.271  13.120  0.3654  0.0985  0.1696
 8835TIP3    H147996   2.340   4.226  13.036 -0.7735  0.8395 -0.1569
 8835TIP3    H247997   2.270   4.328  13.124  1.7815  2.1377  0.4674
 8836TIP3   OH247998   4.082   6.601   1.336  0.3279  0.4501  0.2338
 8836TIP3    H147999   4.033   6.680   1.359  0.9570  0.7842  0.4214
 8836TIP3    H248000   4.100   6.611   1.243 -2.9959 -1.3134 -0.7809
 8837TIP3   OH248001   2.165   3.169  10.803 -0.0147 -0.4784  0.2722
 8837TIP3    H148002   2.247   3.177  10.754  0.2197  1.5566  0.9176
 8837TIP3    H248003   2.102   3.133  10.740  0.9028 -0.3119 -0.7677
 8838TIP3   OH248004   4.114   3.299   4.535 -0.2167  0.0258  0.5870
 8838TIP3    H148005   4.185   3.332   4.480  0.0588 -0.8469  0.3932
 8838TIP3    H248006   4.035   3.310   4.482  0.0531 -0.8572 -0.0244
 8839TIP3   OH248007   5.684   6.641  12.283  0.5270  0.3621 -0.4054
 8839TIP3    H148008   5.734   6.661  12.362 -2.4586  2.1336  1.2014
 8839TIP3    H248009   5.607   6.593  12.314  0.9832 -2.1672 -2.7537
 8840TIP3   OH248010   3.204   5.495  16.910  0.1710  0.1954 -0.0967
 8840TIP3    H148011   3.124   5.465  16.867  0.0206 -1.9525  1.5002
 8840TIP3    H248012   3.222   5.428  16.976  3.0072  0.8858 -0.0415
 8841TIP3   OH248013   4.496   0.157  16.816  0.3209 -0.2028  0.0735
 8841TIP3    H148014   4.538   0.203  16.889  1.4802 -1.0957 -0.0021
 8841TIP3    H248015   4.550   0.079  16.802 -0.8875 -0.9478 -0.6100
 8842TIP3   OH248016   6.033   4.954   2.494  0.5017  0.3955  0.1035
 8842TIP3    H148017   6.118   4.911   2.484 -0.3837 -1.7372  1.1791
 8842TIP3    H248018   5.970   4.892   2.456 -0.6479  1.7679 -0.3343
 8843TIP3   OH248019   5.707   5.265  11.594 -0.1445  0.4373  0.6610
 8843TIP3    H148020   5.755   5.189  11.560 -0.5144  0.6944 -0.5050
 8843TIP3    H248021   5.650   5.291  11.521  1.7053  3.3185  0.0608
 8844TIP3   OH248022   3.383   6.390   5.829 -0.4921 -0.6132  0.1564
 8844TIP3    H148023   3.387   6.306   5.874 -0.7363 -0.1721  1.0240
 8844TIP3    H248024   3.320   6.376   5.758 -0.3221 -1.2375  0.1261
 8845TIP3   OH248025   3.460   4.156   5.978 -0.4769 -0.1950 -0.8178
 8845TIP3    H148026   3.451   4.232   6.036 -1.2723  0.1067 -1.3198
 8845TIP3    H248027   3.555   4.141   5.974 -0.3834 -0.0336  0.3012
 8846TIP3   OH248028   5.738   4.639   4.579 -0.7682  0.0782  0.0210
 8846TIP3    H148029   5.705   4.610   4.494 -2.4801  0.3289  0.5721
 8846TIP3    H248030   5.661   4.640   4.636  0.1723  0.8493  1.3277
 8847TIP3   OH248031   1.470   3.788   2.995 -0.8513  0.2177  0.0272
 8847TIP3    H148032   1.510   3.727   2.933 -1.6595  0.7414 -1.0300
 8847TIP3    H248033   1.395   3.824   2.948 -1.1006  1.1139  1.0860
 8848TIP3   OH248034   1.185   6.312  16.253  0.4639 -0.2249  0.3249
 8848TIP3    H148035   1.116   6.343  16.196  0.7939 -0.9977 -0.5114
 8848TIP3    H248036   1.235   6.250  16.200  2.1499  0.7441  0.7158
 8849TIP3   OH248037   3.496   4.969  16.481  0.2809 -0.3079  0.5889
 8849TIP3    H148038   3.551   4.892  16.467 -0.0477 -0.6993  1.3836
 8849TIP3    H248039   3.421   4.957  16.422 -0.0943 -0.9316  1.1828
 8850TIP3   OH248040   5.231   0.550  16.023 -0.3606  0.0744 -0.3935
 8850TIP3    H148041   5.244   0.636  16.065 -1.2549  0.9271 -1.7703
 8850TIP3    H248042   5.272   0.560  15.937  0.1896 -1.1564 -0.2915
 8851TIP3   OH248043   2.818   5.256   4.849  0.1001  0.0823 -0.3552
 8851TIP3    H148044   2.794   5.205   4.927 -1.9877 -1.0113 -1.6231
 8851TIP3    H248045   2.894   5.307   4.877  0.2787 -1.2876  1.9762
 8852TIP3   OH248046   5.793   4.934   6.146  0.1901 -0.2104  0.3407
 8852TIP3    H148047   5.885   4.947   6.123  0.0902  0.9522  0.5617
 8852TIP3    H248048   5.764   5.018   6.181 -1.6253  0.2658 -2.0021
 8853TIP3   OH248049   3.117   1.131  16.753 -0.0163  0.6439 -1.0943
 8853TIP3    H148050   3.116   1.069  16.826  0.1527  1.5605 -0.3056
 8853TIP3    H248051   3.030   1.123  16.714 -0.7834  1.4977  0.3722
 8854TIP3   OH248052   6.084   0.798  16.267 -0.0816  0.4536  0.3110
 8854TIP3    H148053   6.161   0.851  16.250  1.4802 -1.0465  2.2841
 8854TIP3    H248054   6.021   0.859  16.306  0.4010  1.5161 -0.5351
 8855TIP3   OH248055   1.919   1.985  14.661 -0.0151 -0.2638  0.4804
 8855TIP3    H148056   1.985   2.002  14.593 -0.2440  0.1470  0.3550
 8855TIP3    H248057   1.836   2.010  14.621 -0.0463  0.9723  1.2353
 8856TIP3   OH248058   1.896   3.518   6.694  0.0565 -0.0908 -0.4848
 8856TIP3    H148059   1.893   3.434   6.739  2.0084  0.4324  0.7194
 8856TIP3    H248060   1.957   3.504   6.621 -0.3323  0.0529 -0.8441
 8857TIP3   OH248061   1.942   1.747  17.158  0.2226 -0.1580  0.7715
 8857TIP3    H148062   1.953   1.683  17.229  0.3717 -0.3405  0.5826
 8857TIP3    H248063   1.995   1.713  17.086 -1.1889 -0.8206 -0.0001
 8858TIP3   OH248064   4.532   4.116   4.793  0.0559 -0.7165 -0.7760
 8858TIP3    H148065   4.444   4.080   4.804  0.1233 -0.6170  0.1989
 8858TIP3    H248066   4.586   4.039   4.771 -0.0084 -1.0425  0.1528
 8859TIP3   OH248067   4.633   6.395  11.435 -0.8296 -0.9794 -0.3349
 8859TIP3    H148068   4.727   6.390  11.453 -0.8295  1.8441  1.0319
 8859TIP3    H248069   4.627   6.441  11.351 -0.9945 -1.6980 -0.7211
 8860TIP3   OH248070   6.543   2.596   4.325 -0.1799  0.2099  0.8357
 8860TIP3    H148071   6.535   2.679   4.372  0.4413  2.0878 -2.1198
 8860TIP3    H248072   6.635   2.591   4.301 -0.9043  1.0613 -2.7886
 8861TIP3   OH248073   1.297   2.426   3.539  0.3149  0.0684  0.1406
 8861TIP3    H148074   1.241   2.481   3.594  0.2942  0.0263  0.1620
 8861TIP3    H248075   1.385   2.442   3.572  0.3627  0.4384 -0.1498
 8862TIP3   OH248076   0.799   4.451  17.009 -0.4385  0.1373 -0.4743
 8862TIP3    H148077   0.880   4.411  16.978 -0.6943 -1.0096  0.2698
 8862TIP3    H248078   0.763   4.496  16.933  0.1851 -0.5282 -1.1762
 8863TIP3   OH248079   2.780   6.312   2.445 -0.1040  0.0832 -0.0264
 8863TIP3    H148080   2.844   6.252   2.406  0.3078 -0.1239  0.9263
 8863TIP3    H248081   2.831   6.390   2.467 -0.1729 -0.0725  0.7160
 8864TIP3   OH248082   2.994   5.391   5.148 -0.0781  0.0479 -0.6299
 8864TIP3    H148083   3.078   5.435   5.154 -0.0711 -0.0983  0.5836
 8864TIP3    H248084   2.932   5.451   5.189 -0.2949 -0.4880 -0.1593
 8865TIP3   OH248085   2.154   5.165  12.028 -0.2057 -0.5784  0.6751
 8865TIP3    H148086   2.134   5.223  12.102 -0.4336 -0.0445  0.2032
 8865TIP3    H248087   2.080   5.176  11.968  2.1787  2.9206 -2.0546
 8866TIP3   OH248088   3.842   0.807   6.014 -0.5231  0.3100 -0.1415
 8866TIP3    H148089   3.844   0.824   6.108  0.2775 -2.7143  0.4870
 8866TIP3    H248090   3.749   0.810   5.991 -0.8119  0.1786  0.9603
 8867TIP3   OH248091   6.747   0.830  12.564 -0.0932  0.0002 -0.2750
 8867TIP3    H148092   6.661   0.788  12.554  0.2548 -0.7714 -0.1281
 8867TIP3    H248093   6.751   0.894  12.493 -1.1837  0.7348  0.3016
 8868TIP3   OH248094   3.688   5.097  14.589  0.0062 -0.0735  0.1566
 8868TIP3    H148095   3.768   5.110  14.639 -0.5793 -2.3589  1.8369
 8868TIP3    H248096   3.618   5.126  14.647 -0.5926 -1.4647  0.1780
 8869TIP3   OH248097   0.295   5.111  10.787 -0.2112 -0.6553  0.1732
 8869TIP3    H148098   0.241   5.068  10.721  0.9341 -0.1302 -1.1450
 8869TIP3    H248099   0.364   5.048  10.807  0.3835 -0.1852 -0.3619
 8870TIP3   OH248100   4.677   1.072   0.833  0.0436 -0.1078 -0.6413
 8870TIP3    H148101   4.606   1.017   0.801 -0.8640  0.9548 -0.4991
 8870TIP3    H248102   4.641   1.114   0.911  1.7210 -1.5600  1.0160
 8871TIP3   OH248103   1.837   6.012  14.737  0.1114 -0.1284  0.6141
 8871TIP3    H148104   1.824   6.042  14.827 -1.9838 -0.6784  0.5527
 8871TIP3    H248105   1.749   5.994  14.705  0.9294 -1.8339 -0.8946
 8872TIP3   OH248106   1.431   3.730  16.967  0.0159  0.2166  0.0892
 8872TIP3    H148107   1.478   3.647  16.980 -1.6484 -0.7673  0.1677
 8872TIP3    H248108   1.440   3.748  16.874 -1.6042 -1.4003 -0.4548
 8873TIP3   OH248109   5.712   0.185  14.094 -0.5252 -0.5155 -0.2503
 8873TIP3    H148110   5.657   0.147  14.163 -0.4031 -0.6298 -0.2141
 8873TIP3    H248111   5.665   0.263  14.065  0.4193  0.7507  1.4319
 8874TIP3   OH248112   5.753   3.260  15.425  0.3696 -0.0511  0.1059
 8874TIP3    H148113   5.725   3.229  15.339  0.7955  2.3787 -0.9877
 8874TIP3    H248114   5.677   3.305  15.461 -0.1346 -1.9064  1.5124
 8875TIP3   OH248115   4.577   3.094   4.305 -1.0767  0.0788  0.3835
 8875TIP3    H148116   4.499   3.046   4.332 -1.5817  1.5319  1.5624
 8875TIP3    H248117   4.649   3.047   4.347 -1.3106 -1.0693 -0.4423
 8876TIP3   OH248118   3.822   1.862   0.809 -0.4170 -0.0449  0.2179
 8876TIP3    H148119   3.796   1.928   0.744 -0.4443 -0.5693 -0.3053
 8876TIP3    H248120   3.912   1.839   0.786 -0.7227 -0.8838 -0.1957
 8877TIP3   OH248121   1.665   5.492   5.746  0.5344  0.7845  0.0372
 8877TIP3    H148122   1.719   5.565   5.775  0.0680  0.7563  1.0133
 8877TIP3    H248123   1.727   5.421   5.729  0.7741  0.3161  2.4516
 8878TIP3   OH248124   2.547   0.284  12.990 -0.2962 -0.0660  0.7803
 8878TIP3    H148125   2.632   0.258  13.025 -0.1035  0.2395  0.5491
 8878TIP3    H248126   2.555   0.272  12.896  0.2721  2.0709  0.5015
 8879TIP3   OH248127   4.851   4.973   3.879 -0.5217  0.1921  0.4895
 8879TIP3    H148128   4.912   4.912   3.837 -0.2531  0.8286 -0.0541
 8879TIP3    H248129   4.906   5.033   3.929 -0.8712 -1.0178  2.4477
 8880TIP3   OH248130   2.792   0.886  16.041  0.1087 -0.2733 -0.2107
 8880TIP3    H148131   2.705   0.927  16.045  0.1617 -0.2403  1.6632
 8880TIP3    H248132   2.832   0.907  16.125  1.7214 -0.7897 -0.8153
 8881TIP3   OH248133   6.227   3.717  16.428 -0.1556 -0.1144 -0.3693
 8881TIP3    H148134   6.166   3.774  16.475 -0.7062 -1.1793  0.2581
 8881TIP3    H248135   6.222   3.746  16.337  0.6862  1.7744  0.1382
 8882TIP3   OH248136   1.888   6.568  14.255  0.4797 -0.4697  0.5558
 8882TIP3    H148137   1.852   6.629  14.320 -0.5370 -0.6538  0.1754
 8882TIP3    H248138   1.814   6.515  14.227  0.3074  1.1450 -2.5063
 8883TIP3   OH248139   2.417   0.692   3.877 -0.0708 -0.2371 -1.2518
 8883TIP3    H148140   2.329   0.689   3.916 -0.4915  2.5322 -1.7545
 8883TIP3    H248141   2.476   0.693   3.953 -0.4733 -1.6587 -0.8988
 8884TIP3   OH248142   4.755   3.844   3.233 -0.1685  0.2916 -0.1940
 8884TIP3    H148143   4.673   3.814   3.273  0.2494  2.1038  2.2839
 8884TIP3    H248144   4.820   3.780   3.261 -0.3117  0.2042 -0.0591
 8885TIP3   OH248145   5.912   6.709   5.609 -0.2480  0.4110 -0.6722
 8885TIP3    H148146   5.863   6.759   5.674  1.4315 -0.1223  1.1093
 8885TIP3    H248147   5.918   6.768   5.533 -1.5986  1.3602 -0.0759
 8886TIP3   OH248148   2.592   0.400   0.080 -0.4622 -0.4789  0.1196
 8886TIP3    H148149   2.612   0.460   0.152 -0.2440 -1.1538  0.6340
 8886TIP3    H248150   2.506   0.364   0.102 -1.7152  1.3879 -1.3906
 8887TIP3   OH248151   0.780   0.374  12.349  0.3659 -0.2031  0.2168
 8887TIP3    H148152   0.781   0.278  12.354  0.8443 -0.2788 -1.1430
 8887TIP3    H248153   0.712   0.400  12.412  1.3543 -1.3308  1.8401
 8888TIP3   OH248154   3.546   6.499   4.154  0.0031  0.6752 -0.5882
 8888TIP3    H148155   3.495   6.578   4.138 -0.5974  0.2275 -0.9319
 8888TIP3    H248156   3.507   6.433   4.097  0.8929  0.2858 -0.7598
 8889TIP3   OH248157   1.601   2.601   5.669 -0.3243  0.5788  0.4959
 8889TIP3    H148158   1.565   2.528   5.619 -1.6079  2.1774 -1.0403
 8889TIP3    H248159   1.608   2.568   5.759 -3.3320 -0.6489  0.3880
 8890TIP3   OH248160   1.573   0.155  15.255 -0.2844  0.7218  0.2047
 8890TIP3    H148161   1.590   0.233  15.307  1.2863  1.2333 -0.9997
 8890TIP3    H248162   1.484   0.168  15.220  0.3100  2.4638 -0.7656
 8891TIP3   OH248163   2.220   5.731   1.598 -0.0874  0.4925 -0.2312
 8891TIP3    H148164   2.208   5.703   1.689 -0.5688  1.1087 -0.1007
 8891TIP3    H248165   2.276   5.808   1.604  0.1027  0.3739 -0.4813
 8892TIP3   OH248166   6.044   3.300   2.697  0.0085  0.4308  0.4519
 8892TIP3    H148167   6.018   3.356   2.624  2.5842  3.1228  1.4071
 8892TIP3    H248168   6.104   3.236   2.658 -1.6095 -0.6597 -0.3548
 8893TIP3   OH248169   5.285   4.462   4.142 -0.2272  0.0983 -0.4098
 8893TIP3    H148170   5.206   4.411   4.160  0.0572 -0.7957 -1.5585
 8893TIP3    H248171   5.344   4.399   4.100  0.1252  1.4005 -1.9247
 8894TIP3   OH248172   4.043   0.015   1.838 -0.2049 -0.1285 -0.0583
 8894TIP3    H148173   4.053   0.109   1.851 -0.0240 -0.1571  0.0197
 8894TIP3    H248174   4.063   0.001   1.746 -1.1045  0.0238 -0.2849
 8895TIP3   OH248175   0.265   4.465  16.279  0.1852 -0.2802 -0.2200
 8895TIP3    H148176   0.284   4.373  16.259 -0.4568 -0.4700  0.0139
 8895TIP3    H248177   0.351   4.507  16.282  0.7158 -1.3932  2.2117
 8896TIP3   OH248178   4.533   0.087   4.091 -0.4244 -0.2205  0.1754
 8896TIP3    H148179   4.555   0.147   4.163 -1.7280 -3.8912  4.0489
 8896TIP3    H248180   4.438   0.095   4.081 -0.0578  2.1015 -3.2808
 8897TIP3   OH248181   4.501   5.559  15.043  0.2871  0.2566 -0.0891
 8897TIP3    H148182   4.437   5.611  14.994  1.3879  2.0856  0.3153
 8897TIP3    H248183   4.576   5.552  14.984  0.7685  0.5346  0.4806
 8898TIP3   OH248184   0.502   4.047  14.462  0.8761 -0.2543  0.4045
 8898TIP3    H148185   0.494   4.142  14.457  2.0955 -0.1808 -1.9357
 8898TIP3    H248186   0.582   4.028  14.413  1.4878 -2.4036  2.0848
 8899TIP3   OH248187   1.087   0.542   4.511 -0.1973 -0.2512  0.0837
 8899TIP3    H148188   1.054   0.456   4.535 -0.5136 -0.0756  0.2980
 8899TIP3    H248189   1.046   0.602   4.574  0.5127 -0.0184  0.3425
 8900TIP3   OH248190   6.019   1.799  14.072 -0.1031 -0.1187  0.0481
 8900TIP3    H148191   6.027   1.713  14.113 -0.5300  0.4923  1.4548
 8900TIP3    H248192   6.008   1.860  14.145  1.9144  1.3802 -0.7938
 8901TIP3   OH248193   6.731   5.374   2.426 -0.3418  0.2573  0.9899
 8901TIP3    H148194   6.705   5.423   2.348 -0.3758  1.9021  1.9688
 8901TIP3    H248195   6.825   5.385   2.432 -0.4410  0.8694  1.6181
 8902TIP3   OH248196   0.771   0.725  13.258 -0.2153 -1.1716 -0.1563
 8902TIP3    H148197   0.827   0.766  13.192 -1.5019 -0.6912 -0.9937
 8902TIP3    H248198   0.732   0.799  13.306 -1.9832 -1.3778 -1.1916
 8903TIP3   OH248199   6.692   1.212  11.405  0.0792 -0.3848 -0.0780
 8903TIP3    H148200   6.609   1.167  11.387 -0.5125  0.2213  1.0051
 8903TIP3    H248201   6.759   1.145  11.394 -0.5038 -0.7725 -1.4329
 8904TIP3   OH248202   3.250   2.284   2.143 -0.2642  0.0180 -0.2410
 8904TIP3    H148203   3.184   2.281   2.212  1.2919 -1.7288  1.2719
 8904TIP3    H248204   3.308   2.356   2.168  0.4600 -0.7922  0.4879
 8905TIP3   OH248205   3.642   2.239   4.604  0.2115  0.1138 -0.3283
 8905TIP3    H148206   3.567   2.233   4.546 -0.9699 -0.0853  1.1604
 8905TIP3    H248207   3.632   2.324   4.648  0.8722  0.0986 -0.1362
 8906TIP3   OH248208   0.288   3.375   2.604 -0.2988  0.3849 -0.0317
 8906TIP3    H148209   0.356   3.441   2.592 -0.8338  0.4883 -3.2552
 8906TIP3    H248210   0.307   3.309   2.537 -1.9090 -0.8807  0.6886
 8907TIP3   OH248211   4.007   0.539   2.399  0.2507  0.1232 -0.0280
 8907TIP3    H148212   3.964   0.462   2.363  0.2577 -0.0650  0.3637
 8907TIP3    H248213   4.097   0.534   2.367  0.0509  0.3932 -0.6546
 8908TIP3   OH248214   6.355   5.476  14.370 -0.5675 -0.3518 -0.4601
 8908TIP3    H148215   6.370   5.560  14.325 -0.8175 -0.1396 -0.1554
 8908TIP3    H248216   6.279   5.438  14.326 -0.1907 -0.6202 -0.8807
 8909TIP3   OH248217   4.423   3.023  15.160 -0.1912  0.0666  0.6654
 8909TIP3    H148218   4.337   3.034  15.203 -1.5316  1.7523 -2.1345
 8909TIP3    H248219   4.402   3.004  15.069  2.4822 -1.1846  0.2204
 8910TIP3   OH248220   6.582   1.835  15.102 -0.4656  0.3671 -0.2225
 8910TIP3    H148221   6.663   1.832  15.152 -1.4922 -0.1783  1.4617
 8910TIP3    H248222   6.598   1.903  15.036  1.7571 -0.5223 -0.7156
 8911TIP3   OH248223   3.464   1.783  17.084 -0.1296  0.4199 -0.0423
 8911TIP3    H148224   3.486   1.871  17.115  0.3219  0.2861  0.0235
 8911TIP3    H248225   3.480   1.786  16.990 -3.7042  1.5210 -0.7630
 8912TIP3   OH248226   2.671   1.940   1.276 -0.3926  0.1698 -0.3402
 8912TIP3    H148227   2.751   1.953   1.325 -0.5820 -1.2360  0.4060
 8912TIP3    H248228   2.698   1.940   1.184  0.5017 -0.4574 -0.0878
 8913TIP3   OH248229   4.363   1.510   4.075  0.1853  0.1447 -0.0473
 8913TIP3    H148230   4.339   1.499   4.167 -0.8000  0.8854 -0.1981
 8913TIP3    H248231   4.437   1.451   4.062  0.5295  0.2612  1.2915
 8914TIP3   OH248232   1.011   3.360  12.033 -0.1230 -0.0161 -0.3021
 8914TIP3    H148233   0.965   3.427  12.084 -0.9990 -0.4934 -0.4623
 8914TIP3    H248234   0.947   3.329  11.969  0.9123  0.4822 -1.6445
 8915TIP3   OH248235   0.265   6.498  14.310  0.1405  0.3310 -0.0100
 8915TIP3    H148236   0.189   6.547  14.279  1.1079  1.6776 -0.3610
 8915TIP3    H248237   0.308   6.466  14.230  0.7226  0.8234  0.0947
 8916TIP3   OH248238   0.267   4.136  16.451 -0.4224  0.1301  0.2455
 8916TIP3    H148239   0.344   4.180  16.488  0.1293 -0.5876 -0.0314
 8916TIP3    H248240   0.288   4.125  16.358 -1.2465  0.7324 -0.0229
 8917TIP3   OH248241   3.220   1.044  13.979 -0.0559 -0.7247 -0.2922
 8917TIP3    H148242   3.306   1.065  14.015  0.0546 -1.5370 -0.0604
 8917TIP3    H248243   3.237   0.983  13.908 -0.4359 -0.9307 -0.2135
 8918TIP3   OH248244   3.080   2.048   5.420  0.0360 -0.2847 -0.7847
 8918TIP3    H148245   3.035   1.969   5.391  0.8409 -0.9236 -0.3272
 8918TIP3    H248246   3.122   2.082   5.342  1.0866 -1.2526 -0.6593
 8919TIP3   OH248247   6.398   2.147  15.684  0.0115 -0.3664 -0.1604
 8919TIP3    H148248   6.306   2.145  15.709 -0.1830  0.0569 -0.8441
 8919TIP3    H248249   6.445   2.137  15.767 -0.6285  1.4009  0.4552
 8920TIP3   OH248250   0.752   1.198   4.544 -0.0226  0.5211 -0.6061
 8920TIP3    H148251   0.844   1.209   4.568 -0.1662 -0.6255  0.6491
 8920TIP3    H248252   0.751   1.120   4.489 -0.3205 -0.0173  0.1351
 8921TIP3   OH248253   0.736   0.197   5.409  0.5572 -0.3167 -0.2025
 8921TIP3    H148254   0.684   0.274   5.435 -0.4812 -1.3629  0.9604
 8921TIP3    H248255   0.695   0.167   5.328 -0.1780 -0.6698  0.2881
 8922TIP3   OH248256   4.849   6.744   5.675  0.5280  0.0518 -0.1358
 8922TIP3    H148257   4.851   6.651   5.694  1.7026  0.5489  2.7277
 8922TIP3    H248258   4.927   6.760   5.621 -0.7846 -0.8364 -2.4442
 8923TIP3   OH248259   3.337   1.444   4.706  0.9077 -0.5828  0.6756
 8923TIP3    H148260   3.430   1.426   4.722  1.1256  1.3238  1.8753
 8923TIP3    H248261   3.294   1.423   4.789  0.7350  1.2267  1.0913
 8924TIP3   OH248262   3.543   5.556   1.874 -0.5647 -0.3749 -0.1556
 8924TIP3    H148263   3.599   5.519   1.805  0.5869  1.2969 -0.1639
 8924TIP3    H248264   3.460   5.573   1.829  0.5161  1.7508 -1.5241
 8925TIP3   OH248265   3.946   3.325  15.738  0.1105 -0.1099  0.3675
 8925TIP3    H148266   3.872   3.289  15.688 -1.0818  3.3457 -0.6311
 8925TIP3    H248267   4.010   3.349  15.671  0.6421  0.1242  0.9499
 8926TIP3   OH248268   2.567   6.434  15.901 -0.2432 -0.3077  0.0015
 8926TIP3    H148269   2.611   6.512  15.867 -0.8094 -0.3050 -0.7459
 8926TIP3    H248270   2.638   6.370  15.911 -0.1205 -0.4975 -1.7554
 8927TIP3   OH248271   5.021   3.170   0.660  0.6049 -0.5733 -0.3006
 8927TIP3    H148272   5.057   3.095   0.612  1.1766 -2.2250  2.4795
 8927TIP3    H248273   5.099   3.219   0.688  0.5030 -1.2731  1.3283
 8928TIP3   OH248274   6.748   2.822   2.832  0.0207  0.3076  0.5015
 8928TIP3    H148275   6.703   2.860   2.757  2.0099  0.8010 -0.5046
 8928TIP3    H248276   6.704   2.739   2.847 -1.7735  1.1407  0.1515
 8929TIP3   OH248277   2.800   0.019   2.226  0.5336  0.1991 -0.0591
 8929TIP3    H148278   2.765   0.094   2.178 -0.5853 -0.6347 -0.5978
 8929TIP3    H248279   2.894   0.020   2.206  0.6033  1.6589  0.2518
 8930TIP3   OH248280   0.516   2.212  11.254  0.0251  0.3355 -0.5797
 8930TIP3    H148281   0.513   2.242  11.345 -0.8619 -2.8590  0.5594
 8930TIP3    H248282   0.586   2.264  11.214 -1.0522  3.4697  1.2135
 8931TIP3   OH248283   2.985   3.604  13.199  0.3453 -0.1642 -0.0636
 8931TIP3    H148284   3.027   3.529  13.242 -0.0030 -0.4093 -0.1451
 8931TIP3    H248285   3.000   3.589  13.106 -0.1729 -0.4078 -0.1111
 8932TIP3   OH248286   3.166   1.130  12.557  0.0700 -0.0770 -0.1817
 8932TIP3    H148287   3.123   1.102  12.476 -0.5107  0.0614  0.0747
 8932TIP3    H248288   3.124   1.213  12.579 -1.0186 -0.9418  1.1853
 8933TIP3   OH248289   6.204   4.924   3.671  0.2214  0.3728 -0.1124
 8933TIP3    H148290   6.258   4.856   3.712  0.7894  1.2878  0.6780
 8933TIP3    H248291   6.203   4.995   3.735 -1.7405  0.4738 -0.1966
 8934TIP3   OH248292   3.482   2.767  15.353 -0.2739 -0.4734 -0.0235
 8934TIP3    H148293   3.453   2.807  15.435  1.0052  3.1461 -1.1117
 8934TIP3    H248294   3.404   2.766  15.298 -0.6914 -1.0500  0.5604
 8935TIP3   OH248295   6.082   2.972   1.878 -0.0783  0.1124  0.2640
 8935TIP3    H148296   6.144   2.925   1.823  0.7179  0.0201  1.2018
 8935TIP3    H248297   6.004   2.980   1.825  0.1078 -1.3910 -0.2968
 8936TIP3   OH248298   1.509   2.927   0.616  0.0872  0.4381 -0.0091
 8936TIP3    H148299   1.573   2.975   0.667  1.8008 -1.8114  0.1399
 8936TIP3    H248300   1.462   2.874   0.681 -0.6707  0.7024 -0.3313
 8937TIP3   OH248301   3.630   6.030   3.513 -0.0541  0.0017 -0.3099
 8937TIP3    H148302   3.609   5.941   3.541  0.5987  0.0620  0.4144
 8937TIP3    H248303   3.654   6.021   3.421  1.9342 -0.9169  0.2461
 8938TIP3   OH248304   0.631   5.243  13.700  0.5492 -0.2215  0.2078
 8938TIP3    H148305   0.586   5.325  13.680  0.8096 -0.1746 -0.1829
 8938TIP3    H248306   0.724   5.266  13.704  0.7451 -0.7213 -1.1060
 8939TIP3   OH248307   0.204   0.593   5.423  0.4447  0.3251 -0.2961
 8939TIP3    H148308   0.170   0.661   5.483  0.4589  0.4100 -0.3840
 8939TIP3    H248309   0.138   0.524   5.426  0.8508 -0.0517  0.4758
 8940TIP3   OH248310   4.979   4.563   0.441  0.0282  0.4449  0.7884
 8940TIP3    H148311   4.919   4.637   0.436  0.6380  0.8637 -1.9466
 8940TIP3    H248312   5.064   4.602   0.464 -0.3510  0.0377  3.1468
 8941TIP3   OH248313   0.627   4.499   2.240  0.2546 -0.0050 -0.2335
 8941TIP3    H148314   0.655   4.438   2.308 -1.8956 -0.4707  0.3239
 8941TIP3    H248315   0.556   4.549   2.280 -1.1236 -0.3281 -2.1332
 8942TIP3   OH248316   0.921   1.903  16.143 -0.1049  0.2277  0.1391
 8942TIP3    H148317   0.960   1.963  16.079  0.1254  0.2385  0.2892
 8942TIP3    H248318   0.860   1.958  16.193 -1.9390 -0.2081 -1.4651
 8943TIP3   OH248319   1.295   1.311   4.497  0.1308 -0.2878 -0.1842
 8943TIP3    H148320   1.233   1.243   4.472 -1.1516  0.2093  1.3782
 8943TIP3    H248321   1.350   1.325   4.420 -1.1111 -1.4170 -1.3159
 8944TIP3   OH248322   6.017   5.834   5.383 -0.5676 -0.0738  0.8888
 8944TIP3    H148323   5.969   5.769   5.435 -1.1930 -1.9792 -1.7937
 8944TIP3    H248324   6.106   5.800   5.378 -1.0939 -1.3686 -1.2423
 8945TIP3   OH248325   3.180   0.751   3.272 -0.0071 -0.0414 -0.0097
 8945TIP3    H148326   3.209   0.739   3.182  1.2973 -0.2416  0.4092
 8945TIP3    H248327   3.222   0.680   3.321 -0.4634  0.2272  0.8019
 8946TIP3   OH248328   2.991   0.484   4.066 -0.1216 -0.2367 -0.3451
 8946TIP3    H148329   2.930   0.525   4.005  0.1331 -0.9594 -1.1069
 8946TIP3    H248330   2.980   0.390   4.052  0.0520 -0.4160  0.6274
 8947TIP3   OH248331   1.640   2.289  11.855  0.0867  0.5184  0.0296
 8947TIP3    H148332   1.684   2.339  11.787 -3.0737  0.8385 -2.0165
 8947TIP3    H248333   1.632   2.201  11.818 -0.2097  0.2522  0.7077
 8948TIP3   OH248334   6.530   2.129   3.817 -0.0391 -0.2113  0.2329
 8948TIP3    H148335   6.603   2.070   3.798  1.2528  1.3522  0.0417
 8948TIP3    H248336   6.481   2.136   3.735  0.1495 -0.5636  0.0913
 8949TIP3   OH248337   1.071   0.921   4.167  0.2998  0.0731 -0.3266
 8949TIP3    H148338   1.150   0.888   4.209 -0.0448  0.0487  0.3304
 8949TIP3    H248339   1.090   1.013   4.149  0.0916  0.3621  0.8454
 8950TIP3   OH248340   2.851   2.900   0.084 -0.2892  0.5683  0.0749
 8950TIP3    H148341   2.780   2.952   0.122 -2.9939 -1.9587 -1.0717
 8950TIP3    H248342   2.818   2.874  -0.002  1.4900 -1.7394 -0.0055
 8951TIP3   OH248343   0.994   2.955  15.440 -0.1696  0.3687  0.1769
 8951TIP3    H148344   0.905   2.921  15.434 -0.3641  1.0139 -0.9364
 8951TIP3    H248345   1.000   3.017  15.367  1.3644 -0.0835 -0.1061
 8952TIP3   OH248346   1.925   2.195   3.566 -0.2827 -0.3688  0.5805
 8952TIP3    H148347   1.890   2.181   3.478  0.7480 -0.8297  0.2238
 8952TIP3    H248348   1.851   2.176   3.625 -0.4791 -1.9825 -0.1201
 8953TIP3   OH248349   2.908   0.940   0.897  0.9943 -0.4590 -0.2171
 8953TIP3    H148350   2.870   0.898   0.974  0.6185 -0.4580 -0.4019
 8953TIP3    H248351   2.940   0.866   0.844  0.5674 -0.4987 -0.4194
 8954TIP3   OH248352   1.601   0.818  13.045  0.8594 -0.2662 -0.3154
 8954TIP3    H148353   1.654   0.897  13.042  2.3109 -1.0384  2.1461
 8954TIP3    H248354   1.641   0.764  13.113 -2.5127 -1.3455  1.0434
 8955TIP3   OH248355   5.247   0.083  15.290  0.1008 -0.3232 -0.2426
 8955TIP3    H148356   5.196   0.026  15.231 -0.9891  0.4322 -0.0496
 8955TIP3    H248357   5.201   0.077  15.374  0.4715  0.1918 -0.0030
 8956TIP3   OH248358   5.596   1.431  14.682  0.2490  0.3165 -0.2869
 8956TIP3    H148359   5.634   1.360  14.733  0.2901  0.0457 -0.6902
 8956TIP3    H248360   5.525   1.464  14.737 -1.2994 -1.5644 -1.0369
 8957TIP3   OH248361   3.478   5.179   3.344  0.5750  0.5758  0.0648
 8957TIP3    H148362   3.483   5.244   3.415 -0.8807  0.6446  0.1409
 8957TIP3    H248363   3.517   5.223   3.268  1.0002  0.9651  0.4982
 8958TIP3   OH248364   6.520   5.101   5.935 -0.8614 -0.5628 -0.0050
 8958TIP3    H148365   6.452   5.163   5.907 -0.8849 -0.5144  0.1530
 8958TIP3    H248366   6.575   5.089   5.859 -0.1837  0.5389  0.2843
 8959TIP3   OH248367   3.986   4.954  15.781  0.5939 -0.2558  0.0530
 8959TIP3    H148368   4.047   5.023  15.754  2.2816 -2.2351 -1.5060
 8959TIP3    H248369   3.906   4.972  15.730  0.5679  1.1480  0.5320
 8960TIP3   OH248370   0.457   1.817   1.851  0.3043  0.1992 -0.0945
 8960TIP3    H148371   0.482   1.748   1.789 -0.9888  0.3523 -0.8163
 8960TIP3    H248372   0.498   1.791   1.933  0.8841 -0.7558 -0.6642
 8961TIP3   OH248373   3.222   0.217   4.605  0.2829  0.4356 -0.3357
 8961TIP3    H148374   3.240   0.129   4.638 -1.3176  0.7296  1.5108
 8961TIP3    H248375   3.190   0.203   4.516  3.1169 -0.5375 -1.3020
 8962TIP3   OH248376   2.860   4.489  11.222  0.6303  0.1275  0.5489
 8962TIP3    H148377   2.802   4.453  11.155 -0.2987  1.0239  0.8366
 8962TIP3    H248378   2.809   4.560  11.261  2.1273  1.3080  0.4456
 8963TIP3   OH248379   2.401   5.732   3.041 -0.2366  0.3834  0.8931
 8963TIP3    H148380   2.466   5.744   2.972 -0.9698  0.0840  0.1313
 8963TIP3    H248381   2.418   5.804   3.103  1.9604 -0.7221  1.6717
 8964TIP3   OH248382   0.242   4.745   0.205 -0.2925 -0.0323 -0.2722
 8964TIP3    H148383   0.294   4.730   0.285  1.4869  0.7096 -1.2362
 8964TIP3    H248384   0.186   4.668   0.199 -1.8503  0.7303  2.6746
 8965TIP3   OH248385   4.270   2.495  10.964  0.4328 -0.2617  0.5009
 8965TIP3    H148386   4.275   2.488  11.060 -1.1667  0.7564  0.6992
 8965TIP3    H248387   4.179   2.472  10.944  0.6242  0.0086 -0.7406
 8966TIP3   OH248388   5.464   1.719  16.203 -0.0696 -0.1585  0.8063
 8966TIP3    H148389   5.507   1.764  16.275  1.8995 -1.6740  0.6471
 8966TIP3    H248390   5.515   1.743  16.126 -1.4580  0.5160  0.0588
 8967TIP3   OH248391   2.545   6.014  13.089  0.2330  0.1940  0.0371
 8967TIP3    H148392   2.550   6.079  13.019  0.1290 -0.2103 -0.3476
 8967TIP3    H248393   2.581   6.059  13.166  1.0141  0.4093 -0.4398
 8968TIP3   OH248394   6.206   5.007   0.699 -0.5401 -0.2236  0.0551
 8968TIP3    H148395   6.199   5.039   0.608 -1.1819 -0.4023  0.0404
 8968TIP3    H248396   6.231   5.085   0.749  1.5681 -0.4682 -0.5139
 8969TIP3   OH248397   5.661   4.527   3.730  0.3227  0.7449  0.6312
 8969TIP3    H148398   5.655   4.452   3.671  1.0387  1.4375 -0.3535
 8969TIP3    H248399   5.574   4.534   3.770 -0.5770  0.9953 -1.2801
 8970TIP3   OH248400   3.650   0.506  13.110 -0.1524 -0.0652  0.8580
 8970TIP3    H148401   3.626   0.423  13.151  0.2333  0.1254  1.4835
 8970TIP3    H248402   3.730   0.487  13.062 -1.1185 -0.5265 -0.6411
 8971TIP3   OH248403   6.188   3.508   0.867 -0.4669 -0.1541 -0.4849
 8971TIP3    H148404   6.217   3.525   0.957 -1.5307 -0.0233 -0.1518
 8971TIP3    H248405   6.256   3.450   0.831  1.0488  1.4034 -0.2830
 8972TIP3   OH248406   3.768   0.750   0.698 -0.1511 -0.1332  0.3399
 8972TIP3    H148407   3.837   0.690   0.672 -0.0972 -0.9258  2.1614
 8972TIP3    H248408   3.688   0.698   0.697 -0.5817  0.5104 -0.7361
 8973TIP3   OH248409   2.492   4.565   1.368 -0.6315  0.1224 -0.1746
 8973TIP3    H148410   2.447   4.595   1.447 -0.7701  0.3478 -0.3394
 8973TIP3    H248411   2.439   4.597   1.296 -0.3287  0.2019 -0.3653
 8974TIP3   OH248412   1.628   1.991  14.315  0.2334 -0.0569  0.1020
 8974TIP3    H148413   1.649   1.958  14.227  0.5859 -0.4848  0.3479
 8974TIP3    H248414   1.610   2.084  14.301  1.5496  0.1671 -0.2248
 8975TIP3   OH248415   0.974   5.368   4.032 -0.0582 -0.3817  0.4137
 8975TIP3    H148416   1.028   5.345   3.956 -0.5372  1.2005 -0.4356
 8975TIP3    H248417   1.008   5.312   4.102  1.3341 -0.8746 -0.5981
 8976TIP3   OH248418   4.414   6.653  16.164 -0.6085 -0.2672  0.2024
 8976TIP3    H148419   4.509   6.641  16.151  0.0062  0.5691  3.3127
 8976TIP3    H248420   4.405   6.743  16.196 -2.4078 -0.5083  0.4642
 8977TIP3   OH248421   5.419   4.918   2.529  0.1141  0.3704 -0.1520
 8977TIP3    H148422   5.434   4.887   2.618  0.1028  1.3220  0.1944
 8977TIP3    H248423   5.326   4.941   2.527 -0.2927 -1.1941 -0.9188
 8978TIP3   OH248424   4.635   1.345   2.444 -0.6231 -0.0381 -0.5050
 8978TIP3    H148425   4.575   1.418   2.430  0.3328  0.6589 -0.9946
 8978TIP3    H248426   4.710   1.363   2.387  0.6100 -0.2599  0.9819
 8979TIP3   OH248427   6.733   3.273  15.216  0.3301  0.3589 -0.3344
 8979TIP3    H148428   6.741   3.202  15.280  1.3345  1.3555  0.6808
 8979TIP3    H248429   6.699   3.230  15.137 -2.0534 -0.7100  1.1693
 8980TIP3   OH248430   2.606   3.399   3.702  0.3644  0.4494 -0.4118
 8980TIP3    H148431   2.665   3.327   3.681 -0.6323 -0.6556  0.4085
 8980TIP3    H248432   2.545   3.402   3.628 -0.4970 -0.5659  0.2258
 8981TIP3   OH248433   3.838   5.359   6.260 -0.0099  0.6922 -0.1729
 8981TIP3    H148434   3.791   5.429   6.214  0.2245  1.1625  0.2891
 8981TIP3    H248435   3.816   5.373   6.353 -0.9300 -0.5796 -0.1709
 8982TIP3   OH248436   0.754   0.079  12.111  0.1870 -0.0030  0.1507
 8982TIP3    H148437   0.714   0.086  12.198 -0.0569 -1.6484  0.2029
 8982TIP3    H248438   0.814   0.005  12.118 -1.7819 -1.9555 -1.7361
 8983TIP3   OH248439   1.694   2.272   0.398  0.1001 -0.0504  0.8158
 8983TIP3    H148440   1.649   2.237   0.475  0.1741 -1.4562  0.2529
 8983TIP3    H248441   1.764   2.326   0.434 -1.8924  2.1123  1.7250
 8984TIP3   OH248442   3.572   0.668   3.503  0.0154  0.1805  0.7036
 8984TIP3    H148443   3.518   0.644   3.578 -1.5675 -2.3195 -1.1131
 8984TIP3    H248444   3.537   0.753   3.475 -1.9694 -0.6626  0.5020
 8985TIP3   OH248445   6.751   2.877  16.302  0.4571  0.2945 -0.3197
 8985TIP3    H148446   6.768   2.822  16.225  1.3948  0.3305 -0.1447
 8985TIP3    H248447   6.656   2.881  16.307  0.3187 -2.4905  0.5238
 8986TIP3   OH248448   4.188   2.163  12.243  0.4376  0.9432 -0.0303
 8986TIP3    H148449   4.125   2.235  12.244  1.4346  1.8524 -0.7519
 8986TIP3    H248450   4.146   2.095  12.296 -1.2472  1.4245 -0.6695
 8987TIP3   OH248451   5.324   3.597   3.825 -0.2076 -0.2285 -0.1357
 8987TIP3    H148452   5.290   3.517   3.865  1.5155 -0.2057  1.5504
 8987TIP3    H248453   5.399   3.567   3.773 -0.4579  0.1309 -0.7069
 8988TIP3   OH248454   2.559   4.812  13.996 -0.1416  0.6034  0.1283
 8988TIP3    H148455   2.623   4.799  13.925 -0.2004  1.1064 -0.0187
 8988TIP3    H248456   2.546   4.907  14.000 -2.4682  0.4146 -1.2570
 8989TIP3   OH248457   3.026   1.375  12.540 -0.4985  0.5381  0.3164
 8989TIP3    H148458   2.995   1.437  12.474 -0.7283 -0.8791 -0.9595
 8989TIP3    H248459   2.975   1.396  12.618  0.4081  2.8561  0.3930
 8990TIP3   OH248460   0.809   0.764   4.203  0.6605 -0.3473  0.5928
 8990TIP3    H148461   0.811   0.671   4.225 -0.1518 -0.1977  1.3707
 8990TIP3    H248462   0.899   0.785   4.178  0.3518 -1.9416 -2.2178
 8991TIP3   OH248463   4.693   3.332  17.040 -0.1723 -0.0215  0.7365
 8991TIP3    H148464   4.609   3.319  16.996 -0.0577  0.3773  0.3838
 8991TIP3    H248465   4.685   3.418  17.082 -1.3120 -1.5325  3.8992
 8992TIP3   OH248466   2.768   1.809   3.698  0.2567 -0.1422  0.1567
 8992TIP3    H148467   2.836   1.814   3.765 -0.0459  0.1798  0.4465
 8992TIP3    H248468   2.779   1.723   3.659 -0.3486 -0.8359  1.4556
 8993TIP3   OH248469   4.217   0.831   5.670  0.1179  0.1041  0.3821
 8993TIP3    H148470   4.150   0.779   5.623  1.0264  0.1154 -0.9882
 8993TIP3    H248471   4.186   0.921   5.664  0.1059  0.0769 -0.0116
 8994TIP3   OH248472   1.266   4.641   1.593  0.3010  0.1686  0.1450
 8994TIP3    H148473   1.326   4.712   1.569 -0.0032  0.8969  1.4145
 8994TIP3    H248474   1.318   4.583   1.647  0.3866 -0.2683 -0.4000
 8995TIP3   OH248475   6.559   1.351  14.854 -0.1737  0.1512  0.2117
 8995TIP3    H148476   6.503   1.351  14.776  2.6995  0.2733 -2.0134
 8995TIP3    H248477   6.587   1.442  14.864  1.0468 -0.2015  0.1427
 8996TIP3   OH248478   1.905   6.623   4.969  0.3263 -0.1730  0.4570
 8996TIP3    H148479   1.812   6.636   4.983  0.1413 -0.3531 -0.5032
 8996TIP3    H248480   1.945   6.707   4.991 -0.1941  0.2395 -0.1427
 8997TIP3   OH248481   4.095   3.391   3.510 -0.0116 -0.1487  0.1099
 8997TIP3    H148482   4.125   3.307   3.544 -0.7766 -0.0195  1.1668
 8997TIP3    H248483   4.015   3.410   3.560 -0.3929  0.7405 -0.7986
 8998TIP3   OH248484   3.540   1.661   3.269 -0.3719 -0.2863 -0.1914
 8998TIP3    H148485   3.518   1.665   3.362 -0.1725 -0.8037 -0.1140
 8998TIP3    H248486   3.515   1.572   3.243 -2.0203  0.3736 -1.0477
 8999TIP3   OH248487   3.719   3.249  15.646  0.1485  0.5166  0.4912
 8999TIP3    H148488   3.683   3.300  15.573  1.8332  2.1456  0.7349
 8999TIP3    H248489   3.641   3.217  15.693 -0.9927  2.5174  0.0714
 9000TIP3   OH248490   5.634   6.227   2.164 -0.0009 -0.1197 -0.1630
 9000TIP3    H148491   5.561   6.276   2.201  1.3682  0.8775  1.4077
 9000TIP3    H248492   5.606   6.136   2.165 -1.5827  0.3383 -0.5816
 9001TIP3   OH248493   3.831   3.722  17.098  0.1868  0.4741 -0.5878
 9001TIP3    H148494   3.800   3.812  17.086 -0.3837  0.1806 -1.4340
 9001TIP3    H248495   3.753   3.668  17.086  0.8197 -0.2225 -1.7466
 9002TIP3   OH248496   5.231   4.009   0.309 -0.6030 -0.2217 -0.6216
 9002TIP3    H148497   5.320   3.975   0.312 -0.2971  0.5879  0.9975
 9002TIP3    H248498   5.178   3.939   0.347 -0.4548 -0.2184 -0.4017
 9003TIP3   OH248499   6.500   4.240   5.555  0.4727  0.1164  0.0136
 9003TIP3    H148500   6.544   4.285   5.627 -1.4732 -0.7737  1.8857
 9003TIP3    H248501   6.446   4.307   5.514 -1.4272 -0.1257  1.9645
 9004TIP3   OH248502   0.442   1.326   2.873 -0.8802 -0.1663 -0.1967
 9004TIP3    H148503   0.425   1.251   2.930 -1.1978  0.3827  0.4426
 9004TIP3    H248504   0.441   1.401   2.932  1.2201  0.1875 -0.5133
 9005TIP3   OH248505   1.688   3.110   0.814 -0.4591  0.0761  0.3990
 9005TIP3    H148506   1.711   3.161   0.892  1.1872  0.9152 -0.5659
 9005TIP3    H248507   1.725   3.160   0.741 -0.1331 -1.7063 -0.7319
 9006TIP3   OH248508   1.837   1.703   0.777  0.4161 -0.4970 -0.6754
 9006TIP3    H148509   1.748   1.702   0.741  0.4875 -0.5449 -0.8535
 9006TIP3    H248510   1.838   1.630   0.839  0.4781 -0.8130 -1.0427
 9007TIP3   OH248511   3.895   2.810   6.046 -0.4488 -0.3999  0.2768
 9007TIP3    H148512   3.856   2.842   6.127  2.9269  0.1616  1.8612
 9007TIP3    H248513   3.884   2.715   6.050  0.8556 -0.5262  2.1781
 9008TIP3   OH248514   2.569   3.469  14.376  0.2518  0.1080 -0.1011
 9008TIP3    H148515   2.529   3.507  14.454 -1.7914 -0.5496 -0.7759
 9008TIP3    H248516   2.651   3.518  14.366  0.4338  0.4096  2.2461
 9009TIP3   OH248517   6.133   0.660  16.828 -0.1564 -0.4674 -0.2139
 9009TIP3    H148518   6.209   0.646  16.885 -1.0001  0.2293  1.1034
 9009TIP3    H248519   6.170   0.659  16.739  1.4615  0.2332  0.4162
 9010TIP3   OH248520   3.478   1.907  12.887 -0.5523  0.0693 -0.2695
 9010TIP3    H148521   3.558   1.886  12.838  0.0338 -0.0009  0.6999
 9010TIP3    H248522   3.458   1.997  12.862 -1.2444 -0.5034 -1.9530
 9011TIP3   OH248523   5.312   0.554   4.043  0.2753 -0.1485  0.6313
 9011TIP3    H148524   5.355   0.638   4.059 -2.1462  1.8547 -2.2455
 9011TIP3    H248525   5.246   0.547   4.112  1.3744 -0.4568  1.6943
 9012TIP3   OH248526   0.213   0.312   2.249 -0.0941 -0.3148 -0.1766
 9012TIP3    H148527   0.259   0.339   2.170  0.5526 -2.4502 -0.5986
 9012TIP3    H248528   0.179   0.224   2.228 -1.7280 -0.0679  1.1948
 9013TIP3   OH248529   6.079   0.916   2.729 -0.2204  0.2171  0.3721
 9013TIP3    H148530   6.070   0.945   2.820 -1.6016  0.8093  0.0750
 9013TIP3    H248531   6.143   0.975   2.691 -1.2570  1.4003  0.4025
 9014TIP3   OH248532   1.057   0.390  16.032 -0.2201 -0.0282  0.3290
 9014TIP3    H148533   1.132   0.443  16.057 -0.5947  0.6670  0.0078
 9014TIP3    H248534   1.006   0.381  16.113 -0.2915  0.3294  0.3241
 9015TIP3   OH248535   6.115   4.274   0.200  0.2514 -0.1932  0.0126
 9015TIP3    H148536   6.055   4.200   0.192 -0.2601  0.3376 -1.4456
 9015TIP3    H248537   6.158   4.262   0.285 -1.4389 -0.9463  0.8063
 9016TIP3   OH248538   5.955   6.647  16.229 -0.0883  0.1849 -0.3636
 9016TIP3    H148539   5.999   6.593  16.295 -1.1563 -0.8280 -0.4433
 9016TIP3    H248540   5.966   6.737  16.261 -0.8085 -0.2943  1.3446
 9017TIP3   OH248541   2.201   2.888  14.939 -0.5897 -0.2006  0.3972
 9017TIP3    H148542   2.238   2.812  14.982 -0.4733  0.8056  2.1630
 9017TIP3    H248543   2.128   2.915  14.995 -1.4674  0.2310 -0.8853
 9018TIP3   OH248544   1.564   1.088  14.100 -0.2636  0.2565 -0.7706
 9018TIP3    H148545   1.632   1.027  14.074 -0.0126  0.6815 -1.1376
 9018TIP3    H248546   1.611   1.159  14.144 -0.6198 -0.1375  0.2600
 9019TIP3   OH248547   1.254   5.206  14.261 -0.0947  0.0897 -0.4028
 9019TIP3    H148548   1.342   5.191  14.226  0.5758 -0.6818  1.4661
 9019TIP3    H248549   1.228   5.291  14.227  1.3360  0.2775 -1.0905
 9020TIP3   OH248550   6.277   4.331   5.154 -0.9271  0.7975 -0.6298
 9020TIP3    H148551   6.264   4.385   5.233 -1.4871  0.9106 -0.7936
 9020TIP3    H248552   6.367   4.299   5.162 -0.5944  1.7311 -0.5141
 9021TIP3   OH248553   4.961   3.867   1.898  0.4582  0.2823 -0.2691
 9021TIP3    H148554   4.968   3.802   1.968 -1.2527  0.0104 -0.3035
 9021TIP3    H248555   4.897   3.930   1.931  0.5150  0.7921 -1.1230
 9022TIP3   OH248556   1.343   2.627   4.793  0.1946  0.1315 -0.0640
 9022TIP3    H148557   1.413   2.570   4.825 -0.1343  0.2810  0.9527
 9022TIP3    H248558   1.299   2.575   4.726  0.6599 -0.3307 -0.0220
 9023TIP3   OH248559   1.145   3.814  14.305 -0.0659  0.4042  0.4112
 9023TIP3    H148560   1.215   3.757  14.336 -1.8982 -1.5164  1.2378
 9023TIP3    H248561   1.133   3.878  14.374  0.0854  0.0152  0.8014
 9024TIP3   OH248562   4.777   5.559   3.675  0.2701 -0.4208  0.2079
 9024TIP3    H148563   4.814   5.639   3.638  0.0516 -0.4496 -0.0709
 9024TIP3    H248564   4.804   5.490   3.614  1.8431 -0.8129  1.2833
 9025TIP3   OH248565   5.916   2.715  15.538 -0.7447 -0.0333 -0.3053
 9025TIP3    H148566   5.829   2.752  15.551 -0.8538  0.3206 -1.8028
 9025TIP3    H248567   5.922   2.700  15.444  0.6211 -0.5584 -0.1667
 9026TIP3   OH248568   0.469   5.459  11.471  0.1820 -0.1978  0.2808
 9026TIP3    H148569   0.534   5.391  11.487  1.1533  0.2708 -1.4363
 9026TIP3    H248570   0.407   5.420  11.410 -0.5910 -0.2799  1.0865
 9027TIP3   OH248571   6.616   6.653  11.997  0.5571  0.5687 -0.0562
 9027TIP3    H148572   6.575   6.716  11.937 -0.8673 -0.5202 -0.2823
 9027TIP3    H248573   6.589   6.683  12.085 -1.6368 -0.6693 -0.2397
 9028TIP3   OH248574   3.478   4.935  11.461 -0.1564  0.2398  0.1036
 9028TIP3    H148575   3.541   4.917  11.392 -1.1978 -0.9046 -0.5775
 9028TIP3    H248576   3.496   4.868  11.527 -0.5182  0.0470  0.0057
 9029TIP3   OH248577   6.585   0.578   2.769 -0.0812  0.0309 -0.2538
 9029TIP3    H148578   6.646   0.611   2.702 -0.6533  0.5411 -0.5377
 9029TIP3    H248579   6.526   0.520   2.722 -0.1406 -0.0519 -0.0791
 9030TIP3   OH248580   2.169   3.037  15.902 -0.0987 -0.2751  0.2948
 9030TIP3    H148581   2.200   3.047  15.812 -0.7417 -0.3379  0.0625
 9030TIP3    H248582   2.112   3.112  15.917 -0.1676 -0.3808  0.5730
 9031TIP3   OH248583   1.306   4.854   6.131 -0.4219 -0.0304  0.0938
 9031TIP3    H148584   1.257   4.773   6.117  0.5096 -0.7882  1.0542
 9031TIP3    H248585   1.342   4.846   6.220 -1.8936  2.2983  1.0012
 9032TIP3   OH248586   3.648   5.934   2.442  0.1892 -0.3376 -0.1781
 9032TIP3    H148587   3.631   5.844   2.414 -0.4652  0.4729 -2.5956
 9032TIP3    H248588   3.729   5.958   2.397  0.1990  0.3836  0.2061
 9033TIP3   OH248589   0.222   3.728  13.657  0.5199 -0.2415  0.7358
 9033TIP3    H148590   0.259   3.795  13.714 -1.8103  0.1423  1.9502
 9033TIP3    H248591   0.128   3.728  13.678  0.2054 -2.8861 -0.2694
 9034TIP3   OH248592   2.968   6.102  16.829 -0.1517  0.5352  0.4160
 9034TIP3    H148593   2.988   6.112  16.922  0.8534  1.6835  0.1048
 9034TIP3    H248594   2.879   6.134  16.819  0.0024  1.0961  0.8637
 9035TIP3   OH248595   4.471   0.353   0.603  0.0001 -0.0921  0.4636
 9035TIP3    H148596   4.529   0.359   0.679 -0.9545  0.3058  1.1837
 9035TIP3    H248597   4.529   0.360   0.527  0.7263  2.4927  1.1520
 9036TIP3   OH248598   6.123   6.592   3.831  0.3267  0.1195  0.4037
 9036TIP3    H148599   6.181   6.569   3.903  0.3070 -1.7351 -0.1374
 9036TIP3    H248600   6.181   6.606   3.756  0.1121 -2.1754 -0.2495
 9037TIP3   OH248601   5.304   3.699  16.876  0.3121  0.2282 -0.3159
 9037TIP3    H148602   5.326   3.613  16.911 -0.2369 -0.0262 -0.6010
 9037TIP3    H248603   5.210   3.708  16.889  0.4294  0.9726  0.1184
 9038TIP3   OH248604   2.232   1.464   0.673 -0.0778 -0.4296 -0.9847
 9038TIP3    H148605   2.238   1.556   0.699  0.7622 -1.3046  2.4450
 9038TIP3    H248606   2.139   1.449   0.661 -0.7445  0.0736  2.3863
 9039TIP3   OH248607   1.751   4.792   6.136  0.5249 -0.4897 -0.2586
 9039TIP3    H148608   1.723   4.812   6.226 -0.1201 -1.2876 -0.2748
 9039TIP3    H248609   1.746   4.876   6.090  0.8913 -0.0654  0.4543
 9040TIP3   OH248610   1.447   4.452   4.852 -0.2640 -0.5696 -0.3082
 9040TIP3    H148611   1.448   4.357   4.857  2.0999 -0.6057 -0.4764
 9040TIP3    H248612   1.526   4.480   4.898 -0.6421  1.2848 -0.6816
 9041TIP3   OH248613   6.355   2.774  14.929 -0.0031  0.1516  0.2232
 9041TIP3    H148614   6.420   2.734  14.872  0.1663  0.7898 -0.0375
 9041TIP3    H248615   6.311   2.700  14.971  0.3594 -0.3019 -0.1883
 9042TIP3   OH248616   2.802   4.089   0.163 -0.4999  0.2529  0.0539
 9042TIP3    H148617   2.724   4.119   0.210  0.0322  0.2940  0.9516
 9042TIP3    H248618   2.784   3.998   0.140  0.2666 -0.7006  2.8269
 9043TIP3   OH248619   2.311   4.305   1.215  0.6865  0.7937 -0.2101
 9043TIP3    H148620   2.327   4.359   1.137  0.7778 -0.7381 -1.3041
 9043TIP3    H248621   2.396   4.298   1.257  0.6122  1.7387  0.1308
 9044TIP3   OH248622   0.388   1.401  14.446  0.5973 -0.0287  0.0726
 9044TIP3    H148623   0.355   1.346  14.516  3.2528 -1.5428  0.2643
 9044TIP3    H248624   0.371   1.491  14.475 -1.0002 -0.6795  1.2289
 9045TIP3   OH248625   4.197   4.156   3.462  0.0849 -0.2545  0.4781
 9045TIP3    H148626   4.231   4.122   3.380 -0.7900  1.8644 -0.8741
 9045TIP3    H248627   4.255   4.121   3.530  0.4069 -2.6519 -0.9195
 9046TIP3   OH248628   3.633   1.581   2.965 -0.2770  0.8397  0.0840
 9046TIP3    H148629   3.708   1.630   3.000  0.1418 -0.1285  0.5871
 9046TIP3    H248630   3.594   1.540   3.042 -2.8334  3.2328  0.2162
 9047TIP3   OH248631   2.328   5.731   3.671 -0.1421  0.3360 -0.3575
 9047TIP3    H148632   2.283   5.648   3.652 -0.4844  0.5679 -0.5641
 9047TIP3    H248633   2.286   5.795   3.613  0.7223  0.4790 -0.8458
 9048TIP3   OH248634   5.064   5.116  14.471  0.1486 -0.4571  0.3157
 9048TIP3    H148635   5.093   5.073  14.391 -0.7447 -0.8546  0.1910
 9048TIP3    H248636   4.974   5.142  14.453 -0.6790 -2.0734  1.7530
 9049TIP3   OH248637   3.308   2.577  13.199 -0.7096 -0.5342 -0.4640
 9049TIP3    H148638   3.267   2.638  13.138 -3.6670  0.4741  2.2490
 9049TIP3    H248639   3.392   2.617  13.220 -0.7912  0.4269 -1.8094
 9050TIP3   OH248640   4.624   2.057   4.805  0.0560  0.6981  0.3804
 9050TIP3    H148641   4.570   2.136   4.799 -1.8380 -0.6217 -1.3336
 9050TIP3    H248642   4.614   2.015   4.719  0.2521 -1.8511  1.5190
 9051TIP3   OH248643   3.513   5.969  16.941  0.4594  0.2774 -0.3153
 9051TIP3    H148644   3.517   5.906  17.013  2.7902  0.4861 -0.1918
 9051TIP3    H248645   3.489   5.917  16.864  0.7647 -0.4759  0.0911
 9052TIP3   OH248646   4.815   4.335   1.726  0.3727  0.0553  0.1747
 9052TIP3    H148647   4.785   4.250   1.696 -2.0823  0.6077  0.8616
 9052TIP3    H248648   4.888   4.315   1.785 -0.5324 -1.6175  0.7898
 9053TIP3   OH248649   6.168   0.395   0.754  0.6787 -0.1084  0.0777
 9053TIP3    H148650   6.099   0.443   0.800 -0.3472 -0.4023 -1.1042
 9053TIP3    H248651   6.217   0.352   0.823  0.4052  1.0523  1.0253
 9054TIP3   OH248652   4.067   1.376  14.588  0.7166  0.5317  0.0260
 9054TIP3    H148653   4.040   1.460  14.624  2.3459  0.7991  0.7214
 9054TIP3    H248654   4.162   1.382  14.582  0.8679 -1.2597  0.0985
 9055TIP3   OH248655   2.920   1.033  10.359  0.1430 -0.1959  0.3381
 9055TIP3    H148656   2.860   0.974  10.315  0.5498 -0.1663 -0.2712
 9055TIP3    H248657   2.897   1.027  10.452  0.2809 -1.4379  0.3080
 9056TIP3   OH248658   3.900   4.130   4.968  0.1805  0.4411 -0.2147
 9056TIP3    H148659   3.895   4.127   4.873  0.4698 -0.4942 -0.2142
 9056TIP3    H248660   3.819   4.173   4.996 -1.6088 -2.2883 -0.7502
 9057TIP3   OH248661   0.082   5.644  13.275 -0.1990  0.5063 -0.7851
 9057TIP3    H148662   0.132   5.699  13.214 -0.6580  0.8739 -0.8323
 9057TIP3    H248663   0.089   5.690  13.359  1.1464 -0.4375 -0.3535
 9058TIP3   OH248664   3.759   2.339   1.626  0.1351 -0.1329  0.8184
 9058TIP3    H148665   3.706   2.303   1.556 -0.7068  1.7300  0.4566
 9058TIP3    H248666   3.741   2.433   1.626  1.1164  0.1236  2.6713
 9059TIP3   OH248667   2.022   3.042   0.708  0.5913  0.2346  0.8771
 9059TIP3    H148668   2.077   3.112   0.742  1.0482 -0.9240  2.6759
 9059TIP3    H248669   1.946   3.088   0.670  2.2505  1.8006 -0.7898
 9060TIP3   OH248670   0.879   3.586  12.073 -0.1741 -0.2567  0.6485
 9060TIP3    H148671   0.797   3.618  12.113  1.1361  4.2412  0.2887
 9060TIP3    H248672   0.863   3.591  11.979  0.2625  0.0452  0.5847
 9061TIP3   OH248673   0.451   0.003   1.762 -0.5315  0.4484  0.3502
 9061TIP3    H148674   0.515  -0.063   1.738  0.6119  1.8343 -0.6306
 9061TIP3    H248675   0.403   0.020   1.680 -1.9751 -0.3580  0.9987
 9062TIP3   OH248676   5.497   2.899  15.216  0.0876  0.0266  0.7109
 9062TIP3    H148677   5.497   2.874  15.124 -1.0282 -2.3881  1.2825
 9062TIP3    H248678   5.586   2.883  15.246  0.3995  0.6101  0.1204
 9063TIP3   OH248679   3.993   1.994  15.434  0.8801 -0.1149  0.1060
 9063TIP3    H148680   4.016   2.085  15.452 -1.0005  0.2669  0.7919
 9063TIP3    H248681   3.969   1.993  15.342 -1.0842  0.5893  0.5558
 9064TIP3   OH248682   3.408   0.650   3.062 -0.7764 -0.5949  0.2411
 9064TIP3    H148683   3.455   0.719   3.109 -0.4920  0.4811 -1.4804
 9064TIP3    H248684   3.477   0.594   3.027 -0.6888  0.7320 -1.9137
 9065TIP3   OH248685   2.543   0.709   3.620  0.3595  0.4076  0.0930
 9065TIP3    H148686   2.520   0.708   3.713  0.7151  1.2766  0.2035
 9065TIP3    H248687   2.463   0.738   3.576  0.0136 -0.5691  0.0636
 9066TIP3   OH248688   4.830   6.415   6.647 -0.0884 -0.1768  0.4497
 9066TIP3    H148689   4.832   6.321   6.662 -1.0579 -0.7517 -2.4224
 9066TIP3    H248690   4.742   6.441   6.675 -0.3485 -0.4297 -0.1084
 9067TIP3   OH248691   3.213   4.164  13.648 -0.1855  0.4026  0.4118
 9067TIP3    H148692   3.157   4.142  13.574 -1.3028  1.4741  0.9125
 9067TIP3    H248693   3.255   4.246  13.622 -2.2406  1.9796  1.7726
 9068TIP3   OH248694   5.725   1.189   4.688  0.3996  0.0129 -0.3463
 9068TIP3    H148695   5.709   1.254   4.756  2.8466  0.7906 -0.4157
 9068TIP3    H248696   5.817   1.166   4.698 -0.4110 -3.8078 -0.0832
 9069TIP3   OH248697   4.769   3.158   1.550  0.2504  0.1213 -0.3730
 9069TIP3    H148698   4.694   3.209   1.581  0.5697  0.3780 -0.0214
 9069TIP3    H248699   4.846   3.206   1.581  0.5995  0.6330 -1.9349
 9070TIP3   OH248700   0.138   6.442  15.742  0.1619 -0.2414  0.0643
 9070TIP3    H148701   0.073   6.510  15.761 -0.2776 -0.9479  1.2689
 9070TIP3    H248702   0.187   6.475  15.667  0.5704  1.8308  1.1632
 9071TIP3   OH248703   4.115   2.658  14.030  0.4442 -0.9103 -0.4212
 9071TIP3    H148704   4.049   2.597  13.996 -0.5670 -0.5053  0.7683
 9071TIP3    H248705   4.174   2.672  13.956 -1.2518 -0.6626 -1.7799
 9072TIP3   OH248706   2.704   0.625   0.846 -0.5502  0.2828  0.2601
 9072TIP3    H148707   2.718   0.685   0.772  1.9271 -1.3155 -0.7006
 9072TIP3    H248708   2.659   0.550   0.807 -0.5085  0.0403  0.6768
 9073TIP3   OH248709   3.924   4.588   0.797 -0.0365  0.2381  0.4193
 9073TIP3    H148710   3.859   4.655   0.822  0.2084  0.7377 -0.2708
 9073TIP3    H248711   4.008   4.628   0.816  0.3035  1.5788 -3.2326
 9074TIP3   OH248712   2.523   3.471  13.710 -0.3859 -0.1594  0.1532
 9074TIP3    H148713   2.448   3.453  13.654  0.4072  2.0716 -1.8198
 9074TIP3    H248714   2.599   3.454  13.654  0.5307 -0.0097  1.3003
 9075TIP3   OH248715   4.909   5.872   5.314  0.7826 -0.6447  0.4554
 9075TIP3    H148716   4.972   5.945   5.314 -0.8190  0.8128  1.1714
 9075TIP3    H248717   4.936   5.818   5.240  2.0647  0.6456 -0.0852
 9076TIP3   OH248718   4.261   5.010  12.314 -1.1656  0.5453  0.2696
 9076TIP3    H148719   4.340   4.969  12.281 -2.9092 -2.4666 -0.5209
 9076TIP3    H248720   4.195   4.996  12.246 -2.8422  1.4229  1.5979
 9077TIP3   OH248721   5.739   0.272  13.061  0.1405 -0.5741 -0.2146
 9077TIP3    H148722   5.755   0.348  13.004  0.1488  0.2644  0.8727
 9077TIP3    H248723   5.795   0.287  13.137 -1.6079 -0.4323  1.1072
 9078TIP3   OH248724   6.457   3.363  11.780 -0.2570  0.1771 -0.0778
 9078TIP3    H148725   6.516   3.288  11.770  0.8176  1.0961 -0.9667
 9078TIP3    H248726   6.379   3.339  11.730 -0.1916 -0.5936  0.1743
 9079TIP3   OH248727   2.413   1.775   1.291 -0.6712 -0.1858 -0.4223
 9079TIP3    H148728   2.495   1.825   1.288  0.2627 -1.6926 -0.8626
 9079TIP3    H248729   2.386   1.780   1.383 -0.4186  0.8224 -0.3890
 9080TIP3   OH248730   3.829   0.124  12.088 -0.1037  0.4645 -0.2763
 9080TIP3    H148731   3.905   0.093  12.138 -0.6447  1.2566  1.0578
 9080TIP3    H248732   3.754   0.108  12.145 -0.8511  0.5303 -1.2202
 9081TIP3   OH248733   6.197   6.714  10.561  0.4763 -0.2388  0.2487
 9081TIP3    H148734   6.140   6.723  10.637 -0.2720 -0.4776 -0.2753
 9081TIP3    H248735   6.156   6.768  10.494  0.6442 -0.7431 -0.2615
 9082TIP3   OH248736   5.830   3.338   5.893 -0.2964 -0.6407 -0.0891
 9082TIP3    H148737   5.924   3.347   5.878 -0.4729  1.5308 -0.1576
 9082TIP3    H248738   5.823   3.308   5.984  0.4459  0.0366  0.2019
 9083TIP3   OH248739   3.715   5.308   2.861 -0.2954  0.3573  0.5255
 9083TIP3    H148740   3.770   5.232   2.843 -1.3801 -0.5156  0.7182
 9083TIP3    H248741   3.765   5.383   2.831  0.5104 -0.5036 -0.3341
 9084TIP3   OH248742   0.233   2.669   1.648  0.1652  0.5491  0.8599
 9084TIP3    H148743   0.157   2.613   1.631  1.8891 -1.4289 -0.7071
 9084TIP3    H248744   0.266   2.640   1.733  0.7627 -0.5269  0.2756
 9085TIP3   OH248745   0.733   6.389  12.186 -0.2497  0.4404  0.4366
 9085TIP3    H148746   0.647   6.349  12.169  0.6019 -0.6881 -1.5692
 9085TIP3    H248747   0.713   6.468  12.237 -2.2610 -0.9652  2.0308
 9086TIP3   OH248748   4.368   0.089  13.382  0.4053 -0.1051  0.3502
 9086TIP3    H148749   4.415   0.153  13.328 -0.2458  0.5405  0.5358
 9086TIP3    H248750   4.283   0.080  13.340 -0.3648  0.9005  1.6051
 9087TIP3   OH248751   5.943   4.599  12.225 -0.5930  0.1630 -0.6958
 9087TIP3    H148752   5.999   4.642  12.289 -0.2974 -1.0667 -0.0942
 9087TIP3    H248753   6.003   4.549  12.169 -1.0481 -1.2219  0.0013
 9088TIP3   OH248754   1.157   1.059   0.419  0.0117  0.0870 -0.4635
 9088TIP3    H148755   1.180   1.085   0.330 -0.4151  0.4294 -0.4747
 9088TIP3    H248756   1.180   0.967   0.424  1.0539  0.3260 -0.5898
 9089TIP3   OH248757   4.581   2.222   6.138 -0.1488  0.1378 -0.1034
 9089TIP3    H148758   4.632   2.158   6.089 -0.0990 -0.4497  0.6989
 9089TIP3    H248759   4.609   2.211   6.229 -1.4135  0.0559  0.3062
 9090TIP3   OH248760   2.238   3.589  16.889 -0.1186 -0.3197 -0.7308
 9090TIP3    H148761   2.211   3.668  16.936  1.6187  1.1380 -2.0217
 9090TIP3    H248762   2.248   3.523  16.958 -0.4426  0.9276  0.5715
 9091TIP3   OH248763   0.755   0.375   0.207  0.0867  0.0922  0.1527
 9091TIP3    H148764   0.724   0.321   0.134 -1.1220  2.1770 -0.9747
 9091TIP3    H248765   0.677   0.415   0.243  0.6108 -1.2311  2.9922
 9092TIP3   OH248766   4.129   3.502  12.202 -0.0086 -0.2184  0.5645
 9092TIP3    H148767   4.046   3.547  12.190  0.1910 -0.1009 -0.4433
 9092TIP3    H248768   4.196   3.570  12.192  0.2731 -0.6258 -0.3942
 9093TIP3   OH248769   5.550   4.271  11.996  0.1064  0.4180  0.7203
 9093TIP3    H148770   5.515   4.352  12.033 -0.3250  0.1236  0.9656
 9093TIP3    H248771   5.479   4.208  12.006  0.0081  0.3114 -0.5443
 9094TIP3   OH248772   2.587   1.757   4.252 -0.3706  0.1769 -0.2209
 9094TIP3    H148773   2.653   1.758   4.182  0.9290  0.7403  0.9702
 9094TIP3    H248774   2.531   1.683   4.230  1.8092 -1.5885 -0.2583
 9095TIP3   OH248775   6.012   1.831   3.732 -0.6074  0.1745 -0.2619
 9095TIP3    H148776   6.036   1.835   3.825 -1.0491  1.7834 -0.1925
 9095TIP3    H248777   6.051   1.749   3.701 -0.5373 -0.4444  1.3622
 9096TIP3   OH248778   5.502   5.243  17.203 -0.0823 -0.3677 -0.2227
 9096TIP3    H148779   5.507   5.234  17.298 -0.9619 -2.0213 -0.2968
 9096TIP3    H248780   5.592   5.231  17.173 -0.0613 -1.6453  0.2993
 9097TIP3   OH248781   4.977   0.594  15.608  0.0885  0.1614 -0.6513
 9097TIP3    H148782   5.069   0.591  15.583  0.1140  0.2399 -0.5632
 9097TIP3    H248783   4.977   0.623  15.699 -0.1833  3.6549 -1.6234
 9098TIP3   OH248784   5.575   3.700   3.224  0.1538  0.1467 -0.4468
 9098TIP3    H148785   5.634   3.626   3.214 -0.6103 -0.3850 -1.1928
 9098TIP3    H248786   5.521   3.699   3.145 -2.0589 -0.4846  0.9825
 9099TIP3   OH248787   1.062   1.844   3.148 -0.4297  0.4216 -0.1614
 9099TIP3    H148788   0.990   1.860   3.088 -1.6145  2.0344  1.5724
 9099TIP3    H248789   1.081   1.931   3.185  0.2492 -0.4968  1.7548
 9100TIP3   OH248790   4.657   0.824   2.381  0.2241  0.5547 -0.0732
 9100TIP3    H148791   4.724   0.829   2.313  0.5242  1.5372  0.2796
 9100TIP3    H248792   4.630   0.915   2.394 -1.3889  0.1582 -0.4067
 9101TIP3   OH248793   0.173   5.573  10.882 -0.6021 -0.5283 -0.2310
 9101TIP3    H148794   0.233   5.508  10.920  1.8667  1.5599 -0.2875
 9101TIP3    H248795   0.123   5.606  10.957 -1.9147 -2.4003 -0.2030
 9102TIP3   OH248796   3.390   0.787   1.576  0.0581 -0.0709 -0.1118
 9102TIP3    H148797   3.382   0.694   1.554  0.7761 -0.0844 -0.3382
 9102TIP3    H248798   3.459   0.820   1.519 -1.1584  0.9453 -1.0767
 9103TIP3   OH248799   4.104   4.737   4.229 -0.5179  0.1202  0.3453
 9103TIP3    H148800   4.186   4.695   4.256 -0.5372  0.2795  0.6562
 9103TIP3    H248801   4.131   4.807   4.169 -0.5356 -0.7692 -0.7212
 9104TIP3   OH248802   0.042   0.458   2.383  0.5791  0.1856  0.0153
 9104TIP3    H148803  -0.019   0.385   2.379  0.5637  0.1917  0.1396
 9104TIP3    H248804   0.116   0.430   2.329  0.3578  0.2822 -0.3421
 9105TIP3   OH248805   0.297   5.604  13.542  0.0415  0.3101  0.2659
 9105TIP3    H148806   0.334   5.636  13.459 -1.2615  0.7768 -0.1468
 9105TIP3    H248807   0.234   5.670  13.568 -0.2797 -0.3195  1.1334
 9106TIP3   OH248808   6.638   5.300  12.658 -0.4204 -0.3938 -0.0015
 9106TIP3    H148809   6.688   5.296  12.739 -0.8136  0.0155  0.2669
 9106TIP3    H248810   6.677   5.233  12.602  0.4524 -0.0449  0.1849
 9107TIP3   OH248811   1.221   2.560  16.420 -0.6334  0.0837 -0.3161
 9107TIP3    H148812   1.285   2.496  16.388 -0.3637 -0.0308  0.4271
 9107TIP3    H248813   1.211   2.622  16.347  0.5057  0.2399 -0.3709
 9108TIP3   OH248814   4.832   4.594  13.306  0.4688  0.3893  0.3640
 9108TIP3    H148815   4.894   4.534  13.348  0.2928 -1.2749 -1.5746
 9108TIP3    H248816   4.887   4.660  13.263  0.8743 -0.3965 -0.3499
 9109TIP3   OH248817   4.929   2.109   0.929  0.0321  0.2011 -0.5366
 9109TIP3    H148818   4.969   2.131   0.845 -0.1144  0.4376 -0.5459
 9109TIP3    H248819   4.895   2.020   0.917  1.1406 -0.2575 -0.3133
 9110TIP3   OH248820   0.815   2.052   1.508 -0.4047  0.0496  0.2934
 9110TIP3    H148821   0.759   2.018   1.439  0.4003  0.4661 -0.5823
 9110TIP3    H248822   0.839   1.974   1.559  0.0991 -0.4725 -0.7171
 9111TIP3   OH248823   5.043   4.185  13.998  0.4815  0.5872  0.2043
 9111TIP3    H148824   4.980   4.223  14.059 -0.9848 -0.2527 -0.7241
 9111TIP3    H248825   5.115   4.249  13.996 -0.5729  1.8663  0.8745
 9112TIP3   OH248826   6.179   0.959  13.026  0.0150 -0.1882 -0.3880
 9112TIP3    H148827   6.197   0.884  13.082  0.9050  1.4558  1.6774
 9112TIP3    H248828   6.263   0.978  12.985  0.5751  1.2943  1.2952
 9113TIP3   OH248829   2.411   3.597   2.394 -0.3551 -0.2244 -0.6154
 9113TIP3    H148830   2.409   3.546   2.475  0.9119  0.3551 -0.1925
 9113TIP3    H248831   2.325   3.582   2.354 -0.2011 -2.2546 -0.2636
 9114TIP3   OH248832   6.739   6.496  14.127  0.2667 -0.3242 -0.2761
 9114TIP3    H148833   6.789   6.556  14.182 -1.0563  0.0112  0.6105
 9114TIP3    H248834   6.732   6.542  14.043  0.1897  0.2886  0.0554
 9115TIP3   OH248835   4.589   2.327  11.953  0.2691 -0.8288 -0.4983
 9115TIP3    H148836   4.531   2.253  11.971 -0.1029 -0.4581 -0.1560
 9115TIP3    H248837   4.541   2.379  11.889  0.1313 -0.4181 -0.0680
 9116TIP3   OH248838   6.018   4.476  11.135  1.1974  0.2905  0.3913
 9116TIP3    H148839   5.983   4.412  11.073 -0.0175  0.4073  0.9220
 9116TIP3    H248840   6.035   4.554  11.081 -0.1106  0.4878  0.2175
 9117TIP3   OH248841   3.128   4.709   0.052 -0.5272 -0.1607 -0.2805
 9117TIP3    H148842   3.043   4.753   0.045 -0.1083  0.9752  1.4006
 9117TIP3    H248843   3.156   4.698  -0.039 -2.2225 -0.0924 -0.8538
 9118TIP3   OH248844   2.874   0.340   0.697 -0.2692 -0.3873 -0.2184
 9118TIP3    H148845   2.809   0.270   0.704 -0.2317 -0.4186 -0.1865
 9118TIP3    H248846   2.873   0.382   0.783  0.3294 -0.8938  0.0357
 9119TIP3   OH248847   5.663   4.838  12.947 -0.0595 -0.8662 -0.1177
 9119TIP3    H148848   5.574   4.806  12.945 -0.3931  0.0182 -0.0059
 9119TIP3    H248849   5.713   4.776  12.893 -0.6545 -1.5847  0.1497
 9120TIP3   OH248850   1.699   4.504  15.507  0.5931 -0.1582 -0.1382
 9120TIP3    H148851   1.758   4.511  15.432  2.2931  0.4228  1.1819
 9120TIP3    H248852   1.686   4.409  15.518  1.2782 -0.2980 -0.4675
 9121TIP3   OH248853   6.734   5.557   5.170  0.0377  0.4227 -0.0899
 9121TIP3    H148854   6.659   5.498   5.166  2.0837 -2.3370 -2.1050
 9121TIP3    H248855   6.704   5.637   5.125 -2.0321 -0.0642  0.3089
 9122TIP3   OH248856   0.268   6.538   2.239 -0.3507  0.3981  0.3156
 9122TIP3    H148857   0.318   6.573   2.164  1.2707  1.3669  1.7632
 9122TIP3    H248858   0.277   6.605   2.306 -3.2284  0.3442  0.8679
 9123TIP3   OH248859   5.973   3.834   2.602 -0.5156 -1.2197 -0.1841
 9123TIP3    H148860   5.988   3.916   2.650  0.3304 -0.2447 -2.0121
 9123TIP3    H248861   5.881   3.814   2.617 -1.0290  0.6596 -0.5471
 9124TIP3   OH248862   0.748   5.842   5.420  0.1423  0.0090  0.5086
 9124TIP3    H148863   0.724   5.855   5.329  1.0978  1.1284  0.3922
 9124TIP3    H248864   0.842   5.862   5.423 -0.0240  0.6986  1.8549
 9125TIP3   OH248865   2.551   0.429  14.828 -0.5994  0.2935 -0.1675
 9125TIP3    H148866   2.631   0.415  14.778 -0.7187  0.7606 -0.4957
 9125TIP3    H248867   2.501   0.347  14.816 -0.1382 -0.0351  0.1174
 9126TIP3   OH248868   3.515   4.953  13.599 -0.1276 -0.9895  0.3137
 9126TIP3    H148869   3.470   4.953  13.684  0.9012 -0.8762  0.8701
 9126TIP3    H248870   3.554   5.040  13.594 -0.0718 -1.0454 -0.2259
 9127TIP3   OH248871   1.465   5.785  11.282  0.1666 -0.2219 -0.6855
 9127TIP3    H148872   1.482   5.781  11.188 -0.6651  0.2225 -0.8611
 9127TIP3    H248873   1.463   5.878  11.303 -0.7560 -0.2850 -0.4420
 9128TIP3   OH248874   2.336   0.246  13.627  0.5346  0.5711 -0.1320
 9128TIP3    H148875   2.298   0.228  13.541  0.4643 -2.0724  0.3723
 9128TIP3    H248876   2.261   0.266  13.683  0.3885  0.3528 -0.2494
 9129TIP3   OH248877   4.264   4.289   1.552 -0.3706  0.2331  0.5214
 9129TIP3    H148878   4.299   4.215   1.601 -1.7695 -1.3423 -0.7390
 9129TIP3    H248879   4.324   4.300   1.478 -0.9560 -0.6118 -0.0883
 9130TIP3   OH248880   5.465   5.395  14.621  0.3053 -0.0304 -0.0538
 9130TIP3    H148881   5.394   5.383  14.683 -2.8023  0.7238 -3.1862
 9130TIP3    H248882   5.494   5.485  14.633 -0.6291  0.2696 -0.0290
 9131TIP3   OH248883   1.810   3.058   4.730  0.5677 -0.5736 -0.0575
 9131TIP3    H148884   1.757   3.093   4.659  0.2126  2.8597  1.6913
 9131TIP3    H248885   1.747   3.014   4.787  0.5708 -1.6748 -0.8728
 9132TIP3   OH248886   0.099   3.127  11.351 -0.4807  0.3097 -0.3441
 9132TIP3    H148887   0.193   3.118  11.339 -0.6872 -0.9559 -1.1780
 9132TIP3    H248888   0.089   3.199  11.413  1.0296  0.4476 -0.2431
 9133TIP3   OH248889   4.485   2.654   4.772 -0.0496 -0.3466  0.6447
 9133TIP3    H148890   4.523   2.576   4.732 -0.2939  0.7666 -1.9508
 9133TIP3    H248891   4.527   2.727   4.725 -0.4260  1.0744  2.4237
 9134TIP3   OH248892   6.827   1.594   4.786 -0.2849 -0.0262 -0.6759
 9134TIP3    H148893   6.890   1.601   4.715 -0.0361 -2.2521 -0.7277
 9134TIP3    H248894   6.870   1.541   4.853 -0.4862  2.0399  1.2474
 9135TIP3   OH248895   5.883   2.373  10.153  0.3007  0.1440 -0.6479
 9135TIP3    H148896   5.876   2.449  10.096 -0.3703 -0.8890 -1.9859
 9135TIP3    H248897   5.974   2.345  10.144  0.6967  1.0614  0.2584
 9136TIP3   OH248898   5.249   1.747  15.671  0.4705 -0.3497  0.0377
 9136TIP3    H148899   5.179   1.682  15.674 -1.0137  1.1238 -0.7775
 9136TIP3    H248900   5.324   1.700  15.635 -0.6853 -1.5244 -0.9501
 9137TIP3   OH248901   0.661   6.654   5.187  0.6098  0.2492 -0.0508
 9137TIP3    H148902   0.625   6.645   5.099 -1.6217 -0.0515  0.8424
 9137TIP3    H248903   0.735   6.713   5.175  0.4635  0.1161 -2.1387
 9138TIP3   OH248904   3.603   5.984  12.366  0.3728 -0.5591  0.6623
 9138TIP3    H148905   3.640   5.969  12.278  1.1468 -0.9026  1.0317
 9138TIP3    H248906   3.513   5.953  12.360  0.2640 -0.1146 -0.1505
 9139TIP3   OH248907   0.975   0.715   4.763  0.4944  0.1425  0.3700
 9139TIP3    H148908   0.986   0.810   4.766 -1.3806  0.3928  1.1592
 9139TIP3    H248909   1.033   0.682   4.831  0.0399  0.8778  1.1347
 9140TIP3   OH248910   5.566   4.112   0.811 -0.0506  0.3625  0.6610
 9140TIP3    H148911   5.635   4.165   0.851  0.5218 -1.1732  1.8130
 9140TIP3    H248912   5.540   4.162   0.733  1.8731  1.3226  0.5641
 9141TIP3   OH248913   6.105   2.382   2.916 -0.5292 -1.0034 -0.1811
 9141TIP3    H148914   6.167   2.309   2.912 -1.9240 -2.2476 -0.1812
 9141TIP3    H248915   6.136   2.444   2.851  1.1016 -1.2414  0.3200
 9142TIP3   OH248916   2.492   6.603   5.130  0.0297 -0.1427 -0.0748
 9142TIP3    H148917   2.552   6.529   5.116  1.4800  0.8204  0.7190
 9142TIP3    H248918   2.517   6.638   5.216 -1.6217  0.3748  0.2215
 9143TIP3   OH248919   3.176   3.485   4.164  0.0581 -0.0701  0.1372
 9143TIP3    H148920   3.229   3.538   4.224 -0.6673 -0.8473  1.5238
 9143TIP3    H248921   3.238   3.457   4.096  1.7286 -1.7186  2.1823
 9144TIP3   OH248922   4.587   3.176  13.338 -0.4520  0.1436 -0.0410
 9144TIP3    H148923   4.678   3.179  13.369 -0.4644 -0.2379  0.0453
 9144TIP3    H248924   4.592   3.200  13.246 -0.1464 -0.7028 -0.2599
 9145TIP3   OH248925   3.543   6.377   3.429 -0.1329  0.3031  0.0004
 9145TIP3    H148926   3.547   6.353   3.522  1.1431  2.9964  0.7299
 9145TIP3    H248927   3.450   6.373   3.408 -0.4740 -0.1466  1.4347
 9146TIP3   OH248928   2.088   6.097  15.704  0.4367  0.0911  0.2304
 9146TIP3    H148929   2.121   6.125  15.790  1.4621 -0.4730  0.0389
 9146TIP3    H248930   2.064   6.006  15.716  1.1514 -0.1629 -0.2248
 9147TIP3   OH248931   3.368   4.010  11.596  0.1703  0.1711  0.6602
 9147TIP3    H148932   3.349   4.069  11.523 -1.6009 -0.5509  0.4854
 9147TIP3    H248933   3.412   3.934  11.555 -0.2516  0.0461  0.4385
 9148TIP3   OH248934   1.785   0.584   2.542  0.1252 -0.5513 -0.2357
 9148TIP3    H148935   1.739   0.502   2.526  0.8319 -1.0676  0.2920
 9148TIP3    H248936   1.855   0.560   2.603  1.1264  0.1950 -1.0572
 9149TIP3   OH248937   6.146   0.393   5.982 -0.2907 -0.6821  0.1819
 9149TIP3    H148938   6.139   0.362   6.073 -1.7267 -0.1644  0.2662
 9149TIP3    H248939   6.151   0.488   5.990 -0.3235 -0.6406 -0.2791
 9150TIP3   OH248940   3.708   0.888  15.344  0.6809 -0.2111  1.2295
 9150TIP3    H148941   3.767   0.873  15.418  2.9181  0.1368 -0.3674
 9150TIP3    H248942   3.712   0.982  15.329  1.9114 -0.5058 -0.5527
 9151TIP3   OH248943   3.060   6.311   1.840  0.2863  0.6721 -0.0757
 9151TIP3    H148944   3.096   6.305   1.751  1.2040 -0.5816  0.3549
 9151TIP3    H248945   3.020   6.398   1.843  0.4377  0.8323 -1.6404
 9152TIP3   OH248946   6.133   5.756  14.387 -0.4229 -0.4975 -0.2203
 9152TIP3    H148947   6.170   5.842  14.370  0.5218 -0.8778 -0.1631
 9152TIP3    H248948   6.190   5.718  14.454 -0.3416 -1.4747 -0.8196
 9153TIP3   OH248949   5.830   3.453  11.327 -0.1938  0.3367 -0.5577
 9153TIP3    H148950   5.774   3.441  11.404 -1.5417  0.7345 -1.4532
 9153TIP3    H248951   5.822   3.370  11.280 -1.0889  0.8514 -1.3440
 9154TIP3   OH248952   4.467   2.030  14.519  0.5289 -0.2525  0.4409
 9154TIP3    H148953   4.505   2.074  14.443 -0.3140  0.8642  0.6448
 9154TIP3    H248954   4.525   1.956  14.535  1.1123 -0.1082 -0.8607
 9155TIP3   OH248955   6.390   6.620  15.885  0.0014  0.3155 -0.4161
 9155TIP3    H148956   6.464   6.631  15.945 -0.7345  2.0797  0.2543
 9155TIP3    H248957   6.324   6.682  15.918 -0.7994  0.6419 -2.4892
 9156TIP3   OH248958   1.158   5.435  16.343 -0.4996  0.0231 -0.4103
 9156TIP3    H148959   1.124   5.506  16.288 -1.7344 -1.7560 -2.0520
 9156TIP3    H248960   1.175   5.363  16.281  1.4743 -0.8882  1.0829
 9157TIP3   OH248961   1.314   4.260   3.584 -0.4742  0.3108  0.3347
 9157TIP3    H148962   1.276   4.195   3.644 -1.6890  2.4402  2.0012
 9157TIP3    H248963   1.292   4.344   3.623 -2.8722  1.9993 -4.0040
 9158TIP3   OH248964   2.601   2.383   5.825 -0.3419  0.8716  0.0535
 9158TIP3    H148965   2.582   2.338   5.908 -0.1942 -0.8443 -0.7986
 9158TIP3    H248966   2.542   2.458   5.825 -1.9801 -0.3497  0.7149
 9159TIP3   OH248967   2.478   2.035   4.753  0.4717 -0.4864  0.8322
 9159TIP3    H148968   2.409   2.044   4.818 -0.8309 -1.3700 -0.3625
 9159TIP3    H248969   2.543   1.978   4.794  0.3465  0.0617  1.8336
 9160TIP3   OH248970   1.222   5.003  15.918  0.2538 -0.4619  0.3896
 9160TIP3    H148971   1.167   5.066  15.871  0.3716  0.8697  1.9494
 9160TIP3    H248972   1.209   4.921  15.871 -1.2725  0.3255 -0.6686
 9161TIP3   OH248973   2.503   6.738  16.474  0.5079 -0.5107  0.2056
 9161TIP3    H148974   2.430   6.782  16.518  3.0832  0.9044  3.4731
 9161TIP3    H248975   2.501   6.771  16.385 -1.3556  1.4019  0.8784
 9162TIP3   OH248976   3.972   6.128  13.765  0.3208 -0.1153 -0.0955
 9162TIP3    H148977   4.028   6.145  13.841  0.8031  0.0391 -0.4811
 9162TIP3    H248978   4.017   6.170  13.692  0.0680 -0.6105 -0.5442
 9163TIP3   OH248979   3.773   4.373   2.058  0.1038 -0.4065 -0.5487
 9163TIP3    H148980   3.809   4.284   2.069 -1.4504 -0.7248  3.7494
 9163TIP3    H248981   3.679   4.360   2.053 -0.1029  0.9914 -0.5670
 9164TIP3   OH248982   1.960   3.518   2.569 -0.0070 -0.2309  0.1627
 9164TIP3    H148983   1.935   3.468   2.491  1.7600  0.2636 -0.7544
 9164TIP3    H248984   1.926   3.606   2.552  0.1539 -0.1864  0.0726
 9165TIP3   OH248985   2.728   0.687   4.781 -0.5065 -0.2536  0.6528
 9165TIP3    H148986   2.801   0.746   4.759 -0.9899 -0.5533 -2.2388
 9165TIP3    H248987   2.762   0.599   4.763 -1.7468 -0.3419 -1.7300
 9166TIP3   OH248988   5.399   3.148  16.888 -0.8586  0.4317  0.8512
 9166TIP3    H148989   5.360   3.122  16.971 -4.0909  2.6899  0.2767
 9166TIP3    H248990   5.360   3.088  16.824 -0.1490  0.1088  0.7240
 9167TIP3   OH248991   6.434   3.258   2.230 -0.0527  0.0513  0.1885
 9167TIP3    H148992   6.444   3.264   2.325 -0.3470  0.1296  0.2137
 9167TIP3    H248993   6.353   3.208   2.218 -0.4791  0.7857 -0.0225
 9168TIP3   OH248994   5.509   1.648   3.734  0.2072 -0.8090  0.2468
 9168TIP3    H148995   5.590   1.608   3.704 -0.0094 -1.9788  1.1426
 9168TIP3    H248996   5.441   1.583   3.714 -0.3195 -0.4185  0.7123
 9169TIP3   OH248997   5.083   6.825   5.542 -0.4214 -0.4448  0.2943
 9169TIP3    H148998   5.030   6.894   5.501  0.7017  1.0755  1.2951
 9169TIP3    H248999   5.138   6.793   5.471 -0.3086  0.3522  0.0100
 9170TIP3   OH249000   3.705   4.305   4.234  0.0883 -0.1955 -0.1735
 9170TIP3    H149001   3.653   4.352   4.169  0.1175  1.2761  0.8212
 9170TIP3    H249002   3.795   4.329   4.216  0.1787 -0.5118 -0.1537
 9171TIP3   OH249003   0.903   1.281   4.181  0.3396  0.8337  0.4481
 9171TIP3    H149004   0.893   1.215   4.112 -2.1027  1.0519  0.5227
 9171TIP3    H249005   0.930   1.231   4.258 -1.3664 -0.1075  0.4746
 9172TIP3   OH249006   6.074   0.925   0.571 -0.3326 -0.0839 -0.5471
 9172TIP3    H149007   6.162   0.958   0.587 -0.3849  0.2740 -0.9900
 9172TIP3    H249008   6.056   0.946   0.480 -1.3618  0.9942 -0.1210
 9173TIP3   OH249009   0.859   6.517   5.981 -0.3116  0.0082  0.1152
 9173TIP3    H149010   0.820   6.570   5.911 -1.6921  2.7230  2.7241
 9173TIP3    H249011   0.794   6.448   5.997 -0.4601 -0.0213 -0.5636
 9174TIP3   OH249012   4.869   4.240  16.976 -0.0510 -0.2902  0.2495
 9174TIP3    H149013   4.819   4.172  17.022 -0.3723 -1.3497 -1.5601
 9174TIP3    H249014   4.948   4.252  17.029  0.3975 -2.6663  0.2401
 9175TIP3   OH249015   5.459   5.549   0.799 -0.4714  0.1246  0.0555
 9175TIP3    H149016   5.392   5.493   0.837 -0.4895 -1.0006 -1.5330
 9175TIP3    H249017   5.417   5.591   0.724  0.2341  0.3935 -0.2057
 9176TIP3   OH249018   4.371   3.292  11.410 -0.0480  0.4273  0.7404
 9176TIP3    H149019   4.343   3.248  11.330  1.3716  1.0748 -0.1444
 9176TIP3    H249020   4.422   3.226  11.457  1.4283  0.8396 -0.2196
 9177TIP3   OH249021   4.995   0.090   3.047 -0.0580  0.1195 -0.2315
 9177TIP3    H149022   5.062   0.150   3.079 -0.2325 -0.0335  0.4489
 9177TIP3    H249023   5.029   0.057   2.964  0.2564  0.7925 -0.3780
 9178TIP3   OH249024   0.862   6.704  16.708  0.1750  0.1726  0.2346
 9178TIP3    H149025   0.902   6.646  16.643  1.9247 -0.2133  1.5869
 9178TIP3    H249026   0.816   6.645  16.768  3.0179 -0.1126  2.3592
 9179TIP3   OH249027   0.331   0.327   1.621  0.4208 -0.1022 -0.1249
 9179TIP3    H149028   0.268   0.377   1.673  2.5994  2.9238 -0.1545
 9179TIP3    H249029   0.410   0.326   1.674  1.3122 -1.0493 -1.4208
 9180TIP3   OH249030   1.160   4.020  14.500  0.0097 -0.3688 -0.1633
 9180TIP3    H149031   1.200   4.054  14.580 -0.8042 -1.5299  0.7722
 9180TIP3    H249032   1.069   4.002  14.524 -0.0152 -1.6158 -1.0759
 9181TIP3   OH249033   1.069   2.688   0.037 -0.4498  0.5848  0.1534
 9181TIP3    H149034   1.148   2.653  -0.004 -0.3406  1.8410 -0.7535
 9181TIP3    H249035   1.004   2.691  -0.034 -1.1440  0.1381  0.7466
 9182TIP3   OH249036   5.104   3.795   0.112 -0.0620  0.1390 -0.1457
 9182TIP3    H149037   5.188   3.762   0.081 -0.9180 -0.7975 -1.5979
 9182TIP3    H249038   5.113   3.797   0.207  1.2488 -0.9492 -0.2091
 9183TIP3   OH249039   4.423   4.672  10.701 -0.0964  0.3175 -0.0002
 9183TIP3    H149040   4.389   4.742  10.646  0.4526  0.0012 -0.7642
 9183TIP3    H249041   4.346   4.627  10.735 -0.4517 -0.3003 -1.5815
 9184TIP3   OH249042   5.581   6.603  15.637 -0.3029 -0.4879 -0.1037
 9184TIP3    H149043   5.624   6.632  15.718  0.4168  0.4578 -0.7875
 9184TIP3    H249044   5.649   6.612  15.570 -0.8362 -1.4040 -0.7937
 9185TIP3   OH249045   0.394   2.729   5.385  0.3076  0.0700 -0.2109
 9185TIP3    H149046   0.474   2.763   5.426 -0.0026  1.3883 -0.6582
 9185TIP3    H249047   0.426   2.672   5.315  0.8372 -1.0060  0.8697
 9186TIP3   OH249048   3.759   1.535   4.538  0.2563  0.3210 -0.6603
 9186TIP3    H149049   3.702   1.506   4.609  0.3167 -0.0895 -0.7782
 9186TIP3    H249050   3.801   1.455   4.507  1.2571  0.6752 -0.2580
 9187TIP3   OH249051   1.379   3.288  16.891 -0.8348 -0.1888  0.3103
 9187TIP3    H149052   1.341   3.345  16.824 -1.1296  1.1987  1.5895
 9187TIP3    H249053   1.305   3.262  16.945 -0.3733  0.2488  1.1744
 9188TIP3   OH249054   5.066   5.098  13.156 -0.2332 -0.4073  0.8745
 9188TIP3    H149055   5.004   5.110  13.084  0.0431  0.7303  0.8048
 9188TIP3    H249056   5.067   5.183  13.201  2.1399  0.0196  0.1617
 9189TIP3   OH249057   2.620   0.993  14.324  0.2899 -0.0676 -0.1191
 9189TIP3    H149058   2.578   0.955  14.247 -1.3812 -0.3016  0.8474
 9189TIP3    H249059   2.676   0.923  14.357 -0.6373 -0.7438  0.0711
 9190TIP3   OH249060   2.209   6.787  14.554  0.5178  0.0552 -0.5183
 9190TIP3    H149061   2.214   6.810  14.647  2.2342  1.6947 -0.9828
 9190TIP3    H249062   2.125   6.824  14.525  0.9506  1.4007 -0.0982
 9191TIP3   OH249063   3.836   0.363   3.044 -0.3217 -0.0509  0.1699
 9191TIP3    H149064   3.830   0.404   3.130  0.3918  1.2216 -0.3585
 9191TIP3    H249065   3.923   0.323   3.042 -0.4044 -0.2309  0.0978
 9192TIP3   OH249066   4.161   3.777   2.119  0.5534  0.0638  0.0428
 9192TIP3    H149067   4.246   3.821   2.130  1.2610 -0.6428 -2.0619
 9192TIP3    H249068   4.127   3.813   2.037 -0.3780 -0.9138 -0.0062
 9193TIP3   OH249069   5.292   2.155   1.782 -0.3424  0.2484  0.7058
 9193TIP3    H149070   5.350   2.230   1.778  1.8705 -1.4046  0.0739
 9193TIP3    H249071   5.293   2.127   1.873  0.8101 -0.4426  0.4985
 9194TIP3   OH249072   1.475   2.596   3.686  0.4982 -0.2233  0.2561
 9194TIP3    H149073   1.531   2.621   3.612 -0.4466  1.2871  0.0140
 9194TIP3    H249074   1.414   2.669   3.696 -0.0273 -0.8397  1.9150
 9195TIP3   OH249075   6.360   6.783   4.005  0.4742  0.2016  0.1379
 9195TIP3    H149076   6.344   6.859   3.949  0.0279 -0.0782 -0.1240
 9195TIP3    H249077   6.276   6.768   4.049  1.1900  1.2846  1.9989
 9196TIP3   OH249078   5.813   6.473  12.856  0.4035  0.5369 -0.5010
 9196TIP3    H149079   5.863   6.428  12.924  0.5508  0.9121 -0.3564
 9196TIP3    H249080   5.722   6.449  12.873  0.5482 -0.2905 -0.8727
 9197TIP3   OH249081   6.762   4.649   5.998 -0.0600  0.3698 -0.4878
 9197TIP3    H149082   6.825   4.678   5.932 -0.5435 -0.1987 -1.2215
 9197TIP3    H249083   6.812   4.592   6.056  0.0442 -0.3560 -1.2655
 9198TIP3   OH249084   6.006   4.935  11.298  0.3626 -0.1807  0.0621
 9198TIP3    H149085   6.035   4.876  11.367 -1.1410 -0.5612  0.4067
 9198TIP3    H249086   6.053   4.906  11.220  1.1210 -0.5604  0.6530
 9199TIP3   OH249087   5.701   4.812  14.889 -0.0033 -0.6897 -0.2804
 9199TIP3    H149088   5.794   4.822  14.905  0.2067 -0.7425 -1.4155
 9199TIP3    H249089   5.663   4.894  14.921  0.5799 -0.1683 -0.8930
 9200TIP3   OH249090   1.907   0.544   0.998  0.0137 -0.3006 -0.3566
 9200TIP3    H149091   1.860   0.582   1.073 -0.9057 -2.7836  0.4453
 9200TIP3    H249092   1.839   0.500   0.947  1.0521 -1.2941 -0.9344
 9201TIP3   OH249093   1.377   2.848   4.957 -0.2431 -0.1301  0.5178
 9201TIP3    H149094   1.378   2.766   4.907 -2.0265  0.2603 -0.2329
 9201TIP3    H249095   1.362   2.916   4.891  0.0582  0.6905  1.2715
 9202TIP3   OH249096   3.970   3.809  16.388 -0.4156 -0.2705  0.4711
 9202TIP3    H149097   3.930   3.816  16.302 -2.0177 -0.3763  1.1772
 9202TIP3    H249098   4.038   3.876  16.388 -0.5736 -0.0906 -0.7703
 9203TIP3   OH249099   4.254   5.799  12.074 -0.0660  0.0064 -0.5370
 9203TIP3    H149100   4.320   5.777  12.008  0.8407 -0.3696  0.4732
 9203TIP3    H249101   4.245   5.719  12.126  0.3772  0.7816  0.7546
 9204TIP3   OH249102   0.901   5.654   3.628 -0.6802  0.2271 -0.3327
 9204TIP3    H149103   0.982   5.609   3.653 -0.5945  0.0381 -0.9399
 9204TIP3    H249104   0.922   5.747   3.638 -0.2646  0.1936 -0.8295
 9205TIP3   OH249105   2.733   0.531   6.150  0.1105 -0.5360  0.2790
 9205TIP3    H149106   2.658   0.578   6.186  0.2216 -0.9816  1.1259
 9205TIP3    H249107   2.801   0.541   6.216  0.2126 -1.6603  0.3601
 9206TIP3   OH249108   6.326   6.432   2.498 -0.3782  0.3978 -0.3707
 9206TIP3    H149109   6.248   6.424   2.444 -0.4106 -1.0870 -0.1539
 9206TIP3    H249110   6.395   6.392   2.445  0.1288  1.2000 -0.3330
 9207TIP3   OH249111   0.214   0.730   2.063 -0.2540 -0.4045 -0.7014
 9207TIP3    H149112   0.148   0.661   2.061 -0.9465  0.2575 -0.8749
 9207TIP3    H249113   0.297   0.683   2.068 -0.7454 -1.2421 -0.1959
 9208TIP3   OH249114   6.146   5.956  12.545  0.0891 -0.0093 -0.4597
 9208TIP3    H149115   6.079   5.921  12.604 -1.4146  1.5645 -1.1432
 9208TIP3    H249116   6.163   5.884  12.484 -0.1685 -0.8098  0.3904
 9209TIP3   OH249117   2.921   1.417  15.977  0.0200  0.2566 -0.0677
 9209TIP3    H149118   3.004   1.392  15.937  0.1810  1.3873 -0.4762
 9209TIP3    H249119   2.883   1.334  16.007  1.5429 -0.2364  0.6228
 9210TIP3   OH249120   3.091   4.050  14.149 -0.2623  0.5547 -0.1084
 9210TIP3    H149121   3.099   4.074  14.057 -1.6477 -1.1315 -0.7021
 9210TIP3    H249122   3.104   4.133  14.196 -3.9405  2.4012 -1.9750
 9211TIP3   OH249123   4.865   1.822  13.754  0.0105  0.0302 -0.3006
 9211TIP3    H149124   4.903   1.893  13.805  0.7998  0.6487 -1.7063
 9211TIP3    H249125   4.870   1.746  13.812  1.0134  0.6732  0.4839
 9212TIP3   OH249126   6.136   6.527  15.212  0.2202 -0.0150  0.1251
 9212TIP3    H149127   6.167   6.556  15.127  0.9804  2.5962  1.2110
 9212TIP3    H249128   6.212   6.488  15.254 -0.4667 -2.5604 -0.7909
 9213TIP3   OH249129   0.475   4.592   1.138  0.1907 -0.2220  0.1330
 9213TIP3    H149130   0.460   4.533   1.212  0.5429 -0.5161 -0.0324
 9213TIP3    H249131   0.404   4.656   1.145 -0.6609 -1.1085 -0.1445
 9214TIP3   OH249132   0.912   4.594  15.221 -0.1458 -0.1467 -0.4015
 9214TIP3    H149133   0.958   4.632  15.296  1.4873  0.4855 -1.6540
 9214TIP3    H249134   0.927   4.656  15.150  0.6427 -1.9904 -1.9181
 9215TIP3   OH249135   3.639   2.130  16.018  0.2099 -0.6068  0.2192
 9215TIP3    H149136   3.583   2.053  16.027 -0.1429 -0.6142 -1.6411
 9215TIP3    H249137   3.591   2.200  16.062 -1.3849 -0.5922 -1.3946
 9216TIP3   OH249138   1.312   1.189  14.215  0.6374 -0.0578  0.0664
 9216TIP3    H149139   1.390   1.236  14.187  0.1541  0.2531 -0.7848
 9216TIP3    H249140   1.302   1.213  14.308  1.1481  0.4585 -0.0059
 9217TIP3   OH249141   1.174   5.227  15.602 -0.2884  0.0605 -0.0085
 9217TIP3    H149142   1.168   5.292  15.533  1.2726 -0.3801 -0.6058
 9217TIP3    H249143   1.266   5.230  15.629  0.0373 -2.4721 -0.6460
 9218TIP3   OH249144   0.433   4.391  12.565  0.5770 -0.0337 -0.3682
 9218TIP3    H149145   0.382   4.472  12.554 -0.1530 -0.2253  1.3220
 9218TIP3    H249146   0.367   4.321  12.560  0.8684 -0.3745  0.5148
 9219TIP3   OH249147   2.423   5.534   6.960  0.1753 -0.1152 -0.1540
 9219TIP3    H149148   2.509   5.568   6.936  0.6932  0.0522  1.7752
 9219TIP3    H249149   2.362   5.603   6.933  0.5945 -0.3259 -1.7207
 9220TIP3   OH249150   2.254   4.366   2.243 -0.0019 -0.1034  0.1282
 9220TIP3    H149151   2.172   4.392   2.284  0.4219  1.2432  0.1491
 9220TIP3    H249152   2.234   4.361   2.149  0.3731  2.3298 -0.1314
 9221TIP3   OH249153   3.286   0.456  12.031 -0.3160  0.5507 -0.7487
 9221TIP3    H149154   3.310   0.390  12.096  1.0862  1.0809 -0.6800
 9221TIP3    H249155   3.334   0.430  11.952 -2.1376 -0.1884 -1.6673
 9222TIP3   OH249156   4.336   2.728   6.706 -0.4794  0.4729  0.6722
 9222TIP3    H149157   4.304   2.752   6.793  0.8503 -0.4309  1.4473
 9222TIP3    H249158   4.384   2.647   6.719 -0.2018  0.3425 -0.9080
 9223TIP3   OH249159   3.821   5.118   3.287  0.3929  0.6229  0.0485
 9223TIP3    H149160   3.811   5.163   3.371 -0.6137 -0.5470  0.5769
 9223TIP3    H249161   3.815   5.025   3.309 -0.9119  0.3173 -1.4367
 9224TIP3   OH249162   5.994   3.039  11.885 -0.1865  0.2642 -0.0855
 9224TIP3    H149163   5.952   3.022  11.801  1.4668  0.1247 -0.9343
 9224TIP3    H249164   6.063   3.102  11.865  0.5433 -0.1256  1.0818
 9225TIP3   OH249165   2.936   0.337  15.502 -0.1220  0.6063 -0.2532
 9225TIP3    H149166   2.890   0.299  15.576 -0.6980  0.5654 -0.6265
 9225TIP3    H249167   3.023   0.297  15.505  0.2669  1.5213  1.0993
 9226TIP3   OH249168   2.821   2.595   1.810  0.1649 -0.0879  0.0720
 9226TIP3    H149169   2.804   2.519   1.865  0.1938 -0.6760 -0.7159
 9226TIP3    H249170   2.916   2.596   1.799  0.0528 -0.7686 -1.0632
 9227TIP3   OH249171   6.709   4.684   5.418 -0.2280 -0.0035 -0.1842
 9227TIP3    H149172   6.731   4.602   5.462  2.0423 -0.3289 -1.7413
 9227TIP3    H249173   6.721   4.752   5.484  1.7460 -0.6039  0.1502
 9228TIP3   OH249174   2.153   3.795  15.984 -0.2469 -0.3424 -0.0888
 9228TIP3    H149175   2.241   3.803  15.948 -0.1860 -1.6412 -0.2788
 9228TIP3    H249176   2.158   3.833  16.071  0.3034  0.2824 -0.3871
 9229TIP3   OH249177   5.832   0.711  10.762 -0.5143  0.0338  0.5058
 9229TIP3    H149178   5.740   0.699  10.785  0.1054 -1.7956  2.2915
 9229TIP3    H249179   5.850   0.803  10.782 -1.5958  0.0321  1.5850
 9230TIP3   OH249180   2.215   2.238   4.736 -0.3295 -0.1237 -0.2974
 9230TIP3    H149181   2.189   2.329   4.719  1.8339  0.3814 -1.1799
 9230TIP3    H249182   2.203   2.228   4.831 -1.9589  0.5923 -0.3914
 9231TIP3   OH249183   6.116   4.211   3.630 -0.0294  0.3054 -0.1543
 9231TIP3    H149184   6.114   4.255   3.545 -2.0195  1.4811  0.4435
 9231TIP3    H249185   6.025   4.189   3.648  0.5728 -1.5422  0.9000
 9232TIP3   OH249186   6.363   2.547   3.618  0.5075  0.5620  0.3013
 9232TIP3    H149187   6.363   2.459   3.580 -0.3333  0.0659  1.3947
 9232TIP3    H249188   6.377   2.605   3.544 -2.0366 -0.3108 -0.9857
 9233TIP3   OH249189   6.247   5.369  12.735 -0.3374  0.2772 -0.0313
 9233TIP3    H149190   6.245   5.367  12.831  1.7130 -0.5141  0.0263
 9233TIP3    H249191   6.185   5.438  12.712 -1.4100 -0.0003  1.8259
 9234TIP3   OH249192   5.584   0.179   4.212  0.1636 -0.3484 -0.1581
 9234TIP3    H149193   5.519   0.170   4.142  0.6913  1.2748 -0.8867
 9234TIP3    H249194   5.638   0.101   4.204  0.1493 -0.2344 -1.4990
 9235TIP3   OH249195   0.819   2.104   0.678  0.0986 -1.0606 -0.0339
 9235TIP3    H149196   0.853   2.020   0.646 -1.4668 -1.0353 -1.8699
 9235TIP3    H249197   0.860   2.170   0.622 -0.5436 -0.7942 -0.1972
 9236TIP3   OH249198   6.520   5.599  16.128  0.3101 -0.3337  0.6629
 9236TIP3    H149199   6.477   5.594  16.213  0.5062 -0.2587  0.7675
 9236TIP3    H249200   6.589   5.532  16.132  0.1328 -0.5301  0.4566
 9237TIP3   OH249201   5.577   2.898   1.258 -0.3237 -0.0022  0.1079
 9237TIP3    H149202   5.567   2.993   1.246 -1.3081  0.2238  2.2430
 9237TIP3    H249203   5.489   2.867   1.277  0.3756 -0.8540  2.2625
 9238TIP3   OH249204   0.777   2.784  15.503 -0.1079  0.4665  0.2925
 9238TIP3    H149205   0.725   2.769  15.424  0.9602  1.9936 -0.7580
 9238TIP3    H249206   0.780   2.699  15.546 -0.7104 -0.4218 -1.3283
 9239TIP3   OH249207   5.332   5.727  15.769  0.5895  0.0816 -0.3473
 9239TIP3    H149208   5.319   5.632  15.772 -0.3118  0.2244  0.3469
 9239TIP3    H249209   5.392   5.740  15.695 -0.2744 -0.9137 -1.2451
 9240TIP3   OH249210   5.634   3.152   3.384  0.3378  0.0906 -0.5146
 9240TIP3    H149211   5.566   3.144   3.317 -0.5530  0.8709  0.2698
 9240TIP3    H249212   5.681   3.232   3.361  0.3135  0.1231 -0.4494
 9241TIP3   OH249213   2.641   6.814  11.986  0.5607 -0.1035  0.1975
 9241TIP3    H149214   2.617   6.792  11.896  1.0387 -1.1536  0.3083
 9241TIP3    H249215   2.632   6.909  11.991 -1.7905 -0.2372 -0.2764
 9242TIP3   OH249216   4.627   3.219   2.241  0.6017 -0.4307 -0.4136
 9242TIP3    H149217   4.580   3.168   2.176  0.5807 -1.4752  0.3856
 9242TIP3    H249218   4.716   3.227   2.206  0.4245 -0.4307 -0.8682
 9243TIP3   OH249219   3.253   4.277  14.738  0.1691 -0.3659  0.2387
 9243TIP3    H149220   3.347   4.286  14.729  0.0463  1.4742  0.3638
 9243TIP3    H249221   3.222   4.260  14.649  0.4968  0.5484 -0.0616
 9244TIP3   OH249222   5.644   6.369  16.427 -0.1820 -0.0204  0.0590
 9244TIP3    H149223   5.702   6.422  16.372  0.0260  1.4834  1.6268
 9244TIP3    H249224   5.559   6.413  16.422 -0.1347  0.2102  0.9688
 9245TIP3   OH249225   4.970   0.005   1.881  0.4472 -0.7970  0.4236
 9245TIP3    H149226   5.038   0.062   1.845  0.1351 -0.3806  0.4741
 9245TIP3    H249227   4.918  -0.021   1.805  1.8063 -2.7487  0.0736
 9246TIP3   OH249228   2.106   1.541  11.367 -0.7146 -0.2583  0.2125
 9246TIP3    H149229   2.119   1.477  11.297 -0.1579  0.4561 -0.3539
 9246TIP3    H249230   2.014   1.533  11.390 -1.2076  0.3254 -1.4397
 9247TIP3   OH249231   3.524   1.421  14.710 -0.3412  0.3652  0.6109
 9247TIP3    H149232   3.562   1.389  14.792 -0.8191 -3.5922 -0.5458
 9247TIP3    H249233   3.599   1.457  14.662  0.6359 -0.6744  1.2949
 9248TIP3   OH249234   5.842   2.858   0.183 -0.4646  0.3106 -0.0030
 9248TIP3    H149235   5.902   2.854   0.108  0.1657  0.6878  0.4729
 9248TIP3    H249236   5.810   2.768   0.192  0.2372  0.0416 -0.1070
 9249TIP3   OH249237   4.568   2.656  16.673 -0.1660 -0.0069 -0.1949
 9249TIP3    H149238   4.553   2.750  16.689 -0.3653 -0.0779  0.0473
 9249TIP3    H249239   4.485   2.615  16.696 -0.3659 -0.1496 -1.1376
 9250TIP3   OH249240   1.585   6.636   5.057 -0.7011  0.4083 -0.7859
 9250TIP3    H149241   1.597   6.667   5.147  0.7536 -0.8647 -0.5049
 9250TIP3    H249242   1.540   6.552   5.066  2.0189 -1.1828 -0.9740
 9251TIP3   OH249243   6.270   5.065   3.447  0.0992 -1.0094 -0.7500
 9251TIP3    H149244   6.214   5.023   3.512 -0.9510  0.8764 -0.3690
 9251TIP3    H249245   6.305   5.142   3.492 -0.9831  0.5875 -2.4844
 9252TIP3   OH249246   3.249   4.389   1.260 -0.4875 -0.3353 -0.7538
 9252TIP3    H149247   3.339   4.373   1.288 -1.1203 -2.6056  0.1177
 9252TIP3    H249248   3.228   4.316   1.202 -1.8131  0.1312 -0.8999
 9253TIP3   OH249249   0.654   3.650  10.474  0.4683 -0.0187 -0.2244
 9253TIP3    H149250   0.696   3.569  10.446 -1.0600 -0.6827 -0.6482
 9253TIP3    H249251   0.656   3.707  10.396  0.8042  0.0554 -0.1639
 9254TIP3   OH249252   2.952   0.782  11.607  0.2535 -0.1375 -0.3771
 9254TIP3    H149253   2.896   0.747  11.537 -1.8538  0.9639  0.6399
 9254TIP3    H249254   3.037   0.795  11.566 -0.6644 -0.4150 -2.4858
 9255TIP3   OH249255   2.234   6.711   1.451  0.8018  0.3703  0.5325
 9255TIP3    H149256   2.154   6.739   1.408  1.6179 -1.3924 -2.3963
 9255TIP3    H249257   2.204   6.670   1.533 -1.1168  1.1091  0.2388
 9256TIP3   OH249258   1.032   3.250   2.967  0.4480  0.0289 -0.3227
 9256TIP3    H149259   1.107   3.235   3.023  1.6851  3.0886 -0.9844
 9256TIP3    H249260   1.043   3.188   2.895  1.2892 -0.8291  0.5191
 9257TIP3   OH249261   0.706   1.015  14.173 -0.6032 -0.1120  0.1369
 9257TIP3    H149262   0.666   1.001  14.087 -1.2279  1.2251  0.1915
 9257TIP3    H249263   0.711   1.110  14.182  1.3332 -0.2303  0.7258
 9258TIP3   OH249264   4.967   3.804  12.015 -0.8464  0.1334  0.6683
 9258TIP3    H149265   4.981   3.712  12.037 -0.7182 -0.0936 -0.3234
 9258TIP3    H249266   4.895   3.803  11.952 -2.2175  0.8925  2.1527
 9259TIP3   OH249267   2.288   2.801   1.821 -0.1737 -1.0041 -0.4804
 9259TIP3    H149268   2.274   2.766   1.908 -1.1567 -0.8215 -0.5607
 9259TIP3    H249269   2.384   2.802   1.810  0.0236  0.1816  1.0728
 9260TIP3   OH249270   3.903   1.784   2.692 -0.3007  0.5521  0.2860
 9260TIP3    H149271   3.824   1.838   2.697 -1.3804 -0.9694  0.5755
 9260TIP3    H249272   3.949   1.801   2.774 -0.5117  1.1788  0.2802
 9261TIP3   OH249273   3.836   5.919   1.845  0.5831 -0.2075 -0.5449
 9261TIP3    H149274   3.866   5.973   1.771  0.1666 -0.2164 -0.7249
 9261TIP3    H249275   3.869   5.831   1.826  6.1130  0.8029  2.4019
 9262TIP3   OH249276   0.909   6.243   5.061 -0.0223 -0.1380  0.3636
 9262TIP3    H149277   0.904   6.158   5.017  2.4692 -0.6701  0.9555
 9262TIP3    H249278   0.959   6.299   5.001 -0.6817  0.5736  0.4637
 9263TIP3   OH249279   1.135   6.184   1.763  0.1646  0.5266  0.4206
 9263TIP3    H149280   1.073   6.250   1.793  1.3357  1.2209  1.4247
 9263TIP3    H249281   1.100   6.153   1.680 -1.5655  0.8063  1.0024
 9264TIP3   OH249282   3.866   2.268  11.476  0.3934  0.4817 -0.0564
 9264TIP3    H149283   3.861   2.241  11.568 -0.3236  0.0747 -0.2066
 9264TIP3    H249284   3.921   2.346  11.477  0.4707  0.4264  0.7074
 9265TIP3   OH249285   1.912   1.190  13.517  0.3053  0.5203 -0.3044
 9265TIP3    H149286   1.957   1.257  13.569  1.1921 -0.5410  0.3360
 9265TIP3    H249287   1.828   1.177  13.562  0.4758  0.6176  0.0471
 9266TIP3   OH249288   4.826   3.607   5.579 -0.1471  0.7524  0.3883
 9266TIP3    H149289   4.822   3.593   5.484  0.7500  2.3384  0.0755
 9266TIP3    H249290   4.745   3.570   5.613  0.1239 -1.0814 -0.8111
 9267TIP3   OH249291   3.795   5.529  15.463 -0.2323 -0.1390  0.9434
 9267TIP3    H149292   3.797   5.602  15.525  1.1211 -0.7740  1.6945
 9267TIP3    H249293   3.828   5.566  15.381 -0.8353  0.3986  0.9310
 9268TIP3   OH249294   4.568   5.118  11.523  0.2095  0.1886 -0.4557
 9268TIP3    H149295   4.501   5.134  11.456 -0.4974  0.5303  0.3113
 9268TIP3    H249296   4.572   5.022  11.529  0.3477  0.1521 -1.0423
 9269TIP3   OH249297   6.573   5.408   2.949 -0.5315  0.3525  0.4484
 9269TIP3    H149298   6.492   5.370   2.982 -0.6903  0.3858  0.0996
 9269TIP3    H249299   6.576   5.496   2.986 -2.1824  1.4929 -1.9383
 9270TIP3   OH249300   1.339   1.541  10.411 -0.2872  0.1771 -0.4762
 9270TIP3    H149301   1.275   1.486  10.455 -0.7261  1.9314  1.2023
 9270TIP3    H249302   1.289   1.588  10.345  0.0213 -1.0744 -1.6603
 9271TIP3   OH249303   1.945   6.267  15.185 -0.1472  0.1909  0.1995
 9271TIP3    H149304   2.023   6.320  15.198 -0.1287  0.5889 -1.3679
 9271TIP3    H249305   1.880   6.306  15.243  0.3829  0.8152  0.3842
 9272TIP3   OH249306   1.096   5.211   3.554 -0.0274  0.2581 -0.7696
 9272TIP3    H149307   1.103   5.175   3.642  0.4760 -1.1051 -1.3496
 9272TIP3    H249308   1.029   5.157   3.511 -0.1072  0.7720 -1.3044
 9273TIP3   OH249309   5.500   1.545   0.473  0.3519  0.9753 -0.0946
 9273TIP3    H149310   5.407   1.555   0.451  0.1473 -0.9758 -0.2812
 9273TIP3    H249311   5.524   1.460   0.436  1.8193  0.7779  1.2356
 9274TIP3   OH249312   3.383   1.957   3.891  0.6872 -0.2168  0.1691
 9274TIP3    H149313   3.365   1.873   3.849 -0.6936 -1.4966  3.0371
 9274TIP3    H249314   3.353   2.023   3.828 -1.0392 -1.9820 -0.9645
 9275TIP3   OH249315   2.635   6.467  16.230 -0.4816 -0.2632 -0.3325
 9275TIP3    H149316   2.672   6.415  16.159 -0.2085 -0.4083 -0.0811
 9275TIP3    H249317   2.709   6.515  16.266 -0.6616 -0.0046 -0.2985
 9276TIP3   OH249318   2.008   5.618   1.766 -0.4412 -0.2333  0.0346
 9276TIP3    H149319   2.005   5.712   1.784 -0.6317 -0.0011 -1.1344
 9276TIP3    H249320   2.062   5.582   1.836 -0.9571  0.6439  0.8998
 9277TIP3   OH249321   3.624   5.568   4.293  0.1018  0.0941 -0.2625
 9277TIP3    H149322   3.594   5.541   4.207  0.4204  0.6878 -0.5715
 9277TIP3    H249323   3.581   5.652   4.308 -1.7333 -1.0166  1.1445
 9278TIP3   OH249324   2.649   3.812  16.590  0.1169  0.0925  0.8153
 9278TIP3    H149325   2.555   3.791  16.588 -0.1209  0.7701 -2.9715
 9278TIP3    H249326   2.693   3.728  16.577  0.1271 -0.2786  2.9474
 9279TIP3   OH249327   4.664   6.258  12.778  0.9039  0.0163 -0.1065
 9279TIP3    H149328   4.693   6.230  12.864 -0.8513  1.1401  0.9100
 9279TIP3    H249329   4.645   6.351  12.788 -0.7131 -0.1362 -1.3170
 9280TIP3   OH249330   0.709   5.020  16.195  0.5206 -0.2653 -0.5194
 9280TIP3    H149331   0.650   5.088  16.162  0.8852 -0.7705 -2.3174
 9280TIP3    H249332   0.654   4.965  16.250 -0.2879  0.2400 -0.8020
 9281TIP3   OH249333   0.945   4.952   0.422 -0.5654 -0.3966 -0.5737
 9281TIP3    H149334   0.862   4.906   0.411 -1.1191  0.2966  0.4922
 9281TIP3    H249335   1.011   4.883   0.421 -1.3531 -1.2303  0.7744
 9282TIP3   OH249336   0.020   4.891  12.011 -0.5215 -0.2937 -0.1480
 9282TIP3    H149337  -0.001   4.837  11.935  0.2419 -1.0744  0.1841
 9282TIP3    H249338  -0.016   4.977  11.989 -2.2206 -1.0292 -0.4695
 9283TIP3   OH249339   3.413   6.414  16.013 -0.2337  0.2000  0.3285
 9283TIP3    H149340   3.490   6.440  15.962 -0.2620 -0.3679 -0.0154
 9283TIP3    H249341   3.360   6.363  15.952 -0.8621  0.5390  0.5807
 9284TIP3   OH249342   1.915   3.928  15.884  0.2721  0.5916 -0.2848
 9284TIP3    H149343   1.963   3.847  15.897 -0.0068  0.6719  1.4669
 9284TIP3    H249344   1.983   3.996  15.883  0.2715  0.8776  3.6905
 9285TIP3   OH249345   1.964   2.811   3.511  0.6602 -0.1180 -0.1840
 9285TIP3    H149346   1.942   2.856   3.430 -0.2986 -1.0878 -0.4769
 9285TIP3    H249347   2.058   2.793   3.504  0.2066 -2.1008 -2.0750
 9286TIP3   OH249348   1.282   3.320  12.487 -0.2333  0.8827 -0.2111
 9286TIP3    H149349   1.192   3.297  12.507 -0.0154 -0.4254 -0.6131
 9286TIP3    H249350   1.318   3.352  12.570 -0.3722 -1.0036  0.6298
 9287TIP3   OH249351   2.748   0.906  12.410  0.5383 -0.5755  0.1819
 9287TIP3    H149352   2.781   0.834  12.357 -0.2404 -1.1141  0.4148
 9287TIP3    H249353   2.735   0.978  12.347  0.6614 -0.8591 -0.1709
 9288TIP3   OH249354   4.386   6.140  17.073 -0.0240 -0.0659 -0.2355
 9288TIP3    H149355   4.390   6.229  17.108 -1.6835  0.0782 -0.3412
 9288TIP3    H249356   4.295   6.113  17.086  0.4260 -1.7339 -0.2695
 9289TIP3   OH249357   5.190   1.967   0.061  0.3425  0.3000 -0.0859
 9289TIP3    H149358   5.116   2.021   0.035  0.3601  0.4782  0.2293
 9289TIP3    H249359   5.241   1.955  -0.019  1.1325  1.9835  0.1359
 9290TIP3   OH249360   5.948   1.012   5.126  0.1250  0.3004 -0.2284
 9290TIP3    H149361   5.893   1.090   5.117  0.0034  0.4036  1.0938
 9290TIP3    H249362   5.891   0.946   5.165  0.6512  0.0702  0.1672
 9291TIP3   OH249363   2.684   4.002   5.332 -0.0703 -0.4642  0.1805
 9291TIP3    H149364   2.743   4.075   5.313 -0.5555  0.3656  1.7188
 9291TIP3    H249365   2.741   3.935   5.371 -0.2596  0.9198  3.1125
 9292TIP3   OH249366   0.905   4.620  10.564  0.4010  0.4858  0.0663
 9292TIP3    H149367   0.994   4.591  10.584 -0.5646 -0.9602  2.8416
 9292TIP3    H249368   0.917   4.705  10.522  3.0820  0.1868  0.0050
 9293TIP3   OH249369   5.227   3.096   5.063 -0.2837  0.5232  0.1450
 9293TIP3    H149370   5.214   3.092   5.158  2.5114  1.8532  0.6588
 9293TIP3    H249371   5.227   3.189   5.043  0.6462  0.3141 -0.9063
 9294TIP3   OH249372   2.343   2.549   3.929 -0.3070  0.3998 -0.2542
 9294TIP3    H149373   2.344   2.620   3.864 -0.1145  0.1777 -0.4991
 9294TIP3    H249374   2.396   2.480   3.888  0.0524  0.3664  0.2654
 9295TIP3   OH249375   1.794   5.906   3.256  0.2199  0.5010  0.2993
 9295TIP3    H149376   1.819   5.987   3.299  1.4923 -0.0893  0.7335
 9295TIP3    H249377   1.874   5.852   3.258 -0.5548 -0.7069 -0.0830
 9296TIP3   OH249378   2.235   1.726   0.758 -0.2956 -0.4338 -0.0803
 9296TIP3    H149379   2.145   1.749   0.735 -0.8901 -3.0779 -0.7820
 9296TIP3    H249380   2.247   1.760   0.846 -1.8964  0.1710 -0.0598
 9297TIP3   OH249381   4.244   2.799   2.962  0.8509  0.7340  0.3698
 9297TIP3    H149382   4.339   2.801   2.950  1.0368  0.4826  1.6734
 9297TIP3    H249383   4.210   2.861   2.897  1.8060  0.0803 -0.8046
 9298TIP3   OH249384   6.789   4.595  16.954  0.0076 -0.1315 -0.4591
 9298TIP3    H149385   6.815   4.511  16.993  0.5769 -0.2724 -1.1258
 9298TIP3    H249386   6.808   4.660  17.022  2.2804 -0.2036 -0.9617
 9299TIP3   OH249387   6.179   6.361  14.717  0.5622  0.2325  0.3225
 9299TIP3    H149388   6.225   6.281  14.740 -0.8423 -0.5433  0.5803
 9299TIP3    H249389   6.193   6.370  14.623  0.2833 -0.6335  0.1855
 9300TIP3   OH249390   5.781   4.250  16.200  0.3241  0.3110 -0.6778
 9300TIP3    H149391   5.710   4.291  16.150  0.8410  0.1329 -1.5721
 9300TIP3    H249392   5.796   4.167  16.156 -0.5973 -0.8187  1.0055
 9301TIP3   OH249393   2.548   3.659  14.599  0.4508 -0.1537 -0.2683
 9301TIP3    H149394   2.598   3.616  14.667  0.5792 -2.0650 -1.5044
 9301TIP3    H249395   2.511   3.737  14.642 -2.4684 -3.0389  3.0712
 9302TIP3   OH249396   2.281   3.496  10.721 -0.1234  0.6129 -0.5029
 9302TIP3    H149397   2.273   3.592  10.721 -0.3279  0.5939 -0.7494
 9302TIP3    H249398   2.355   3.478  10.663 -0.0260  0.6235 -0.3846
 9303TIP3   OH249399   2.343   1.712   2.247 -0.1810  0.0282 -0.2480
 9303TIP3    H149400   2.420   1.744   2.292 -0.5020  1.2307 -0.5113
 9303TIP3    H249401   2.276   1.706   2.315 -0.1255 -0.0689 -0.2017
 9304TIP3   OH249402   3.917   4.101   3.395  0.6609  0.3220  0.6608
 9304TIP3    H149403   3.908   4.146   3.311  0.3010 -0.3635  0.3328
 9304TIP3    H249404   4.012   4.101   3.411  0.7748 -0.0148  0.0004
 9305TIP3   OH249405   3.588   4.260   3.830 -0.2554 -0.6246 -1.1603
 9305TIP3    H149406   3.611   4.329   3.892 -2.4489  0.3685 -1.3443
 9305TIP3    H249407   3.518   4.211   3.873 -0.4256 -1.1654 -2.0262
 9306TIP3   OH249408   1.933   4.324  13.327  0.1106 -0.8208 -0.0547
 9306TIP3    H149409   1.901   4.301  13.414  0.1791 -1.0699 -0.0955
 9306TIP3    H249410   1.864   4.380  13.290  0.7659  0.5691  0.7452
 9307TIP3   OH249411   0.007   1.142  15.224  0.0301  0.2053 -0.3113
 9307TIP3    H149412  -0.047   1.078  15.176  0.5169  0.2120 -0.8744
 9307TIP3    H249413  -0.015   1.127  15.316 -1.5470  0.7495 -0.5667
 9308TIP3   OH249414   4.217   0.941  12.155 -0.7830  0.4636 -0.5007
 9308TIP3    H149415   4.148   0.890  12.112 -0.8066  0.2323 -0.1939
 9308TIP3    H249416   4.247   1.003  12.088 -1.6258  0.9002 -0.4875
 9309TIP3   OH249417   6.262   4.722  15.529  0.1954  0.0799  0.0822
 9309TIP3    H149418   6.227   4.633  15.538  1.5647 -0.3146  2.3821
 9309TIP3    H249419   6.356   4.711  15.522  0.5229  1.3264  1.6722
 9310TIP3   OH249420   2.983   6.090   3.262  0.4737  0.1672  0.4728
 9310TIP3    H149421   3.030   6.164   3.300  1.4639  0.0986 -0.5538
 9310TIP3    H249422   2.895   6.098   3.297 -0.0439  3.0282 -1.1234
 9311TIP3   OH249423   5.869   1.177  16.669 -0.1703 -0.3704 -0.4016
 9311TIP3    H149424   5.924   1.100  16.684 -0.6760 -0.5030  0.8898
 9311TIP3    H249425   5.931   1.249  16.659  0.3123 -0.9377 -1.7432
 9312TIP3   OH249426   5.838   1.187   4.024 -0.0287  0.2589 -0.0311
 9312TIP3    H149427   5.753   1.146   4.039  0.2131 -0.6971 -1.0665
 9312TIP3    H249428   5.819   1.280   4.015 -1.1208 -0.0435 -1.1926
 9313TIP3   OH249429   0.808   4.240  13.489 -0.1883  0.0512  0.0121
 9313TIP3    H149430   0.857   4.215  13.568  0.9363  0.6189 -0.4814
 9313TIP3    H249431   0.802   4.335  13.494 -2.2736 -0.0666  0.6256
 9314TIP3   OH249432   3.602   6.027   3.982 -0.1268 -0.0290 -0.5854
 9314TIP3    H149433   3.575   6.093   3.918  1.6083  1.2001 -0.1393
 9314TIP3    H249434   3.580   6.066   4.067  1.1102  0.0976 -0.3072
 9315TIP3   OH249435   1.735   1.527   1.587 -0.0103  0.1331  0.2251
 9315TIP3    H149436   1.778   1.558   1.667 -0.9796  0.2476  0.7180
 9315TIP3    H249437   1.745   1.432   1.589 -1.7223 -0.0716  1.5295
 9316TIP3   OH249438   4.178   3.161   1.014 -0.0917 -0.3520  0.0628
 9316TIP3    H149439   4.094   3.204   1.031 -0.3679 -0.7175 -0.3415
 9316TIP3    H249440   4.175   3.080   1.065  0.4063  0.0704  0.7809
 9317TIP3   OH249441   3.787   2.447  15.378 -0.2017  0.1752 -0.5969
 9317TIP3    H149442   3.823   2.449  15.290 -1.6927  2.2891 -1.2370
 9317TIP3    H249443   3.693   2.460  15.366 -0.6535 -0.9896  1.2347
 9318TIP3   OH249444   1.566   1.621  10.559  0.4419  0.0283  0.0758
 9318TIP3    H149445   1.493   1.587  10.507  1.3545 -0.5062 -0.8952
 9318TIP3    H249446   1.636   1.556  10.547  0.5493 -0.3448  2.3330
 9319TIP3   OH249447   4.043   2.510  10.781 -0.0159  0.5363 -0.3658
 9319TIP3    H149448   4.000   2.425  10.773 -0.9859  0.9544  0.2046
 9319TIP3    H249449   3.973   2.570  10.806  0.8030  1.3544  0.0339
 9320TIP3   OH249450   2.932   2.170  16.152  0.4711  0.1273 -0.0954
 9320TIP3    H149451   2.891   2.117  16.221  2.6974 -1.2783  0.2343
 9320TIP3    H249452   2.993   2.227  16.198  1.7437 -0.5901 -0.8219
 9321TIP3   OH249453   4.661   1.632  11.523  0.0819 -0.0351 -0.4292
 9321TIP3    H149454   4.740   1.662  11.479 -0.9659  2.4910 -0.7851
 9321TIP3    H249455   4.600   1.613  11.451 -0.6565  1.2060 -0.1565
 9322TIP3   OH249456   2.470   6.820  15.400  0.0834 -0.2063 -0.2789
 9322TIP3    H149457   2.414   6.797  15.475  1.5831 -1.0404  0.6417
 9322TIP3    H249458   2.421   6.888  15.354 -0.9339  0.2842  1.4100
 9323TIP3   OH249459   6.100   6.395   4.195 -0.3655 -0.0482  0.1106
 9323TIP3    H149460   6.146   6.327   4.147  0.3935  1.8553 -2.0352
 9323TIP3    H249461   6.169   6.440   4.244 -0.7398 -0.2972  0.8783
 9324TIP3   OH249462   5.403   2.175   2.640  0.1165 -0.3501  0.4763
 9324TIP3    H149463   5.384   2.094   2.594 -0.4623 -0.1548  0.3607
 9324TIP3    H249464   5.468   2.151   2.706  1.1274 -0.5854 -0.5903
 9325TIP3   OH249465   0.306   6.640   3.362  0.2351  0.8264 -0.1433
 9325TIP3    H149466   0.286   6.697   3.288 -1.0723  0.3200 -0.2053
 9325TIP3    H249467   0.235   6.655   3.424  1.1337  1.0004  0.8906
 9326TIP3   OH249468   0.618   4.890   2.043  0.1264  0.7389  0.2711
 9326TIP3    H149469   0.646   4.843   1.965  0.9468 -0.6394  1.3454
 9326TIP3    H249470   0.700   4.918   2.084 -0.0694 -1.3641  2.2769
 9327TIP3   OH249471   0.691   6.339  16.164  0.0508  0.4244 -0.6202
 9327TIP3    H149472   0.652   6.422  16.138 -1.8522  0.5357  2.1438
 9327TIP3    H249473   0.618   6.278  16.170  1.2012 -1.0686 -1.1092
 9328TIP3   OH249474   2.405   1.542  14.528  0.1962 -0.3849  0.1674
 9328TIP3    H149475   2.388   1.452  14.501  1.7769 -0.3846 -0.9645
 9328TIP3    H249476   2.394   1.541  14.623  0.4497 -1.8496  0.1979
 9329TIP3   OH249477   4.348   4.449  14.686 -0.7141 -0.3737  0.3644
 9329TIP3    H149478   4.409   4.390  14.642 -0.5850 -0.2978  0.4401
 9329TIP3    H249479   4.373   4.445  14.778  0.1094  0.7396  0.2168
 9330TIP3   OH249480   0.465   4.753   3.797  0.2446  0.0426  0.2150
 9330TIP3    H149481   0.455   4.839   3.836  0.3884  0.0161  0.3092
 9330TIP3    H249482   0.382   4.708   3.816  0.5414 -0.1848  1.0264
 9331TIP3   OH249483   5.294   0.697   1.944 -0.2375  0.0438  0.2847
 9331TIP3    H149484   5.386   0.718   1.928 -0.0544 -0.4570  0.6495
 9331TIP3    H249485   5.249   0.721   1.863  0.2571  0.0193 -0.0010
 9332TIP3   OH249486   1.023   6.522   2.606  0.4520  0.1377 -0.9068
 9332TIP3    H149487   1.075   6.502   2.527  1.6421 -0.5258  0.0126
 9332TIP3    H249488   1.088   6.532   2.675 -0.5172  1.7107 -0.1891
 9333TIP3   OH249489   0.356   3.433  15.792 -0.1403  0.2212 -0.0660
 9333TIP3    H149490   0.314   3.505  15.744 -1.5377  0.4498  1.4137
 9333TIP3    H249491   0.428   3.474  15.839 -1.8600  1.0491  2.0016
 9334TIP3   OH249492   0.738   2.057  11.969  0.3021 -0.4487 -0.0688
 9334TIP3    H149493   0.759   2.043  11.877 -0.3634  0.7727 -0.4233
 9334TIP3    H249494   0.742   2.152  11.981  0.3206 -0.5798  1.1543
 9335TIP3   OH249495   6.636   0.069   1.267  0.1769 -0.0229 -0.0029
 9335TIP3    H149496   6.667   0.134   1.205  1.4158 -0.1257  0.4808
 9335TIP3    H249497   6.663  -0.015   1.229 -0.1173 -0.1567  0.0858
 9336TIP3   OH249498   6.364   4.838  16.229  0.3544  0.0255  0.0723
 9336TIP3    H149499   6.306   4.781  16.178 -1.8863  1.6142  0.6547
 9336TIP3    H249500   6.304   4.893  16.280  2.3908  2.3183  0.1738
 9337TIP3   OH249501   2.989   3.442   0.582 -0.0688  0.1073  0.2365
 9337TIP3    H149502   2.965   3.527   0.620  2.4444  0.4000  1.4221
 9337TIP3    H249503   2.987   3.381   0.656 -0.2167 -0.5051 -0.2634
 9338TIP3   OH249504   5.558   1.379   6.153 -0.6777  0.1828  0.1371
 9338TIP3    H149505   5.623   1.311   6.131 -1.0401 -0.2412  0.3616
 9338TIP3    H249506   5.475   1.344   6.122 -0.7012  1.0592 -0.8380
 9339TIP3   OH249507   5.094   4.482   2.841  0.1218 -0.4330  0.3065
 9339TIP3    H149508   5.115   4.487   2.934  1.9218  0.2194 -0.0874
 9339TIP3    H249509   5.068   4.571   2.818  0.5407 -0.3829  0.0123
 9340TIP3   OH249510   0.855   4.774   6.032  0.0755 -1.0314  0.1987
 9340TIP3    H149511   0.854   4.852   6.088  0.4989 -1.3776  0.7060
 9340TIP3    H249512   0.863   4.701   6.093  2.2997 -1.3336 -0.3465
 9341TIP3   OH249513   3.922   0.116  11.662  0.2272  0.0198  0.4974
 9341TIP3    H149514   3.979   0.192  11.674  0.4106 -0.1279  0.5705
 9341TIP3    H249515   3.838   0.152  11.633  0.5055  0.1992 -0.0890
 9342TIP3   OH249516   4.987   4.110   0.983 -0.0192  0.2864 -0.1222
 9342TIP3    H149517   5.058   4.084   0.925  0.5033  1.5749 -0.0854
 9342TIP3    H249518   5.008   4.068   1.067 -0.1524 -0.6154 -0.5307
 9343TIP3   OH249519   3.323   3.685   0.082 -0.0383 -0.0169 -0.0278
 9343TIP3    H149520   3.340   3.773   0.115  1.0605 -0.1085 -0.3119
 9343TIP3    H249521   3.348   3.627   0.154  0.6492 -0.1457 -0.3606
 9344TIP3   OH249522   6.642   3.813   0.777 -0.0548  0.1682 -0.4225
 9344TIP3    H149523   6.596   3.762   0.709  1.0271 -0.4114 -0.7436
 9344TIP3    H249524   6.683   3.885   0.729  0.4082 -0.0349 -0.3347
 9345TIP3   OH249525   4.302   0.513  11.562  0.3493 -0.0317  0.7923
 9345TIP3    H149526   4.396   0.495  11.559  0.3293 -0.4279  1.9443
 9345TIP3    H249527   4.272   0.499  11.473  1.4951  0.7161  0.2605
 9346TIP3   OH249528   2.958   1.692  16.543  0.1576  0.1065  0.9885
 9346TIP3    H149529   2.876   1.727  16.507 -0.1111 -2.9976 -1.8612
 9346TIP3    H249530   3.026   1.750  16.508 -0.5419  0.5850  0.3917
 9347TIP3   OH249531   5.983   0.733  15.254 -0.5489  0.2995 -0.1308
 9347TIP3    H149532   6.014   0.762  15.340 -0.3999  1.1698 -0.4695
 9347TIP3    H249533   6.061   0.732  15.199 -0.1944 -2.4216  0.2595
 9348TIP3   OH249534   2.492   0.258   0.884  0.4904 -0.3206  0.5935
 9348TIP3    H149535   2.454   0.283   0.968 -0.2700  0.8375 -0.0620
 9348TIP3    H249536   2.487   0.337   0.831 -0.0300 -1.2997 -0.8927
 9349TIP3   OH249537   0.670   3.278  16.155  0.5018  0.6186 -0.6154
 9349TIP3    H149538   0.664   3.368  16.188 -1.2395  0.5317 -0.5669
 9349TIP3    H249539   0.625   3.281  16.070 -0.1611 -0.3327 -0.3076
 9350TIP3   OH249540   4.842   5.253   1.189 -0.5824  0.2458  0.6309
 9350TIP3    H149541   4.909   5.277   1.125 -0.4149  0.8675  1.0261
 9350TIP3    H249542   4.824   5.161   1.173  0.5949 -0.0092  0.7220
 9351TIP3   OH249543   3.050   6.429  10.965 -0.5495  0.3542  0.0100
 9351TIP3    H149544   3.033   6.504  11.023  2.4734  1.3668 -0.2321
 9351TIP3    H249545   3.137   6.446  10.929 -0.0482 -2.9459 -0.6436
 9352TIP3   OH249546   6.806   1.856  15.264 -0.1652  0.0225 -0.1534
 9352TIP3    H149547   6.838   1.946  15.271  0.9679 -0.4702  1.8919
 9352TIP3    H249548   6.764   1.839  15.348 -3.1819 -0.4111 -1.5969
 9353TIP3   OH249549   4.506   5.402   1.764 -0.3035  0.2402 -0.0144
 9353TIP3    H149550   4.547   5.316   1.765  0.1564  0.4320 -1.3627
 9353TIP3    H249551   4.577   5.463   1.745 -0.6598  0.9157  0.7428
 9354TIP3   OH249552   2.893   0.354  11.327 -0.3445  0.1642  0.3033
 9354TIP3    H149553   2.870   0.441  11.293  0.8066 -0.0163 -0.9872
 9354TIP3    H249554   2.908   0.369  11.421  0.4512  1.4992 -0.0109
 9355TIP3   OH249555   3.642   5.722  15.033  0.7760 -0.1309 -0.8866
 9355TIP3    H149556   3.582   5.657  15.068 -0.4888  1.9350  1.0426
 9355TIP3    H249557   3.595   5.762  14.959  0.7284 -0.0433 -0.8082
 9356TIP3   OH249558   2.289   0.468   3.242  0.0814 -0.2356 -0.2480
 9356TIP3    H149559   2.331   0.450   3.158 -0.9365 -1.2918 -0.5422
 9356TIP3    H249560   2.343   0.421   3.306  0.1138 -0.4948 -0.4662
 9357TIP3   OH249561   1.240   6.215  15.504 -0.0858  0.2342  0.3036
 9357TIP3    H149562   1.311   6.151  15.510  0.1675  0.4231 -0.5442
 9357TIP3    H249563   1.249   6.253  15.417 -2.1621 -0.8562 -0.4700
 9358TIP3   OH249564   0.392   4.220   4.272  0.1913  0.0279  0.4302
 9358TIP3    H149565   0.426   4.307   4.293  0.2229  0.4368 -1.1856
 9358TIP3    H249566   0.414   4.207   4.180 -0.4711 -1.3876  0.4408
 9359TIP3   OH249567   0.783   2.633  14.471 -0.4835  0.3440 -0.1242
 9359TIP3    H149568   0.841   2.666  14.540  0.7568 -0.1899 -0.8813
 9359TIP3    H249569   0.704   2.686  14.479 -0.4336  0.1975  1.7892
 9360TIP3   OH249570   3.861   4.234  13.493 -0.3444 -0.0064  0.2122
 9360TIP3    H149571   3.770   4.263  13.494 -0.1946  0.5945 -1.2475
 9360TIP3    H249572   3.861   4.152  13.544 -1.8025 -0.3089 -0.2358
 9361TIP3   OH249573   6.075   3.299   3.234  0.1468  0.3040 -0.1690
 9361TIP3    H149574   6.003   3.255   3.280  2.3592 -2.1283  1.2456
 9361TIP3    H249575   6.088   3.246   3.155  0.3015  0.8473 -0.5145
 9362TIP3   OH249576   3.212   1.414   4.444  0.5128  0.6591 -0.1797
 9362TIP3    H149577   3.240   1.439   4.532  0.5699  1.6336 -0.4627
 9362TIP3    H249578   3.290   1.373   4.405  0.2483 -0.5261  0.4837
 9363TIP3   OH249579   6.051   4.835   1.621  0.4707  0.3862  0.1817
 9363TIP3    H149580   5.970   4.838   1.571  1.0212 -2.4017 -1.0596
 9363TIP3    H249581   6.059   4.744   1.648  3.2525  0.5381  0.1242
 9364TIP3   OH249582   5.729   5.243   4.330 -0.3265 -0.2217  0.4301
 9364TIP3    H149583   5.677   5.318   4.358  0.1688  0.9587 -1.6022
 9364TIP3    H249584   5.680   5.167   4.360 -0.9963  0.8781  2.2924
 9365TIP3   OH249585   5.348   0.758   1.593 -0.3297 -0.2962 -0.1808
 9365TIP3    H149586   5.276   0.788   1.649  0.3765 -1.8177  1.6943
 9365TIP3    H249587   5.380   0.679   1.637  2.3111  0.1745 -1.0934
 9366TIP3   OH249588   5.494   5.696  13.121  0.0865 -0.8713 -0.2678
 9366TIP3    H149589   5.418   5.751  13.108 -1.0041 -2.7176 -2.4086
 9366TIP3    H249590   5.566   5.757  13.135 -1.2743  1.0244 -1.1490
 9367TIP3   OH249591   0.074   6.227  12.836 -0.6443  0.2713 -0.0636
 9367TIP3    H149592   0.062   6.196  12.926  1.5102 -0.1420  0.1456
 9367TIP3    H249593   0.074   6.147  12.783  2.6463 -0.0358  0.2009
 9368TIP3   OH249594   5.267   3.530  15.504  0.4714 -0.3680 -0.0706
 9368TIP3    H149595   5.284   3.570  15.589  0.7416 -1.4578  0.4034
 9368TIP3    H249596   5.272   3.603  15.442 -1.0606  0.6893  0.9690
 9369TIP3   OH249597   5.036   2.117  17.077 -0.0535  0.0985  0.5134
 9369TIP3    H149598   5.084   2.132  16.995  0.6000 -0.9902  0.6803
 9369TIP3    H249599   4.951   2.158  17.062 -0.1757 -0.5955 -0.9650
 9370TIP3   OH249600   3.889   2.790   0.265  0.2039 -0.5010 -0.6400
 9370TIP3    H149601   3.823   2.757   0.204 -1.1450  2.6023 -1.0660
 9370TIP3    H249602   3.845   2.790   0.350  1.0897 -2.0807 -0.1339
 9371TIP3   OH249603   5.396   6.592   3.527 -0.0331 -0.3723  0.4565
 9371TIP3    H149604   5.449   6.672   3.527  0.9130 -0.9289 -1.4127
 9371TIP3    H249605   5.403   6.558   3.616  2.1938 -0.0343  0.4773
 9372TIP3   OH249606   4.868   0.572   4.065  0.1850 -0.0119  0.2064
 9372TIP3    H149607   4.907   0.560   3.979  0.6068  1.1651  0.2113
 9372TIP3    H249608   4.783   0.613   4.048  0.0472 -0.2463  0.3255
 9373TIP3   OH249609   0.748   1.968  10.404  0.4449 -0.3544  0.7745
 9373TIP3    H149610   0.709   2.054  10.387 -0.9091 -1.3149 -1.3699
 9373TIP3    H249611   0.693   1.930  10.471  1.6828  0.7964  2.5320
 9374TIP3   OH249612   6.581   2.268  13.407 -0.1411  0.0429 -0.0085
 9374TIP3    H149613   6.550   2.278  13.497 -1.1227 -0.4624 -0.2749
 9374TIP3    H249614   6.676   2.280  13.413 -0.1440 -0.3979  1.1525
 9375TIP3   OH249615   3.792   5.129  15.118  0.0634  0.0997 -0.6314
 9375TIP3    H149616   3.860   5.148  15.054 -0.9275 -2.4692 -2.6339
 9375TIP3    H249617   3.812   5.040  15.148 -1.1101  0.1823  0.4920
 9376TIP3   OH249618   3.910   5.466   5.749 -0.7948  0.3086  0.0040
 9376TIP3    H149619   3.998   5.440   5.777 -0.8516  0.0158 -0.0899
 9376TIP3    H249620   3.878   5.392   5.698 -0.5254  0.9967 -1.1999
 9377TIP3   OH249621   3.887   0.008  15.302 -0.0431 -0.4703 -0.4564
 9377TIP3    H149622   3.892   0.009  15.207  1.8173 -0.0688 -0.3848
 9377TIP3    H249623   3.888  -0.085  15.325  1.8969 -0.5764 -0.7785
 9378TIP3   OH249624   5.739   5.473  16.531  0.2192  0.1085  0.2607
 9378TIP3    H149625   5.670   5.413  16.503 -0.3825  1.1220 -0.4982
 9378TIP3    H249626   5.771   5.436  16.613 -1.5695 -0.1462  0.8968
 9379TIP3   OH249627   4.115   3.085   6.187 -0.2109  0.4418 -0.3180
 9379TIP3    H149628   4.021   3.087   6.201 -0.0479  0.8298  0.8538
 9379TIP3    H249629   4.143   3.175   6.204  0.4590  0.1668  0.0680
 9380TIP3   OH249630   1.476   4.558  15.291  0.0441 -0.6907 -0.4510
 9380TIP3    H149631   1.439   4.473  15.267 -2.4888  0.3471 -0.5483
 9380TIP3    H249632   1.531   4.540  15.367 -1.5464 -2.2711  0.4067
 9381TIP3   OH249633   4.354   3.143   1.307 -0.1124 -0.0504  0.2413
 9381TIP3    H149634   4.442   3.178   1.313 -0.5118  0.9018  0.7018
 9381TIP3    H249635   4.301   3.199   1.364 -0.8873 -1.0110  0.5017
 9382TIP3   OH249636   0.665   2.028   0.940  0.6653  0.0040  0.0841
 9382TIP3    H149637   0.697   2.046   1.029 -0.2757 -0.8156  0.6119
 9382TIP3    H249638   0.721   2.080   0.883 -0.1950  2.4015  1.3093
 9383TIP3   OH249639   4.052   2.350   4.603  0.3309 -0.1692  0.3147
 9383TIP3    H149640   4.076   2.277   4.659  1.1020  0.8765  1.3998
 9383TIP3    H249641   4.107   2.423   4.633  2.3949 -0.0647 -3.1905
 9384TIP3   OH249642   1.803   3.667  16.203 -0.0710  0.2081 -0.2965
 9384TIP3    H149643   1.821   3.598  16.140 -0.2110 -0.1849  0.0879
 9384TIP3    H249644   1.884   3.675  16.254  0.4654  1.3580 -1.2948
 9385TIP3   OH249645   2.348   6.174   6.326 -0.2493  0.0785 -0.1926
 9385TIP3    H149646   2.413   6.151   6.392  0.1146  1.3440 -0.0749
 9385TIP3    H249647   2.269   6.194   6.377 -0.2290  0.1884 -0.2037
 9386TIP3   OH249648   0.198   0.106   0.667 -0.1758  0.2491 -0.0410
 9386TIP3    H149649   0.210   0.145   0.581 -0.1998 -2.3971 -1.3282
 9386TIP3    H249650   0.286   0.086   0.698 -0.2500 -0.2525 -0.1561
 9387TIP3   OH249651   0.463   0.433   0.844  0.0674  0.0983 -0.3666
 9387TIP3    H149652   0.428   0.353   0.884 -0.0618 -0.0511 -0.7777
 9387TIP3    H249653   0.398   0.500   0.862  0.5430  0.3040  0.6731
 9388TIP3   OH249654   0.648   4.864   5.709 -0.3197 -0.5489 -0.2923
 9388TIP3    H149655   0.574   4.815   5.744  0.5145 -1.4145  0.3014
 9388TIP3    H249656   0.662   4.827   5.622 -0.8190 -0.1111 -0.5668
 9389TIP3   OH249657   2.065   4.048  13.243  0.7625  0.5711  0.3833
 9389TIP3    H149658   2.045   4.138  13.272 -2.0550  0.6350 -1.3132
 9389TIP3    H249659   2.036   4.046  13.152  2.1311 -1.7072 -0.0703
 9390TIP3   OH249660   3.272   4.092   1.210 -0.1540  0.2967 -0.1306
 9390TIP3    H149661   3.344   4.077   1.272  1.3730  0.8369 -1.7000
 9390TIP3    H249662   3.273   4.015   1.153 -0.9930  0.2075 -0.0380
 9391TIP3   OH249663   4.492   4.421  12.281  0.1850 -0.5066  0.3105
 9391TIP3    H149664   4.580   4.458  12.286  1.2959 -2.8757 -0.3471
 9391TIP3    H249665   4.450   4.448  12.363  1.3973  0.8779  0.5150
 9392TIP3   OH249666   2.176   2.557  13.943  0.4821 -0.0946 -0.3455
 9392TIP3    H149667   2.088   2.581  13.972  1.3145  1.7754  0.8292
 9392TIP3    H249668   2.234   2.602  14.004  2.2763 -0.7672 -1.4806
 9393TIP3   OH249669   2.947   5.773   1.631 -0.1041 -0.4320  0.0943
 9393TIP3    H149670   2.974   5.747   1.719  0.3570  0.4895  0.2390
 9393TIP3    H249671   3.027   5.806   1.590 -0.6378  0.6977 -0.0844
 9394TIP3   OH249672   4.801   1.614  16.193  0.1952  0.7624 -0.3928
 9394TIP3    H149673   4.843   1.528  16.183  1.3074  1.0183  1.5339
 9394TIP3    H249674   4.867   1.676  16.164  0.3222  1.0605  0.4964
 9395TIP3   OH249675   2.688   0.296   2.089  0.3123  0.3196 -0.2069
 9395TIP3    H149676   2.644   0.382   2.091  1.1170  0.7400 -0.1835
 9395TIP3    H249677   2.651   0.253   2.012  1.0857  1.3431 -1.1889
 9396TIP3   OH249678   6.588   1.377   5.253  0.5558  0.1516 -0.3539
 9396TIP3    H149679   6.616   1.285   5.251  2.3171  0.6395 -0.0548
 9396TIP3    H249680   6.667   1.426   5.230  0.2770  1.7156  1.7364
 9397TIP3   OH249681   1.452   2.541  14.188 -0.4184  0.1935  0.1670
 9397TIP3    H149682   1.532   2.493  14.166 -0.5002 -0.3840  1.0511
 9397TIP3    H249683   1.457   2.622  14.138  0.5988  0.0414  0.0132
 9398TIP3   OH249684   0.107   4.119   5.056 -0.6397  0.6228 -0.2119
 9398TIP3    H149685   0.166   4.071   4.998 -0.7598 -0.4825  0.5486
 9398TIP3    H249686   0.155   4.198   5.080 -0.2861  0.7123 -1.1877
 9399TIP3   OH249687   4.741   6.314   3.413 -0.0776  0.1172 -0.1920
 9399TIP3    H149688   4.772   6.324   3.503 -1.1445 -0.3273  0.2353
 9399TIP3    H249689   4.663   6.368   3.407 -1.1822 -1.4101 -0.2297
 9400TIP3   OH249690   1.299   4.804   4.464 -0.0193 -0.2734 -0.0241
 9400TIP3    H149691   1.368   4.744   4.493  0.5251  0.9885  1.4414
 9400TIP3    H249692   1.231   4.796   4.531 -0.1363  0.4102 -0.0580
 9401TIP3   OH249693   3.722   2.693   5.009  0.2903 -0.3734  0.1484
 9401TIP3    H149694   3.788   2.721   5.073  0.4883  0.7911 -0.5426
 9401TIP3    H249695   3.768   2.692   4.925 -0.6544  0.9318 -0.4296
 9402TIP3   OH249696   2.860   3.686   0.702  0.0061  0.0294 -0.5979
 9402TIP3    H149697   2.873   3.752   0.771 -1.9064 -0.0385 -0.1227
 9402TIP3    H249698   2.791   3.629   0.736 -0.1742 -0.6896 -2.1027
 9403TIP3   OH249699   1.451   4.671   2.646 -0.1271  0.3373 -0.2952
 9403TIP3    H149700   1.442   4.765   2.662 -2.0469  0.1116  0.1895
 9403TIP3    H249701   1.405   4.629   2.718 -0.0092 -0.9722 -0.9404
 9404TIP3   OH249702   2.259   5.767  11.367  0.0517 -0.0512  0.0402
 9404TIP3    H149703   2.339   5.738  11.325  1.0003  1.1941  0.8984
 9404TIP3    H249704   2.288   5.807  11.449 -1.5232 -0.3160  0.7633
 9405TIP3   OH249705   5.687   0.139  11.497 -0.3438 -0.1765 -0.5777
 9405TIP3    H149706   5.763   0.130  11.440  1.1153 -1.7821  1.4799
 9405TIP3    H249707   5.662   0.050  11.519 -2.5322  0.3370 -0.7488
 9406TIP3   OH249708   5.511   1.378  13.707 -0.1350 -0.3793 -0.1140
 9406TIP3    H149709   5.492   1.284  13.695  1.6088 -1.0070  1.5858
 9406TIP3    H249710   5.443   1.408  13.767 -0.0216 -0.8364  0.2444
 9407TIP3   OH249711   2.558   5.892   4.053 -0.0941  0.1736 -0.1162
 9407TIP3    H149712   2.551   5.846   3.969 -0.3760  1.0895 -0.6116
 9407TIP3    H249713   2.570   5.983   4.029 -2.5135  0.8215  0.7928
 9408TIP3   OH249714   5.703   0.201   3.000 -0.6729 -0.0012  0.0175
 9408TIP3    H149715   5.608   0.187   2.996 -0.8470  0.9807  0.5967
 9408TIP3    H249716   5.737   0.122   3.042 -1.1069 -0.8265 -1.1300
 9409TIP3   OH249717   2.126   3.676   3.083 -0.8034  0.1394  1.4904
 9409TIP3    H149718   2.116   3.589   3.122  0.9441 -2.5302 -3.1593
 9409TIP3    H249719   2.039   3.695   3.047 -1.2061  0.3772  2.5592
 9410TIP3   OH249720   4.863   0.051   4.247  0.4236  0.0039  0.2860
 9410TIP3    H149721   4.939   0.020   4.297 -1.1085 -2.1650  1.4268
 9410TIP3    H249722   4.858   0.145   4.266  2.3121  0.0377  0.8294
 9411TIP3   OH249723   2.663   5.394   0.760 -0.3312  0.1751 -0.3585
 9411TIP3    H149724   2.571   5.399   0.787 -0.8637 -0.6584 -1.8956
 9411TIP3    H249725   2.690   5.306   0.784  0.6335  0.9623  1.6487
 9412TIP3   OH249726   5.492   4.120   2.017 -0.1277  0.1080  0.0436
 9412TIP3    H149727   5.552   4.160   2.079  0.0134  2.0563 -1.2584
 9412TIP3    H249728   5.549   4.080   1.951 -0.2709 -0.3589  0.2004
 9413TIP3   OH249729   6.483   6.435  16.297 -0.1427  0.2062  0.2468
 9413TIP3    H149730   6.468   6.523  16.261  0.3780  0.5880  0.9279
 9413TIP3    H249731   6.524   6.387  16.226  1.4087  1.1237  0.4788
 9414TIP3   OH249732   2.143   0.486  12.056 -0.0956  0.1393 -0.5694
 9414TIP3    H149733   2.127   0.490  12.151  1.5476 -3.5441  0.0340
 9414TIP3    H249734   2.056   0.500  12.017 -1.4694 -1.4749  1.6523
 9415TIP3   OH249735   2.442   2.062   0.940 -0.1249  0.1540  0.1448
 9415TIP3    H149736   2.518   2.077   0.997  0.3896 -0.2314 -0.4292
 9415TIP3    H249737   2.410   1.976   0.965  1.3737 -0.9752 -1.5208
 9416TIP3   OH249738   3.919   1.785   4.507  0.3449 -0.4456  0.1084
 9416TIP3    H149739   3.854   1.715   4.497  0.4688 -0.6270  0.5539
 9416TIP3    H249740   3.871   1.855   4.551  0.3961 -0.5024  0.2552
 9417TIP3   OH249741   4.869   2.327   4.308 -0.3539 -0.6172  0.2012
 9417TIP3    H149742   4.906   2.409   4.341  0.8221 -1.7605  1.8630
 9417TIP3    H249743   4.889   2.328   4.214 -1.0615  1.3154  0.0158
 9418TIP3   OH249744   0.926   1.965  14.028 -0.4205 -0.2087 -0.0437
 9418TIP3    H149745   0.914   1.954  14.122  1.2447 -0.7088  0.1499
 9418TIP3    H249746   0.982   2.042  14.020 -0.4924 -0.2126 -0.6137
 9419TIP3   OH249747   0.712   6.302  14.066 -0.3060  0.5655 -0.4399
 9419TIP3    H149748   0.698   6.360  13.991 -2.2306 -0.2153 -0.7521
 9419TIP3    H249749   0.675   6.218  14.039 -0.4461  0.0772  1.1514
 9420TIP3   OH249750   2.646   4.675   4.826  0.1660  0.0400  0.0091
 9420TIP3    H149751   2.687   4.721   4.753 -1.0649 -1.4598 -1.7357
 9420TIP3    H249752   2.656   4.582   4.804 -0.6019 -0.4360  1.5493
 9421TIP3   OH249753   3.827   6.109   5.429 -0.1493 -0.8167 -0.0272
 9421TIP3    H149754   3.892   6.115   5.500 -0.5069 -0.0849  0.2444
 9421TIP3    H249755   3.810   6.200   5.405 -1.0807 -1.0088 -0.1007
 9422TIP3   OH249756   6.745   1.260   3.686  0.0664  0.3278 -0.5252
 9422TIP3    H149757   6.729   1.331   3.623  0.8174  0.3412 -0.7024
 9422TIP3    H249758   6.657   1.237   3.717 -0.1868  1.4109 -0.3784
 9423TIP3   OH249759   3.259   1.476  10.717 -0.3818 -0.0781 -0.5185
 9423TIP3    H149760   3.271   1.568  10.696  2.1144 -0.1228  0.3828
 9423TIP3    H249761   3.245   1.433  10.633  1.4581  0.7809 -1.3204
 9424TIP3   OH249762   6.678   6.787  15.142  0.3177  0.3394 -0.2637
 9424TIP3    H149763   6.697   6.734  15.065  0.7388  1.9292 -1.2975
 9424TIP3    H249764   6.762   6.795  15.187  0.2261  0.0289 -0.0346
 9425TIP3   OH249765   4.423   1.868   4.435  0.2836  0.4305  0.0462
 9425TIP3    H149766   4.367   1.902   4.365 -0.7260 -2.4822 -0.7311
 9425TIP3    H249767   4.364   1.855   4.509  0.1851 -1.1778 -0.2660
 9426TIP3   OH249768   2.858   1.077  14.891 -0.4628 -0.2013  0.4139
 9426TIP3    H149769   2.901   1.150  14.847  0.9947 -1.5673 -0.5387
 9426TIP3    H249770   2.781   1.116  14.932 -0.7592  1.5429 -1.5929
 9427TIP3   OH249771   5.670   1.832  12.903  0.8023  0.3912 -0.3182
 9427TIP3    H149772   5.584   1.801  12.930  1.0967  1.4903  2.1783
 9427TIP3    H249773   5.667   1.831  12.807 -2.0298  0.5321 -0.3226
 9428TIP3   OH249774   4.272   3.734  12.194 -0.1079 -0.3282 -0.5469
 9428TIP3    H149775   4.353   3.737  12.246  0.3058 -1.9785 -1.0398
 9428TIP3    H249776   4.215   3.799  12.235  1.9744  2.0027 -1.1030
 9429TIP3   OH249777   2.939   2.217  10.188 -0.2977 -0.0276 -0.4984
 9429TIP3    H149778   2.936   2.141  10.130 -1.6736  0.5805 -1.2567
 9429TIP3    H249779   2.990   2.187  10.264 -0.2218 -1.4748 -1.0899
 9430TIP3   OH249780   0.614   4.732   0.882 -0.1300  0.0482  0.0398
 9430TIP3    H149781   0.624   4.640   0.908  0.6278 -0.0736 -0.6352
 9430TIP3    H249782   0.632   4.732   0.788 -0.6723  0.8101 -0.0723
 9431TIP3   OH249783   3.885   2.364   4.394 -0.3736  0.2756  0.1323
 9431TIP3    H149784   3.934   2.358   4.476 -2.0921 -0.6844  1.1498
 9431TIP3    H249785   3.820   2.294   4.400 -0.2215 -0.1541 -2.3018
 9432TIP3   OH249786   6.656   4.731   2.019 -0.1824  0.0957 -0.2027
 9432TIP3    H149787   6.737   4.781   2.026 -1.0993  1.4589  1.9703
 9432TIP3    H249788   6.683   4.640   2.012  1.5327  0.5570  0.1299
 9433TIP3   OH249789   2.339   4.547   0.230 -0.2512  0.2812 -0.0009
 9433TIP3    H149790   2.366   4.619   0.175  0.3937 -0.5043 -0.7314
 9433TIP3    H249791   2.353   4.468   0.177 -3.6428 -0.2437 -0.3643
 9434TIP3   OH249792   3.460   2.418  15.065  0.2085 -0.1362  0.1862
 9434TIP3    H149793   3.450   2.511  15.045 -0.1623 -0.4331 -1.1216
 9434TIP3    H249794   3.453   2.374  14.980 -3.2305 -1.6455  1.0773
 9435TIP3   OH249795   2.879   2.296  15.903 -0.0237 -0.1964  0.2325
 9435TIP3    H149796   2.883   2.261  15.992  0.6149 -0.6964  0.0132
 9435TIP3    H249797   2.960   2.346  15.892  0.7540 -1.5817 -0.6478
 9436TIP3   OH249798   3.842   4.432  15.314 -0.2556  0.5189  0.1585
 9436TIP3    H149799   3.780   4.453  15.244 -0.3951 -4.0766 -1.4246
 9436TIP3    H249800   3.928   4.454  15.277 -0.2863 -2.2169 -1.8765
 9437TIP3   OH249801   1.518   6.734  11.425  0.0025  0.1172  0.7228
 9437TIP3    H149802   1.504   6.642  11.448  0.8430  0.0197  0.8881
 9437TIP3    H249803   1.433   6.765  11.395  0.2760 -1.4491 -2.0019
 9438TIP3   OH249804   4.218   4.027   0.525 -0.3364 -0.3791 -0.6394
 9438TIP3    H149805   4.125   4.025   0.502 -0.1309  3.2405 -2.6425
 9438TIP3    H249806   4.228   4.107   0.576  1.6366 -0.9223 -0.0873
 9439TIP3   OH249807   1.352   5.809   0.148  0.3231 -0.1380  0.1288
 9439TIP3    H149808   1.337   5.721   0.182  2.8500 -0.9493 -0.6362
 9439TIP3    H249809   1.410   5.850   0.211  0.1718  0.5404 -0.1597
 9440TIP3   OH249810   0.341   5.123  14.176  0.7621  0.1923  0.0810
 9440TIP3    H149811   0.370   5.127  14.085  0.3834  0.1435 -0.0432
 9440TIP3    H249812   0.247   5.107  14.171  1.0242 -1.7175  0.4752
 9441TIP3   OH249813   3.946   5.508   6.702  0.8072  0.4767  0.1568
 9441TIP3    H149814   3.915   5.426   6.665  0.8551  0.3356  0.4305
 9441TIP3    H249815   3.877   5.571   6.682 -0.5424 -0.2161  2.3299
 9442TIP3   OH249816   4.815   1.171   1.535 -0.1121 -0.1162  0.1799
 9442TIP3    H149817   4.899   1.191   1.496 -0.1977  1.4252  0.7126
 9442TIP3    H249818   4.805   1.076   1.524  1.3505 -0.2139 -0.5154
 9443TIP3   OH249819   1.785   2.137   1.374  0.2589 -0.4168  0.0065
 9443TIP3    H149820   1.878   2.116   1.365  0.1440 -0.0502 -2.9056
 9443TIP3    H249821   1.743   2.053   1.394  1.3117 -0.3034  3.2643
 9444TIP3   OH249822   5.823   0.726  13.558  1.1152  0.1593 -0.6474
 9444TIP3    H149823   5.754   0.738  13.623  0.5985 -0.0398 -1.1502
 9444TIP3    H249824   5.883   0.799  13.574  0.4491  0.7178 -0.6211
 9445TIP3   OH249825   2.612   5.476  15.906  0.0278  0.4803  0.5039
 9445TIP3    H149826   2.705   5.466  15.923 -0.2352  0.4299  2.1318
 9445TIP3    H249827   2.574   5.495  15.992 -1.4806  0.3492 -0.0980
 9446TIP3   OH249828   6.297   5.701  17.098 -0.1430 -0.3984  0.0472
 9446TIP3    H149829   6.243   5.774  17.129  0.0281 -0.8627  1.5206
 9446TIP3    H249830   6.364   5.742  17.042 -1.9329  0.1940 -1.7779
 9447TIP3   OH249831   0.629   2.358   2.800 -0.3255 -0.2983 -0.4197
 9447TIP3    H149832   0.670   2.403   2.874 -0.8380 -1.9302  0.9021
 9447TIP3    H249833   0.703   2.325   2.748  0.1565  3.3102 -2.3925
 9448TIP3   OH249834   3.399   4.640  15.412  0.1122  0.5925 -0.4532
 9448TIP3    H149835   3.340   4.564  15.420  1.0034 -0.3175 -2.0199
 9448TIP3    H249836   3.396   4.681  15.498 -3.1489  0.8664 -0.5415
 9449TIP3   OH249837   3.230   1.543   1.801  0.2141  0.1149 -0.0390
 9449TIP3    H149838   3.167   1.472   1.809 -0.3004  0.2713 -2.0468
 9449TIP3    H249839   3.258   1.561   1.890 -0.1951 -2.0958  0.6004
 9450TIP3   OH249840   4.258   1.318   1.929 -0.1902  0.4475 -0.3140
 9450TIP3    H149841   4.279   1.399   1.975 -0.7207  0.7823 -0.6467
 9450TIP3    H249842   4.163   1.323   1.915 -0.0204  0.4222 -1.5725
 9451TIP3   OH249843   1.817   5.067   3.600 -0.2943  0.0436  0.2550
 9451TIP3    H149844   1.790   5.027   3.517  3.0146  0.2174 -1.0223
 9451TIP3    H249845   1.748   5.042   3.661 -0.4417 -4.3364 -1.3351
 9452TIP3   OH249846   6.326   0.017   2.313 -0.0923 -0.0547 -0.7810
 9452TIP3    H149847   6.280  -0.040   2.251 -2.4141  1.8568 -0.9450
 9452TIP3    H249848   6.352  -0.042   2.384 -1.9646 -1.4260 -1.1493
 9453TIP3   OH249849   5.220   2.145  12.265  0.1778  0.0447 -0.2729
 9453TIP3    H149850   5.174   2.221  12.228  0.9234 -0.6405 -2.8588
 9453TIP3    H249851   5.296   2.134  12.207  1.4000 -1.2589  1.4777
 9454TIP3   OH249852   3.084   1.058  10.607  0.4995 -0.3568  0.2087
 9454TIP3    H149853   3.116   1.133  10.656 -0.6402  1.4311 -1.6033
 9454TIP3    H249854   2.988   1.067  10.610  0.3766  0.3135 -2.8972
 9455TIP3   OH249855   2.237   0.283  16.687 -0.0276 -0.0078 -0.1517
 9455TIP3    H149856   2.142   0.285  16.673 -0.1250 -1.7359  0.0173
 9455TIP3    H249857   2.270   0.360  16.642 -1.4014  0.0271 -1.1527
 9456TIP3   OH249858   4.051   6.719   6.462  0.4357 -0.2074 -0.7086
 9456TIP3    H149859   4.087   6.800   6.498  0.7545 -0.5667 -0.2113
 9456TIP3    H249860   3.997   6.683   6.533  0.7821 -0.7403 -0.7125
 9457TIP3   OH249861   1.212   0.735  14.758  0.1852  0.0679 -0.0017
 9457TIP3    H149862   1.188   0.665  14.696  1.6396 -0.2605 -0.2175
 9457TIP3    H249863   1.303   0.717  14.781  0.5780  1.8530 -0.0118
 9458TIP3   OH249864   2.482   4.183   5.418  0.3321  0.4257  0.0175
 9458TIP3    H149865   2.419   4.186   5.346  0.8717 -0.1537 -0.4948
 9458TIP3    H249866   2.544   4.115   5.392 -0.3091 -0.8629  1.7341
 9459TIP3   OH249867   3.345   2.257   3.091 -0.1148  0.0702  0.1117
 9459TIP3    H149868   3.343   2.352   3.099 -1.7596  0.1081 -0.2967
 9459TIP3    H249869   3.437   2.236   3.077  0.2251  1.6365 -0.2286
 9460TIP3   OH249870   6.166   1.527   5.729 -0.1728  0.1735  0.0785
 9460TIP3    H149871   6.101   1.489   5.788  0.4970 -0.8695  0.1639
 9460TIP3    H249872   6.186   1.457   5.666  0.8481  0.4844  0.0431
 9461TIP3   OH249873   1.878   0.947   5.795  0.4541  0.1837 -0.2234
 9461TIP3    H149874   1.878   0.915   5.705  1.5901  0.6287 -0.3969
 9461TIP3    H249875   1.964   0.921   5.830  0.7038  1.4793  0.1834
 9462TIP3   OH249876   1.449   2.704  11.959  0.6677  0.2341 -0.0705
 9462TIP3    H149877   1.478   2.716  11.868 -1.0815  0.9199 -0.5783
 9462TIP3    H249878   1.444   2.610  11.971  1.1020  0.1361 -0.6123
 9463TIP3   OH249879   0.589   6.119  16.480  0.1060  0.6392  0.0394
 9463TIP3    H149880   0.600   6.033  16.519 -0.9211  0.7750  0.6633
 9463TIP3    H249881   0.499   6.144  16.501 -0.6924  0.5227 -2.8085
 9464TIP3   OH249882   4.602   4.220  11.260  0.2493  0.2275 -0.1654
 9464TIP3    H149883   4.650   4.303  11.255  0.8180 -0.1589 -1.8459
 9464TIP3    H249884   4.531   4.229  11.197 -1.1462  0.2983  1.3673
 9465TIP3   OH249885   2.066   4.655   6.332  0.1279  0.2491  0.3659
 9465TIP3    H149886   2.092   4.579   6.385  0.8769 -1.8881 -2.7889
 9465TIP3    H249887   1.994   4.694   6.380 -0.4933 -2.6534  2.0309
 9466TIP3   OH249888   2.462   2.297   2.278  0.5003  0.0062  0.4871
 9466TIP3    H149889   2.427   2.315   2.365  0.0680  0.4078  0.2414
 9466TIP3    H249890   2.403   2.231   2.242 -0.6855  1.4342 -0.3221
 9467TIP3   OH249891   5.939   0.502   3.282  0.3658 -0.2806  0.5543
 9467TIP3    H149892   5.956   0.542   3.196  0.9452 -0.6490  0.4911
 9467TIP3    H249893   5.873   0.435   3.264 -1.7105  1.5685  0.9029
 9468TIP3   OH249894   2.221   5.921   4.578 -0.5648  0.1904  0.4694
 9468TIP3    H149895   2.288   5.980   4.542 -1.4453  0.9214 -0.0437
 9468TIP3    H249896   2.265   5.873   4.647  1.0382 -0.7861 -1.1352
 9469TIP3   OH249897   6.544   1.311  16.391  0.3033 -0.3411 -0.5167
 9469TIP3    H149898   6.575   1.253  16.460 -0.2736  2.1221  2.0305
 9469TIP3    H249899   6.621   1.364  16.368 -0.3422  1.3769  1.0672
 9470TIP3   OH249900   3.563   1.473  16.289  0.4267 -0.5776 -0.2422
 9470TIP3    H149901   3.619   1.397  16.272  1.7558  0.3220  0.0231
 9470TIP3    H249902   3.622   1.548  16.284 -0.7812  0.4090 -0.0282
 9471TIP3   OH249903   5.328   0.915   3.882 -0.3719 -0.1548 -0.7401
 9471TIP3    H149904   5.407   0.867   3.905  0.6482  2.4054  1.8080
 9471TIP3    H249905   5.258   0.870   3.929  0.3390  0.0444  0.5562
 9472TIP3   OH249906   5.606   6.726  10.811  0.3182 -0.7055 -0.4339
 9472TIP3    H149907   5.692   6.767  10.813 -0.2183  0.5609 -1.6680
 9472TIP3    H249908   5.603   6.681  10.727 -0.9593  1.0382 -1.3999
 9473TIP3   OH249909   4.466   2.025  13.531 -0.0663  0.0283 -0.0891
 9473TIP3    H149910   4.560   2.041  13.535  0.0748 -0.3644 -1.2930
 9473TIP3    H249911   4.428   2.085  13.596  1.0535 -0.2645  0.8595
 9474TIP3   OH249912   4.218   0.616   1.388 -0.6709  0.2799 -0.4761
 9474TIP3    H149913   4.283   0.606   1.457 -2.0121 -0.3247  0.7396
 9474TIP3    H249914   4.207   0.527   1.353 -1.7306  0.1426  0.1778
 9475TIP3   OH249915   4.861   1.562  14.527 -0.2434 -0.0581 -0.5974
 9475TIP3    H149916   4.836   1.589  14.439 -1.1409  0.7521 -0.1178
 9475TIP3    H249917   4.819   1.477  14.539 -2.5919  1.0821  0.0327
 9476TIP3   OH249918   5.255   6.320   0.419 -0.2131  0.1138 -0.3085
 9476TIP3    H149919   5.170   6.363   0.426 -0.4589 -0.4924  0.7757
 9476TIP3    H249920   5.238   6.240   0.369  0.5273  1.8873 -3.6661
 9477TIP3   OH249921   1.464   0.996   0.366  0.7000  0.1616 -0.0709
 9477TIP3    H149922   1.397   0.929   0.376  2.0892 -1.4394 -0.9913
 9477TIP3    H249923   1.481   1.026   0.455  2.7970 -3.5556  0.9859
 9478TIP3   OH249924   0.390   6.604   0.112 -0.6145  0.0815  0.4540
 9478TIP3    H149925   0.331   6.560   0.174  0.1642  2.1044  2.8055
 9478TIP3    H249926   0.366   6.696   0.118 -0.9897  0.3222 -2.9675
 9479TIP3   OH249927   6.570   2.543  14.599 -0.1813 -0.5148 -0.3869
 9479TIP3    H149928   6.475   2.528  14.600 -0.1560 -0.8042  1.3093
 9479TIP3    H249929   6.579   2.638  14.599 -0.5746 -0.3869  2.2118
 9480TIP3   OH249930   5.509   5.026  16.252 -0.1424  0.1596 -0.0966
 9480TIP3    H149931   5.604   5.033  16.262 -0.3244  1.1401  1.1129
 9480TIP3    H249932   5.498   4.965  16.179  1.3736 -2.2823  1.5676
 9481TIP3   OH249933   1.627   1.567  16.149  0.0191 -0.0782 -0.0479
 9481TIP3    H149934   1.541   1.549  16.112 -0.1920 -1.4480  1.0141
 9481TIP3    H249935   1.623   1.658  16.178 -1.4061 -0.3956  0.8223
 9482TIP3   OH249936   1.570   4.527  16.104  0.5357 -0.2184  0.0274
 9482TIP3    H149937   1.557   4.595  16.171  0.7899 -0.2338  0.0924
 9482TIP3    H249938   1.520   4.558  16.029  0.8705  0.1789 -0.0370
 9483TIP3   OH249939   3.024   4.274  16.753 -0.6673  0.3751 -0.3024
 9483TIP3    H149940   2.958   4.255  16.820 -0.6834 -0.0895 -0.4457
 9483TIP3    H249941   2.979   4.256  16.670 -0.0305 -1.0131 -0.3660
 9484TIP3   OH249942   1.981   4.400   2.323 -0.1570  0.0967 -0.0520
 9484TIP3    H149943   1.947   4.474   2.273 -0.5240 -0.0848 -0.0688
 9484TIP3    H249944   1.904   4.359   2.362  0.1683  0.6066  1.1863
 9485TIP3   OH249945   2.031   1.820  14.088  0.8509  0.2633 -0.0558
 9485TIP3    H149946   2.122   1.823  14.057  0.9210  0.4128  0.1555
 9485TIP3    H249947   2.003   1.912  14.085  1.0267  0.3532  0.7972
 9486TIP3   OH249948   4.382   3.766   5.706 -0.2376 -0.2692 -0.2095
 9486TIP3    H149949   4.358   3.813   5.626  1.9105  2.6090  0.6579
 9486TIP3    H249950   4.300   3.726   5.736 -1.6447  0.7064 -2.4807
 9487TIP3   OH249951   2.595   5.107  16.453 -0.1899 -0.0710 -0.1417
 9487TIP3    H149952   2.511   5.066  16.476 -1.0652  1.3821 -0.6227
 9487TIP3    H249953   2.644   5.107  16.535 -1.1497  0.1732  0.4521
 9488TIP3   OH249954   2.440   3.503  11.970 -0.3984 -0.3373 -0.0211
 9488TIP3    H149955   2.378   3.575  11.960 -0.7074 -0.6048 -0.0445
 9488TIP3    H249956   2.517   3.530  11.920  0.4921  1.1065  2.0144
 9489TIP3   OH249957   3.518   4.026   4.856  0.2428  0.3130  0.2245
 9489TIP3    H149958   3.588   4.021   4.921 -1.5371 -0.8034  2.2043
 9489TIP3    H249959   3.475   4.110   4.874 -0.1380  0.0867  0.3971
 9490TIP3   OH249960   1.323   1.445   0.785  0.2566 -0.0456 -0.7141
 9490TIP3    H149961   1.411   1.421   0.814 -0.3405  0.4394  1.7193
 9490TIP3    H249962   1.323   1.541   0.786 -0.0642 -0.0289 -1.5294
 9491TIP3   OH249963   4.788   3.064   2.043  0.4322  0.4014 -0.5591
 9491TIP3    H149964   4.761   3.003   2.111  0.7708  0.8744  0.0098
 9491TIP3    H249965   4.720   3.057   1.976 -0.7030  1.0015  0.4804
 9492TIP3   OH249966   1.988   3.225   1.085 -0.4413 -0.2047  0.9550
 9492TIP3    H149967   1.987   3.295   1.149  1.6919  0.6598  0.1645
 9492TIP3    H249968   2.081   3.204   1.075 -0.6345 -0.0335 -2.0825
 9493TIP3   OH249969   2.398   0.271  16.013  0.2543 -0.6727  0.3543
 9493TIP3    H149970   2.409   0.179  16.037 -0.3820 -0.9856 -0.5103
 9493TIP3    H249971   2.308   0.277  15.982  0.3214  0.2290  0.3010
 9494TIP3   OH249972   0.292   6.068   4.589  0.2772  0.3960 -0.2120
 9494TIP3    H149973   0.354   5.996   4.579 -0.1629  0.2351 -2.2711
 9494TIP3    H249974   0.336   6.144   4.552 -0.9406  0.1071 -2.4917
 9495TIP3   OH249975   0.715   6.232  15.094 -0.0787 -0.6468  0.8262
 9495TIP3    H149976   0.690   6.141  15.111  1.5773 -1.2876  0.1079
 9495TIP3    H249977   0.811   6.229  15.084  0.0904  1.2693  1.3516
 9496TIP3   OH249978   5.991   0.746  14.593 -0.0483 -0.4859 -0.1890
 9496TIP3    H149979   6.034   0.701  14.665  1.3060  2.9424  1.3565
 9496TIP3    H249980   5.900   0.756  14.622 -0.1150 -1.2726 -0.1070
 9497TIP3   OH249981   5.622   3.363   3.939  0.7035  0.0454  0.2155
 9497TIP3    H149982   5.580   3.400   4.016  1.0088 -0.1908  0.4959
 9497TIP3    H249983   5.714   3.353   3.964  0.6521 -0.7712  0.0988
 9498TIP3   OH249984   3.864   5.680  15.212 -0.3657  0.0209 -0.4777
 9498TIP3    H149985   3.783   5.698  15.163 -0.5246 -0.4616 -0.3954
 9498TIP3    H249986   3.896   5.597  15.176  0.1137  0.2275 -0.5323
 9499TIP3   OH249987   6.036   2.562  13.771  0.0363  0.2198  0.4623
 9499TIP3    H149988   6.107   2.501  13.790 -0.3725  0.2283  2.1228
 9499TIP3    H249989   6.079   2.644  13.747  0.5725 -0.1462  0.1495
 9500TIP3   OH249990   1.836   4.291  14.374 -0.2205 -0.2095 -0.7418
 9500TIP3    H149991   1.848   4.240  14.455 -2.1729 -0.4850 -0.5833
 9500TIP3    H249992   1.810   4.378  14.404  2.3777  0.7596 -1.0375
 9501TIP3   OH249993   3.537   0.622   5.518  0.1292  0.0393  0.0155
 9501TIP3    H149994   3.513   0.714   5.503 -0.6173 -0.0746  0.4622
 9501TIP3    H249995   3.543   0.614   5.613 -1.7831 -0.8317  0.1115
 9502TIP3   OH249996   6.430   0.112  15.768 -0.7564 -0.8582  0.3506
 9502TIP3    H149997   6.351   0.079  15.810 -1.6226  1.5520  0.8111
 9502TIP3    H249998   6.401   0.140  15.681 -0.5906  0.5706  0.7277
 9503TIP3   OH249999   1.286   4.501   0.197  0.1076 -0.3258 -0.1829
 9503TIP3    H150000   1.253   4.465   0.279  0.2401 -0.8684 -0.3698
 9503TIP3    H250001   1.209   4.513   0.143  0.1756 -1.3463 -0.5212
 9504TIP3   OH250002   2.545   5.799  14.351 -0.0401  0.3624  0.6844
 9504TIP3    H150003   2.557   5.778  14.444  0.6413  0.9201  0.7354
 9504TIP3    H250004   2.486   5.732  14.318  0.4743 -0.4108  1.3038
 9505TIP3   OH250005   6.506   5.429   6.551  0.0335 -0.1478 -0.1298
 9505TIP3    H150006   6.541   5.483   6.623 -0.4961  0.0029  0.0209
 9505TIP3    H250007   6.565   5.445   6.478 -0.9204  1.7980 -0.5405
 9506TIP3   OH250008   4.651   1.404  13.356 -0.1640 -0.0413  0.1425
 9506TIP3    H150009   4.645   1.425  13.262  0.2376 -0.4540  0.0221
 9506TIP3    H250010   4.621   1.483  13.400  0.4215  0.4540 -0.3241
 9507TIP3   OH250011   0.350   3.336   5.196 -0.2908  0.1300  0.5029
 9507TIP3    H150012   0.305   3.401   5.251 -0.7943 -0.9660  1.4178
 9507TIP3    H250013   0.281   3.276   5.168  0.2547 -0.3117  0.0861
 9508TIP3   OH250014   6.504   4.485   1.598 -0.4330  0.3145  0.0886
 9508TIP3    H150015   6.531   4.394   1.604 -2.8945 -0.8284 -3.0742
 9508TIP3    H250016   6.561   4.523   1.531 -1.8156 -0.0782 -1.3754
 9509TIP3   OH250017   0.641   1.597  12.025  0.1072 -0.1466  0.2986
 9509TIP3    H150018   0.565   1.583  11.968  0.0821 -0.6759  0.4497
 9509TIP3    H250019   0.632   1.530  12.094  0.1300  0.4863  0.9326
 9510TIP3   OH250020   4.396   5.768  12.527 -0.6937  0.4761 -0.5071
 9510TIP3    H150021   4.485   5.753  12.558 -0.9454 -3.8329 -1.2474
 9510TIP3    H250022   4.340   5.733  12.596 -1.7178  0.6745 -1.2028
 9511TIP3   OH250023   6.286   1.442  15.988 -0.2622 -0.2236  0.3355
 9511TIP3    H150024   6.214   1.501  15.965 -0.7892 -1.1405 -0.3947
 9511TIP3    H250025   6.247   1.355  15.991  1.3344 -1.2376 -3.1319
 9512TIP3   OH250026   0.757   6.366   0.195  0.5315 -0.2764  0.1573
 9512TIP3    H150027   0.741   6.444   0.249  1.3919 -0.5100  0.7680
 9512TIP3    H250028   0.821   6.315   0.245 -2.4188 -3.0495  1.5145
 9513TIP3   OH250029   2.411   3.096  12.923 -0.2103  0.3223  0.7858
 9513TIP3    H150030   2.461   3.136  12.852 -2.0263  1.3135 -0.0213
 9513TIP3    H250031   2.409   3.163  12.992 -1.1160  0.6589  0.4546
 9514TIP3   OH250032   5.351   6.191  16.340 -0.0382 -0.1645  0.2600
 9514TIP3    H150033   5.405   6.154  16.409 -0.5286 -0.9904  0.2080
 9514TIP3    H250034   5.264   6.198  16.378 -0.1520  0.0778 -0.0368
 9515TIP3   OH250035   0.168   2.402   2.996  0.5911 -0.0399 -0.5540
 9515TIP3    H150036   0.154   2.495   2.983 -1.1446 -0.0566  0.8500
 9515TIP3    H250037   0.230   2.397   3.069 -2.2159  0.1287  2.0459
 9516TIP3   OH250038   1.084   3.237   0.958  0.0708 -0.0328  0.0064
 9516TIP3    H150039   1.103   3.146   0.981  1.6226  0.8757  2.6689
 9516TIP3    H250040   1.162   3.268   0.913 -0.0784  0.2522 -0.0608
 9517TIP3   OH250041   2.570   6.130  13.365  0.3605  0.0848  0.0732
 9517TIP3    H150042   2.475   6.128  13.356  0.4388 -1.4946 -0.7560
 9517TIP3    H250043   2.597   6.211  13.321 -0.3853 -1.0009 -2.5419
 9518TIP3   OH250044   3.189   3.886  12.808  0.0853 -0.2889  0.9893
 9518TIP3    H150045   3.169   3.975  12.777  0.3347 -0.1722  1.1561
 9518TIP3    H250046   3.113   3.834  12.784 -0.2027  0.0405  1.1833
 9519TIP3   OH250047   2.149   4.659   1.300  0.0269  0.2255  0.0237
 9519TIP3    H150048   2.205   4.731   1.329  0.1909  0.1996 -0.2196
 9519TIP3    H250049   2.101   4.694   1.225 -0.3449  0.2739  0.2888
 9520TIP3   OH250050   4.942   6.506   4.134  0.5121 -0.4436  0.4164
 9520TIP3    H150051   4.965   6.456   4.056  0.6679  0.6475 -0.2559
 9520TIP3    H250052   5.025   6.539   4.168  0.4015 -0.5395  0.7916
 9521TIP3   OH250053   0.501   4.535  11.594  0.2978  0.0414  0.2342
 9521TIP3    H150054   0.589   4.504  11.574  0.4112 -0.8685  1.9731
 9521TIP3    H250055   0.449   4.455  11.603 -0.7222  0.5606 -0.6842
 9522TIP3   OH250056   2.193   2.320   3.598 -0.1063  0.3111 -0.1360
 9522TIP3    H150057   2.144   2.286   3.524  0.4570 -0.7534 -0.0381
 9522TIP3    H250058   2.202   2.246   3.658  1.8482  0.3742 -0.2777
 9523TIP3   OH250059   5.056   6.377  12.749  0.2016 -0.2136 -0.6180
 9523TIP3    H150060   4.983   6.424  12.709 -0.9557 -0.2375  1.3626
 9523TIP3    H250061   5.096   6.441  12.808 -0.2620 -1.1427  0.7349
 9524TIP3   OH250062   3.159   4.805   3.301 -0.4594 -0.7282  0.2477
 9524TIP3    H150063   3.174   4.887   3.256  1.7467 -1.3552 -0.2722
 9524TIP3    H250064   3.246   4.771   3.320 -1.3006 -2.1431  1.9676
 9525TIP3   OH250065   5.733   2.658   1.553  0.1860  0.2331 -0.1757
 9525TIP3    H150066   5.720   2.621   1.641  0.3787 -1.4150 -0.8072
 9525TIP3    H250067   5.709   2.587   1.494  2.0588  0.6052 -1.4439
 9526TIP3   OH250068   1.965   5.011  12.679  0.2111  1.0948  0.3905
 9526TIP3    H150069   1.921   4.933  12.644  2.8462  0.2248 -1.2388
 9526TIP3    H250070   1.936   5.016  12.770 -0.6625 -1.3324  0.3129
 9527TIP3   OH250071   3.390   6.814   5.404  0.1735 -0.2238 -0.4828
 9527TIP3    H150072   3.327   6.767   5.459 -0.8683 -1.0046 -2.2425
 9527TIP3    H250073   3.439   6.869   5.465 -2.1856  0.3990  0.9975
 9528TIP3   OH250074   4.990   3.908  16.613 -0.0818  0.3143  0.2024
 9528TIP3    H150075   5.032   3.937  16.694  0.7081 -1.5345  0.5091
 9528TIP3    H250076   4.896   3.915  16.630  0.0733 -0.0155  1.2805
 9529TIP3   OH250077   5.653   5.153  13.178  0.0818  0.2931 -0.3917
 9529TIP3    H150078   5.575   5.133  13.230  2.1740 -0.2867  2.8150
 9529TIP3    H250079   5.718   5.090  13.208  2.5582  2.4175 -0.9764
 9530TIP3   OH250080   6.813   1.506   5.263 -0.4054  0.2928  0.1138
 9530TIP3    H150081   6.871   1.468   5.197 -0.4272 -0.4543  0.5141
 9530TIP3    H250082   6.853   1.590   5.285  0.9661 -0.5342  0.9327
 9531TIP3   OH250083   5.370   2.596   3.240  0.0964 -0.5498 -0.1343
 9531TIP3    H150084   5.435   2.539   3.198 -0.2723 -0.0645 -1.4078
 9531TIP3    H250085   5.381   2.681   3.196  0.1705  0.1997  1.2546
 9532TIP3   OH250086   1.907   4.151  15.641  0.0869 -0.0435  0.9555
 9532TIP3    H150087   1.830   4.162  15.586  1.2122  0.9395 -0.5089
 9532TIP3    H250088   1.874   4.116  15.723 -1.6364 -1.9107 -0.4458
 9533TIP3   OH250089   0.503   3.083  16.841  0.1516 -0.0468  0.1463
 9533TIP3    H150090   0.486   3.149  16.775 -0.6328 -0.1827  0.2030
 9533TIP3    H250091   0.422   3.032  16.845  0.4117 -0.4189  0.7714
 9534TIP3   OH250092   0.711   0.310  16.799 -0.0896  0.0136 -0.1079
 9534TIP3    H150093   0.620   0.334  16.813  0.2971 -0.2270  3.9002
 9534TIP3    H250094   0.708   0.232  16.743 -2.1865  0.7894 -1.1605
 9535TIP3   OH250095   1.420   5.075   4.062 -0.6654 -0.3364  0.4954
 9535TIP3    H150096   1.355   5.020   4.106 -1.3664 -1.8320 -2.2383
 9535TIP3    H250097   1.501   5.025   4.066 -0.9820 -0.9843 -0.7834
 9536TIP3   OH250098   2.323   1.824   2.706 -0.3675 -0.2849 -1.0045
 9536TIP3    H150099   2.347   1.791   2.792 -1.8295  0.5688 -0.2163
 9536TIP3    H250100   2.406   1.842   2.662  0.4015 -1.1994  0.0273
 9537TIP3   OH250101   5.162   3.071   6.407 -0.3859  0.1426  0.1557
 9537TIP3    H150102   5.200   3.026   6.482  0.8728 -0.4377 -0.7749
 9537TIP3    H250103   5.118   3.003   6.357  0.5614  0.1151 -0.6784
 9538TIP3   OH250104   4.466   4.591   1.741  0.0192  0.3527  0.1309
 9538TIP3    H150105   4.550   4.564   1.704 -0.4092 -1.4952  0.4057
 9538TIP3    H250106   4.412   4.613   1.665  0.2547 -0.0227 -0.1486
 9539TIP3   OH250107   3.351   0.613  13.451  0.1224 -0.1472 -0.0297
 9539TIP3    H150108   3.338   0.539  13.511 -0.6364 -0.6520 -0.7879
 9539TIP3    H250109   3.357   0.573  13.365  2.0655  0.5009 -0.2368
 9540TIP3   OH250110   4.359   4.377  12.608  0.5044  0.1268  0.0811
 9540TIP3    H150111   4.432   4.407  12.554  1.1327 -1.7509 -0.1930
 9540TIP3    H250112   4.388   4.395  12.698  0.9167  0.2332 -0.0696
 9541TIP3   OH250113   0.623   6.070   5.259 -0.3179  0.0069  0.6547
 9541TIP3    H150114   0.615   6.032   5.171 -1.2795 -0.0527  0.7566
 9541TIP3    H250115   0.537   6.057   5.298 -0.6780  2.2344  0.7250
 9542TIP3   OH250116   1.933   0.498   2.286 -0.0503 -0.0590  0.2592
 9542TIP3    H150117   1.937   0.420   2.341  1.0639  0.6053  1.1682
 9542TIP3    H250118   2.006   0.553   2.317 -1.2322  1.6601  0.1181
 9543TIP3   OH250119   4.977   2.995  12.336  0.0547 -0.5204  0.1466
 9543TIP3    H150120   4.983   2.981  12.241  2.1577 -0.9501  0.2930
 9543TIP3    H250121   5.059   3.039  12.359 -0.0863 -1.0825  1.8815
 9544TIP3   OH250122   5.217   4.516  12.434 -0.2916  0.3926  0.1070
 9544TIP3    H150123   5.235   4.610  12.430 -0.9293  0.5017 -0.4783
 9544TIP3    H250124   5.221   4.495  12.527  1.3448  0.6919  0.1210
 9545TIP3   OH250125   3.948   3.354   0.963 -0.7007  0.3139  0.4098
 9545TIP3    H150126   3.881   3.293   0.933 -0.6891  0.7948 -0.6725
 9545TIP3    H250127   3.980   3.395   0.882 -0.0598  1.0691  1.0299
 9546TIP3   OH250128   4.113   5.335   5.866  0.0587 -0.1556  0.1287
 9546TIP3    H150129   4.066   5.317   5.948  0.6262  0.5300  0.6194
 9546TIP3    H250130   4.205   5.337   5.891  0.2422 -0.0142 -0.5416
 9547TIP3   OH250131   2.197   1.651  13.411  0.2265 -0.5719 -0.3278
 9547TIP3    H150132   2.266   1.661  13.476  0.0730  0.0022 -0.2481
 9547TIP3    H250133   2.129   1.601  13.456 -0.4766  0.9946  0.4341
 9548TIP3   OH250134   2.769   2.309  10.524 -0.4510  0.2462  0.3634
 9548TIP3    H150135   2.747   2.358  10.446 -1.3489  0.8786  0.9977
 9548TIP3    H250136   2.754   2.218  10.500 -1.9997  0.5191  0.1869
 9549TIP3   OH250137   5.671   2.751  13.591  0.1559  0.2523  0.5037
 9549TIP3    H150138   5.738   2.744  13.659 -0.4896 -1.1193  1.0399
 9549TIP3    H250139   5.681   2.672  13.538  0.2048  0.9705 -0.5996
 9550TIP3   OH250140   3.817   4.997   1.657 -0.8474  0.2307 -0.7914
 9550TIP3    H150141   3.740   5.052   1.677 -0.2464  1.0680 -0.7197
 9550TIP3    H250142   3.876   5.012   1.730 -1.0217 -1.2085 -0.3407
 9551TIP3   OH250143   5.025   0.226  12.784 -0.0684  0.5127 -0.1429
 9551TIP3    H150144   5.108   0.255  12.747  0.0400 -0.5820 -0.7761
 9551TIP3    H250145   5.047   0.199  12.873  0.5465 -1.0854 -0.7506
 9552TIP3   OH250146   1.084   2.520  13.386 -0.1079 -0.2408 -0.2895
 9552TIP3    H150147   1.160   2.487  13.338  1.4464 -0.1771  1.9312
 9552TIP3    H250148   1.061   2.448  13.446  0.6291  1.0780  1.6568
 9553TIP3   OH250149   0.526   0.708   4.887  0.1728  0.1775 -0.6269
 9553TIP3    H150150   0.556   0.772   4.822  2.5961  0.5582  0.6964
 9553TIP3    H250151   0.467   0.758   4.944  0.8770  0.8825 -0.4823
 9554TIP3   OH250152   4.209   3.424   1.196  0.1212  0.0308  0.0772
 9554TIP3    H150153   4.239   3.335   1.174 -1.1725 -0.4884  0.3057
 9554TIP3    H250154   4.200   3.423   1.291 -1.2991 -0.0823 -0.0405
 9555TIP3   OH250155   0.638   3.774  11.719 -0.4604  0.1512 -0.0442
 9555TIP3    H150156   0.619   3.865  11.739 -0.2066 -0.1775  1.9646
 9555TIP3    H250157   0.585   3.724  11.782  0.8049 -1.0178  0.1442
 9556TIP3   OH250158   4.140   0.120  13.215  0.1384  0.3827  0.3904
 9556TIP3    H150159   4.070   0.168  13.259  0.1159  1.0811 -0.3718
 9556TIP3    H250160   4.096   0.065  13.151  0.1717 -0.6088  1.2026
 9557TIP3   OH250161   3.879   1.062  13.541  0.4242 -0.2939 -0.4808
 9557TIP3    H150162   3.805   1.108  13.500  0.1750 -0.9043 -0.7200
 9557TIP3    H250163   3.870   1.080  13.634  0.2881  0.0802 -0.5614
 9558TIP3   OH250164   4.920   5.177  11.223 -0.2160  0.2944  0.5086
 9558TIP3    H150165   5.011   5.176  11.251  0.0908  0.2254 -0.4725
 9558TIP3    H250166   4.873   5.213  11.298  0.5308 -0.2457  1.2580
 9559TIP3   OH250167   1.120   1.652  15.697  0.1370 -0.1568 -0.2580
 9559TIP3    H150168   1.191   1.690  15.748  0.2246 -0.1990 -0.3477
 9559TIP3    H250169   1.050   1.717  15.701  0.0945 -0.2199  0.0295
 9560TIP3   OH250170   3.862   2.421   3.064  0.2870 -0.0313  0.0039
 9560TIP3    H150171   3.871   2.435   3.159 -2.5255  0.2742  0.3157
 9560TIP3    H250172   3.769   2.405   3.051  0.5062  0.4622 -2.8115
 9561TIP3   OH250173   5.044   4.339   3.377 -0.3352 -0.0789  0.5742
 9561TIP3    H150174   4.951   4.326   3.392 -1.2473  2.5650 -1.8389
 9561TIP3    H250175   5.081   4.355   3.464 -1.4730 -3.8121  1.9461
 9562TIP3   OH250176   1.585   3.852  16.181 -0.3377 -0.0281  0.5607
 9562TIP3    H150177   1.646   3.780  16.196 -0.6274 -0.9311 -2.1196
 9562TIP3    H250178   1.613   3.892  16.099 -1.4665  1.5874  0.9051
 9563TIP3   OH250179   1.740   4.850   2.835  0.1570 -0.2163  0.3087
 9563TIP3    H150180   1.798   4.805   2.775  1.3136  1.1961  0.3145
 9563TIP3    H250181   1.717   4.932   2.791 -2.2000 -0.8882  0.1267
 9564TIP3   OH250182   0.267   2.216  16.841 -0.6927 -0.0342  0.1848
 9564TIP3    H150183   0.347   2.261  16.867  0.4756 -0.7860 -1.8662
 9564TIP3    H250184   0.287   2.123  16.855 -1.2641 -0.2199 -0.2198
 9565TIP3   OH250185   5.027   0.513   1.921 -0.1752 -0.1353  0.2826
 9565TIP3    H150186   5.006   0.597   1.881 -1.1645 -0.6528 -0.3449
 9565TIP3    H250187   5.121   0.502   1.909 -0.0328  0.8848  0.4028
 9566TIP3   OH250188   5.458   3.122   3.155 -0.5359  0.2269  0.1655
 9566TIP3    H150189   5.419   3.197   3.110 -2.3509 -0.5540  0.3269
 9566TIP3    H250190   5.511   3.079   3.088  1.6927  2.3436  0.4142
 9567TIP3   OH250191   3.323   2.043  14.343  0.1556  0.0909  0.5650
 9567TIP3    H150192   3.416   2.021  14.353 -0.1683 -1.8164 -0.0872
 9567TIP3    H250193   3.322   2.120  14.286  1.3305 -0.1422  0.2005
 9568TIP3   OH250194   3.094   3.194   3.535  0.0151 -0.5430  0.5372
 9568TIP3    H150195   3.149   3.226   3.463 -1.3334  0.9301  0.0875
 9568TIP3    H250196   3.142   3.220   3.614  2.3498 -3.6467  0.3165
 9569TIP3   OH250197   0.735   2.941   3.738 -0.4965 -0.3051  0.4255
 9569TIP3    H150198   0.687   2.908   3.814 -1.3149 -1.3108 -0.4925
 9569TIP3    H250199   0.754   2.863   3.686 -0.4325  0.4264 -0.6751
 9570TIP3   OH250200   3.621   4.493   1.791  0.3698  0.2245  0.1720
 9570TIP3    H150201   3.597   4.530   1.877  1.4810  0.7124  0.2884
 9570TIP3    H250202   3.653   4.568   1.742  1.3969 -0.3560 -0.0626
 9571TIP3   OH250203   2.074   2.537  10.266  0.2003  0.7394  0.0804
 9571TIP3    H150204   1.992   2.510  10.307  1.4322 -0.1368  2.1107
 9571TIP3    H250205   2.117   2.592  10.331  2.0871 -0.4488 -0.0816
 9572TIP3   OH250206   0.923   3.545  10.968 -0.2898  0.8746 -0.0623
 9572TIP3    H150207   0.987   3.583  10.907 -0.4692  0.4024 -0.5493
 9572TIP3    H250208   0.965   3.465  10.999 -0.0228  1.3142  0.7708
 9573TIP3   OH250209   1.283   3.634   4.133  0.3403  0.1738  0.3014
 9573TIP3    H150210   1.366   3.617   4.178  0.3979  0.4350  0.2961
 9573TIP3    H250211   1.249   3.714   4.174 -0.6222 -0.7126  1.3149
 9574TIP3   OH250212   1.724   5.313  15.139 -0.4053 -0.5030  0.1378
 9574TIP3    H150213   1.647   5.270  15.101  0.3635 -1.9411  0.1405
 9574TIP3    H250214   1.688   5.370  15.207 -1.3941 -2.2354  1.1277
 9575TIP3   OH250215   0.565   5.967  16.038 -1.0761  0.4167  0.0730
 9575TIP3    H150216   0.523   6.020  16.105  0.3887  0.7012  0.7945
 9575TIP3    H250217   0.534   6.004  15.955 -1.0739  1.5624  0.5789
 9576TIP3   OH250218   2.419   6.692   6.090 -0.3611  0.1160  0.1065
 9576TIP3    H150219   2.374   6.711   6.172  0.8976 -0.9223  1.0854
 9576TIP3    H250220   2.497   6.643   6.116 -0.4904 -1.2341 -1.7819
 9577TIP3   OH250221   0.959   6.069  15.344  0.6124  0.2437 -0.9653
 9577TIP3    H150222   1.054   6.066  15.334  0.6995 -0.7400 -0.0372
 9577TIP3    H250223   0.944   6.143  15.404  0.4739  2.6870 -3.7863
 9578TIP3   OH250224   0.814   0.860   5.764  0.1086 -0.1327 -0.0670
 9578TIP3    H150225   0.757   0.832   5.692 -0.1092 -0.0759  0.0828
 9578TIP3    H250226   0.808   0.790   5.829  0.0575 -0.0356  0.0337
 9579TIP3   OH250227   1.087   4.217   0.237 -0.2350 -0.0113  0.0624
 9579TIP3    H150228   1.090   4.296   0.291  2.0884 -0.1749  0.2653
 9579TIP3    H250229   1.137   4.152   0.285 -2.2739 -1.7648 -0.0043
 9580TIP3   OH250230   6.056   2.687  16.899  0.4878  0.0753 -0.3366
 9580TIP3    H150231   5.992   2.749  16.864  0.1009 -0.7414 -1.1260
 9580TIP3    H250232   6.141   2.719  16.868  0.3928  0.7911  0.1472
 9581TIP3   OH250233   2.643   0.295  14.526 -0.1729  0.3366  0.2096
 9581TIP3    H150234   2.577   0.348  14.481  0.8773  0.8619 -0.7750
 9581TIP3    H250235   2.727   0.334  14.500  0.5337 -0.2054  1.5627
 9582TIP3   OH250236   4.626   5.807   3.264 -0.5352  0.2364 -0.3415
 9582TIP3    H150237   4.714   5.818   3.229 -0.1748  0.1067  0.5048
 9582TIP3    H250238   4.609   5.889   3.311 -0.1544 -0.4324  1.0039
 9583TIP3   OH250239   5.017   3.721  12.828 -0.0805 -0.0958  0.3578
 9583TIP3    H150240   4.981   3.691  12.745  0.4317  0.5528 -0.1063
 9583TIP3    H250241   5.083   3.786  12.804 -0.0961  0.2770  1.2780
 9584TIP3   OH250242   2.882   6.303   4.930  0.7602 -0.1044 -0.1726
 9584TIP3    H150243   2.823   6.346   4.993  1.3146  0.7390 -0.2076
 9584TIP3    H250244   2.841   6.218   4.913 -0.0706  0.1768  0.3425
 9585TIP3   OH250245   5.169   5.155   5.448  0.2987 -0.2569 -0.3776
 9585TIP3    H150246   5.183   5.146   5.542 -2.2278  2.2238  0.3587
 9585TIP3    H250247   5.095   5.097   5.429 -1.3127  1.6298 -0.1112
 9586TIP3   OH250248   2.007   1.995  11.912 -0.3417 -0.1634 -0.3117
 9586TIP3    H150249   1.916   1.968  11.914 -0.2546 -0.4507 -0.0072
 9586TIP3    H250250   2.056   1.915  11.894 -0.1880  0.1061 -1.1341
 9587TIP3   OH250251   5.654   1.343  14.381  0.3269  0.3311  0.5710
 9587TIP3    H150252   5.639   1.394  14.460  2.9694 -0.1856  1.5156
 9587TIP3    H250253   5.721   1.279  14.406  1.6892  0.5243 -2.2310
 9588TIP3   OH250254   4.316   6.551   6.749 -0.4051 -0.1924  0.1884
 9588TIP3    H150255   4.231   6.527   6.785 -1.0955  0.7204 -0.7464
 9588TIP3    H250256   4.309   6.532   6.656  0.0592  0.7883 -0.0699
 9589TIP3   OH250257   6.347   4.566   3.968  0.2617 -0.2044 -0.5645
 9589TIP3    H150258   6.275   4.526   3.918 -0.2466 -0.2796  0.2079
 9589TIP3    H250259   6.424   4.514   3.946 -0.4347 -1.8379  0.6424
 9590TIP3   OH250260   5.038   2.289  13.862  0.2642  0.3160 -0.1836
 9590TIP3    H150261   5.113   2.349  13.867  0.8202 -0.3096 -0.9671
 9590TIP3    H250262   4.996   2.310  13.779 -0.1108  0.2706 -0.0087
 9591TIP3   OH250263   5.200   6.087  12.677  0.3167 -0.4646  0.0560
 9591TIP3    H150264   5.292   6.061  12.667  0.3537 -0.4752  0.4208
 9591TIP3    H250265   5.199   6.179  12.652  0.2259 -0.7481 -1.0154
 9592TIP3   OH250266   0.538   2.553  13.838 -0.4775 -0.2850 -0.5171
 9592TIP3    H150267   0.497   2.572  13.922  0.0365 -1.6707  0.0751
 9592TIP3    H250268   0.517   2.629  13.783  1.4339  1.9808  1.6330
 9593TIP3   OH250269   2.401   1.211   4.231 -0.3108 -0.4014 -0.3195
 9593TIP3    H150270   2.479   1.180   4.278  0.5314  0.7457 -0.9094
 9593TIP3    H250271   2.358   1.131   4.202 -0.2502 -1.1101  1.4146
 9594TIP3   OH250272   4.597   4.459   4.376  0.1673 -0.6737 -0.4397
 9594TIP3    H150273   4.683   4.500   4.369  0.6162 -1.4891  0.0811
 9594TIP3    H250274   4.616   4.368   4.403 -0.9064 -0.2322  2.1618
 9595TIP3   OH250275   0.853   5.162  12.134  0.5225  0.0111 -0.0952
 9595TIP3    H150276   0.908   5.084  12.122  0.2813 -0.1648 -0.0770
 9595TIP3    H250277   0.767   5.135  12.101  0.4632  0.3021 -0.1748
 9596TIP3   OH250278   3.882   0.325   2.307  0.2380  0.3683 -0.0044
 9596TIP3    H150279   3.846   0.290   2.225 -0.6333  0.5801  0.2800
 9596TIP3    H250280   3.941   0.256   2.338 -2.2270 -1.4180  1.0951
 9597TIP3   OH250281   5.947   5.045  12.326 -0.2533 -0.3733  0.0396
 9597TIP3    H150282   6.039   5.026  12.304  0.5495  2.4983  0.4518
 9597TIP3    H250283   5.896   4.996  12.262  1.5589 -1.9211 -0.3174
 9598TIP3   OH250284   2.850   1.534   5.035 -0.0103 -0.4380  0.8009
 9598TIP3    H150285   2.933   1.580   5.050 -0.4185  0.3795  0.5794
 9598TIP3    H250286   2.869   1.476   4.961  0.0906  0.4915  0.0737
 9599TIP3   OH250287   3.670   0.715   2.770 -0.4944  0.4251  0.0202
 9599TIP3    H150288   3.693   0.682   2.856 -0.7671  1.7586  0.6378
 9599TIP3    H250289   3.751   0.750   2.734 -0.5908  0.8496  0.2056
 9600TIP3   OH250290   6.175   6.429  12.995 -0.3254 -0.4956 -0.1351
 9600TIP3    H150291   6.166   6.513  12.951 -0.1172 -0.9884 -1.1397
 9600TIP3    H250292   6.234   6.378  12.939  1.1249 -0.6517  1.4150
 9601TIP3   OH250293   2.568   5.932  11.649  0.5227  0.2182  0.2396
 9601TIP3    H150294   2.633   5.867  11.623 -1.4558 -2.0896  0.6540
 9601TIP3    H250295   2.577   5.938  11.744 -1.0747 -1.6437  0.5736
 9602TIP3   OH250296   4.934   2.958  14.606 -0.1529 -0.0107 -0.3085
 9602TIP3    H150297   4.998   2.982  14.539 -1.2816 -1.1147 -1.8401
 9602TIP3    H250298   4.969   2.877  14.644  0.5390  0.6700  0.5444
 9603TIP3   OH250299   4.044   1.508   0.334 -0.1992 -0.4732 -0.1753
 9603TIP3    H150300   4.104   1.516   0.408 -0.4191 -2.7050  0.3165
 9603TIP3    H250301   4.063   1.585   0.279  1.7839 -0.1391  0.8865
 9604TIP3   OH250302   2.677   6.474   3.519  0.0565  0.4257  0.4785
 9604TIP3    H150303   2.758   6.469   3.570  0.6702 -1.1919 -0.5881
 9604TIP3    H250304   2.680   6.561   3.479  0.7369  0.7923  1.2760
 9605TIP3   OH250305   3.191   1.127   0.393  0.3949  0.3115 -0.4914
 9605TIP3    H150306   3.281   1.160   0.387  0.0316  1.9764  1.9782
 9605TIP3    H250307   3.136   1.203   0.372 -0.4250  0.9402  3.2567
 9606TIP3   OH250308   5.342   4.862  11.994  0.2124  0.4495  0.0913
 9606TIP3    H150309   5.340   4.870  11.899  0.4283  1.7587  0.1848
 9606TIP3    H250310   5.423   4.905  12.021 -0.2848  0.8890  0.9338
 9607TIP3   OH250311   3.647   3.617   6.273  0.0831 -0.3969 -0.4204
 9607TIP3    H150312   3.738   3.600   6.250 -0.1050 -1.0541 -0.7033
 9607TIP3    H250313   3.651   3.686   6.339  0.5583  3.2682 -3.9444
 9608TIP3   OH250314   4.562   6.559   5.263 -0.8129 -0.4390  0.3687
 9608TIP3    H150315   4.537   6.481   5.312  0.8442 -0.3301  1.4602
 9608TIP3    H250316   4.588   6.622   5.330 -1.5487  0.8594 -0.5276
 9609TIP3   OH250317   1.477   3.898  14.672  0.6524 -0.0924 -0.1611
 9609TIP3    H150318   1.427   3.837  14.618  1.2358 -0.2575 -0.5286
 9609TIP3    H250319   1.567   3.866  14.666  0.6813 -0.3185  1.1943
 9610TIP3   OH250320   6.743   4.924   3.079  0.3146 -0.1660 -0.2591
 9610TIP3    H150321   6.818   4.974   3.045 -0.2212  0.4971 -0.4760
 9610TIP3    H250322   6.774   4.833   3.079  1.0969  0.0896 -0.4174
 9611TIP3   OH250323   2.175   5.792   0.895  0.2463  0.2712  0.0488
 9611TIP3    H150324   2.117   5.867   0.881 -1.2938 -0.9083 -0.1490
 9611TIP3    H250325   2.263   5.827   0.881 -0.5869  1.1896 -4.1627
 9612TIP3   OH250326   6.099   3.520   6.324 -0.0132 -0.6059 -0.4790
 9612TIP3    H150327   6.176   3.477   6.285  0.2467  2.1761 -3.5109
 9612TIP3    H250328   6.039   3.530   6.250 -1.3492  1.3338  0.8070
 9613TIP3   OH250329   2.430   2.285  15.062 -0.5858  0.1448 -0.0997
 9613TIP3    H150330   2.350   2.337  15.049  0.0720  0.7960 -1.8517
 9613TIP3    H250331   2.498   2.334  15.017  0.2042 -1.8573 -1.2365
 9614TIP3   OH250332   5.697   5.148  14.228 -0.1222 -0.1094 -0.4362
 9614TIP3    H150333   5.607   5.122  14.212  0.1556 -3.1407  1.9095
 9614TIP3    H250334   5.693   5.207  14.303 -0.1469 -0.7666  0.0886
 9615TIP3   OH250335   0.460   4.064   1.820  0.2826 -0.4415 -0.0281
 9615TIP3    H150336   0.524   4.036   1.754  0.3742 -0.1153 -0.0792
 9615TIP3    H250337   0.509   4.122   1.878  0.3004 -1.0305  0.5557
 9616TIP3   OH250338   6.371   2.482   5.379 -0.2653 -0.5297 -0.2518
 9616TIP3    H150339   6.423   2.543   5.328 -1.0491  0.5364  0.1760
 9616TIP3    H250340   6.434   2.442   5.440 -0.0135  1.1768  0.6707
 9617TIP3   OH250341   2.246   4.907  16.227 -0.0534 -0.2582 -0.0023
 9617TIP3    H150342   2.281   4.929  16.140  1.4355 -0.8067  0.4188
 9617TIP3    H250343   2.213   4.818  16.218  1.8819 -1.0685  0.4355
 9618TIP3   OH250344   5.394   4.815   5.309 -0.1814  0.3619  0.3163
 9618TIP3    H150345   5.331   4.788   5.376  0.0217  0.5121  0.5705
 9618TIP3    H250346   5.342   4.824   5.230 -0.0626 -1.8536 -0.0539
 9619TIP3   OH250347   6.566   2.020  10.948  0.2240  0.6517  0.2600
 9619TIP3    H150348   6.560   2.009  10.853 -1.2562  1.4879  0.2312
 9619TIP3    H250349   6.491   1.972  10.983 -0.2596  1.7879  0.8551
 9620TIP3   OH250350   1.892   3.775   1.731 -0.4049 -0.1954 -0.6430
 9620TIP3    H150351   1.875   3.837   1.802 -0.8814 -1.6711  0.5886
 9620TIP3    H250352   1.978   3.800   1.697  0.5967 -0.4354  1.5628
 9621TIP3   OH250353   4.359   3.671  16.281  0.0505 -0.4072  0.3750
 9621TIP3    H150354   4.360   3.690  16.375  1.0493 -1.0150  0.5083
 9621TIP3    H250355   4.331   3.753  16.240 -1.5068 -0.4685  1.2527
 9622TIP3   OH250356   2.385   6.521  13.759 -0.1833 -0.4413  0.0393
 9622TIP3    H150357   2.428   6.572  13.828 -1.2858  0.7984 -0.1570
 9622TIP3    H250358   2.453   6.508  13.693  0.2600  0.3362  0.3325
 9623TIP3   OH250359   2.093   2.031  14.436  0.0456 -0.3308  0.0933
 9623TIP3    H150360   2.042   2.082  14.373  1.3939 -1.3491 -1.9702
 9623TIP3    H250361   2.162   2.090  14.465 -1.1546  0.4558  1.4390
 9624TIP3   OH250362   0.240   1.228   5.696 -0.2697 -0.7116  0.5339
 9624TIP3    H150363   0.253   1.272   5.780 -1.5773 -1.1364  0.9731
 9624TIP3    H250364   0.201   1.295   5.640 -2.2055 -1.2381  1.1853
 9625TIP3   OH250365   1.977   4.391  16.792  1.0151  0.1935 -0.3865
 9625TIP3    H150366   1.892   4.401  16.748  0.9398  0.5764 -0.1601
 9625TIP3    H250367   2.040   4.383  16.720  0.6886 -0.9925 -0.5489
 9626TIP3   OH250368   4.408   0.853  10.557  0.2814 -0.1704  0.0125
 9626TIP3    H150369   4.373   0.868  10.645  0.0752 -0.7191  0.0292
 9626TIP3    H250370   4.331   0.853  10.500  0.4727  0.7799 -0.2576
 9627TIP3   OH250371   4.507   0.114   0.285 -0.7792 -0.0569 -0.0091
 9627TIP3    H150372   4.432   0.166   0.314 -2.5318 -1.6588 -1.4063
 9627TIP3    H250373   4.471   0.028   0.263  1.7917 -1.5156  0.9835
 9628TIP3   OH250374   3.083   3.246  12.517  0.3365 -0.2183  0.0964
 9628TIP3    H150375   3.093   3.300  12.439 -0.6269 -0.9757 -0.5674
 9628TIP3    H250376   2.990   3.228  12.523  0.3975 -0.2161  1.4058
 9629TIP3   OH250377   3.964   1.625  17.092  0.0240 -0.0744 -0.2767
 9629TIP3    H150378   4.047   1.596  17.130  0.5175 -0.0607 -1.3196
 9629TIP3    H250379   3.969   1.721  17.097 -0.9331 -0.0757  1.7330
 9630TIP3   OH250380   1.234   6.070   3.159  0.4001 -0.0968 -0.4114
 9630TIP3    H150381   1.319   6.074   3.203  1.0833 -1.0802 -1.5785
 9630TIP3    H250382   1.244   6.128   3.083 -0.6851  1.4030  0.5388
 9631TIP3   OH250383   0.102   2.012  14.098  0.1480 -0.3610 -0.6113
 9631TIP3    H150384   0.142   1.952  14.035 -0.1894 -0.7129 -0.4976
 9631TIP3    H250385   0.054   2.075  14.044 -2.1604 -2.0609 -0.7171
 9632TIP3   OH250386   6.600   0.131  16.780  0.3106  0.6139 -0.3990
 9632TIP3    H150387   6.668   0.180  16.827  2.0956 -2.3318  0.3514
 9632TIP3    H250388   6.529   0.121  16.844  1.3028 -0.4572  0.5948
 9633TIP3   OH250389   0.081   1.192  13.262  0.3663 -0.5672 -0.5923
 9633TIP3    H150390   0.125   1.225  13.340 -0.1816  0.8734 -0.8583
 9633TIP3    H250391   0.121   1.240  13.190 -0.2832 -0.6566 -1.0266
 9634TIP3   OH250392   4.442   4.426  15.493 -1.0098  0.1590  0.5455
 9634TIP3    H150393   4.410   4.515  15.477  0.3062  0.3676 -1.2261
 9634TIP3    H250394   4.447   4.420  15.589 -1.2873  1.9328  0.7183
 9635TIP3   OH250395   1.098   0.417   4.192  0.8443 -0.3665  0.2904
 9635TIP3    H150396   1.164   0.473   4.234  0.0777  1.1742 -0.4708
 9635TIP3    H250397   1.147   0.372   4.123  1.0142  1.4028 -0.8299
 9636TIP3   OH250398   2.278   5.069  12.460  0.2482  0.2631  0.0285
 9636TIP3    H150399   2.199   5.087  12.409  0.8770 -0.9926 -1.4946
 9636TIP3    H250400   2.274   4.975  12.476  0.8732  0.3833  0.9365
 9637TIP3   OH250401   1.593   5.390   0.003 -0.4240 -0.3866 -0.0270
 9637TIP3    H150402   1.542   5.310  -0.009 -1.8449  0.4615  0.1138
 9637TIP3    H250403   1.566   5.447  -0.070 -0.3873  0.4253  0.5804
 9638TIP3   OH250404   0.570   3.833  12.590  0.0468 -0.3303  0.4818
 9638TIP3    H150405   0.611   3.847  12.675  0.4077 -3.3587  0.9152
 9638TIP3    H250406   0.476   3.839  12.608  0.1551  0.5502  0.7696
 9639TIP3   OH250407   1.941   0.366   5.060 -0.0580  0.2433  0.1777
 9639TIP3    H150408   2.028   0.403   5.070 -0.2133  0.6605 -0.0026
 9639TIP3    H250409   1.952   0.296   4.996  0.1908  0.1239  0.3482
 9640TIP3   OH250410   1.852   2.832   5.533  0.2669 -0.2635  0.0590
 9640TIP3    H150411   1.845   2.843   5.628  1.9028  1.1724  0.0632
 9640TIP3    H250412   1.851   2.737   5.519  0.8663 -0.5258  1.6054
 9641TIP3   OH250413   0.482   0.322  16.924  0.3568  0.4410  0.5617
 9641TIP3    H150414   0.427   0.392  16.890  0.1875  0.6013  1.1572
 9641TIP3    H250415   0.477   0.331  17.019  0.1594 -0.5043  0.6537
 9642TIP3   OH250416   5.281   5.832  14.912  0.2052 -0.5037  0.5268
 9642TIP3    H150417   5.220   5.816  14.841  1.8840 -1.4390 -0.7819
 9642TIP3    H250418   5.341   5.898  14.878  2.5433 -2.7301  0.0204
 9643TIP3   OH250419   3.424   1.656   3.809 -0.5727 -0.0720 -0.6057
 9643TIP3    H150420   3.481   1.600   3.861  0.0393 -0.3823 -1.5925
 9643TIP3    H250421   3.337   1.618   3.819 -0.6980  0.5551  1.1189
 9644TIP3   OH250422   0.079   1.855  11.981  0.5232  0.0679  0.5368
 9644TIP3    H150423   0.148   1.805  12.024  1.7995  1.0667 -0.2657
 9644TIP3    H250424   0.056   1.803  11.904 -0.8714 -1.0965  1.6780
 9645TIP3   OH250425   3.539   1.802   1.281 -0.5201  0.1259 -0.2468
 9645TIP3    H150426   3.630   1.782   1.302 -0.3139 -0.7251 -1.7972
 9645TIP3    H250427   3.530   1.780   1.189 -3.1265 -2.9712  0.5615
 9646TIP3   OH250428   2.063   5.766   5.674 -0.1198  0.0498  0.8758
 9646TIP3    H150429   2.082   5.815   5.595  0.0464 -2.4223 -0.7186
 9646TIP3    H250430   2.148   5.738   5.706 -0.3096 -0.6784  0.7529
 9647TIP3   OH250431   1.652   4.338  12.732  0.4072 -0.2750  0.6954
 9647TIP3    H150432   1.703   4.394  12.673 -1.2692  0.5114 -0.0706
 9647TIP3    H250433   1.604   4.279  12.674  0.4190 -1.0075  1.4029
 9648TIP3   OH250434   2.988   5.301  12.651 -0.0932 -0.6417  0.1868
 9648TIP3    H150435   3.042   5.261  12.719 -1.7785 -0.4571  1.7224
 9648TIP3    H250436   2.988   5.394  12.672  0.6596 -0.3391 -1.0560
 9649TIP3   OH250437   4.203   2.025   0.341 -0.1524  0.0536  0.2189
 9649TIP3    H150438   4.231   2.116   0.330 -0.2121  0.1379  0.7498
 9649TIP3    H250439   4.160   2.024   0.426  3.0020 -1.2538  1.9370
 9650TIP3   OH250440   5.656   3.031  16.525 -0.7428  0.5193  0.1174
 9650TIP3    H150441   5.711   3.084  16.583 -1.2895  1.0707  0.1423
 9650TIP3    H250442   5.581   3.087  16.506 -1.8949 -0.6496  1.0421
 9651TIP3   OH250443   4.462   3.486  13.259 -0.5010  0.3776 -0.5266
 9651TIP3    H150444   4.483   3.565  13.308 -0.4276  0.8203 -1.2528
 9651TIP3    H250445   4.546   3.453  13.228 -0.3513 -0.9509  1.1896
 9652TIP3   OH250446   0.181   4.441  15.513 -0.3822  0.3645  0.1604
 9652TIP3    H150447   0.112   4.381  15.543 -0.4182  0.6521  0.6566
 9652TIP3    H250448   0.240   4.385  15.462 -1.5531  0.3075 -1.1984
 9653TIP3   OH250449   6.314   6.691   6.407  0.1379  0.5625 -0.0859
 9653TIP3    H150450   6.295   6.600   6.429  0.4668  0.8414  1.4823
 9653TIP3    H250451   6.378   6.719   6.473  0.1398  1.8902 -0.6183
 9654TIP3   OH250452   0.822   4.190   0.165  0.4871 -0.1866 -0.5540
 9654TIP3    H150453   0.909   4.188   0.205 -0.0827 -0.7068  0.7081
 9654TIP3    H250454   0.774   4.256   0.215 -0.1142 -0.5400 -0.6612
 9655TIP3   OH250455   5.163   5.192  11.337  0.0102 -0.4105  0.1045
 9655TIP3    H150456   5.199   5.212  11.250  1.0728  0.0951  0.6343
 9655TIP3    H250457   5.217   5.119  11.368  1.0894  0.7916  1.1883
 9656TIP3   OH250458   3.873   1.270   5.822  0.4652 -0.1118 -0.0118
 9656TIP3    H150459   3.903   1.182   5.843 -1.3508 -0.9528 -0.7024
 9656TIP3    H250460   3.816   1.294   5.896  0.1454  0.0487 -0.3066
 9657TIP3   OH250461   6.741   6.304  14.592  0.1018  0.2582 -0.0543
 9657TIP3    H150462   6.681   6.242  14.634 -1.2778  0.4932 -1.5499
 9657TIP3    H250463   6.753   6.268  14.504  0.0536  1.6063 -0.6219
 9658TIP3   OH250464   6.789   4.952  13.048 -0.2593  0.2012  0.0061
 9658TIP3    H150465   6.824   4.976  12.962  0.5813 -0.8891  0.0298
 9658TIP3    H250466   6.694   4.945  13.035 -0.2130  0.7010 -0.6549
 9659TIP3   OH250467   4.132   5.217  11.254 -0.1707 -0.2010 -0.3908
 9659TIP3    H150468   4.156   5.143  11.310  1.2926  1.3447  1.1589
 9659TIP3    H250469   4.095   5.177  11.176  0.7128 -2.5703  0.3182
 9660TIP3   OH250470   4.489   1.559   5.535 -0.4012 -0.2599 -0.3465
 9660TIP3    H150471   4.562   1.614   5.563 -1.0920  0.6345 -0.2405
 9660TIP3    H250472   4.485   1.570   5.440  1.4171 -2.6375 -0.7895
 9661TIP3   OH250473   2.128   6.709   4.663 -0.4386  0.0257 -0.3978
 9661TIP3    H150474   2.103   6.771   4.732  0.8524 -1.0696  1.1298
 9661TIP3    H250475   2.123   6.624   4.705 -0.9438 -0.8250 -2.0976
 9662TIP3   OH250476   5.401   5.090   4.917  0.4711  0.9100 -0.3127
 9662TIP3    H150477   5.483   5.104   4.965  0.3835 -0.8273  0.4395
 9662TIP3    H250478   5.343   5.158   4.950  0.7002  0.3164  1.4507
 9663TIP3   OH250479   1.907   1.952   4.916  0.0812  0.4151  0.4202
 9663TIP3    H150480   1.987   1.906   4.891  1.2962  2.4073  0.3602
 9663TIP3    H250481   1.932   2.007   4.990 -1.5230  0.2896  1.1008
 9664TIP3   OH250482   5.874   0.008  14.565 -0.4307  0.1064  0.1084
 9664TIP3    H150483   5.804   0.055  14.609 -0.0133  0.6078  0.2449
 9664TIP3    H250484   5.894   0.061  14.487 -0.1481  0.0115  0.1149
 9665TIP3   OH250485   2.042   6.330  11.560  0.2968 -0.3171 -0.6074
 9665TIP3    H150486   1.961   6.351  11.514  0.1282  1.1586  0.3094
 9665TIP3    H250487   2.089   6.271  11.501  0.5086  2.1997 -3.1188
 9666TIP3   OH250488   2.509   6.644  15.649  0.1242 -0.4052 -0.0909
 9666TIP3    H150489   2.552   6.563  15.673  2.2384  0.2643 -1.3069
 9666TIP3    H250490   2.420   6.619  15.625  1.0515 -2.5633 -1.5413
 9667TIP3   OH250491   6.331   1.519  10.448  0.3512 -0.0375 -0.0006
 9667TIP3    H150492   6.237   1.506  10.458  0.3398  0.0910  0.0491
 9667TIP3    H250493   6.340   1.609  10.417  0.4352 -0.1729 -0.3696
 9668TIP3   OH250494   3.867   2.570  15.622 -0.1714  0.5210 -0.1649
 9668TIP3    H150495   3.840   2.520  15.545  0.8243  0.8513 -0.7417
 9668TIP3    H250496   3.795   2.632  15.637 -0.7170 -0.0567 -0.3597
 9669TIP3   OH250497   3.895   6.644   3.603  0.1780 -0.6286  0.2026
 9669TIP3    H150498   3.910   6.567   3.658 -0.1506 -0.4783  0.5116
 9669TIP3    H250499   3.819   6.621   3.549  0.3605 -0.6900 -0.0312
 9670TIP3   OH250500   4.934   2.260   6.203  0.5507 -0.4959 -0.0312
 9670TIP3    H150501   5.020   2.222   6.185  0.6972  0.5782 -1.8241
 9670TIP3    H250502   4.879   2.233   6.129 -0.3506 -0.2338  0.5151
 9671TIP3   OH250503   2.933   1.462   5.911 -0.0513 -0.3206  0.0815
 9671TIP3    H150504   2.891   1.538   5.951  1.3506 -0.1513  1.3182
 9671TIP3    H250505   2.916   1.471   5.818 -2.0171  0.1676  0.4555
 9672TIP3   OH250506   3.431   2.312   2.616  0.1184 -0.2803 -0.1653
 9672TIP3    H150507   3.526   2.310   2.630  0.1729 -0.5052 -0.5617
 9672TIP3    H250508   3.415   2.243   2.552 -0.6887 -2.3201  2.1078
 9673TIP3   OH250509   3.618   5.261  15.654  0.5314 -0.8330  0.7457
 9673TIP3    H150510   3.625   5.330  15.720 -1.3117 -1.3277  1.5167
 9673TIP3    H250511   3.700   5.267  15.604  0.1594  2.3634  0.3189
 9674TIP3   OH250512   0.689   4.976   4.871 -0.2182  0.0572 -0.3913
 9674TIP3    H150513   0.769   5.001   4.825 -0.3000  0.9525 -0.0717
 9674TIP3    H250514   0.619   4.985   4.806 -0.2759  0.8978 -0.2224
 9675TIP3   OH250515   1.786   3.569  12.151 -0.0935 -0.2943  0.1433
 9675TIP3    H150516   1.865   3.597  12.197  0.2758  1.3681 -1.3873
 9675TIP3    H250517   1.791   3.612  12.066 -1.1679 -2.5626 -1.1640
 9676TIP3   OH250518   1.772   1.233  13.889 -0.6578  0.5378  0.2300
 9676TIP3    H150519   1.677   1.246  13.893 -0.6285  1.4182 -1.3969
 9676TIP3    H250520   1.785   1.144  13.921 -2.0357  0.3641  0.3731
 9677TIP3   OH250521   1.057   3.430   5.868 -0.7045  0.0725  0.3569
 9677TIP3    H150522   1.070   3.439   5.962 -2.1462  2.1295  0.4364
 9677TIP3    H250523   1.127   3.482   5.829 -1.8314  1.7621  0.4519
 9678TIP3   OH250524   1.274   0.354   3.334 -0.2885 -0.5594  0.2187
 9678TIP3    H150525   1.225   0.386   3.410 -0.7247  0.0195 -0.3017
 9678TIP3    H250526   1.359   0.397   3.341 -0.4860 -0.1518  0.1310
 9679TIP3   OH250527   0.012   6.019  16.466  0.0064  0.3651  0.6384
 9679TIP3    H150528   0.067   6.018  16.545  0.4965 -2.6522  0.3656
 9679TIP3    H250529  -0.077   6.014  16.499  0.2452 -2.8293  1.1477
 9680TIP3   OH250530   3.777   0.306   4.413  0.1354  0.0371 -0.0823
 9680TIP3    H150531   3.692   0.265   4.401  0.2307 -1.2105  2.7463
 9680TIP3    H250532   3.757   0.391   4.451  0.1235  0.4095 -0.9046
 9681TIP3   OH250533   4.201   5.899   0.877 -0.0268  0.1694 -0.2592
 9681TIP3    H150534   4.158   5.823   0.840  1.3694 -0.1764 -1.2567
 9681TIP3    H250535   4.168   5.974   0.827 -0.3475  0.0563 -0.2155
 9682TIP3   OH250536   5.018   5.254  13.614  0.0501 -0.2189 -0.0909
 9682TIP3    H150537   5.074   5.240  13.537  1.8364 -0.3396  1.1552
 9682TIP3    H250538   5.012   5.167  13.655  0.4545  0.1368  0.7481
 9683TIP3   OH250539   6.761   3.394   2.192  0.5723 -0.2949 -0.1009
 9683TIP3    H150540   6.685   3.403   2.135  1.3010  0.3023 -1.0020
 9683TIP3    H250541   6.745   3.313   2.241  0.1170 -1.0213 -1.4149
 9684TIP3   OH250542   4.595   1.308  15.987  0.1797 -0.6390  0.7997
 9684TIP3    H150543   4.557   1.394  16.007  0.2871 -0.8547  2.0244
 9684TIP3    H250544   4.524   1.246  16.003  0.3841 -0.8552  0.8734
 9685TIP3   OH250545   3.305   3.200   2.319 -0.6494  0.6021  0.0800
 9685TIP3    H150546   3.251   3.149   2.379 -0.3431 -0.1046 -0.2315
 9685TIP3    H250547   3.384   3.220   2.368 -0.3959  0.0183 -0.0818
 9686TIP3   OH250548   3.972   0.446   3.751 -0.4623  0.0962 -0.6201
 9686TIP3    H150549   4.060   0.417   3.729  0.1409  1.0359  0.4823
 9686TIP3    H250550   3.942   0.493   3.673  0.8041  1.5106 -0.2923
 9687TIP3   OH250551   5.832   3.431  14.757 -0.2076 -0.3466 -0.2102
 9687TIP3    H150552   5.881   3.359  14.717  0.9961  0.7273 -0.7579
 9687TIP3    H250553   5.845   3.505  14.696 -1.9996  0.1536 -0.0417
 9688TIP3   OH250554   6.430   1.191  12.203 -0.0382  0.0756 -0.4127
 9688TIP3    H150555   6.443   1.159  12.114  2.2496  0.3492 -0.2290
 9688TIP3    H250556   6.376   1.269  12.193 -2.2952 -1.4656 -1.2222
 9689TIP3   OH250557   5.444   4.305   2.391  0.0907  0.4507  0.0829
 9689TIP3    H150558   5.526   4.342   2.360  0.7844 -0.4080  0.8232
 9689TIP3    H250559   5.380   4.375   2.381  0.7314  0.8671 -1.2594
 9690TIP3   OH250560   4.012   5.811   3.727 -0.1319  0.3287 -0.1601
 9690TIP3    H150561   4.084   5.861   3.765  0.8562 -0.1458 -1.3019
 9690TIP3    H250562   3.979   5.757   3.798  1.8251 -0.7294  0.0191
 9691TIP3   OH250563   6.182   3.663   0.631 -0.4162 -0.0868 -0.4626
 9691TIP3    H150564   6.105   3.720   0.627 -0.9804 -0.8849 -2.6722
 9691TIP3    H250565   6.178   3.623   0.718 -0.8746  2.0201  0.5430
 9692TIP3   OH250566   6.827   2.046   4.699  0.1463  0.5070  0.2907
 9692TIP3    H150567   6.840   2.020   4.607 -0.6319 -0.0145  0.3184
 9692TIP3    H250568   6.743   2.092   4.700  0.6252  1.3976  0.5797
 9693TIP3   OH250569   3.410   1.632   5.776 -0.2342 -0.8961  0.4376
 9693TIP3    H150570   3.456   1.563   5.727  0.1128 -0.5838  0.3211
 9693TIP3    H250571   3.471   1.655   5.846  1.5059  2.1556 -1.8446
 9694TIP3   OH250572   3.884   3.317   5.925 -0.2957 -0.3484  0.2877
 9694TIP3    H150573   3.857   3.335   6.015 -1.0874 -0.9851  0.1922
 9694TIP3    H250574   3.876   3.222   5.916 -0.4629 -0.2677 -0.5213
 9695TIP3   OH250575   2.889   4.758   3.247  0.3758  0.4222 -0.3068
 9695TIP3    H150576   2.871   4.758   3.153  0.3774  0.4171 -0.3071
 9695TIP3    H250577   2.983   4.772   3.253  0.5795 -0.8056 -0.3444
 9696TIP3   OH250578   1.129   0.177  11.124  0.2824  0.4228  0.4874
 9696TIP3    H150579   1.107   0.260  11.168  0.7521  0.6694  0.2564
 9696TIP3    H250580   1.077   0.178  11.044  0.4070  0.5659  0.4087
 9697TIP3   OH250581   4.691   0.930   3.397  0.6264  0.4488  0.2336
 9697TIP3    H150582   4.784   0.929   3.418  0.7342 -0.1006 -0.2577
 9697TIP3    H250583   4.652   0.869   3.459  0.4519  1.3388  1.0297
 9698TIP3   OH250584   3.895   3.461   5.675  0.0749  0.0815  0.5333
 9698TIP3    H150585   3.850   3.391   5.628 -0.1265  0.4861  0.1195
 9698TIP3    H250586   3.888   3.436   5.767  0.5117 -0.7425  0.3599
 9699TIP3   OH250587   6.557   3.348  13.419  0.3017  0.3819 -0.2261
 9699TIP3    H150588   6.510   3.404  13.358  0.1050  1.5466  0.9526
 9699TIP3    H250589   6.641   3.391  13.432 -0.7723  1.9150  2.6262
 9700TIP3   OH250590   2.028   6.332   0.762 -0.1401 -0.1211  0.1936
 9700TIP3    H150591   1.959   6.267   0.757  0.1849 -0.5084  0.6517
 9700TIP3    H250592   1.995   6.406   0.711 -1.6421  0.3805  1.7928
 9701TIP3   OH250593   3.156   3.327  15.422 -0.1820 -0.0998 -0.2459
 9701TIP3    H150594   3.214   3.251  15.413 -1.6868 -1.2205 -0.9554
 9701TIP3    H250595   3.176   3.362  15.508  0.9808 -0.9355 -0.1463
 9702TIP3   OH250596   0.786   2.106  13.011  0.1896  0.5355 -0.5384
 9702TIP3    H150597   0.841   2.091  12.934  1.5588 -3.0078  0.8793
 9702TIP3    H250598   0.845   2.148  13.074  0.0224  0.5855 -0.4174
 9703TIP3   OH250599   2.154   5.752  15.608 -0.4234  0.0408 -0.3473
 9703TIP3    H150600   2.113   5.750  15.694 -0.1911  1.5250 -0.1879
 9703TIP3    H250601   2.246   5.774  15.624 -0.5494  1.1338 -1.0093
 9704TIP3   OH250602   6.729   4.040   2.721 -0.0703 -0.2486 -0.1034
 9704TIP3    H150603   6.644   4.007   2.750 -0.8170  1.1146 -0.6471
 9704TIP3    H250604   6.746   4.116   2.777 -0.3864  0.9531 -1.5612
 9705TIP3   OH250605   6.337   1.839  11.993 -0.1066 -0.8181 -0.4489
 9705TIP3    H150606   6.350   1.809  11.903  0.9957 -0.1986 -0.5227
 9705TIP3    H250607   6.408   1.902  12.007 -0.4482 -0.6792  0.7546
 9706TIP3   OH250608   5.058   2.664  11.739  0.2411 -0.1102  0.1614
 9706TIP3    H150609   5.047   2.755  11.765 -1.6116  0.5944 -2.6392
 9706TIP3    H250610   5.132   2.665  11.678  0.3079 -0.5147  0.2293
 9707TIP3   OH250611   3.978   5.769   5.619  0.4528  0.7343 -0.3156
 9707TIP3    H150612   3.974   5.741   5.527 -0.5461 -0.3964  0.0522
 9707TIP3    H250613   3.943   5.695   5.668 -0.1379  1.7824  0.8888
 9708TIP3   OH250614   1.157   1.739  16.032  0.6608  0.0952 -0.7692
 9708TIP3    H150615   1.078   1.788  16.054  0.6796 -0.7099  1.2448
 9708TIP3    H250616   1.129   1.647  16.032  1.6781 -0.2368  0.5068
 9709TIP3   OH250617   5.861   2.508   0.587  0.4337 -0.1449 -0.0770
 9709TIP3    H150618   5.784   2.563   0.576  0.5682  0.0204 -0.1995
 9709TIP3    H250619   5.828   2.427   0.625  0.4041  0.5234  1.3934
 9710TIP3   OH250620   1.003   1.020   5.676 -0.2188 -0.1882  0.4246
 9710TIP3    H150621   1.080   0.965   5.693 -0.3359 -0.0823  1.4034
 9710TIP3    H250622   0.930   0.971   5.714 -0.5163  0.0523  0.1661
 9711TIP3   OH250623   2.443   1.612   4.554  0.3466 -0.1724  0.4324
 9711TIP3    H150624   2.505   1.685   4.552 -0.7545  0.8750  2.2863
 9711TIP3    H250625   2.437   1.588   4.647 -0.7321 -1.4065  0.0767
 9712TIP3   OH250626   3.373   4.364   0.614 -0.3067 -0.4102 -0.0368
 9712TIP3    H150627   3.290   4.320   0.631 -0.8846  1.0690  1.2511
 9712TIP3    H250628   3.351   4.430   0.547 -0.9022  1.7816  2.1562
 9713TIP3   OH250629   0.696   1.562   3.184  0.2772  0.3425  0.7184
 9713TIP3    H150630   0.781   1.540   3.145 -0.5879 -0.3687 -0.8291
 9713TIP3    H250631   0.672   1.645   3.144 -0.1433  0.1111  0.4780
 9714TIP3   OH250632   5.660   4.380  11.185  0.0257 -0.1821  0.1375
 9714TIP3    H150633   5.752   4.385  11.210 -0.7943  0.0253  3.6835
 9714TIP3    H250634   5.630   4.471  11.187 -0.6562 -0.4077  1.0822
 9715TIP3   OH250635   1.185   4.630  12.815  0.1544  0.0525 -0.2168
 9715TIP3    H150636   1.173   4.725  12.805 -0.2063 -0.0657 -1.0065
 9715TIP3    H250637   1.240   4.605  12.741  0.2993 -0.3454  0.0258
 9716TIP3   OH250638   2.187   1.357  16.777  0.0435 -0.4363  0.4525
 9716TIP3    H150639   2.148   1.425  16.722  1.4864  1.1085  1.2618
 9716TIP3    H250640   2.279   1.380  16.782  0.4854 -2.2152  1.1517
 9717TIP3   OH250641   1.301   2.559   1.108 -0.2295  0.1561 -0.0245
 9717TIP3    H150642   1.284   2.465   1.099  1.1373  0.0473 -2.0829
 9717TIP3    H250643   1.377   2.576   1.052 -1.5682  2.8266 -1.2248
 9718TIP3   OH250644   6.582   1.660  11.448  0.5050 -0.3341 -0.5847
 9718TIP3    H150645   6.579   1.689  11.357 -1.3579 -1.2875 -0.8924
 9718TIP3    H250646   6.643   1.720  11.491 -0.3286  1.6121 -1.9635
 9719TIP3   OH250647   2.223   4.972  17.067 -0.2073  0.3202 -0.1702
 9719TIP3    H150648   2.218   5.017  16.982 -1.6705  0.5803  0.0260
 9719TIP3    H250649   2.252   5.040  17.128 -0.8406  0.5989 -0.1672
 9720TIP3   OH250650   0.897   4.621  11.974  0.0071 -0.5203  0.1029
 9720TIP3    H150651   0.950   4.627  11.894  1.7570 -0.3891  1.2323
 9720TIP3    H250652   0.822   4.566  11.948 -0.3331  0.8150 -2.0331
 9721TIP3   OH250653   4.999   3.489   4.704 -0.1352  0.1539  0.1813
 9721TIP3    H150654   4.919   3.503   4.654 -0.0112 -2.1948 -0.8269
 9721TIP3    H250655   5.069   3.491   4.639  0.3673 -0.0060  0.7061
 9722TIP3   OH250656   5.390   4.365   4.403 -0.1336 -0.1206  0.1655
 9722TIP3    H150657   5.342   4.314   4.337 -0.9894  1.1656 -0.2322
 9722TIP3    H250658   5.324   4.384   4.470  0.1894  0.4364  0.3257
 9723TIP3   OH250659   2.916   4.820   6.091 -0.6565 -1.0232  0.0955
 9723TIP3    H150660   2.993   4.790   6.139  0.5551 -0.2767 -1.3201
 9723TIP3    H250661   2.897   4.749   6.029  1.2661  0.3250 -2.1781
 9724TIP3   OH250662   5.715   5.284   4.958  0.0804 -0.2374  0.1072
 9724TIP3    H150663   5.799   5.266   4.999  1.6742  1.8780 -1.9351
 9724TIP3    H250664   5.727   5.259   4.867 -0.8351  1.7709 -0.6156
 9725TIP3   OH250665   0.339   1.629   0.909 -0.0210  0.0037 -0.0459
 9725TIP3    H150666   0.402   1.691   0.946 -0.3500 -0.2580  1.0050
 9725TIP3    H250667   0.267   1.684   0.879 -0.3698  0.1474  0.9966
 9726TIP3   OH250668   3.113   4.399   1.514 -0.6609 -0.1201 -0.1352
 9726TIP3    H150669   3.166   4.392   1.435 -0.8856  2.6011 -0.6153
 9726TIP3    H250670   3.029   4.432   1.484 -1.3528 -0.7398  1.0634
 9727TIP3   OH250671   2.156   1.961   3.981 -0.6093 -0.0465  0.7353
 9727TIP3    H150672   2.191   2.030   4.036  0.7480  0.0219 -0.1538
 9727TIP3    H250673   2.104   1.906   4.040  0.6282  0.1230  2.0313
 9728TIP3   OH250674   1.665   3.916   3.755 -0.1837 -0.1883  0.3172
 9728TIP3    H150675   1.571   3.905   3.766 -0.2269  0.6272  0.8038
 9728TIP3    H250676   1.677   4.010   3.739  0.5381 -0.2896  0.2348
 9729TIP3   OH250677   5.520   2.079  15.826  0.3498 -0.0030 -0.2824
 9729TIP3    H150678   5.508   2.082  15.731 -0.7706 -0.7509 -0.1894
 9729TIP3    H250679   5.590   2.142  15.844 -0.6612  1.5384 -1.4108
 9730TIP3   OH250680   5.016   2.099   6.484 -0.0729  0.0618  0.0985
 9730TIP3    H150681   5.032   2.192   6.473 -1.0052  0.0168 -2.6157
 9730TIP3    H250682   5.081   2.057   6.427 -1.7558 -0.6867 -1.4054
 9731TIP3   OH250683   5.170   3.736  12.404 -0.4080  0.4378  0.1518
 9731TIP3    H150684   5.087   3.783  12.411 -0.7090  0.2079 -1.4627
 9731TIP3    H250685   5.229   3.798  12.361  0.1176  0.4146  0.8202
 9732TIP3   OH250686   1.007   5.932   0.842 -0.1981  0.0941  0.3671
 9732TIP3    H150687   1.097   5.898   0.839  0.2265  0.8178  2.6531
 9732TIP3    H250688   0.976   5.910   0.929 -2.1663  0.1321 -0.2724
 9733TIP3   OH250689   0.316   0.848   4.999 -0.1130 -0.4896  0.3960
 9733TIP3    H150690   0.239   0.840   5.056  1.4706 -2.1159  2.4903
 9733TIP3    H250691   0.291   0.912   4.933 -3.0403 -0.5231  1.3338
 9734TIP3   OH250692   0.592   5.999   4.926  0.5390  0.4574 -0.1701
 9734TIP3    H150693   0.565   5.981   4.836 -0.6739 -1.9581  0.5933
 9734TIP3    H250694   0.685   5.978   4.927  0.5230  0.3229 -0.8081
 9735TIP3   OH250695   0.587   4.245  12.926 -0.0047 -0.1756  0.7477
 9735TIP3    H150696   0.532   4.323  12.929  1.0085  0.5672  3.2840
 9735TIP3    H250697   0.541   4.182  12.983 -1.8599 -2.3282 -2.7946
 9736TIP3   OH250698   1.060   0.630  16.463 -0.5121 -0.7143  0.3353
 9736TIP3    H150699   0.986   0.690  16.467  0.8986  1.1842 -0.7082
 9736TIP3    H250700   1.133   0.678  16.501  0.8024 -1.5035 -1.0581
 9737TIP3   OH250701   4.860   3.653  15.185 -0.1959  0.3820  0.0237
 9737TIP3    H150702   4.873   3.571  15.232 -0.4857  1.2685  1.7102
 9737TIP3    H250703   4.947   3.674  15.150 -0.3424 -1.1564 -1.3668
 9738TIP3   OH250704   4.929   4.676  11.919  0.8447 -0.5786  0.2475
 9738TIP3    H150705   4.956   4.587  11.896  0.3703 -0.6926  0.1389
 9738TIP3    H250706   4.946   4.683  12.013 -0.8531 -1.4114  0.6530
 9739TIP3   OH250707   2.050   5.182   3.122 -0.3653 -0.3037 -0.1243
 9739TIP3    H150708   2.118   5.212   3.183 -0.5221 -0.1538 -0.0224
 9739TIP3    H250709   2.004   5.262   3.096 -0.4936 -0.4032 -0.2037
 9740TIP3   OH250710   6.526   6.790  11.246 -0.4467  0.2245  0.5900
 9740TIP3    H150711   6.515   6.720  11.311 -0.6306  1.2974  1.7504
 9740TIP3    H250712   6.615   6.778  11.213  1.6144  2.4704  4.6087
 9741TIP3   OH250713   4.754   4.856  12.796 -0.4625  0.4512 -0.0042
 9741TIP3    H150714   4.804   4.892  12.870 -0.9246  0.9950  0.0485
 9741TIP3    H250715   4.756   4.925  12.730 -0.6718  0.2564 -0.2147
 9742TIP3   OH250716   4.292   2.693   6.015 -0.0244  0.2078 -0.4961
 9742TIP3    H150717   4.379   2.731   6.011  0.0264  0.2369  0.5976
 9742TIP3    H250718   4.232   2.767   6.004  0.0799  0.5301  0.9421
 9743TIP3   OH250719   0.686   0.162  15.159 -0.1970  0.3208  0.4693
 9743TIP3    H150720   0.745   0.107  15.209  0.3599  1.2722  0.8879
 9743TIP3    H250721   0.610   0.106  15.140  1.2082 -1.2238 -0.8879
 9744TIP3   OH250722   3.375   2.101   2.403  0.1395 -0.3013 -0.3010
 9744TIP3    H150723   3.450   2.075   2.349  0.3436 -1.2301  0.3990
 9744TIP3    H250724   3.300   2.096   2.344  0.6625  1.1063 -1.1426
 9745TIP3   OH250725   5.473   2.799  11.109  0.1447 -0.0168  0.2333
 9745TIP3    H150726   5.520   2.826  11.188 -1.0376  0.1589  0.8973
 9745TIP3    H250727   5.402   2.863  11.100  1.4899  1.2514 -2.1985
 9746TIP3   OH250728   4.750   2.237   6.621  0.3186 -0.5697 -0.1016
 9746TIP3    H150729   4.817   2.271   6.562  0.8438 -2.6153 -0.7652
 9746TIP3    H250730   4.788   2.155   6.655 -1.2955 -1.0777  0.5473
 9747TIP3   OH250731   6.325   6.569  12.264 -0.1686 -0.0347 -0.1187
 9747TIP3    H150732   6.263   6.617  12.209  1.4122  1.3842 -0.7689
 9747TIP3    H250733   6.287   6.482  12.272 -1.2483  0.1676 -2.1746
 9748TIP3   OH250734   2.717   3.283   0.954 -0.0499 -0.2269 -0.1125
 9748TIP3    H150735   2.750   3.332   1.029  1.0345  0.6361 -1.1170
 9748TIP3    H250736   2.784   3.217   0.938 -1.1450 -1.6019  0.7659
 9749TIP3   OH250737   5.340   0.419  15.355  0.2406 -0.0349 -0.4012
 9749TIP3    H150738   5.288   0.389  15.280  0.5040  2.8089 -1.8455
 9749TIP3    H250739   5.355   0.512  15.338  1.5142  0.3921  2.5262
 9750TIP3   OH250740   1.959   5.077  15.548  0.1084  0.4088  0.2576
 9750TIP3    H150741   1.968   5.037  15.634  1.0638 -0.8228 -0.3796
 9750TIP3    H250742   1.879   5.039  15.512  1.3858 -1.5932 -0.6314
 9751TIP3   OH250743   1.819   0.014  14.031 -0.0790  0.3232 -0.1479
 9751TIP3    H150744   1.905  -0.022  14.010  0.0918  1.3781 -1.4617
 9751TIP3    H250745   1.786  -0.040  14.102  1.1582 -0.8634 -0.4401
 9752TIP3   OH250746   1.853   2.675  11.052 -0.6196  0.5323 -0.1077
 9752TIP3    H150747   1.863   2.615  10.979 -2.3952  0.9978 -0.7817
 9752TIP3    H250748   1.941   2.711  11.065  0.4739 -2.0419  0.2448
 9753TIP3   OH250749   2.799   0.144   5.975 -0.4184  0.3671  0.4026
 9753TIP3    H150750   2.714   0.175   6.007 -0.8689  0.1182 -0.5032
 9753TIP3    H250751   2.786   0.050   5.961  0.4259  0.0570  1.5350
 9754TIP3   OH250752   3.551   4.914   0.851 -0.0025 -0.0723 -0.2184
 9754TIP3    H150753   3.561   4.820   0.841  1.9718  0.3074 -3.1783
 9754TIP3    H250754   3.641   4.948   0.853 -0.6377  1.8195 -0.8986
 9755TIP3   OH250755   3.313   6.272  15.787 -0.1909  0.3328  0.0389
 9755TIP3    H150756   3.343   6.354  15.748 -2.9899  1.1564 -0.6095
 9755TIP3    H250757   3.332   6.205  15.720  1.1913  0.5882  0.1532
 9756TIP3   OH250758   0.323   2.339  15.073  0.7194  0.2846 -0.1151
 9756TIP3    H150759   0.354   2.262  15.121  1.1445  1.2355  1.1781
 9756TIP3    H250760   0.383   2.347  14.999 -0.1498 -1.4017 -1.0686
 9757TIP3   OH250761   6.764   6.242   3.837 -0.1108  0.1690  0.7723
 9757TIP3    H150762   6.767   6.236   3.742 -2.1663  0.3471  0.6373
 9757TIP3    H250763   6.786   6.154   3.868  0.9252  0.2056  0.1617
 9758TIP3   OH250764   2.695   5.920  15.133  0.1722  0.5287  0.0764
 9758TIP3    H150765   2.678   5.983  15.063  3.3108  1.3268 -0.0927
 9758TIP3    H250766   2.790   5.908  15.133  0.2373 -0.2120  3.5399
 9759TIP3   OH250767   3.987   4.714  11.339  0.2753  0.1394  0.0198
 9759TIP3    H150768   3.999   4.740  11.430  0.0975  1.3297 -0.2727
 9759TIP3    H250769   3.951   4.793  11.297 -0.3137 -0.6144 -0.9234
 9760TIP3   OH250770   5.015   2.919  15.873 -0.2050 -0.6942 -0.3565
 9760TIP3    H150771   4.966   2.853  15.922 -0.3846 -2.5488 -2.8256
 9760TIP3    H250772   4.958   2.940  15.799  0.1879  1.7458 -0.0452
 9761TIP3   OH250773   0.213   0.277  11.958 -0.3851 -0.2445 -0.9607
 9761TIP3    H150774   0.232   0.217  12.029 -0.3649 -0.3049 -1.0166
 9761TIP3    H250775   0.128   0.315  11.980 -0.6727 -0.7317 -1.2206
 9762TIP3   OH250776   4.201   5.076  10.408  0.0505  0.2642 -0.2408
 9762TIP3    H150777   4.123   5.101  10.359 -0.0665 -0.8482 -0.6621
 9762TIP3    H250778   4.272   5.127  10.369 -0.1831  0.0119 -1.0145
 9763TIP3   OH250779   1.406   6.363  15.255  0.2141 -1.2361  0.4422
 9763TIP3    H150780   1.436   6.314  15.332  1.8680 -1.4961 -0.3117
 9763TIP3    H250781   1.487   6.397  15.216 -0.7483  0.7737  0.0451
 9764TIP3   OH250782   6.086   3.571  17.075  0.5933  0.1545  0.3765
 9764TIP3    H150783   6.101   3.634  17.146 -0.1464  0.2790  0.4254
 9764TIP3    H250784   6.004   3.599  17.034  1.3334  0.4882 -0.9640
 9765TIP3   OH250785   2.212   1.344  12.780  0.2944 -0.2085  0.3867
 9765TIP3    H150786   2.164   1.418  12.817 -0.9051 -1.5566  1.6766
 9765TIP3    H250787   2.274   1.319  12.848  0.7795 -0.3052 -0.0897
 9766TIP3   OH250788   3.612   4.834  16.773  0.7276 -0.0570 -0.1892
 9766TIP3    H150789   3.582   4.834  16.682  2.0605  0.9538 -0.6533
 9766TIP3    H250790   3.559   4.901  16.816 -0.5882 -1.1997  0.0527
 9767TIP3   OH250791   4.148   5.768  11.273 -0.2342  0.0272 -0.5722
 9767TIP3    H150792   4.147   5.673  11.274  1.8233 -0.0439 -1.4995
 9767TIP3    H250793   4.202   5.792  11.349 -0.1146  0.4190 -0.7765
 9768TIP3   OH250794   2.922   2.774  13.617 -0.3881  0.2152 -0.6158
 9768TIP3    H150795   2.906   2.804  13.528 -0.7037  0.2484 -0.5510
 9768TIP3    H250796   2.855   2.819  13.670 -0.8045 -0.5148 -0.5031
 9769TIP3   OH250797   5.875   1.462  14.588  0.2531  0.2325  0.3125
 9769TIP3    H150798   5.847   1.523  14.520  1.9159 -0.7190 -1.3086
 9769TIP3    H250799   5.799   1.455  14.646 -0.4754  2.7310 -0.1920
 9770TIP3   OH250800   2.801   2.112   4.863  0.7145  0.2288  0.3054
 9770TIP3    H150801   2.815   2.205   4.879 -1.9671  0.6386  0.7425
 9770TIP3    H250802   2.773   2.108   4.771 -1.0822  0.1613  0.8187
 9771TIP3   OH250803   6.614   5.687  12.478  0.0180  0.3085  0.0413
 9771TIP3    H150804   6.619   5.606  12.427  0.7443 -0.5060  1.3420
 9771TIP3    H250805   6.523   5.694  12.504  0.0734 -0.5224  0.5294
 9772TIP3   OH250806   4.601   1.990   5.371  0.0936  0.5243  0.2973
 9772TIP3    H150807   4.596   2.084   5.353  0.2893  0.3178 -0.8972
 9772TIP3    H250808   4.571   1.982   5.461 -1.2074  1.5886 -0.0098
 9773TIP3   OH250809   0.382   2.566   3.995 -0.1132  0.0637 -0.4436
 9773TIP3    H150810   0.465   2.526   4.020 -0.5604 -1.0756 -0.7108
 9773TIP3    H250811   0.350   2.608   4.074 -0.0733 -0.9131  0.1038
 9774TIP3   OH250812   6.389   0.268   1.153 -0.1110 -0.3568  0.1331
 9774TIP3    H150813   6.483   0.275   1.172 -0.5362 -0.4645  2.4867
 9774TIP3    H250814   6.354   0.356   1.169 -0.7021 -0.7658  1.1950
 9775TIP3   OH250815   5.112   2.097   4.568  0.3192  0.6839 -0.4094
 9775TIP3    H150816   5.044   2.119   4.632 -1.2105 -1.4784 -1.1716
 9775TIP3    H250817   5.152   2.018   4.603  0.7076  0.5106 -1.2451
 9776TIP3   OH250818   5.879   1.803   6.436  0.1743 -0.3359  0.2360
 9776TIP3    H150819   5.975   1.796   6.436  0.0756 -2.0560  0.6586
 9776TIP3    H250820   5.855   1.799   6.528 -0.2631  1.1708  0.2046
 9777TIP3   OH250821   2.666   4.705  13.055  0.7048 -0.0319 -0.0200
 9777TIP3    H150822   2.727   4.739  12.989  0.9054 -1.0580 -0.3855
 9777TIP3    H250823   2.653   4.614  13.030  0.3576 -0.2908  1.0610
 9778TIP3   OH250824   6.660   0.695   3.017  0.3722  0.4311  0.0279
 9778TIP3    H150825   6.615   0.658   2.941  0.9696  0.0230 -0.1362
 9778TIP3    H250826   6.734   0.743   2.980  2.5012 -2.3049  0.4428
 9779TIP3   OH250827   4.703   1.987   3.110 -0.5440  0.3196 -0.1717
 9779TIP3    H150828   4.736   2.027   3.029  1.8375  2.1082  1.5158
 9779TIP3    H250829   4.616   2.025   3.121 -0.5074  0.8186 -1.3872
 9780TIP3   OH250830   3.745   5.054   3.007 -0.0312 -0.3290 -0.4241
 9780TIP3    H150831   3.658   5.065   3.047 -0.3738 -0.1174 -1.2165
 9780TIP3    H250832   3.806   5.073   3.078 -0.6269  1.4006 -0.3394
 9781TIP3   OH250833   6.692   1.716  13.340 -0.0463  0.6594 -0.2070
 9781TIP3    H150834   6.766   1.688  13.286  0.5495 -0.4869  1.1330
 9781TIP3    H250835   6.681   1.809  13.320  1.8706  0.9033 -0.3255
 9782TIP3   OH250836   3.075   4.494   2.453 -0.2563 -0.3852  0.0088
 9782TIP3    H150837   3.168   4.473   2.446 -0.5010 -1.8108  0.7921
 9782TIP3    H250838   3.032   4.410   2.466 -1.4961  0.3999  1.2590
 9783TIP3   OH250839   0.875   1.271   0.569 -0.0681  0.2533 -0.3419
 9783TIP3    H150840   0.962   1.239   0.546  0.7507  1.0485  1.4151
 9783TIP3    H250841   0.868   1.355   0.525  0.9352  1.1365  1.0734
 9784TIP3   OH250842   3.029   5.210  16.041  0.4542 -0.2032 -0.1425
 9784TIP3    H150843   2.942   5.176  16.024  0.4797  0.3158 -1.3971
 9784TIP3    H250844   3.014   5.289  16.094  0.2959 -1.0981  1.2029
 9785TIP3   OH250845   3.489   1.780  13.671  0.3843  0.5154  0.6286
 9785TIP3    H150846   3.434   1.856  13.690  0.5704  0.8204 -0.0298
 9785TIP3    H250847   3.432   1.705  13.684  0.2529  0.7515  1.4867
 9786TIP3   OH250848   2.552   4.374   0.201  0.5384 -0.1793  0.0943
 9786TIP3    H150849   2.648   4.377   0.210  0.3857  1.0358  1.8774
 9786TIP3    H250850   2.532   4.280   0.197  1.7179 -0.5348  1.3684
 9787TIP3   OH250851   3.928   5.652  14.312 -0.2091 -0.0142 -0.0256
 9787TIP3    H150852   3.872   5.668  14.388 -1.4528 -0.0356 -0.9182
 9787TIP3    H250853   3.868   5.640  14.239  0.8688 -2.0661 -0.6682
 9788TIP3   OH250854   3.876   3.123  16.584 -0.1603 -0.5333 -0.5929
 9788TIP3    H150855   3.899   3.078  16.503  0.1527 -0.8158 -0.3521
 9788TIP3    H250856   3.790   3.089  16.608  0.2407 -1.2943 -0.2084
 9789TIP3   OH250857   5.454   0.190   0.346  0.1270 -0.0259  0.2801
 9789TIP3    H150858   5.488   0.156   0.428  0.4882  0.6871  0.4354
 9789TIP3    H250859   5.527   0.180   0.284 -0.1185 -0.4920  0.0578
 9790TIP3   OH250860   2.638   2.459  13.925  0.3528  0.1241  0.0229
 9790TIP3    H150861   2.596   2.395  13.982  1.3387  0.1432  0.7981
 9790TIP3    H250862   2.728   2.464  13.957  0.2142  2.1521  0.2288
 9791TIP3   OH250863   1.181   3.214  15.356  0.1535 -0.2158  0.1753
 9791TIP3    H150864   1.241   3.234  15.428 -0.5493  2.0721  0.2109
 9791TIP3    H250865   1.155   3.300  15.322  1.1425 -1.1746 -3.4209
 9792TIP3   OH250866   0.015   3.079   6.006 -0.9790 -0.0600 -0.3092
 9792TIP3    H150867   0.087   3.106   6.063 -2.1183 -0.5302  1.4066
 9792TIP3    H250868   0.032   2.987   5.987 -0.5603  0.1161 -0.8143
 9793TIP3   OH250869   5.085   0.647   4.474 -0.0307  0.4141 -0.3850
 9793TIP3    H150870   5.056   0.738   4.464 -1.2974 -0.0547 -1.1545
 9793TIP3    H250871   5.004   0.596   4.476  0.6891 -0.7838 -0.8576
 9794TIP3   OH250872   0.322   1.541  17.072  0.2886 -0.0940 -0.4338
 9794TIP3    H150873   0.393   1.494  17.117 -0.9947 -0.7010  1.0298
 9794TIP3    H250874   0.282   1.595  17.140  0.0400  1.1053 -1.5000
 9795TIP3   OH250875   3.151   5.532  12.445 -0.1365 -0.3894  0.2717
 9795TIP3    H150876   3.212   5.506  12.515  0.1660 -0.5756 -0.0608
 9795TIP3    H250877   3.146   5.627  12.453  1.5237 -0.1694 -0.7579
 9796TIP3   OH250878   3.692   4.716   0.990 -0.5011  0.2684  0.0400
 9796TIP3    H150879   3.632   4.726   1.064 -0.2044  0.4234  0.2569
 9796TIP3    H250880   3.749   4.793   0.994  0.6193 -0.5702  0.6559
 9797TIP3   OH250881   2.644   6.589   2.154  0.0250 -0.1452 -0.2686
 9797TIP3    H150882   2.697   6.522   2.111 -0.5402 -0.5972 -0.2708
 9797TIP3    H250883   2.703   6.663   2.165  0.5522 -0.5119 -0.6028
 9798TIP3   OH250884   4.001   5.501  15.063  0.3665  0.3047  0.4180
 9798TIP3    H150885   4.032   5.505  14.972  0.2715 -1.0810  0.2967
 9798TIP3    H250886   3.915   5.458  15.056  0.1453  0.6248  1.1229
 9799TIP3   OH250887   6.048   6.813   4.400 -0.5789  0.3848 -0.1863
 9799TIP3    H150888   5.995   6.734   4.413  1.9165 -1.4460 -0.5159
 9799TIP3    H250889   6.058   6.849   4.488 -1.1841 -0.0213  0.0637
 9800TIP3   OH250890   0.551   1.269  12.444 -0.7375 -0.0876 -0.5318
 9800TIP3    H150891   0.460   1.255  12.420 -1.0289 -0.2786  0.6236
 9800TIP3    H250892   0.564   1.214  12.521 -0.9846  3.4046  2.2257
 9801TIP3   OH250893   3.812   4.972  12.849 -0.1937 -0.1448  0.2383
 9801TIP3    H150894   3.800   5.066  12.840 -0.6822 -0.2921 -0.7939
 9801TIP3    H250895   3.883   4.951  12.788  1.3628 -0.1660  1.9560
 9802TIP3   OH250896   6.228   1.081  11.547  0.4258  0.0930 -0.1194
 9802TIP3    H150897   6.282   1.008  11.579  2.3086  1.3350 -0.3215
 9802TIP3    H250898   6.198   1.125  11.626  2.0538  1.0055  0.0433
 9803TIP3   OH250899   2.129   4.135   1.932  0.3766 -0.1310 -0.0600
 9803TIP3    H150900   2.068   4.162   2.000 -0.9356  1.2168 -1.6810
 9803TIP3    H250901   2.124   4.039   1.931 -0.7650 -0.0937  0.6735
 9804TIP3   OH250902   4.453   6.403  16.275 -0.4595  0.1511  0.5329
 9804TIP3    H150903   4.465   6.329  16.215 -0.8392  0.0471  0.5826
 9804TIP3    H250904   4.460   6.480  16.219 -0.9688  0.0509  0.3257
 9805TIP3   OH250905   2.197   4.806   4.572 -0.5191  0.4517 -0.3937
 9805TIP3    H150906   2.282   4.764   4.559  0.0267  1.7282 -1.1662
 9805TIP3    H250907   2.206   4.853   4.655 -0.0739  1.4587 -0.9942
 9806TIP3   OH250908   5.579   0.876   4.970 -0.3141 -0.6161  0.1592
 9806TIP3    H150909   5.636   0.841   4.902 -0.3671  0.6680 -0.5723
 9806TIP3    H250910   5.556   0.963   4.940 -3.7081 -1.4983 -0.1996
 9807TIP3   OH250911   6.572   1.685  11.837 -0.6727  0.3418 -0.0381
 9807TIP3    H150912   6.533   1.608  11.879 -2.5802  0.7329 -0.9866
 9807TIP3    H250913   6.666   1.668  11.838 -0.5588  0.1806  4.0702
 9808TIP3   OH250914   4.367   2.011   4.184 -0.2692 -0.0918  0.1623
 9808TIP3    H150915   4.306   1.943   4.157 -1.5621  0.1852  2.1739
 9808TIP3    H250916   4.450   1.987   4.143 -1.3278 -1.3525 -1.3586
 9809TIP3   OH250917   4.341   5.382  15.982  0.1976  0.1436 -0.5887
 9809TIP3    H150918   4.246   5.371  15.989  0.0969  1.6214  0.9286
 9809TIP3    H250919   4.354   5.476  15.975  1.5429 -0.0866 -1.7652
 9810TIP3   OH250920   2.522   5.572  14.089 -0.1071 -0.0079  0.3098
 9810TIP3    H150921   2.608   5.584  14.130 -0.3402 -0.3299  0.8941
 9810TIP3    H250922   2.459   5.601  14.155 -0.4593  0.1330 -0.0810
 9811TIP3   OH250923   3.507   0.778   0.367  0.6674  0.4187  0.3471
 9811TIP3    H150924   3.480   0.770   0.459  0.4711 -2.5969  0.1182
 9811TIP3    H250925   3.590   0.825   0.371 -0.2938  2.1091  1.8487
 9812TIP3   OH250926   4.011   5.527  16.369  0.0428 -0.0844 -0.1312
 9812TIP3    H150927   3.956   5.515  16.446 -1.1755 -0.6796 -1.0738
 9812TIP3    H250928   4.081   5.462  16.380 -0.2211 -0.2889  0.3817
 9813TIP3   OH250929   2.662   1.640   2.798  0.1660  0.1916 -0.5837
 9813TIP3    H150930   2.733   1.589   2.760  0.8308  0.3565  0.4048
 9813TIP3    H250931   2.663   1.723   2.750  1.0429  0.4298 -0.1627
 9814TIP3   OH250932   2.285   2.532  17.154  0.0506  0.1180 -0.6851
 9814TIP3    H150933   2.264   2.524  17.247 -0.0679 -0.7223 -0.7816
 9814TIP3    H250934   2.371   2.574  17.152  0.2447 -0.2508 -0.1831
 9815TIP3   OH250935   5.402   5.297   3.163 -0.4368  0.1306 -0.1081
 9815TIP3    H150936   5.496   5.304   3.175 -0.1746  1.8265 -2.4745
 9815TIP3    H250937   5.392   5.251   3.079 -1.7173  0.0362  0.0785
 9816TIP3   OH250938   6.395   1.053  13.213 -0.5241  0.4641  0.4413
 9816TIP3    H150939   6.378   1.115  13.142 -1.5613  0.6728  0.8560
 9816TIP3    H250940   6.384   1.104  13.293 -2.1761 -0.3836  0.8125
 9817TIP3   OH250941   2.546   3.564  16.791  0.2563  0.0529 -0.2777
 9817TIP3    H150942   2.592   3.559  16.707 -0.2519 -0.5084 -0.5251
 9817TIP3    H250943   2.460   3.599  16.770 -0.1379 -0.7934 -0.0957
 9818TIP3   OH250944   6.349   3.584   3.840  0.2781 -0.4145  0.9545
 9818TIP3    H150945   6.402   3.649   3.886  2.1878 -0.0850 -1.5043
 9818TIP3    H250946   6.359   3.606   3.748 -1.0764 -2.7054  0.1872
 9819TIP3   OH250947   3.504   4.693  17.103 -0.0953  0.0672 -0.5926
 9819TIP3    H150948   3.538   4.607  17.129 -0.0010  0.0485 -0.7742
 9819TIP3    H250949   3.581   4.749  17.101  0.0692 -0.1546 -1.7683
 9820TIP3   OH250950   5.728   1.647   5.147  0.4285  0.2218  0.0684
 9820TIP3    H150951   5.673   1.575   5.180  2.8117 -1.3714  0.8603
 9820TIP3    H250952   5.713   1.718   5.210 -0.1529 -0.4332  0.7035
 9821TIP3   OH250953   4.395   0.045  16.308  0.5303  0.0552 -0.0568
 9821TIP3    H150954   4.338   0.110  16.350  0.8703 -1.0826  2.3053
 9821TIP3    H250955   4.482   0.085  16.310  0.4411  0.2756 -0.3452
 9822TIP3   OH250956   0.887   2.712  12.699  0.7014  0.4391  0.4472
 9822TIP3    H150957   0.928   2.780  12.753  1.3017 -1.9615  3.2336
 9822TIP3    H250958   0.950   2.640  12.698 -1.2633 -1.3801  0.4229
 9823TIP3   OH250959   4.527   0.244  10.763 -0.1811 -0.3929 -0.3226
 9823TIP3    H150960   4.578   0.241  10.682 -0.7672 -1.0712 -0.6743
 9823TIP3    H250961   4.497   0.154  10.776 -0.0255 -0.2985  0.6919
 9824TIP3   OH250962   1.927   6.568  13.564  0.0893  0.4287 -0.1910
 9824TIP3    H150963   1.843   6.523  13.555 -0.7093  1.6490  0.8692
 9824TIP3    H250964   1.916   6.649  13.516  0.8657  0.3725 -0.4888
 9825TIP3   OH250965   6.432   1.928  14.107 -0.7262 -1.0328 -0.1816
 9825TIP3    H150966   6.346   1.928  14.064  0.5468 -0.5337 -2.9101
 9825TIP3    H250967   6.428   1.855  14.169 -3.4225 -0.3978  0.5285
 9826TIP3   OH250968   6.211   5.487   4.505 -0.1369 -0.2053  0.2664
 9826TIP3    H150969   6.153   5.411   4.504  0.4237 -0.6602 -1.1264
 9826TIP3    H250970   6.278   5.466   4.570 -0.0634 -0.8486 -0.0101
 9827TIP3   OH250971   2.525   2.788   2.027 -0.1882  0.2198  0.0838
 9827TIP3    H150972   2.523   2.706   2.076 -4.2394  0.2309  0.2669
 9827TIP3    H250973   2.547   2.763   1.938 -1.0599 -1.0904  0.2041
 9828TIP3   OH250974   1.456   0.298   0.335  0.0195 -0.2829 -0.0354
 9828TIP3    H150975   1.548   0.273   0.349  0.3996  2.1689  3.1748
 9828TIP3    H250976   1.409   0.215   0.332  2.1962 -1.5854 -0.8794
 9829TIP3   OH250977   2.280   6.334  12.890 -0.2473 -0.1111 -0.9311
 9829TIP3    H150978   2.364   6.289  12.889 -0.9354 -1.4611 -1.8338
 9829TIP3    H250979   2.288   6.403  12.823  1.0526  1.6771  0.9472
 9830TIP3   OH250980   5.125   5.622  13.922 -0.0672 -0.0867 -0.2569
 9830TIP3    H150981   5.199   5.561  13.918  0.7770  0.7534  1.3310
 9830TIP3    H250982   5.066   5.583  13.988 -0.1710  0.1412 -0.2145
 9831TIP3   OH250983   4.384   3.779   5.319  0.0596  0.0727  0.2462
 9831TIP3    H150984   4.397   3.690   5.351 -0.9789 -0.1711  0.0301
 9831TIP3    H250985   4.411   3.775   5.227  0.1326  0.0051  0.2704
 9832TIP3   OH250986   1.144   5.482  13.640 -0.3611  0.2763  0.6394
 9832TIP3    H150987   1.131   5.487  13.545 -0.7999  2.0695  0.7592
 9832TIP3    H250988   1.199   5.404  13.652 -1.4177 -0.7923 -0.9384
 9833TIP3   OH250989   0.217   1.484  13.840  0.3846 -0.5364  0.0273
 9833TIP3    H150990   0.261   1.410  13.881 -0.6743 -1.2440 -0.1009
 9833TIP3    H250991   0.169   1.447  13.766 -2.1832 -0.1664  1.4074
 9834TIP3   OH250992   1.066   3.974   1.683 -0.5367 -0.0111 -0.1547
 9834TIP3    H150993   1.085   3.956   1.591  0.1418  0.5443 -0.1261
 9834TIP3    H250994   1.050   4.068   1.687 -0.4874 -0.0203  0.3094
 9835TIP3   OH250995   3.331   4.192  12.620 -0.1196 -0.4974 -0.6350
 9835TIP3    H150996   3.240   4.165  12.609 -0.0516 -1.1629  0.3315
 9835TIP3    H250997   3.382   4.111  12.612  0.1651 -0.5648  1.3844
 9836TIP3   OH250998   5.847   1.677  17.116 -0.0425  0.0331  0.1867
 9836TIP3    H150999   5.914   1.715  17.173  0.9694 -1.7179  0.2197
 9836TIP3    H251000   5.822   1.749  17.058  2.1008  0.6646 -0.0490
 9837TIP3   OH251001   2.593   3.119  16.235  0.1771 -0.4911  0.1243
 9837TIP3    H151002   2.647   3.082  16.166 -0.7605 -0.7718 -0.4685
 9837TIP3    H251003   2.537   3.183  16.190 -0.7145 -0.9580  0.5558
 9838TIP3   OH251004   4.760   2.036  13.614 -0.0913  0.2614 -0.4384
 9838TIP3    H151005   4.737   2.079  13.696  0.6813  1.5277 -0.8618
 9838TIP3    H251006   4.785   1.947  13.639 -2.3817 -0.2115  0.3786
 9839TIP3   OH251007   0.212   1.636   2.381 -0.2572  0.1389  0.3891
 9839TIP3    H151008   0.242   1.714   2.335 -0.3058 -0.8783 -1.4729
 9839TIP3    H251009   0.290   1.605   2.428  0.6851 -0.4350 -1.4473
 9840TIP3   OH251010   3.262   6.682   0.514  0.1453  0.0147 -0.3314
 9840TIP3    H151011   3.174   6.646   0.526 -0.0560  0.9951  1.5691
 9840TIP3    H251012   3.289   6.652   0.427 -2.2506  0.0891 -1.1758
 9841TIP3   OH251013   4.773   3.780  13.929  0.0833 -0.3612  0.4363
 9841TIP3    H151014   4.685   3.811  13.951  0.1374  1.5340 -1.6491
 9841TIP3    H251015   4.832   3.844  13.968  0.5128 -0.9602  0.7998
 9842TIP3   OH251016   3.558   1.646  10.776  0.6738 -0.3207 -0.1294
 9842TIP3    H151017   3.474   1.667  10.734  0.4984  0.0732  0.4027
 9842TIP3    H251018   3.578   1.558  10.746 -0.7291 -1.0584  0.9552
 9843TIP3   OH251019   2.332   6.636   5.831 -0.0510 -0.0275 -0.1137
 9843TIP3    H151020   2.301   6.716   5.789 -1.0050 -1.2227 -1.7956
 9843TIP3    H251021   2.347   6.661   5.922 -0.4786  2.0068 -0.5621
 9844TIP3   OH251022   0.434   2.939  17.145 -0.3410 -0.3948  0.3219
 9844TIP3    H151023   0.477   2.967  17.063 -1.5548  0.3263 -0.0969
 9844TIP3    H251024   0.346   2.913  17.118 -0.7522 -0.1524  1.4048
 9845TIP3   OH251025   2.407   2.964   5.474 -0.2915  0.5530  0.1082
 9845TIP3    H151026   2.417   2.968   5.379  1.2269  2.4754  0.2844
 9845TIP3    H251027   2.485   3.008   5.508 -0.1751 -1.1565  2.2981
 9846TIP3   OH251028   3.717   6.506  14.418  0.1373 -0.5810  0.1829
 9846TIP3    H151029   3.622   6.515  14.405 -0.3529 -0.3063  3.1573
 9846TIP3    H251030   3.754   6.509  14.330 -2.7395 -2.5375 -1.2474
 9847TIP3   OH251031   0.148   4.946   4.944 -0.3351 -0.8862  0.3579
 9847TIP3    H151032   0.189   4.885   5.006  0.7505  0.1418  0.6996
 9847TIP3    H251033   0.074   4.897   4.908  0.5353 -2.4256  0.5546
 9848TIP3   OH251034   2.876   2.955  15.811 -0.0786  0.4161  0.9399
 9848TIP3    H151035   2.915   3.042  15.804  2.6520 -0.8170 -0.8438
 9848TIP3    H251036   2.834   2.940  15.726  1.5861 -0.8323  0.2623
 9849TIP3   OH251037   0.030   4.081   4.581 -0.5470 -0.2219  0.2373
 9849TIP3    H151038  -0.001   4.087   4.491 -1.3452  2.1890  0.5907
 9849TIP3    H251039  -0.001   4.162   4.622  1.7921 -0.1506  2.0592
 9850TIP3   OH251040   5.900   6.740   3.779 -0.9718 -0.0417 -0.1344
 9850TIP3    H151041   5.965   6.672   3.793  0.2609  1.2410  0.6199
 9850TIP3    H251042   5.847   6.738   3.859 -1.1347 -0.3189 -0.2485
 9851TIP3   OH251043   4.549   5.133   1.852 -0.4268 -0.0367 -0.6461
 9851TIP3    H151044   4.454   5.121   1.842 -0.6355  0.4834  0.5015
 9851TIP3    H251045   4.588   5.067   1.794 -1.4874 -0.1387 -1.2632
 9852TIP3   OH251046   4.999   1.337   6.083 -0.3554 -0.4354 -0.0051
 9852TIP3    H151047   4.914   1.308   6.114 -0.0072 -0.4236  0.9821
 9852TIP3    H251048   5.059   1.266   6.107  0.0555 -0.0698  0.0604
 9853TIP3   OH251049   1.518   5.415   0.660 -0.8374  0.1196 -0.3863
 9853TIP3    H151050   1.478   5.333   0.689 -0.7571 -0.0800 -0.8384
 9853TIP3    H251051   1.490   5.479   0.725 -0.6318 -0.3305  0.1534
 9854TIP3   OH251052   5.946   0.248   4.093 -0.7789  0.2685  0.2244
 9854TIP3    H151053   5.888   0.287   4.157 -0.1561 -0.5388  1.3080
 9854TIP3    H251054   5.892   0.238   4.014 -1.7694  0.5411  0.8589
 9855TIP3   OH251055   6.102   6.805   4.115 -0.2696  0.0379 -0.4880
 9855TIP3    H151056   6.063   6.891   4.102 -0.2228  0.1418  0.0656
 9855TIP3    H251057   6.094   6.788   4.209  1.3054  0.2076 -0.3043
 9856TIP3   OH251058   3.529   4.632   2.036 -0.8225  0.0204 -0.1875
 9856TIP3    H151059   3.446   4.671   2.063 -0.1394  0.2648  1.6981
 9856TIP3    H251060   3.595   4.673   2.092  0.3781 -1.2354 -0.6126
 9857TIP3   OH251061   4.116   2.553   0.272 -0.0454  0.2315 -0.2837
 9857TIP3    H151062   4.030   2.581   0.303  0.2978  1.5362 -0.4551
 9857TIP3    H251063   4.104   2.540   0.177 -0.8485 -2.8187  0.1231
 9858TIP3   OH251064   2.279   5.980   5.020 -0.1792  0.1735  0.0375
 9858TIP3    H151065   2.188   6.005   5.006 -0.5720  0.8581  3.0449
 9858TIP3    H251066   2.274   5.888   5.049  0.1563  0.0207 -0.3826
 9859TIP3   OH251067   6.312   3.315  13.929  0.1934  0.0347  0.5976
 9859TIP3    H151068   6.367   3.288  14.002 -1.0469  1.1124  1.9868
 9859TIP3    H251069   6.268   3.395  13.959 -1.5120 -0.3199 -0.7465
 9860TIP3   OH251070   0.089   3.187  14.860  0.4618  0.5912  0.3278
 9860TIP3    H151071   0.034   3.109  14.866 -1.6542  2.1087  2.1681
 9860TIP3    H251072   0.173   3.154  14.826 -0.4590 -2.3776  0.6203
 9861TIP3   OH251073   3.382   0.240  12.177  0.1083  0.0603  0.1945
 9861TIP3    H151074   3.471   0.271  12.190 -0.0982  0.9204 -0.3401
 9861TIP3    H251075   3.384   0.148  12.203  0.7966  0.4540  1.5960
 9862TIP3   OH251076   1.122   0.590   1.519  0.4937  0.7375 -1.1613
 9862TIP3    H151077   1.187   0.640   1.569 -0.1768  0.7241 -0.2534
 9862TIP3    H251078   1.173   0.519   1.479  0.7105 -0.8903  1.6925
 9863TIP3   OH251079   0.044   0.445  11.649 -0.3075 -0.2741 -0.3095
 9863TIP3    H151080   0.097   0.367  11.641 -2.9174 -2.2947  0.5879
 9863TIP3    H251081   0.028   0.473  11.559  1.1241 -0.4082 -0.6204
 9864TIP3   OH251082   5.249   4.177   1.720 -0.0290 -0.7337 -0.0701
 9864TIP3    H151083   5.237   4.174   1.815  0.5307 -0.5497  0.0116
 9864TIP3    H251084   5.333   4.223   1.708  0.6039 -1.9909 -0.6038
 9865TIP3   OH251085   6.601   2.728   4.955 -0.1950 -0.1801  0.3534
 9865TIP3    H151086   6.559   2.647   4.925  0.4568  0.2338 -1.9032
 9865TIP3    H251087   6.562   2.796   4.900  1.2510  0.6234  0.2641
 9866TIP3   OH251088   2.098   6.193   4.777 -0.1971  0.1932  0.2578
 9866TIP3    H151089   2.087   6.276   4.822 -1.1395 -0.9314  2.2444
 9866TIP3    H251090   2.024   6.139   4.807  1.4488 -2.0097  0.6315
 9867TIP3   OH251091   3.463   3.788  13.543 -0.1196 -0.0422  0.6231
 9867TIP3    H151092   3.429   3.762  13.457  2.8212 -1.3564 -0.2697
 9867TIP3    H251093   3.501   3.875  13.529 -0.1691  0.0019  0.7594
 9868TIP3   OH251094   4.709   6.262   5.779 -0.2387 -0.0745  0.0045
 9868TIP3    H151095   4.640   6.211   5.737  0.5244 -0.3006 -1.0362
 9868TIP3    H251096   4.772   6.197   5.809 -0.2228  0.1547  0.4694
 9869TIP3   OH251097   5.050   5.646  10.827 -0.1422 -0.1985 -0.3189
 9869TIP3    H151098   5.126   5.704  10.815  0.1385 -0.3271  0.7605
 9869TIP3    H251099   5.087   5.558  10.828 -0.4102 -0.3149 -0.6113
 9870TIP3   OH251100   6.115   3.996   0.799 -0.0280  0.0390 -0.3313
 9870TIP3    H151101   6.174   4.069   0.779 -0.3026  0.3375 -0.0672
 9870TIP3    H251102   6.139   3.970   0.888 -1.5380  1.4139  0.5481
 9871TIP3   OH251103   2.884   0.771   3.301  0.2974  0.2552 -0.2441
 9871TIP3    H151104   2.866   0.843   3.240 -0.3377  1.2795  1.0827
 9871TIP3    H251105   2.973   0.743   3.279  0.0504  0.5185 -1.6896
 9872TIP3   OH251106   2.686   1.616   1.212  0.7549  0.8966  0.0005
 9872TIP3    H151107   2.593   1.625   1.191  0.6784  1.7461  0.6325
 9872TIP3    H251108   2.695   1.528   1.248  0.3042  0.6148 -0.5548
 9873TIP3   OH251109   5.189   5.722  11.863  0.4249 -0.6541 -0.2709
 9873TIP3    H151110   5.204   5.817  11.868  1.5166 -0.8428  0.4188
 9873TIP3    H251111   5.147   5.709  11.777 -0.4360  0.5207 -0.0563
 9874TIP3   OH251112   3.290   2.516  12.574 -0.0165 -0.4637  0.1496
 9874TIP3    H151113   3.325   2.603  12.556  0.1011 -0.7483 -1.0746
 9874TIP3    H251114   3.260   2.484  12.489 -0.2314 -1.5482  0.6159
 9875TIP3   OH251115   6.453   2.958  15.382  0.0416  0.2513  0.0933
 9875TIP3    H151116   6.361   2.976  15.363  0.7409  3.5948 -0.7842
 9875TIP3    H251117   6.452   2.872  15.425 -3.2567 -0.6327 -1.4148
 9876TIP3   OH251118   5.918   0.925   6.536  0.2897 -0.8222  0.4925
 9876TIP3    H151119   5.913   0.843   6.488 -1.3244 -0.8911  0.7292
 9876TIP3    H251120   5.998   0.918   6.589  0.4416 -2.0075  0.1229
 9877TIP3   OH251121   6.761   6.144  17.069 -0.3017  0.0359 -0.3012
 9877TIP3    H151122   6.758   6.116  17.160  0.1339 -2.4841 -0.9915
 9877TIP3    H251123   6.671   6.134  17.037  0.0362 -1.6762 -0.8091
 9878TIP3   OH251124   1.947   1.446  13.199 -0.0600 -0.1905 -0.5080
 9878TIP3    H151125   1.935   1.353  13.218 -0.5093  0.1057  0.7801
 9878TIP3    H251126   1.926   1.490  13.281  1.2634  0.9738 -0.7511
 9879TIP3   OH251127   4.614   3.325   1.033 -0.0886  0.0261 -0.0434
 9879TIP3    H151128   4.530   3.354   0.997  0.2449 -1.0525 -1.7913
 9879TIP3    H251129   4.679   3.377   0.985  0.2679  0.7346  1.1802
 9880TIP3   OH251130   4.699   4.080   1.661  0.3877 -0.1349 -0.3352
 9880TIP3    H151131   4.665   4.000   1.703  2.6579 -1.3259 -0.6396
 9880TIP3    H251132   4.626   4.111   1.608 -0.8526 -1.5135  0.4655
 9881TIP3   OH251133   4.724   5.806  14.915 -0.0609 -0.0370  0.4320
 9881TIP3    H151134   4.714   5.871  14.984  1.6314  0.8006 -0.0678
 9881TIP3    H251135   4.729   5.857  14.834  3.1268 -0.5558  0.1765
 9882TIP3   OH251136   0.604   0.551   3.378  0.4556 -0.0800 -0.0326
 9882TIP3    H151137   0.535   0.540   3.442  0.3322  1.0241  0.0472
 9882TIP3    H251138   0.596   0.642   3.349  1.5139 -0.0944 -0.4365
 9883TIP3   OH251139   5.866   2.995   3.832 -0.3337 -0.1162  0.3958
 9883TIP3    H151140   5.882   2.903   3.814 -1.0155 -0.2582  0.4778
 9883TIP3    H251141   5.873   3.038   3.747 -0.6274 -0.3435  0.2507
 9884TIP3   OH251142   1.836   0.814  12.195 -0.1836 -0.3186 -0.3890
 9884TIP3    H151143   1.868   0.897  12.162 -1.5143  1.1071  1.6504
 9884TIP3    H251144   1.744   0.812  12.169  0.1484 -1.8266 -1.5729
 9885TIP3   OH251145   6.018   4.556  12.742 -0.0204 -0.2159  0.8710
 9885TIP3    H151146   6.054   4.629  12.691 -1.6268 -0.5410 -0.8434
 9885TIP3    H251147   6.036   4.478  12.689 -1.1146 -0.6606  1.1207
 9886TIP3   OH251148   2.539   0.157   4.562 -0.0494  0.4374  0.5400
 9886TIP3    H151149   2.498   0.241   4.545  0.8135  0.6744 -0.4384
 9886TIP3    H251150   2.553   0.118   4.475  1.2666  0.1212  0.8757
 9887TIP3   OH251151   0.326   3.309  13.479  0.2639  0.7996  0.7969
 9887TIP3    H151152   0.405   3.285  13.527  0.4259  1.1510  0.7076
 9887TIP3    H251153   0.289   3.225  13.451  0.5685  0.6302  0.8921
 9888TIP3   OH251154   6.417   6.225   5.095  0.2026 -0.4237  0.5438
 9888TIP3    H151155   6.338   6.170   5.098 -0.7076  0.8763  2.2345
 9888TIP3    H251156   6.385   6.312   5.070  1.1179  0.0596  0.9943
 9889TIP3   OH251157   0.150   5.827  14.832 -0.1777  0.0912  0.4135
 9889TIP3    H151158   0.244   5.807  14.832 -0.2562 -0.3073  1.0110
 9889TIP3    H251159   0.125   5.824  14.739  0.3096 -0.2478  0.2876
 9890TIP3   OH251160   6.554   6.721  12.264 -0.3615 -0.7147 -0.0332
 9890TIP3    H151161   6.476   6.668  12.249  0.4501 -2.1030  0.5097
 9890TIP3    H251162   6.552   6.741  12.357 -1.9844  2.4373 -0.5986
 9891TIP3   OH251163   4.791   3.218   3.864 -0.2146 -0.2947  0.3021
 9891TIP3    H151164   4.756   3.196   3.778 -1.2888  0.5710  0.5008
 9891TIP3    H251165   4.714   3.219   3.921  0.2566  0.7538  0.9396
 9892TIP3   OH251166   1.894   1.819   3.231 -0.3896 -0.1805  0.2316
 9892TIP3    H151167   1.823   1.819   3.295 -1.2570  0.4159 -0.7070
 9892TIP3    H251168   1.885   1.902   3.185 -0.8662 -1.3164 -1.8312
 9893TIP3   OH251169   6.804   0.143   3.743 -0.0941  0.4947  0.0581
 9893TIP3    H151170   6.885   0.161   3.694  0.4119  0.5882  0.9134
 9893TIP3    H251171   6.763   0.228   3.755 -0.9602  0.3169 -1.4366
 9894TIP3   OH251172   4.588   0.653   4.037  1.0635 -0.4608 -0.2627
 9894TIP3    H151173   4.596   0.738   3.993 -0.8638 -0.2089 -0.1916
 9894TIP3    H251174   4.528   0.603   3.982  0.7472 -1.1202  0.6564
 9895TIP3   OH251175   5.826   2.391   2.060  0.2728  0.0541 -0.0280
 9895TIP3    H151176   5.737   2.390   2.094  0.4031 -1.1875  0.3313
 9895TIP3    H251177   5.864   2.308   2.089  1.4119  0.3734 -0.5304
 9896TIP3   OH251178   1.398   2.163  16.191 -0.7321 -0.1397  0.0839
 9896TIP3    H151179   1.336   2.090  16.192 -0.9949  0.0661 -0.7676
 9896TIP3    H251180   1.475   2.130  16.236 -0.9490 -0.8528 -0.0631
 9897TIP3   OH251181   2.092   6.210   6.481 -0.2606 -0.5776  0.4642
 9897TIP3    H151182   2.014   6.186   6.531 -0.8723 -0.8637 -0.5896
 9897TIP3    H251183   2.059   6.261   6.407  0.4462 -1.4447 -0.4808
 9898TIP3   OH251184   5.385   0.745   5.249  0.2207 -0.3625 -0.4882
 9898TIP3    H151185   5.292   0.766   5.250  0.4839  0.9173 -0.0745
 9898TIP3    H251186   5.410   0.748   5.157 -0.6256 -3.2025 -0.8865
 9899TIP3   OH251187   4.645   1.067  15.046 -0.0945 -0.2885  0.3811
 9899TIP3    H151188   4.700   1.144  15.062  0.8860 -0.1179 -2.9962
 9899TIP3    H251189   4.704   0.993  15.061  1.0417 -0.1198 -2.5795
 9900TIP3   OH251190   6.449   4.134  13.430 -0.2674  0.1631  0.3184
 9900TIP3    H151191   6.502   4.187  13.370 -1.4005  0.3227 -0.5897
 9900TIP3    H251192   6.496   4.137  13.513  0.1328  1.9173  0.0785
 9901TIP3   OH251193   1.325   1.898   4.574 -0.0537 -0.0606 -0.4064
 9901TIP3    H151194   1.244   1.918   4.527 -0.1656 -1.4479 -0.8504
 9901TIP3    H251195   1.296   1.852   4.653  0.2893 -0.3137 -0.4277
 9902TIP3   OH251196   6.610   0.233  15.065 -0.4701 -0.0381 -0.5358
 9902TIP3    H151197   6.616   0.287  15.144 -0.6290  0.1123 -0.6241
 9902TIP3    H251198   6.586   0.146  15.097  1.4252 -0.5050 -0.2300
 9903TIP3   OH251199   2.022   5.762   3.221 -0.0159  0.3230  0.7253
 9903TIP3    H151200   2.109   5.794   3.247  0.5366 -0.7649  0.3104
 9903TIP3    H251201   2.024   5.762   3.126  0.3679 -1.7479  0.6826
 9904TIP3   OH251202   4.126   3.789  12.431  0.5812  0.2884  0.0663
 9904TIP3    H151203   4.145   3.724  12.500  0.7510 -0.3616 -0.5805
 9904TIP3    H251204   4.041   3.763  12.397  0.5862  0.4953 -0.1005
 9905TIP3   OH251205   2.338   3.994  15.155  0.2793  0.2599 -0.1308
 9905TIP3    H151206   2.397   4.064  15.184 -0.3755  0.2843  1.2120
 9905TIP3    H251207   2.393   3.915  15.156  0.7835  0.5866 -0.7922
 9906TIP3   OH251208   5.226   0.080  13.979 -0.9354 -0.1058  0.4956
 9906TIP3    H151209   5.243   0.007  13.919 -1.6377  1.0130 -1.1356
 9906TIP3    H251210   5.152   0.126  13.941 -1.2306  0.8274  2.0974
 9907TIP3   OH251211   1.740   3.094  16.713 -0.5653 -0.3194  0.5984
 9907TIP3    H151212   1.663   3.041  16.693 -0.3674  0.0383 -1.2797
 9907TIP3    H251213   1.801   3.033  16.755 -0.9399 -1.2038 -0.1185
 9908TIP3   OH251214   1.163   0.789  10.240  0.4938  0.1993 -0.5307
 9908TIP3    H151215   1.138   0.710  10.288 -0.5668  1.2641  0.7468
 9908TIP3    H251216   1.246   0.815  10.279  1.1205 -0.5348 -1.3166
 9909TIP3   OH251217   5.474   5.131  12.598 -0.4312  0.3544 -0.0726
 9909TIP3    H151218   5.432   5.097  12.677 -0.4423  1.5725  0.4712
 9909TIP3    H251219   5.464   5.061  12.533 -2.0953  0.0553  0.4512
 9910TIP3   OH251220   3.857   4.926   2.752 -0.3716 -0.8572  0.6685
 9910TIP3    H151221   3.902   5.003   2.718 -1.5096 -0.8953 -1.0209
 9910TIP3    H251222   3.851   4.942   2.846 -2.3445  2.1433  0.1843
 9911TIP3   OH251223   1.858   1.385   6.388  0.2484 -0.4481 -0.2156
 9911TIP3    H151224   1.808   1.393   6.469  0.1841 -0.2853 -0.2703
 9911TIP3    H251225   1.847   1.469   6.344  0.2544 -0.5467 -0.4103
 9912TIP3   OH251226   2.282   6.521  14.711 -0.2944  0.3948  0.6900
 9912TIP3    H151227   2.260   6.428  14.697  1.5170  0.2252 -1.5563
 9912TIP3    H251228   2.236   6.567  14.641  1.6942  0.6968 -0.4897
 9913TIP3   OH251229   3.275   2.424   1.470  0.1187 -0.1450 -0.1343
 9913TIP3    H151230   3.324   2.460   1.396  0.3628  0.8112  0.4763
 9913TIP3    H251231   3.303   2.476   1.545  0.5810 -1.7022  0.8213
 9914TIP3   OH251232   5.699   2.219  11.193  0.5443  0.3416  0.0628
 9914TIP3    H151233   5.624   2.216  11.133  1.4225  1.5352 -1.1338
 9914TIP3    H251234   5.659   2.229  11.280 -0.6742  1.9856 -0.6426
 9915TIP3   OH251235   1.478   4.785  10.671 -0.5590 -0.1125  0.1790
 9915TIP3    H151236   1.446   4.805  10.759 -0.8488 -1.8327  0.4951
 9915TIP3    H251237   1.570   4.762  10.682  0.0327  1.8422 -0.3112
 9916TIP3   OH251238   3.368   2.315   5.229  0.2145  0.2289  0.4973
 9916TIP3    H151239   3.448   2.284   5.272 -1.0991 -0.9548  2.2446
 9916TIP3    H251240   3.321   2.236   5.206 -0.4450  0.9104 -0.5741
 9917TIP3   OH251241   5.904   3.738  10.343  0.0103 -0.0146 -0.2818
 9917TIP3    H151242   5.812   3.753  10.364  0.2782 -0.1448  1.1520
 9917TIP3    H251243   5.940   3.826  10.327 -0.6316 -0.0665 -2.2476
 9918TIP3   OH251244   6.664   1.657  16.576 -0.5006  0.2162  0.1185
 9918TIP3    H151245   6.735   1.593  16.565 -1.5721 -0.6590 -2.3762
 9918TIP3    H251246   6.609   1.620  16.644  0.2670 -0.1969  0.5335
 9919TIP3   OH251247   0.586   3.757   4.256 -0.1764  0.0751 -0.1723
 9919TIP3    H151248   0.520   3.690   4.276 -0.3673  0.2644 -0.1651
 9919TIP3    H251249   0.536   3.839   4.252  0.0629  0.2205 -0.1476
 9920TIP3   OH251250   4.170   6.600   3.950 -1.2085 -0.0040 -0.0352
 9920TIP3    H151251   4.196   6.665   3.885  0.6120  0.0672  0.6993
 9920TIP3    H251252   4.077   6.616   3.964 -0.6289  3.2413  0.9566
 9921TIP3   OH251253   0.569   0.455   3.673 -0.2826  0.8333  0.2056
 9921TIP3    H151254   0.640   0.470   3.736 -0.6278  1.3302  0.4892
 9921TIP3    H251255   0.501   0.516   3.700 -0.0614  1.7702 -1.2615
 9922TIP3   OH251256   2.853   2.203   4.255  0.2218  0.2127  0.3236
 9922TIP3    H151257   2.900   2.281   4.284  0.1390  0.3469  0.0990
 9922TIP3    H251258   2.763   2.232   4.244  0.5834  0.6736 -1.9398
 9923TIP3   OH251259   4.096   6.797  16.534 -0.4253 -0.6883  0.2933
 9923TIP3    H151260   4.051   6.713  16.524  0.9459 -1.3017 -1.1562
 9923TIP3    H251261   4.129   6.796  16.624 -2.4218 -0.6053  1.0970
 9924TIP3   OH251262   0.609   3.930   5.824 -0.1578  0.0331 -0.2837
 9924TIP3    H151263   0.674   4.000   5.812  1.4627 -1.2415  0.7121
 9924TIP3    H251264   0.570   3.949   5.909  0.5289 -0.4413  0.1466
 9925TIP3   OH251265   3.047   5.857   6.325  0.0222 -0.5264 -0.1886
 9925TIP3    H151266   3.024   5.774   6.367  0.0516 -0.3045  0.2714
 9925TIP3    H251267   3.130   5.839   6.281 -0.1646 -0.8474 -0.4154
 9926TIP3   OH251268   5.858   4.546   4.923 -0.0794 -0.1576 -0.2734
 9926TIP3    H151269   5.927   4.608   4.900  1.0357 -1.3759 -0.3735
 9926TIP3    H251270   5.838   4.565   5.014  0.3947  0.2197 -0.2440
 9927TIP3   OH251271   5.868   3.159   5.469 -0.0893 -0.1466 -0.2124
 9927TIP3    H151272   5.869   3.071   5.433  1.7177  0.2136 -1.1504
 9927TIP3    H251273   5.953   3.169   5.512 -0.5682  0.8775  0.5457
 9928TIP3   OH251274   5.710   1.746   5.652 -0.5557 -0.0931  0.0493
 9928TIP3    H151275   5.721   1.835   5.686 -2.4735  0.7949 -1.4304
 9928TIP3    H251276   5.657   1.702   5.718 -0.5558  0.2124  0.2564
 9929TIP3   OH251277   5.066   3.941  14.505 -0.0533  0.0804  0.1032
 9929TIP3    H151278   5.040   3.997  14.579 -0.2875  1.7344 -1.1847
 9929TIP3    H251279   5.128   3.879  14.543  1.0090  1.8518  1.4160
 9930TIP3   OH251280   4.742   5.718   1.675  0.2113  0.3672  0.4316
 9930TIP3    H151281   4.751   5.776   1.599 -0.5249  0.7620  0.6432
 9930TIP3    H251282   4.686   5.647   1.645 -1.8054  1.5644  1.1617
 9931TIP3   OH251283   1.577   2.493   4.854 -0.2500 -0.9614 -0.2885
 9931TIP3    H151284   1.636   2.420   4.836  1.0624  0.0647 -0.3798
 9931TIP3    H251285   1.636   2.567   4.871 -1.5104 -0.3455  1.6407
 9932TIP3   OH251286   0.029   2.350   0.525  0.0618  0.6462  0.5844
 9932TIP3    H151287   0.040   2.267   0.478  0.5414  0.4816  0.9681
 9932TIP3    H251288  -0.016   2.326   0.606 -0.8134  0.9364  0.1947
 9933TIP3   OH251289   6.774   4.372  14.979  0.6305 -0.1258 -0.1940
 9933TIP3    H151290   6.822   4.291  14.960 -1.4678 -0.8544 -3.0120
 9933TIP3    H251291   6.687   4.342  15.004  0.3484  1.2640  0.5429
 9934TIP3   OH251292   3.023   5.997   3.005 -0.4419 -0.1651 -0.4009
 9934TIP3    H151293   3.006   6.035   3.091 -0.7999  1.1914 -1.0443
 9934TIP3    H251294   3.100   6.043   2.972 -1.3918  0.6962 -1.5515
 9935TIP3   OH251295   0.435   0.061  16.793  0.3193 -0.4495 -0.2200
 9935TIP3    H151296   0.514   0.009  16.778  0.5851 -0.7332  1.9269
 9935TIP3    H251297   0.465   0.138  16.841 -0.5065  0.2497 -0.7835
 9936TIP3   OH251298   4.781   5.082  14.321 -0.1032 -0.2509 -0.2744
 9936TIP3    H151299   4.740   5.160  14.281 -1.0221 -0.6176 -0.0655
 9936TIP3    H251300   4.710   5.041  14.370  0.3933 -1.1968 -0.3437
 9937TIP3   OH251301   0.883   3.340  16.912 -0.1340 -0.1546 -0.2802
 9937TIP3    H151302   0.816   3.406  16.929 -0.6217 -0.6071 -0.4401
 9937TIP3    H251303   0.911   3.312  16.999 -0.6153 -0.4333 -0.2151
 9938TIP3   OH251304   0.895   0.778  15.199 -0.0691 -0.1914  0.0840
 9938TIP3    H151305   0.865   0.797  15.287  0.6427 -0.9574  0.5104
 9938TIP3    H251306   0.991   0.776  15.206  0.0510  0.8707 -0.9520
 9939TIP3   OH251307   5.710   0.894   3.461  0.0180 -0.6824 -0.0579
 9939TIP3    H151308   5.784   0.833   3.464 -0.3236 -1.0873  0.3413
 9939TIP3    H251309   5.653   0.859   3.392 -0.5261 -1.2389  0.6526
 9940TIP3   OH251310   2.549   0.402   5.521 -0.3833  0.2114 -0.4304
 9940TIP3    H151311   2.485   0.472   5.532 -1.3219 -0.4788 -1.3023
 9940TIP3    H251312   2.560   0.365   5.609 -2.3010 -0.5785 -0.4659
 9941TIP3   OH251313   3.225   2.777   1.966 -0.3541  0.3522  0.3823
 9941TIP3    H151314   3.262   2.690   1.980 -0.4437  0.4970  1.6334
 9941TIP3    H251315   3.301   2.833   1.952 -0.3266 -0.4674 -4.5243
 9942TIP3   OH251316   6.487   4.035   2.918  0.5611 -0.0685 -0.1256
 9942TIP3    H151317   6.461   3.951   2.879  2.1233  0.3742 -2.3126
 9942TIP3    H251318   6.451   4.100   2.858 -0.6618  0.8840  1.5657
 9943TIP3   OH251319   2.404   0.970   6.571  0.1278 -0.2790 -0.3540
 9943TIP3    H151320   2.354   0.889   6.557  0.0751 -0.2509 -0.3260
 9943TIP3    H251321   2.495   0.941   6.574  0.2743 -0.1483 -2.1005
 9944TIP3   OH251322   4.170   2.475   0.016 -0.4500 -0.4145  0.3123
 9944TIP3    H151323   4.229   2.534   0.063 -0.3788 -0.9126  0.8511
 9944TIP3    H251324   4.204   2.474  -0.073  0.8742 -1.3570  0.8080
 9945TIP3   OH251325   0.197   6.687  16.077 -0.1255  0.4327 -0.4004
 9945TIP3    H151326   0.187   6.593  16.065  0.0045  0.2055  1.0611
 9945TIP3    H251327   0.132   6.710  16.144  2.0105  0.7391  1.7134
 9946TIP3   OH251328   4.038   6.088   4.375  0.3271 -0.0568 -0.7525
 9946TIP3    H151329   3.980   6.154   4.413  1.5013  0.5656  0.0236
 9946TIP3    H251330   4.015   6.007   4.421  0.6628  0.3708  0.1987
 9947TIP3   OH251331   5.448   2.418  16.041 -0.2429  0.5192  0.1904
 9947TIP3    H151332   5.530   2.443  15.998 -1.1626 -0.1269 -2.0453
 9947TIP3    H251333   5.406   2.502  16.062  0.4329  0.8498  0.2758
 9948TIP3   OH251334   3.791   3.186   3.052  0.5478 -0.4373  0.0083
 9948TIP3    H151335   3.820   3.111   3.001  0.2522  0.4511 -1.5072
 9948TIP3    H251336   3.854   3.256   3.033 -0.8748  0.6196 -1.0333
 9949TIP3   OH251337   2.954   6.714  13.509  0.5551 -0.1042  0.0040
 9949TIP3    H151338   2.898   6.712  13.587  1.1402  1.2785  0.4873
 9949TIP3    H251339   2.988   6.803  13.506  0.9991 -0.2940 -1.5273
 9950TIP3   OH251340   4.367   4.091  14.162  0.6749  0.4802  0.8379
 9950TIP3    H151341   4.348   4.036  14.238 -1.9775  0.9083  0.5892
 9950TIP3    H251342   4.402   4.172  14.200  1.7841 -0.2455  1.4033
 9951TIP3   OH251343   2.887   4.112  11.534  0.0478 -0.1131  0.4220
 9951TIP3    H151344   2.852   4.023  11.530 -1.0843  0.2197  2.1552
 9951TIP3    H251345   2.968   4.103  11.584 -0.5558 -0.0543  1.4331
 9952TIP3   OH251346   4.994   0.043   1.037  0.2199  0.0489 -0.0722
 9952TIP3    H151347   4.941   0.060   0.960  0.9802  0.4418 -0.5214
 9952TIP3    H251348   4.936   0.061   1.111 -0.5287 -0.3695 -0.5388
 9953TIP3   OH251349   3.840   2.544   5.679  0.7529 -0.2069 -0.1285
 9953TIP3    H151350   3.777   2.472   5.687  0.3863 -0.0003 -1.0756
 9953TIP3    H251351   3.841   2.565   5.586  1.2429  0.6773  0.0666
 9954TIP3   OH251352   6.482   4.623   4.550  0.2023  0.5804  0.0760
 9954TIP3    H151353   6.515   4.567   4.620  0.4802  0.8279  0.1462
 9954TIP3    H251354   6.440   4.696   4.595  0.8777  1.0331 -0.0044
 9955TIP3   OH251355   3.045   2.285   0.846  0.1671  0.5394  0.2235
 9955TIP3    H151356   3.012   2.336   0.773  0.8091 -0.2164 -0.6294
 9955TIP3    H251357   2.969   2.272   0.903 -0.5539  0.4126 -0.7414
 9956TIP3   OH251358   0.956   1.212  11.439 -0.3116  0.0468  0.4480
 9956TIP3    H151359   0.895   1.138  11.441  0.3859 -0.5629 -0.0849
 9956TIP3    H251360   0.906   1.285  11.475 -0.5007 -1.0498  2.6016
 9957TIP3   OH251361   3.215   3.611   6.504 -0.1427 -0.1393 -0.4389
 9957TIP3    H151362   3.129   3.619   6.546 -0.4779  0.5246 -1.2455
 9957TIP3    H251363   3.274   3.660   6.562  0.1506 -2.3381  1.2863
 9958TIP3   OH251364   0.456   0.106   5.673  0.3314  0.0042 -0.1895
 9958TIP3    H151365   0.441   0.186   5.623 -0.4120  0.3132  0.5098
 9958TIP3    H251366   0.369   0.067   5.682  0.1617  0.7885  2.2446
 9959TIP3   OH251367   0.501   2.103   1.252  0.0482  0.5300  0.3111
 9959TIP3    H151368   0.416   2.147   1.263  1.0967  2.3832  1.5413
 9959TIP3    H251369   0.557   2.169   1.212  1.4753  0.0864  1.4833
 9960TIP3   OH251370   2.581   5.770   4.889  0.2100  0.2045 -0.1618
 9960TIP3    H151371   2.631   5.689   4.903  0.7075  0.3019 -1.2703
 9960TIP3    H251372   2.585   5.816   4.973 -4.1284 -3.0265  2.2648
 9961TIP3   OH251373   1.308   5.725  10.445  0.1054  0.1280 -0.3998
 9961TIP3    H151374   1.257   5.644  10.448 -0.8232  0.7028 -0.3170
 9961TIP3    H251375   1.247   5.790  10.409  1.4534  0.3478 -2.4231
 9962TIP3   OH251376   1.975   0.219  14.318 -0.2131  0.4512 -0.1081
 9962TIP3    H151377   2.037   0.249  14.384 -0.6820 -0.3908  0.7423
 9962TIP3    H251378   2.006   0.257  14.236  3.0316 -2.0093 -0.2312
 9963TIP3   OH251379   2.671   2.020   2.950 -0.1750  0.2424  0.3232
 9963TIP3    H151380   2.605   1.996   3.016  1.9811  0.2356  2.6546
 9963TIP3    H251381   2.674   2.115   2.954  1.5040  0.1819  2.0043
 9964TIP3   OH251382   1.977   5.968   0.920 -0.3656  0.2102 -0.1500
 9964TIP3    H151383   2.020   6.047   0.953  1.1809 -1.1287  1.1692
 9964TIP3    H251384   1.886   5.995   0.907 -0.6346  1.4387  3.2978
 9965TIP3   OH251385   4.926   3.343  13.253  0.1086  0.8181  0.1443
 9965TIP3    H151386   4.982   3.407  13.209  0.7073  0.0850 -0.1831
 9965TIP3    H251387   4.900   3.283  13.184 -0.4486  0.7092  0.4482
 9966TIP3   OH251388   4.646   0.652   1.705  0.5767 -0.1371 -0.2390
 9966TIP3    H151389   4.701   0.618   1.634  0.6520 -0.3729 -0.0691
 9966TIP3    H251390   4.558   0.651   1.669  0.8352  1.5704 -1.0164
 9967TIP3   OH251391   0.473   6.646  12.559 -0.7970  0.1579 -0.6413
 9967TIP3    H151392   0.565   6.633  12.580 -0.8437 -0.1333 -0.6201
 9967TIP3    H251393   0.438   6.695  12.633 -0.8314 -0.3746 -0.3046
 9968TIP3   OH251394   4.847   5.652   2.655 -0.5688 -0.5345  0.1017
 9968TIP3    H151395   4.775   5.593   2.633  0.1212 -1.0397 -0.8683
 9968TIP3    H251396   4.813   5.739   2.635 -1.5085 -0.5898  1.3215
 9969TIP3   OH251397   5.133   2.264  15.413  0.0454 -0.5649 -0.0385
 9969TIP3    H151398   5.084   2.339  15.379 -0.3006 -1.4555 -1.5900
 9969TIP3    H251399   5.218   2.270  15.369 -0.9971 -2.7209 -2.6516
 9970TIP3   OH251400   2.521   0.763  15.304  0.0878  0.0773 -0.0954
 9970TIP3    H151401   2.538   0.758  15.209 -1.5246 -0.1834 -0.3913
 9970TIP3    H251402   2.531   0.673  15.335  1.0079  0.2271  0.0693
 9971TIP3   OH251403   1.500   1.270   2.460 -0.0915  0.2773 -0.9347
 9971TIP3    H151404   1.506   1.208   2.533 -0.3314 -0.2802 -1.3842
 9971TIP3    H251405   1.429   1.237   2.406  1.1783 -0.2958 -2.3245
 9972TIP3   OH251406   3.242   2.301  15.176 -0.1091  0.1182 -0.0011
 9972TIP3    H151407   3.312   2.357  15.143 -0.8588  0.7510 -0.5893
 9972TIP3    H251408   3.176   2.362  15.208 -0.3113 -0.4666  0.7100
 9973TIP3   OH251409   0.523   3.045   0.835 -0.3036  0.1844 -0.0308
 9973TIP3    H151410   0.539   3.134   0.865 -1.5808  0.4095  0.0444
 9973TIP3    H251411   0.479   3.002   0.909 -1.7001  0.1597 -0.8423
 9974TIP3   OH251412   1.586   3.905   0.749  0.4656  0.3949 -0.1982
 9974TIP3    H151413   1.573   3.922   0.842  1.9967  1.0066 -0.0530
 9974TIP3    H251414   1.549   3.818   0.734 -1.2355  0.9337  0.6089
 9975TIP3   OH251415   3.207   0.436  14.769 -0.5567 -0.2813 -0.6427
 9975TIP3    H151416   3.181   0.355  14.814 -1.0194  0.4000  0.3494
 9975TIP3    H251417   3.134   0.496  14.781  0.5021  0.9037  0.2489
 9976TIP3   OH251418   0.939   4.085  17.005  0.9222 -0.2902  0.4760
 9976TIP3    H151419   0.994   4.120  17.075 -0.8513  2.2948  0.7344
 9976TIP3    H251420   0.995   4.087  16.927  1.2765  2.4454  0.6890
 9977TIP3   OH251421   5.048   3.479   2.690 -0.2334  0.1616  0.5478
 9977TIP3    H151422   5.092   3.506   2.770 -1.6230 -1.1157  1.8118
 9977TIP3    H251423   5.119   3.453   2.630  0.9029  2.6277  0.7246
 9978TIP3   OH251424   3.759   1.454  15.733 -0.5781 -0.3447 -0.1887
 9978TIP3    H151425   3.824   1.520  15.708  1.0640 -1.2949  1.3226
 9978TIP3    H251426   3.782   1.377  15.682 -0.0098 -0.9219  0.9122
 9979TIP3   OH251427   4.800   4.690  11.445  0.4115 -0.7233  0.4839
 9979TIP3    H151428   4.839   4.709  11.531  2.0076  1.9572 -0.6987
 9979TIP3    H251429   4.865   4.722  11.382 -1.5575 -0.8153 -1.7087
 9980TIP3   OH251430   2.498   4.836  13.306  0.2005 -0.4363 -0.0569
 9980TIP3    H151431   2.538   4.825  13.220  0.4708 -0.7574  0.1076
 9980TIP3    H251432   2.469   4.748  13.331 -0.3671 -0.2562 -0.0522
 9981TIP3   OH251433   2.667   2.807  12.421  0.1815  0.2850  0.8283
 9981TIP3    H151434   2.731   2.877  12.432 -0.0464  0.5538  0.4845
 9981TIP3    H251435   2.624   2.827  12.338  1.2130 -1.1458 -0.1018
 9982TIP3   OH251436   4.651   3.354  13.071 -0.0323  0.3075  0.2284
 9982TIP3    H151437   4.590   3.342  12.999 -1.2349  4.8077  0.1765
 9982TIP3    H251438   4.737   3.332  13.034 -0.7622  1.2990 -2.2608
 9983TIP3   OH251439   1.238   1.036  11.776 -0.0382  0.4134  0.6958
 9983TIP3    H151440   1.225   0.942  11.782 -2.5957  0.6169 -0.4554
 9983TIP3    H251441   1.166   1.074  11.826  0.2433  1.7558  0.1404
 9984TIP3   OH251442   4.708   1.957  12.598  0.0111  0.6992  0.3970
 9984TIP3    H151443   4.684   1.906  12.521  0.5166  1.0642 -0.0116
 9984TIP3    H251444   4.784   2.008  12.570 -0.8412  2.1399  0.6110
 9985TIP3   OH251445   6.325   0.162  13.124  0.0993  0.0392 -0.4329
 9985TIP3    H151446   6.419   0.177  13.128  0.7276 -2.2926 -3.1106
 9985TIP3    H251447   6.315   0.067  13.134 -1.8929  0.1319 -0.9716
 9986TIP3   OH251448   2.005   5.624   4.528  0.2262  0.2915 -0.8362
 9986TIP3    H151449   1.969   5.635   4.440  0.9836 -2.9489 -1.6603
 9986TIP3    H251450   2.099   5.626   4.516  0.3361 -0.2573 -0.0932
 9987TIP3   OH251451   3.061   6.091  11.730  0.4547  0.6912  0.2530
 9987TIP3    H151452   3.122   6.160  11.755  0.7738  0.0301  1.3686
 9987TIP3    H251453   2.986   6.137  11.693 -0.0727  1.7836  2.4937
 9988TIP3   OH251454   1.231   1.592   2.778  0.1880  0.4715  0.1119
 9988TIP3    H151455   1.217   1.499   2.757 -0.7362  0.5180  0.4530
 9988TIP3    H251456   1.249   1.593   2.872  0.7654  0.5884  0.0016
 9989TIP3   OH251457   3.453   1.634  15.315 -0.1113  0.3608 -0.4335
 9989TIP3    H151458   3.367   1.676  15.308 -0.2612  0.4719  1.4034
 9989TIP3    H251459   3.496   1.680  15.387 -0.5353 -2.8525  2.1805
 9990TIP3   OH251460   3.591   3.293   1.094 -0.3530 -0.4531  0.3620
 9990TIP3    H151461   3.497   3.310   1.100 -0.3017 -0.4251  1.3688
 9990TIP3    H251462   3.614   3.257   1.180  0.5183 -0.6465  0.0600
 9991TIP3   OH251463   6.723   5.670   1.777 -0.0478  0.0516  0.1474
 9991TIP3    H151464   6.779   5.740   1.812  0.3760  0.0341 -0.4760
 9991TIP3    H251465   6.764   5.647   1.693  0.2850 -1.4850  0.7021
 9992TIP3   OH251466   1.442   1.492   2.147 -0.0480  0.0125 -0.0065
 9992TIP3    H151467   1.408   1.417   2.099 -1.4848  1.0198 -0.6281
 9992TIP3    H251468   1.369   1.523   2.200 -0.1279  2.1232 -1.2450
 9993TIP3   OH251469   4.178   0.659  16.448 -0.1055 -0.6555 -0.0673
 9993TIP3    H151470   4.248   0.700  16.397 -0.0853  0.3270  0.7169
 9993TIP3    H251471   4.138   0.731  16.497 -1.2473 -1.3011  0.0053
 9994TIP3   OH251472   4.931   0.571   5.508  0.0166 -0.9536 -0.7767
 9994TIP3    H151473   5.006   0.628   5.524 -1.0799  0.4376 -0.3535
 9994TIP3    H251474   4.863   0.606   5.565 -1.7325 -0.5737 -2.9544
 9995TIP3   OH251475   0.969   0.811   0.770 -0.0268  0.0451  0.3828
 9995TIP3    H151476   0.944   0.763   0.691  0.5104 -0.9772  0.8099
 9995TIP3    H251477   0.931   0.760   0.842 -1.4447  1.5563  0.7507
 9996TIP3   OH251478   6.219   6.688  13.148  0.4141  0.4411 -0.5732
 9996TIP3    H151479   6.307   6.665  13.179 -0.3033  0.2676  1.5305
 9996TIP3    H251480   6.213   6.648  13.062  1.9374 -0.7001 -0.1999
 9997TIP3   OH251481   0.235   5.383  11.648 -0.3920  0.3301 -0.6115
 9997TIP3    H151482   0.282   5.441  11.587  0.2623 -0.2423 -0.6705
 9997TIP3    H251483   0.298   5.313  11.666 -1.2746 -0.5108 -0.7636
 9998TIP3   OH251484   1.277   4.587  16.818 -0.3603  0.4663  0.5910
 9998TIP3    H151485   1.288   4.652  16.887  0.6310 -0.3576  1.2394
 9998TIP3    H251486   1.196   4.540  16.841 -0.6204  0.9104  0.5831
 9999TIP3   OH251487   3.723   6.730  15.736 -0.2529  0.0121 -0.0938
 9999TIP3    H151488   3.707   6.729  15.642  1.6099  1.9050 -0.4926
 9999TIP3    H251489   3.699   6.642  15.765 -2.1242 -0.2087 -2.0761
10000TIP3   OH251490   5.479   1.272   5.302 -0.4543  0.2500  0.8038
10000TIP3    H151491   5.409   1.306   5.247 -0.7028 -1.0589  0.2747
10000TIP3    H251492   5.445   1.189   5.336  1.0076 -0.6703  0.1200
10001TIP3   OH251493   3.581   6.787   3.245  0.3954 -0.4541 -0.5034
10001TIP3    H151494   3.631   6.831   3.314 -1.8445  1.6562 -0.1078
10001TIP3    H251495   3.566   6.855   3.180 -0.3290 -1.5620 -1.5303
10002TIP3   OH251496   6.185   4.927  16.429  0.0612 -0.3038 -0.9542
10002TIP3    H151497   6.224   5.011  16.453  0.7441 -0.5607 -1.1524
10002TIP3    H251498   6.106   4.921  16.484 -0.8195  1.1366 -1.9874
10003TIP3   OH251499   2.223   2.012  13.532  0.1284  0.0787  0.0729
10003TIP3    H151500   2.161   2.065  13.582  0.4021  1.1140 -0.6521
10003TIP3    H251501   2.280   1.974  13.598 -3.2157 -3.6975  1.1255
10004TIP3   OH251502   1.919   0.290   5.625  0.7529 -0.0851 -0.3650
10004TIP3    H151503   1.976   0.340   5.684 -0.8242  0.6534  0.6137
10004TIP3    H251504   1.869   0.234   5.683  0.4583 -0.7011 -1.2002
10005TIP3   OH251505   2.953   3.184   0.792 -0.7747 -0.5587  0.5538
10005TIP3    H151506   2.904   3.115   0.747 -1.3509  0.5869 -0.6762
10005TIP3    H251507   3.027   3.140   0.832 -1.6845 -2.0283  0.6725
10006TIP3   OH251508   2.331   0.823  12.056  0.2334 -0.0869 -0.0917
10006TIP3    H151509   2.362   0.908  12.025 -2.1992  0.8790 -0.0512
10006TIP3    H251510   2.318   0.834  12.150 -0.5751 -0.3235 -0.1680
10007TIP3   OH251511   1.399   1.902  10.861 -0.0835 -0.2898  0.2935
10007TIP3    H151512   1.457   1.959  10.912 -1.7379  2.2073 -0.3942
10007TIP3    H251513   1.378   1.953  10.783 -1.1918 -2.1417 -0.6830
10008TIP3   OH251514   2.945   5.253  14.284 -0.2837  0.1288  0.0516
10008TIP3    H151515   2.960   5.306  14.206  0.5911 -1.6288 -1.0442
10008TIP3    H251516   3.020   5.271  14.341  0.0592 -0.0000 -0.3558
10009TIP3   OH251517   6.173   1.988   0.367  0.0446 -0.4699 -0.6191
10009TIP3    H151518   6.121   1.913   0.337  0.7030 -0.9513 -0.5781
10009TIP3    H251519   6.149   1.997   0.460  1.6113 -2.0799  0.0099
10010TIP3   OH251520   4.550   2.409   6.489 -0.6656  0.4448 -0.3190
10010TIP3    H151521   4.619   2.361   6.536 -0.8050  0.7577  0.2222
10010TIP3    H251522   4.592   2.437   6.408  0.3737  1.9748  0.6691
10011TIP3   OH251523   6.070   0.522   6.455  0.2081  0.3463  0.1649
10011TIP3    H151524   6.055   0.612   6.484  0.9715 -0.0323  1.9204
10011TIP3    H251525   5.983   0.488   6.434 -0.0307  1.6347 -1.0264
10012TIP3   OH251526   4.696   2.817  13.131 -0.0210  0.1315 -0.2738
10012TIP3    H151527   4.647   2.736  13.118 -1.6331  1.0075  0.1649
10012TIP3    H251528   4.714   2.850  13.043 -1.8779  0.7504 -0.4492
10013TIP3   OH251529   0.903   4.691   1.308  0.8528 -0.0909  0.1274
10013TIP3    H151530   0.838   4.621   1.319 -0.2320  0.9589  0.6212
10013TIP3    H251531   0.855   4.771   1.330  2.0420  0.8221 -0.5370
10014TIP3   OH251532   1.176   4.992   1.010  0.2972  0.0694  0.0231
10014TIP3    H151533   1.269   5.014   1.013  0.5701 -1.0782  0.6911
10014TIP3    H251534   1.165   4.925   1.078 -0.8110 -0.5716 -0.7544
10015TIP3   OH251535   6.415   2.997   3.504  0.4475 -0.2434  0.0895
10015TIP3    H151536   6.465   2.932   3.454 -0.7015 -0.0994 -1.3207
10015TIP3    H251537   6.449   3.081   3.476 -0.8809 -0.1249 -1.2773
10016TIP3   OH251538   2.053   3.451  15.283  0.3083 -0.6184  0.0068
10016TIP3    H151539   2.114   3.384  15.251 -0.8356 -2.1062  0.8095
10016TIP3    H251540   1.968   3.423  15.252 -0.1455  0.8256 -0.1372
10017TIP3   OH251541   1.499   1.645   4.650 -0.1245 -0.5179 -0.0183
10017TIP3    H151542   1.558   1.706   4.695 -0.0250 -0.2862 -0.4579
10017TIP3    H251543   1.414   1.689   4.653 -0.6286 -1.5304  1.9636
10018TIP3   OH251544   6.352   2.015  11.280 -0.5325  0.3766  0.3437
10018TIP3    H151545   6.275   1.965  11.254 -1.1999  2.4621 -2.1368
10018TIP3    H251546   6.320   2.075  11.346 -0.8523  0.6324 -0.0372
10019TIP3   OH251547   5.102   2.911   1.777 -0.0737 -0.0480 -0.2652
10019TIP3    H151548   5.098   2.844   1.710 -3.1034  0.3226 -0.5718
10019TIP3    H251549   5.060   2.872   1.854  1.6719  0.1805  0.8621
10020TIP3   OH251550   3.378   5.143   2.559 -0.1965 -0.0268 -0.2937
10020TIP3    H151551   3.428   5.064   2.581 -0.3883 -0.4092 -1.1462
10020TIP3    H251552   3.324   5.160   2.635 -0.5434 -1.0467 -0.2974
10021TIP3   OH251553   2.497   2.946   0.824  0.3588  0.2228  0.1742
10021TIP3    H151554   2.542   3.005   0.763 -0.2696  0.4926 -0.0360
10021TIP3    H251555   2.544   2.863   0.815  1.9688  0.9623  1.3107
10022TIP3   OH251556   1.925   0.260   3.621 -0.3519  0.4565 -0.1222
10022TIP3    H151557   2.006   0.310   3.618 -0.4236  0.7460  1.8635
10022TIP3    H251558   1.925   0.217   3.706 -1.4031 -1.0727 -0.8442
10023TIP3   OH251559   2.188   1.386   4.269  0.0957 -0.1893 -0.2252
10023TIP3    H151560   2.269   1.339   4.251  1.7295  2.4156 -0.1628
10023TIP3    H251561   2.158   1.352   4.353  0.6309 -1.7714 -0.6472
10024TIP3   OH251562   1.520   4.036  15.368  0.1385 -0.2293  0.1199
10024TIP3    H151563   1.426   4.035  15.348  0.2234  0.4818 -0.3257
10024TIP3    H251564   1.526   3.994  15.454 -0.8848  2.0002  1.3794
10025TIP3   OH251565   6.121   4.820  14.520  0.1702 -0.6863  0.7581
10025TIP3    H151566   6.099   4.913  14.517 -0.2944 -0.7392  2.0434
10025TIP3    H251567   6.041   4.775  14.493  0.9923 -0.7073 -1.9509
10026TIP3   OH251568   2.041   4.930  16.458  0.2973 -0.3785 -0.1206
10026TIP3    H151569   2.097   4.992  16.410  1.4352 -0.1211  1.4244
10026TIP3    H251570   2.097   4.898  16.529 -1.0369 -1.3746  0.5305
10027TIP3   OH251571   6.115   4.427   3.866 -0.0033 -0.2697 -0.1695
10027TIP3    H151572   6.039   4.378   3.897 -0.1202 -0.3837 -0.6340
10027TIP3    H251573   6.083   4.475   3.789  0.4436 -0.4815 -0.4939
10028TIP3   OH251574   0.624   1.069   1.641 -0.3729  0.2408 -0.3595
10028TIP3    H151575   0.643   1.138   1.578  1.0298 -0.6035 -0.9299
10028TIP3    H251576   0.631   0.988   1.589  0.5744 -0.4521  0.8033
10029TIP3   OH251577   1.555   2.141   0.584  0.0918 -0.0862 -0.1176
10029TIP3    H151578   1.477   2.092   0.608 -0.3429 -0.2588 -1.7286
10029TIP3    H251579   1.627   2.090   0.620 -0.4344 -1.0953 -0.4450
10030TIP3   OH251580   6.762   0.638  15.114  0.4248 -0.7817 -0.4260
10030TIP3    H151581   6.815   0.693  15.055  0.1635  0.2917  0.2958
10030TIP3    H251582   6.678   0.683  15.119  0.4678 -0.8071  0.8149
10031TIP3   OH251583   3.490   5.538   4.834 -0.5713  0.2901  0.4960
10031TIP3    H151584   3.396   5.556   4.839 -0.6740  0.1758 -0.7281
10031TIP3    H251585   3.511   5.546   4.741  0.6858  0.5484  0.7873
10032TIP3   OH251586   2.157   3.811  16.276 -0.2694  0.0178 -0.1562
10032TIP3    H151587   2.100   3.738  16.302 -1.0338  0.9950  1.0049
10032TIP3    H251588   2.112   3.889  16.308  0.7029  0.9836 -1.0825
10033TIP3   OH251589   6.567   2.319   1.237 -0.5375  0.1426 -0.1459
10033TIP3    H151590   6.531   2.404   1.209 -0.5775  0.1106 -0.1927
10033TIP3    H251591   6.559   2.263   1.160  0.2032  0.3129 -0.3546
10034TIP3   OH251592   1.210   2.081  17.193  0.2620  0.4067 -0.2731
10034TIP3    H151593   1.293   2.062  17.237  0.2717  1.6225  0.2871
10034TIP3    H251594   1.160   2.000  17.200 -0.1315  0.7763  2.9032
10035TIP3   OH251595   3.308   4.071   3.747  0.2792  0.3380 -0.3896
10035TIP3    H151596   3.243   4.005   3.722 -0.0001  0.2539  0.5371
10035TIP3    H251597   3.379   4.021   3.787  0.4659  0.5287 -0.4746
10036TIP3   OH251598   1.730   5.171  12.449  0.3981 -0.0659 -0.3881
10036TIP3    H151599   1.791   5.232  12.407 -1.0732  1.4532 -0.4428
10036TIP3    H251600   1.661   5.227  12.484 -1.5339 -1.7540 -1.2767
10037TIP3   OH251601   5.017   3.620  13.816  0.0058  0.3705  0.2827
10037TIP3    H151602   4.973   3.697  13.852 -0.2555 -0.6931  2.3402
10037TIP3    H251603   5.110   3.641  13.819 -0.0153  0.3209  1.5754
10038TIP3   OH251604   0.222   0.239   3.668 -0.2932  0.3462 -0.0775
10038TIP3    H151605   0.271   0.246   3.586  0.4915 -0.3685  0.3129
10038TIP3    H251606   0.288   0.247   3.737 -0.9360  0.8657  0.4903
10039TIP3   OH251607   0.166   5.963   1.562 -0.0360 -0.2939 -0.3184
10039TIP3    H151608   0.109   6.038   1.572  2.0455  1.3643 -0.2044
10039TIP3    H251609   0.168   5.923   1.649 -2.1019 -1.2954 -0.6621
10040TIP3   OH251610   1.870   5.296  14.492  0.4787  0.0039 -0.0361
10040TIP3    H151611   1.807   5.321  14.559  1.3756  0.8181  0.5301
10040TIP3    H251612   1.954   5.294  14.538  1.0287  0.0029 -1.0151
10041TIP3   OH251613   0.423   6.813   3.737  0.2195 -0.1495 -0.1136
10041TIP3    H151614   0.372   6.886   3.701 -1.5333 -1.0548  0.4196
10041TIP3    H251615   0.489   6.855   3.792 -1.7572  1.0432  1.4763
10042TIP3   OH251616   0.163   3.118   0.902 -0.1840  0.2222 -0.1264
10042TIP3    H151617   0.221   3.059   0.950 -0.4148  0.6928  0.7458
10042TIP3    H251618   0.219   3.192   0.879 -0.0188 -0.0990 -0.7924
10043TIP3   OH251619   3.290   3.467   4.860 -0.4298  0.4084  0.6326
10043TIP3    H151620   3.327   3.543   4.815  0.2074  0.6745  1.5804
10043TIP3    H251621   3.366   3.417   4.890 -0.6453  2.0635  4.4938
10044TIP3   OH251622   0.557   3.579   0.838 -0.9546 -0.4991  0.2362
10044TIP3    H151623   0.577   3.488   0.858  0.1450 -0.4306 -0.4381
10044TIP3    H251624   0.467   3.591   0.867 -0.9670 -1.6732  0.7405
10045TIP3   OH251625   0.341   5.693   6.113 -0.3663  1.2645 -0.3217
10045TIP3    H151626   0.330   5.752   6.187 -0.2287 -0.2085  0.9344
10045TIP3    H251627   0.253   5.661   6.095 -0.1356 -0.0273  0.6761
10046TIP3   OH251628   4.824   5.901   3.545 -0.2864  0.3102  0.1230
10046TIP3    H151629   4.734   5.932   3.533 -1.1170 -0.5877  3.2474
10046TIP3    H251630   4.878   5.967   3.500 -2.3691  2.2217  0.2482
10047TIP3   OH251631   0.761   5.809  11.059  0.4659 -0.3691  0.1570
10047TIP3    H151632   0.847   5.782  11.093  1.1950  1.6857  0.1416
10047TIP3    H251633   0.704   5.811  11.135  0.9226 -0.0710  0.4977
10048TIP3   OH251634   6.116   4.545   0.537 -0.3929  0.1630 -0.0853
10048TIP3    H151635   6.061   4.569   0.612 -0.3851  0.1057 -0.0607
10048TIP3    H251636   6.205   4.544   0.572 -0.4082 -0.0494 -0.0469
10049TIP3   OH251637   6.213   5.785   6.051  0.0925  0.6460 -0.7626
10049TIP3    H151638   6.167   5.729   6.115 -0.1055 -0.5552 -1.9072
10049TIP3    H251639   6.153   5.858   6.037 -0.8285 -0.1383 -1.0984
10050TIP3   OH251640   1.576   3.037  11.602 -0.0010  0.4719  0.0661
10050TIP3    H151641   1.513   3.109  11.606 -1.0302 -0.4452  1.5356
10050TIP3    H251642   1.571   3.006  11.512 -1.1753  0.8363 -0.0179
10051TIP3   OH251643   1.812   0.340  16.070  0.2784 -0.1094 -0.1378
10051TIP3    H151644   1.873   0.405  16.104  2.1501 -1.3694 -0.9561
10051TIP3    H251645   1.734   0.349  16.126  0.6315  2.4726  0.0692
10052TIP3   OH251646   5.875   1.088  11.768 -0.2767  0.4416 -0.0132
10052TIP3    H151647   5.961   1.048  11.778 -0.1308  0.5772 -0.6892
10052TIP3    H251648   5.866   1.145  11.845  0.6219  1.1370 -0.4057
10053TIP3   OH251649   2.859   1.292  15.473  0.2384  0.0500  0.6765
10053TIP3    H151650   2.912   1.372  15.473  0.0192  0.2525 -1.2751
10053TIP3    H251651   2.872   1.255  15.386  0.1419 -1.9467  1.4720
10054TIP3   OH251652   0.088   1.656   1.939 -0.1143  0.4127  0.3520
10054TIP3    H151653   0.060   1.746   1.951 -2.1706 -0.2980  1.4744
10054TIP3    H251654   0.160   1.661   1.876 -1.4334  2.6459 -1.1350
10055TIP3   OH251655   0.322   1.949  16.888 -0.7518 -0.0980 -0.9234
10055TIP3    H151656   0.257   1.891  16.847  0.6106 -1.4870 -1.2299
10055TIP3    H251657   0.311   1.934  16.982 -0.2339 -1.0858 -1.0080
10056TIP3   OH251658   0.174   4.906  15.457 -0.2350 -0.2065 -0.6400
10056TIP3    H151659   0.150   4.859  15.377  0.3146  0.1381 -1.0107
10056TIP3    H251660   0.204   4.838  15.517  1.0592 -0.2922 -1.3576
10057TIP3   OH251661   2.247   2.143   4.159  0.1358  0.4534  0.5599
10057TIP3    H151662   2.336   2.114   4.175 -0.4840 -1.9182  0.1318
10057TIP3    H251663   2.215   2.172   4.244  0.5048 -1.1539  1.2669
10058TIP3   OH251664   2.151   0.369  16.956 -0.1889 -0.8407  0.0525
10058TIP3    H151665   2.187   0.294  16.909  0.1656 -0.8068  0.2627
10058TIP3    H251666   2.224   0.432  16.959 -0.8855  0.0784 -1.3069
10059TIP3   OH251667   3.387   4.627   1.375  0.3982  0.3319  0.0642
10059TIP3    H151668   3.427   4.652   1.291 -0.2086  0.3124 -0.2384
10059TIP3    H251669   3.428   4.684   1.439  1.6544 -0.3744 -0.0772
10060TIP3   OH251670   5.790   4.158  12.982 -0.6166 -0.2187  0.3298
10060TIP3    H151671   5.801   4.087  13.045 -0.9495 -1.2433 -0.7240
10060TIP3    H251672   5.716   4.130  12.927 -1.2313  1.2885  0.3403
10061TIP3   OH251673   5.610   2.360  15.232  0.2059 -0.5810 -0.1239
10061TIP3    H151674   5.578   2.402  15.312 -2.2101 -4.3285  1.1890
10061TIP3    H251675   5.559   2.400  15.161 -0.0274  0.5003  0.6332
10062TIP3   OH251676   4.191   0.854   6.297 -0.0686  0.2926  0.3747
10062TIP3    H151677   4.171   0.769   6.335 -0.8184 -0.5203 -1.7130
10062TIP3    H251678   4.131   0.915   6.340  1.4900  0.1264  2.9867
10063TIP3   OH251679   3.055   1.869  11.447 -0.3333  0.8240  0.1646
10063TIP3    H151680   3.013   1.787  11.471  0.7691  0.4929  1.0312
10063TIP3    H251681   3.142   1.843  11.416 -0.7821  1.4667 -1.7824
10064TIP3   OH251682   5.996   3.417   4.020 -0.8188 -0.0379  0.1264
10064TIP3    H151683   6.034   3.390   4.104 -0.0096  0.3197 -0.1092
10064TIP3    H251684   6.064   3.397   3.955 -1.0088  0.6576 -0.3080
10065TIP3   OH251685   1.593   2.567  16.346 -0.1615 -0.1695  0.3778
10065TIP3    H151686   1.662   2.575  16.412  1.1751  1.4635 -1.1299
10065TIP3    H251687   1.536   2.498  16.379  1.6672 -0.9142  2.1533
10066TIP3   OH251688   2.076   5.769  11.705 -0.5598 -0.3765  0.1983
10066TIP3    H151689   2.111   5.701  11.763  0.2638 -0.2757 -0.1732
10066TIP3    H251690   2.150   5.796  11.651 -1.1479  0.0283 -0.4308
10067TIP3   OH251691   0.363   2.343  15.975 -0.0976  0.3223 -0.5261
10067TIP3    H151692   0.314   2.298  15.906 -1.9757 -1.2075  1.6461
10067TIP3    H251693   0.306   2.338  16.052  2.4227  0.8074  1.5026
10068TIP3   OH251694   0.094   3.690   4.939 -0.5884  0.0597  0.2092
10068TIP3    H151695   0.106   3.743   4.860  4.7427  0.9047  1.2352
10068TIP3    H251696   0.119   3.602   4.913  0.5123  0.2039  0.7138
10069TIP3   OH251697   0.169   2.624   2.759  0.2900  0.5623 -0.0693
10069TIP3    H151698   0.143   2.654   2.846  1.8146  1.0294  0.2524
10069TIP3    H251699   0.163   2.702   2.704 -0.1849  0.3829 -0.2781
10070TIP3   OH251700   0.869   0.050   5.113 -0.0323 -0.4843  0.3310
10070TIP3    H151701   0.881   0.090   5.199  0.7103  0.7944 -0.3386
10070TIP3    H251702   0.957   0.027   5.085 -0.3767 -1.8986  0.3598
10071TIP3   OH251703   0.980   3.474   0.364 -0.3492 -0.3453  0.5495
10071TIP3    H151704   1.067   3.514   0.366 -0.6442  0.2850  1.2448
10071TIP3    H251705   0.974   3.435   0.277  0.4982 -0.1079  0.3704
10072TIP3   OH251706   4.681   1.033   5.458  0.3409 -0.1055  0.6760
10072TIP3    H151707   4.587   1.015   5.467  0.1444 -0.5356 -1.4963
10072TIP3    H251708   4.693   1.045   5.363  2.4565  0.1483  0.9366
10073TIP3   OH251709   6.164   1.661   2.322  0.4699 -0.1447  0.1695
10073TIP3    H151710   6.155   1.580   2.272 -0.3591 -0.9004  1.4885
10073TIP3    H251711   6.244   1.648   2.374  0.1409 -0.2837  0.6493
10074TIP3   OH251712   5.309   5.659   2.292  1.3170 -0.2512 -0.2012
10074TIP3    H151713   5.343   5.626   2.209  0.2900 -1.7347 -0.0785
10074TIP3    H251714   5.219   5.626   2.296  0.9487  0.8343  0.9409
10075TIP3   OH251715   3.940   4.154  11.961 -0.4050 -0.0644  0.3135
10075TIP3    H151716   3.860   4.156  12.012 -0.5537 -0.6143  0.1047
10075TIP3    H251717   3.916   4.191  11.876 -0.7003 -1.1632 -0.1024
10076TIP3   OH251718   4.213   0.890  11.053 -0.3756 -0.8420 -0.5190
10076TIP3    H151719   4.165   0.823  11.003 -0.6690 -0.9141 -0.1467
10076TIP3    H251720   4.205   0.969  11.000 -1.6438 -0.6360 -0.0689
10077TIP3   OH251721   4.752   5.885   1.413 -0.1599 -0.6309  0.7170
10077TIP3    H151722   4.703   5.848   1.340 -1.3629  0.1532  1.0863
10077TIP3    H251723   4.707   5.968   1.432  0.9016 -0.2232  1.5288
10078TIP3   OH251724   2.416   4.366  15.577 -0.1752 -0.5389  0.0033
10078TIP3    H151725   2.438   4.274  15.562 -2.5696 -1.4917  1.5813
10078TIP3    H251726   2.428   4.408  15.492  1.6003 -2.1560 -0.6139
10079TIP3   OH251727   1.013   0.282  17.155  0.0130  0.5591  0.1362
10079TIP3    H151728   1.078   0.314  17.218  0.6185 -0.0024 -0.1925
10079TIP3    H251729   1.065   0.246  17.084 -0.6705  0.5644 -0.3698
10080TIP3   OH251730   5.429   3.788   4.791 -0.5113  0.0855 -0.0553
10080TIP3    H151731   5.510   3.762   4.746 -0.7633 -1.4897  0.3394
10080TIP3    H251732   5.380   3.837   4.725 -0.1881 -0.8459 -1.0124
10081TIP3   OH251733   5.728   1.967   0.680 -0.1131 -0.3074 -0.1956
10081TIP3    H151734   5.642   1.947   0.643  0.0939 -0.8465 -0.4004
10081TIP3    H251735   5.721   1.940   0.772 -0.4121  0.3958 -0.0067
10082TIP3   OH251736   3.348   0.139  14.383 -0.3090  0.6625  0.0932
10082TIP3    H151737   3.407   0.064  14.397 -0.4251  0.6104  0.3200
10082TIP3    H251738   3.371   0.200  14.453  0.7514  1.4613 -0.9114
10083TIP3   OH251739   3.757   0.119  15.964 -0.0273  0.0730  0.0469
10083TIP3    H151740   3.792   0.093  16.049  1.0776 -0.0694 -0.4290
10083TIP3    H251741   3.728   0.038  15.923 -0.4502  0.1263  0.2439
10084TIP3   OH251742   2.550   1.691  12.404 -0.3659  0.3415 -0.0672
10084TIP3    H151743   2.581   1.739  12.327  1.3563 -1.1197 -0.3480
10084TIP3    H251744   2.621   1.698  12.467  1.1221 -3.6683 -0.9789
10085TIP3   OH251745   3.442   0.959  15.426 -0.1511  0.1984 -0.3230
10085TIP3    H151746   3.478   0.950  15.514 -0.5900  0.9452 -0.0640
10085TIP3    H251747   3.506   0.915  15.369  0.1238 -0.2990  0.3623
10086TIP3   OH251748   1.483   5.977  16.923 -0.4703 -0.0117  0.1021
10086TIP3    H151749   1.550   5.970  16.856  0.1300 -0.8805  0.7673
10086TIP3    H251750   1.441   6.062  16.907  0.9599  0.6724 -0.1607
10087TIP3   OH251751   5.673   0.162   5.477 -0.2207  0.2249  0.0576
10087TIP3    H151752   5.711   0.121   5.555  1.4228  0.0707 -0.7980
10087TIP3    H251753   5.725   0.240   5.462  0.1647 -0.2797 -1.4610
10088TIP3   OH251754   0.892   1.479   6.476 -0.0080  0.2887  0.3646
10088TIP3    H151755   0.824   1.502   6.539 -0.7692 -0.1888 -0.2649
10088TIP3    H251756   0.942   1.409   6.519 -0.2254  0.2996  0.6340
10089TIP3   OH251757   3.372   2.737  13.583 -0.4409 -0.2483 -0.2972
10089TIP3    H151758   3.391   2.645  13.568  1.2946  0.0744 -0.3337
10089TIP3    H251759   3.351   2.742  13.677  1.4490 -0.4411  0.1863
10090TIP3   OH251760   3.977   0.284  15.293  0.3537  0.3464 -0.0746
10090TIP3    H151761   3.915   0.221  15.328 -0.2312  0.5255 -0.7443
10090TIP3    H251762   4.059   0.267  15.339  0.5102 -1.6172 -0.9966
10091TIP3   OH251763   5.177   3.669  15.926  0.3856  0.0670  0.5428
10091TIP3    H151764   5.204   3.718  15.848 -1.3653 -2.1513 -1.6226
10091TIP3    H251765   5.120   3.730  15.973  0.2756  0.9789 -0.6928
10092TIP3   OH251766   4.998   6.634  15.287  0.2305  0.4352  0.1568
10092TIP3    H151767   5.013   6.620  15.193 -0.5059 -0.1215  0.1158
10092TIP3    H251768   5.055   6.571  15.330 -0.9482 -0.7466  0.0302
10093TIP3   OH251769   2.329   1.087   0.674 -0.4206  0.3843  0.6553
10093TIP3    H151770   2.389   1.090   0.600  0.8885  1.1666  1.7123
10093TIP3    H251771   2.247   1.054   0.637  0.1038  1.0395 -1.1982
10094TIP3   OH251772   6.349   2.172   3.371  0.0050 -0.3115  0.4604
10094TIP3    H151773   6.289   2.098   3.378 -1.4493  0.5261 -2.0274
10094TIP3    H251774   6.315   2.236   3.433 -0.2544 -0.7351  0.7653
10095TIP3   OH251775   6.100   6.284  11.958 -0.4227 -0.0614  0.3209
10095TIP3    H151776   6.147   6.210  11.996  0.4408  0.1352 -0.3376
10095TIP3    H251777   6.071   6.253  11.872 -0.9376  0.0382  0.4549
10096TIP3   OH251778   5.497   5.660   3.385  0.2474 -0.2272 -0.5289
10096TIP3    H151779   5.416   5.704   3.407 -0.0545 -0.8549 -0.3648
10096TIP3    H251780   5.475   5.567   3.387  1.5623 -0.5546  1.9906
10097TIP3   OH251781   5.797   1.542   2.965 -0.2052  0.5178 -0.4667
10097TIP3    H151782   5.734   1.555   3.036  0.4029 -0.0099  0.1756
10097TIP3    H251783   5.875   1.507   3.008  0.5603  1.2323 -1.2472
10098TIP3   OH251784   3.123   0.118  16.196  0.1970  0.4185 -0.6393
10098TIP3    H151785   3.182   0.144  16.126  1.3974 -1.8129 -0.5480
10098TIP3    H251786   3.172   0.052  16.245 -1.5560  0.1159  0.8143
10099TIP3   OH251787   5.722   2.678   4.914 -0.5911 -0.9140  0.5837
10099TIP3    H151788   5.738   2.743   4.982 -2.1258 -0.5536  0.6220
10099TIP3    H251789   5.810   2.648   4.889  0.1033  0.5409  1.1561
10100TIP3   OH251790   6.550   0.589  14.653 -0.3098  0.1276  0.1515
10100TIP3    H151791   6.492   0.531  14.605  0.5726 -0.5523 -0.1230
10100TIP3    H251792   6.525   0.677  14.624 -0.7587 -0.1937 -0.4608
10101TIP3   OH251793   5.276   0.346  12.799  0.3136  0.5437 -0.0848
10101TIP3    H151794   5.338   0.359  12.871 -1.5120  1.3401  1.4168
10101TIP3    H251795   5.252   0.435  12.772  1.1258  0.2715 -1.8840
10102TIP3   OH251796   2.349   4.070  11.245  0.3696 -0.0542  0.7978
10102TIP3    H151797   2.303   4.129  11.185  0.3209 -1.3694 -0.5035
10102TIP3    H251798   2.400   4.013  11.188 -1.2289 -2.6955  1.8477
10103TIP3   OH251799   2.275   4.853   1.453  0.4623 -0.0377 -0.2973
10103TIP3    H151800   2.305   4.779   1.506 -1.4648 -0.4284  0.3306
10103TIP3    H251801   2.272   4.927   1.514  1.1067  0.2458 -0.6021
10104TIP3   OH251802   5.918   5.824  14.584 -0.1978 -0.5795 -0.0115
10104TIP3    H151803   5.858   5.893  14.555  0.4293  0.8524  1.8602
10104TIP3    H251804   6.004   5.856  14.558  0.3533  0.5885  2.8081
10105TIP3   OH251805   6.073   4.553   5.188 -0.6703 -0.2835 -0.0728
10105TIP3    H151806   6.064   4.465   5.153 -2.5692 -0.2305  0.1835
10105TIP3    H251807   6.160   4.581   5.159 -0.4389 -1.8408 -1.0285
10106TIP3   OH251808   3.391   6.574   2.538  0.3365  0.6119 -0.1594
10106TIP3    H151809   3.478   6.555   2.572  0.6426  0.4942 -0.9849
10106TIP3    H251810   3.343   6.492   2.550  1.0592 -0.1002 -1.8688
10107TIP3   OH251811   1.969   4.274   1.749  0.1309 -0.1617  0.1013
10107TIP3    H151812   2.020   4.206   1.793 -0.6840 -2.2653 -1.9717
10107TIP3    H251813   1.893   4.287   1.806  0.7991 -0.2774  1.0235
10108TIP3   OH251814   1.674   2.413  16.807  0.2943  0.1944  0.3383
10108TIP3    H151815   1.713   2.477  16.867  0.7231 -0.5782  0.9035
10108TIP3    H251816   1.603   2.461  16.764  0.2648  0.8950  1.1334
10109TIP3   OH251817   0.416   6.702   2.047  0.4220 -0.4205 -0.1182
10109TIP3    H151818   0.389   6.787   2.011 -1.3975  0.1614  2.2848
10109TIP3    H251819   0.474   6.665   1.981 -1.0505  1.3832 -2.6216
10110TIP3   OH251820   6.751   6.056   0.607  0.4752  0.0589 -0.2053
10110TIP3    H151821   6.820   6.096   0.553 -0.1348  0.2848 -0.8319
10110TIP3    H251822   6.732   6.121   0.674  1.0800 -0.1286  0.1573
10111TIP3   OH251823   0.550   1.933  11.607 -0.2122  0.0587 -0.6355
10111TIP3    H151824   0.553   1.883  11.525  1.1927 -0.7395 -0.1237
10111TIP3    H251825   0.606   2.009  11.591  0.4155 -0.3222 -0.2914
10112TIP3   OH251826   0.767   0.191   4.072  0.0725 -0.6850 -0.4196
10112TIP3    H151827   0.779   0.224   4.161 -1.1494 -0.6615 -0.2540
10112TIP3    H251828   0.856   0.183   4.037  0.6794 -2.3377  1.3752
10113TIP3   OH251829   4.064   4.112   2.827  0.0113  0.1303  0.0783
10113TIP3    H151830   4.064   4.018   2.845  0.8593  0.1709  0.3253
10113TIP3    H251831   4.067   4.153   2.913 -0.8669  0.3964 -0.0110
10114TIP3   OH251832   3.575   3.637   5.489  0.3170 -0.5234 -0.3308
10114TIP3    H151833   3.513   3.567   5.509  1.0071 -0.2546  3.4040
10114TIP3    H251834   3.530   3.717   5.514  1.3873 -0.1464  0.4503
10115TIP3   OH251835   6.705   0.439   1.755  0.5217 -0.0918 -0.0475
10115TIP3    H151836   6.671   0.528   1.762 -2.0837 -1.0567  0.5494
10115TIP3    H251837   6.698   0.403   1.843 -0.7321 -1.5945 -0.6984
10116TIP3   OH251838   2.689   3.304   2.234 -1.1872  0.0045  0.5598
10116TIP3    H151839   2.606   3.345   2.259 -0.7684  1.5285 -0.3814
10116TIP3    H251840   2.751   3.377   2.231  0.2452 -1.1228  1.4087
10117TIP3   OH251841   2.530   2.498  11.355 -0.5378 -0.4062 -0.3811
10117TIP3    H151842   2.517   2.592  11.365  0.6561 -0.4916  3.5599
10117TIP3    H251843   2.448   2.466  11.317 -0.7780  2.2132 -2.3135
10118TIP3   OH251844   1.824   4.975   5.047 -0.1232 -0.0599 -0.1203
10118TIP3    H151845   1.858   5.052   5.094  1.6909 -0.6675 -0.3358
10118TIP3    H251846   1.845   4.901   5.104 -1.5133 -0.4446 -0.0894
10119TIP3   OH251847   3.606   1.235   1.186  0.0816  0.4232  0.3744
10119TIP3    H151848   3.521   1.190   1.191  0.2717  0.2094  1.9674
10119TIP3    H251849   3.630   1.252   1.277  0.5741  2.7436 -0.1295
10120TIP3   OH251850   6.004   2.100   3.686 -0.1671  0.6053 -0.2561
10120TIP3    H151851   5.909   2.096   3.678 -0.1639  1.4245 -0.9590
10120TIP3    H251852   6.032   2.009   3.690 -1.0046  0.3632  0.3755
10121TIP3   OH251853   2.954   1.716   1.814  0.0816 -0.4218 -0.1161
10121TIP3    H151854   3.000   1.798   1.832  1.4046 -1.0833 -0.3505
10121TIP3    H251855   2.972   1.698   1.722 -2.9133  0.6391 -1.0292
10122TIP3   OH251856   0.198   1.338  15.097  0.3204 -0.1274 -0.2746
10122TIP3    H151857   0.118   1.314  15.143 -0.4011  3.0413  0.3049
10122TIP3    H251858   0.249   1.387  15.161  1.5215  0.2132 -1.4528
10123TIP3   OH251859   2.320   5.357   4.665 -0.2116  0.3641  0.2826
10123TIP3    H151860   2.379   5.357   4.590 -1.2582 -1.5462 -0.5986
10123TIP3    H251861   2.371   5.399   4.735  1.4656  0.5008 -0.9560
10124TIP3   OH251862   5.211   2.775  13.492 -0.2193  0.0984 -0.5368
10124TIP3    H151863   5.297   2.810  13.469  0.8073 -0.3683  2.1903
10124TIP3    H251864   5.220   2.680  13.477  0.0388 -0.0520  0.5396
10125TIP3   OH251865   2.716   6.636   2.829 -0.1387 -0.4195 -0.2005
10125TIP3    H151866   2.805   6.638   2.796  0.5398  0.8801  1.5203
10125TIP3    H251867   2.662   6.673   2.759  0.9562  0.5342 -0.5562
10126TIP3   OH251868   5.737   6.083   3.455 -0.2480 -0.0217  0.1202
10126TIP3    H151869   5.685   6.157   3.423  0.2907  0.1165 -0.4562
10126TIP3    H251870   5.694   6.006   3.418  0.0555  0.1034 -0.5111
10127TIP3   OH251871   5.616   5.677  14.345  0.6138 -0.1356 -0.2892
10127TIP3    H151872   5.704   5.693  14.310  0.8466 -2.3075 -0.8086
10127TIP3    H251873   5.581   5.606  14.291 -0.9406 -0.2473  0.7996
10128TIP3   OH251874   1.185   5.219   2.755 -0.1000  0.3118 -0.8735
10128TIP3    H151875   1.156   5.129   2.768 -0.1170  0.2988 -1.0008
10128TIP3    H251876   1.131   5.270   2.816 -0.1335  0.2436 -0.8455
10129TIP3   OH251877   0.676   2.162  11.507  0.5227  0.0848  0.2690
10129TIP3    H151878   0.676   2.256  11.492  1.1836 -0.3761 -3.7400
10129TIP3    H251879   0.761   2.145  11.549  1.1601  1.1226 -0.5502
10130TIP3   OH251880   4.335   0.352   2.765  0.2773 -0.0871  0.0789
10130TIP3    H151881   4.350   0.295   2.690  0.0638  0.9631 -0.7884
10130TIP3    H251882   4.246   0.386   2.752  0.3777  0.4019  0.6046
10131TIP3   OH251883   2.647   6.275  11.707 -0.2766 -0.0326  0.2053
10131TIP3    H151884   2.583   6.206  11.686 -0.9407 -0.2308  2.5558
10131TIP3    H251885   2.595   6.355  11.714  0.0394  0.1739  0.2039
10132TIP3   OH251886   6.603   0.121  16.210  0.4613  0.0111 -0.7680
10132TIP3    H151887   6.560   0.189  16.157 -0.3710  1.2170  1.3164
10132TIP3    H251888   6.671   0.168  16.257  0.2145 -0.6934  0.3284
10133TIP3   OH251889   5.272   2.360  11.409 -0.5605  0.1831  0.1446
10133TIP3    H151890   5.253   2.451  11.434 -1.9176 -0.1003  0.2263
10133TIP3    H251891   5.185   2.320  11.399 -0.0427 -1.8328  2.7278
10134TIP3   OH251892   6.209   4.776  12.024  0.0740  0.4341  0.1774
10134TIP3    H151893   6.269   4.782  12.098  0.5997  0.9811 -0.2799
10134TIP3    H251894   6.264   4.744  11.952 -0.3561  0.2302 -0.0628
10135TIP3   OH251895   0.835   1.481   0.395  0.0376 -0.3011  0.2209
10135TIP3    H151896   0.775   1.554   0.379 -1.8972 -1.3285  2.1065
10135TIP3    H251897   0.921   1.514   0.372 -1.0771  1.7168 -1.3496
10136TIP3   OH251898   5.783   3.289   1.827  0.0834 -0.4182  0.1043
10136TIP3    H151899   5.876   3.270   1.837 -0.0692 -1.2110  0.0855
10136TIP3    H251900   5.773   3.308   1.734 -0.0306 -1.8936 -0.2087
10137TIP3   OH251901   3.542   2.325   1.896  0.2263 -0.2759  0.5427
10137TIP3    H151902   3.570   2.298   1.984 -1.4651 -2.5420  0.4998
10137TIP3    H251903   3.588   2.265   1.837 -0.0501  0.0066  0.0385
10138TIP3   OH251904   5.482   6.295  14.329  0.5616 -0.0948  0.2924
10138TIP3    H151905   5.468   6.221  14.388 -2.2228 -0.5590 -0.7955
10138TIP3    H251906   5.396   6.313  14.291  1.8452  1.3575 -2.2475
10139TIP3   OH251907   4.731   1.017  11.046 -0.1365 -0.4366  0.4880
10139TIP3    H151908   4.805   1.070  11.014 -0.1463  0.9777  2.6255
10139TIP3    H251909   4.661   1.033  10.982  0.2176  1.3188  0.4940
10140TIP3   OH251910   4.618   6.219  14.915  0.8128  0.2423 -0.1289
10140TIP3    H151911   4.667   6.242  14.836  0.3790 -0.7123 -0.6914
10140TIP3    H251912   4.681   6.232  14.986  1.4558  0.3588 -0.7027
10141TIP3   OH251913   2.372   0.887   3.499  0.5259  0.2447  0.0832
10141TIP3    H151914   2.341   0.939   3.424 -0.1142 -0.0050  0.1655
10141TIP3    H251915   2.374   0.949   3.571  1.1399  0.4858 -0.1299
10142TIP3   OH251916   5.775   4.291   0.606  0.0523  0.5307  0.5063
10142TIP3    H151917   5.687   4.275   0.572  0.1763  0.5250  0.1767
10142TIP3    H251918   5.802   4.207   0.643  0.8049 -0.1715 -1.4540
10143TIP3   OH251919   3.273   3.640  11.386  1.0203 -0.3389  0.1621
10143TIP3    H151920   3.347   3.604  11.336  0.7266  1.4558 -1.6634
10143TIP3    H251921   3.213   3.566  11.395  1.8218 -1.1341 -0.7449
10144TIP3   OH251922   1.264   5.786   3.145 -0.1447  0.3162  0.1187
10144TIP3    H151923   1.359   5.798   3.153 -0.1428 -0.5000  1.5415
10144TIP3    H251924   1.229   5.875   3.145  0.6908  0.7026 -1.9619
10145TIP3   OH251925   1.263   3.658  11.481  0.3284  0.2022 -0.4751
10145TIP3    H151926   1.265   3.647  11.386  0.5171 -0.3244 -0.4085
10145TIP3    H251927   1.276   3.752  11.494 -0.8354  0.4537 -1.0171
10146TIP3   OH251928   4.181   0.828  13.365 -0.1712  0.4226  0.0513
10146TIP3    H151929   4.237   0.902  13.391 -0.0995  0.6572 -0.7429
10146TIP3    H251930   4.231   0.783  13.297 -1.2016  1.0317 -1.1695
10147TIP3   OH251931   2.546   4.495  16.341 -0.1474 -0.3306 -0.0995
10147TIP3    H151932   2.521   4.432  16.408  2.6907 -0.7936  0.6530
10147TIP3    H251933   2.559   4.443  16.262 -1.5149 -0.0724 -0.5242
10148TIP3   OH251934   2.446   4.772  12.666  0.2074  0.1461  0.5401
10148TIP3    H151935   2.384   4.845  12.655  1.2663  0.8262 -1.7441
10148TIP3    H251936   2.399   4.696  12.631  0.1226  0.3389  0.2283
10149TIP3   OH251937   1.927   4.196  12.708 -0.6912 -0.4031 -0.2639
10149TIP3    H151938   1.853   4.136  12.717 -0.6462 -0.7530 -1.8392
10149TIP3    H251939   1.954   4.187  12.616  0.3202  0.8717 -0.1252
10150TIP3   OH251940   5.207   1.009   2.653 -0.4691 -1.2121 -0.1109
10150TIP3    H151941   5.233   1.042   2.739  1.5240  1.3233 -1.5652
10150TIP3    H251942   5.117   1.040   2.641 -0.2579 -0.3553  0.4951
10151TIP3   OH251943   3.575   0.832   1.361  0.0260 -0.2774 -0.2054
10151TIP3    H151944   3.660   0.788   1.364  0.8342  1.2218 -0.5360
10151TIP3    H251945   3.548   0.825   1.269  0.0988 -0.1572 -0.2348
10152TIP3   OH251946   2.323   4.096   4.972 -0.7775  0.3017  0.4788
10152TIP3    H151947   2.243   4.148   4.965 -0.1171  1.3598  0.6049
10152TIP3    H251948   2.338   4.086   5.066  0.7871  2.6298  0.5619
10153TIP3   OH251949   3.394   4.243   3.576  0.0897 -0.0865  0.6637
10153TIP3    H151950   3.480   4.243   3.533  0.3076 -0.5249  1.0964
10153TIP3    H251951   3.398   4.171   3.638  0.3024  1.4320  2.4970
10154TIP3   OH251952   3.042   6.539   0.573 -0.6440  0.3740 -0.6313
10154TIP3    H151953   3.095   6.459   0.575 -0.7535  0.2744  1.7512
10154TIP3    H251954   2.962   6.514   0.527 -0.2152 -0.5946 -0.8671
10155TIP3   OH251955   6.084   0.986   0.264  0.2729  0.0625 -0.6095
10155TIP3    H151956   6.152   1.038   0.307 -1.6578  1.8875  0.4469
10155TIP3    H251957   6.029   1.050   0.219 -1.9321 -1.0658  0.3141
10156TIP3   OH251958   5.345   2.332  15.639  0.5339 -0.3844 -0.2104
10156TIP3    H151959   5.370   2.246  15.606  0.6068 -0.0131 -1.1879
10156TIP3    H251960   5.257   2.320  15.674  1.1987 -1.2213  1.2359
10157TIP3   OH251961   4.052   2.853  15.739  0.1431 -0.0818 -0.0300
10157TIP3    H151962   4.043   2.934  15.790 -1.5428  1.1549 -2.1136
10157TIP3    H251963   3.980   2.798  15.768  1.8604 -1.3831  2.1065
10158TIP3   OH251964   1.231   0.155   4.825 -0.5409  0.2165  0.2125
10158TIP3    H151965   1.224   0.195   4.912 -0.8986  0.6837 -0.0246
10158TIP3    H251966   1.141   0.134   4.801 -0.2522 -2.2171  0.9848
10159TIP3   OH251967   0.351   1.940   4.949 -0.2083  0.0279  0.2868
10159TIP3    H151968   0.394   1.956   4.865 -0.6627 -0.5802 -0.0707
10159TIP3    H251969   0.423   1.928   5.011  0.1329  0.1131 -0.0878
10160TIP3   OH251970   0.743   4.934  12.581  0.2400  0.0289  0.4051
10160TIP3    H151971   0.821   4.903  12.533  0.0767  0.9999 -0.5387
10160TIP3    H251972   0.673   4.932  12.515 -0.5689 -0.8761  1.2581
10161TIP3   OH251973   5.181   6.317  14.315  0.7451 -0.6347  0.7243
10161TIP3    H151974   5.175   6.357  14.402 -0.7686  0.5933  0.1096
10161TIP3    H251975   5.098   6.271  14.305  0.8583 -0.6613 -0.1205
10162TIP3   OH251976   4.759   1.506   1.170 -0.9618 -0.2787 -0.1733
10162TIP3    H151977   4.815   1.459   1.231 -0.4847  0.2141 -0.2175
10162TIP3    H251978   4.815   1.522   1.094 -1.1466  0.2408 -0.2066
10163TIP3   OH251979   5.421   3.940  16.298  0.0528 -0.7931  0.0250
10163TIP3    H151980   5.345   3.952  16.354 -0.8065 -0.5004 -1.1788
10163TIP3    H251981   5.492   3.918  16.358 -0.5586  0.6794  1.3390
10164TIP3   OH251982   4.187   1.891   3.298 -0.1517  0.0541 -0.2038
10164TIP3    H151983   4.178   1.975   3.252  2.1468  1.3623  1.5045
10164TIP3    H251984   4.256   1.845   3.252 -2.9233 -2.1095 -2.5753
10165TIP3   OH251985   6.289   1.616  11.474 -0.0433 -0.6407 -0.6420
10165TIP3    H151986   6.380   1.585  11.470  0.1690 -0.2515  0.5276
10165TIP3    H251987   6.297   1.706  11.506 -0.8295 -0.4826 -0.8774
10166TIP3   OH251988   5.912   0.009  13.649  0.5235 -0.1336  0.7265
10166TIP3    H151989   5.959   0.080  13.605 -1.2178  0.7177  0.1168
10166TIP3    H251990   5.908   0.036  13.741  0.1236  0.4321  0.5477
10167TIP3   OH251991   3.208   0.317   3.837 -0.4389  0.1230 -0.0741
10167TIP3    H151992   3.205   0.392   3.896 -0.1776  0.0002  0.1030
10167TIP3    H251993   3.125   0.318   3.790 -0.2181  0.8330 -0.4603
10168TIP3   OH251994   4.460   1.624  11.727  0.3259  0.2804 -0.0032
10168TIP3    H151995   4.526   1.640  11.660 -0.8250  1.9677 -0.8286
10168TIP3    H251996   4.417   1.543  11.700 -1.8069  2.1624 -2.9071
10169TIP3   OH251997   6.394   1.192  13.438  0.3294  0.4004 -0.4095
10169TIP3    H151998   6.309   1.164  13.470  0.9274 -0.8775  0.1551
10169TIP3    H251999   6.409   1.278  13.479 -0.2949  0.2242  0.1982
10170TIP3   OH252000   0.845   5.417  15.962 -0.4922 -0.4683  0.0067
10170TIP3    H152001   0.866   5.460  16.045  0.8267 -0.0157 -0.5351
10170TIP3    H252002   0.811   5.487  15.907 -0.3286 -0.5485 -0.1963
10171TIP3   OH252003   2.462   3.093  11.130  0.2967  0.1422 -0.5757
10171TIP3    H152004   2.434   3.169  11.078 -0.0567 -0.9192 -2.0075
10171TIP3    H252005   2.380   3.054  11.161  0.4947  0.5565  0.4859
10172TIP3   OH252006   3.792   5.122  13.689  0.1901  0.1256  0.0567
10172TIP3    H152007   3.748   5.154  13.610 -0.6405 -0.7258  0.1596
10172TIP3    H252008   3.844   5.048  13.658  0.1865  0.0454  0.2482
10173TIP3   OH252009   5.157   1.812   5.355  0.7902 -0.2142 -0.5482
10173TIP3    H152010   5.210   1.765   5.419  0.3061  0.0704  0.0733
10173TIP3    H252011   5.070   1.775   5.364  0.2477  1.2202  0.4086
10174TIP3   OH252012   4.492   3.985   2.785  0.2027 -0.4136 -0.1999
10174TIP3    H152013   4.444   4.067   2.796  1.8639  0.6447 -0.6206
10174TIP3    H252014   4.554   3.983   2.857  0.7810 -0.8765 -0.7003
10175TIP3   OH252015   1.309   3.329  14.955  0.2817  0.2248 -0.1966
10175TIP3    H152016   1.256   3.388  14.901 -0.9161 -1.7890 -1.3471
10175TIP3    H252017   1.381   3.302  14.898 -0.4082 -1.0993 -0.4811
10176TIP3   OH252018   5.533   2.528   1.009  0.4823  0.4651 -0.0253
10176TIP3    H152019   5.484   2.451   1.038  0.6960 -0.4075 -1.8321
10176TIP3    H252020   5.606   2.535   1.071  1.4875 -1.9115 -0.8338
10177TIP3   OH252021   2.702   0.468   2.384  0.4172 -0.4453  0.2915
10177TIP3    H152022   2.728   0.377   2.371 -0.6023 -0.7755  0.4217
10177TIP3    H252023   2.645   0.466   2.461  0.2724  0.2783  0.2167
10178TIP3   OH252024   0.768   2.472   3.032  0.4047 -0.5915  0.1126
10178TIP3    H152025   0.808   2.552   2.996 -1.1778  0.7754  1.2088
10178TIP3    H252026   0.813   2.458   3.115 -0.7344  0.4731  0.9545
10179TIP3   OH252027   3.821   1.168   1.640 -0.4436 -0.0462 -0.4509
10179TIP3    H152028   3.886   1.116   1.594  1.2747  0.6845  1.0054
10179TIP3    H252029   3.766   1.205   1.571 -0.6045 -2.2976 -1.5998
10180TIP3   OH252030   2.053   4.781  14.209  0.2865 -0.7113 -0.3427
10180TIP3    H152031   2.031   4.687  14.211 -0.1651 -0.6095 -0.5243
10180TIP3    H252032   1.992   4.818  14.146  1.0761 -0.4515 -0.9704
10181TIP3   OH252033   4.476   4.275   0.952  0.3607 -0.3075  0.1351
10181TIP3    H152034   4.483   4.341   0.884  0.0257 -0.1400  0.2605
10181TIP3    H252035   4.387   4.241   0.943  0.3791 -0.4197  0.3645
10182TIP3   OH252036   1.395   0.991   5.707  0.3991 -0.0819 -0.5484
10182TIP3    H152037   1.318   0.934   5.703  0.9317 -0.7282 -2.4043
10182TIP3    H252038   1.403   1.027   5.619  1.9736  0.3231 -0.2596
10183TIP3   OH252039   3.441   1.177   0.453  0.8627 -0.3942 -0.1111
10183TIP3    H152040   3.532   1.197   0.434  0.9087 -1.6231 -1.3304
10183TIP3    H252041   3.445   1.100   0.510  0.5726 -0.6286 -0.4095
10184TIP3   OH252042   5.932   2.884  10.964 -0.4918 -0.1302 -0.2985
10184TIP3    H152043   6.003   2.898  10.902 -0.5837  0.4032 -0.2930
10184TIP3    H252044   5.871   2.956  10.946 -0.6008 -0.0686  0.2927
10185TIP3   OH252045   5.887   3.435   2.983 -0.3319  0.2607 -0.0225
10185TIP3    H152046   5.851   3.364   2.928  1.3513 -1.9337  1.5254
10185TIP3    H252047   5.838   3.428   3.065  0.0188  0.7554  0.2292
10186TIP3   OH252048   3.464   1.194   3.662  0.5800  0.2906 -0.1072
10186TIP3    H152049   3.557   1.189   3.684  0.5314  0.7011  0.2011
10186TIP3    H252050   3.419   1.192   3.747  0.3606  1.1866 -0.1989
10187TIP3   OH252051   3.328   3.284   5.948  0.2597 -0.0420 -0.3015
10187TIP3    H152052   3.268   3.353   5.919 -0.6801 -1.7587 -2.7864
10187TIP3    H252053   3.272   3.221   5.993  0.8988  0.1296  0.7814
10188TIP3   OH252054   6.106   2.597   1.604 -0.1712 -0.1580 -0.1241
10188TIP3    H152055   6.022   2.614   1.648 -0.1268 -3.0337  1.2811
10188TIP3    H252056   6.081   2.548   1.526  0.1773 -1.4520  0.5515
10189TIP3   OH252057   4.900   3.190   5.022 -0.0160 -0.3919 -0.4039
10189TIP3    H152058   4.955   3.157   4.950 -1.7077 -0.2008 -1.8708
10189TIP3    H252059   4.868   3.111   5.066 -2.5553 -0.7994 -2.7336
10190TIP3   OH252060   3.603   6.647   2.957 -0.1973 -0.8103  0.3034
10190TIP3    H152061   3.642   6.699   2.886  0.4735  1.2558  2.0518
10190TIP3    H252062   3.670   6.650   3.026  0.0148 -4.4079  0.3953
10191TIP3   OH252063   3.265   6.487  15.193 -0.1655  0.1519 -0.6928
10191TIP3    H152064   3.197   6.555  15.194 -0.2335  0.0845 -0.7550
10191TIP3    H252065   3.339   6.528  15.149  0.3577  0.7332  0.6683
10192TIP3   OH252066   4.751   0.131  10.922 -0.3036 -0.4114 -0.0678
10192TIP3    H152067   4.739   0.051  10.870  0.7034  0.4796 -1.7389
10192TIP3    H252068   4.667   0.176  10.915 -0.2686 -0.4377 -0.6702
10193TIP3   OH252069   2.179   6.704   0.653 -0.0905  0.2713 -0.2363
10193TIP3    H152070   2.225   6.772   0.702  1.8131 -0.3794 -1.0147
10193TIP3    H252071   2.241   6.631   0.650 -0.6046 -0.1366 -2.5652
10194TIP3   OH252072   3.247   2.931   4.412  0.0148 -0.8700  0.4379
10194TIP3    H152073   3.283   2.922   4.323  2.7878  2.4141  0.9927
10194TIP3    H252074   3.322   2.915   4.469 -1.0980 -0.4851  2.0601
10195TIP3   OH252075   5.062   2.373  14.732  0.0449  0.6154  0.2145
10195TIP3    H152076   5.140   2.408  14.689  0.9077  0.1947  1.3691
10195TIP3    H252077   5.072   2.278  14.726  0.0900  0.5514  1.1499
10196TIP3   OH252078   5.850   3.781   4.993  0.8483  0.5036  0.5073
10196TIP3    H152079   5.936   3.747   4.967  0.4593  0.1045 -0.2862
10196TIP3    H252080   5.803   3.792   4.911  0.2436  1.0143  0.9173
10197TIP3   OH252081   4.918   0.592   1.208 -0.2993  0.3396 -0.0956
10197TIP3    H152082   4.931   0.636   1.292 -0.3993  2.3113 -1.0531
10197TIP3    H252083   5.006   0.571   1.177 -0.2985 -1.2892  0.9062
10198TIP3   OH252084   0.939   0.555   1.226 -0.0489  0.4989 -0.0203
10198TIP3    H152085   0.952   0.612   1.301  0.2139 -0.1517  0.4435
10198TIP3    H252086   1.021   0.506   1.219 -0.0895  0.5170 -0.7025
10199TIP3   OH252087   3.680   6.503  16.527 -0.5993 -0.1617 -0.8488
10199TIP3    H152088   3.731   6.426  16.503 -1.9372 -1.0007 -1.1349
10199TIP3    H252089   3.634   6.477  16.607  0.2419  0.9651  0.0241
10200TIP3   OH252090   0.789   0.770  14.262  0.2778  0.6778  0.3327
10200TIP3    H152091   0.769   0.861  14.241  1.1173  1.0605  1.1095
10200TIP3    H252092   0.763   0.721  14.184 -0.1611  1.5815 -0.1040
10201TIP3   OH252093   2.954   2.456  12.604 -0.5432 -0.2287 -0.0219
10201TIP3    H152094   3.032   2.404  12.626 -0.2802 -1.1403 -2.7361
10201TIP3    H252095   2.957   2.530  12.665  1.1658 -1.4303  1.4590
10202TIP3   OH252096   3.701   4.818   4.342 -0.5963 -0.1501  0.2280
10202TIP3    H152097   3.691   4.914   4.342  0.2295 -0.0459 -0.7115
10202TIP3    H252098   3.661   4.790   4.424  1.6926  1.2766  1.9583
10203TIP3   OH252099   5.538   3.117  11.873 -0.3499  0.2420 -0.4899
10203TIP3    H152100   5.495   3.172  11.807  2.7050  0.5538 -2.3979
10203TIP3    H252101   5.575   3.179  11.935 -4.2186 -0.0646  2.4765
10204TIP3   OH252102   3.636   5.475  16.140  0.1585 -0.0521 -0.7429
10204TIP3    H152103   3.674   5.557  16.170 -0.4038  0.4123 -1.2732
10204TIP3    H252104   3.667   5.410  16.203  0.6323  0.5556 -0.3337
10205TIP3   OH252105   6.826   2.495  14.524  0.3133  0.3752  0.1023
10205TIP3    H152106   6.751   2.544  14.558  0.5741 -0.2842  1.7400
10205TIP3    H252107   6.892   2.500  14.594  1.4238  0.1060 -0.8927
10206TIP3   OH252108   5.701   4.999   3.339  0.1355  0.2105 -0.1072
10206TIP3    H152109   5.739   4.952   3.414  1.1152  0.2770 -0.5497
10206TIP3    H252110   5.715   5.091   3.360  0.1343  0.2383 -0.2325
10207TIP3   OH252111   0.208   2.969  16.616 -0.1512 -0.3155 -0.1382
10207TIP3    H152112   0.134   3.021  16.647  0.8109  2.1098 -1.6665
10207TIP3    H252113   0.254   2.943  16.696 -0.7922  1.0129  0.7003
10208TIP3   OH252114   3.410   5.386  13.645 -0.8354 -0.1749  0.3203
10208TIP3    H152115   3.451   5.356  13.726  1.5850 -0.5485 -0.9437
10208TIP3    H252116   3.403   5.481  13.656  0.7364 -0.0522  0.4760
10209TIP3   OH252117   3.775   1.487   2.034  0.1167  0.3326 -0.0126
10209TIP3    H152118   3.791   1.396   2.060  1.2315  0.9296  1.5489
10209TIP3    H252119   3.718   1.522   2.102  0.3950  1.0212 -0.1244
10210TIP3   OH252120   6.398   3.821  15.823  0.3555 -0.1578  0.1541
10210TIP3    H152121   6.318   3.874  15.825 -0.0009 -0.7104  0.5764
10210TIP3    H252122   6.469   3.885  15.812  0.0570  0.5408  1.9975
10211TIP3   OH252123   6.316   3.528  12.917  0.2262  0.8121  0.0581
10211TIP3    H152124   6.344   3.531  12.826 -0.0948  2.1804 -0.0201
10211TIP3    H252125   6.245   3.592  12.922  1.6437  2.3875  1.7117
10212TIP3   OH252126   3.130   2.423   4.959 -0.6686  0.3020 -0.6580
10212TIP3    H152127   3.065   2.486   4.990 -0.4129  0.0810  0.3589
10212TIP3    H252128   3.213   2.470   4.966 -0.3229 -0.4751  1.2047
10213TIP3   OH252129   0.089   3.371   1.831  0.0184 -0.1116  0.1308
10213TIP3    H152130   0.028   3.436   1.798 -0.7442 -1.1417 -0.5642
10213TIP3    H252131   0.053   3.287   1.801  1.2444 -0.8147  0.5524
10214TIP3   OH252132   1.185   6.543   2.360 -0.1915 -0.1751 -0.3650
10214TIP3    H152133   1.156   6.625   2.320  0.9209 -0.6064 -2.1783
10214TIP3    H252134   1.176   6.478   2.290  2.2181 -0.9093 -0.0663
10215TIP3   OH252135   5.631   2.753   0.833  0.4832 -0.1383  0.2668
10215TIP3    H152136   5.598   2.676   0.878  0.0242  0.5472  1.1364
10215TIP3    H252137   5.726   2.745   0.839  0.4326 -0.2906  0.9823
10216TIP3   OH252138   6.225   2.820  15.794 -0.4337 -0.0798  0.5028
10216TIP3    H152139   6.211   2.764  15.870 -1.3235  0.3483  0.6623
10216TIP3    H252140   6.137   2.849  15.769 -0.2577 -0.8233 -1.1566
10217TIP3   OH252141   0.342   4.319  14.919  0.2889 -0.8529  0.1126
10217TIP3    H152142   0.435   4.299  14.930  0.1518 -0.5566  2.4274
10217TIP3    H252143   0.334   4.409  14.951 -0.8094 -0.9467  0.1340
10218TIP3   OH252144   3.297   3.318   1.456 -0.0801 -0.1128 -0.2920
10218TIP3    H152145   3.324   3.259   1.527 -1.4470  1.5432  1.7203
10218TIP3    H252146   3.207   3.293   1.436 -0.8327  1.4797  0.8940
10219TIP3   OH252147   2.559   2.711   1.758 -0.1530  0.3879  0.0602
10219TIP3    H152148   2.552   2.772   1.685 -0.7848  0.5336  0.2346
10219TIP3    H252149   2.653   2.698   1.769 -0.0681 -0.7025 -1.6375
10220TIP3   OH252150   5.869   6.727   3.511  0.3094 -0.2466  0.2655
10220TIP3    H152151   5.881   6.759   3.600 -0.9875 -0.8885  0.7012
10220TIP3    H252152   5.888   6.803   3.455  0.1424  0.4570  1.1411
10221TIP3   OH252153   2.603   0.936  11.165  0.1078 -0.4048 -0.9281
10221TIP3    H152154   2.600   0.841  11.181  1.1005  0.1287  3.9660
10221TIP3    H252155   2.516   0.957  11.131 -1.1836 -2.7304  0.6813
10222TIP3   OH252156   6.684   3.670   3.353 -0.0806 -0.6710  0.7033
10222TIP3    H152157   6.609   3.729   3.364 -0.3154 -1.0786  1.3568
10222TIP3    H252158   6.723   3.696   3.270 -1.9319 -1.5361 -0.5196
10223TIP3   OH252159   6.069   4.655   4.512  0.3055  0.3517  0.6156
10223TIP3    H152160   6.101   4.567   4.533 -0.6133 -0.8454 -2.4715
10223TIP3    H252161   5.997   4.669   4.573 -1.3316 -2.2807 -0.5482
10224TIP3   OH252162   4.932   6.088   3.005 -0.3841  0.1791  0.3992
10224TIP3    H152163   5.014   6.098   3.053 -0.4628  1.7614  0.2305
10224TIP3    H252164   4.870   6.144   3.051 -0.3263  2.2183 -1.8205
10225TIP3   OH252165   0.135   1.727   5.406  0.3916 -0.4456  0.4113
10225TIP3    H152166   0.211   1.714   5.463 -0.5346 -1.0735  1.5420
10225TIP3    H252167   0.068   1.765   5.463  0.1513  1.0530 -0.8053
10226TIP3   OH252168   3.075   1.970   1.827  0.1656  0.1792 -0.2740
10226TIP3    H152169   3.119   1.945   1.746  0.7707  1.8876 -0.5096
10226TIP3    H252170   2.987   1.998   1.800  0.2055  0.3038 -0.2734
10227TIP3   OH252171   6.245   2.727   5.222  0.0242 -0.1639 -0.3463
10227TIP3    H152172   6.336   2.751   5.241  0.5947 -2.1883 -0.2313
10227TIP3    H252173   6.194   2.769   5.291  0.5810  2.6224 -1.5044
10228TIP3   OH252174   4.295   1.173   3.388 -0.0790  0.3511 -0.6578
10228TIP3    H152175   4.320   1.129   3.307 -2.7594  0.0185 -1.4032
10228TIP3    H252176   4.336   1.122   3.457 -0.5975 -1.4837 -1.6526
10229TIP3   OH252177   3.704   6.140  14.349 -0.2251 -0.0280 -0.2763
10229TIP3    H152178   3.721   6.234  14.347 -1.0772  0.2061  1.3680
10229TIP3    H252179   3.791   6.100  14.340  0.5345  0.9914  1.7525
10230TIP3   OH252180   5.966   3.047  14.451 -0.0490  0.6890  0.3794
10230TIP3    H152181   5.904   2.984  14.414 -0.0262  1.6907 -1.5355
10230TIP3    H252182   6.016   2.997  14.515 -0.0110 -1.2656 -1.0636
10231TIP3   OH252183   1.071   0.707  16.799  0.3028 -0.2087 -0.3318
10231TIP3    H152184   1.046   0.675  16.886  1.9737  0.1728  0.3405
10231TIP3    H252185   1.011   0.664  16.739 -0.4671 -0.9968  0.9569
10232TIP3   OH252186   4.817   5.533   0.788 -0.8376 -0.5342  0.2922
10232TIP3    H152187   4.766   5.463   0.745 -1.1907  0.1368 -0.4045
10232TIP3    H252188   4.907   5.500   0.787 -1.0161 -1.0379  0.0824
10233TIP3   OH252189   3.602   4.855   1.856 -0.0791  0.0875  0.6146
10233TIP3    H152190   3.647   4.850   1.771 -1.2942  0.4014 -0.0827
10233TIP3    H252191   3.530   4.792   1.848  0.6800 -0.9701  1.9880
10234TIP3   OH252192   2.531   0.720  13.769  0.4335 -0.3283 -0.1111
10234TIP3    H152193   2.514   0.631  13.737 -1.7822  0.0134 -0.0103
10234TIP3    H252194   2.569   0.708  13.856  1.8981 -1.1699 -0.8278
10235TIP3   OH252195   5.596   4.713   4.033 -0.0641  0.6745 -0.4425
10235TIP3    H152196   5.547   4.638   4.001 -0.9774  1.1610 -0.2250
10235TIP3    H252197   5.532   4.785   4.036  0.4505  1.1198  0.6238
10236TIP3   OH252198   1.191   0.834  12.086  0.7710 -0.0801 -0.0754
10236TIP3    H152199   1.219   0.822  11.995  0.3060  1.9228 -0.5309
10236TIP3    H252200   1.265   0.804  12.138  1.1693 -0.9743 -1.1079
10237TIP3   OH252201   0.881   4.051   5.645  0.4593 -0.3586 -0.5867
10237TIP3    H152202   0.947   4.089   5.587  0.4624  3.5967  1.6703
10237TIP3    H252203   0.816   4.120   5.656 -1.2255 -2.1288  1.5684
10238TIP3   OH252204   2.131   4.582  15.491 -0.5687 -0.1859  0.3158
10238TIP3    H152205   2.085   4.549  15.567 -1.3210  0.4760  0.1704
10238TIP3    H252206   2.150   4.505  15.438  0.2916 -0.6912  1.3353
10239TIP3   OH252207   6.607   3.252  16.157  0.0525 -0.0604 -0.6893
10239TIP3    H152208   6.595   3.160  16.134  0.3489  0.4466 -3.1648
10239TIP3    H252209   6.521   3.280  16.190  0.0795 -1.2814  0.5145
10240TIP3   OH252210   2.349   5.955  16.592 -0.3452 -0.2338 -0.0720
10240TIP3    H152211   2.433   5.909  16.603  1.0152  2.2069  0.5119
10240TIP3    H252212   2.344   5.973  16.498  0.9076  1.4321  0.1253
10241TIP3   OH252213   0.168   1.771  15.100  0.2354 -0.1392 -0.0165
10241TIP3    H152214   0.134   1.705  15.040 -0.4999 -2.0330  2.3397
10241TIP3    H252215   0.091   1.805  15.146  0.9988 -1.1332  2.1262
10242TIP3   OH252216   5.963   3.309   0.847  0.0113 -0.6420  1.0191
10242TIP3    H152217   6.027   3.380   0.837 -1.0386  0.0614 -1.5032
10242TIP3    H252218   6.012   3.239   0.891  1.8293  0.6765  1.2195
10243TIP3   OH252219   5.830   5.153  11.209 -0.1715  0.0629 -0.1848
10243TIP3    H152220   5.867   5.159  11.120 -0.0072 -0.7494 -0.1757
10243TIP3    H252221   5.891   5.098  11.257  1.0460  2.3793  1.1435
10244TIP3   OH252222   5.007   4.959  15.151 -0.4221 -0.2381  0.2884
10244TIP3    H152223   4.994   5.013  15.073 -0.9023 -0.4837  0.1953
10244TIP3    H252224   5.046   5.018  15.215 -0.3430  0.0524 -0.0252
10245TIP3   OH252225   4.276   3.398  16.682 -0.7609 -0.5334 -0.1486
10245TIP3    H152226   4.317   3.341  16.746 -0.9388 -0.5656 -0.0618
10245TIP3    H252227   4.187   3.365  16.674 -1.5014  0.9249  1.3875
10246TIP3   OH252228   5.121   2.099  16.829 -0.1550  0.1473 -0.2243
10246TIP3    H152229   5.060   2.036  16.791 -0.5626  0.2501  0.2441
10246TIP3    H252230   5.144   2.158  16.757 -0.1544 -0.2421 -0.5433
10247TIP3   OH252231   6.089   4.943   2.773  1.2194  0.2819  0.1547
10247TIP3    H152232   6.031   4.957   2.698  1.8910  0.0214 -0.4212
10247TIP3    H252233   6.074   5.020   2.829 -2.1266 -1.2755  1.7003
10248TIP3   OH252234   2.004   1.245  14.128 -0.0193  0.2524  0.2147
10248TIP3    H152235   2.020   1.317  14.067  0.7704 -0.0946  0.0115
10248TIP3    H252236   2.035   1.277  14.212  1.4844 -0.2911 -0.1109
10249TIP3   OH252237   4.689   0.982  16.046  0.3886  0.4881  0.5728
10249TIP3    H152238   4.757   0.992  15.979  0.5845  0.5217  0.7756
10249TIP3    H252239   4.735   0.996  16.129 -0.2139  2.3033  0.6325
10250TIP3   OH252240   2.581   1.511   5.045  0.1745  0.1604 -0.3199
10250TIP3    H152241   2.670   1.500   5.077  0.1993 -2.0628 -1.0175
10250TIP3    H252242   2.574   1.451   4.971 -1.9052  0.2990 -0.2965
10251TIP3   OH252243   4.864   1.192   1.161  0.2388 -0.0376  0.1727
10251TIP3    H152244   4.927   1.198   1.233  0.6738  0.9945 -0.2842
10251TIP3    H252245   4.812   1.115   1.182 -0.2446  0.7547  2.0905
10252TIP3   OH252246   5.872   5.724  14.272 -0.0710 -0.1836 -0.0172
10252TIP3    H152247   5.861   5.807  14.227  0.2760  0.3801  0.9208
10252TIP3    H252248   5.959   5.729  14.311  0.3795 -1.4064 -0.7949
10253TIP3   OH252249   3.001   3.697   3.502  0.2790 -0.1942 -0.3087
10253TIP3    H152250   2.916   3.654   3.489  1.1916 -2.7127  1.2996
10253TIP3    H252251   3.048   3.682   3.420 -0.2141 -0.3689 -0.5642
10254TIP3   OH252252   5.933   2.409   3.592  0.0696 -0.4752  0.4939
10254TIP3    H152253   5.977   2.475   3.646 -0.4830 -1.6387  2.4627
10254TIP3    H252254   5.890   2.351   3.655 -0.3359 -2.1243 -1.2118
10255TIP3   OH252255   6.615   0.430   4.265 -0.7551 -0.1362  0.3035
10255TIP3    H152256   6.608   0.367   4.336  2.5668 -1.2484 -0.1645
10255TIP3    H252257   6.698   0.475   4.282 -0.5365  0.5052 -2.1298
10256TIP3   OH252258   5.765   6.562   6.439 -0.3859 -0.1301 -0.2489
10256TIP3    H152259   5.730   6.501   6.374 -1.6310  0.0426  0.2261
10256TIP3    H252260   5.688   6.590   6.489 -0.0373  2.5476 -1.0484
10257TIP3   OH252261   0.701   2.811  13.556 -0.2755  0.0603 -0.4379
10257TIP3    H152262   0.724   2.824  13.648 -0.3502  0.9515 -0.5407
10257TIP3    H252263   0.784   2.786  13.514 -0.3002 -0.6330 -0.0779
10258TIP3   OH252264   5.004   1.777  13.074 -0.0886  0.0450 -0.8067
10258TIP3    H152265   5.053   1.728  13.007  0.0945 -0.6251 -0.1959
10258TIP3    H252266   4.912   1.765  13.051 -0.0623 -0.9965 -0.3853
10259TIP3   OH252267   4.140   0.074  15.434 -0.4406  0.6388 -0.1622
10259TIP3    H152268   4.116   0.041  15.521 -0.4348  0.8632 -0.0746
10259TIP3    H252269   4.065   0.053  15.379  0.1629 -0.8998 -0.4746
10260TIP3   OH252270   1.209   5.033   0.615  0.4064  0.0984 -0.3503
10260TIP3    H152271   1.199   4.985   0.533  0.6111 -0.0787 -0.2715
10260TIP3    H252272   1.303   5.044   0.625  0.3710  0.3439 -0.2661
10261TIP3   OH252273   3.936   2.985   2.442 -0.0364 -0.2922  0.1938
10261TIP3    H152274   3.934   2.946   2.529  0.0428 -0.5549  0.0796
10261TIP3    H252275   3.990   2.925   2.390 -1.3024 -0.9608 -0.4254
10262TIP3   OH252276   2.567   1.895  13.419 -0.5212  0.0120  0.6488
10262TIP3    H152277   2.483   1.938  13.436 -0.7630 -0.7392  1.4203
10262TIP3    H252278   2.546   1.802  13.416  0.1668 -0.1308  0.0847
10263TIP3   OH252279   1.755   0.066  14.971 -0.3218  0.0895 -0.3752
10263TIP3    H152280   1.794  -0.010  14.927 -0.4563 -0.1055 -0.1567
10263TIP3    H252281   1.673   0.081  14.923 -1.1072 -0.9171  0.6034
10264TIP3   OH252282   2.139   3.873   1.919  0.0098 -0.1040  0.3072
10264TIP3    H152283   2.150   3.849   1.827  0.0327  0.4398  0.1652
10264TIP3    H252284   2.191   3.808   1.967 -1.7977 -1.7630  0.1027
10265TIP3   OH252285   5.697   1.254  14.033 -0.2379 -0.7541  0.4461
10265TIP3    H152286   5.777   1.253  14.086 -1.0798  0.2946  1.7888
10265TIP3    H252287   5.717   1.196  13.960  1.6590 -0.7301  0.8826
10266TIP3   OH252288   2.469   1.454  15.224 -0.6965  0.1428  0.5492
10266TIP3    H152289   2.476   1.377  15.282 -1.0734  1.1840  2.0432
10266TIP3    H252290   2.543   1.444  15.164  0.3473 -0.4904  1.8571
10267TIP3   OH252291   5.980   3.120   4.325 -0.1343 -0.1491 -0.6639
10267TIP3    H152292   6.040   3.189   4.352 -0.3461  0.0738 -0.7569
10267TIP3    H252293   5.964   3.069   4.405  0.5992 -0.5399 -0.7576
10268TIP3   OH252294   0.065   0.196  15.788  0.3305  0.3356  0.3111
10268TIP3    H152295   0.041   0.153  15.706  0.7587 -0.4199  0.5756
10268TIP3    H252296  -0.012   0.185  15.844  0.4440 -0.1052  0.3830
10269TIP3   OH252297   3.064   3.980  16.745 -0.0878 -0.0191  0.4542
10269TIP3    H152298   3.062   4.075  16.752 -1.3406 -0.0816  1.1417
10269TIP3    H252299   3.158   3.958  16.748  0.3944  1.3260 -2.1446
10270TIP3   OH252300   6.454   4.591   0.424 -0.3630 -0.2984 -0.0847
10270TIP3    H152301   6.433   4.602   0.331 -0.3822 -1.1326 -0.1895
10270TIP3    H252302   6.418   4.669   0.466 -0.8497 -0.1766 -0.7052
10271TIP3   OH252303   0.732   6.420   1.056 -0.1471  0.4531 -0.1568
10271TIP3    H152304   0.796   6.481   1.020 -1.1393  0.2723 -2.3492
10271TIP3    H252305   0.736   6.435   1.151  2.6430  0.8833 -0.2644
10272TIP3   OH252306   4.204   6.207  11.460 -0.4398  0.0072 -0.2459
10272TIP3    H152307   4.285   6.199  11.510 -1.1075  0.1412  0.8901
10272TIP3    H252308   4.211   6.293  11.417 -1.2193  1.3999  2.2033
10273TIP3   OH252309   2.256   4.398  12.746  0.0898  0.6018 -0.5391
10273TIP3    H152310   2.305   4.345  12.683  0.4271  0.1546  0.0853
10273TIP3    H252311   2.226   4.334  12.811 -0.1748  1.0720 -0.2023
10274TIP3   OH252312   5.419   1.547   1.320 -0.4439  0.1026 -0.6300
10274TIP3    H152313   5.469   1.519   1.396 -1.5572 -0.4098 -0.0545
10274TIP3    H252314   5.333   1.569   1.355 -0.6244  0.9934 -1.5835
10275TIP3   OH252315   5.946   2.923   4.081 -0.6157 -0.2968  0.2792
10275TIP3    H152316   5.908   2.959   4.001  0.9363 -0.7636 -0.7077
10275TIP3    H252317   6.009   2.988   4.110 -1.5253  0.1054  1.4541
10276TIP3   OH252318   6.203   1.942   3.362 -0.6727  0.2956 -0.4636
10276TIP3    H152319   6.110   1.923   3.372 -0.3857 -1.4585 -0.8832
10276TIP3    H252320   6.226   1.907   3.276  1.1142 -2.6246  1.0294
10277TIP3   OH252321   4.560   3.667  15.316 -0.8817  0.0921 -0.2305
10277TIP3    H152322   4.643   3.645  15.274 -0.5706  0.3880  0.2237
10277TIP3    H252323   4.523   3.582  15.340 -0.8039 -0.0512 -0.6095
10278TIP3   OH252324   3.859   0.988   4.322  0.1741  0.7044 -0.2609
10278TIP3    H152325   3.952   0.969   4.312  0.2480  1.0980 -0.3469
10278TIP3    H252326   3.820   0.962   4.239  0.1957  0.4855 -0.2039
10279TIP3   OH252327   4.059   0.091   2.618  0.0975  0.1080  0.2141
10279TIP3    H152328   4.020   0.166   2.664  0.8511  1.3397 -1.0734
10279TIP3    H252329   4.039   0.016   2.674  0.6818  1.4673  2.4181
10280TIP3   OH252330   1.126   2.946  11.092 -0.5311  0.4431  0.7004
10280TIP3    H152331   1.073   3.025  11.100 -0.1930  0.7936 -0.3204
10280TIP3    H252332   1.096   2.905  11.011 -1.0549 -0.7702  1.4648
10281TIP3   OH252333   4.230   4.024   3.806  0.0659  0.5974  0.3517
10281TIP3    H152334   4.234   3.938   3.765  0.8711  0.1229  1.3889
10281TIP3    H252335   4.322   4.046   3.824 -0.1136  1.7379 -0.0107
10282TIP3   OH252336   0.700   0.972  10.262 -0.2681 -0.0145 -0.3417
10282TIP3    H152337   0.643   1.036  10.306  2.3798  1.9344  0.5310
10282TIP3    H252338   0.741   1.022  10.191  0.2419 -1.3820 -1.0432
10283TIP3   OH252339   5.012   1.812  14.966  0.4500 -0.2607  0.0499
10283TIP3    H152340   5.003   1.790  14.874 -2.9123 -1.3782  0.5046
10283TIP3    H252341   5.083   1.877  14.969 -0.7112  1.3927 -3.5757
10284TIP3   OH252342   5.391   1.004   4.223 -0.4254 -0.4343 -0.1723
10284TIP3    H152343   5.378   1.025   4.316  1.7905 -1.2989  0.3852
10284TIP3    H252344   5.308   0.963   4.197 -0.5949 -1.5022  1.8263
10285TIP3   OH252345   0.441   0.351  10.962  0.3550 -0.2650  0.1155
10285TIP3    H152346   0.361   0.298  10.955 -2.6479  3.9102 -1.3399
10285TIP3    H252347   0.431   0.398  11.045  1.9189 -0.4579  0.4381
10286TIP3   OH252348   4.004   1.087  17.026  0.2958 -0.0359 -0.3223
10286TIP3    H152349   4.046   1.165  17.063 -1.4174  0.2039  1.2515
10286TIP3    H252350   3.998   1.106  16.932  0.8422  1.2877 -0.1204
10287TIP3   OH252351   5.049   3.941   5.795  0.5041  0.5376  0.0102
10287TIP3    H152352   5.104   3.887   5.737 -0.0354  0.0738 -0.0795
10287TIP3    H252353   5.004   3.877   5.851  1.1963  0.9885  1.1220
10288TIP3   OH252354   1.638   2.385   3.861  0.6529 -0.1189  0.4953
10288TIP3    H152355   1.726   2.377   3.824  0.2140  0.1565 -0.6615
10288TIP3    H252356   1.580   2.349   3.793 -0.3347  1.9057  0.1676
10289TIP3   OH252357   5.554   0.187   5.122 -0.2030 -0.0617  0.2615
10289TIP3    H152358   5.592   0.256   5.066  0.0215  0.5504  1.1424
10289TIP3    H252359   5.469   0.222   5.148  0.1004  0.1019  1.0752
10290TIP3   OH252360   4.147   3.576   5.664  0.7389 -0.0769  0.7801
10290TIP3    H152361   4.126   3.575   5.570  0.1484  2.0627  0.8445
10290TIP3    H252362   4.076   3.526   5.705 -0.2576  0.8874  0.2799
10291TIP3   OH252363   5.875   3.994   3.437 -0.1577  0.4188  0.4451
10291TIP3    H152364   5.847   3.920   3.492  1.1236  0.9267  1.8618
10291TIP3    H252365   5.817   3.990   3.361  0.8953 -3.0365 -0.3550
10292TIP3   OH252366   4.607   0.751  10.898 -0.0079 -0.2537  0.1816
10292TIP3    H152367   4.591   0.845  10.889  3.7935  0.5022 -0.7213
10292TIP3    H252368   4.624   0.721  10.809  0.8123 -1.2970  0.6608
10293TIP3   OH252369   4.888   5.195   5.600  0.0941 -0.3204  0.0223
10293TIP3    H152370   4.933   5.271   5.564 -0.7743 -0.3089 -1.1156
10293TIP3    H252371   4.919   5.189   5.691  1.4080  0.4024 -0.3550
10294TIP3   OH252372   0.335   2.763  15.470 -0.2042  0.2512  0.1269
10294TIP3    H152373   0.249   2.745  15.432 -1.9805 -0.6572  4.0375
10294TIP3    H252374   0.373   2.676  15.484  0.4609  0.5549  0.2288
10295TIP3   OH252375   2.126   6.146   1.919 -0.7046 -0.2273  1.0077
10295TIP3    H152376   2.176   6.065   1.924 -1.0729 -0.5341  0.0041
10295TIP3    H252377   2.119   6.176   2.010  0.7766 -0.4771  1.2307
10296TIP3   OH252378   5.192   0.941   1.422 -0.7835  0.0679 -0.2194
10296TIP3    H152379   5.268   0.890   1.451  0.2038  0.9616 -1.1535
10296TIP3    H252380   5.121   0.877   1.418 -0.3828 -0.5754  1.7440
10297TIP3   OH252381   3.735   0.497  13.642 -0.1947  0.2100  0.7263
10297TIP3    H152382   3.734   0.402  13.634  0.5817  0.0830  1.8502
10297TIP3    H252383   3.730   0.529  13.552 -0.3338 -0.8917  0.3289
10298TIP3   OH252384   6.196   2.601   5.671 -0.4377  0.0713 -0.4256
10298TIP3    H152385   6.263   2.543   5.706  2.1019  2.5686 -0.7329
10298TIP3    H252386   6.126   2.601   5.736  1.5356  0.1673  1.8103
10299TIP3   OH252387   0.851   2.209  15.808  0.4198 -0.2492 -0.1336
10299TIP3    H152388   0.898   2.287  15.838  0.2590 -0.1615 -0.1059
10299TIP3    H252389   0.890   2.137  15.857 -1.2731  0.1313  1.9195
10300TIP3   OH252390   2.057   2.276   3.081  0.0302 -0.2578 -0.0005
10300TIP3    H152391   2.126   2.270   3.147  0.0388 -1.2013 -0.0830
10300TIP3    H252392   2.079   2.208   3.017 -0.2967  0.2578 -0.6771
10301TIP3   OH252393   4.666   1.412  16.704  0.4170 -0.1592  0.7822
10301TIP3    H152394   4.600   1.464  16.659  0.5232 -0.0569  0.7453
10301TIP3    H252395   4.700   1.353  16.637  2.2262  1.5618  0.1215
10302TIP3   OH252396   2.683   1.339  10.235 -0.5162 -0.0308  0.4434
10302TIP3    H152397   2.649   1.261  10.279 -1.2797  1.0615  1.8982
10302TIP3    H252398   2.612   1.403  10.243  1.1447  1.7488  1.8965
10303TIP3   OH252399   1.124   3.805   4.299  0.0073 -0.4993 -0.1211
10303TIP3    H152400   1.159   3.890   4.274  0.0867 -1.2009 -2.6285
10303TIP3    H252401   1.129   3.804   4.395 -0.2034  2.3646 -0.0113
10304TIP3   OH252402   0.757   1.303  17.113 -0.0633  0.0949 -0.0906
10304TIP3    H152403   0.768   1.228  17.172 -1.9960  0.4237  0.7613
10304TIP3    H252404   0.801   1.375  17.159  0.0006 -0.0533  0.0841
10305TIP3   OH252405   5.477   2.645   5.566 -0.0612 -0.1753  0.6377
10305TIP3    H152406   5.508   2.718   5.513 -2.0820 -0.6482 -1.3007
10305TIP3    H252407   5.492   2.674   5.656 -0.2397  2.3738 -0.0735
10306TIP3   OH252408   6.400   1.993  15.962 -0.5528  0.3751  0.2009
10306TIP3    H152409   6.383   1.964  16.051 -1.9688  0.4651 -0.0248
10306TIP3    H252410   6.418   2.087  15.970  0.4328  0.1717  0.5040
10307TIP3   OH252411   1.130   0.518   0.666 -0.0152  0.3228 -0.0373
10307TIP3    H152412   1.201   0.460   0.695  0.0109 -0.1195 -0.9324
10307TIP3    H252413   1.165   0.606   0.677  0.0952  0.1660  0.9772
10308TIP3   OH252414   6.171   1.099   3.746  0.1306  0.0779  0.0949
10308TIP3    H152415   6.154   1.010   3.714  2.0811 -1.0359  1.8433
10308TIP3    H252416   6.173   1.089   3.841 -2.3574  2.6019  0.5414
10309TIP3   OH252417   3.010   5.361   1.748 -0.6339  0.4243  0.4321
10309TIP3    H152418   3.080   5.393   1.691  0.4076 -1.7474  0.3800
10309TIP3    H252419   3.042   5.379   1.837  0.2274 -0.9069  0.4214
10310TIP3   OH252420   6.742   3.035  15.316 -0.2512  0.3255 -0.0442
10310TIP3    H152421   6.781   2.953  15.286  0.2699  0.2221  0.8701
10310TIP3    H252422   6.657   3.010  15.351  0.4624 -0.0827  1.5185
10311TIP3   OH252423   2.499   2.628   3.516  0.0900 -0.1149  0.2834
10311TIP3    H152424   2.494   2.569   3.591  2.4389 -0.2798  0.3597
10311TIP3    H252425   2.407   2.644   3.493 -0.7421  0.1065  3.2824
10312TIP3   OH252426   4.809   2.300   1.282 -0.3704 -0.2146  0.1780
10312TIP3    H152427   4.895   2.279   1.246 -1.0428 -0.4176 -1.4034
10312TIP3    H252428   4.822   2.301   1.377  1.2229 -0.8849 -0.0014
10313TIP3   OH252429   5.496   3.901   5.537 -0.0354 -0.7055  0.1709
10313TIP3    H152430   5.500   3.844   5.460  0.0472 -0.7334  0.1952
10313TIP3    H252431   5.562   3.865   5.597 -0.9184 -1.4137  0.7500
10314TIP3   OH252432   5.096   1.559   4.429  0.2868  0.0163 -0.2502
10314TIP3    H152433   5.135   1.544   4.515 -0.4681 -0.5361  0.0123
10314TIP3    H252434   5.164   1.533   4.367  0.1375 -1.5526  0.1979
10315TIP3   OH252435   6.793   0.253  12.205  0.4462  0.0450  0.1711
10315TIP3    H152436   6.784   0.318  12.135 -1.1401 -0.7613 -0.4269
10315TIP3    H252437   6.712   0.201  12.200  0.7328 -0.6412  1.9910
10316TIP3   OH252438   3.384   0.873   5.571 -0.0889  0.6289  0.0827
10316TIP3    H152439   3.442   0.944   5.545  0.9662 -0.2400  0.0112
10316TIP3    H252440   3.324   0.862   5.497  3.4963 -2.5128 -2.7772
10317TIP3   OH252441   6.129   6.585  17.084 -0.1166 -0.3708  0.3618
10317TIP3    H152442   6.130   6.564  16.990 -1.7845 -1.1864  0.4767
10317TIP3    H252443   6.052   6.539  17.117  1.0155 -0.9282  2.3483
10318TIP3   OH252444   1.305   5.737  11.976  0.3500 -0.6116  0.2850
10318TIP3    H152445   1.236   5.673  11.993 -1.5304  1.0857 -0.5622
10318TIP3    H252446   1.377   5.709  12.033 -1.1156 -2.2728  1.4624
10319TIP3   OH252447   2.916   5.356   3.167 -0.4874  0.4846  0.2266
10319TIP3    H152448   2.981   5.425   3.180  1.7222 -1.6020  0.8169
10319TIP3    H252449   2.887   5.333   3.255  0.1562 -0.5749  0.1703
10320TIP3   OH252450   4.211   4.913  15.005 -0.4994  0.4268  0.2014
10320TIP3    H152451   4.159   4.858  14.948 -0.0335  0.8610 -0.6574
10320TIP3    H252452   4.282   4.945  14.950  0.2732  0.4228  1.1604
10321TIP3   OH252453   2.151   6.068  11.415 -0.0228 -0.3177 -0.2078
10321TIP3    H152454   2.196   5.998  11.464  0.2062  0.1980  0.3334
10321TIP3    H252455   2.191   6.066  11.328  0.0738 -0.7730 -0.1588
10322TIP3   OH252456   4.849   4.233   4.182  0.3952  0.2086  0.4785
10322TIP3    H152457   4.763   4.195   4.165  0.2972  0.4223  0.4944
10322TIP3    H252458   4.897   4.164   4.228  0.4101 -0.0964  0.0034
10323TIP3   OH252459   4.036   6.696   4.588 -0.3958 -0.3010 -0.8362
10323TIP3    H152460   4.012   6.713   4.679  1.3770 -0.4148 -0.3000
10323TIP3    H252461   4.024   6.780   4.544 -2.3829 -0.5172 -0.8117
10324TIP3   OH252462   2.450   4.103  15.517  0.3263 -0.2930 -0.0483
10324TIP3    H152463   2.356   4.104  15.499  0.4260 -1.7095 -0.8106
10324TIP3    H252464   2.470   4.011  15.534  1.8409 -0.2783 -1.5135
10325TIP3   OH252465   4.718   1.357  16.963 -0.0872  0.1448  0.0698
10325TIP3    H152466   4.766   1.434  16.993  0.0806 -0.3062  0.9814
10325TIP3    H252467   4.711   1.369  16.868  0.9987  0.6821  0.0405
10326TIP3   OH252468   0.907   4.403   5.135  0.1187  0.6481 -0.0419
10326TIP3    H152469   0.875   4.469   5.074 -1.2286  0.0520 -0.0111
10326TIP3    H252470   0.828   4.373   5.181  0.6882 -1.0860 -0.1637
10327TIP3   OH252471   1.675   2.598   5.182 -0.2292 -0.2884 -1.0517
10327TIP3    H152472   1.629   2.514   5.180 -0.8269  0.0002 -0.1651
10327TIP3    H252473   1.752   2.582   5.237  0.0987 -0.4624 -1.5566
10328TIP3   OH252474   0.488   2.272  10.805 -0.5194  0.4090  0.6251
10328TIP3    H152475   0.442   2.321  10.873 -0.1777  0.6670  0.6696
10328TIP3    H252476   0.499   2.184  10.843 -2.0073 -0.0071  0.1591
10329TIP3   OH252477   5.026   1.971   0.522 -0.1773  0.2604 -0.0369
10329TIP3    H152478   4.937   1.962   0.487 -0.4444  0.9930  0.4341
10329TIP3    H252479   5.023   2.051   0.574  1.3499  1.6588 -1.9181
10330TIP3   OH252480   1.908   3.199   4.954 -0.6054  0.2016  0.2644
10330TIP3    H152481   1.823   3.239   4.969 -1.1100 -0.8433  0.2592
10330TIP3    H252482   1.898   3.150   4.872 -0.0251 -0.0072  0.3108
10331TIP3   OH252483   1.966   0.505  10.418  0.3956 -0.3851  0.3620
10331TIP3    H152484   1.979   0.426  10.470  2.5080 -0.3691 -0.0452
10331TIP3    H252485   1.879   0.495  10.379  1.1416 -3.1577 -0.7929
10332TIP3   OH252486   6.077   1.680  13.367  0.0166 -0.0345  0.2166
10332TIP3    H152487   6.152   1.635  13.407 -0.6332  0.4975  2.1620
10332TIP3    H252488   6.115   1.754  13.321  0.6928  0.5429  1.6397
10333TIP3   OH252489   3.126   4.156   5.256  0.1643  0.3919 -0.2951
10333TIP3    H152490   3.035   4.174   5.280 -0.2827 -0.2655 -1.4213
10333TIP3    H252491   3.160   4.104   5.329 -0.2471  0.9573  0.3088
10334TIP3   OH252492   0.758   0.810  11.251 -0.4593  0.3370  0.5475
10334TIP3    H152493   0.850   0.832  11.237 -0.2485 -0.6636  0.2855
10334TIP3    H252494   0.713   0.844  11.174 -0.4005  1.2946  0.9217
10335TIP3   OH252495   2.380   3.495  15.019 -0.2183  0.1644  0.5851
10335TIP3    H152496   2.331   3.453  14.949  0.1167 -1.1058  1.0937
10335TIP3    H252497   2.362   3.442  15.097  0.6615  0.6350  1.1305
10336TIP3   OH252498   0.895   1.419   1.850  0.0360  0.7134  0.0020
10336TIP3    H152499   0.852   1.490   1.897 -1.4368  0.1948 -0.4808
10336TIP3    H252500   0.823   1.367   1.815  1.0729 -0.7197 -0.1083
10337TIP3   OH252501   2.988   0.279  12.995 -0.2135 -0.0192  0.0721
10337TIP3    H152502   3.034   0.211  13.044  2.6600  1.0089 -1.0238
10337TIP3    H252503   2.978   0.243  12.907  1.1295  0.8231 -0.4553
10338TIP3   OH252504   3.667   5.776   4.828 -0.1003 -0.0309 -0.5878
10338TIP3    H152505   3.594   5.714   4.831  1.4853 -1.9883 -0.5883
10338TIP3    H252506   3.668   5.817   4.914  1.4881 -3.3324  1.1253
10339TIP3   OH252507   3.157   2.920   1.578 -0.2788 -0.6039 -0.0309
10339TIP3    H152508   3.127   3.010   1.564 -1.5967 -1.0849 -0.4881
10339TIP3    H252509   3.090   2.866   1.535  0.9090 -1.7787 -0.4564
10340TIP3   OH252510   0.124   1.002   4.290 -0.1463  0.5884  0.3539
10340TIP3    H152511   0.211   0.964   4.279  0.0681  1.0152  0.5636
10340TIP3    H252512   0.074   0.967   4.217 -0.2246 -0.8621  1.0624
10341TIP3   OH252513   3.548   4.161   2.803  0.0531  0.1976  0.5812
10341TIP3    H152514   3.549   4.133   2.712 -0.5516  0.7217  0.4108
10341TIP3    H252515   3.519   4.083   2.852 -0.9777  0.3165  0.1807
10342TIP3   OH252516   0.705   5.561   1.708  0.0225  0.2926  0.6338
10342TIP3    H152517   0.713   5.469   1.686  0.6139  0.4655  0.1108
10342TIP3    H252518   0.627   5.591   1.660  1.9852  0.9718 -2.3804
10343TIP3   OH252519   6.399   3.359   2.995 -0.0197 -0.3772  0.3903
10343TIP3    H152520   6.413   3.375   3.089 -1.7662 -0.1896  0.6511
10343TIP3    H252521   6.310   3.323   2.990 -0.9512  1.8782 -1.3785
10344TIP3   OH252522   6.667   5.784  13.486  0.0904  0.7218 -0.6048
10344TIP3    H152523   6.717   5.844  13.541  0.5868  0.0812 -0.3447
10344TIP3    H252524   6.638   5.837  13.413  1.3573  1.0635 -0.8813
10345TIP3   OH252525   1.879   0.734  11.635 -0.7557  0.5031 -0.1593
10345TIP3    H152526   1.912   0.662  11.581  0.7663  0.2507  1.0522
10345TIP3    H252527   1.923   0.812  11.601 -0.1469  0.4127  0.4126
10346TIP3   OH252528   4.571   1.094  17.148  0.4874  0.5242  0.0209
10346TIP3    H152529   4.645   1.063  17.095  0.1971 -0.7046  0.3100
10346TIP3    H252530   4.541   1.174  17.104  0.9713  0.1474 -1.0053
10347TIP3   OH252531   2.673   1.877   2.003 -0.2191  0.7438  0.5662
10347TIP3    H152532   2.692   1.788   1.973  1.5278  1.3428 -0.2659
10347TIP3    H252533   2.730   1.889   2.079  1.3403  1.8686 -0.6998
10348TIP3   OH252534   0.602   0.847  13.630 -0.0798  0.4931  0.3601
10348TIP3    H152535   0.583   0.755  13.644 -0.1259  0.6793  1.6128
10348TIP3    H252536   0.597   0.858  13.535  0.5585 -0.9142  0.1413
10349TIP3   OH252537   0.804   6.707   2.513 -0.1749  0.3365 -0.0900
10349TIP3    H152538   0.866   6.636   2.501 -0.1367  0.3795 -0.1485
10349TIP3    H252539   0.836   6.757   2.588  0.8636  1.4142 -1.2078
10350TIP3   OH252540   3.337   3.788  16.401  0.3306 -0.2841  0.3061
10350TIP3    H152541   3.324   3.883  16.409  2.0031 -0.0821  1.0532
10350TIP3    H252542   3.277   3.750  16.465 -1.7250  0.1072 -1.2687
10351TIP3   OH252543   6.415   3.284   1.728 -0.0938 -0.0216  0.3185
10351TIP3    H152544   6.446   3.289   1.637  0.1207  1.4964  0.4550
10351TIP3    H252545   6.373   3.369   1.744 -0.9539 -0.6138  1.3568
10352TIP3   OH252546   2.463   0.958  17.099 -0.2133 -0.1071 -0.1571
10352TIP3    H152547   2.388   0.944  17.041 -0.8690  1.5525  0.2406
10352TIP3    H252548   2.446   1.042  17.141  0.8254 -0.7154  1.5812
10353TIP3   OH252549   1.759   5.400   1.364  0.1348  0.2747  0.3850
10353TIP3    H152550   1.745   5.478   1.311  0.0767 -0.9346 -1.5003
10353TIP3    H252551   1.702   5.334   1.323 -1.5065 -0.2218  3.2383
10354TIP3   OH252552   2.983   6.610   0.873  0.5148 -0.4155 -0.2420
10354TIP3    H152553   2.966   6.628   0.781 -0.4073  0.9836  0.1579
10354TIP3    H252554   3.056   6.668   0.896  0.0949 -0.0132  0.1205
10355TIP3   OH252555   5.134   0.572   0.284  0.0495  0.0880  0.3952
10355TIP3    H152556   5.070   0.599   0.349 -1.6380  1.5320 -1.7295
10355TIP3    H252557   5.171   0.491   0.319 -1.6361  0.1572  2.5399
10356TIP3   OH252558   5.046   2.195   5.177 -0.2292  0.2224  0.3438
10356TIP3    H152559   5.006   2.180   5.263 -1.5562 -1.9942 -0.5604
10356TIP3    H252560   5.020   2.283   5.153 -3.0759 -0.4401  0.6513
10357TIP3   OH252561   0.033   0.346  14.964 -0.3568  0.1554  0.7133
10357TIP3    H152562  -0.049   0.304  14.989 -0.5636  0.5580  0.7143
10357TIP3    H252563   0.024   0.437  14.995  0.8118 -0.2448  2.3378
10358TIP3   OH252564   1.772   4.690  15.685 -0.2084  0.2594 -0.2514
10358TIP3    H152565   1.724   4.756  15.635  1.0709  1.2280 -0.2254
10358TIP3    H252566   1.776   4.614  15.626 -0.0033  0.8725 -1.0415
10359TIP3   OH252567   1.095   0.947  13.994 -0.0171  0.2658 -0.7758
10359TIP3    H152568   1.027   0.999  13.951 -2.1895 -0.3298  1.6743
10359TIP3    H252569   1.094   0.978  14.085 -1.9288 -4.2434  1.0317
10360TIP3   OH252570   1.481   3.379  14.722  0.4830  0.5635 -0.5131
10360TIP3    H152571   1.532   3.300  14.700 -0.1092  0.3528 -1.1886
10360TIP3    H252572   1.528   3.450  14.679  0.1270  0.3461 -1.2810
10361TIP3   OH252573   2.448   4.599  15.294 -0.0787  0.4326  0.2078
10361TIP3    H152574   2.372   4.610  15.237 -1.2390  0.4219  1.6975
10361TIP3    H252575   2.522   4.592  15.234 -1.4902 -1.9398 -1.4194
10362TIP3   OH252576   3.365   2.145  16.203  0.6626  0.1844 -0.0020
10362TIP3    H152577   3.356   2.234  16.237 -1.2087 -0.7439  2.2003
10362TIP3    H252578   3.425   2.102  16.265  1.6955 -0.1033 -1.1497
10363TIP3   OH252579   5.803   1.024   3.814  0.2387 -0.5953  0.2529
10363TIP3    H152580   5.858   0.951   3.843 -0.8800 -1.3951  0.4393
10363TIP3    H252581   5.818   1.093   3.879  0.8310 -0.8878  0.4333
10364TIP3   OH252582   2.782   4.122  15.147 -0.1376 -0.3961 -0.3723
10364TIP3    H152583   2.804   4.191  15.210  1.0372 -0.9356 -0.1555
10364TIP3    H252584   2.787   4.165  15.061  1.1527 -0.3135 -0.2812
10365TIP3   OH252585   2.655   1.403   0.233 -0.6533  0.0683 -0.2423
10365TIP3    H152586   2.560   1.404   0.221 -0.4697 -0.2983 -1.9722
10365TIP3    H252587   2.679   1.311   0.233 -0.4620  0.0873  1.9280
10366TIP3   OH252588   4.238   3.511   2.191 -0.0483 -0.2996 -0.0776
10366TIP3    H152589   4.195   3.486   2.273 -0.1059 -0.0760 -0.0375
10366TIP3    H252590   4.184   3.583   2.157  0.7688  0.5653  0.4060
10367TIP3   OH252591   3.121   2.990  13.719 -0.3284 -0.2984 -0.0571
10367TIP3    H152592   3.177   3.068  13.725  1.3795 -1.5419  1.5184
10367TIP3    H252593   3.123   2.966  13.627 -0.9518  1.5475 -0.5850
10368TIP3   OH252594   3.774   0.138   0.102 -0.2175 -0.1837  0.3413
10368TIP3    H152595   3.741   0.223   0.132  0.4859  0.5168 -0.7924
10368TIP3    H252596   3.715   0.074   0.143 -0.0499  0.7543  2.1829
10369TIP3   OH252597   0.993   5.384   1.702 -0.6169 -0.0577  0.2756
10369TIP3    H152598   0.993   5.421   1.791 -0.7928  0.4855  0.0537
10369TIP3    H252599   1.058   5.314   1.706  1.7947  2.0072  0.0175
10370TIP3   OH252600   2.768   0.898  13.704  0.0268 -0.2758  0.9652
10370TIP3    H152601   2.673   0.886  13.703 -0.1671  0.9482  1.9933
10370TIP3    H252602   2.791   0.913  13.612 -0.8788  0.0962  0.7830
10371TIP3   OH252603   4.417   0.014  15.426 -0.1692  0.3184  0.7026
10371TIP3    H152604   4.426   0.015  15.521  1.5016 -0.1681  0.5816
10371TIP3    H252605   4.329  -0.021  15.410 -0.1345 -0.4387  2.0559
10372TIP3   OH252606   4.605   3.086  16.352  0.3715 -0.2216 -0.1637
10372TIP3    H152607   4.642   3.173  16.337  4.4363 -1.9553 -1.5882
10372TIP3    H252608   4.556   3.067  16.272  2.7525 -0.6022 -1.6447
10373TIP3   OH252609   6.002   1.690   2.091  0.1585 -0.1940  0.3384
10373TIP3    H152610   6.002   1.783   2.071  0.5837 -0.5487 -1.4377
10373TIP3    H252611   6.047   1.683   2.175 -0.4964  1.2486  0.8323
10374TIP3   OH252612   5.701   0.711   5.190 -0.4125  0.0999  0.2271
10374TIP3    H152613   5.706   0.748   5.278  0.2655 -0.1834  0.3126
10374TIP3    H252614   5.637   0.766   5.144 -0.9973  0.0656  0.9774
10375TIP3   OH252615   5.850   2.585  13.991 -0.6535  0.2837 -0.5242
10375TIP3    H152616   5.871   2.640  13.916  1.3737  1.1496  0.6000
10375TIP3    H252617   5.906   2.508  13.982 -1.6419 -0.4282 -0.7627
10376TIP3   OH252618   0.531   2.453  13.201 -0.2519 -0.0612  0.0321
10376TIP3    H152619   0.606   2.501  13.235  1.1765 -1.9900 -0.2182
10376TIP3    H252620   0.504   2.397  13.273  0.3629 -1.3925 -0.7326
10377TIP3   OH252621   6.632   2.389  13.961 -0.2301 -0.5471 -0.3292
10377TIP3    H152622   6.707   2.435  13.998 -0.0395 -0.9370 -0.2213
10377TIP3    H252623   6.580   2.457  13.918 -0.4093 -0.0842  0.5753
10378TIP3   OH252624   6.667   0.271   2.374  0.9206  0.5625  0.0200
10378TIP3    H152625   6.654   0.206   2.442  0.8938  0.7173  0.1617
10378TIP3    H252626   6.579   0.290   2.341  1.0422 -0.4439 -0.9246
10379TIP3   OH252627   3.621   2.833  14.005 -0.7309  0.3467  0.6865
10379TIP3    H152628   3.557   2.899  14.032 -0.6639  1.1367 -0.9597
10379TIP3    H252629   3.690   2.882  13.961  0.7147 -0.5697  1.8091
10380TIP3   OH252630   3.161   1.121  15.390 -0.2839 -0.2961 -0.2175
10380TIP3    H152631   3.113   1.196  15.354 -0.8458 -1.4212 -1.9416
10380TIP3    H252632   3.250   1.155  15.404 -0.9336  1.1348  0.6836
10381TIP3   OH252633   2.617   1.121   3.397 -0.6054  0.3246 -0.0733
10381TIP3    H152634   2.533   1.131   3.441 -1.9612 -2.0539 -1.8602
10381TIP3    H252635   2.603   1.049   3.335  2.7074 -0.0251 -0.5922
10382TIP3   OH252636   1.215   1.449   2.305  0.8287  1.1590 -0.0483
10382TIP3    H152637   1.256   1.366   2.330  0.3165  0.8604 -0.1834
10382TIP3    H252638   1.238   1.509   2.375 -1.6272  0.0230  1.9190
10383TIP3   OH252639   2.167   3.996   3.045  0.5575 -0.1264 -0.0329
10383TIP3    H152640   2.117   4.050   3.107  0.1880  0.2136 -0.6228
10383TIP3    H252641   2.101   3.944   3.000  0.7023  0.4800 -0.9671
10384TIP3   OH252642   0.868   3.274   5.741  0.7430  0.1144  0.1921
10384TIP3    H152643   0.956   3.307   5.756  1.1672  0.2370 -2.1641
10384TIP3    H252644   0.879   3.206   5.675 -0.8463 -0.4317  0.4451
10385TIP3   OH252645   1.366   2.130   6.091  0.3905  0.5774 -0.1428
10385TIP3    H152646   1.299   2.062   6.084 -0.7497  1.8128 -2.6196
10385TIP3    H252647   1.334   2.201   6.035  3.7580  1.2016 -1.5617
10386TIP3   OH252648   1.945   5.393  12.391 -0.2957 -0.4040  0.0278
10386TIP3    H152649   1.889   5.400  12.314  1.1049 -0.3046 -1.0217
10386TIP3    H252650   1.994   5.312  12.379  0.1544 -0.2391  0.6625
10387TIP3   OH252651   1.622   6.664   5.342 -0.2211  0.2000 -0.1073
10387TIP3    H152652   1.705   6.622   5.319 -0.5595 -0.4887 -0.0982
10387TIP3    H252653   1.643   6.718   5.418 -0.0283 -0.9640  0.7081
10388TIP3   OH252654   1.541   6.539   1.448  0.0803  0.3487 -0.7716
10388TIP3    H152655   1.474   6.585   1.397 -0.1245  1.3094  0.3245
10388TIP3    H252656   1.614   6.528   1.387  0.1422  2.1730 -1.0976
10389TIP3   OH252657   5.422   2.852  14.101  0.3106 -0.0903  0.4642
10389TIP3    H152658   5.471   2.925  14.064  0.7603  0.7469  2.5604
10389TIP3    H252659   5.480   2.777  14.094  0.4709  0.0980 -0.2791
10390TIP3   OH252660   0.940   3.935  12.627  0.4117 -0.2147 -0.0680
10390TIP3    H152661   0.965   3.970  12.542 -0.7561  1.0842  0.0770
10390TIP3    H252662   0.914   4.012  12.678 -1.7378 -1.2042  0.4636
10391TIP3   OH252663   0.063   0.507   3.469  0.2207 -0.5326 -0.3259
10391TIP3    H152664   0.022   0.573   3.525 -0.2657 -0.8896 -0.2511
10391TIP3    H252665   0.001   0.434   3.470  0.2102 -0.5466 -1.3263
10392TIP3   OH252666   0.394   2.332   2.269  0.0117  0.0620 -0.5892
10392TIP3    H152667   0.308   2.361   2.300 -1.1475 -4.4916  1.3343
10392TIP3    H252668   0.448   2.329   2.348  1.3882  0.9298 -1.4546
10393TIP3   OH252669   2.637   5.503  14.851  0.0315  0.6151  0.0366
10393TIP3    H152670   2.659   5.417  14.814 -3.5313 -1.1004  1.5148
10393TIP3    H252671   2.719   5.534  14.889  1.3688 -2.2653 -0.2417
10394TIP3   OH252672   1.658   2.111  14.632 -0.3660 -0.2858  0.5733
10394TIP3    H152673   1.618   2.136  14.716 -0.4405  0.2872  0.3670
10394TIP3    H252674   1.606   2.036  14.603 -1.2127  0.3537  0.3858
10395TIP3   OH252675   6.173   6.684  12.886  0.2867 -0.5827 -0.5203
10395TIP3    H152676   6.143   6.770  12.914 -1.8651 -0.5022 -2.7166
10395TIP3    H252677   6.199   6.695  12.794 -0.2375 -2.2696 -0.9242
10396TIP3   OH252678   4.874   1.886   5.306 -0.1516  0.2079 -0.2778
10396TIP3    H152679   4.788   1.927   5.303  0.4600  1.6390  0.3915
10396TIP3    H252680   4.901   1.879   5.215  0.9126  4.1093 -0.4542
10397TIP3   OH252681   2.787   2.137   0.752 -0.5512  0.4141 -0.1043
10397TIP3    H152682   2.745   2.201   0.694  0.4359  0.5909 -0.6615
10397TIP3    H252683   2.829   2.075   0.692 -1.7362 -0.9357  0.4353
10398TIP3   OH252684   5.626   4.166  14.289  0.1379  0.5832 -0.7751
10398TIP3    H152685   5.698   4.160  14.351  0.2708 -0.2875 -0.9980
10398TIP3    H252686   5.575   4.242  14.317 -0.2044 -0.2032  0.8131
10399TIP3   OH252687   5.977   4.227   5.891 -0.1300 -0.0755 -0.2359
10399TIP3    H152688   5.902   4.224   5.831  0.4245  1.2291 -1.0481
10399TIP3    H252689   5.959   4.159   5.955 -1.7591 -0.1376 -0.7047
10400TIP3   OH252690   3.841   5.023   4.737  0.4700 -0.4429  0.0558
10400TIP3    H152691   3.918   5.001   4.791  1.3502  2.9540  0.4220
10400TIP3    H252692   3.770   5.034   4.800  1.0534  1.6521  0.4400
10401TIP3   OH252693   3.285   6.588  14.086 -0.4465 -0.4504 -0.0043
10401TIP3    H152694   3.254   6.641  14.159 -1.4993 -0.4019 -0.4695
10401TIP3    H252695   3.318   6.651  14.022 -1.3621 -0.3703 -0.4042
10402TIP3   OH252696   5.049   0.506   3.176 -0.5626 -0.5178  0.3884
10402TIP3    H152697   4.967   0.508   3.225 -0.9440 -0.1245 -0.2609
10402TIP3    H252698   5.032   0.446   3.103 -0.3196 -0.3149  0.1629
10403TIP3   OH252699   2.073   2.954  11.051 -0.4359  0.2327  0.0888
10403TIP3    H152700   2.103   2.987  10.966 -0.4923  0.4148  0.1392
10403TIP3    H252701   2.017   3.024  11.085 -0.1142  0.3192  0.4410
10404TIP3   OH252702   1.462   3.849   5.425 -0.2272  0.0666  0.1470
10404TIP3    H152703   1.433   3.852   5.334 -1.0284 -0.4558  0.3816
10404TIP3    H252704   1.405   3.910   5.471 -1.4608 -1.4816  0.7376
10405TIP3   OH252705   4.450   0.209  11.779 -0.3408 -0.1694  0.0621
10405TIP3    H152706   4.388   0.156  11.830 -2.3811  0.9118 -1.1712
10405TIP3    H252707   4.427   0.192  11.688  0.9493  0.5749 -0.4314
10406TIP3   OH252708   5.203   1.262  14.928  0.2099  0.1954  0.3880
10406TIP3    H152709   5.248   1.193  14.977  0.2572  0.3108  0.5089
10406TIP3    H252710   5.148   1.216  14.865  0.6271  0.0577  0.1250
10407TIP3   OH252711   5.823   1.401   1.205  0.0588  0.2230  0.1218
10407TIP3    H152712   5.821   1.430   1.113 -2.6076  1.2931  0.4076
10407TIP3    H252713   5.737   1.361   1.219  0.4333  0.0209  2.1516
10408TIP3   OH252714   5.610   4.673  16.327  0.0442  0.4424  0.3093
10408TIP3    H152715   5.553   4.731  16.277  0.3357 -0.8307 -1.6039
10408TIP3    H252716   5.555   4.598  16.349  1.1189 -1.3332 -2.5294
10409TIP3   OH252717   0.269   1.159  13.539 -0.6818 -0.7574  0.5933
10409TIP3    H152718   0.193   1.137  13.592  0.1729 -0.5282  1.9942
10409TIP3    H252719   0.325   1.209  13.599 -0.3553  0.8799 -0.9946
10410TIP3   OH252720   2.739   0.252  15.682 -0.6251 -0.0094  0.0161
10410TIP3    H152721   2.656   0.212  15.657  0.4892 -2.4679 -0.0744
10410TIP3    H252722   2.718   0.306  15.758 -2.2593 -0.8908  0.2235
10411TIP3   OH252723   3.765   2.761  13.678 -0.3717  0.4952  0.1288
10411TIP3    H152724   3.840   2.733  13.626  0.7380  2.1866  0.7467
10411TIP3    H252725   3.739   2.682  13.726  1.0727 -0.1137 -0.0317
10412TIP3   OH252726   0.061   5.861   2.606  0.0889  0.2105 -0.0902
10412TIP3    H152727   0.123   5.931   2.583  0.7846 -0.8171 -1.4284
10412TIP3    H252728   0.069   5.853   2.701 -1.1034  2.9235  0.3426
10413TIP3   OH252729   3.438   4.943  12.915 -0.0794 -0.5640 -0.2076
10413TIP3    H152730   3.503   5.012  12.932  0.1019 -0.9332  0.6683
10413TIP3    H252731   3.483   4.881  12.859 -0.8138  0.8805 -2.5388
10414TIP3   OH252732   0.492   0.283  15.840 -0.3375  0.3395  0.1935
10414TIP3    H152733   0.559   0.311  15.903  0.7326  1.7081 -1.4603
10414TIP3    H252734   0.410   0.318  15.875 -0.0291 -0.1954  1.5481
10415TIP3   OH252735   3.824   6.690  13.789  0.6865 -0.8324 -0.6535
10415TIP3    H152736   3.889   6.759  13.771 -0.5384 -0.0052 -2.0766
10415TIP3    H252737   3.877   6.611  13.801  2.1435  0.2970  1.0571
10416TIP3   OH252738   0.745   3.007  15.820  1.0072 -0.5465 -0.0370
10416TIP3    H152739   0.712   3.013  15.730  1.8423 -2.6164 -0.5257
10416TIP3    H252740   0.716   2.921  15.850 -1.2756  0.9496  2.5745
10417TIP3   OH252741   1.485   5.745  16.594  0.6115  0.5984  0.2706
10417TIP3    H152742   1.481   5.736  16.499 -0.5692 -2.1470  0.4798
10417TIP3    H252743   1.394   5.731  16.623  0.9461  1.4338  1.8195
10418TIP3   OH252744   1.226   2.870  11.716 -0.0632 -1.2308  0.2514
10418TIP3    H152745   1.189   2.886  11.629 -0.5946 -0.5443  0.5982
10418TIP3    H252746   1.315   2.839  11.698  0.6716  1.0949 -0.5053
10419TIP3   OH252747   1.005   5.614  12.260  0.0557 -0.3431 -0.3831
10419TIP3    H152748   0.925   5.562  12.262 -1.2421  1.5683 -0.3487
10419TIP3    H252749   0.984   5.694  12.308  1.4348  0.9435 -1.7879
10420TIP3   OH252750   0.025   6.477  12.555 -0.3205  0.4125 -0.0305
10420TIP3    H152751  -0.013   6.490  12.468  0.9298 -1.1191 -0.8582
10420TIP3    H252752   0.081   6.400  12.545  0.7533  0.8946  1.8423
10421TIP3   OH252753   3.364   1.488   6.788  0.5006  0.0861 -0.1107
10421TIP3    H152754   3.440   1.544   6.803  0.9175 -0.6825  0.7651
10421TIP3    H252755   3.291   1.549   6.776  0.8692  0.8253  1.2160
10422TIP3   OH252756   1.122   6.566  11.786 -0.2555  0.2399 -0.4760
10422TIP3    H152757   1.122   6.540  11.694 -0.8163  0.1551 -0.4596
10422TIP3    H252758   1.133   6.484  11.834  2.8419  0.5545 -0.4925
10423TIP3   OH252759   1.276   2.955   0.465  0.4155  0.3513  0.4886
10423TIP3    H152760   1.366   2.945   0.498  1.1430  1.2610 -1.0996
10423TIP3    H252761   1.280   2.923   0.375 -1.0249 -0.1515  0.5787
10424TIP3   OH252762   5.976   0.205   3.414  0.2144  0.0210 -0.4855
10424TIP3    H152763   5.921   0.192   3.491 -0.1725 -0.0519 -0.7712
10424TIP3    H252764   6.025   0.285   3.433  0.9397 -0.5975  0.3083
10425TIP3   OH252765   5.664   2.084   5.598 -0.3306 -0.1345 -0.4583
10425TIP3    H152766   5.606   2.083   5.522  1.0965 -1.8787 -1.6036
10425TIP3    H252767   5.619   2.031   5.663 -1.6679  1.5470  0.0707
10426TIP3   OH252768   5.470   1.987   1.413  0.3486 -0.2463  0.0333
10426TIP3    H152769   5.391   1.969   1.463 -0.0496 -1.7890 -1.0677
10426TIP3    H252770   5.530   1.915   1.436  1.1003  0.4183  0.1937
10427TIP3   OH252771   5.580   1.239   2.255 -0.2296 -0.0770  0.4885
10427TIP3    H152772   5.556   1.268   2.167 -2.5010 -0.6014  0.8464
10427TIP3    H252773   5.642   1.305   2.287  1.3640 -0.3911 -1.8074
10428TIP3   OH252774   3.244   2.712   6.336 -0.5921  0.0955  0.0211
10428TIP3    H152775   3.288   2.722   6.252 -0.9421 -0.0471 -0.1773
10428TIP3    H252776   3.221   2.619   6.340 -0.8196  0.1577  0.1561
10429TIP3   OH252777   3.233   2.164   0.153  0.0885  0.5808 -0.2068
10429TIP3    H152778   3.142   2.191   0.143  0.3508  2.0666  1.0220
10429TIP3    H252779   3.251   2.173   0.247  0.3931 -3.4819  0.3023
10430TIP3   OH252780   3.440   6.065  15.052  0.3699 -0.1291 -0.2020
10430TIP3    H152781   3.440   6.041  14.959  0.8113 -1.3037  0.0857
10430TIP3    H252782   3.533   6.069  15.075  0.2869  0.8637  0.0388
10431TIP3   OH252783   6.695   6.567  14.484  0.3569  0.3111  0.5059
10431TIP3    H152784   6.614   6.545  14.439  0.9043 -1.0248  0.1220
10431TIP3    H252785   6.720   6.486  14.529  0.0974  1.4350  2.8494
10432TIP3   OH252786   2.362   4.218  11.725  0.0920  0.1454 -0.9418
10432TIP3    H152787   2.448   4.174  11.723 -0.1639 -0.4450 -0.0185
10432TIP3    H252788   2.365   4.280  11.653  1.7407  0.9547 -0.2428
10433TIP3   OH252789   6.128   1.308  15.786 -0.1740 -1.0396  0.4511
10433TIP3    H152790   6.201   1.355  15.746 -0.6708 -0.2891  0.4171
10433TIP3    H252791   6.168   1.258  15.857  0.1867  0.4480  1.3411
10434TIP3   OH252792   4.251   4.899  10.603 -0.6390  0.1602  0.2647
10434TIP3    H152793   4.184   4.935  10.662  0.7914  1.4375  1.1895
10434TIP3    H252794   4.234   4.942  10.519 -1.1673  0.2209  0.3967
10435TIP3   OH252795   5.712   0.579   6.046 -1.0916 -0.2777  0.5680
10435TIP3    H152796   5.794   0.627   6.042 -1.3312  0.0522 -1.7641
10435TIP3    H252797   5.676   0.600   6.132  0.8063  0.3179  1.2583
10436TIP3   OH252798   4.167   3.022  13.453  0.7270 -0.9064 -0.3862
10436TIP3    H152799   4.175   3.047  13.545  1.5249  0.0732 -0.7033
10436TIP3    H252800   4.136   3.101  13.409 -0.4172 -1.5928 -0.8586
10437TIP3   OH252801   5.458   1.085   1.892  0.0271 -0.1090  0.9185
10437TIP3    H152802   5.407   1.005   1.904 -1.2980  0.7219  1.1090
10437TIP3    H252803   5.407   1.136   1.829  0.6915  0.7070  1.0301
10438TIP3   OH252804   0.230   2.155  13.556  0.3450 -0.4517 -0.4443
10438TIP3    H152805   0.255   2.228  13.613 -0.6105 -0.4293 -0.0238
10438TIP3    H252806   0.299   2.090  13.567  0.1305 -0.4861  0.8224
10439TIP3   OH252807   2.593   5.837  16.539  0.3189  0.6236 -0.3616
10439TIP3    H152808   2.652   5.826  16.465  0.5260  0.3855 -0.1629
10439TIP3    H252809   2.640   5.799  16.613  1.7865  4.2098  0.7558
10440TIP3   OH252810   5.998   1.527   5.951 -0.4811 -0.1030 -0.0984
10440TIP3    H152811   6.056   1.484   6.014  0.6005 -1.2826 -1.7730
10440TIP3    H252812   5.946   1.588   6.002  1.6916  0.4130  1.6292
10441TIP3   OH252813   0.977   5.283  11.893  0.4516 -0.1957 -0.3439
10441TIP3    H152814   1.027   5.220  11.841 -0.3038 -1.1222  0.0169
10441TIP3    H252815   0.984   5.250  11.983 -0.7971 -0.3526 -0.2901
10442TIP3   OH252816   4.111   3.651  14.073 -0.3192  0.5027 -0.3078
10442TIP3    H152817   4.182   3.691  14.021 -1.4117  0.3179 -2.0346
10442TIP3    H252818   4.151   3.572  14.110  0.4995  0.6014 -0.9293
10443TIP3   OH252819   4.599   2.182  15.728 -0.1502 -0.3098  0.0219
10443TIP3    H152820   4.551   2.254  15.686 -0.8601 -1.4049 -1.1329
10443TIP3    H252821   4.681   2.177  15.680  0.6662  0.8053  1.2327
10444TIP3   OH252822   4.798   6.031   5.036  0.5612  0.3645  0.0281
10444TIP3    H152823   4.879   5.987   5.062 -0.3940 -1.4082  0.2222
10444TIP3    H252824   4.729   5.968   5.058 -0.7451  1.1437 -1.5678
10445TIP3   OH252825   0.509   5.225   4.107  0.0076  0.3729  0.4171
10445TIP3    H152826   0.481   5.317   4.104  0.4473  0.4722 -1.7180
10445TIP3    H252827   0.443   5.183   4.163 -2.0667  1.3960 -1.1029
10446TIP3   OH252828   5.050   5.002   5.093  0.2971  0.2203 -0.6446
10446TIP3    H152829   5.052   5.091   5.059 -3.4816  0.1683 -1.4078
10446TIP3    H252830   5.015   5.011   5.182  0.3477 -0.4711 -0.5453
10447TIP3   OH252831   4.593   6.812   4.646 -0.1805 -0.1524 -0.1094
10447TIP3    H152832   4.499   6.804   4.660  0.0530 -0.0764  1.6780
10447TIP3    H252833   4.603   6.810   4.550 -1.9508 -0.4718 -0.3216
10448TIP3   OH252834   6.569   1.518   4.697  0.4752  0.4321  0.1101
10448TIP3    H152835   6.661   1.537   4.711  0.8608 -1.6539  0.7089
10448TIP3    H252836   6.524   1.600   4.720  2.0263  0.9364  1.5936
10449TIP3   OH252837   4.026   2.598   5.863 -0.2477 -0.4229 -0.5987
10449TIP3    H152838   3.983   2.568   5.783 -0.3641  0.2461 -0.7913
10449TIP3    H252839   3.955   2.609   5.926 -0.4605  1.1732 -1.0658
10450TIP3   OH252840   4.639   6.414  17.199 -0.1159 -0.0329 -0.1303
10450TIP3    H152841   4.545   6.405  17.183  0.3080 -0.6894 -2.7631
10450TIP3    H252842   4.661   6.500  17.162  0.3738  0.0018  0.2296
10451TIP3   OH252843   4.448   1.886   5.721 -0.2220 -0.6964  0.1311
10451TIP3    H152844   4.455   1.970   5.676 -1.0568 -0.7377 -0.0957
10451TIP3    H252845   4.510   1.829   5.675  1.3206  0.1252  1.1183
10452TIP3   OH252846   2.856   6.736  14.548  0.5350 -0.3568 -0.1968
10452TIP3    H152847   2.811   6.663  14.590  2.9264 -1.1147  1.2777
10452TIP3    H252848   2.807   6.814  14.574 -1.8242 -1.3411 -1.4560
10453TIP3   OH252849   5.545   2.845   4.764 -0.3314 -0.2382  0.0659
10453TIP3    H152850   5.598   2.785   4.816 -1.4082 -1.0565  0.2441
10453TIP3    H252851   5.601   2.922   4.753 -0.1335  0.0611  2.6015
10454TIP3   OH252852   3.918   1.971  16.890  0.1279 -0.2984  0.1217
10454TIP3    H152853   3.978   1.910  16.848  1.1264  0.1355  0.8890
10454TIP3    H252854   3.888   1.927  16.969 -0.0961 -0.2725  0.0525
10455TIP3   OH252855   3.082   6.396  12.826  0.4806  0.1492  0.1474
10455TIP3    H152856   3.116   6.445  12.901  1.3624  2.2869 -1.5332
10455TIP3    H252857   3.029   6.459  12.778 -1.0224 -1.4875 -0.4567
10456TIP3   OH252858   4.602   1.741   3.979  0.1589  0.1762  0.3652
10456TIP3    H152859   4.644   1.656   3.992 -1.2754 -0.7042 -0.4562
10456TIP3    H252860   4.655   1.802   4.031  2.8261 -0.7098 -1.0768
10457TIP3   OH252861   1.097   3.484   4.762 -0.0174 -0.1091  0.1093
10457TIP3    H152862   1.038   3.450   4.695 -0.6376  1.5938 -0.2487
10457TIP3    H252863   1.174   3.512   4.714  0.5865 -1.1360  0.4322
10458TIP3   OH252864   1.261   6.798  11.298  0.1409  0.4055  0.5238
10458TIP3    H152865   1.221   6.871  11.251  0.3085  0.5411  0.5899
10458TIP3    H252866   1.187   6.747  11.331  0.0216  0.0347 -0.3009
10459TIP3   OH252867   3.158   1.104   5.755  0.0472 -0.3008 -0.2532
10459TIP3    H152868   3.195   1.019   5.779 -1.4433 -0.5147  1.4587
10459TIP3    H252869   3.078   1.083   5.708 -0.2788  0.1487  0.0951
10460TIP3   OH252870   4.947   3.687   3.706 -0.1575 -0.1515 -0.2898
10460TIP3    H152871   4.962   3.594   3.724  1.4009  0.3278  1.1020
10460TIP3    H252872   4.945   3.728   3.792 -3.9680  0.7692 -0.6432
10461TIP3   OH252873   3.761   4.556   3.833 -0.6847 -0.2552  0.2207
10461TIP3    H152874   3.854   4.543   3.852 -0.4221 -2.6235 -2.2011
10461TIP3    H252875   3.759   4.593   3.744 -2.0556 -1.8801 -0.4699
10462TIP3   OH252876   0.577   5.685   5.792 -0.3718 -0.3707 -0.1278
10462TIP3    H152877   0.563   5.747   5.720  1.3047  0.9954  0.6261
10462TIP3    H252878   0.598   5.603   5.749 -1.0716 -0.0190 -1.1848
10463TIP3   OH252879   3.856   0.404   5.743 -0.0569  0.2050  0.1589
10463TIP3    H152880   3.946   0.415   5.773  1.0133 -0.4577 -2.4888
10463TIP3    H252881   3.858   0.429   5.650 -2.1804 -1.6012 -0.4669
10464TIP3   OH252882   5.841   3.490   1.124  0.2413  0.6081  0.0745
10464TIP3    H152883   5.803   3.444   1.049 -0.6608  0.3506  0.6641
10464TIP3    H252884   5.771   3.549   1.152  0.5648  0.6831  0.7212
10465TIP3   OH252885   6.052   1.344   4.123 -0.2311  0.1654 -0.1220
10465TIP3    H152886   5.966   1.386   4.115 -0.5087 -0.7628 -2.9556
10465TIP3    H252887   6.108   1.410   4.164 -2.0020  1.1653  0.7965
10466TIP3   OH252888   6.632   1.002  13.353 -0.4636 -0.4236 -0.5574
10466TIP3    H152889   6.566   1.069  13.369  1.1021  1.1572 -0.4685
10466TIP3    H252890   6.650   1.008  13.259  0.7415  0.3308 -0.2916
10467TIP3   OH252891   1.751   0.755  13.600 -0.3938 -0.0224 -0.3378
10467TIP3    H152892   1.704   0.684  13.555  0.4485 -0.5540 -0.3869
10467TIP3    H252893   1.682   0.801  13.649 -1.1486 -0.1140 -1.2764
10468TIP3   OH252894   3.955   3.517   3.049  0.2352 -0.1770  0.2025
10468TIP3    H152895   4.027   3.453   3.049  1.3306  1.0234 -0.4004
10468TIP3    H252896   3.963   3.562   3.133  0.8239  0.6400 -0.2843
10469TIP3   OH252897   1.363   4.703   2.037  0.5045 -0.2028 -0.2942
10469TIP3    H152898   1.393   4.772   2.096 -1.4701 -0.0044  0.5380
10469TIP3    H252899   1.302   4.746   1.977  1.5338 -0.6567 -1.7374
10470TIP3   OH252900   0.375   4.654  15.392  0.4157  0.2142 -0.1901
10470TIP3    H152901   0.312   4.594  15.433 -1.4800  1.9691 -0.3536
10470TIP3    H252902   0.434   4.597  15.342 -1.3323 -1.5066 -0.4086
10471TIP3   OH252903   2.278   0.721  10.195  0.5789  0.4281 -0.0054
10471TIP3    H152904   2.291   0.812  10.222  1.5565 -0.0196  1.1110
10471TIP3    H252905   2.185   0.705  10.212  0.3502  1.2653 -0.3880
10472TIP3   OH252906   4.809   3.692   0.405  0.4454  0.5694 -0.1500
10472TIP3    H152907   4.760   3.632   0.349  0.4697 -3.4697  3.5635
10472TIP3    H252908   4.887   3.715   0.355 -0.2806 -1.3725 -2.3335
10473TIP3   OH252909   4.523   2.025  12.828  0.1916  0.1023 -0.1830
10473TIP3    H152910   4.572   2.101  12.862  0.1622 -0.1686  0.4841
10473TIP3    H252911   4.550   2.018  12.737  1.0575  0.2344  0.0533
10474TIP3   OH252912   5.738   2.881   5.077 -0.3496 -0.3038 -0.6479
10474TIP3    H152913   5.821   2.915   5.044 -0.3663 -0.0503 -0.4331
10474TIP3    H252914   5.685   2.960   5.093  0.6298 -0.2052  2.6652
10475TIP3   OH252915   1.849   4.378  12.929  0.0990  0.0079 -0.0961
10475TIP3    H152916   1.796   4.352  12.853 -0.6117  0.2621  0.2968
10475TIP3    H252917   1.877   4.467  12.909  2.0916 -0.8126 -1.2062
10476TIP3   OH252918   2.020   4.905  10.767  0.2020  0.1725  0.0098
10476TIP3    H152919   2.068   4.971  10.716  1.2865  0.5348  1.4216
10476TIP3    H252920   1.962   4.957  10.823 -1.4426 -0.2435 -1.2330
10477TIP3   OH252921   0.729   5.079  12.811 -0.1461 -0.2141 -0.5243
10477TIP3    H152922   0.715   5.038  12.726  0.2413 -2.6188  0.5029
10477TIP3    H252923   0.693   5.017  12.874  1.4931  0.5052  1.2080
10478TIP3   OH252924   3.340   6.532   1.893  0.0078 -0.2727 -0.6296
10478TIP3    H152925   3.348   6.581   1.811 -1.6518 -0.3217 -0.8467
10478TIP3    H252926   3.324   6.599   1.960  1.0586 -0.2592 -0.3765
10479TIP3   OH252927   5.984   3.531  10.510 -0.2066  0.0082 -0.0364
10479TIP3    H152928   5.948   3.597  10.451 -0.3338 -0.7062 -0.7861
10479TIP3    H252929   6.078   3.532  10.493 -0.1427  0.3617  0.3360
10480TIP3   OH252930   2.756   2.455  16.691  0.1894  0.3605 -0.3160
10480TIP3    H152931   2.772   2.463  16.785  0.8715  0.1185 -0.4096
10480TIP3    H252932   2.763   2.545  16.657 -0.0304  0.4432 -0.1420
10481TIP3   OH252933   0.986   3.384   3.332 -0.1198  1.0299 -0.0296
10481TIP3    H152934   1.072   3.398   3.369  0.0880  1.1023 -0.5281
10481TIP3    H252935   0.955   3.302   3.372 -0.1093  1.3570  0.6602
10482TIP3   OH252936   0.173   2.435   2.411 -0.2477  0.3786 -0.4665
10482TIP3    H152937   0.207   2.438   2.501  0.4513  0.4102 -0.7241
10482TIP3    H252938   0.099   2.374   2.416 -0.2931  0.4708  0.1519
10483TIP3   OH252939   1.636   2.285   6.560 -0.2412 -0.6564 -0.2050
10483TIP3    H152940   1.624   2.233   6.480 -0.2258  0.3775 -0.9002
10483TIP3    H252941   1.551   2.328   6.574  0.3077  0.6315 -0.7426
10484TIP3   OH252942   2.723   3.041  16.012 -0.0773 -0.5346  0.1786
10484TIP3    H152943   2.783   2.989  15.958 -1.7022 -2.6121  0.2057
10484TIP3    H252944   2.651   3.063  15.952  0.3942  1.4150  0.2867
10485TIP3   OH252945   3.315   6.392   3.302  0.4018 -0.3295 -0.3922
10485TIP3    H152946   3.328   6.466   3.242 -0.3616 -0.6198 -0.9324
10485TIP3    H252947   3.324   6.314   3.246 -3.2032 -0.5931 -0.8288
10486TIP3   OH252948   5.734   5.187   6.242  0.2597  0.1188  0.0471
10486TIP3    H152949   5.694   5.169   6.326 -2.0011  0.2656 -0.9386
10486TIP3    H252950   5.775   5.273   6.251 -2.1886  1.3180  0.2807
10487TIP3   OH252951   2.771   3.005   0.726  0.2146 -0.4373 -0.5741
10487TIP3    H152952   2.769   2.971   0.815 -0.6137  0.6616 -0.1542
10487TIP3    H252953   2.722   2.941   0.674 -3.4737  1.1489  0.6218
10488TIP3   OH252954   1.405   3.795  13.719 -0.3880 -0.5459  0.3264
10488TIP3    H152955   1.469   3.828  13.782 -0.0700  2.6489 -1.4329
10488TIP3    H252956   1.326   3.780  13.770  0.2463  0.6214  1.7201
10489TIP3   OH252957   0.316   3.259   2.344  0.3406  0.1641  0.0868
10489TIP3    H152958   0.383   3.245   2.277  0.0092 -2.1353  0.1525
10489TIP3    H252959   0.234   3.238   2.301 -0.0023 -0.1384  0.8700
10490TIP3   OH252960   0.321   1.283  16.913 -0.1713  0.0106  0.1090
10490TIP3    H152961   0.281   1.220  16.974 -1.7983  0.5655 -0.3198
10490TIP3    H252962   0.320   1.366  16.961  0.9682 -0.0584  0.2740
10491TIP3   OH252963   2.646   2.920   2.906  0.5934  0.6257 -0.6272
10491TIP3    H152964   2.736   2.917   2.939  0.9168  1.2729 -1.4245
10491TIP3    H252965   2.654   2.942   2.814 -0.2900 -1.4505 -1.2603
10492TIP3   OH252966   4.502   2.131  14.258 -0.3599  0.7133  0.0236
10492TIP3    H152967   4.480   2.214  14.299 -1.1374  1.5372 -1.9593
10492TIP3    H252968   4.429   2.114  14.198 -0.4935 -1.6898  0.7609
10493TIP3   OH252969   3.729   5.423  12.185  0.3753  1.2236  0.2680
10493TIP3    H152970   3.662   5.358  12.161  1.8690 -0.6148  0.7840
10493TIP3    H252971   3.741   5.410  12.279  1.9415  0.9826  0.0544
10494TIP3   OH252972   6.500   4.516  13.590  0.8061 -0.5531  0.2672
10494TIP3    H152973   6.450   4.597  13.578  0.0346 -1.1166 -0.4337
10494TIP3    H252974   6.546   4.529  13.672 -1.9557 -0.7309  1.9827
10495TIP3   OH252975   2.538   5.587   5.516  0.9272  0.2030 -0.6351
10495TIP3    H152976   2.633   5.585   5.526  0.9712  0.2506 -1.0388
10495TIP3    H252977   2.524   5.588   5.421  0.6140  3.0180 -0.6546
10496TIP3   OH252978   3.890   6.770  11.396 -0.7123  0.0642 -0.1017
10496TIP3    H152979   3.821   6.832  11.376 -0.3608  0.4821 -0.0292
10496TIP3    H252980   3.920   6.794  11.483 -0.1200  0.2233 -0.3437
10497TIP3   OH252981   2.138   0.063  14.818 -0.0380 -0.2590 -1.0960
10497TIP3    H152982   2.152   0.033  14.907 -0.2151 -0.7025 -1.2135
10497TIP3    H252983   2.113   0.155  14.826  0.4157 -0.1701 -0.7218
10498TIP3   OH252984   2.611   1.386  13.923  0.7264  0.2870  0.2451
10498TIP3    H152985   2.698   1.381  13.962 -0.4336 -1.9088  2.9309
10498TIP3    H252986   2.568   1.459  13.968  0.8774  0.7832 -0.4082
10499TIP3   OH252987   3.128   1.111   0.677  0.0303  0.1903  0.4317
10499TIP3    H152988   3.177   1.041   0.719 -2.0377 -2.5929 -1.4216
10499TIP3    H252989   3.176   1.127   0.595  1.1942  1.9355  1.4025
10500TIP3   OH252990   2.152   5.281  13.860  0.4886  0.6470  0.0672
10500TIP3    H152991   2.231   5.326  13.891  0.7034 -0.2196  0.8096
10500TIP3    H252992   2.085   5.350  13.858  0.1481  0.6089  3.5885
10501TIP3   OH252993   3.138   6.298   0.487 -0.4422 -0.5134  0.1086
10501TIP3    H152994   3.105   6.283   0.398 -0.4014 -0.1826  0.0357
10501TIP3    H252995   3.095   6.232   0.540 -0.3016 -0.8542 -0.1977
10502TIP3   OH252996   2.142   1.928  11.578  0.4830  0.0209 -0.8410
10502TIP3    H152997   2.209   1.887  11.632 -1.3374 -0.6283  1.0397
10502TIP3    H252998   2.170   2.019  11.571  1.2432 -0.0893  0.4367
10503TIP3   OH252999   2.615   4.002  17.157 -0.0606  0.0261 -0.0792
10503TIP3    H153000   2.610   4.041  17.070  0.6051 -1.3438 -0.7643
10503TIP3    H253001   2.703   3.963  17.160 -0.6810 -1.3792  0.5637
10504TIP3   OH253002   5.308   5.646   0.587 -0.6577 -0.6679  0.3062
10504TIP3    H153003   5.234   5.707   0.587 -2.2475 -2.4895 -1.5398
10504TIP3    H253004   5.316   5.618   0.496  1.9312 -1.0271  0.5745
10505TIP3   OH253005   5.258   0.793  14.788  0.3794  0.3109  0.4949
10505TIP3    H153006   5.337   0.780  14.842  0.3979 -0.1362  0.3646
10505TIP3    H253007   5.196   0.728  14.822  0.6350 -0.4680 -0.4861
10506TIP3   OH253008   0.501   3.655  13.423 -0.2553  0.1249 -0.0411
10506TIP3    H153009   0.503   3.599  13.501 -0.0930  0.6033  0.3024
10506TIP3    H253010   0.481   3.595  13.351 -0.4745 -0.3132  0.3785
10507TIP3   OH253011   4.750   0.858   4.462 -0.0265 -0.6003 -0.6135
10507TIP3    H153012   4.723   0.787   4.403 -0.8198 -0.8227 -0.0057
10507TIP3    H253013   4.809   0.911   4.410 -1.6321 -0.1171 -2.0263
10508TIP3   OH253014   3.625   4.867   4.642  0.2596 -0.0413  0.1211
10508TIP3    H153015   3.705   4.916   4.660  0.3441 -0.1960  0.1705
10508TIP3    H253016   3.554   4.927   4.667  0.3537  0.2188 -0.2447
10509TIP3   OH253017   0.756   5.566  15.700  0.1758 -0.1252  0.4814
10509TIP3    H153018   0.668   5.594  15.727  0.6937  1.0687  1.0085
10509TIP3    H253019   0.769   5.607  15.615 -0.0682 -0.9460  0.0398
10510TIP3   OH253020   3.238   5.878   3.728  0.6672  0.2526 -0.6378
10510TIP3    H153021   3.329   5.851   3.737  1.0728  1.0182 -2.0513
10510TIP3    H253022   3.223   5.881   3.633  0.2485  3.5013 -0.5832
10511TIP3   OH253023   3.160   1.076   2.749 -0.4652  0.4998 -0.3702
10511TIP3    H153024   3.136   1.086   2.656 -0.0296 -0.2718 -0.5727
10511TIP3    H253025   3.234   1.016   2.748  1.4302  2.6555  0.2365
10512TIP3   OH253026   2.159   3.245  14.671 -0.2734  0.2916 -0.0584
10512TIP3    H153027   2.236   3.285  14.631  0.6609 -0.1783  1.2076
10512TIP3    H253028   2.171   3.151  14.657 -2.0621  0.2846 -2.3155
10513TIP3   OH253029   6.660   1.034  15.808 -0.1722 -0.4449  0.0164
10513TIP3    H153030   6.673   1.129  15.798  0.4127 -0.4480  0.6950
10513TIP3    H253031   6.736   1.004  15.857 -0.6991 -1.1547  0.4272
10514TIP3   OH253032   0.344   0.942  12.741 -0.1198 -0.5497 -0.0693
10514TIP3    H153033   0.296   0.881  12.686  1.3129 -1.3641 -0.4864
10514TIP3    H253034   0.286   0.958  12.815 -0.7405 -2.0618 -0.1787
10515TIP3   OH253035   2.188   0.147   0.511 -0.2947 -0.1790 -0.2580
10515TIP3    H153036   2.207   0.120   0.601 -0.4084 -1.7022 -0.6657
10515TIP3    H253037   2.164   0.239   0.518 -0.9594 -0.4502  1.3562
10516TIP3   OH253038   0.318   3.903   1.642  0.4514 -1.0455 -0.4775
10516TIP3    H153039   0.367   3.936   1.717  1.2579 -0.6462 -1.1683
10516TIP3    H253040   0.366   3.825   1.614 -0.2075 -1.5638 -0.2035
10517TIP3   OH253041   0.084   0.692  11.754  0.0164  0.0802  0.2953
10517TIP3    H153042   0.078   0.599  11.732 -0.8490  0.1133  0.3284
10517TIP3    H253043   0.134   0.731  11.682 -1.7313 -0.0088 -1.0388
10518TIP3   OH253044   2.914   5.809   1.948  0.1282 -0.1909  0.7482
10518TIP3    H153045   2.831   5.762   1.951  0.8812 -1.5516  0.7837
10518TIP3    H253046   2.892   5.894   1.911 -1.0044 -1.1337 -0.8596
10519TIP3   OH253047   4.315   2.596   5.406 -0.2145 -0.3484 -0.2050
10519TIP3    H153048   4.243   2.574   5.347 -0.2766 -0.6075 -0.0380
10519TIP3    H253049   4.365   2.663   5.360 -1.3729  0.8845  0.2734
10520TIP3   OH253050   2.992   1.657   3.458 -0.2049  0.7645 -0.2859
10520TIP3    H153051   2.977   1.744   3.420  0.5654 -0.3883 -3.5584
10520TIP3    H253052   3.086   1.643   3.450 -0.3630 -0.4905 -0.1115
10521TIP3   OH253053   1.177   5.541   4.679 -0.1241 -0.1836  0.0032
10521TIP3    H153054   1.163   5.530   4.585  1.0190 -0.0732 -0.1899
10521TIP3    H253055   1.203   5.454   4.710  1.5653  0.2161 -0.1828
10522TIP3   OH253056   5.084   6.360  17.062 -1.0458 -0.2946  0.8122
10522TIP3    H153057   5.081   6.405  16.977 -0.6184 -2.4041 -0.3890
10522TIP3    H253058   5.002   6.311  17.066 -1.8537  1.0755  2.4453
10523TIP3   OH253059   2.388   3.078  15.054 -0.2216 -0.4647  0.5455
10523TIP3    H153060   2.476   3.046  15.035 -0.7717 -1.3319 -0.6871
10523TIP3    H253061   2.331   3.026  14.998 -1.4662  0.5507  0.8221
10524TIP3   OH253062   2.720   6.045  10.707  0.1959 -0.1823 -0.0778
10524TIP3    H153063   2.736   5.956  10.738 -0.4606  0.0977  1.1366
10524TIP3    H253064   2.723   6.099  10.786 -0.1242  0.7751 -0.6998
10525TIP3   OH253065   3.279   2.489  14.595  0.2735  0.5434  0.6122
10525TIP3    H153066   3.332   2.486  14.515  0.0932 -0.6274  0.5286
10525TIP3    H253067   3.193   2.457  14.567  0.4167 -0.6041  1.4275
10526TIP3   OH253068   6.329   0.462   4.068 -0.2126 -0.0135 -0.4952
10526TIP3    H153069   6.332   0.369   4.043 -0.5417 -0.1314 -0.1019
10526TIP3    H253070   6.250   0.470   4.122  1.3412 -0.1347  1.9608
10527TIP3   OH253071   1.977   2.116  11.204 -0.3844  0.1335  0.6724
10527TIP3    H153072   2.049   2.180  11.207  0.3165 -0.5638 -0.4168
10527TIP3    H253073   1.970   2.093  11.112 -0.8018 -1.1736  1.0154
10528TIP3   OH253074   0.918   0.700  11.904  0.3780  0.1845  0.8087
10528TIP3    H153075   0.823   0.689  11.895  0.5353 -0.1024 -0.7562
10528TIP3    H253076   0.937   0.666  11.992 -0.9905  0.4692  1.2450
10529TIP3   OH253077   1.412   0.724  16.484  0.0827 -0.2047 -0.1276
10529TIP3    H153078   1.384   0.762  16.401 -0.0927 -0.1734 -0.0558
10529TIP3    H253079   1.362   0.771  16.550  1.7742  1.2836  0.1747
10530TIP3   OH253080   2.089   2.026  16.889 -0.1778 -0.0056  0.0928
10530TIP3    H153081   2.006   1.984  16.864  0.7220 -0.5343 -2.3444
10530TIP3    H253082   2.066   2.084  16.961 -2.8685  0.5266 -1.0556
10531TIP3   OH253083   5.795   5.014  16.284 -0.3811  0.2476  0.1896
10531TIP3    H153084   5.844   4.932  16.293 -0.7517  0.0117  0.0592
10531TIP3    H253085   5.819   5.046  16.197  0.4808  0.7503  0.6006
10532TIP3   OH253086   5.058   1.247   0.571  0.2481  0.5717  0.4954
10532TIP3    H153087   4.999   1.178   0.599  0.4637  0.3564  0.4184
10532TIP3    H253088   5.028   1.325   0.618  0.2742  0.3344  0.9072
10533TIP3   OH253089   4.226   0.804   3.729  0.1842  0.1215 -0.1125
10533TIP3    H153090   4.209   0.849   3.646 -0.0089  1.4523  0.6263
10533TIP3    H253091   4.259   0.872   3.787 -0.4400 -0.6195  1.1548
10534TIP3   OH253092   2.443   6.142  11.380 -0.2940 -0.4166  0.0205
10534TIP3    H153093   2.371   6.113  11.325 -0.9064 -1.5781  1.3672
10534TIP3    H253094   2.445   6.079  11.452  0.9794  0.5853  0.9114
10535TIP3   OH253095   5.961   0.998  11.330  0.0134  0.4876  0.5125
10535TIP3    H153096   5.908   0.921  11.348 -0.9295  1.0358  0.1756
10535TIP3    H253097   6.052   0.967  11.332 -0.2653 -0.3237  1.8579
10536TIP3   OH253098   3.026   0.933   0.232  0.4443  0.3841 -0.0394
10536TIP3    H153099   2.994   0.969   0.315 -1.6984  0.3622 -0.7955
10536TIP3    H253100   3.023   1.007   0.172 -1.9741 -0.4734 -1.0792
10537TIP3   OH253101   4.173   6.301   5.377  0.6507  0.1879 -0.1755
10537TIP3    H153102   4.110   6.351   5.427  2.0622  0.6899  1.1955
10537TIP3    H253103   4.245   6.362   5.360  1.7039 -0.9007  0.1644
10538TIP3   OH253104   3.530   6.379   2.030 -0.3437 -0.0399 -0.0109
10538TIP3    H153105   3.477   6.436   1.974  0.2179 -0.0869 -0.6052
10538TIP3    H253106   3.467   6.320   2.071 -1.0206  1.4880  1.2098
10539TIP3   OH253107   2.348   3.846   5.322 -0.8937  0.4580 -0.4916
10539TIP3    H153108   2.333   3.941   5.325 -0.0171  0.5983 -0.2804
10539TIP3    H253109   2.301   3.817   5.244  0.2995  1.3565 -1.5895
10540TIP3   OH253110   1.506   3.802  16.700 -0.3620 -0.0256  0.2508
10540TIP3    H153111   1.577   3.857  16.733  0.4360 -0.3051 -0.9135
10540TIP3    H253112   1.502   3.822  16.606 -0.1879 -1.7397 -0.1658
10541TIP3   OH253113   1.453   5.518   1.143  0.1723  0.0296 -0.2718
10541TIP3    H153114   1.382   5.583   1.141 -0.6806 -0.8769 -0.7197
10541TIP3    H253115   1.531   5.567   1.168 -0.4956  1.1766 -0.3886
10542TIP3   OH253116   4.160   4.188   5.037  0.5404  0.2782  0.8268
10542TIP3    H153117   4.210   4.245   4.978  0.7723  0.0483  0.7975
10542TIP3    H253118   4.072   4.186   5.000  0.5941  0.4221  0.6898
10543TIP3   OH253119   3.804   1.764  16.015  0.4171 -0.5245 -0.2721
10543TIP3    H153120   3.874   1.807  16.064  0.3060 -1.8034  1.0871
10543TIP3    H253121   3.845   1.685  15.979 -0.1903 -1.0835  0.2141
10544TIP3   OH253122   5.623   4.713   4.876 -0.0632  0.3288  0.5585
10544TIP3    H153123   5.704   4.669   4.854 -1.7116 -2.3761 -0.6012
10544TIP3    H253124   5.585   4.661   4.947 -1.3299  0.8143  0.2766
10545TIP3   OH253125   6.796   0.521   3.191  0.9670 -0.1171  0.1089
10545TIP3    H153126   6.763   0.511   3.280 -0.3341 -3.0082 -0.5801
10545TIP3    H253127   6.763   0.606   3.161  2.5791  1.5689  2.7523
10546TIP3   OH253128   2.959   1.624  11.737 -0.1145  0.2209 -0.2453
10546TIP3    H153129   2.955   1.641  11.643 -1.1935  1.5118  0.0095
10546TIP3    H253130   2.956   1.710  11.778  1.5934 -0.2292  0.9860
10547TIP3   OH253131   3.148   1.503  11.281  0.6954  0.0178 -0.3552
10547TIP3    H153132   3.195   1.520  11.200  0.5608  2.3850  0.0044
10547TIP3    H253133   3.130   1.589  11.317  1.8831 -0.9697  2.8872
10548TIP3   OH253134   4.748   1.379  11.343  0.0469  0.8446  0.5156
10548TIP3    H153135   4.823   1.355  11.288 -2.8167  0.8693 -3.8628
10548TIP3    H253136   4.752   1.475  11.348  1.1952  0.7576  1.8661
10549TIP3   OH253137   3.085   5.735  14.778  0.1187 -0.2240 -0.0835
10549TIP3    H153138   3.036   5.720  14.697  0.5224 -1.6297 -0.0971
10549TIP3    H253139   3.175   5.713  14.755  0.2886 -0.3252  0.6722
10550TIP3   OH253140   6.502   5.567  12.735  0.2597 -0.1072  0.0340
10550TIP3    H153141   6.529   5.476  12.749 -0.1589 -0.3008 -0.3875
10550TIP3    H253142   6.460   5.567  12.649 -1.2807  0.1275  0.7549
10551TIP3   OH253143   6.200   4.403  13.708 -0.1391  0.4592 -0.4357
10551TIP3    H153144   6.193   4.309  13.721  0.2879  0.3614 -0.8655
10551TIP3    H253145   6.148   4.442  13.779 -1.3571 -0.1157 -0.9806
10552TIP3   OH253146   2.405   6.191   4.721 -0.5018 -0.3942  0.8536
10552TIP3    H153147   2.464   6.254   4.764  0.1028 -1.3875  1.5083
10552TIP3    H253148   2.338   6.173   4.786 -0.8773 -0.1727  0.5341
10553TIP3   OH253149   0.521   4.625  15.744  0.3065  0.1554 -0.4264
10553TIP3    H153150   0.484   4.647  15.829  3.4429  1.7353  0.6792
10553TIP3    H253151   0.542   4.532  15.750 -2.0194 -0.4537 -0.6111
10554TIP3   OH253152   0.905   6.671  11.960 -0.2765  0.2240 -0.2818
10554TIP3    H153153   0.985   6.706  12.000  0.1295 -0.4629 -0.4818
10554TIP3    H253154   0.912   6.695  11.868  0.6840 -1.5377 -0.7128
10555TIP3   OH253155   6.568   4.081   0.907 -0.7152  0.2772 -0.3354
10555TIP3    H153156   6.629   4.142   0.950  0.7603 -0.0227 -1.8938
10555TIP3    H253157   6.613   3.996   0.911 -1.6815 -0.2408 -0.2814
10556TIP3   OH253158   4.662   1.602   5.307  0.2764  0.3777 -0.5746
10556TIP3    H153159   4.691   1.511   5.314  1.7110  0.9413  2.9300
10556TIP3    H253160   4.742   1.653   5.320 -0.6912  2.1671 -1.2953
10557TIP3   OH253161   0.690   5.115   3.737  0.1996  0.4269 -0.5266
10557TIP3    H153162   0.733   5.143   3.818  1.0832  0.6693 -1.0568
10557TIP3    H253163   0.733   5.032   3.714 -1.6158 -0.8581  0.4293
10558TIP3   OH253164   3.064   5.211   1.206  0.4591  0.0969  0.1270
10558TIP3    H153165   3.059   5.120   1.179  3.6718 -0.4066  0.8312
10558TIP3    H253166   3.043   5.261   1.127  0.3190 -1.2512 -0.7136
10559TIP3   OH253167   3.661   4.541  15.105  0.2105 -0.7765 -0.1073
10559TIP3    H153168   3.606   4.615  15.131 -0.3377 -1.6100  1.1957
10559TIP3    H253169   3.643   4.530  15.012  0.7294  1.0655 -0.4645
10560TIP3   OH253170   2.879   2.223  12.923 -0.5454 -0.0836  0.2778
10560TIP3    H153171   2.834   2.231  13.007  0.6585 -0.4509  0.9832
10560TIP3    H253172   2.967   2.255  12.940  0.2650 -1.8623 -0.3611
10561TIP3   OH253173   0.437   5.059  17.148  0.3172  0.1448 -0.1125
10561TIP3    H153174   0.417   4.966  17.146  1.5679 -0.1697  1.1603
10561TIP3    H253175   0.488   5.074  17.068  1.3061 -0.5675  0.3654
10562TIP3   OH253176   0.716   1.751  16.749  0.9820 -0.3625 -0.2494
10562TIP3    H153177   0.730   1.718  16.660  0.3234  1.4072 -1.0562
10562TIP3    H253178   0.680   1.839  16.737  0.6412 -0.1691  1.7772
10563TIP3   OH253179   1.997   3.747   1.248 -0.5061  0.1020 -0.1768
10563TIP3    H153180   2.044   3.702   1.178 -0.8831  1.2334 -1.1897
10563TIP3    H253181   1.923   3.689   1.267  0.3362 -0.8614  0.2465
10564TIP3   OH253182   0.049   5.594  13.985  0.1607 -0.3580  0.0700
10564TIP3    H153183   0.097   5.516  13.959 -0.5423 -1.5265  2.0395
10564TIP3    H253184  -0.040   5.563  14.004 -0.1660  0.9183  0.7837
10565TIP3   OH253185   3.972   6.608   0.485 -0.2619  0.0333  0.4046
10565TIP3    H153186   4.063   6.605   0.516 -0.3896 -1.2512  0.7335
10565TIP3    H253187   3.948   6.516   0.474 -0.8861  0.4032 -1.6373
10566TIP3   OH253188   3.872   4.888  16.862 -0.0431 -0.5093 -0.0428
10566TIP3    H153189   3.780   4.870  16.844 -0.5787  0.3306  1.5680
10566TIP3    H253190   3.899   4.949  16.793 -1.1640  0.4368  0.3079
10567TIP3   OH253191   2.742   3.577   4.736  0.4210  0.3672 -0.4671
10567TIP3    H153192   2.837   3.591   4.746  0.9279 -1.2955 -2.3842
10567TIP3    H253193   2.725   3.497   4.785  0.2645 -0.0415 -1.1847
10568TIP3   OH253194   4.230   1.840   1.851  0.3577  0.3867  0.3795
10568TIP3    H153195   4.172   1.765   1.840  0.8448 -0.3607  2.4405
10568TIP3    H253196   4.314   1.803   1.876  1.4215  1.5197 -1.3036
10569TIP3   OH253197   4.949   5.410  14.649 -0.6290 -0.3225 -0.0425
10569TIP3    H153198   5.023   5.413  14.711 -1.0526  1.8098  0.4502
10569TIP3    H253199   4.922   5.501  14.641 -1.7359 -0.7800 -2.0419
10570TIP3   OH253200   4.303   6.246  11.769  0.3017  0.2085 -0.0803
10570TIP3    H153201   4.302   6.162  11.723 -1.5580 -0.4540  1.0544
10570TIP3    H253202   4.331   6.225  11.858  0.8984  0.9924 -0.0681
10571TIP3   OH253203   3.276   2.034   5.635 -0.2820  0.4959  0.1151
10571TIP3    H153204   3.207   2.054   5.571  0.3130 -0.4090 -0.8360
10571TIP3    H253205   3.304   1.946   5.613 -0.5087 -0.1209  2.0699
10572TIP3   OH253206   1.785   5.501  11.860  0.4465  0.2381  0.2701
10572TIP3    H153207   1.817   5.544  11.939  0.4071 -2.7088  2.0115
10572TIP3    H253208   1.690   5.495  11.873  0.2727  0.7804 -0.6132
10573TIP3   OH253209   6.371   1.289  16.589 -0.3448  0.6849  0.1483
10573TIP3    H153210   6.390   1.197  16.605  0.3327  0.8845  0.5273
10573TIP3    H253211   6.437   1.317  16.526 -0.8730  0.7820 -0.3662
10574TIP3   OH253212   4.444   6.562   4.805  0.4105 -0.9734 -0.5685
10574TIP3    H153213   4.449   6.486   4.863  0.3772 -0.2418  0.4130
10574TIP3    H253214   4.488   6.632   4.854 -1.3392  0.1763 -0.5672
10575TIP3   OH253215   2.301   2.250  12.809  0.1795  0.5070  0.1813
10575TIP3    H153216   2.388   2.235  12.771  0.0979 -1.3468  0.6467
10575TIP3    H253217   2.305   2.340  12.843  1.6934  0.6748 -0.3615
10576TIP3   OH253218   2.384   0.185   0.074  0.1379 -0.3420  0.3217
10576TIP3    H153219   2.343   0.271   0.087 -0.0044 -0.3965  0.2253
10576TIP3    H253220   2.396   0.178  -0.020  2.2867  0.5741  0.4726
10577TIP3   OH253221   4.067   2.756   3.164  0.3663 -0.1126 -0.6323
10577TIP3    H153222   4.055   2.662   3.180  0.5438 -0.2763 -1.4394
10577TIP3    H253223   4.143   2.762   3.106  0.9090  0.5928  0.1263
10578TIP3   OH253224   5.263   2.191  11.931  0.3177 -0.4434  0.3396
10578TIP3    H153225   5.352   2.224  11.946  0.7377 -0.8276 -1.1349
10578TIP3    H253226   5.232   2.240  11.855 -1.4253  0.9360  1.8817
10579TIP3   OH253227   1.450   4.450   0.954 -0.1564 -0.0338 -0.0142
10579TIP3    H153228   1.436   4.514   0.885 -2.1371  0.8766  1.1606
10579TIP3    H253229   1.534   4.409   0.932  0.1494  1.4890 -1.9229
10580TIP3   OH253230   0.512   1.382   0.016  0.0298 -0.2898 -0.0722
10580TIP3    H153231   0.578   1.366  -0.052  0.2695 -1.1711  0.3603
10580TIP3    H253232   0.556   1.362   0.098 -0.3792  0.3878  0.3195
10581TIP3   OH253233   0.039   6.786   1.374  0.0788 -0.0777  0.6716
10581TIP3    H153234   0.089   6.739   1.308  0.1070 -0.5047  0.9912
10581TIP3    H253235   0.060   6.878   1.359  0.4989 -0.2106  0.4262
10582TIP3   OH253236   2.147   5.601   2.621 -0.3120 -0.5135  0.3214
10582TIP3    H153237   2.159   5.612   2.716 -0.7393 -2.4619  0.6437
10582TIP3    H253238   2.215   5.539   2.596 -0.1596  0.0426 -0.6941
10583TIP3   OH253239   6.159   5.505  14.999  0.2264 -0.2144 -0.0510
10583TIP3    H153240   6.078   5.456  14.986  1.5786 -2.4736 -0.4271
10583TIP3    H253241   6.216   5.445  15.047  2.4643  0.4013 -1.7585
10584TIP3   OH253242   4.623   4.800   1.318 -0.3582 -0.5767  0.0913
10584TIP3    H153243   4.642   4.791   1.225  2.5162  0.1634  0.5343
10584TIP3    H253244   4.611   4.894   1.331 -0.9199 -0.6932  0.4579
10585TIP3   OH253245   2.661   5.020  13.869 -0.0204 -0.2176  0.1068
10585TIP3    H153246   2.708   5.032  13.952  0.4692 -1.0117 -0.0421
10585TIP3    H253247   2.729   4.998  13.806 -0.1854  1.8309 -0.8757
10586TIP3   OH253248   0.850   6.058  17.205 -0.2529  0.0591 -0.4080
10586TIP3    H153249   0.892   6.083  17.123 -0.8785 -2.5439 -1.6254
10586TIP3    H253250   0.908   5.993  17.243 -0.4294  0.5739  0.7907
10587TIP3   OH253251   5.158   2.800  16.201  0.3025 -0.1076  0.5388
10587TIP3    H153252   5.084   2.742  16.219  0.4690 -0.1364  1.1913
10587TIP3    H253253   5.207   2.757  16.131 -0.3187 -0.0652  0.0747
10588TIP3   OH253254   1.655   0.137  12.478 -0.3304 -0.1274  0.5580
10588TIP3    H153255   1.621   0.226  12.488 -0.3622 -0.2739  1.9343
10588TIP3    H253256   1.582   0.087  12.440 -0.5773  0.2605  0.5214
10589TIP3   OH253257   5.936   1.822   3.381  0.7078 -0.2404  0.0719
10589TIP3    H153258   5.849   1.795   3.410  0.4837  1.5357  1.1877
10589TIP3    H253259   5.985   1.740   3.372 -0.7383 -1.1845  0.5502
10590TIP3   OH253260   4.371   3.908  14.370 -0.1456  0.0565 -0.2879
10590TIP3    H153261   4.363   3.915  14.465  1.0229  2.6187 -0.3027
10590TIP3    H253262   4.455   3.865  14.356  0.5848  1.3901 -0.1256
10591TIP3   OH253263   1.615   2.412   2.401 -0.4198 -0.0255 -0.0019
10591TIP3    H153264   1.531   2.454   2.385 -0.4318 -0.1773 -0.3484
10591TIP3    H253265   1.678   2.484   2.399 -0.0463 -0.2536 -3.4793
10592TIP3   OH253266   0.522   6.663  13.749  0.3172  0.0562 -0.1375
10592TIP3    H153267   0.521   6.695  13.659 -1.2855  1.7287  0.4281
10592TIP3    H253268   0.603   6.699  13.786 -0.5381  1.9964 -0.0512
10593TIP3   OH253269   2.008   4.953   3.319 -0.4858  0.5362 -0.2092
10593TIP3    H153270   2.007   5.042   3.283  1.7783  1.0401  0.8493
10593TIP3    H253271   2.086   4.950   3.373 -0.6559 -2.0491 -0.0144
10594TIP3   OH253272   3.142   6.277  12.260  0.1386 -0.0188  0.3899
10594TIP3    H153273   3.082   6.301  12.331 -0.2930  1.3725 -0.4047
10594TIP3    H253274   3.229   6.283  12.300 -0.0956  0.7313  0.8291
10595TIP3   OH253275   4.800   3.440   1.401 -0.4623 -0.3253 -0.0575
10595TIP3    H153276   4.843   3.519   1.369  0.7925 -0.9766 -0.0421
10595TIP3    H253277   4.868   3.373   1.398 -1.4777 -1.3896  0.0101
10596TIP3   OH253278   4.638   1.973   6.002  0.3280 -0.1831 -0.9017
10596TIP3    H153279   4.724   1.932   5.991  0.5780  0.2454 -0.5294
10596TIP3    H253280   4.597   1.925   6.074  0.0052 -0.7857 -1.4656
10597TIP3   OH253281   1.027   0.416   2.031  0.0431  0.1466  0.0560
10597TIP3    H153282   1.043   0.469   2.109 -2.0217 -2.2223  2.2539
10597TIP3    H253283   0.945   0.450   1.996 -0.2049 -0.2394  0.2583
10598TIP3   OH253284   5.313   0.793  16.208  0.9126 -0.2624  0.3596
10598TIP3    H153285   5.356   0.793  16.122 -0.0025  0.0801 -0.1014
10598TIP3    H253286   5.337   0.877  16.248 -0.6843  0.6955 -0.6023
10599TIP3   OH253287   2.643   3.163   3.325  0.1551 -0.4135 -0.0038
10599TIP3    H153288   2.675   3.093   3.268  0.1537  0.3687 -0.9959
10599TIP3    H253289   2.701   3.161   3.401 -0.3937 -2.0497  0.4041
10600TIP3   OH253290   6.608   1.162  14.174 -1.0220  0.5397  0.8316
10600TIP3    H153291   6.536   1.107  14.144 -0.1593  0.7087 -1.8819
10600TIP3    H253292   6.681   1.102  14.190 -0.1140  0.7181 -2.0240
10601TIP3   OH253293   1.933   6.331   5.037 -0.5238  0.2772  0.3452
10601TIP3    H153294   1.860   6.286   4.995  0.3666 -1.4876  0.5841
10601TIP3    H253295   1.915   6.424   5.023 -2.3704 -0.1274 -0.3131
10602TIP3   OH253296   3.749   3.295  16.300  0.8844  0.1866  0.2652
10602TIP3    H153297   3.714   3.207  16.290  1.6173 -0.1400  0.4707
10602TIP3    H253298   3.835   3.291  16.257 -0.0493  1.4475 -1.8426
10603TIP3   OH253299   0.160   6.285   4.209 -0.1728 -0.2196 -0.8346
10603TIP3    H153300   0.073   6.251   4.230 -0.5102  0.7041 -0.6849
10603TIP3    H253301   0.206   6.211   4.170 -1.6058 -0.2910 -2.5497
10604TIP3   OH253302   3.842   5.856  11.448 -0.5011 -0.0688 -0.1249
10604TIP3    H153303   3.807   5.904  11.373 -1.9402  1.3149  1.3509
10604TIP3    H253304   3.917   5.907  11.477 -1.5896  0.9738  0.9923
10605TIP3   OH253305   4.860   4.809  11.699 -0.0108  0.3658 -0.2187
10605TIP3    H153306   4.873   4.778  11.788  0.0455  1.6730  0.2460
10605TIP3    H253307   4.806   4.887  11.708  2.6058  2.4079 -0.9980
10606TIP3   OH253308   1.966   2.530   6.313  0.4924 -0.2404  0.0771
10606TIP3    H153309   1.994   2.447   6.276  0.5376  0.2563 -1.0397
10606TIP3    H253310   2.034   2.592   6.287 -0.0547  0.3436  0.0207
10607TIP3   OH253311   2.292   4.972   4.350  0.0585  0.3301 -0.0337
10607TIP3    H153312   2.373   4.921   4.346  0.7830  1.3946  0.4260
10607TIP3    H253313   2.236   4.925   4.410  0.1817 -0.6234 -0.6447
10608TIP3   OH253314   2.578   3.061   2.370  0.4162 -0.3912  0.1303
10608TIP3    H153315   2.628   2.984   2.344 -0.1725 -0.5080 -0.7138
10608TIP3    H253316   2.617   3.133   2.320  1.1291 -0.0887  1.1100
10609TIP3   OH253317   2.276   0.043  16.559  0.5559  0.1247 -0.0700
10609TIP3    H153318   2.287   0.121  16.613 -0.5676  0.2036  0.0498
10609TIP3    H253319   2.211  -0.010  16.604  2.6888 -1.8759  0.9258
10610TIP3   OH253320   1.163   0.011   1.478 -0.0403 -0.1383 -0.7692
10610TIP3    H153321   1.083   0.040   1.434 -0.3547  2.0536  1.0946
10610TIP3    H253322   1.219   0.088   1.480  0.8263 -0.7562  0.7085
10611TIP3   OH253323   4.905   0.469   5.890  0.3175 -0.2966 -0.1573
10611TIP3    H153324   4.878   0.385   5.852  0.1956  0.2038 -1.2003
10611TIP3    H253325   4.834   0.529   5.868 -0.7017 -0.3754  2.5014
10612TIP3   OH253326   5.026   2.260  11.410  0.4586  0.1415 -0.0077
10612TIP3    H153327   4.986   2.250  11.496  2.6898  0.4799  1.1490
10612TIP3    H253328   5.045   2.171  11.381  1.0732  0.0758  0.5701
10613TIP3   OH253329   2.850   6.605   4.481  0.1101 -0.1045 -0.2019
10613TIP3    H153330   2.787   6.560   4.425 -1.5121  1.0291  0.6325
10613TIP3    H253331   2.796   6.649   4.547  1.9599 -1.8833  2.6708
10614TIP3   OH253332   1.068   1.388   1.643  0.8661 -0.0812  0.0131
10614TIP3    H153333   1.004   1.410   1.711 -1.3523 -1.6687 -1.4358
10614TIP3    H253334   1.060   1.459   1.579  0.1604 -0.5316 -0.4073
10615TIP3   OH253335   0.462   5.453  17.113 -0.6417 -0.3317  0.0938
10615TIP3    H153336   0.545   5.498  17.122 -0.1998 -1.1121  0.0124
10615TIP3    H253337   0.476   5.391  17.041 -1.8008  0.6693 -1.0525
10616TIP3   OH253338   4.436   3.962  14.871 -0.4805  0.2775  0.3634
10616TIP3    H153339   4.484   4.040  14.901 -0.8613  0.4618  0.4944
10616TIP3    H253340   4.497   3.919  14.810  0.6666 -0.5904  2.0543
10617TIP3   OH253341   0.225   6.046  16.091 -0.1990 -0.1571  0.0167
10617TIP3    H153342   0.197   5.956  16.080 -1.1771 -0.0170  1.1522
10617TIP3    H253343   0.153   6.088  16.138 -0.6912  1.7488 -2.2543
10618TIP3   OH253344   1.797   6.283   0.574  0.5069  0.4476  0.0697
10618TIP3    H153345   1.836   6.370   0.565  0.1103  0.7996  1.4539
10618TIP3    H253346   1.862   6.223   0.536  2.3153  1.0349  2.0600
10619TIP3   OH253347   5.977   4.000  17.016  0.4320  0.3360  0.4720
10619TIP3    H153348   6.018   4.030  16.935  1.4442 -2.7933 -0.3443
10619TIP3    H253349   5.883   4.005  17.000  0.6118  0.5728 -0.5674
10620TIP3   OH253350   1.906   1.232   1.297  0.7353 -0.1365 -0.0735
10620TIP3    H153351   1.933   1.270   1.213  0.1801 -1.5505 -0.9238
10620TIP3    H253352   1.903   1.138   1.281 -0.4425 -0.3517  1.2240
10621TIP3   OH253353   0.835   3.659   0.516 -0.3967  0.1827  0.3966
10621TIP3    H153354   0.875   3.589   0.464 -0.0821  1.0952 -0.6226
10621TIP3    H253355   0.833   3.624   0.605 -0.5358 -1.2394 -0.1339
10622TIP3   OH253356   0.164   4.074  14.026 -0.0906  0.4021  0.6824
10622TIP3    H153357   0.184   4.151  14.079  1.5238  0.9061 -0.5887
10622TIP3    H253358   0.206   4.001  14.071  1.8321  0.9288 -0.1748
10623TIP3   OH253359   2.158   2.840   2.792  0.4937 -0.2140  0.3592
10623TIP3    H153360   2.186   2.759   2.834 -0.0208 -1.7801 -2.1375
10623TIP3    H253361   2.063   2.831   2.786  0.5178  0.1837 -0.6910
10624TIP3   OH253362   3.310   2.902   2.369  0.4568 -0.2676 -0.7412
10624TIP3    H153363   3.218   2.897   2.345  0.5552 -1.0213 -0.9877
10624TIP3    H253364   3.312   2.892   2.464  0.3739 -1.5646 -0.8649
10625TIP3   OH253365   4.148   5.029  14.515  0.1456  0.4958 -0.3188
10625TIP3    H153366   4.211   4.961  14.536 -0.3624 -0.2985 -1.2766
10625TIP3    H253367   4.195   5.111  14.531  0.6603 -0.0552  1.1437
10626TIP3   OH253368   4.074   4.365  12.625  0.1355  0.6081 -0.3402
10626TIP3    H153369   4.167   4.355  12.647 -0.0405 -0.6305 -0.0787
10626TIP3    H253370   4.075   4.401  12.536  0.8851 -0.1502 -0.6598
10627TIP3   OH253371   4.715   1.105   2.842 -0.4314  0.1182  0.2239
10627TIP3    H153372   4.650   1.038   2.820 -0.7727  0.3985  0.3567
10627TIP3    H253373   4.698   1.176   2.780 -0.2296  0.1754  0.2349
10628TIP3   OH253374   3.231   6.712   5.597  0.2487  0.5023 -0.5017
10628TIP3    H153375   3.143   6.750   5.602  0.6163  1.5249 -1.4243
10628TIP3    H253376   3.259   6.706   5.688 -0.9544 -0.3177 -0.1523
10629TIP3   OH253377   2.743   3.666  12.525 -0.1079 -0.7747  0.3131
10629TIP3    H153378   2.768   3.577  12.500 -0.2507 -0.9187  0.6891
10629TIP3    H253379   2.688   3.655  12.602  0.5901 -0.3134  0.8915
10630TIP3   OH253380   1.550   1.288  15.045  0.3265 -0.8685  0.0544
10630TIP3    H153381   1.579   1.219  15.105  2.5248  0.4431  0.5959
10630TIP3    H253382   1.520   1.359  15.103 -0.4605 -0.7499 -0.4777
10631TIP3   OH253383   5.878   0.984  16.089  0.0469 -0.3376 -0.5193
10631TIP3    H153384   5.859   0.891  16.103 -1.7864  0.2569  1.6857
10631TIP3    H253385   5.850   1.026  16.171 -1.1091  2.4058 -2.1823
10632TIP3   OH253386   0.851   1.506   2.767 -0.6179 -0.5861  0.2833
10632TIP3    H153387   0.852   1.434   2.704  1.4883 -2.3604  2.1873
10632TIP3    H253388   0.861   1.463   2.852 -0.3649  1.9185  1.6006
10633TIP3   OH253389   0.723   3.830  10.852 -0.3084  0.2433 -0.1374
10633TIP3    H153390   0.807   3.859  10.819 -0.9255 -0.0705 -2.1379
10633TIP3    H253391   0.701   3.892  10.922  0.7674  1.3882 -0.7801
10634TIP3   OH253392   1.359   4.342  15.196  0.0063 -0.2940  0.5993
10634TIP3    H153393   1.311   4.292  15.261 -0.9272  1.2462  1.1724
10634TIP3    H253394   1.318   4.319  15.113 -1.8720  1.0558  1.0906
10635TIP3   OH253395   6.331   2.394  17.050 -0.0347  0.2931 -0.3389
10635TIP3    H153396   6.357   2.385  16.958  3.3670  0.7103  0.4369
10635TIP3    H253397   6.297   2.308  17.074  0.8662 -0.4146 -1.4988
10636TIP3   OH253398   3.609   3.672   2.792 -0.1153  0.2290  0.2460
10636TIP3    H153399   3.573   3.625   2.717  1.1154 -2.0813  0.9802
10636TIP3    H253400   3.703   3.656   2.787  0.0507  0.4829  1.9421
10637TIP3   OH253401   5.300   3.729  11.421 -0.3355  0.3226 -0.2333
10637TIP3    H153402   5.260   3.737  11.508 -0.5016  0.1558 -0.2922
10637TIP3    H253403   5.253   3.656  11.380  0.2609 -0.1040 -0.1772
10638TIP3   OH253404   5.479   1.842   0.643 -1.0275 -0.4048  0.5323
10638TIP3    H153405   5.407   1.816   0.587 -1.7279 -1.3690  1.8325
10638TIP3    H253406   5.539   1.767   0.642  1.1792  1.1641 -2.2803
10639TIP3   OH253407   2.370   3.222   0.035 -0.1754  0.2399  0.3860
10639TIP3    H153408   2.406   3.303  -0.001  0.7894  0.0283  0.8371
10639TIP3    H253409   2.410   3.214   0.121 -2.0582  0.4841  1.3457
10640TIP3   OH253410   0.625   4.046  11.016  0.1711  0.2631 -0.5743
10640TIP3    H153411   0.559   3.997  11.066  0.3691  0.5638 -0.0052
10640TIP3    H253412   0.640   4.125  11.068  0.1303  0.7582 -1.2909
10641TIP3   OH253413   4.680   5.731  15.374 -0.6567  0.0828  0.0400
10641TIP3    H153414   4.683   5.814  15.327 -2.9302  0.2924  0.1603
10641TIP3    H253415   4.587   5.708  15.377 -0.1496 -2.1489  0.5857
10642TIP3   OH253416   3.720   5.430   6.499  0.5388  0.2207  0.2777
10642TIP3    H153417   3.633   5.392   6.497  0.6201  0.0216  0.4979
10642TIP3    H253418   3.712   5.509   6.553  0.4298  0.3688  0.0458
10643TIP3   OH253419   2.280   4.762   3.266 -0.2801 -0.7084 -0.3667
10643TIP3    H153420   2.237   4.696   3.320  0.0445  1.1616  2.3838
10643TIP3    H253421   2.328   4.817   3.329  0.5651  1.3361 -2.6397
10644TIP3   OH253422   6.464   2.082   5.488 -0.5828  0.5339  0.0574
10644TIP3    H153423   6.540   2.066   5.431 -1.0299 -0.0533 -0.3838
10644TIP3    H253424   6.473   2.174   5.514  1.6358 -0.1147  2.0203
10645TIP3   OH253425   0.278   4.272  14.219  0.2136  0.0101 -0.0631
10645TIP3    H153426   0.250   4.356  14.182 -1.3375 -0.9589 -1.2567
10645TIP3    H253427   0.346   4.295  14.282 -1.7942  2.3899  1.4227
10646TIP3   OH253428   5.069   5.745   0.287 -0.3421 -0.7130  0.6463
10646TIP3    H153429   5.036   5.656   0.274 -1.7218 -0.4082  1.7515
10646TIP3    H253430   5.122   5.762   0.209 -1.0777 -2.0503 -0.2002
10647TIP3   OH253431   0.801   0.259  10.653  0.2705  0.5051 -0.2949
10647TIP3    H153432   0.869   0.323  10.632  0.7767  0.3299  0.7643
10647TIP3    H253433   0.747   0.255  10.574  1.7908  0.2553 -1.3731
10648TIP3   OH253434   2.178   2.245   4.404  0.1089 -0.2233  0.5768
10648TIP3    H153435   2.221   2.331   4.405  0.1920 -0.2224 -0.8430
10648TIP3    H253436   2.221   2.196   4.473  1.5842  0.1775  0.0019
10649TIP3   OH253437   3.068   1.510  16.733 -0.1519  0.2997 -0.0440
10649TIP3    H153438   3.072   1.420  16.699 -0.9402  1.0156 -2.1753
10649TIP3    H253439   3.006   1.555  16.676 -0.5280  1.9729  1.5913
10650TIP3   OH253440   5.002   3.930  14.874  0.6816 -0.3490  0.5088
10650TIP3    H153441   5.023   3.913  14.966  0.9257  0.0450  0.5258
10650TIP3    H253442   5.067   3.880  14.825 -0.1026 -1.4312  0.5319
10651TIP3   OH253443   3.760   4.220  17.066  0.5773 -0.0056 -0.2377
10651TIP3    H153444   3.732   4.131  17.043  0.2367  0.3097 -1.0727
10651TIP3    H253445   3.789   4.213  17.157  0.6554 -0.9967 -0.3256
10652TIP3   OH253446   1.622   0.345   2.511  0.8969  0.0754 -0.0821
10652TIP3    H153447   1.574   0.268   2.482  1.4025 -0.1400 -0.3587
10652TIP3    H253448   1.579   0.371   2.592 -0.2026  0.3698 -0.7347
10653TIP3   OH253449   4.057   3.613  11.913 -0.3529 -0.4671 -0.2853
10653TIP3    H153450   4.006   3.680  11.869 -1.3489 -2.1678 -1.8356
10653TIP3    H253451   4.138   3.657  11.938  0.3993  0.6069 -4.0690
10654TIP3   OH253452   4.026   2.479  11.525 -0.1297 -0.3422 -0.4804
10654TIP3    H153453   4.048   2.488  11.618  0.4756  0.5411 -0.7009
10654TIP3    H253454   4.051   2.563  11.486 -1.7710 -0.1310 -1.1697
10655TIP3   OH253455   3.332   1.874  14.070 -0.2382  0.3296  0.2774
10655TIP3    H153456   3.345   1.780  14.058  0.6688  0.6718 -1.8381
10655TIP3    H253457   3.337   1.887  14.165  0.8144 -1.5739  0.5301
10656TIP3   OH253458   2.602   5.691  15.244 -0.0721 -0.4527 -1.0580
10656TIP3    H153459   2.626   5.784  15.245  0.7384 -0.6478 -1.6378
10656TIP3    H253460   2.525   5.687  15.187 -0.5362 -0.0406 -0.4652
10657TIP3   OH253461   6.224   0.453  17.110  0.1181 -0.2983  0.3287
10657TIP3    H153462   6.301   0.487  17.156  0.8098 -0.4214 -0.7062
10657TIP3    H253463   6.175   0.532  17.085  0.0941 -0.2052  0.6563
10658TIP3   OH253464   4.795   6.431   4.522 -0.1508 -0.0750 -0.2118
10658TIP3    H153465   4.764   6.500   4.463 -0.1593  0.7938  0.7790
10658TIP3    H253466   4.730   6.428   4.592  0.6138 -0.0733  0.5146
10659TIP3   OH253467   1.295   3.869  14.889 -0.6179  0.3068 -0.6249
10659TIP3    H153468   1.293   3.900  14.798 -1.7133  0.2620 -0.6365
10659TIP3    H253469   1.387   3.848  14.905 -0.4214  0.1772 -1.7770
10660TIP3   OH253470   1.489   6.517   0.994 -0.4022  0.1469 -0.3439
10660TIP3    H153471   1.554   6.559   0.938 -1.7096  0.6671 -1.5393
10660TIP3    H253472   1.509   6.424   0.990  1.6253  0.4481  1.1459
10661TIP3   OH253473   4.684   4.475   6.071  0.2583 -0.3033 -0.6606
10661TIP3    H153474   4.634   4.394   6.058 -0.8073  0.0114  1.0995
10661TIP3    H253475   4.716   4.468   6.161  0.0887  1.2714 -0.4629
10662TIP3   OH253476   2.766   0.498  12.947 -0.5517 -0.0382 -0.3111
10662TIP3    H153477   2.811   0.442  13.012 -2.3888 -0.6845  0.4630
10662TIP3    H253478   2.715   0.437  12.895 -1.5687  0.7898 -0.3064
10663TIP3   OH253479   6.566   1.228  16.108 -0.1786  0.2115 -0.3344
10663TIP3    H153480   6.634   1.281  16.067 -0.4412  0.4961 -0.4107
10663TIP3    H253481   6.561   1.262  16.198  0.4686 -0.4809 -0.0300
10664TIP3   OH253482   1.898   4.976  16.190  0.4695  1.1310 -0.6329
10664TIP3    H153483   1.941   5.061  16.178  0.7070  1.4016  1.5949
10664TIP3    H253484   1.963   4.923  16.237  0.1365 -0.1269 -1.5552
10665TIP3   OH253485   5.965   1.045  14.708 -0.7213  0.2157  0.1262
10665TIP3    H153486   5.985   0.968  14.654 -1.8576  1.9064 -2.9646
10665TIP3    H253487   6.047   1.093  14.712 -0.1975 -0.7275  1.4429
10666TIP3   OH253488   0.884   4.522  12.382  0.3686 -0.7599  0.0267
10666TIP3    H153489   0.819   4.456  12.358  0.0167 -0.5139  0.3018
10666TIP3    H253490   0.839   4.606  12.370  0.2990 -0.6133  1.1973
10667TIP3   OH253491   6.139   3.098   0.860  0.8178 -0.9824  0.0161
10667TIP3    H153492   6.170   3.075   0.947  0.8669 -3.0831 -0.4812
10667TIP3    H253493   6.139   3.014   0.812 -1.1707 -0.2645 -1.3733
10668TIP3   OH253494   3.484   5.427   4.095 -0.5935 -0.0550  0.3758
10668TIP3    H153495   3.485   5.332   4.084  1.7400 -0.0255 -0.3864
10668TIP3    H253496   3.441   5.460   4.016  1.5760 -0.4371 -1.0655
10669TIP3   OH253497   6.577   0.273   4.482 -0.5794 -0.1836  0.6390
10669TIP3    H153498   6.622   0.311   4.557  0.6276  0.7673 -0.5267
10669TIP3    H253499   6.484   0.287   4.500 -0.2258  2.9379  0.5388
10670TIP3   OH253500   4.578   5.317   0.326  0.0538 -0.0065 -0.0850
10670TIP3    H153501   4.487   5.339   0.343 -0.0272 -0.9296  0.7201
10670TIP3    H253502   4.623   5.335   0.408  0.8990  1.8793 -0.9035
10671TIP3   OH253503   1.038   4.265  13.177  0.3137  0.1898  0.3080
10671TIP3    H153504   0.990   4.270  13.094  0.5381  0.9110  0.2155
10671TIP3    H253505   0.982   4.310  13.240  1.3135  2.0242 -0.0292
10672TIP3   OH253506   3.275   4.712  12.385  0.5219 -0.1263 -0.5690
10672TIP3    H153507   3.192   4.701  12.340 -0.0044  2.8035 -0.5207
10672TIP3    H253508   3.338   4.730  12.315  0.2210  1.7851 -0.4153
10673TIP3   OH253509   4.135   2.782  12.945 -0.3325  0.0604  0.1205
10673TIP3    H153510   4.127   2.729  12.866  1.6164  0.6820 -0.5537
10673TIP3    H253511   4.223   2.819  12.940 -0.9699  1.8905  1.4865
10674TIP3   OH253512   4.018   2.673  14.740 -0.2089  0.5505  0.4964
10674TIP3    H153513   4.032   2.579  14.746  2.2657  0.8973  1.4796
10674TIP3    H253514   4.016   2.702  14.832 -1.9562  1.3586  0.2352
10675TIP3   OH253515   5.141   1.036  15.589  0.4020 -1.0384  0.1231
10675TIP3    H153516   5.054   1.077  15.586  0.6456 -0.5946 -1.8633
10675TIP3    H253517   5.135   0.963  15.528  1.2715 -1.3292  0.3749
10676TIP3   OH253518   1.964   3.505  17.185  0.5218  0.2246 -0.0310
10676TIP3    H153519   2.046   3.466  17.155 -0.4910 -2.0649 -0.0280
10676TIP3    H253520   1.924   3.437  17.240 -1.2729  1.3693  0.1570
10677TIP3   OH253521   4.959   4.265  15.617  0.5794  0.6173  0.1810
10677TIP3    H153522   4.879   4.216  15.595  0.0437  0.7029  1.7861
10677TIP3    H253523   4.957   4.341  15.559  0.8155 -0.6250 -1.5260
10678TIP3   OH253524   0.600   4.760  12.174  0.9331 -0.1320 -0.0536
10678TIP3    H153525   0.600   4.766  12.079  0.8931  0.6404 -0.0135
10678TIP3    H253526   0.692   4.756  12.199  1.1521  2.8224  0.0145
10679TIP3   OH253527   1.955   1.339  15.004 -0.3771  0.5379  0.2722
10679TIP3    H153528   1.885   1.401  15.025 -2.3883 -1.8111  1.0364
10679TIP3    H253529   1.995   1.318  15.088 -0.6253 -0.1957  0.2106
10680TIP3   OH253530   6.359   0.502   4.756  0.2048 -0.4482 -0.1298
10680TIP3    H153531   6.308   0.458   4.687  1.8801 -2.0345 -0.4518
10680TIP3    H253532   6.391   0.430   4.811 -0.3818  0.7330  1.8405
10681TIP3   OH253533   4.890   5.012  13.684 -0.1008  0.4760  0.0346
10681TIP3    H153534   4.815   5.067  13.659 -0.0966 -0.2256 -1.6301
10681TIP3    H253535   4.879   4.932  13.634  1.7001  0.3068 -0.1597
10682TIP3   OH253536   1.425   5.587   4.875 -0.2159  0.4228 -0.5120
10682TIP3    H153537   1.485   5.548   4.938 -1.8438 -0.1498  0.7444
10682TIP3    H253538   1.383   5.512   4.832 -0.8882  0.8051 -0.5290
10683TIP3   OH253539   0.184   1.748   0.506  0.0406  0.1141  0.0437
10683TIP3    H153540   0.184   1.661   0.466  2.6035 -1.6157  3.3506
10683TIP3    H253541   0.105   1.750   0.560  0.3641 -0.4839  0.5455
10684TIP3   OH253542   4.235   1.568  17.186 -0.2891  0.9399 -1.0776
10684TIP3    H153543   4.260   1.602  17.101 -0.1463  0.8946 -1.0538
10684TIP3    H253544   4.275   1.628  17.249  0.8175  0.1738 -1.0119
10685TIP3   OH253545   3.727   5.675   5.740 -0.3964  0.1309 -0.6311
10685TIP3    H153546   3.774   5.592   5.739 -1.5380 -0.5445 -0.6538
10685TIP3    H253547   3.711   5.693   5.832  0.1626  0.5207 -0.6054
10686TIP3   OH253548   4.689   4.389   5.455 -0.6191  0.2067 -0.1512
10686TIP3    H153549   4.649   4.303   5.470 -1.0499  0.4458  0.0884
10686TIP3    H253550   4.769   4.370   5.407  0.2613 -0.5045  1.5235
10687TIP3   OH253551   1.827   5.232   0.980 -0.7626  1.0086  0.1792
10687TIP3    H153552   1.889   5.281   1.034 -1.0689  1.4584  0.1244
10687TIP3    H253553   1.819   5.283   0.900 -0.6968  0.6056 -0.0877
10688TIP3   OH253554   4.891   3.235  15.562 -0.0286 -0.0565 -0.3435
10688TIP3    H153555   4.885   3.218  15.468  1.7008  0.6847 -0.6265
10688TIP3    H253556   4.982   3.262  15.576 -0.7635  1.9103  1.2003
10689TIP3   OH253557   6.252   6.146  11.720 -0.4285  0.3065  0.8297
10689TIP3    H153558   6.186   6.094  11.765  0.4288 -1.9163 -0.2946
10689TIP3    H253559   6.320   6.083  11.696 -0.2126  1.5210 -2.3498
10690TIP3   OH253560   4.974   1.487   3.412 -0.3177  0.3106  0.3853
10690TIP3    H153561   4.914   1.412   3.404 -0.3221  0.4606 -1.5320
10690TIP3    H253562   5.057   1.449   3.441 -0.3247 -0.4621 -0.5499
10691TIP3   OH253563   4.295   0.989  11.649  0.1878 -0.2830 -0.1159
10691TIP3    H153564   4.333   1.026  11.570  0.8696 -2.3396 -0.8353
10691TIP3    H253565   4.365   0.933  11.685 -0.7379 -0.8371  0.8983
10692TIP3   OH253566   3.135   2.781  12.846  0.3051 -0.0876  0.6451
10692TIP3    H153567   3.103   2.845  12.782 -0.0188 -0.1115  0.7829
10692TIP3    H253568   3.230   2.793  12.846  0.7550 -2.3951 -2.4004
10693TIP3   OH253569   3.773   1.787  10.654  0.6322  0.5700 -0.2084
10693TIP3    H153570   3.778   1.879  10.680  1.5824 -0.4030  3.8243
10693TIP3    H253571   3.690   1.757  10.691  1.8437 -0.8656  1.4861
10694TIP3   OH253572   3.210   6.342   2.552 -0.5808  0.5675 -0.3800
10694TIP3    H153573   3.121   6.365   2.524 -0.5518 -0.8040 -1.7247
10694TIP3    H253574   3.252   6.309   2.473  0.2752 -1.3036  0.7812
10695TIP3   OH253575   3.864   6.182   6.260  0.6963  0.0660 -0.0523
10695TIP3    H153576   3.925   6.227   6.319  1.1024  1.0405 -1.1541
10695TIP3    H253577   3.891   6.211   6.173 -0.9038 -0.0437 -0.6157
10696TIP3   OH253578   2.288   1.463   5.422 -0.1136  0.4245  0.0711
10696TIP3    H153579   2.317   1.452   5.513 -0.4659  0.2667  0.1679
10696TIP3    H253580   2.214   1.523   5.428 -0.6855 -0.2535 -0.0068
10697TIP3   OH253581   0.010   2.969   4.143  0.6793  0.1471 -0.2651
10697TIP3    H153582  -0.071   2.922   4.122 -1.0030  1.5818  2.3707
10697TIP3    H253583   0.062   2.906   4.192 -0.1378  0.0379  0.4938
10698TIP3   OH253584   4.549   6.501   1.876 -0.3899  0.0275 -0.2364
10698TIP3    H153585   4.602   6.528   1.952 -0.4928  1.1114 -0.5236
10698TIP3    H253586   4.531   6.583   1.830 -1.4065 -0.4662 -0.7418
10699TIP3   OH253587   3.843   2.437  13.505  1.0886 -0.0900 -0.1884
10699TIP3    H153588   3.786   2.510  13.480  1.9147  0.3331 -0.8843
10699TIP3    H253589   3.891   2.469  13.581  1.7190  0.2439 -0.7167
10700TIP3   OH253590   5.506   2.113  16.661  0.3501  0.0338 -0.5200
10700TIP3    H153591   5.542   2.095  16.574  0.4166  0.7918 -0.6537
10700TIP3    H253592   5.574   2.165  16.704  0.0738  0.1517 -0.2233
10701TIP3   OH253593   0.466   0.506  13.355  0.2298  0.1894  0.0185
10701TIP3    H153594   0.552   0.470  13.337  0.6633  1.2114 -0.0003
10701TIP3    H253595   0.454   0.496  13.449  1.8445  3.0830  0.6574
10702TIP3   OH253596   1.676   0.970   4.990 -0.5672 -0.2612  0.2095
10702TIP3    H153597   1.622   0.988   4.913 -1.8278  0.0804  1.1409
10702TIP3    H253598   1.693   0.876   4.986 -0.2869 -0.1854 -0.6793
10703TIP3   OH253599   0.050   0.671  17.091  0.2354  0.0534  0.1545
10703TIP3    H153600   0.055   0.575  17.084 -1.4425 -0.2699  2.4137
10703TIP3    H253601   0.022   0.687  17.181  0.3694  2.6987 -0.2052
10704TIP3   OH253602   1.537   2.081  14.883 -0.4593  0.4873  0.2440
10704TIP3    H153603   1.552   2.058  14.975  0.1331  0.6876  0.1966
10704TIP3    H253604   1.449   2.119  14.883 -1.6072 -2.0091  0.2751
10705TIP3   OH253605   3.177   0.894  11.247 -0.1080  0.1131  0.3153
10705TIP3    H153606   3.242   0.856  11.189  0.6377  0.5042  0.8870
10705TIP3    H253607   3.226   0.924  11.324 -1.0370 -0.2137  1.0720
10706TIP3   OH253608   1.020   1.807  13.161  0.0038  0.0015 -0.4476
10706TIP3    H153609   1.001   1.808  13.068  0.3151  0.1471 -0.5112
10706TIP3    H253610   1.113   1.830  13.167  0.3388 -1.3727 -0.1906
10707TIP3   OH253611   1.165   5.094   6.016 -0.0319  0.7083  0.3971
10707TIP3    H153612   1.201   5.017   6.060 -0.5844  0.1889 -0.0420
10707TIP3    H253613   1.239   5.154   6.006  1.2726 -1.1599 -2.3465
10708TIP3   OH253614   5.515   5.989   3.048  0.0729 -0.4919  0.1582
10708TIP3    H153615   5.559   5.948   3.122 -0.5362 -2.9538 -0.7564
10708TIP3    H253616   5.428   5.949   3.048 -0.6255  0.9630 -0.7286
10709TIP3   OH253617   2.415   5.841  15.679  0.3350 -0.3746  0.1290
10709TIP3    H153618   2.481   5.794  15.627  1.2143  1.5494 -0.5920
10709TIP3    H253619   2.440   5.824  15.769  1.8534  0.2960 -0.1316
10710TIP3   OH253620   2.816   6.425   0.450 -0.0653  0.7635 -0.3733
10710TIP3    H153621   2.810   6.382   0.364  0.8601  2.9314 -1.5969
10710TIP3    H253622   2.736   6.476   0.457 -0.4362  0.1028  0.3745
10711TIP3   OH253623   5.478   3.163  11.125 -0.4170 -0.1566  0.2564
10711TIP3    H153624   5.453   3.230  11.189 -1.5255 -0.2041 -0.1114
10711TIP3    H253625   5.395   3.123  11.098  0.2038 -1.5114  0.2800
10712TIP3   OH253626   3.915   4.193   0.649 -0.0406 -0.2412  0.0876
10712TIP3    H153627   3.905   4.106   0.689 -1.4263  0.3177  1.0346
10712TIP3    H253628   3.950   4.175   0.562  1.4191 -1.6142  0.8988
10713TIP3   OH253629   5.003   1.738   1.703  1.0017 -0.0283  0.0150
10713TIP3    H153630   5.072   1.680   1.734 -0.7904 -2.1191  0.3548
10713TIP3    H253631   5.009   1.735   1.608  1.3648 -0.1963  0.0415
10714TIP3   OH253632   6.004   6.469  15.505  0.0704 -0.0657 -0.4725
10714TIP3    H153633   5.987   6.558  15.534 -2.2543  0.3225 -2.6905
10714TIP3    H253634   6.043   6.478  15.418  0.4480 -1.2147 -0.4465
10715TIP3   OH253635   0.799   3.827  11.486 -0.5704 -0.1128 -0.5179
10715TIP3    H153636   0.763   3.783  11.409 -0.2680 -1.5995  0.1454
10715TIP3    H253637   0.750   3.790  11.559 -1.3312  1.7918 -0.0111
10716TIP3   OH253638   0.144   1.522  12.948  0.7047 -0.5776 -0.3051
10716TIP3    H153639   0.196   1.594  12.982  0.0459 -0.3354  0.2135
10716TIP3    H253640   0.189   1.494  12.868  1.5111 -0.2514  0.0341
10717TIP3   OH253641   3.443   6.665  11.757  0.0999 -0.8915  0.3223
10717TIP3    H153642   3.377   6.713  11.707  0.1525 -2.6023 -1.5629
10717TIP3    H253643   3.402   6.580  11.775  0.6695 -0.8658  1.9010
10718TIP3   OH253644   1.782   2.520  14.716  0.7208  0.2568  0.0091
10718TIP3    H153645   1.739   2.459  14.657  2.0751 -0.5133 -0.2269
10718TIP3    H253646   1.732   2.601  14.707 -0.3592 -0.4519 -0.5987
10719TIP3   OH253647   5.554   6.141   1.018 -0.6706  0.4483  0.1434
10719TIP3    H153648   5.632   6.161   0.966 -0.8673  0.6484 -0.0761
10719TIP3    H253649   5.525   6.056   0.985  0.2343 -0.2732  1.1602
10720TIP3   OH253650   4.551   1.504  14.016 -0.3896  0.3316 -0.1255
10720TIP3    H153651   4.596   1.446  14.077  0.7337 -0.4510 -1.6202
10720TIP3    H253652   4.509   1.570  14.071 -0.5973 -1.1330  1.5500
10721TIP3   OH253653   5.212   3.132   3.793  0.0184  0.8674  0.0103
10721TIP3    H153654   5.272   3.062   3.819 -1.1802 -0.6181 -1.0405
10721TIP3    H253655   5.142   3.128   3.859  0.9590  2.5444  1.1911
10722TIP3   OH253656   3.494   1.495   1.311 -0.0955  0.5135  0.2799
10722TIP3    H153657   3.502   1.555   1.384 -0.6380 -1.1283  1.7569
10722TIP3    H253658   3.533   1.541   1.237  1.3879  1.8281  1.8239
10723TIP3   OH253659   1.912   2.891   1.089  0.1917  0.2983  0.1028
10723TIP3    H153660   1.969   2.814   1.082  1.0520  0.8537  0.7815
10723TIP3    H253661   1.971   2.965   1.075 -0.6907  0.8340 -0.8822
10724TIP3   OH253662   0.562   4.773   2.558 -0.0069  0.1946 -0.4090
10724TIP3    H153663   0.541   4.824   2.479  0.7635  0.6870 -0.3154
10724TIP3    H253664   0.484   4.722   2.576 -0.6887  1.1063 -0.7050
10725TIP3   OH253665   5.231   6.702  13.793 -0.2907  0.0807  0.4226
10725TIP3    H153666   5.199   6.627  13.844  2.0571  0.3120  2.4150
10725TIP3    H253667   5.191   6.691  13.707 -1.9665 -2.0863  1.3809
10726TIP3   OH253668   0.257   5.116   1.642  0.0185  0.1502 -0.1136
10726TIP3    H153669   0.236   5.045   1.582 -1.8100  0.8464 -0.3970
10726TIP3    H253670   0.342   5.149   1.612 -0.4464 -0.0647 -1.8162
10727TIP3   OH253671   3.466   2.064  16.554  0.1732  0.2749 -0.1945
10727TIP3    H153672   3.452   1.994  16.491  2.9297 -1.7628  1.2344
10727TIP3    H253673   3.431   2.030  16.636  1.9153  0.3049  0.6134
10728TIP3   OH253674   4.863   4.312   0.484 -0.0877  0.9176  0.5067
10728TIP3    H153675   4.941   4.367   0.492  0.4200  0.2610  0.0616
10728TIP3    H253676   4.818   4.345   0.406  1.4796 -0.8330 -1.2340
10729TIP3   OH253677   0.189   5.533   4.897  0.0287  0.2520  0.0730
10729TIP3    H153678   0.124   5.602   4.910  0.9271  0.9715  0.8859
10729TIP3    H253679   0.272   5.579   4.891  0.5544 -0.7095 -0.2297
10730TIP3   OH253680   6.261   5.949  15.713 -0.2947 -1.1457  0.1533
10730TIP3    H153681   6.219   5.887  15.653 -1.1962 -0.1424 -0.2844
10730TIP3    H253682   6.198   5.959  15.785 -0.5121 -0.1550 -0.1657
10731TIP3   OH253683   4.436   0.962   1.624 -0.1878  0.6825 -0.3467
10731TIP3    H153684   4.411   1.029   1.688  0.6138  2.1933 -1.5408
10731TIP3    H253685   4.494   1.008   1.563  0.0341 -1.0087 -1.4718
10732TIP3   OH253686   3.881   2.632   2.432  0.1016 -0.1673  0.0348
10732TIP3    H153687   3.826   2.555   2.437  0.6265 -0.5277  0.3749
10732TIP3    H253688   3.832   2.700   2.479  0.2088 -0.6488  0.8670
10733TIP3   OH253689   6.185   5.901  11.176 -0.1632 -0.3280  0.2753
10733TIP3    H153690   6.250   5.944  11.119 -0.6733  0.3328  0.1779
10733TIP3    H253691   6.106   5.954  11.165  0.3063  1.2525  3.3045
10734TIP3   OH253692   4.382   2.160   0.724  0.4366 -0.1004 -0.1983
10734TIP3    H153693   4.344   2.076   0.700  2.3134 -0.4353 -2.3109
10734TIP3    H253694   4.371   2.165   0.819  0.5052 -2.8424  0.0279
10735TIP3   OH253695   0.948   1.062  13.331 -0.7055 -0.7733  0.0739
10735TIP3    H153696   0.942   1.028  13.242 -0.4764 -0.3308 -0.1084
10735TIP3    H253697   0.981   0.988  13.382 -4.0718 -2.1912  0.4684
10736TIP3   OH253698   4.362   2.416   5.054  0.5356 -0.0453  0.0487
10736TIP3    H153699   4.381   2.369   4.973  0.0263 -0.3494  0.0998
10736TIP3    H253700   4.432   2.480   5.062  1.1455 -0.6792 -0.1133
10737TIP3   OH253701   5.732   1.089  13.826  0.0233  0.0838 -0.0911
10737TIP3    H153702   5.649   1.059  13.788 -0.2103  1.8293 -1.0430
10737TIP3    H253703   5.798   1.031  13.789 -0.5013  0.1678 -1.1970
10738TIP3   OH253704   0.064   4.127  12.076 -0.0896 -0.3502 -0.0678
10738TIP3    H153705   0.081   4.189  12.147 -1.9082  1.4011 -1.0547
10738TIP3    H253706   0.065   4.181  11.997  0.8469 -2.0714 -1.2938
10739TIP3   OH253707   6.814   2.542  10.163  0.2500 -0.2106  0.1171
10739TIP3    H153708   6.868   2.553  10.084  0.1649 -0.0643  0.0794
10739TIP3    H253709   6.762   2.621  10.167 -2.1715 -1.5854 -1.5382
10740TIP3   OH253710   4.849   5.361  15.628 -0.0490  0.1508 -0.0805
10740TIP3    H153711   4.903   5.359  15.707 -3.2045 -1.9029  2.2795
10740TIP3    H253712   4.802   5.444  15.633  2.1486  1.6258 -1.7845
10741TIP3   OH253713   0.818   6.467  14.476  0.6568 -0.4954  0.2013
10741TIP3    H153714   0.827   6.557  14.508 -2.6502  0.3523 -0.8533
10741TIP3    H253715   0.822   6.476  14.381  1.3359 -1.6500  0.1111
10742TIP3   OH253716   4.581   5.796  16.945  0.1710 -0.2468 -0.0181
10742TIP3    H153717   4.550   5.880  16.912 -2.3923 -1.5510 -1.2292
10742TIP3    H253718   4.547   5.791  17.034  1.3390  0.4491  0.4875
10743TIP3   OH253719   6.754   2.976  16.689  0.3080 -0.0490  0.1188
10743TIP3    H153720   6.683   2.956  16.750  0.9519 -1.7909  0.3397
10743TIP3    H253721   6.717   3.043  16.631 -1.7854 -1.4002 -0.2260
10744TIP3   OH253722   1.893   6.321   0.243 -0.3678  0.0604  0.3718
10744TIP3    H153723   1.902   6.226   0.233 -1.4703  0.1513 -2.0551
10744TIP3    H253724   1.972   6.357   0.203 -1.0687  0.2045 -0.9262
10745TIP3   OH253725   0.389   0.943  11.543  0.2517 -0.0231  0.0977
10745TIP3    H153726   0.453   0.902  11.485  1.5217  1.3067  0.5163
10745TIP3    H253727   0.373   1.029  11.504 -1.9620 -0.6283 -0.4689
10746TIP3   OH253728   2.483   0.955  11.673 -0.2604 -0.6535  0.2730
10746TIP3    H153729   2.576   0.980  11.682 -0.2421 -0.1914 -0.9993
10746TIP3    H253730   2.439   1.004  11.742  0.4184 -0.6977  0.7499
10747TIP3   OH253731   1.238   3.393  12.765 -0.1519  0.3949  0.3802
10747TIP3    H153732   1.311   3.455  12.766  1.0529 -0.9865  0.4499
10747TIP3    H253733   1.177   3.428  12.700  2.2074 -0.2438 -2.3707
10748TIP3   OH253734   5.067   4.743   0.708 -0.4979  0.2072 -0.5354
10748TIP3    H153735   5.153   4.715   0.740 -0.6571 -2.0416 -1.8307
10748TIP3    H253736   5.086   4.798   0.633 -0.2025  1.8174  0.6676
10749TIP3   OH253737   0.706   2.294   3.792  0.0856 -0.0171 -0.3189
10749TIP3    H153738   0.790   2.280   3.835  0.6953 -0.6328 -1.6623
10749TIP3    H253739   0.651   2.334   3.860  1.0097 -0.9082  1.0025
10750TIP3   OH253740   2.143   3.599   3.903  0.3352  0.6739 -0.2593
10750TIP3    H153741   2.126   3.562   3.816 -0.0067  0.4507 -0.0988
10750TIP3    H253742   2.208   3.541   3.941 -0.5417 -0.0462  0.1728
10751TIP3   OH253743   0.620   5.486   5.469 -0.1909  0.3966  0.1751
10751TIP3    H153744   0.639   5.404   5.423 -0.3693  0.5968 -0.2544
10751TIP3    H253745   0.535   5.513   5.436 -0.2232  0.6567  0.4653
10752TIP3   OH253746   5.767   4.827  10.458 -0.3106  0.1742 -0.6920
10752TIP3    H153747   5.708   4.901  10.475  0.2533  0.6020 -0.5863
10752TIP3    H253748   5.820   4.854  10.384 -0.8857 -0.5981 -1.4025
10753TIP3   OH253749   3.574   6.280   1.157 -0.0393 -0.9842  0.1209
10753TIP3    H153750   3.533   6.263   1.072 -0.2627 -1.1612  0.2642
10753TIP3    H253751   3.544   6.368   1.181  1.6022 -0.1006 -0.9051
10754TIP3   OH253752   3.284   0.461   4.439  0.1113  0.1692  0.5425
10754TIP3    H153753   3.214   0.401   4.413 -0.1713  0.2284  1.1618
10754TIP3    H253754   3.363   0.408   4.436 -0.3053 -0.6502  2.4490
10755TIP3   OH253755   2.006   5.059   2.269 -0.2554 -0.1094 -0.0665
10755TIP3    H153756   2.088   5.104   2.290 -0.6642  0.4007  0.4865
10755TIP3    H253757   2.014   4.974   2.312 -1.8133  1.5479  4.0336
10756TIP3   OH253758   3.100   2.276  12.003  0.1801  0.5029 -0.1642
10756TIP3    H153759   3.043   2.224  12.061  1.9584 -2.2856 -0.7336
10756TIP3    H253760   3.067   2.366  12.012 -2.2340 -0.4544  1.9449
10757TIP3   OH253761   5.237   0.625  16.460 -0.1923  0.3295 -0.1665
10757TIP3    H153762   5.307   0.568  16.428 -0.1054  0.4148 -0.1297
10757TIP3    H253763   5.167   0.616  16.396 -0.7978 -1.0435  0.6429
10758TIP3   OH253764   4.135   6.511  14.072 -0.5380 -0.7179  0.1223
10758TIP3    H153765   4.167   6.539  13.986  0.5906  0.9988  1.0425
10758TIP3    H253766   4.132   6.416  14.066  4.2734 -1.0771 -0.3304
10759TIP3   OH253767   3.377   4.003   0.116  0.0839 -0.2547  0.8736
10759TIP3    H153768   3.403   3.932   0.173 -0.9085 -0.4555  1.1049
10759TIP3    H253769   3.288   4.026   0.145 -0.3425 -0.1864 -0.3959
10760TIP3   OH253770   4.465   3.949  15.327 -0.0639  0.0047  0.7431
10760TIP3    H153771   4.547   3.918  15.365  0.8654  1.8639  0.3696
10760TIP3    H253772   4.466   4.043  15.342 -2.3968  0.0065  1.1715
10761TIP3   OH253773   0.940   3.313  14.417 -0.0195 -0.7049 -0.3396
10761TIP3    H153774   1.002   3.241  14.429  1.0238  0.1994 -0.1459
10761TIP3    H253775   0.912   3.305  14.326  1.2989 -0.4334 -0.7939
10762TIP3   OH253776   6.249   3.014  14.235  0.0199  0.2576  0.3630
10762TIP3    H153777   6.181   3.080  14.253 -0.6096  0.3913 -2.0939
10762TIP3    H253778   6.200   2.935  14.211  0.7559 -1.2962  3.3769
10763TIP3   OH253779   2.290   6.789  11.387  0.4561 -0.0472  0.0155
10763TIP3    H153780   2.298   6.797  11.482 -0.0077  3.0683 -0.0911
10763TIP3    H253781   2.229   6.716  11.374 -0.6912  0.4238  2.1985
10764TIP3   OH253782   4.829   2.979  11.769 -0.2389 -0.3793  0.1634
10764TIP3    H153783   4.811   3.069  11.796  0.9022  0.2659 -1.1331
10764TIP3    H253784   4.923   2.967  11.786  0.0998 -0.5686 -1.6738
10765TIP3   OH253785   6.285   2.985   6.638 -0.4343  0.0080  0.4292
10765TIP3    H153786   6.200   3.009   6.676 -0.3255 -1.9515  2.1100
10765TIP3    H253787   6.265   2.962   6.547 -1.5948  0.1934  0.6198
10766TIP3   OH253788   6.303   6.740   5.524  0.0114  0.0995  0.2782
10766TIP3    H153789   6.271   6.671   5.466  0.1639 -0.4555  0.8384
10766TIP3    H253790   6.398   6.730   5.523  0.2893  2.1601 -1.8990
10767TIP3   OH253791   4.720   3.308  16.021  0.2978  0.5657 -0.5079
10767TIP3    H153792   4.666   3.379  16.056 -0.6720 -1.1797  1.7319
10767TIP3    H253793   4.734   3.332  15.929 -2.1411  2.3423 -0.5077
10768TIP3   OH253794   5.925   0.324  11.661  0.7632 -0.1146  1.2497
10768TIP3    H153795   5.988   0.392  11.686  0.9489 -0.6623  2.3253
10768TIP3    H253796   5.840   0.362  11.680  0.6625  0.9472 -0.9702
10769TIP3   OH253797   0.068   3.571   0.463  0.0420 -0.7255 -0.5409
10769TIP3    H153798   0.015   3.524   0.528  1.8501 -1.9320  0.1421
10769TIP3    H253799   0.007   3.594   0.394 -1.8962  0.2758  1.3854
10770TIP3   OH253800   1.486   0.156   2.348  0.0690  0.3259  0.6355
10770TIP3    H153801   1.428   0.226   2.319  0.4162  1.0488  1.6158
10770TIP3    H253802   1.505   0.106   2.269 -0.8101  0.8757  0.0601
10771TIP3   OH253803   0.443   3.899   4.696  0.4614 -0.5410  0.4892
10771TIP3    H153804   0.404   3.924   4.612  1.2498 -2.8624 -0.6354
10771TIP3    H253805   0.501   3.972   4.718  0.0008  0.2449 -0.7968
10772TIP3   OH253806   4.899   4.823   2.487  0.2392  0.1880 -0.7457
10772TIP3    H153807   4.832   4.827   2.555  1.0106  1.2804 -0.0199
10772TIP3    H253808   4.876   4.746   2.436 -0.9423 -0.0812  0.1429
10773TIP3   OH253809   0.728   5.073  14.853 -0.1305  0.2475  0.1400
10773TIP3    H153810   0.669   5.079  14.928  0.5459 -0.3017  0.7238
10773TIP3    H253811   0.674   5.100  14.779 -0.1561  3.3726  1.1259
10774TIP3   OH253812   1.993   3.822  13.057 -0.0179  0.3933  0.5967
10774TIP3    H153813   1.933   3.893  13.034 -0.9853 -1.0207 -1.6842
10774TIP3    H253814   1.978   3.806  13.150 -3.5966 -0.1433  0.0808
10775TIP3   OH253815   3.951   6.819  15.015  0.4739 -0.6603  0.2663
10775TIP3    H153816   3.985   6.904  14.985 -1.4056  1.0573  2.6660
10775TIP3    H253817   3.882   6.798  14.952  1.3471 -0.7530 -0.6927
10776TIP3   OH253818   5.700   6.760   4.279  0.4030 -0.1266 -0.1070
10776TIP3    H153819   5.768   6.766   4.346 -0.7863  1.2379  1.0590
10776TIP3    H253820   5.643   6.690   4.310 -1.3984  1.9498  1.6487
10777TIP3   OH253821   4.342   3.357   5.218  0.1548  0.4120 -0.1458
10777TIP3    H153822   4.407   3.428   5.212 -0.1950  0.7897  0.4459
10777TIP3    H253823   4.356   3.306   5.138 -0.9471  2.2993 -1.6593
10778TIP3   OH253824   5.187   6.600  10.445  0.0891  0.1943 -0.8976
10778TIP3    H153825   5.220   6.539  10.511 -2.6634  1.5313  2.0119
10778TIP3    H253826   5.265   6.633  10.401  1.8892 -2.7400 -0.1759
10779TIP3   OH253827   1.502   1.080  15.446 -0.6295  0.0137 -0.1214
10779TIP3    H153828   1.465   1.118  15.527 -2.5921 -1.9755  0.0040
10779TIP3    H253829   1.449   1.118  15.376  0.4859  1.0404 -0.4444
10780TIP3   OH253830   0.320   1.408  10.985  0.0824 -0.2404  0.6049
10780TIP3    H153831   0.394   1.408  10.924 -0.0450  1.4063  0.4006
10780TIP3    H253832   0.245   1.434  10.931 -0.2135  0.2989  1.2673
10781TIP3   OH253833   3.907   0.083   6.636  0.0801  0.2605 -0.0101
10781TIP3    H153834   3.896  -0.004   6.673  0.4939  0.2264  0.0398
10781TIP3    H253835   3.830   0.096   6.581  1.2741 -1.2297 -2.1617
10782TIP3   OH253836   3.914   0.959   1.299 -0.1276 -0.3162 -0.4322
10782TIP3    H153837   3.935   1.015   1.373 -0.7114  0.6735 -0.9904
10782TIP3    H253838   3.854   1.011   1.246  0.0900 -1.0907 -1.4758
10783TIP3   OH253839   2.032   2.409  12.827 -0.4890 -0.2215  0.4273
10783TIP3    H153840   2.114   2.387  12.872 -0.6136 -0.6612  0.4518
10783TIP3    H253841   2.058   2.424  12.736 -0.5686 -1.9175  0.0793
10784TIP3   OH253842   2.416   3.075   2.007 -0.3085  0.0465 -0.3201
10784TIP3    H153843   2.449   2.998   2.053 -1.2949  0.1744  0.6388
10784TIP3    H253844   2.490   3.106   1.956  0.8702 -0.0066  1.3042
10785TIP3   OH253845   0.520   6.006  11.546 -0.5289 -0.6151  0.6602
10785TIP3    H153846   0.478   6.018  11.631 -0.2200 -0.9777  0.8649
10785TIP3    H253847   0.552   5.916  11.547  0.0912 -0.4012  0.4366
10786TIP3   OH253848   1.813   3.722  16.598 -0.5702 -0.7252 -0.0466
10786TIP3    H153849   1.781   3.650  16.653 -0.5056 -0.2516  0.6340
10786TIP3    H253850   1.753   3.795  16.617 -0.6310 -0.5914 -0.7223
10787TIP3   OH253851   2.572   4.435  13.112  0.0122 -0.0436  0.1370
10787TIP3    H153852   2.632   4.417  13.185  1.3367 -0.6675 -1.0571
10787TIP3    H253853   2.508   4.364  13.115 -0.3371  0.2964  1.0651
10788TIP3   OH253854   4.029   2.901  12.377  0.1678  0.3462 -0.6015
10788TIP3    H153855   4.057   2.990  12.397 -1.4052  0.5528  0.9031
10788TIP3    H253856   3.933   2.904  12.382  0.1047 -1.8201  1.5057
10789TIP3   OH253857   0.011   6.757  12.386 -0.4698 -0.6108 -1.0112
10789TIP3    H153858  -0.057   6.698  12.354 -1.1530  0.1838 -1.0641
10789TIP3    H253859  -0.033   6.810  12.454 -0.5351  1.3718 -2.4984
10790TIP3   OH253860   5.368   2.732  16.384 -0.4301  0.1992  0.0301
10790TIP3    H153861   5.349   2.800  16.448 -0.7426  0.5920 -0.4723
10790TIP3    H253862   5.301   2.742  16.317 -0.4553 -0.5806 -0.0723
10791TIP3   OH253863   2.804   4.477   1.718  0.1850 -0.5004  0.1681
10791TIP3    H153864   2.869   4.429   1.770  0.8248  0.7519  0.5709
10791TIP3    H253865   2.746   4.410   1.684  0.5876 -1.4823  1.3555
10792TIP3   OH253866   2.998   6.635   6.530 -0.4582  0.5301 -0.1659
10792TIP3    H153867   2.976   6.627   6.437  0.8042  2.0066 -0.6453
10792TIP3    H253868   3.072   6.696   6.532  0.9598 -1.1007  1.6386
10793TIP3   OH253869   4.441   3.734  13.581  0.1002 -0.5370  0.1688
10793TIP3    H153870   4.363   3.787  13.596  2.0336  2.2018  1.2008
10793TIP3    H253871   4.475   3.764  13.496 -0.3397 -2.2964 -0.6789
10794TIP3   OH253872   1.295   1.659   3.456  0.5476 -0.1787 -0.5078
10794TIP3    H153873   1.318   1.587   3.515  0.9722  0.0921 -0.3373
10794TIP3    H253874   1.212   1.632   3.416  1.3000 -1.3323 -1.3776
10795TIP3   OH253875   1.358   0.852  14.432 -0.4457 -0.0343 -0.3555
10795TIP3    H153876   1.273   0.824  14.399 -0.3210 -1.3798  0.3539
10795TIP3    H253877   1.338   0.920  14.497 -1.0880 -1.0172  0.5233
10796TIP3   OH253878   6.448   5.561  11.333 -0.6343  0.1360 -0.4121
10796TIP3    H153879   6.443   5.596  11.244  1.6614 -2.5420 -1.7238
10796TIP3    H253880   6.541   5.560  11.354 -1.1472  1.5574  2.5042
10797TIP3   OH253881   2.544   2.611   6.128 -1.0927 -0.5727  0.2414
10797TIP3    H153882   2.458   2.620   6.168  0.2731 -0.0475  3.2618
10797TIP3    H253883   2.589   2.546   6.181 -0.1597 -2.2601 -2.3971
10798TIP3   OH253884   2.979   2.498   0.530 -0.3098 -0.5341 -0.4336
10798TIP3    H153885   3.065   2.494   0.571 -0.7125 -1.2746  0.3423
10798TIP3    H253886   2.980   2.429   0.463 -0.8024 -1.5335  0.5660
10799TIP3   OH253887   0.432   1.783  16.187 -0.1198  0.1556 -0.6623
10799TIP3    H153888   0.520   1.745  16.193 -0.5468 -0.7029  0.5110
10799TIP3    H253889   0.442   1.856  16.127  1.0117 -1.0626 -2.0575
10800TIP3   OH253890   1.200   6.438  11.558  0.0910 -0.1877 -0.2150
10800TIP3    H153891   1.227   6.478  11.476  0.4343 -0.3220 -0.1694
10800TIP3    H253892   1.224   6.346  11.549 -1.8581 -0.6861 -0.8420
10801TIP3   OH253893   4.325   0.987  13.003  0.0447 -0.0964 -0.1113
10801TIP3    H153894   4.299   0.907  13.049 -0.3030 -1.4863 -2.5256
10801TIP3    H253895   4.327   0.962  12.911  2.3453  2.0526 -0.7707
10802TIP3   OH253896   6.431   3.483  13.177  0.4618  0.1339 -0.2684
10802TIP3    H153897   6.486   3.525  13.111 -0.1440 -0.1874 -0.9943
10802TIP3    H253898   6.342   3.493  13.144  0.1160  0.2950  0.6932
10803TIP3   OH253899   2.851   3.223   6.204  0.3849 -0.0874 -0.0932
10803TIP3    H153900   2.835   3.137   6.242  0.1577  0.5381  1.2500
10803TIP3    H253901   2.817   3.285   6.267 -0.9986  0.9778 -1.7866
10804TIP3   OH253902   0.555   4.081  17.004  0.1334 -0.4382 -0.5477
10804TIP3    H153903   0.596   4.014  17.060 -1.2078 -1.4384 -0.6921
10804TIP3    H253904   0.548   4.158  17.060  1.7900 -0.3655 -0.4007
10805TIP3   OH253905   3.020   3.618  12.933  0.3001  0.0673 -0.3060
10805TIP3    H153906   3.089   3.558  12.904  1.0768  1.0309 -0.4934
10805TIP3    H253907   2.986   3.657  12.853 -0.7267 -0.6606 -0.2420
10806TIP3   OH253908   3.296   3.217  15.114 -0.1993 -0.1170  0.5192
10806TIP3    H153909   3.374   3.194  15.062 -1.0967  0.4267 -1.1141
10806TIP3    H253910   3.288   3.311  15.106 -1.4426 -0.2475  0.0664
10807TIP3   OH253911   1.826   3.381  11.147  0.1709 -0.1981 -0.1981
10807TIP3    H153912   1.799   3.396  11.056 -1.8622 -0.2150  0.3472
10807TIP3    H253913   1.873   3.298  11.145  0.1774 -0.1851 -1.2449
10808TIP3   OH253914   2.153   3.048   2.956  0.1301 -0.3920 -0.4555
10808TIP3    H153915   2.150   2.974   2.896 -0.1776 -1.4297  0.8074
10808TIP3    H253916   2.062   3.069   2.974  0.2035 -0.9739  0.6856
10809TIP3   OH253917   2.445   2.522   2.989  0.2020 -0.6796 -0.1496
10809TIP3    H153918   2.494   2.594   3.030  1.4203 -1.3989 -0.2979
10809TIP3    H253919   2.465   2.445   3.043 -2.6998 -0.6028  1.2503
10810TIP3   OH253920   4.670   4.402   2.072 -0.2023 -0.0205 -0.6538
10810TIP3    H153921   4.649   4.444   2.156 -0.2924 -1.4776  0.0866
10810TIP3    H253922   4.743   4.453   2.038 -0.0523  0.4995  0.3974
10811TIP3   OH253923   4.403   5.219  15.724 -0.2855 -0.8986  0.2397
10811TIP3    H153924   4.402   5.315  15.725 -1.8332 -0.8724 -0.6229
10811TIP3    H253925   4.492   5.196  15.700  0.2511  0.3085  0.9749
10812TIP3   OH253926   2.146   2.713   2.509 -0.0593 -0.0071  0.1477
10812TIP3    H153927   2.209   2.786   2.507 -1.3947  1.2049  0.6848
10812TIP3    H253928   2.184   2.651   2.571  2.2474 -0.9245 -1.9737
10813TIP3   OH253929   0.498   1.182   3.408  0.5487 -0.4000  0.0236
10813TIP3    H153930   0.418   1.155   3.453 -0.4661  1.9685 -0.1965
10813TIP3    H253931   0.565   1.185   3.476  0.6149 -2.7864  0.1397
10814TIP3   OH253932   0.531   2.347   0.332 -0.2594  0.0959  0.1533
10814TIP3    H153933   0.479   2.307   0.401  0.7947  2.3198  2.3988
10814TIP3    H253934   0.542   2.438   0.359  2.2957  0.4720 -1.7003
10815TIP3   OH253935   3.754   6.460   0.702  0.5142 -0.1872 -0.2099
10815TIP3    H153936   3.668   6.446   0.741  0.4301  2.2071  0.6341
10815TIP3    H253937   3.787   6.372   0.684 -1.7498 -1.1866  0.1971
10816TIP3   OH253938   2.952   4.453  13.561 -0.1986  0.6496 -0.8103
10816TIP3    H153939   2.929   4.411  13.479 -0.0223  0.5183 -0.7913
10816TIP3    H253940   2.873   4.502  13.586 -0.2883  0.5990 -0.9990
10817TIP3   OH253941   5.487   4.530  16.925 -0.4487 -0.3882 -0.5808
10817TIP3    H153942   5.568   4.533  16.874 -0.1025  0.9723 -0.0192
10817TIP3    H253943   5.516   4.516  17.015 -1.0269 -2.3264 -0.6524
10818TIP3   OH253944   0.979   4.748   1.565  0.3098  0.0125  0.3752
10818TIP3    H153945   1.069   4.763   1.594  0.0289  3.0987  0.0586
10818TIP3    H253946   0.989   4.710   1.478  1.2966 -0.3970  0.6510
10819TIP3   OH253947   5.880   6.407  11.452 -0.4096  0.3541 -0.2902
10819TIP3    H153948   5.967   6.367  11.442 -0.6349 -0.5474  1.0918
10819TIP3    H253949   5.845   6.368  11.532 -2.1262  0.6629 -0.8594
10820TIP3   OH253950   0.972   1.176  15.287 -0.5769 -0.1542 -0.3476
10820TIP3    H153951   1.010   1.247  15.234 -0.0209 -0.5542 -0.5041
10820TIP3    H253952   1.048   1.132  15.325 -0.9633 -0.0028  0.6273
10821TIP3   OH253953   3.614   0.096   2.243  0.2862  0.0590 -0.6076
10821TIP3    H153954   3.685   0.110   2.306  0.8083  1.2594 -1.4189
10821TIP3    H253955   3.637   0.152   2.169 -1.1840 -0.0163 -1.1518
10822TIP3   OH253956   1.833   2.096   3.947 -0.1174 -0.4597  0.1697
10822TIP3    H153957   1.901   2.164   3.939  0.0822 -0.6287  0.4399
10822TIP3    H253958   1.832   2.074   4.039 -0.5544 -0.4501  0.1704
10823TIP3   OH253959   4.265   1.683   1.443  0.0809  0.2589 -0.3671
10823TIP3    H153960   4.292   1.683   1.351 -2.3192  0.1091 -1.1371
10823TIP3    H253961   4.200   1.753   1.448 -1.2154 -0.9867  0.7687
10824TIP3   OH253962   0.631   4.409  14.999 -0.0405 -0.4266 -0.1698
10824TIP3    H153963   0.693   4.456  14.945 -2.1446 -0.2211 -2.5953
10824TIP3    H253964   0.657   4.317  14.993  1.7438 -0.0841  1.3702
10825TIP3   OH253965   5.090   2.566  14.347 -0.4076  0.6889 -0.2870
10825TIP3    H153966   5.160   2.626  14.371 -1.2719  2.2473 -1.4905
10825TIP3    H253967   5.129   2.510  14.280 -0.5056  2.1034 -1.5743
10826TIP3   OH253968   1.596   0.559  16.883  0.0027  0.2607  0.4046
10826TIP3    H153969   1.655   0.609  16.940 -0.1243 -0.2059  0.9508
10826TIP3    H253970   1.597   0.607  16.800 -1.6369  2.3119  1.4865
10827TIP3   OH253971   2.122   1.405   0.331  0.1078  0.0238  0.1146
10827TIP3    H153972   2.159   1.329   0.374 -0.5405 -0.8031 -0.7526
10827TIP3    H253973   2.050   1.433   0.388  0.7368  0.3816  0.7470
10828TIP3   OH253974   0.285   3.494  14.813  0.4788  0.1499  0.1955
10828TIP3    H153975   0.264   3.423  14.874  1.8811 -1.1394 -0.7233
10828TIP3    H253976   0.201   3.522  14.779 -0.1300 -1.0753  0.6205
10829TIP3   OH253977   3.379   5.985  12.710  0.0123 -0.1987 -0.1265
10829TIP3    H153978   3.291   6.018  12.690  0.0230 -0.4169 -0.5516
10829TIP3    H253979   3.364   5.904  12.758 -0.0772 -1.5130 -2.2085
10830TIP3   OH253980   2.372   4.636   4.911 -0.4015  0.4809  0.4560
10830TIP3    H153981   2.455   4.675   4.884 -0.1213 -0.0174  0.5784
10830TIP3    H253982   2.357   4.670   5.000  0.1289 -0.1255  0.7846
10831TIP3   OH253983   0.944   6.798   1.281  0.3675  0.1413 -0.1398
10831TIP3    H153984   0.924   6.705   1.267  1.1884 -0.5584  2.6690
10831TIP3    H253985   0.861   6.836   1.309  0.5692 -0.3655  1.2097
10832TIP3   OH253986   2.288   2.083  11.254  0.2777  0.0432  0.0500
10832TIP3    H153987   2.239   2.130  11.322  1.0458  2.1434 -0.7810
10832TIP3    H253988   2.380   2.097  11.276  0.5298 -0.2335 -0.7851
10833TIP3   OH253989   0.277   1.132  11.758  0.2090  0.0262 -0.2372
10833TIP3    H153990   0.264   1.086  11.841 -0.4385 -2.1810 -1.4947
10833TIP3    H253991   0.195   1.120  11.710  0.7702  0.7605 -1.4397
10834TIP3   OH253992   2.400   6.100   0.557  0.2009  0.5266  0.2738
10834TIP3    H153993   2.350   6.019   0.547 -1.9211  1.8688 -0.8393
10834TIP3    H253994   2.392   6.122   0.650  1.7653 -1.0676  0.8288
10835TIP3   OH253995   0.352   0.635  16.992  0.2729 -0.0385  0.2879
10835TIP3    H153996   0.320   0.718  17.028 -1.6672 -1.4439  2.0578
10835TIP3    H253997   0.288   0.612  16.924  1.7550  0.6700 -1.4436
10836TIP3   OH253998   0.580   3.350   4.364  0.5601  0.1904  0.1612
10836TIP3    H153999   0.516   3.306   4.309 -1.2332  1.7366  0.8823
10836TIP3    H254000   0.631   3.280   4.403 -2.6390 -1.3720  1.8782
10837TIP3   OH254001   4.423   6.674  16.512 -0.2389 -0.5699  0.0697
10837TIP3    H154002   4.416   6.731  16.435  0.3266 -0.5630  0.0139
10837TIP3    H254003   4.380   6.723  16.582  0.8258  0.2470  0.1883
10838TIP3   OH254004   3.218   5.709   2.699 -0.3281  0.5452  0.1365
10838TIP3    H154005   3.165   5.630   2.687 -0.5123  0.8505 -1.1613
10838TIP3    H254006   3.307   5.676   2.712  0.0508  0.1278 -2.9227
10839TIP3   OH254007   3.167   2.909  14.152  0.1322  0.0622  0.6712
10839TIP3    H154008   3.091   2.918  14.095  0.3330  0.6196  0.4843
10839TIP3    H254009   3.154   2.826  14.197 -0.3303 -0.0908  0.2601
10840TIP3   OH254010   2.391   3.817   2.897  0.1444  0.1571  0.6917
10840TIP3    H154011   2.477   3.820   2.855 -0.1781 -1.2393 -0.1191
10840TIP3    H254012   2.332   3.862   2.835 -0.4193 -2.2939 -0.6897
10841TIP3   OH254013   3.855   6.739  16.804 -0.6658 -0.7383 -0.0920
10841TIP3    H154014   3.808   6.661  16.832 -1.9442  0.4835  1.3638
10841TIP3    H254015   3.935   6.740  16.857 -0.5624 -1.1549 -0.2419
10842TIP3   OH254016   0.417   5.691  11.951  0.2622 -0.2093 -0.0926
10842TIP3    H154017   0.479   5.732  12.011 -0.6239  0.6959  0.2246
10842TIP3    H254018   0.472   5.639  11.892  1.4469  1.4440 -0.5136
10843TIP3   OH254019   2.363   2.704  12.748 -0.2972 -0.8852 -0.3094
10843TIP3    H154020   2.459   2.711  12.744 -0.1982  3.3221  2.5776
10843TIP3    H254021   2.333   2.760  12.677 -0.5769 -1.1469 -0.3948
10844TIP3   OH254022   0.286   0.968  10.961  0.2345 -0.4070 -0.2653
10844TIP3    H154023   0.233   1.024  10.906  0.0585 -0.0916  0.2143
10844TIP3    H254024   0.226   0.938  11.030  0.8438  0.5318  0.6989
10845TIP3   OH254025   1.460   6.213   1.418 -0.2855  0.1259  0.0598
10845TIP3    H154026   1.545   6.217   1.462  0.2870 -0.8757 -0.8948
10845TIP3    H254027   1.440   6.304   1.396 -0.0796  0.5186  1.3940
10846TIP3   OH254028   6.787   2.309  11.724 -0.7671  0.1824 -0.0858
10846TIP3    H154029   6.756   2.218  11.727  0.0888 -0.1811 -1.4028
10846TIP3    H254030   6.863   2.306  11.667 -0.1536  1.5871  0.6143
10847TIP3   OH254031   5.511   0.200  16.813  0.6569  0.1513 -0.4445
10847TIP3    H154032   5.424   0.215  16.774  0.6123  1.3383  0.0901
10847TIP3    H254033   5.561   0.278  16.790  1.6310 -0.5693 -0.8272
10848TIP3   OH254034   4.632   5.657  12.991  0.2110  0.6274  0.2608
10848TIP3    H154035   4.644   5.730  12.930 -0.7702  1.2571  0.7849
10848TIP3    H254036   4.622   5.700  13.076 -3.4916  0.1823  0.2112
10849TIP3   OH254037   3.255   1.503  11.600 -0.2800 -0.5961 -0.3852
10849TIP3    H154038   3.160   1.499  11.597 -0.3137  0.3438 -2.7961
10849TIP3    H254039   3.284   1.417  11.569 -0.3150 -0.8947  0.3829
10850TIP3   OH254040   6.629   3.442   0.887 -0.5228  0.1705 -0.4380
10850TIP3    H154041   6.568   3.511   0.914 -1.7147 -0.6077 -1.0616
10850TIP3    H254042   6.636   3.451   0.792  1.7560  1.3596 -0.2152
10851TIP3   OH254043   3.131   4.502  16.589  0.6863  0.4428  0.1310
10851TIP3    H154044   3.138   4.502  16.685  2.7252  3.2064  0.0810
10851TIP3    H254045   3.083   4.581  16.568  1.0288  0.3296 -1.1603
10852TIP3   OH254046   5.396   6.140   2.473  0.5144  0.8068 -0.2128
10852TIP3    H154047   5.342   6.069   2.438 -0.2174  0.2701  1.8662
10852TIP3    H254048   5.485   6.104   2.476  0.5684  0.8120 -1.2816
10853TIP3   OH254049   6.433   5.247  14.981 -0.5384  0.0413 -0.3317
10853TIP3    H154050   6.501   5.289  15.034  0.1258  0.6554 -1.6218
10853TIP3    H254051   6.464   5.256  14.891 -1.3594 -1.4568 -0.8037
10854TIP3   OH254052   5.274   5.503  12.043 -0.5397 -0.4135 -0.2470
10854TIP3    H154053   5.323   5.545  11.973  1.6160 -1.3391  0.6221
10854TIP3    H254054   5.230   5.429  12.001 -0.9321  0.2197 -0.9770
10855TIP3   OH254055   4.936   1.570  15.107 -0.7803  0.1638  0.2538
10855TIP3    H154056   4.969   1.660  15.101  0.3662 -0.2309  0.4375
10855TIP3    H254057   5.013   1.515  15.094 -1.7600 -0.8501 -1.7209
10856TIP3   OH254058   4.267   5.695   1.408 -0.0176  0.1176  0.0232
10856TIP3    H154059   4.261   5.766   1.344  0.8361 -0.4926 -0.7441
10856TIP3    H254060   4.283   5.616   1.357  2.6807 -0.1110  1.0444
10857TIP3   OH254061   0.842   1.817   1.848 -0.0307  0.5567  0.1249
10857TIP3    H154062   0.801   1.762   1.915  1.1959 -0.3611  0.1630
10857TIP3    H254063   0.812   1.905   1.867  0.1001  0.2845  1.7426
10858TIP3   OH254064   2.148   0.196  11.364 -0.6120 -0.1089  0.0348
10858TIP3    H154065   2.169   0.103  11.349  1.3182  0.3852 -0.6233
10858TIP3    H254066   2.196   0.218  11.444 -0.5288  0.4866 -0.1768
10859TIP3   OH254067   3.285   0.996   2.041 -0.6567 -0.0385 -0.1003
10859TIP3    H154068   3.199   0.960   2.019 -0.2846 -1.7350  1.0445
10859TIP3    H254069   3.346   0.951   1.983 -0.3995  0.1957 -0.0121
10860TIP3   OH254070   4.796   1.749  11.781 -0.0526  0.5607  0.1276
10860TIP3    H154071   4.749   1.832  11.783 -0.2908  0.4551 -0.6980
10860TIP3    H254072   4.746   1.695  11.720  0.7048  0.1813 -0.1742
10861TIP3   OH254073   4.260   5.758  13.190  0.4754 -0.4518  0.1469
10861TIP3    H154074   4.274   5.763  13.095  0.8714  0.9043  0.2558
10861TIP3    H254075   4.171   5.725  13.200  0.5590 -0.9585 -0.6866
10862TIP3   OH254076   2.431   6.420   5.583  0.4155  0.1194 -0.1991
10862TIP3    H154077   2.470   6.434   5.669  1.5484  0.4194 -0.7492
10862TIP3    H254078   2.407   6.507   5.553  3.1241  0.4852 -1.5952
10863TIP3   OH254079   0.877   1.943   2.932 -0.4494 -0.0291  0.2137
10863TIP3    H154080   0.935   1.915   2.861  1.9971  1.8734  1.2998
10863TIP3    H254081   0.872   2.038   2.922 -1.1879  0.1125  1.7488
10864TIP3   OH254082   6.650   1.643  13.607  0.0496  0.0448 -0.3913
10864TIP3    H154083   6.568   1.693  13.605 -0.7515 -1.2465 -1.5839
10864TIP3    H254084   6.699   1.675  13.530  0.6466  0.7287  0.2504
10865TIP3   OH254085   4.573   4.096  17.052  0.0917 -0.0871  0.1973
10865TIP3    H154086   4.515   4.166  17.025  1.5135  0.6298 -1.1774
10865TIP3    H254087   4.589   4.112  17.145 -2.2653 -0.6350  0.7528
10866TIP3   OH254088   1.763   4.463  15.008 -0.0457 -0.0093 -0.1812
10866TIP3    H154089   1.799   4.552  15.006 -0.2986  0.0900 -1.9806
10866TIP3    H254090   1.828   4.413  15.057  1.4584  0.6474 -1.3911
10867TIP3   OH254091   2.316   1.785  13.212 -0.0516 -0.0176  0.3187
10867TIP3    H154092   2.289   1.730  13.286  0.8141 -0.4096  0.3588
10867TIP3    H254093   2.390   1.738  13.174 -0.8679 -0.1599 -1.1979
10868TIP3   OH254094   1.643   5.170  11.887 -0.8791  0.4290  0.3679
10868TIP3    H154095   1.585   5.132  11.953  1.4638  0.9552  2.9648
10868TIP3    H254096   1.589   5.232  11.839 -2.6668  0.2439  2.0258
10869TIP3   OH254097   2.374   1.806   1.002 -0.0869  0.0654  0.7932
10869TIP3    H154098   2.428   1.730   0.977 -1.2217 -0.2316 -0.8734
10869TIP3    H254099   2.342   1.783   1.089  3.7707  1.0153  2.6872
10870TIP3   OH254100   6.586   4.892  15.961  0.4660  0.6143 -0.3269
10870TIP3    H154101   6.510   4.865  15.909  0.7779 -1.2341  0.0911
10870TIP3    H254102   6.565   4.866  16.050  1.5223  0.1615 -0.1902
10871TIP3   OH254103   6.120   2.477   3.202 -0.7490  0.2735 -0.0560
10871TIP3    H154104   6.032   2.443   3.217  0.1401 -2.4374 -0.3406
10871TIP3    H254105   6.139   2.456   3.111 -0.8614  3.6746 -0.9934
10872TIP3   OH254106   0.236   0.732   6.024 -0.0578 -0.4477  0.1758
10872TIP3    H154107   0.222   0.676   5.948 -0.6599 -1.5324  1.0465
10872TIP3    H254108   0.330   0.750   6.023  0.4698 -2.8100  0.7129
10873TIP3   OH254109   4.728   5.858  15.612  0.0442 -0.3492  0.0345
10873TIP3    H154110   4.670   5.821  15.545 -0.3792  1.9430 -0.9549
10873TIP3    H254111   4.676   5.927  15.653  1.4092  0.4640  0.4698
10874TIP3   OH254112   2.183   1.313   5.214 -0.1318  0.1436 -0.1852
10874TIP3    H154113   2.099   1.283   5.250  0.5726 -0.9204  0.6183
10874TIP3    H254114   2.221   1.368   5.283  0.4898 -0.5840  0.0661
10875TIP3   OH254115   5.428   5.890   0.958  0.2377  0.0050  0.3062
10875TIP3    H154116   5.344   5.875   0.915  0.8473  1.8254 -1.7176
10875TIP3    H254117   5.484   5.820   0.925 -0.4343 -1.2977  1.7689
10876TIP3   OH254118   6.330   1.079  12.444 -0.2214  0.2196 -0.2989
10876TIP3    H154119   6.363   1.082  12.354 -0.5281  3.7777 -0.4652
10876TIP3    H254120   6.282   1.162  12.454 -0.5680 -0.2428  3.0115
10877TIP3   OH254121   5.221   0.571   0.615  0.0924 -0.0840  0.1033
10877TIP3    H154122   5.182   0.653   0.646 -1.7267 -0.8306 -0.1129
10877TIP3    H254123   5.311   0.595   0.592 -0.9149  2.2956 -1.7715
10878TIP3   OH254124   2.527   0.286  16.710  0.3496  0.4704 -0.4540
10878TIP3    H154125   2.489   0.227  16.775 -0.2417  1.7174  0.3792
10878TIP3    H254126   2.451   0.325  16.666  0.5389  3.0513  1.2802
10879TIP3   OH254127   4.412   1.500  16.887 -0.5782  0.3653  0.6205
10879TIP3    H154128   4.445   1.582  16.924  0.6375 -0.6348  1.8508
10879TIP3    H254129   4.448   1.498  16.798 -1.8395  1.8263  0.0313
10880TIP3   OH254130   3.953   1.431  11.773 -0.3098 -0.2682  0.0339
10880TIP3    H154131   3.876   1.482  11.798 -0.0731  0.6347 -1.0226
10880TIP3    H254132   3.918   1.354  11.728 -0.5929  0.0656 -0.3166
10881TIP3   OH254133   0.781   5.938   2.045 -0.1769 -0.3450  0.2039
10881TIP3    H154134   0.863   5.890   2.037  0.4609  0.8951 -1.3590
10881TIP3    H254135   0.750   5.918   2.133  2.2033 -0.2411  1.1517
10882TIP3   OH254136   3.350   6.347  16.266 -0.3556  1.0149 -0.4929
10882TIP3    H154137   3.391   6.264  16.291 -0.3433  1.4515  1.0419
10882TIP3    H254138   3.388   6.368  16.181  0.5917  0.0816 -0.3200
10883TIP3   OH254139   4.052   3.126  13.890  0.4928  0.2387 -0.1970
10883TIP3    H154140   4.116   3.138  13.820  0.8375  0.3345  0.1348
10883TIP3    H254141   4.104   3.109  13.969  0.0930 -0.3777 -0.0592
10884TIP3   OH254142   4.671   2.347   3.403  0.2586  0.2631 -0.2403
10884TIP3    H154143   4.755   2.363   3.445  1.2394 -1.0979 -1.5708
10884TIP3    H254144   4.622   2.294   3.467  1.2274 -0.6922 -0.2613
10885TIP3   OH254145   3.457   6.216  16.843  0.7881 -0.1648 -0.3748
10885TIP3    H154146   3.393   6.193  16.777 -0.9551  1.0231  0.8154
10885TIP3    H254147   3.488   6.132  16.877  1.1406 -0.7692 -2.1000
10886TIP3   OH254148   0.597   0.162   1.147 -0.0634 -0.3591  0.5351
10886TIP3    H154149   0.645   0.120   1.076  0.3472  1.2045 -0.1430
10886TIP3    H254150   0.552   0.236   1.106  1.8329  1.8606  2.1818
10887TIP3   OH254151   3.249   6.284  12.579 -0.2069 -0.3469 -0.1981
10887TIP3    H154152   3.272   6.372  12.609  0.9207 -0.7505  0.1683
10887TIP3    H254153   3.333   6.242  12.561 -0.6893 -1.6463  0.4857
10888TIP3   OH254154   0.786   2.083   1.827 -0.2767 -0.2861  0.5478
10888TIP3    H154155   0.725   2.149   1.861 -0.1883 -0.0563  0.2712
10888TIP3    H254156   0.772   2.085   1.732 -0.0066 -0.4008  0.5043
10889TIP3   OH254157   1.033   3.455   0.089  0.7900 -0.2793  0.3469
10889TIP3    H154158   1.100   3.489   0.031  0.3535 -0.5175 -0.3084
10889TIP3    H254159   0.973   3.407   0.032  0.1446 -0.2013  0.9350
10890TIP3   OH254160   2.369   5.925   1.720  0.2138  0.5560 -0.3204
10890TIP3    H154161   2.462   5.906   1.732 -0.0961 -1.1121 -0.2565
10890TIP3    H254162   2.332   5.919   1.808 -0.2340 -0.6585 -0.5661
10891TIP3   OH254163   2.283   5.007   4.844 -0.4690  0.3292 -0.3337
10891TIP3    H154164   2.372   5.001   4.809 -0.5587 -1.0466 -0.3566
10891TIP3    H254165   2.241   5.074   4.789  0.8740  1.8894  0.4525
10892TIP3   OH254166   2.210   4.159  16.345  0.4434 -0.1048  0.1564
10892TIP3    H154167   2.127   4.112  16.353 -0.0393 -0.1462 -3.3866
10892TIP3    H254168   2.274   4.092  16.321  0.3875  0.5282 -1.9677
10893TIP3   OH254169   4.483   3.222  16.873 -0.1424  0.5912 -0.2926
10893TIP3    H154170   4.426   3.150  16.898 -1.8758  1.6553 -1.0109
10893TIP3    H254171   4.484   3.221  16.778  0.2882  1.1585 -0.3036
10894TIP3   OH254172   3.934   4.763  14.614  0.0813  0.0980 -0.5146
10894TIP3    H154173   3.857   4.791  14.565  0.5646 -0.2178 -1.4793
10894TIP3    H254174   3.974   4.696  14.559  0.0594 -1.0568  0.8059
10895TIP3   OH254175   1.876   0.018   1.016  0.1269 -0.0259  0.2229
10895TIP3    H154176   1.812  -0.040   1.058  1.4938 -1.7449  0.0870
10895TIP3    H254177   1.835   0.104   1.017 -1.2482 -0.6267  2.1398
10896TIP3   OH254178   1.689   3.084   6.087 -0.0084  0.4681 -0.6673
10896TIP3    H154179   1.608   3.048   6.124 -0.2693  0.9233 -0.7910
10896TIP3    H254180   1.759   3.038   6.134 -0.3082 -1.3572 -1.9318
10897TIP3   OH254181   3.830   6.361  12.055 -0.3533  0.6083  0.3953
10897TIP3    H154182   3.758   6.389  12.000 -0.3491  0.9684  0.5620
10897TIP3    H254183   3.810   6.398  12.141  1.1300  2.6965 -0.0591
10898TIP3   OH254184   6.479   0.338  16.466 -0.2957  0.1305  0.0645
10898TIP3    H154185   6.502   0.333  16.559 -0.0390 -0.5832 -0.0312
10898TIP3    H254186   6.397   0.288  16.460  0.6278 -1.4073 -0.3831
10899TIP3   OH254187   5.567   0.635   6.288  0.5427 -0.5001 -0.2920
10899TIP3    H154188   5.577   0.540   6.284  0.4798 -0.5113 -0.1943
10899TIP3    H254189   5.488   0.653   6.238 -1.1507 -0.7942  2.0917
10900TIP3   OH254190   4.914   6.431   1.200  0.8416 -0.1068 -0.4326
10900TIP3    H154191   4.985   6.446   1.138  1.2632 -1.3979 -0.3022
10900TIP3    H254192   4.853   6.375   1.153  1.3508 -1.4214  0.4062
10901TIP3   OH254193   0.840   2.841   3.511  0.1047  0.3659 -0.3212
10901TIP3    H154194   0.769   2.803   3.460  1.1848  0.5160 -2.0340
10901TIP3    H254195   0.915   2.839   3.452  0.8553  2.7535  0.4382
10902TIP3   OH254196   2.830   2.929   1.066 -0.3030  0.5417 -0.4323
10902TIP3    H154197   2.918   2.905   1.034  0.8686  2.5617  1.0196
10902TIP3    H254198   2.780   2.848   1.060  2.4570 -1.5069  1.2951
10903TIP3   OH254199   2.430   2.978  11.471  0.5001 -0.4553  0.2836
10903TIP3    H154200   2.414   2.955  11.380 -2.7366  0.2941  0.5232
10903TIP3    H254201   2.446   2.895  11.515 -0.3452 -1.1023 -0.5895
10904TIP3   OH254202   2.600   0.205  12.517  0.4847 -0.4039 -0.2300
10904TIP3    H154203   2.511   0.224  12.489  0.1016 -0.6954  0.7556
10904TIP3    H254204   2.642   0.165  12.440 -0.8730 -2.2519 -0.0691
10905TIP3   OH254205   4.213   5.559   3.945 -0.0585 -0.2045 -0.1896
10905TIP3    H154206   4.280   5.570   4.012 -1.8650 -0.5077  1.7847
10905TIP3    H254207   4.200   5.648   3.910  0.2146  0.1545  0.5966
10906TIP3   OH254208   5.330   2.104   1.199 -0.1195  0.4656  0.0377
10906TIP3    H154209   5.399   2.075   1.258  0.8643  1.9861 -0.2945
10906TIP3    H254210   5.272   2.029   1.190  1.8923 -1.1412 -0.2558
10907TIP3   OH254211   1.880   4.636  12.873 -0.5056  0.2821  0.3485
10907TIP3    H154212   1.968   4.639  12.911 -1.0084 -2.7453  2.0525
10907TIP3    H254213   1.888   4.684  12.791  2.5630  0.6803  0.7619
10908TIP3   OH254214   2.056   3.497  16.666 -0.2554  0.3552 -0.8187
10908TIP3    H154215   2.108   3.488  16.746  0.1521 -1.4878 -1.2312
10908TIP3    H254216   1.970   3.526  16.696  0.4264  1.5353  0.0794
10909TIP3   OH254217   0.754   0.986  16.800 -0.0976  0.5313 -0.5156
10909TIP3    H154218   0.677   1.043  16.806  1.1170  2.2029 -0.0481
10909TIP3    H254219   0.721   0.899  16.823 -1.9818  1.0494 -1.0431
10910TIP3   OH254220   3.663   4.186  11.022 -0.1888  0.0351  0.1838
10910TIP3    H154221   3.593   4.140  10.977  0.3778  0.4963 -1.2345
10910TIP3    H254222   3.689   4.127  11.093 -4.5776  1.4177  3.4121
10911TIP3   OH254223   6.287   1.601   2.574  0.1813  0.4788 -0.1631
10911TIP3    H154224   6.354   1.655   2.533  0.6239 -0.6736 -1.0236
10911TIP3    H254225   6.259   1.651   2.651  1.6239  1.2331 -0.0917
10912TIP3   OH254226   6.710   3.929  12.169 -0.7004 -0.2698 -0.4292
10912TIP3    H154227   6.770   3.982  12.116  0.3242 -1.0112 -0.0338
10912TIP3    H254228   6.759   3.908  12.248 -1.3691 -1.1475 -0.2319
10913TIP3   OH254229   6.116   4.802  15.821 -0.3576 -0.6335 -0.1185
10913TIP3    H154230   6.117   4.775  15.729 -0.1209 -1.2104  0.0460
10913TIP3    H254231   6.026   4.787  15.849 -0.7902  0.8691 -0.6240
10914TIP3   OH254232   1.323   6.530   0.242 -0.0667  0.6210  0.0783
10914TIP3    H154233   1.302   6.623   0.249  4.2769  1.7517  0.6597
10914TIP3    H254234   1.365   6.508   0.325  0.2249 -1.5511 -0.5592
10915TIP3   OH254235   1.256   0.074  16.668  0.1355 -0.3860  0.2604
10915TIP3    H154236   1.319   0.007  16.642 -1.7043 -1.3890 -1.9925
10915TIP3    H254237   1.201   0.031  16.734 -0.2733 -0.7230 -0.2835
10916TIP3   OH254238   6.332   6.367  15.308  0.1298  0.1117  0.4377
10916TIP3    H154239   6.410   6.334  15.353  0.7536  0.3202 -0.4725
10916TIP3    H254240   6.318   6.306  15.236  0.3550  0.9321 -0.3084
10917TIP3   OH254241   5.250   0.303  15.114 -0.5851 -0.9741 -0.6465
10917TIP3    H154242   5.162   0.304  15.075 -0.6760 -1.8989 -0.4819
10917TIP3    H254243   5.262   0.213  15.143  0.4287 -0.8535 -0.6718
10918TIP3   OH254244   3.689   3.456   0.586 -0.1390 -0.3000  0.4749
10918TIP3    H154245   3.722   3.397   0.518  1.7062 -0.5739  1.5317
10918TIP3    H254246   3.645   3.398   0.648 -2.5133  0.0357 -0.7987
10919TIP3   OH254247   0.048   4.058  11.207 -0.4378  0.3828 -0.4750
10919TIP3    H154248  -0.037   4.031  11.173 -0.8418 -0.8258  1.3195
10919TIP3    H254249   0.102   3.979  11.202 -0.1084  0.5413  0.3399
10920TIP3   OH254250   5.643   0.685  13.755  0.0159 -0.4445  0.2822
10920TIP3    H154251   5.561   0.725  13.785 -0.2168 -1.0978  0.5187
10920TIP3    H254252   5.615   0.607  13.708  0.3685  0.4570 -1.5304
10921TIP3   OH254253   0.346   4.550  14.160 -0.5219  0.3183 -0.1116
10921TIP3    H154254   0.304   4.635  14.148 -1.0389  0.0924  0.0687
10921TIP3    H254255   0.414   4.547  14.092  0.3835  1.4094  0.6975
10922TIP3   OH254256   1.924   2.861   2.454 -0.0417 -0.6565  0.7567
10922TIP3    H154257   1.954   2.919   2.384 -0.2945  0.0037  1.1841
10922TIP3    H254258   1.993   2.795   2.463  0.1266 -0.5771  0.0867
10923TIP3   OH254259   4.939   5.760  14.258 -0.2802 -0.4652 -0.1414
10923TIP3    H154260   5.023   5.749  14.303  0.1073  0.1318 -0.6955
10923TIP3    H254261   4.934   5.685  14.199 -1.0595 -1.5754  1.2579
10924TIP3   OH254262   1.546   4.597   0.232  0.2205 -0.2598 -0.1377
10924TIP3    H154263   1.596   4.574   0.154  0.1080 -0.6239 -0.1045
10924TIP3    H254264   1.455   4.603   0.200  0.1383 -0.6679  0.0151
10925TIP3   OH254265   5.916   4.991   0.496 -0.6158 -0.3727  0.0210
10925TIP3    H154266   5.896   4.986   0.590 -0.2847  0.6211  0.1552
10925TIP3    H254267   5.976   4.919   0.481 -0.6613 -0.5355  0.5816
10926TIP3   OH254268   0.109   6.155  12.195 -0.3566 -0.7921  0.4192
10926TIP3    H154269   0.116   6.170  12.101  1.4421 -0.9950  0.4953
10926TIP3    H254270   0.130   6.062  12.206  0.4414 -0.5342  1.1144
10927TIP3   OH254271   4.145   1.323  13.774  0.4338  0.0297  0.1862
10927TIP3    H154272   4.202   1.396  13.747  0.4509  0.4250  1.2672
10927TIP3    H254273   4.174   1.250  13.719  0.6397  0.7359 -0.6832
10928TIP3   OH254274   4.988   1.342   4.018 -0.2489  0.5867 -0.1119
10928TIP3    H154275   5.024   1.320   4.104 -0.8652 -0.6956 -0.1613
10928TIP3    H254276   5.031   1.282   3.957  0.5395  1.8028 -0.8017
10929TIP3   OH254277   4.849   3.579  15.855 -0.4235 -0.4278  0.4568
10929TIP3    H154278   4.930   3.617  15.888 -0.2587 -0.7031  0.3775
10929TIP3    H254279   4.803   3.652  15.812 -0.1910 -0.2851  0.4505
10930TIP3   OH254280   3.946   1.240   1.188 -0.1734 -0.7426 -0.4079
10930TIP3    H154281   4.042   1.239   1.181 -0.0053  0.2472  1.1272
10930TIP3    H254282   3.916   1.185   1.116  1.6026 -2.3617 -0.0123
10931TIP3   OH254283   4.510   6.809  13.888  0.3197 -0.4706 -0.3592
10931TIP3    H154284   4.482   6.881  13.944  0.2784 -1.9070  1.6082
10931TIP3    H254285   4.599   6.789  13.916  0.1915 -1.4277 -0.5779
10932TIP3   OH254286   5.752   5.806  11.774 -0.2615  0.0253  0.0818
10932TIP3    H154287   5.742   5.713  11.755 -2.9799 -0.9317  4.7204
10932TIP3    H254288   5.668   5.844  11.748  0.3733  1.0288 -0.6026
10933TIP3   OH254289   1.733   4.975  15.001  0.2336 -0.0296 -0.0097
10933TIP3    H154290   1.795   4.912  14.963  0.1970 -1.4179  2.1043
10933TIP3    H254291   1.647   4.941  14.978  0.2183 -0.4229  0.6336
10934TIP3   OH254292   3.211   5.692   5.199  0.1432 -0.2586 -0.6172
10934TIP3    H154293   3.189   5.785   5.192  1.2281  0.1062  0.4580
10934TIP3    H254294   3.290   5.682   5.146  1.4202 -0.0167  1.1377
10935TIP3   OH254295   1.667   4.845  17.089 -0.2250  0.3509  0.2621
10935TIP3    H154296   1.621   4.912  17.038 -0.5834 -0.7320 -0.8929
10935TIP3    H254297   1.749   4.831  17.041  1.2959  2.0509  2.1392
10936TIP3   OH254298   0.496   1.864  13.869 -0.1522 -0.2992 -0.1176
10936TIP3    H154299   0.563   1.799  13.845  0.7167  0.5106  0.0700
10936TIP3    H254300   0.428   1.812  13.912  0.1344 -1.2041 -0.7121
10937TIP3   OH254301   0.792   2.890  15.180 -0.4118 -0.5800  0.0096
10937TIP3    H154302   0.773   2.983  15.192 -0.8401 -0.3286 -2.2573
10937TIP3    H254303   0.884   2.887  15.155 -0.7746 -0.5852 -1.4076
10938TIP3   OH254304   4.407   4.467   6.295 -0.3323 -0.1391  0.6672
10938TIP3    H154305   4.425   4.377   6.265 -2.6290 -0.7299  0.9311
10938TIP3    H254306   4.492   4.498   6.327  0.3776 -2.4809  1.2644
10939TIP3   OH254307   1.449   5.822  14.873 -0.2094  0.4100  0.1631
10939TIP3    H154308   1.374   5.803  14.929 -0.1056  0.3900  0.2956
10939TIP3    H254309   1.523   5.832  14.933 -0.4035  2.0569  0.1758
10940TIP3   OH254310   3.220   2.842  12.123 -0.3147 -0.2168 -0.5157
10940TIP3    H154311   3.278   2.772  12.153  0.4613  1.0120  0.9673
10940TIP3    H254312   3.229   2.841  12.027  0.5825 -1.3709 -0.4365
10941TIP3   OH254313   5.259   1.270   4.256  0.1145 -0.5376 -0.7434
10941TIP3    H154314   5.315   1.346   4.269 -1.6241  0.9853 -1.6735
10941TIP3    H254315   5.292   1.205   4.319  0.1849  1.8064  1.8432
10942TIP3   OH254316   0.509   5.353  14.221  0.3714  0.3342 -0.3683
10942TIP3    H154317   0.592   5.306  14.210 -0.8533 -1.4055 -3.0594
10942TIP3    H254318   0.443   5.293  14.190 -1.9147  1.9273  1.1005
10943TIP3   OH254319   6.086   6.562  12.493  0.3077  0.0828 -0.1725
10943TIP3    H154320   6.139   6.625  12.543  0.6085  0.2898 -0.7421
10943TIP3    H254321   6.149   6.497  12.462 -0.3226 -2.0123  2.5635
10944TIP3   OH254322   3.163   5.627   0.397  0.7067 -0.2468 -0.0958
10944TIP3    H154323   3.070   5.638   0.379  0.7223 -0.5530 -0.3946
10944TIP3    H254324   3.171   5.634   0.492  0.2457 -1.1001  0.0206
10945TIP3   OH254325   4.292   6.016   2.112 -0.0038  0.2896 -0.0400
10945TIP3    H154326   4.361   6.024   2.177 -0.8214  0.6127  0.8159
10945TIP3    H254327   4.316   5.940   2.060  0.8090  0.1931  0.4638
10946TIP3   OH254328   5.680   0.636   3.627  0.3514 -1.0499  0.5710
10946TIP3    H154329   5.762   0.679   3.602 -0.0286 -0.5159  0.2141
10946TIP3    H254330   5.707   0.564   3.684  0.9572  0.0012  1.6581
10947TIP3   OH254331   0.567   6.293   1.931 -0.0793  0.1313  0.4156
10947TIP3    H154332   0.564   6.389   1.932 -0.0254  0.1512 -0.3753
10947TIP3    H254333   0.611   6.272   1.849  0.7756 -0.5604  1.0396
10948TIP3   OH254334   6.729   3.390  14.877 -0.1716  0.0075 -0.0511
10948TIP3    H154335   6.814   3.346  14.873 -0.8787 -1.2784 -1.7073
10948TIP3    H254336   6.674   3.333  14.931 -0.3018  0.2934  0.1232
10949TIP3   OH254337   6.282   5.857  14.613 -0.0845 -0.5971 -0.2205
10949TIP3    H154338   6.239   5.838  14.696 -1.8726  0.7442 -0.7687
10949TIP3    H254339   6.370   5.821  14.622 -1.0275 -2.7081  1.2864
10950TIP3   OH254340   2.176   4.382  15.319  0.1076  0.2487  0.3144
10950TIP3    H154341   2.134   4.315  15.373  1.5668  0.3583  1.6397
10950TIP3    H254342   2.241   4.333  15.267  0.6458  0.5140  0.7278
10951TIP3   OH254343   0.748   5.013  16.878 -0.1277  0.5799  0.7555
10951TIP3    H154344   0.798   5.058  16.947 -0.6776 -1.9574  2.9978
10951TIP3    H254345   0.813   4.987  16.814  0.6895  1.5212  1.1749
10952TIP3   OH254346   4.674   4.813  15.779  0.1227 -0.0910  0.1942
10952TIP3    H154347   4.701   4.752  15.711 -2.1854 -1.1364  0.1053
10952TIP3    H254348   4.740   4.882  15.777  1.1665 -1.0530 -1.7984
10953TIP3   OH254349   4.714   1.949  14.213  0.2862 -0.5201 -0.1903
10953TIP3    H154350   4.672   1.905  14.140  0.3509 -1.0170  0.0650
10953TIP3    H254351   4.649   2.011  14.244  0.4479  0.0551 -0.9855
10954TIP3   OH254352   2.304   5.374   5.098 -0.6834 -0.1966 -0.0253
10954TIP3    H154353   2.218   5.360   5.059  0.2097 -0.0588 -2.1619
10954TIP3    H254354   2.289   5.437   5.168 -2.1875  0.5015 -0.9435
10955TIP3   OH254355   3.893   3.751   2.963  0.8772 -0.0628  0.6430
10955TIP3    H154356   3.909   3.771   2.871  0.2338 -1.4901  0.1951
10955TIP3    H254357   3.938   3.668   2.978  0.2226 -0.3041  1.3634
10956TIP3   OH254358   5.332   4.893   1.801  0.5347 -0.6495  0.1796
10956TIP3    H154359   5.327   4.821   1.738  0.9464 -0.1576 -0.4351
10956TIP3    H254360   5.278   4.866   1.874 -0.5230 -0.9342 -0.6910
10957TIP3   OH254361   3.127   1.910  13.254 -0.0130 -0.0664 -0.0761
10957TIP3    H154362   3.151   1.846  13.186 -1.6249 -1.1033  0.2798
10957TIP3    H254363   3.211   1.946  13.283  0.8603 -1.1506 -1.1406
10958TIP3   OH254364   6.548   3.798   4.084 -0.3307  0.2321  0.5063
10958TIP3    H154365   6.609   3.820   4.014 -0.5600 -0.1864  0.1761
10958TIP3    H254366   6.484   3.869   4.084  0.8413  1.3436  1.6743
10959TIP3   OH254367   1.069   2.493  11.024  0.3648 -0.3991 -0.3504
10959TIP3    H154368   1.089   2.537  10.941 -0.4812 -2.2183 -1.5802
10959TIP3    H254369   1.015   2.418  10.999  2.8058 -2.9622  1.4525
10960TIP3   OH254370   0.076   6.383   0.009  0.2509 -0.1083 -0.0309
10960TIP3    H154371  -0.006   6.349  -0.025  0.2602 -0.0450 -0.1156
10960TIP3    H254372   0.102   6.320   0.076  0.2560 -0.2557 -0.1709
10961TIP3   OH254373   6.075   6.653  14.485 -0.3703  0.4538  0.0441
10961TIP3    H154374   6.024   6.726  14.521 -1.3119  0.4805 -1.2546
10961TIP3    H254375   6.025   6.575  14.510 -0.4277  0.3983 -0.2395
10962TIP3   OH254376   2.300   0.227  15.606 -0.6384 -0.1409 -0.2424
10962TIP3    H154377   2.389   0.192  15.612 -0.6514 -0.1440 -0.0706
10962TIP3    H254378   2.307   0.316  15.640 -0.6272 -0.0102 -0.5772
10963TIP3   OH254379   2.780   2.024  13.537 -0.2249 -0.4839 -0.0010
10963TIP3    H154380   2.730   1.953  13.497 -1.0229 -1.2876  2.2578
10963TIP3    H254381   2.728   2.049  13.614  0.0961  2.4853 -0.6330
10964TIP3   OH254382   0.081   4.386  16.487 -0.0808 -1.2166 -0.4671
10964TIP3    H154383   0.138   4.416  16.417 -0.5962 -0.8167 -0.7170
10964TIP3    H254384   0.063   4.465  16.539  0.5143 -1.5589  0.2686
10965TIP3   OH254385   3.236   6.196  15.213 -0.5741  0.6054  0.2202
10965TIP3    H154386   3.297   6.152  15.154 -1.0118 -0.1881  0.3516
10965TIP3    H254387   3.262   6.288  15.209  1.0170  0.2056  0.7304
10966TIP3   OH254388   3.155   1.539   5.646 -0.2644 -0.3411  0.1880
10966TIP3    H154389   3.210   1.462   5.660 -2.4995 -2.0052  0.5085
10966TIP3    H254390   3.192   1.607   5.702  1.9411 -1.0622 -0.3154
10967TIP3   OH254391   3.490   3.138   4.314 -1.0953 -0.0426  0.1771
10967TIP3    H154392   3.538   3.103   4.238 -1.8237  0.2433 -0.4262
10967TIP3    H254393   3.488   3.065   4.376  2.9176  0.8255  1.6557
10968TIP3   OH254394   5.638   5.883   3.282  0.1691 -0.0789  0.3873
10968TIP3    H154395   5.590   5.804   3.307  1.0900 -0.4579  1.0234
10968TIP3    H254396   5.726   5.852   3.262 -0.4794  0.1346 -3.6955
10969TIP3   OH254397   4.061   2.919  16.920  0.4754  1.0289  1.0015
10969TIP3    H154398   4.018   2.990  16.871 -1.3047  0.0963  1.1512
10969TIP3    H254399   4.042   2.939  17.012  0.9497  0.9613  1.1171
10970TIP3   OH254400   0.011   2.284  13.412 -0.3421 -0.1423  0.2639
10970TIP3    H154401   0.054   2.363  13.378  0.9617 -0.3156  1.4438
10970TIP3    H254402   0.072   2.249  13.476 -2.0170 -0.6930  1.6444
10971TIP3   OH254403   3.970   0.862   4.582 -0.1665 -0.2836  0.2896
10971TIP3    H154404   3.988   0.939   4.635 -3.0957  0.8930 -0.2406
10971TIP3    H254405   4.034   0.866   4.511  1.2785  0.2708  1.5735
10972TIP3   OH254406   6.482   0.907   2.236  0.4244  0.7757  0.4327
10972TIP3    H154407   6.522   0.886   2.152  0.8885 -0.5688  0.9676
10972TIP3    H254408   6.539   0.974   2.274  1.7948 -0.5480  0.8347
10973TIP3   OH254409   6.410   1.255   1.549  0.0295 -0.1886 -0.0264
10973TIP3    H154410   6.458   1.336   1.563  0.6863 -0.7381  1.0329
10973TIP3    H254411   6.367   1.266   1.463  1.6744  0.4939 -0.7965
10974TIP3   OH254412   3.833   5.676  16.230  0.1896 -0.2291 -0.0470
10974TIP3    H154413   3.897   5.620  16.274 -0.1758 -1.4814 -1.0565
10974TIP3    H254414   3.799   5.732  16.300 -0.7790 -2.5175  1.4470
10975TIP3   OH254415   3.550   1.963  14.942  0.1027 -0.6351 -0.2685
10975TIP3    H154416   3.455   1.969  14.949  0.1660 -0.2382  0.4339
10975TIP3    H254417   3.577   2.049  14.908  0.2047 -0.7593 -0.5021
10976TIP3   OH254418   0.693   6.052  12.159 -0.1829  0.5278 -0.3746
10976TIP3    H154419   0.693   6.106  12.080  0.4961 -2.2321 -2.4161
10976TIP3    H254420   0.644   6.103  12.224  0.2731  3.4415 -2.1506
10977TIP3   OH254421   3.661   6.033  13.478  0.0384 -0.5706 -0.6327
10977TIP3    H154422   3.690   5.950  13.440  1.6914  0.1438 -1.0222
10977TIP3    H254423   3.736   6.092  13.467 -1.0163  0.9166 -0.1716
10978TIP3   OH254424   4.380   3.294  15.769  0.5155  0.3289 -1.0268
10978TIP3    H154425   4.437   3.225  15.802  2.0004  1.5271 -0.9837
10978TIP3    H254426   4.430   3.375  15.781 -1.9977  1.7391  0.9795
10979TIP3   OH254427   0.735   3.859   6.090  0.2527 -0.3169 -0.1442
10979TIP3    H154428   0.771   3.943   6.120 -0.2012 -0.1987  0.0811
10979TIP3    H254429   0.640   3.868   6.102  0.0804 -0.3939 -1.2939
10980TIP3   OH254430   3.643   4.727   2.717 -0.1934  0.8498 -0.3149
10980TIP3    H154431   3.635   4.700   2.808 -0.6740  1.8595 -0.0405
10980TIP3    H254432   3.713   4.793   2.718 -0.8339  1.5425 -0.5083
10981TIP3   OH254433   5.095   0.169   4.573  0.3795 -0.0815 -0.0958
10981TIP3    H154434   5.069   0.086   4.612  1.9419 -0.3933  0.3090
10981TIP3    H254435   5.148   0.145   4.497  0.9921  0.5504  0.1224
10982TIP3   OH254436   1.700   0.208   3.055  0.5494 -0.4409 -0.1128
10982TIP3    H154437   1.629   0.241   3.000  0.1884 -0.4672  0.3333
10982TIP3    H254438   1.671   0.121   3.083  1.5898 -1.2599 -1.4546
10983TIP3   OH254439   6.189   1.923  13.631 -0.2110 -0.0362  0.6739
10983TIP3    H154440   6.101   1.891  13.647 -0.4117  0.7754  1.2360
10983TIP3    H254441   6.181   2.019  13.635  0.8106  0.0328  1.3633
10984TIP3   OH254442   1.545   5.257  16.569  0.5342 -0.3486 -0.0422
10984TIP3    H154443   1.560   5.163  16.557  1.8227 -0.4995  2.1993
10984TIP3    H254444   1.623   5.299  16.533 -0.4745 -0.0074 -1.9516
10985TIP3   OH254445   4.757   6.148   0.817 -0.4848  0.3287  0.1526
10985TIP3    H154446   4.830   6.173   0.760  0.1043 -0.9075  0.3288
10985TIP3    H254447   4.784   6.065   0.855 -0.9723  1.0216  2.0995
10986TIP3   OH254448   2.425   1.104  15.999 -0.3101 -0.3666 -0.2050
10986TIP3    H154449   2.348   1.100  16.056  1.4302 -0.4072  2.2802
10986TIP3    H254450   2.449   1.012  15.986  0.2801 -0.3115  0.4454
10987TIP3   OH254451   3.007   4.342  15.739 -1.0341 -0.0297 -0.4578
10987TIP3    H154452   2.930   4.372  15.690 -0.3493  0.3167 -1.3645
10987TIP3    H254453   2.981   4.259  15.777 -2.2256  0.6143  0.1927
10988TIP3   OH254454   3.253   0.600   4.951  0.5534  0.0626  0.7296
10988TIP3    H154455   3.251   0.648   4.869 -1.3679 -2.0500 -0.5678
10988TIP3    H254456   3.239   0.666   5.018  1.8066  1.7766 -0.6111
10989TIP3   OH254457   0.436   5.198  11.612  0.0387 -0.4500  0.8038
10989TIP3    H154458   0.420   5.104  11.605 -0.5193 -0.2936 -0.2128
10989TIP3    H254459   0.500   5.217  11.543 -1.7684  0.3092 -0.7768
10990TIP3   OH254460   4.557   5.028   4.013  0.5440  0.2513  0.4252
10990TIP3    H154461   4.605   5.064   3.938 -0.4346  1.2953  0.2655
10990TIP3    H254462   4.587   5.082   4.087  0.8193 -0.1715  0.6246
10991TIP3   OH254463   3.627   5.183   3.836  0.5724  0.4602  0.7541
10991TIP3    H154464   3.675   5.127   3.897  1.8026  1.0197  0.3526
10991TIP3    H254465   3.551   5.132   3.810  1.2052 -0.6712  1.0668
10992TIP3   OH254466   4.358   2.759  11.947  0.8352 -0.0996 -0.8154
10992TIP3    H154467   4.427   2.825  11.944  2.0578 -1.2905  0.0467
10992TIP3    H254468   4.382   2.695  11.880  2.3089 -2.0786  1.4232
10993TIP3   OH254469   2.354   3.928   0.872  0.2388 -0.1373 -0.4235
10993TIP3    H154470   2.433   3.981   0.861  1.2528 -1.4058  0.4287
10993TIP3    H254471   2.282   3.990   0.860  1.3503  1.1225 -0.8978
10994TIP3   OH254472   4.049   6.558  12.642  0.4177  0.2430 -0.0670
10994TIP3    H154473   4.019   6.486  12.697  0.2805  1.2119  1.1470
10994TIP3    H254474   4.111   6.517  12.581  0.4844 -0.8590  0.7151
10995TIP3   OH254475   0.959   1.683  13.913 -0.1734 -0.3287  0.3345
10995TIP3    H154476   0.979   1.764  13.959 -0.4945 -0.0399 -0.0212
10995TIP3    H254477   0.863   1.676  13.917 -0.1689 -0.5379  0.1180
10996TIP3   OH254478   3.657   3.057   3.531  0.1103 -0.4541  0.2981
10996TIP3    H154479   3.706   3.047   3.449 -0.3460  0.4180 -0.0869
10996TIP3    H254480   3.724   3.064   3.599  0.4917 -1.8401  0.0946
10997TIP3   OH254481   4.578   5.782   2.835 -0.3405  0.9517 -0.6577
10997TIP3    H154482   4.641   5.837   2.788 -0.2979  0.7129 -0.8823
10997TIP3    H254483   4.632   5.717   2.880 -0.4282  0.6363 -0.9927
10998TIP3   OH254484   1.054   1.956  13.650  0.4726 -0.2915  0.1591
10998TIP3    H154485   0.986   1.920  13.706  0.2905 -0.0180  0.1134
10998TIP3    H254486   1.136   1.917  13.683  0.2861 -0.6963  0.1508
10999TIP3   OH254487   0.262   5.462   2.748  0.0959 -0.3716 -0.3071
10999TIP3    H154488   0.270   5.366   2.744 -0.6150 -0.4855  0.6144
10999TIP3    H254489   0.327   5.494   2.685  0.3972 -1.4568 -0.5743
11000TIP3   OH254490   4.327   1.912   3.017 -0.7249  0.5251  0.0010
11000TIP3    H154491   4.347   1.818   3.017 -1.2121  0.4157 -0.6884
11000TIP3    H254492   4.360   1.943   3.101 -0.6655 -0.2868  0.2891
11001TIP3   OH254493   6.284   1.567   2.891 -0.2772  0.7201  0.2284
11001TIP3    H154494   6.240   1.483   2.881  2.7550 -1.1306  0.8920
11001TIP3    H254495   6.306   1.571   2.984 -0.4253  2.3012  0.2090
11002TIP3   OH254496   3.100   5.421  13.675  0.1124 -0.7471 -0.0269
11002TIP3    H154497   3.005   5.410  13.663 -0.2690  1.3487  0.7676
11002TIP3    H254498   3.128   5.474  13.601  0.9753 -2.4545 -1.0035
11003TIP3   OH254499   3.802   4.972   1.148  0.2908  0.4720  0.1355
11003TIP3    H154500   3.825   4.955   1.239  0.5537  0.2515  0.0288
11003TIP3    H254501   3.707   4.987   1.150  0.0224 -1.0202  0.2383
11004TIP3   OH254502   4.168   2.120   3.540  0.1243  0.1823  0.3942
11004TIP3    H154503   4.078   2.144   3.519  0.4767  1.1529 -0.1114
11004TIP3    H254504   4.175   2.028   3.517 -0.1343  0.6496 -1.8129
11005TIP3   OH254505   3.692   6.396   6.094  0.2120  0.2249  0.1554
11005TIP3    H154506   3.652   6.396   6.181 -0.2156 -0.0307 -0.0375
11005TIP3    H254507   3.658   6.318   6.052 -0.3680  0.8629 -0.5942
11006TIP3   OH254508   5.575   4.144   3.835 -0.1363 -1.1027  0.7333
11006TIP3    H154509   5.609   4.166   3.922 -0.8736 -1.7562  1.1942
11006TIP3    H254510   5.600   4.052   3.822  1.6222 -0.5033 -0.5572
11007TIP3   OH254511   3.702   6.053  13.104 -0.7379  0.5106  0.1053
11007TIP3    H154512   3.742   6.010  13.028 -1.5070  0.7694 -0.4534
11007TIP3    H254513   3.609   6.037  13.095 -1.2083  3.2436 -0.7687
11008TIP3   OH254514   4.293   5.468  12.564 -0.6221  0.2747 -0.2495
11008TIP3    H154515   4.269   5.543  12.619  0.2975  0.6387 -0.3229
11008TIP3    H254516   4.249   5.393  12.604 -1.3134  0.8106 -0.0050
11009TIP3   OH254517   1.853   5.217   2.489  0.3230  0.0088 -0.1156
11009TIP3    H154518   1.879   5.308   2.505 -1.5368  0.7685 -1.0733
11009TIP3    H254519   1.926   5.165   2.521  1.0090  1.7935  1.4121
11010TIP3   OH254520   2.294   1.172   3.015  0.6956 -0.0725  0.3313
11010TIP3    H154521   2.218   1.222   2.987  0.3836 -0.4488  0.5024
11010TIP3    H254522   2.317   1.119   2.940  0.9447  0.2220  0.1954
11011TIP3   OH254523   5.098   0.243  13.230 -0.5079 -0.2629  0.6572
11011TIP3    H154524   5.098   0.337  13.250 -0.3147 -0.0857 -0.1682
11011TIP3    H254525   5.188   0.215  13.243  0.0920  0.2790 -1.8493
11012TIP3   OH254526   1.178   3.007   4.358  0.1120 -0.5443  0.0074
11012TIP3    H154527   1.180   3.073   4.289  0.6765 -0.0908  0.4499
11012TIP3    H254528   1.157   3.055   4.438  2.2243 -0.5804  0.6412
11013TIP3   OH254529   3.160   3.791   2.555 -1.0119 -0.0646 -0.3247
11013TIP3    H154530   3.144   3.885   2.547  0.7536  0.2292 -1.1316
11013TIP3    H254531   3.158   3.760   2.464  1.5500 -0.1508 -0.4310
11014TIP3   OH254532   3.136   5.270  12.331  0.5381  0.3028  0.4419
11014TIP3    H154533   3.172   5.336  12.391 -2.1881  2.2302  0.1408
11014TIP3    H254534   3.082   5.215  12.387 -0.7764  1.1562  0.0506
11015TIP3   OH254535   3.594   4.632  16.179 -0.3892 -0.2583  0.2862
11015TIP3    H154536   3.539   4.679  16.116  0.0505  1.0640  0.8507
11015TIP3    H254537   3.670   4.604  16.129 -0.1639  0.5604  0.1622
11016TIP3   OH254538   5.921   6.177   2.206  0.3152 -0.5695 -0.0103
11016TIP3    H154539   5.901   6.220   2.289  0.5253  0.0809 -0.2909
11016TIP3    H254540   5.836   6.164   2.165  0.2292 -0.6766  0.2005
11017TIP3   OH254541   2.887   1.038   2.228 -0.0873  0.3509 -0.3360
11017TIP3    H154542   2.848   1.122   2.205 -1.1622 -0.1262 -0.3100
11017TIP3    H254543   2.813   0.977   2.230  0.7036 -0.6331 -0.5372
11018TIP3   OH254544   3.904   5.291  12.667  0.2461  0.6424 -0.6361
11018TIP3    H154545   3.873   5.247  12.587  0.4344 -2.5256  0.8939
11018TIP3    H254546   3.988   5.249  12.686  0.0389  1.0766  1.3963
11019TIP3   OH254547   5.364   5.113   3.891 -0.1917 -0.3569  0.1334
11019TIP3    H154548   5.419   5.066   3.828  0.0968 -1.8531  1.4197
11019TIP3    H254549   5.419   5.184   3.923  0.4138 -0.8458  0.1949
11020TIP3   OH254550   1.902   0.520   5.826 -0.4259  0.0998 -0.0789
11020TIP3    H154551   1.822   0.468   5.830  0.0070 -0.4905  1.1027
11020TIP3    H254552   1.931   0.527   5.917  2.9098 -2.9076 -0.6999
11021TIP3   OH254553   6.202   5.634  11.128 -0.4703  0.2880  0.3694
11021TIP3    H154554   6.194   5.729  11.141  1.9167  0.3497  1.9518
11021TIP3    H254555   6.290   5.622  11.093 -1.1788 -1.3016 -1.0055
11022TIP3   OH254556   6.551   2.542  14.906 -0.3158  0.4101 -0.0404
11022TIP3    H154557   6.629   2.548  14.961 -0.3859 -0.1193  0.1170
11022TIP3    H254558   6.582   2.502  14.825 -0.3700  0.4642 -0.0881
11023TIP3   OH254559   1.270   1.277   5.465  0.3719 -0.1724  0.4143
11023TIP3    H154560   1.222   1.329   5.400  0.4580 -0.8487 -0.1945
11023TIP3    H254561   1.339   1.234   5.415 -1.3140 -3.0074  0.3434
11024TIP3   OH254562   4.830   6.503  13.510 -0.9883  0.4879  0.2815
11024TIP3    H154563   4.783   6.470  13.587  0.0094  0.0816  0.7291
11024TIP3    H254564   4.823   6.432  13.446 -0.1318  0.0030  0.7104
11025TIP3   OH254565   0.657   2.271  13.791 -0.1927 -0.2556 -0.2741
11025TIP3    H154566   0.713   2.345  13.812  0.1630 -0.2385 -1.2570
11025TIP3    H254567   0.683   2.203  13.853 -0.6022  0.4609  0.7107
11026TIP3   OH254568   4.214   0.844  12.648  0.2809  0.2326  0.4137
11026TIP3    H154569   4.248   0.903  12.582 -0.0071  0.2260  0.2560
11026TIP3    H254570   4.160   0.899  12.705 -0.4660  0.0253 -0.0768
11027TIP3   OH254571   0.443   0.348  15.367  0.5258  0.1192 -0.4912
11027TIP3    H154572   0.524   0.356  15.416  0.6145  0.1509 -0.6417
11027TIP3    H254573   0.385   0.413  15.405  0.1683 -0.6922  0.3992
11028TIP3   OH254574   6.652   5.719   1.419 -0.2472  0.2197  0.0693
11028TIP3    H154575   6.677   5.812   1.416  1.1207  0.0335  2.8906
11028TIP3    H254576   6.720   5.675   1.367  0.9266  0.5212  1.3033
11029TIP3   OH254577   1.654   1.383   1.376  0.2182  0.4072  0.7513
11029TIP3    H154578   1.649   1.451   1.442 -2.0792 -0.2753  1.3629
11029TIP3    H254579   1.747   1.358   1.374  0.9947  2.9970  0.9964
11030TIP3   OH254580   4.750   3.926  12.768 -0.3398 -0.0652 -1.2943
11030TIP3    H154581   4.837   3.948  12.733  0.4316  2.8069  1.8573
11030TIP3    H254582   4.692   3.994  12.732 -0.3119  0.6571 -0.0145
11031TIP3   OH254583   3.957   6.295  15.510 -0.2375  0.1778 -0.0725
11031TIP3    H154584   4.035   6.271  15.559  0.8284  0.0825 -1.7425
11031TIP3    H254585   3.987   6.307  15.420 -1.9580  1.1514 -0.5812
11032TIP3   OH254586   1.180   6.031  12.677  0.4525 -0.2641 -0.3595
11032TIP3    H154587   1.084   6.029  12.667  0.2935  0.2633  0.7964
11032TIP3    H254588   1.209   5.943  12.655 -0.5131 -0.9653  1.0421
11033TIP3   OH254589   6.294   6.180   4.667  0.7034  0.1165  0.0195
11033TIP3    H154590   6.387   6.188   4.691  0.6307  3.4957 -0.3286
11033TIP3    H254591   6.280   6.247   4.601 -2.3342  0.8089  1.1941
11034TIP3   OH254592   0.790   2.613   0.479 -0.0898  0.2306  0.3345
11034TIP3    H154593   0.701   2.642   0.459 -1.0912 -2.3483  0.7431
11034TIP3    H254594   0.844   2.657   0.413 -1.8520  0.6962 -0.8789
11035TIP3   OH254595   2.257   6.758  13.018 -0.1575  0.7048 -0.2355
11035TIP3    H154596   2.349   6.739  13.034 -0.5475 -0.0809  1.2762
11035TIP3    H254597   2.258   6.835  12.961  1.4243  0.6781 -0.2922
11036TIP3   OH254598   4.452   1.279  10.932  0.1928 -0.1268  0.3642
11036TIP3    H154599   4.367   1.284  10.976 -0.0752  0.1986 -0.1784
11036TIP3    H254600   4.462   1.364  10.889  0.1777 -0.6365 -0.6846
11037TIP3   OH254601   5.334   3.892  10.492 -0.2819 -0.4701  0.3162
11037TIP3    H154602   5.367   3.928  10.574  0.0422  0.4930 -0.2248
11037TIP3    H254603   5.304   3.968  10.443  2.7752 -0.5488 -1.9498
11038TIP3   OH254604   2.245   3.185   0.742  0.1697 -0.2507 -0.3072
11038TIP3    H154605   2.306   3.202   0.814  0.9645 -0.4618 -0.9159
11038TIP3    H254606   2.206   3.269   0.722 -1.4280 -0.4908  1.5682
11039TIP3   OH254607   0.465   3.421  15.335 -0.5585  0.2316  0.2988
11039TIP3    H154608   0.385   3.415  15.283 -1.1289  2.2927  0.8420
11039TIP3    H254609   0.443   3.378  15.417 -0.7000 -0.2768 -0.0013
11040TIP3   OH254610   4.084   6.455   6.073  0.7608 -0.5006 -0.1182
11040TIP3    H154611   4.012   6.518   6.081  1.6393  0.7056 -1.1918
11040TIP3    H254612   4.043   6.373   6.047 -0.2455  0.1037 -0.4713
11041TIP3   OH254613   6.621   0.350  15.492  0.2115  0.3940  0.2769
11041TIP3    H154614   6.536   0.314  15.517  0.3193 -0.2891 -0.3128
11041TIP3    H254615   6.606   0.392  15.408  0.8335 -1.3456 -0.7501
11042TIP3   OH254616   1.336   1.296  13.186 -0.2543 -0.0610  0.4685
11042TIP3    H154617   1.321   1.217  13.134 -1.6491  0.4910  0.0008
11042TIP3    H254618   1.311   1.271  13.275  0.1225 -0.3882  0.4841
11043TIP3   OH254619   2.975   6.233   1.326 -0.4089 -0.1730 -0.2133
11043TIP3    H154620   3.056   6.246   1.278 -0.0851 -0.2487  0.3062
11043TIP3    H254621   2.914   6.297   1.289  0.2396  0.6921  0.1905
11044TIP3   OH254622   6.182   6.122   1.815 -0.1943 -0.0849  0.5389
11044TIP3    H154623   6.124   6.070   1.872  2.7919 -2.0715  2.0377
11044TIP3    H254624   6.212   6.194   1.871  1.9188 -1.4453  1.2979
11045TIP3   OH254625   0.271   4.419  15.948  0.1791  0.1017  0.4400
11045TIP3    H154626   0.298   4.364  15.875 -1.0680  2.3786 -1.8908
11045TIP3    H254627   0.211   4.365  15.999 -0.1742 -1.0460 -1.1419
11046TIP3   OH254628   2.053   0.220  10.880 -0.0677 -0.6525  0.4676
11046TIP3    H154629   2.046   0.189  10.970  0.4600 -1.0989  0.3636
11046TIP3    H254630   1.984   0.173  10.833 -0.7410  0.0413  0.7550
11047TIP3   OH254631   3.464   5.022  13.899 -0.5289 -0.2552 -0.1686
11047TIP3    H154632   3.489   4.946  13.952  0.5609  0.4249  0.3232
11047TIP3    H254633   3.514   5.094  13.936 -2.2253  0.9084 -0.0475
11048TIP3   OH254634   5.838   5.357   0.628 -0.0074  0.0597  0.0997
11048TIP3    H154635   5.923   5.400   0.619 -0.7263  1.3225 -1.1829
11048TIP3    H254636   5.820   5.323   0.540 -1.2288  0.6321  0.1181
11049TIP3   OH254637   3.886   1.299  12.534  0.0898  0.1214  0.2879
11049TIP3    H154638   3.939   1.230  12.495  0.4464 -0.4334  1.6631
11049TIP3    H254639   3.801   1.257  12.551 -0.0992  0.3871  0.0019
11050TIP3   OH254640   3.151   1.052  15.064  0.2040 -0.1933  0.1416
11050TIP3    H154641   3.091   0.996  15.015  0.8343 -0.4221 -0.3851
11050TIP3    H254642   3.227   1.062  15.006  0.6851  0.0653  0.8060
11051TIP3   OH254643   3.956   4.452  14.409  0.1924  0.4987  0.3367
11051TIP3    H154644   3.900   4.459  14.332  0.0601  1.9103  0.5259
11051TIP3    H254645   3.895   4.447  14.483  0.3200 -0.0082  0.4115
11052TIP3   OH254646   3.478   0.210  12.511  0.2485  0.4499 -0.8826
11052TIP3    H154647   3.395   0.235  12.552  0.3727  0.9859 -0.9607
11052TIP3    H254648   3.475   0.249  12.424 -0.0439 -0.7394 -1.4283
11053TIP3   OH254649   2.626   2.836   3.749 -0.3337  0.0120  0.2326
11053TIP3    H154650   2.575   2.915   3.765 -0.5646 -0.4190  1.8765
11053TIP3    H254651   2.561   2.772   3.719 -0.1137  0.4679 -1.2975
11054TIP3   OH254652   3.120   2.362  16.234  0.3822  0.6818  0.5252
11054TIP3    H154653   3.113   2.381  16.140  1.0177 -0.5147  0.2180
11054TIP3    H254654   3.061   2.425  16.276 -0.3711  0.8318 -0.7200
11055TIP3   OH254655   0.879   2.962   0.507  0.1726 -0.2432  0.1391
11055TIP3    H154656   0.784   2.968   0.496  0.2685  1.1015 -0.1397
11055TIP3    H254657   0.906   2.897   0.442 -0.3046  1.0941 -1.4835
11056TIP3   OH254658   4.499   2.025   2.734 -0.2142 -0.0599 -0.5141
11056TIP3    H154659   4.523   2.036   2.642 -0.4183  0.8866 -0.4689
11056TIP3    H254660   4.412   1.985   2.731  0.9961 -2.9016 -0.6819
11057TIP3   OH254661   6.415   2.674  11.967  0.0939 -0.0064 -0.0501
11057TIP3    H154662   6.342   2.613  11.958 -0.6073  0.8941 -0.6986
11057TIP3    H254663   6.440   2.694  11.877  1.7695 -0.9952  0.1497
11058TIP3   OH254664   6.035   3.373  15.986  0.3174  0.5677  0.5430
11058TIP3    H154665   5.989   3.289  15.989  1.6542 -0.2232 -0.0578
11058TIP3    H254666   6.018   3.412  16.072 -0.9254  0.0215  0.5646
11059TIP3   OH254667   0.559   4.120   0.831  0.0098 -0.4318  0.5681
11059TIP3    H154668   0.544   4.061   0.905  0.0135 -0.2945  0.6792
11059TIP3    H254669   0.550   4.065   0.753  0.1559 -0.6096  0.6766
11060TIP3   OH254670   5.841   4.538  11.782  0.1393 -0.4617 -0.4465
11060TIP3    H154671   5.806   4.464  11.831  0.8623 -1.0387 -0.7805
11060TIP3    H254672   5.935   4.520  11.774  0.2247  0.1798 -1.0570
11061TIP3   OH254673   0.677   0.452  15.196  0.2895 -0.0209 -0.4301
11061TIP3    H154674   0.607   0.417  15.251  0.0296 -0.5273 -1.0692
11061TIP3    H254675   0.707   0.378  15.145  2.3127 -0.1369  0.8524
11062TIP3   OH254676   0.906   1.113  16.581 -0.3069 -0.4882 -0.0588
11062TIP3    H154677   0.983   1.094  16.527 -1.0267 -1.1475 -0.8617
11062TIP3    H254678   0.879   1.028  16.615  0.7492  0.0020  2.2560
11063TIP3   OH254679   1.271   2.541  14.884  0.6752  0.0481  0.4649
11063TIP3    H154680   1.315   2.601  14.945  3.2224 -0.2421 -0.9300
11063TIP3    H254681   1.261   2.592  14.804  1.1959 -0.7904 -0.1555
11064TIP3   OH254682   3.298   0.529  16.321 -0.1785 -0.2329 -0.1865
11064TIP3    H154683   3.389   0.502  16.333 -0.1933  0.4565  1.8631
11064TIP3    H254684   3.247   0.466  16.371 -0.4520  1.6461  2.0812
11065TIP3   OH254685   3.589   1.070   4.845 -0.2652 -0.1746  0.2895
11065TIP3    H154686   3.498   1.040   4.846 -0.2342 -0.2639  0.4043
11065TIP3    H254687   3.641   0.992   4.866 -0.3654  0.6517  4.4536
11066TIP3   OH254688   6.604   4.287   5.983 -0.0232  0.3054  0.0851
11066TIP3    H154689   6.542   4.300   6.055 -0.1210 -0.9548  0.2476
11066TIP3    H254690   6.590   4.362   5.926 -0.4057  0.9900  1.0413
11067TIP3   OH254691   4.071   1.322  15.242 -0.4246 -0.5000 -0.1172
11067TIP3    H154692   4.034   1.397  15.287  0.2277 -0.7918  0.9572
11067TIP3    H254693   4.165   1.340  15.239 -0.6185  0.6026 -3.4846
11068TIP3   OH254694   4.419   4.234  13.398 -0.3497 -0.8760  0.1388
11068TIP3    H154695   4.330   4.203  13.416 -1.4568  0.6903 -2.1923
11068TIP3    H254696   4.443   4.283  13.477 -2.4225  0.4406  0.0339
11069TIP3   OH254697   4.051   2.532   1.114 -0.0572  0.0848 -0.3499
11069TIP3    H154698   3.956   2.543   1.117 -0.2246 -0.9907 -0.9703
11069TIP3    H254699   4.079   2.535   1.205 -0.6291  0.8179 -0.1906
11070TIP3   OH254700   6.353   5.678  13.218 -0.0663 -0.0769 -0.0842
11070TIP3    H154701   6.318   5.590  13.226  2.1316 -0.9503  0.4464
11070TIP3    H254702   6.376   5.687  13.125  1.7562 -0.9228  0.2550
11071TIP3   OH254703   5.915   2.717  12.052 -0.0163  0.2133  0.7038
11071TIP3    H154704   5.961   2.783  12.104 -1.4290 -0.7070  3.3183
11071TIP3    H254705   5.825   2.749  12.047 -0.5685 -1.1288  1.4375
11072TIP3   OH254706   5.181   5.140  15.839  0.4005 -0.7517 -0.0466
11072TIP3    H154707   5.272   5.163  15.860 -0.0703  1.6987 -0.3421
11072TIP3    H254708   5.176   5.146  15.744 -0.3906  0.6844  0.0585
11073TIP3   OH254709   2.936   0.201   0.215  0.1822  0.0058  0.8829
11073TIP3    H154710   3.022   0.192   0.172  0.1207  0.1747  0.7229
11073TIP3    H254711   2.934   0.130   0.279  0.1344 -0.4719  0.3601
11074TIP3   OH254712   2.466   6.522  13.267  0.4804 -0.0786  0.8296
11074TIP3    H154713   2.525   6.595  13.285  0.6558 -0.3486  1.3835
11074TIP3    H254714   2.504   6.480  13.189  1.2801 -0.5014  1.4259
11075TIP3   OH254715   0.197   0.708  11.494  0.4606  0.6477 -0.4714
11075TIP3    H154716   0.260   0.636  11.504  1.3074  1.0755 -2.3036
11075TIP3    H254717   0.251   0.784  11.474 -0.6171  0.7320 -3.6613
11076TIP3   OH254718   4.170   1.994  11.365  0.1927  0.2992  0.1418
11076TIP3    H154719   4.077   1.981  11.349  0.3930 -1.4601  0.1509
11076TIP3    H254720   4.186   2.086  11.344 -1.4689  0.5507 -0.1632
11077TIP3   OH254721   2.045   2.842  14.146 -0.0316  0.0371 -0.0386
11077TIP3    H154722   1.981   2.903  14.108  0.6332  0.3476 -0.6777
11077TIP3    H254723   2.024   2.758  14.105  2.0558  0.7604 -2.9154
11078TIP3   OH254724   4.325   1.780   4.021  0.3539 -0.5957  0.1761
11078TIP3    H154725   4.419   1.777   4.006  0.2061 -1.8806 -0.6346
11078TIP3    H254726   4.305   1.696   4.063 -0.6708 -1.1020 -1.2495
11079TIP3   OH254727   4.366   3.324   2.981  0.1859 -0.1901  0.1947
11079TIP3    H154728   4.308   3.328   3.057  1.1943  1.6074  0.9341
11079TIP3    H254729   4.322   3.376   2.914  0.3796  0.1921  0.3597
11080TIP3   OH254730   3.613   6.209   2.294 -0.4172  0.3143  0.1792
11080TIP3    H154731   3.628   6.226   2.200 -0.1412  1.1347  0.3601
11080TIP3    H254732   3.680   6.144   2.317 -1.2753 -0.8262 -0.4598
11081TIP3   OH254733   1.351   5.581   0.298  0.1570  0.0454 -0.4959
11081TIP3    H154734   1.327   5.511   0.238  0.9020 -2.5499  1.9988
11081TIP3    H254735   1.444   5.567   0.317  0.0536  0.9998  0.9094
11082TIP3   OH254736   3.627   4.508  11.069 -1.4172 -0.7476  0.4180
11082TIP3    H154737   3.677   4.461  11.002 -2.3745  0.4630 -1.2162
11082TIP3    H254738   3.675   4.492  11.150  0.1398 -1.7637 -0.6500
11083TIP3   OH254739   1.693   5.313   0.261 -0.3526 -0.3856 -0.2949
11083TIP3    H154740   1.657   5.331   0.174 -0.3425 -0.5925 -0.3434
11083TIP3    H254741   1.662   5.385   0.316 -0.9094 -0.5995 -0.3176
11084TIP3   OH254742   6.354   6.402   1.554 -0.1536 -0.3251 -0.7812
11084TIP3    H154743   6.332   6.324   1.502  0.7385 -0.1305 -1.4866
11084TIP3    H254744   6.415   6.450   1.499  0.1069  0.3579  0.0869
11085TIP3   OH254745   3.414   4.069  16.474 -0.5893  0.1794  0.1335
11085TIP3    H154746   3.475   4.090  16.545 -0.2719  0.4075 -0.1984
11085TIP3    H254747   3.470   4.061  16.397 -0.8396 -0.8612  0.0555
11086TIP3   OH254748   6.469   0.362   5.753  0.4337 -0.4671 -0.5838
11086TIP3    H154749   6.514   0.280   5.772  0.5485 -0.8676 -2.4146
11086TIP3    H254750   6.385   0.335   5.714  0.4441  0.2734 -1.1416
11087TIP3   OH254751   0.737   3.160   4.485 -0.0199  0.1110 -0.2857
11087TIP3    H154752   0.732   3.112   4.568  0.3051 -0.0950 -0.3852
11087TIP3    H254753   0.737   3.093   4.417  0.2735  0.2560 -0.4312
11088TIP3   OH254754   5.213   5.141  14.720  0.1556  0.4134  0.4736
11088TIP3    H154755   5.174   5.118  14.636 -0.3113 -0.4164  0.9040
11088TIP3    H254756   5.308   5.141  14.704  0.0835 -0.1094  0.0426
11089TIP3   OH254757   0.753   4.563  15.979 -0.2794 -0.1247 -0.1026
11089TIP3    H154758   0.802   4.627  15.928 -0.1940 -1.2548 -1.4975
11089TIP3    H254759   0.665   4.601  15.986 -0.1966  0.2196 -0.7970
11090TIP3   OH254760   6.624   3.533   1.555 -0.4056 -0.0388  0.1035
11090TIP3    H154761   6.676   3.486   1.490  0.2916  0.5702  0.2082
11090TIP3    H254762   6.576   3.464   1.601 -0.9218 -0.4792 -1.0504
11091TIP3   OH254763   2.417   3.567   0.200  0.1297 -0.2112 -1.1422
11091TIP3    H154764   2.454   3.552   0.113 -1.3473 -0.5456 -1.7381
11091TIP3    H254765   2.365   3.488   0.217  1.9394 -1.0545  0.8991
11092TIP3   OH254766   5.477   3.212   5.208 -0.0658 -0.9475  0.3890
11092TIP3    H154767   5.500   3.217   5.115 -1.7644 -0.4293 -0.0268
11092TIP3    H254768   5.476   3.118   5.227  0.6126 -1.0463 -0.0128
11093TIP3   OH254769   1.555   0.673   0.300  0.8736 -0.0827 -0.0227
11093TIP3    H154770   1.524   0.591   0.264 -0.5645  0.5709 -0.3335
11093TIP3    H254771   1.506   0.741   0.253  1.4204  0.9212  0.7950
11094TIP3   OH254772   4.015   1.847  16.179  0.3730 -0.8355  0.3410
11094TIP3    H154773   4.076   1.808  16.241  0.2470  1.2949  1.9100
11094TIP3    H254774   4.053   1.933  16.159 -1.1090 -0.2791 -0.1888
11095TIP3   OH254775   4.995   6.026  14.223  0.1071  0.4904  0.1242
11095TIP3    H154776   4.955   5.943  14.249 -1.6999  0.0316 -3.5633
11095TIP3    H254777   5.082   6.024  14.264 -0.4981 -2.3794  1.5519
11096TIP3   OH254778   3.556   3.483   6.818 -0.2553  0.2483  0.0706
11096TIP3    H154779   3.600   3.535   6.751  1.8333 -1.0478  0.3577
11096TIP3    H254780   3.576   3.392   6.794 -1.0824 -0.3141  1.4007
11097TIP3   OH254781   1.410   2.813   0.866  0.0939 -0.9491 -0.3010
11097TIP3    H154782   1.489   2.836   0.914 -0.0024 -0.2072 -0.4849
11097TIP3    H254783   1.381   2.730   0.904  0.6152 -0.9081  0.1831
11098TIP3   OH254784   6.086   6.253  11.335  0.1338  0.1567  0.0961
11098TIP3    H154785   6.029   6.195  11.284  0.5715  0.3285 -0.6079
11098TIP3    H254786   6.171   6.245  11.293  0.5113  0.3008  0.8173
11099TIP3   OH254787   1.542   3.734   0.016  0.1085 -0.7190  0.5689
11099TIP3    H154788   1.484   3.663   0.045  0.5300 -1.6906 -0.8528
11099TIP3    H254789   1.497   3.772  -0.060 -0.0768  0.5379  1.2699
11100TIP3   OH254790   4.839   6.214  17.084 -0.1449 -0.1924  0.6356
11100TIP3    H154791   4.819   6.182  16.996  3.1972  2.0801 -1.2027
11100TIP3    H254792   4.759   6.260  17.111 -1.6118 -1.8048 -0.7316
11101TIP3   OH254793   1.765   1.531   5.179 -0.5439 -0.4227 -0.5369
11101TIP3    H154794   1.670   1.541   5.168 -0.5753 -0.1901 -0.0538
11101TIP3    H254795   1.775   1.454   5.235 -0.4981  0.2561  0.4169
11102TIP3   OH254796   3.794   2.023   6.452 -0.1955 -0.3349  0.5262
11102TIP3    H154797   3.845   2.052   6.527 -1.9769  0.6113  1.4288
11102TIP3    H254798   3.709   1.998   6.488 -1.3957  0.9432 -1.2386
11103TIP3   OH254799   4.654   5.790  13.637  0.4618  0.4496 -0.2607
11103TIP3    H154800   4.642   5.873  13.683  0.0674 -0.4695  1.3711
11103TIP3    H254801   4.566   5.753  13.630  0.8269 -0.7246  0.8346
11104TIP3   OH254802   2.041   6.820  11.623  0.4962 -0.1149 -0.1085
11104TIP3    H154803   1.951   6.811  11.593  0.5610 -0.6096 -0.1677
11104TIP3    H254804   2.078   6.732  11.616  0.8220 -0.0286  0.4370
11105TIP3   OH254805   5.255   5.892   2.422  0.5274  0.0982 -0.6335
11105TIP3    H154806   5.265   5.893   2.518  1.8194 -1.5423 -0.7056
11105TIP3    H254807   5.228   5.803   2.402 -1.3727  0.8556 -1.7136
11106TIP3   OH254808   6.234   5.334  11.220 -0.0194  0.2271  0.0808
11106TIP3    H154809   6.304   5.384  11.180  1.5435 -1.6066  0.3682
11106TIP3    H254810   6.161   5.339  11.157  0.6137  1.5253 -0.5815
11107TIP3   OH254811   6.374   1.771   3.477 -0.0324 -0.1850 -0.8026
11107TIP3    H154812   6.449   1.820   3.443 -0.7319  1.3882 -0.1736
11107TIP3    H254813   6.299   1.827   3.461 -0.5479  0.1719  2.2126
11108TIP3   OH254814   5.850   2.067  17.140 -0.1813 -0.2924  0.1538
11108TIP3    H154815   5.825   2.023  17.058 -1.3425  0.5797  0.0191
11108TIP3    H254816   5.897   2.000  17.189  1.7117 -0.4514 -1.7547
11109TIP3   OH254817   6.177   2.703  11.572 -0.3020 -0.1152 -0.1082
11109TIP3    H154818   6.214   2.696  11.484  0.0486  0.8341 -0.0479
11109TIP3    H254819   6.252   2.699  11.631 -0.3640  0.8615  0.0588
11110TIP3   OH254820   2.787   1.282   2.489  0.0298 -0.2770 -0.1139
11110TIP3    H154821   2.870   1.321   2.465 -0.2743  0.3603 -0.1438
11110TIP3    H254822   2.727   1.306   2.418 -0.4879  0.3342  0.5115
11111TIP3   OH254823   6.516   2.619   5.615 -0.1897  0.3911 -0.1411
11111TIP3    H154824   6.572   2.684   5.571  0.5933  0.7651  1.3158
11111TIP3    H254825   6.427   2.648   5.598 -0.0529 -0.6759 -3.2311
11112TIP3   OH254826   3.627   4.677  13.540  0.2291 -0.3534 -0.4720
11112TIP3    H154827   3.608   4.766  13.568  1.3639  0.1076 -1.1113
11112TIP3    H254828   3.660   4.685  13.451  0.4183 -1.4083 -0.5188
11113TIP3   OH254829   1.949   1.176   3.005  0.4321 -0.3653  0.1301
11113TIP3    H154830   1.923   1.109   3.068 -3.3669 -1.7172 -2.5196
11113TIP3    H254831   1.971   1.127   2.926  1.8803  1.4043 -0.6269
11114TIP3   OH254832   0.158   3.766  13.108  0.7718  0.1492  0.1906
11114TIP3    H154833   0.115   3.812  13.036  0.3646 -0.3514  0.1065
11114TIP3    H254834   0.177   3.679  13.073 -0.9482 -0.6793  1.1953
11115TIP3   OH254835   5.061   2.714   5.197 -0.6793  0.0654  0.2863
11115TIP3    H154836   5.080   2.693   5.288 -2.6503 -1.6764  0.4023
11115TIP3    H254837   4.992   2.780   5.201 -0.3417  0.4396  0.0326
11116TIP3   OH254838   6.669   2.641  14.327 -0.2842 -0.0011  0.5393
11116TIP3    H154839   6.576   2.660  14.341 -0.6565 -1.2947  0.0240
11116TIP3    H254840   6.714   2.721  14.353 -1.6768  1.4508 -1.2397
11117TIP3   OH254841   3.710   3.462  14.226 -0.1280  0.1613 -0.2468
11117TIP3    H154842   3.647   3.390  14.226 -0.5160  0.4930 -0.1798
11117TIP3    H254843   3.791   3.423  14.257 -0.5305 -0.0851  0.5227
11118TIP3   OH254844   3.574   3.048   5.424  0.3962  0.3636  0.1960
11118TIP3    H154845   3.634   2.988   5.468  0.7403  2.1648  2.3272
11118TIP3    H254846   3.487   3.018   5.449  0.5668  0.7354  1.2525
11119TIP3   OH254847   1.770   4.759  13.750  0.0063  0.0738  0.0816
11119TIP3    H154848   1.837   4.819  13.717 -0.9882  1.2896  0.2471
11119TIP3    H254849   1.691   4.811  13.757 -0.5498 -0.9065  1.5674
11120TIP3   OH254850   3.384   4.401  12.310  0.2467 -0.1920  0.3260
11120TIP3    H154851   3.319   4.432  12.373 -1.4505  0.5559 -1.6632
11120TIP3    H254852   3.416   4.319  12.346 -0.0008  0.6126  2.5477
11121TIP3   OH254853   6.633   3.645  14.926  0.5272 -0.3759  0.3257
11121TIP3    H154854   6.674   3.559  14.921  0.2041 -0.4736 -1.5911
11121TIP3    H254855   6.548   3.633  14.885  0.0157  0.6198  1.0652
11122TIP3   OH254856   4.561   4.835  11.556 -0.4554 -0.0598  0.0298
11122TIP3    H154857   4.627   4.796  11.499 -0.4126  0.1087 -0.0354
11122TIP3    H254858   4.486   4.775  11.550 -0.1148 -0.5529  0.5381
11123TIP3   OH254859   0.310   2.996   5.604 -0.0069 -0.5274 -0.2200
11123TIP3    H154860   0.299   3.059   5.675 -1.0036 -0.8326 -0.0809
11123TIP3    H254861   0.369   3.038   5.542 -0.2271  0.3172  0.1396
11124TIP3   OH254862   4.574   6.052   0.411 -0.5240  0.3762 -0.1714
11124TIP3    H154863   4.663   6.087   0.408  0.1262 -1.2257 -2.1526
11124TIP3    H254864   4.528   6.097   0.340 -0.6416 -0.3815 -0.5849
11125TIP3   OH254865   4.301   4.854  16.740 -0.2232 -0.0702 -0.8219
11125TIP3    H154866   4.324   4.842  16.648 -1.0836 -3.1579 -0.7558
11125TIP3    H254867   4.231   4.918  16.739  0.5865  0.8604 -2.1543
11126TIP3   OH254868   5.885   4.358  14.881 -0.4604  0.3211 -0.0428
11126TIP3    H154869   5.870   4.315  14.965  1.0311 -0.7892 -0.2944
11126TIP3    H254870   5.809   4.415  14.868 -2.0256 -1.4749  0.8005
11127TIP3   OH254871   1.889   5.807  14.035 -0.1072  0.2614  0.6261
11127TIP3    H154872   1.833   5.883  14.049  1.2890  1.2779  0.8391
11127TIP3    H254873   1.828   5.734  14.027 -1.5066  1.4874 -0.2956
11128TIP3   OH254874   4.961   4.016   4.334 -0.1900 -0.2176  0.4694
11128TIP3    H154875   4.928   4.037   4.421  0.5311  0.5772  0.5598
11128TIP3    H254876   4.890   3.966   4.293 -0.4114 -0.8749  1.6146
11129TIP3   OH254877   4.379   4.647   5.476 -0.3985 -0.4229  0.7544
11129TIP3    H154878   4.358   4.661   5.384 -0.7024  1.5262  1.0834
11129TIP3    H254879   4.473   4.628   5.477 -0.6041 -1.6042 -0.0282
11130TIP3   OH254880   0.277   1.710  13.994  0.3427  0.3642  0.3735
11130TIP3    H154881   0.204   1.745  13.944  0.3950 -0.2262 -0.1338
11130TIP3    H254882   0.285   1.619  13.964  1.5195  0.5295  0.1464
11131TIP3   OH254883   4.918   6.026   3.821  0.2399 -0.2959  0.3498
11131TIP3    H154884   4.841   6.057   3.773  1.2988 -0.3550 -1.4691
11131TIP3    H254885   4.882   5.972   3.892 -1.3899  0.0083 -0.2040
11132TIP3   OH254886   5.919   4.778  16.283 -0.3906 -0.4963 -0.1066
11132TIP3    H154887   5.869   4.697  16.292 -1.0439  0.0298  1.3904
11132TIP3    H254888   5.944   4.800  16.373  0.8314  0.3284 -0.6226
11133TIP3   OH254889   1.328   1.303   1.698 -0.0866 -0.3789 -0.4278
11133TIP3    H154890   1.237   1.323   1.676 -0.3117 -0.8947  0.0009
11133TIP3    H254891   1.369   1.388   1.716 -0.8321 -0.2317  0.6752
11134TIP3   OH254892   5.941   3.330  11.804 -0.0735  0.2860  0.0372
11134TIP3    H154893   5.899   3.277  11.735  0.6410  1.1904 -1.1334
11134TIP3    H254894   5.899   3.300  11.885  0.6807 -2.4414 -0.4729
11135TIP3   OH254895   4.985   6.373   1.689 -0.0235 -0.2044 -0.5525
11135TIP3    H154896   4.975   6.309   1.759  1.1988  1.4707  1.2620
11135TIP3    H254897   5.036   6.444   1.728 -0.0047  1.2003 -2.9111
11136TIP3   OH254898   1.480   4.651  16.373 -0.7316  0.0894 -0.2044
11136TIP3    H154899   1.547   4.720  16.369  0.4721 -1.0881 -1.3886
11136TIP3    H254900   1.430   4.670  16.452 -1.1501  2.9528 -1.0451
11137TIP3   OH254901   3.799   2.191   5.985  0.2825  0.1798  0.6108
11137TIP3    H154902   3.854   2.117   5.959  0.9240  0.3493  1.4327
11137TIP3    H254903   3.801   2.189   6.081 -0.8374  0.4268  0.6495
11138TIP3   OH254904   3.191   1.381  15.864 -0.2261 -0.4854 -0.1611
11138TIP3    H154905   3.155   1.397  15.776  1.2923  0.5602 -0.6397
11138TIP3    H254906   3.214   1.289  15.865 -0.1164 -0.4718 -0.9309
11139TIP3   OH254907   5.135   2.365  13.140  0.1384 -0.0849  1.0797
11139TIP3    H154908   5.067   2.413  13.186 -0.8536 -1.2001  0.8237
11139TIP3    H254909   5.092   2.286  13.108  1.3041 -0.3328  0.0182
11140TIP3   OH254910   5.287   5.090  14.116 -0.4968 -0.3090 -0.3758
11140TIP3    H154911   5.318   5.112  14.204  0.8983 -1.2576 -0.5782
11140TIP3    H254912   5.206   5.041  14.131 -0.0076 -0.9097  0.4250
11141TIP3   OH254913   2.616   1.579   5.736 -0.2166  0.0553  0.5515
11141TIP3    H154914   2.675   1.585   5.811 -1.2517  0.9652  1.3364
11141TIP3    H254915   2.585   1.669   5.722 -1.1435 -0.3353 -0.0342
11142TIP3   OH254916   0.576   0.406   5.465 -0.2474 -0.6370  0.0600
11142TIP3    H154917   0.513   0.403   5.393  0.9026  0.6844 -1.0543
11142TIP3    H254918   0.535   0.460   5.532 -0.4906 -0.1854 -0.4541
11143TIP3   OH254919   2.635   4.546   5.341 -0.1617  0.8666 -0.0626
11143TIP3    H154920   2.675   4.493   5.410  1.4554  1.3959 -0.5280
11143TIP3    H254921   2.591   4.617   5.388  0.3597  0.8527  0.4614
11144TIP3   OH254922   0.137   4.932  11.568 -0.4853 -0.3087  0.3270
11144TIP3    H154923   0.232   4.938  11.576 -0.4541  0.7367 -0.6435
11144TIP3    H254924   0.120   4.940  11.474 -1.6884  2.2950  0.6883
11145TIP3   OH254925   3.213   6.057   2.278 -0.0034  0.2620 -0.2222
11145TIP3    H154926   3.171   6.081   2.196  2.4501  1.8166 -1.1296
11145TIP3    H254927   3.285   6.120   2.288  2.8613 -2.8320  0.6094
11146TIP3   OH254928   6.163   3.372   4.269 -0.2236  0.4497 -0.4826
11146TIP3    H154929   6.150   3.462   4.239  2.6531  1.3507  0.6884
11146TIP3    H254930   6.212   3.380   4.350 -3.1867 -2.1044  1.7900
11147TIP3   OH254931   3.529   1.067   5.467 -0.0787 -0.5131 -0.5507
11147TIP3    H154932   3.489   1.078   5.380  0.3934  0.5239 -0.6535
11147TIP3    H254933   3.619   1.096   5.455 -0.3311  0.8723  0.5628
11148TIP3   OH254934   3.302   1.563   0.909  0.8433  0.0891  0.9268
11148TIP3    H154935   3.235   1.629   0.891  1.6041  0.6808  0.1420
11148TIP3    H254936   3.372   1.611   0.953 -0.0252 -0.9106  3.5522
11149TIP3   OH254937   1.017   3.775   5.541  0.5097  0.0065 -0.0878
11149TIP3    H154938   0.931   3.774   5.583  0.3577 -0.0343 -0.4018
11149TIP3    H254939   1.034   3.683   5.519 -0.1149  0.2296 -1.5627
11150TIP3   OH254940   5.477   5.258  11.921 -0.0719  0.5442  0.7911
11150TIP3    H154941   5.421   5.329  11.890 -0.6178  0.8662  2.4058
11150TIP3    H254942   5.566   5.286  11.901 -0.3671  0.9460  0.0034
11151TIP3   OH254943   0.440   4.335   2.097 -0.6126  0.1885 -1.0482
11151TIP3    H154944   0.472   4.407   2.151  1.5433 -1.8250  0.5651
11151TIP3    H254945   0.344   4.342   2.101 -0.4786  2.8088 -0.8678
11152TIP3   OH254946   4.310   3.969   3.281 -0.0851 -0.3817  0.3770
11152TIP3    H154947   4.331   3.927   3.198 -1.0057  0.4250 -0.2741
11152TIP3    H254948   4.375   3.933   3.342  0.1257 -1.5543 -0.5000
11153TIP3   OH254949   1.251   4.915  11.143  0.1331  0.0577 -0.2260
11153TIP3    H154950   1.279   4.843  11.199 -0.9754  0.0907  0.3858
11153TIP3    H254951   1.197   4.874  11.076 -0.3509  0.2936  0.0158
11154TIP3   OH254952   0.165   5.690   3.550  0.1515 -0.2725 -0.5427
11154TIP3    H154953   0.258   5.714   3.553  0.4377 -1.2746 -0.9421
11154TIP3    H254954   0.135   5.703   3.640 -0.2544  3.4257 -1.0454
11155TIP3   OH254955   6.099   5.556  15.692  0.1161  0.1857 -0.2071
11155TIP3    H154956   6.082   5.466  15.664  0.5354  0.5987 -1.8558
11155TIP3    H254957   6.189   5.573  15.665  0.9878  0.2514  2.4646
11156TIP3   OH254958   3.524   3.925   3.855 -0.4493 -0.1994 -0.0082
11156TIP3    H154959   3.524   3.829   3.850  0.6692 -0.1960 -0.2813
11156TIP3    H254960   3.568   3.944   3.938 -0.8913  0.0800  0.1638
11157TIP3   OH254961   0.143   3.269  16.872  0.2552  0.2716 -0.0675
11157TIP3    H154962   0.128   3.334  16.940 -0.4346  0.5281 -0.4470
11157TIP3    H254963   0.112   3.186  16.910  1.0599  0.1747  0.3849
11158TIP3   OH254964   0.206   5.947   3.784  0.3797  0.2981  0.0451
11158TIP3    H154965   0.285   5.994   3.810 -0.0383  0.0781  1.8426
11158TIP3    H254966   0.186   5.979   3.696  2.6273  0.1212 -0.5727
11159TIP3   OH254967   5.354   6.234   1.329  0.1477  0.2737  0.4588
11159TIP3    H154968   5.318   6.322   1.343 -1.0300  0.3269 -2.3143
11159TIP3    H254969   5.279   6.181   1.303  1.1629 -1.0687  0.1708
11160TIP3   OH254970   6.811   5.647   0.679  0.0108  0.2229 -1.1268
11160TIP3    H154971   6.866   5.725   0.683  0.5487 -0.1794 -0.3385
11160TIP3    H254972   6.723   5.680   0.661  0.5830  0.8306 -2.9480
11161TIP3   OH254973   2.960   3.884   2.210  0.5760  0.4260 -0.1602
11161TIP3    H154974   3.013   3.932   2.274  0.3554 -0.1813  0.4996
11161TIP3    H254975   2.955   3.795   2.246 -1.6376  0.6695  0.3023
11162TIP3   OH254976   1.964   6.178  11.818 -0.0944 -0.2207 -0.3812
11162TIP3    H154977   2.005   6.215  11.739 -0.3404  1.5241  0.2832
11162TIP3    H254978   2.035   6.129  11.860  0.6101  0.5519 -0.6285
11163TIP3   OH254979   2.593   2.891   6.035 -0.4660  0.5670  0.2829
11163TIP3    H154980   2.569   2.815   6.089  0.3401 -0.0857 -0.2379
11163TIP3    H254981   2.567   2.865   5.946 -0.9014  1.2348  0.2129
11164TIP3   OH254982   3.892   0.305   5.304  0.1616 -1.1129  0.0714
11164TIP3    H154983   3.833   0.242   5.262 -0.3881 -0.3424 -0.3367
11164TIP3    H254984   3.972   0.301   5.252  0.0033 -1.2205 -0.1662
11165TIP3   OH254985   6.217   3.846   3.780  0.3273 -0.1110 -0.1524
11165TIP3    H154986   6.158   3.778   3.748  0.3613 -0.2366  0.0523
11165TIP3    H254987   6.159   3.907   3.827  0.1565  0.4868 -1.0958
11166TIP3   OH254988   3.349   6.619   4.729  0.0754 -0.3378 -0.1240
11166TIP3    H154989   3.288   6.555   4.763  0.5090 -0.7253 -0.0655
11166TIP3    H254990   3.413   6.632   4.799 -1.1942  1.7869  0.7266
11167TIP3   OH254991   0.029   0.563  15.546 -0.5946 -0.1146  0.0617
11167TIP3    H154992  -0.041   0.506  15.575 -0.9646 -0.4292 -1.3551
11167TIP3    H254993  -0.007   0.652  15.555 -0.1892 -0.0963  1.8109
11168TIP3   OH254994   0.503   0.268  13.909  0.4305  0.2137  0.0440
11168TIP3    H154995   0.441   0.211  13.956  0.8939 -0.2279  0.1264
11168TIP3    H254996   0.589   0.238  13.937  0.7242 -0.0919 -1.1401
11169TIP3   OH254997   2.231   2.068   2.404 -0.4518 -0.1510 -0.3365
11169TIP3    H154998   2.210   2.144   2.350 -0.6679 -0.5266 -0.7983
11169TIP3    H254999   2.149   2.018   2.406  0.2154 -1.3820 -1.7287
11170TIP3   OH255000   3.389   5.048   3.753  0.0362  0.5852 -0.5841
11170TIP3    H155001   3.324   5.076   3.689 -1.8044 -0.7336  0.6157
11170TIP3    H255002   3.454   5.000   3.703 -1.1243 -0.0263 -1.5337
11171TIP3   OH255003   0.491   2.926  14.223 -0.2575 -0.6777  0.3615
11171TIP3    H155004   0.472   2.865  14.293 -1.6069  2.1008  2.6413
11171TIP3    H255005   0.572   2.969  14.249  1.5022 -2.3722 -1.9529
11172TIP3   OH255006   0.531   3.489  11.082  0.5863 -0.7182 -0.4060
11172TIP3    H155007   0.585   3.459  11.155 -0.4721  2.1160  1.7131
11172TIP3    H255008   0.442   3.459  11.104 -0.0214  1.4943  0.4278
11173TIP3   OH255009   0.801   3.944   5.393  0.3784 -0.0804  0.3863
11173TIP3    H155010   0.765   3.897   5.468 -1.0157 -1.7731 -1.2546
11173TIP3    H255011   0.896   3.937   5.404  0.1984 -0.9608  1.5723
11174TIP3   OH255012   5.515   0.304  15.038  0.8900 -0.2285 -0.3720
11174TIP3    H155013   5.441   0.316  15.097  0.3887 -0.3215 -0.9698
11174TIP3    H255014   5.486   0.344  14.956  1.5488 -0.1658 -0.5780
11175TIP3   OH255015   3.742   4.589  16.775 -0.2043 -0.5273 -0.6453
11175TIP3    H155016   3.703   4.673  16.801  3.2752  0.7986  0.9200
11175TIP3    H255017   3.795   4.610  16.698  0.8841 -1.1837 -0.1090
11176TIP3   OH255018   1.234   4.763   0.040  0.1041  0.8972 -0.1682
11176TIP3    H155019   1.289   4.823   0.090 -0.2744  1.8373 -0.8385
11176TIP3    H255020   1.173   4.820  -0.006  0.0979  0.0312 -1.2803
11177TIP3   OH255021   3.222   4.192  15.565  0.0437  0.3022  0.5138
11177TIP3    H155022   3.147   4.158  15.516  0.1551 -0.3389  0.7780
11177TIP3    H255023   3.183   4.253  15.628 -0.3311 -0.4580  1.0338
11178TIP3   OH255024   5.129   0.765   5.552  0.1700  0.2078 -0.4544
11178TIP3    H155025   5.196   0.791   5.488  0.4387 -2.4730 -1.3975
11178TIP3    H255026   5.157   0.806   5.634  3.2841 -1.0864 -0.7015
11179TIP3   OH255027   3.750   6.108  16.950 -0.2517 -0.4843 -0.2720
11179TIP3    H155028   3.671   6.057  16.964 -0.6307 -0.5424 -2.3789
11179TIP3    H255029   3.784   6.124  17.038 -2.6430 -0.3584  0.7040
11180TIP3   OH255030   0.738   6.024   3.068 -0.0555 -0.0614  0.2208
11180TIP3    H155031   0.778   6.059   2.988 -2.0688  1.0646 -0.3433
11180TIP3    H255032   0.811   5.982   3.114  1.6094  1.2133 -1.1161
11181TIP3   OH255033   3.302   1.885  12.124  0.4152 -0.0175 -0.0163
11181TIP3    H155034   3.282   1.900  12.217  0.0333  0.0041 -0.0987
11181TIP3    H255035   3.386   1.839  12.125  0.1413 -0.5310  0.3685
11182TIP3   OH255036   2.554   2.097  15.579  0.2238  0.7239 -1.0690
11182TIP3    H155037   2.637   2.140  15.600  1.0470 -0.8969 -0.8486
11182TIP3    H255038   2.571   2.050  15.498  0.7188 -2.5079  0.7226
11183TIP3   OH255039   0.492   0.697  11.000  0.2233 -0.4629  0.4182
11183TIP3    H155040   0.470   0.700  10.906 -1.3272 -0.0721  0.7623
11183TIP3    H255041   0.530   0.783  11.018  0.0923 -0.3628  0.2343
11184TIP3   OH255042   1.637   4.713  11.355 -0.0488 -0.2135  0.7205
11184TIP3    H155043   1.662   4.758  11.435  0.2066 -0.8686  1.0140
11184TIP3    H255044   1.556   4.668  11.376 -0.5375  0.4384  0.2996
11185TIP3   OH255045   1.318   5.037   3.755  0.1342 -0.3943  0.3517
11185TIP3    H155046   1.287   4.969   3.694 -2.2863 -0.4663  1.5279
11185TIP3    H255047   1.257   5.031   3.829  1.6511  1.1512  1.7936
11186TIP3   OH255048   0.407   6.096   5.417  0.7378  0.2114  0.4183
11186TIP3    H155049   0.384   6.173   5.468  0.8570 -0.9362  2.2786
11186TIP3    H255050   0.326   6.071   5.373  0.3391  0.5922  0.9272
11187TIP3   OH255051   4.521   3.756  13.316 -0.1855 -0.2241  0.0534
11187TIP3    H155052   4.427   3.775  13.311 -0.5304 -1.8126  0.0827
11187TIP3    H255053   4.562   3.831  13.273 -1.3666  1.1292  1.1460
11188TIP3   OH255054   0.673   4.767  15.257  0.4168 -0.5956  0.1875
11188TIP3    H155055   0.704   4.769  15.348 -2.6638 -0.0534  1.3637
11188TIP3    H255056   0.662   4.674  15.238 -0.6232 -0.6752  1.0694
11189TIP3   OH255057   0.054   2.938  13.776  0.0291  0.4006 -0.1198
11189TIP3    H155058   0.024   3.029  13.773  1.0982  0.7650 -0.2886
11189TIP3    H255059   0.093   2.922  13.691  0.1876 -0.1005  0.0415
11190TIP3   OH255060   1.528   0.448   0.096 -0.6191 -1.0087  0.2405
11190TIP3    H155061   1.492   0.382   0.036  1.9303 -1.3758 -1.0216
11190TIP3    H255062   1.517   0.410   0.183 -1.6764 -1.8257 -0.2213
11191TIP3   OH255063   5.008   2.356  13.603 -0.3036 -0.9692  0.3508
11191TIP3    H155064   4.933   2.415  13.590  0.6544 -0.0919 -1.6714
11191TIP3    H255065   4.995   2.286  13.539  0.1358 -1.3216  0.6425
11192TIP3   OH255066   1.017   0.638   5.524  0.1071  0.1295 -0.5395
11192TIP3    H155067   1.103   0.596   5.529 -0.1567 -0.2438  1.7528
11192TIP3    H255068   0.961   0.572   5.484  0.1048 -1.0899  1.3613
11193TIP3   OH255069   2.292   0.718   6.546 -0.3386 -0.2785  0.6754
11193TIP3    H155070   2.306   0.645   6.486  2.0011  1.7565 -1.5415
11193TIP3    H255071   2.208   0.755   6.521 -0.1232 -0.4273 -0.3196
11194TIP3   OH255072   0.948   1.782  11.408  0.1226 -0.1690 -0.1608
11194TIP3    H155073   0.868   1.835  11.410  0.6087  0.6385  2.3109
11194TIP3    H255074   1.011   1.835  11.359  0.1177  0.8334  0.8786
11195TIP3   OH255075   6.346   0.024   1.902 -0.7157 -0.4682 -0.3016
11195TIP3    H155076   6.430   0.063   1.876 -1.4482  1.2844 -0.2095
11195TIP3    H255077   6.336  -0.051   1.844  0.0845  0.3473 -1.5670
11196TIP3   OH255078   1.041   1.123  13.786  0.3763  0.1707  0.4979
11196TIP3    H155079   1.112   1.163  13.837  1.6311  0.9792 -1.7455
11196TIP3    H255080   1.019   1.189  13.720 -0.1289 -1.3634 -0.9372
11197TIP3   OH255081   1.560   5.105   0.020  0.3028 -0.3477  0.0008
11197TIP3    H155082   1.622   5.078  -0.048  1.0966 -0.5112  0.7598
11197TIP3    H255083   1.609   5.094   0.102 -0.7810 -0.6044  0.6364
11198TIP3   OH255084   2.736   6.240  12.572  0.5862  0.0205 -0.5408
11198TIP3    H155085   2.753   6.189  12.651  0.4282  1.0773  0.1988
11198TIP3    H255086   2.822   6.255  12.533  0.9182  1.4083  0.6715
11199TIP3   OH255087   6.387   3.983  13.175 -0.5642  0.6134 -0.4223
11199TIP3    H155088   6.453   4.012  13.238 -0.4727  0.0128 -0.2374
11199TIP3    H255089   6.339   3.914  13.220 -0.2367 -0.1088 -1.1501
11200TIP3   OH255090   4.797   2.073  13.219 -0.4601 -0.4712 -0.1341
11200TIP3    H155091   4.764   1.983  13.209 -0.3540 -0.6957  1.3679
11200TIP3    H255092   4.874   2.076  13.161 -1.7664 -0.6051 -1.9743
11201TIP3   OH255093   2.973   0.378  11.025 -0.1061 -0.1391  0.4630
11201TIP3    H155094   3.054   0.393  11.073  0.6889  1.2900 -1.2128
11201TIP3    H255095   2.910   0.437  11.066  0.4609  0.7746  0.0675
11202TIP3   OH255096   6.226   5.090  10.919 -0.0125 -0.2506  0.1378
11202TIP3    H155097   6.226   5.087  10.823 -2.2501 -0.9916  0.1020
11202TIP3    H255098   6.295   5.030  10.945 -0.5179 -1.3794 -1.0277
11203TIP3   OH255099   2.500   1.927  15.369  0.8841  0.6776  0.2703
11203TIP3    H155100   2.462   1.964  15.289  0.3850  0.5804  0.4550
11203TIP3    H255101   2.585   1.892  15.342  0.4131  0.0058 -0.3672
11204TIP3   OH255102   6.555   4.190   1.206 -0.0310 -0.1400 -0.0895
11204TIP3    H155103   6.584   4.218   1.293 -0.5609  0.2983 -0.0485
11204TIP3    H255104   6.507   4.265   1.171  0.8874  0.0028 -1.1105
11205TIP3   OH255105   0.079   1.307  14.253  0.4136 -0.1992  0.2546
11205TIP3    H155106   0.112   1.245  14.318  0.6933 -1.0584 -0.6800
11205TIP3    H255107  -0.015   1.313  14.271  0.5956  0.1074  1.1630
11206TIP3   OH255108   4.104   0.964  14.191 -0.2675 -0.1195  0.0471
11206TIP3    H155109   4.169   1.005  14.134 -0.9133 -0.6527 -1.1048
11206TIP3    H255110   4.110   1.013  14.273  1.1564  0.2222 -0.2320
11207TIP3   OH255111   3.861   3.448   6.527  0.3600  0.1722 -0.2472
11207TIP3    H155112   3.877   3.413   6.440  0.3585 -1.2957  0.3112
11207TIP3    H255113   3.932   3.414   6.581  1.0665  2.0862  0.0884
11208TIP3   OH255114   0.589   1.302   4.295 -0.7639  0.1533  0.2755
11208TIP3    H155115   0.638   1.293   4.377  0.5298  0.3617 -0.4315
11208TIP3    H255116   0.655   1.333   4.232 -1.9360  0.8942 -0.6185
11209TIP3   OH255117   5.323   2.847  13.098  0.0462  0.6743 -0.1285
11209TIP3    H155118   5.341   2.857  13.191 -0.5639 -0.2535  0.0960
11209TIP3    H255119   5.343   2.755  13.079  1.4000  1.1533 -1.2027
11210TIP3   OH255120   3.714   6.595  13.556 -0.7367  0.4514 -0.1263
11210TIP3    H155121   3.767   6.656  13.607 -1.5256  1.2878 -0.2665
11210TIP3    H255122   3.728   6.510  13.597  1.3624  0.4755 -0.6917
11211TIP3   OH255123   3.658   1.912  11.659  0.0145 -0.3441  0.3558
11211TIP3    H155124   3.637   1.820  11.647 -1.8181 -0.6742  4.3493
11211TIP3    H255125   3.731   1.912  11.721 -0.3593  0.8471  0.8320
11212TIP3   OH255126   2.478   3.315  14.702  0.3145 -0.8714  0.5113
11212TIP3    H155127   2.546   3.376  14.729  0.6683 -1.7448  1.7081
11212TIP3    H255128   2.396   3.359  14.722  0.5657 -0.6845  1.1485
11213TIP3   OH255129   2.339   3.002   3.611 -0.4844  0.3161 -0.1406
11213TIP3    H155130   2.394   2.958   3.546 -1.7552 -0.9054 -0.4288
11213TIP3    H255131   2.254   3.013   3.568 -0.6495  1.6773  0.4883
11214TIP3   OH255132   4.769   1.827   4.985 -0.1984  0.3809  0.2525
11214TIP3    H155133   4.720   1.908   4.972 -1.7484 -0.7966 -1.7780
11214TIP3    H255134   4.783   1.793   4.897  1.0931 -1.1891  1.0156
11215TIP3   OH255135   0.340   0.741  13.283 -0.0334  0.8076  0.1815
11215TIP3    H155136   0.253   0.724  13.248  0.6602  0.1849 -1.3453
11215TIP3    H255137   0.375   0.655  13.304  0.3842  1.0116  0.3312
11216TIP3   OH255138   2.868   2.020  14.246 -0.2514  0.0565 -0.3084
11216TIP3    H155139   2.787   1.971  14.257 -0.1425 -0.2812 -0.9281
11216TIP3    H255140   2.937   1.956  14.264 -0.1200  0.4587  0.6655
11217TIP3   OH255141   1.110   1.221   1.992 -0.6266 -0.1075  0.4845
11217TIP3    H155142   1.047   1.184   2.054 -1.1695 -2.6462 -1.3895
11217TIP3    H255143   1.056   1.267   1.927 -0.2422  0.6789  0.7110
11218TIP3   OH255144   5.187   0.595  12.707 -0.0689  0.0904  0.5378
11218TIP3    H155145   5.153   0.685  12.707  3.6011  1.7716 -2.3722
11218TIP3    H255146   5.165   0.562  12.620  1.6140 -0.4199  0.2655
11219TIP3   OH255147   2.587   4.993  12.035  0.0748  0.0229  0.4010
11219TIP3    H155148   2.627   4.932  11.974 -0.7753  0.7499 -0.9272
11219TIP3    H255149   2.620   5.079  12.008 -0.3854  0.3678  0.9194
11220TIP3   OH255150   3.277   4.503   4.967  0.3717 -0.0449  0.0502
11220TIP3    H155151   3.191   4.505   5.009  0.1917 -0.0339 -0.3142
11220TIP3    H255152   3.282   4.584   4.917  0.8986  0.3101  0.6521
11221TIP3   OH255153   5.757   3.013  12.133  0.5664  0.1736 -0.5546
11221TIP3    H155154   5.763   3.108  12.137 -0.9572  0.4169 -2.4538
11221TIP3    H255155   5.846   2.983  12.153  1.4203  2.0485 -1.2759
11222TIP3   OH255156   6.302   5.558   6.298  0.4896  0.4255  0.4105
11222TIP3    H155157   6.311   5.498   6.225  0.8677  0.1643  0.6723
11222TIP3    H255158   6.329   5.508   6.375 -0.5760  0.4699  0.8371
11223TIP3   OH255159   6.275   1.576  14.400 -0.6068  0.1450 -0.0249
11223TIP3    H155160   6.244   1.500  14.351 -0.2559  0.2689 -0.4470
11223TIP3    H255161   6.320   1.630  14.335 -0.6538  0.6024  0.3167
11224TIP3   OH255162   2.015   6.126   4.044 -0.0238  0.2787 -0.1012
11224TIP3    H155163   2.076   6.123   4.119  2.9139  1.0235 -2.2987
11224TIP3    H255164   1.998   6.219   4.030  0.1108  0.1960 -0.8411
11225TIP3   OH255165   6.517   5.696  14.237 -0.0153 -0.2316  0.5479
11225TIP3    H155166   6.498   5.657  14.151  1.0171  1.3660 -0.4723
11225TIP3    H255167   6.602   5.739  14.225 -0.1579  0.5629  2.1873
11226TIP3   OH255168   2.983   5.454  16.161 -0.3538  0.2114  0.4938
11226TIP3    H155169   2.955   5.545  16.149 -2.3665 -0.2035  1.6394
11226TIP3    H255170   3.029   5.454  16.245 -0.0914  0.2181  0.3516
11227TIP3   OH255171   5.353   4.722  12.263  0.4532 -0.3847  0.3838
11227TIP3    H155172   5.334   4.765  12.179  1.7688 -1.1611 -0.3602
11227TIP3    H255173   5.386   4.635  12.238  0.0084 -0.9697  1.7502
11228TIP3   OH255174   0.095   0.265  16.755 -0.1171  0.2512  0.5264
11228TIP3    H155175   0.148   0.197  16.796  0.8051 -0.1081 -1.1581
11228TIP3    H255176   0.107   0.252  16.661 -1.3615  1.6299  0.1274
11229TIP3   OH255177   4.870   4.644   5.466  0.2289 -0.5784 -0.0062
11229TIP3    H155178   4.792   4.666   5.517  1.4135  0.7716  1.3411
11229TIP3    H255179   4.943   4.652   5.528  1.6447  0.0740 -1.6529
11230TIP3   OH255180   4.487   3.537   3.654 -0.0657  0.3468 -0.0926
11230TIP3    H155181   4.492   3.452   3.699 -1.3302 -0.1783 -0.8999
11230TIP3    H255182   4.406   3.577   3.685  0.2119  0.9977 -0.1884
11231TIP3   OH255183   4.288   5.786   2.882 -0.1122  0.2189  0.4153
11231TIP3    H155184   4.374   5.775   2.841  0.0719 -0.7858  1.0330
11231TIP3    H255185   4.306   5.841   2.959 -0.0535  0.1739  0.4343
11232TIP3   OH255186   2.893   0.262   5.276  0.3642  0.2009 -0.1138
11232TIP3    H155187   2.945   0.289   5.199  0.5647  0.4655  0.1101
11232TIP3    H255188   2.933   0.180   5.304  0.1029 -0.0508 -0.4678
11233TIP3   OH255189   4.449   0.192  12.101 -0.1926 -0.1083  0.1278
11233TIP3    H155190   4.384   0.258  12.075 -0.5300  0.1632  1.5585
11233TIP3    H255191   4.416   0.110  12.065  0.1423  0.4546 -1.5289
11234TIP3   OH255192   4.391   1.004  13.407  0.0227  0.1538 -0.5223
11234TIP3    H155193   4.463   0.994  13.345  1.5136 -2.4078  1.4563
11234TIP3    H255194   4.356   1.091  13.389  2.7045  0.9485 -2.4708
11235TIP3   OH255195   2.808   2.653  15.049  0.6518  0.6946  0.2720
11235TIP3    H155196   2.838   2.642  14.958  1.0675  1.1878  0.3442
11235TIP3    H255197   2.879   2.617  15.102  0.5872  0.7744  0.4123
11236TIP3   OH255198   6.086   5.253   6.008 -0.1734  0.6163 -0.2174
11236TIP3    H155199   6.171   5.297   6.007  0.6893 -0.9508  0.5765
11236TIP3    H255200   6.023   5.324   6.000  1.1886  1.8636 -0.4251
11237TIP3   OH255201   4.087   5.647   6.055  0.2811 -0.1342  0.3608
11237TIP3    H155202   4.001   5.641   6.097 -0.4234 -0.8042 -1.1299
11237TIP3    H255203   4.092   5.571   5.998  0.5991  1.4305 -1.8371
11238TIP3   OH255204   6.806   2.067  12.115  0.4464  0.1523 -0.6849
11238TIP3    H155205   6.851   2.149  12.094  0.5252  0.4563  0.5817
11238TIP3    H255206   6.848   2.002  12.059 -0.1065  1.0877 -2.2324
11239TIP3   OH255207   6.719   5.403   1.605 -0.1699  0.8907  0.2217
11239TIP3    H155208   6.771   5.327   1.630 -0.1000  1.1484  0.8871
11239TIP3    H255209   6.763   5.438   1.528  1.1039  1.5403  1.2007
11240TIP3   OH255210   0.261   5.784   4.082  0.2954 -0.2985  0.3366
11240TIP3    H155211   0.288   5.757   4.169  0.4134 -1.3085 -0.0033
11240TIP3    H255212   0.312   5.728   4.022 -1.2449 -1.0334 -0.3385
11241TIP3   OH255213   1.988   5.772   2.949  0.3920  0.2842 -0.3043
11241TIP3    H155214   1.899   5.736   2.952 -0.1602  1.4992 -1.2181
11241TIP3    H255215   2.042   5.700   2.919 -0.5204 -0.0940 -1.0919
11242TIP3   OH255216   4.471   0.718   6.036  0.3794 -0.0085 -0.0796
11242TIP3    H155217   4.437   0.771   6.108 -0.7179 -1.6746  0.6954
11242TIP3    H255218   4.534   0.659   6.078  0.9960  0.1373 -0.7836
11243TIP3   OH255219   3.170   4.966  15.711  0.2252 -0.2926 -0.0386
11243TIP3    H155220   3.203   5.034  15.770  0.1324 -2.3010  2.4723
11243TIP3    H255221   3.249   4.925  15.676  0.2789  0.5996 -1.0187
11244TIP3   OH255222   0.932   5.950   5.744 -0.1255 -0.0659  0.1477
11244TIP3    H155223   0.984   5.931   5.666 -1.0126 -0.8677 -0.2594
11244TIP3    H255224   0.887   6.032   5.724 -0.8238 -0.5860 -0.4332
11245TIP3   OH255225   4.513   5.615   0.186 -0.1926  0.2611  0.1604
11245TIP3    H155226   4.574   5.640   0.255 -1.5500 -0.0106  1.5013
11245TIP3    H255227   4.462   5.543   0.223 -0.1181 -0.7467 -1.5943
11246TIP3   OH255228   2.927   3.064  14.470  0.1173 -0.5031  0.5423
11246TIP3    H155229   2.862   3.135  14.469 -0.2208 -0.8087 -0.5022
11246TIP3    H255230   2.912   3.017  14.388  2.8024  0.4508 -0.6256
11247TIP3   OH255231   4.684   2.243  13.397 -0.2019  0.5365  0.5791
11247TIP3    H155232   4.707   2.201  13.480  1.8313  2.1893  0.9350
11247TIP3    H255233   4.702   2.176  13.330 -1.1865 -0.5626  1.3632
11248TIP3   OH255234   4.683   3.524   3.456 -0.2329  0.3714  0.3403
11248TIP3    H155235   4.629   3.506   3.534 -0.8453  0.6798 -0.0027
11248TIP3    H255236   4.715   3.613   3.470 -1.0296  0.7488 -0.1370
11249TIP3   OH255237   5.495   5.286  16.903 -0.0796  0.0317 -0.0846
11249TIP3    H155238   5.499   5.252  16.993 -1.6005  1.4019  0.5620
11249TIP3    H255239   5.583   5.320  16.887 -0.3081  1.6341  1.7082
11250TIP3   OH255240   3.702   5.325   0.150  0.5015 -0.0033 -0.1230
11250TIP3    H155241   3.622   5.378   0.156  2.3597  3.3287 -1.7774
11250TIP3    H255242   3.728   5.309   0.240 -1.0262  0.4103  0.4252
11251TIP3   OH255243   0.902   5.788   4.660 -0.3883 -0.5381  0.2370
11251TIP3    H155244   0.971   5.741   4.613 -0.5595 -0.1030 -0.4638
11251TIP3    H255245   0.927   5.880   4.655  1.2927 -0.6587  3.8121
11252TIP3   OH255246   3.555   1.258   5.075 -0.0527 -0.1284  0.7450
11252TIP3    H155247   3.589   1.207   5.002  0.4513  2.0373 -0.6303
11252TIP3    H255248   3.622   1.253   5.142  0.8681  0.2779 -0.1263
11253TIP3   OH255249   0.566   2.576  16.629  0.0772 -0.0906  0.1467
11253TIP3    H155250   0.537   2.495  16.587  0.0959 -0.1796  0.3033
11253TIP3    H255251   0.629   2.615  16.568  0.9816 -0.7996  0.6051
11254TIP3   OH255252   1.126   0.943   5.974 -0.4265 -0.1419  0.5217
11254TIP3    H155253   1.133   0.850   5.952 -1.5684 -0.4472  1.3179
11254TIP3    H255254   1.036   0.953   6.007 -1.2737  1.7836 -1.9874
11255TIP3   OH255255   6.205   1.454  13.464  0.7665  0.2077 -0.2809
11255TIP3    H155256   6.188   1.365  13.495  1.6941 -0.0485 -0.4948
11255TIP3    H255257   6.280   1.445  13.405  0.3075  0.9984 -1.0099
11256TIP3   OH255258   3.588   0.139  16.221 -0.0019  0.0077  0.9877
11256TIP3    H155259   3.662   0.133  16.282 -0.9717 -1.2783  2.0681
11256TIP3    H255260   3.598   0.063  16.164  0.8437  1.1454 -0.4870
11257TIP3   OH255261   3.976   4.744  15.543  0.4744  0.2817  0.1103
11257TIP3    H155262   3.904   4.714  15.487  0.7971 -0.3832  0.0466
11257TIP3    H255263   3.947   4.724  15.632  0.8144 -0.4933  0.0493
11258TIP3   OH255264   3.089   5.745   4.314 -0.2335 -0.0422 -0.1479
11258TIP3    H155265   3.077   5.673   4.253  1.8317 -1.8467  1.4101
11258TIP3    H255266   3.016   5.737   4.375 -0.5413 -0.2016 -0.5322
11259TIP3   OH255267   5.359   5.906  11.497  0.2853 -0.0434 -0.2612
11259TIP3    H155268   5.318   5.984  11.534  0.7366  0.0243  0.0971
11259TIP3    H255269   5.337   5.909  11.404 -0.3175  0.1190 -0.1151
11260TIP3   OH255270   1.086   2.111   3.307 -0.0565  0.2717  0.1014
11260TIP3    H155271   1.063   2.137   3.217 -0.7062  0.7634  0.4021
11260TIP3    H255272   1.002   2.097   3.350  0.2603 -0.5565  0.4713
11261TIP3   OH255273   2.876   0.763   5.338  0.1724 -0.0796  0.5632
11261TIP3    H155274   2.858   0.669   5.333  0.7377 -0.1986  0.6328
11261TIP3    H255275   2.835   0.800   5.259  2.3298 -0.8126 -1.0176
11262TIP3   OH255276   6.020   2.163   1.210  0.0054  0.1748  0.2769
11262TIP3    H155277   5.975   2.237   1.172 -1.0714  0.0040  1.1612
11262TIP3    H255278   6.112   2.176   1.188 -0.2551  1.4287 -0.1157
11263TIP3   OH255279   2.503   2.551   1.009  0.0151  0.5494 -0.4348
11263TIP3    H155280   2.517   2.481   0.945 -0.0877  0.7880 -0.7209
11263TIP3    H255281   2.416   2.533   1.045 -0.0473  0.5761 -0.5701
11264TIP3   OH255282   2.426   4.873  13.642 -0.1456  0.2093  0.3048
11264TIP3    H155283   2.490   4.867  13.571  1.2813  1.3742  1.4020
11264TIP3    H255284   2.369   4.797  13.630 -0.1688  0.5478 -2.2361
11265TIP3   OH255285   2.503   6.309  11.019 -0.1424  0.3456  0.2235
11265TIP3    H155286   2.584   6.288  11.065 -0.1144  1.0173  0.5010
11265TIP3    H255287   2.464   6.224  10.999  0.5797  0.0125  0.1657
11266TIP3   OH255288   2.837   6.046  17.130 -0.4288  0.0104 -0.7404
11266TIP3    H155289   2.797   6.132  17.115  0.5887  0.4502 -0.9600
11266TIP3    H255290   2.771   5.984  17.098 -1.7662  0.6253  0.6783
11267TIP3   OH255291   4.042   6.113   1.350  0.3570 -0.5189  0.1921
11267TIP3    H155292   4.049   6.168   1.428 -0.9794 -0.0869  0.0456
11267TIP3    H255293   3.968   6.150   1.301  0.9169 -1.0206 -1.0926
11268TIP3   OH255294   1.133   3.985  16.818  0.6120  0.5070  0.3226
11268TIP3    H155295   1.097   3.991  16.730  2.3162  0.9906 -0.3722
11268TIP3    H255296   1.094   3.905  16.854 -1.9670  1.5318  0.0622
11269TIP3   OH255297   0.083   2.466  11.118 -0.1814  0.1908 -0.0974
11269TIP3    H155298   0.083   2.561  11.106  2.5069  0.2056 -0.7421
11269TIP3    H255299   0.087   2.454  11.212  0.5102  0.7810 -0.0360
11270TIP3   OH255300   6.246   3.929  13.596 -0.1062 -0.5429 -0.3213
11270TIP3    H155301   6.328   3.970  13.568 -0.0169 -0.5220 -0.0305
11270TIP3    H255302   6.270   3.837  13.612  0.2485 -0.1785  1.4079
11271TIP3   OH255303   4.278   4.052  11.464  0.3773  0.3232  0.1163
11271TIP3    H155304   4.262   4.083  11.374 -0.4347  2.1672  0.8515
11271TIP3    H255305   4.192   4.049  11.504  0.8392  0.5314  1.1559
11272TIP3   OH255306   5.880   2.160   0.298 -0.3008  0.1118 -0.1203
11272TIP3    H155307   5.831   2.184   0.377  0.1344 -0.9114  0.4722
11272TIP3    H255308   5.971   2.152   0.327  0.1177  1.1513 -1.0383
11273TIP3   OH255309   6.690   1.370   0.089  0.6177  0.0254 -0.7756
11273TIP3    H155310   6.701   1.424   0.011  2.6081 -0.5335 -0.9270
11273TIP3    H255311   6.668   1.283   0.055 -1.6630  0.4291 -0.5549
11274TIP3   OH255312   1.624   3.550   4.547  0.3038  0.4543  0.1508
11274TIP3    H155313   1.670   3.567   4.464  1.8011  0.8884  1.0370
11274TIP3    H255314   1.597   3.636   4.578  0.3190  0.3561  0.4412
11275TIP3   OH255315   1.352   2.400  15.556 -0.4713  0.1402  0.3608
11275TIP3    H155316   1.447   2.390  15.553 -0.6404 -1.9212  0.7193
11275TIP3    H255317   1.332   2.456  15.481  0.7607 -2.2678 -1.9348
11276TIP3   OH255318   2.429   6.406   2.241 -0.2005 -1.0303 -0.1416
11276TIP3    H155319   2.482   6.473   2.197 -1.9738  1.3537  1.1532
11276TIP3    H255320   2.419   6.337   2.175  2.2449 -0.4072 -1.3035
11277TIP3   OH255321   6.533   0.816  15.141 -0.1106 -0.1782  0.7645
11277TIP3    H155322   6.487   0.784  15.063 -0.8459  0.9289  0.7341
11277TIP3    H255323   6.602   0.873  15.107 -1.3483  1.4897  0.9336
11278TIP3   OH255324   2.177   3.887   5.730  0.1479  0.7197  0.7107
11278TIP3    H155325   2.251   3.851   5.681  0.1418  1.5351  0.0815
11278TIP3    H255326   2.204   3.881   5.822  1.0947  1.2254  0.4803
11279TIP3   OH255327   4.869   6.717   3.245 -0.2865  0.4205  0.1045
11279TIP3    H155328   4.873   6.770   3.165  1.4673  2.5676  1.4692
11279TIP3    H255329   4.911   6.772   3.312 -1.0181 -1.5703  2.3499
11280TIP3   OH255330   5.037   5.833   3.334  0.1751  0.2738 -0.0952
11280TIP3    H155331   5.030   5.926   3.354  1.3313  0.4952 -0.6026
11280TIP3    H255332   5.121   5.807   3.372 -0.0626 -0.5253 -0.1012
11281TIP3   OH255333   6.445   1.347   4.101 -0.0403 -0.7678  0.8128
11281TIP3    H155334   6.385   1.409   4.142 -0.3052 -0.4953  0.0324
11281TIP3    H255335   6.398   1.316   4.023  1.0736 -0.0661 -0.1719
11282TIP3   OH255336   4.886   1.792  15.498 -0.1692 -0.0727  0.0122
11282TIP3    H155337   4.907   1.786  15.591  0.5275 -2.3778 -0.2486
11282TIP3    H255338   4.965   1.829  15.457 -0.4038  0.7513  0.2770
11283TIP3   OH255339   4.964   0.204  16.942 -0.0927  0.1448 -0.3836
11283TIP3    H155340   4.990   0.289  16.907 -0.5122  0.3376 -0.2457
11283TIP3    H255341   4.886   0.224  16.995 -0.6097 -0.4342 -0.9238
11284TIP3   OH255342   3.723   3.112  12.966 -0.5994  0.9138  0.2778
11284TIP3    H155343   3.730   3.199  13.006  0.0059  0.4235  1.2950
11284TIP3    H255344   3.813   3.088  12.946 -0.9344  1.4600 -2.1913
11285TIP3   OH255345   2.857   0.628  13.291 -0.0690 -0.1201 -0.4770
11285TIP3    H155346   2.895   0.710  13.261 -1.3274  0.6326 -0.0694
11285TIP3    H255347   2.931   0.567  13.295  1.1084  1.3010  0.3236
11286TIP3   OH255348   5.037   1.234   1.393  0.0030  0.3904  0.3675
11286TIP3    H155349   5.070   1.192   1.472 -0.8083  1.6381  1.4069
11286TIP3    H255350   5.071   1.323   1.397 -0.9457  0.7891 -0.1325
11287TIP3   OH255351   5.924   1.457  14.961  0.1896  0.4637 -0.1018
11287TIP3    H155352   5.830   1.440  14.967 -0.3541  2.8842 -0.6596
11287TIP3    H255353   5.954   1.457  15.052 -0.2592 -0.6392  0.0601
11288TIP3   OH255354   5.799   2.703  16.594 -0.7851  0.3007 -0.0807
11288TIP3    H155355   5.783   2.610  16.609 -0.7906  0.2549 -0.3588
11288TIP3    H255356   5.713   2.739  16.575 -0.7376  0.2984 -0.3044
11289TIP3   OH255357   5.339   1.380  12.181 -0.0483 -0.4205 -0.5425
11289TIP3    H155358   5.398   1.452  12.160  1.2597 -1.0610  0.7675
11289TIP3    H255359   5.252   1.415  12.166  0.6162  0.7428 -1.9641
11290TIP3   OH255360   4.246   6.542   1.852 -0.3247  0.1932 -0.1221
11290TIP3    H155361   4.337   6.519   1.871 -0.4764  0.2109  0.6701
11290TIP3    H255362   4.231   6.508   1.764  1.0075  1.8366 -1.0545
11291TIP3   OH255363   3.949   1.888  16.507  0.2669  0.1345  0.3776
11291TIP3    H155364   3.884   1.938  16.557 -2.0107 -1.9470 -0.3021
11291TIP3    H255365   3.955   1.805  16.554  1.2783 -0.2932 -0.4816
11292TIP3   OH255366   6.478   1.809   4.160  0.0092  1.1772 -0.0493
11292TIP3    H155367   6.550   1.830   4.100 -0.1466  0.6410 -0.4404
11292TIP3    H255368   6.429   1.891   4.168  1.6037  2.0390  1.5831
11293TIP3   OH255369   5.600   4.307   3.536 -0.2201 -0.2000 -0.4191
11293TIP3    H155370   5.538   4.237   3.553 -0.2914 -0.0968 -0.2493
11293TIP3    H255371   5.645   4.281   3.456  0.9527 -1.2684  0.5608
11294TIP3   OH255372   0.920   6.080   1.552 -0.0994 -0.1663 -0.6628
11294TIP3    H155373   0.897   6.013   1.616  1.3610  1.5151  1.8263
11294TIP3    H255374   0.993   6.042   1.503  1.9610  0.1430  1.9581
11295TIP3   OH255375   6.149   5.008  10.355 -0.3017  0.0010 -0.5275
11295TIP3    H155376   6.078   4.951  10.324 -1.0794 -0.2824  1.6016
11295TIP3    H255377   6.211   4.950  10.397  0.6235  0.3929 -1.3099
11296TIP3   OH255378   6.402   5.298  10.944  0.3578  0.1350 -0.0483
11296TIP3    H155379   6.461   5.224  10.927  0.7437  0.1819  0.9929
11296TIP3    H255380   6.315   5.259  10.951  0.5685 -0.2502  0.5676
11297TIP3   OH255381   1.436   2.355   5.098 -0.2868 -0.5278 -0.5148
11297TIP3    H155382   1.358   2.411   5.105  0.3602  0.3883 -0.5079
11297TIP3    H255383   1.446   2.341   5.004  0.8474  1.2962 -0.7325
11298TIP3   OH255384   6.187   0.537   2.430  0.3644  0.1021  0.5701
11298TIP3    H155385   6.279   0.512   2.439  0.4714 -0.1431 -0.8512
11298TIP3    H255386   6.189   0.616   2.377 -0.2445 -0.0016  0.3891
11299TIP3   OH255387   0.839   2.074   3.439 -0.3186 -0.4561  0.0544
11299TIP3    H155388   0.772   2.050   3.375 -0.3815 -0.5692  0.1631
11299TIP3    H255389   0.856   1.994   3.487 -0.2372 -0.3819  0.1497
11300TIP3   OH255390   3.331   2.976  11.265 -0.0188  0.2469 -0.0549
11300TIP3    H155391   3.412   2.956  11.217  0.0164  0.5689 -0.1365
11300TIP3    H255392   3.261   2.957  11.203  0.0627  1.6490 -0.6159
11301TIP3   OH255393   3.898   2.818   0.934  0.5389  0.1896 -0.1435
11301TIP3    H155394   3.852   2.753   0.988  0.6769 -0.0880 -0.3559
11301TIP3    H255395   3.870   2.902   0.969 -0.2619  0.0295 -0.3717
11302TIP3   OH255396   0.102   4.916  10.964  0.3148 -0.6777 -0.1057
11302TIP3    H155397   0.093   4.925  11.059  1.0143 -1.4400  0.0438
11302TIP3    H255398   0.183   4.866  10.953 -0.6145 -2.0190 -1.0490
11303TIP3   OH255399   3.254   1.108  11.409 -0.0648  0.3707 -0.0882
11303TIP3    H155400   3.185   1.161  11.372  0.0118 -0.6076 -1.7423
11303TIP3    H255401   3.335   1.155  11.388 -0.1252  0.8351  0.6668
11304TIP3   OH255402   6.058   6.165   3.091  1.1625  0.1956 -0.0313
11304TIP3    H155403   5.990   6.114   3.045  1.6851  0.1389 -0.7578
11304TIP3    H255404   6.058   6.129   3.180 -1.1667  1.5559  0.6101
11305TIP3   OH255405   3.318   3.235  11.033 -0.0669 -0.1692  0.4206
11305TIP3    H155406   3.352   3.219  11.121 -2.3107  1.8150  1.8001
11305TIP3    H255407   3.262   3.160  11.015 -0.0775 -0.2974  0.9654
11306TIP3   OH255408   6.128   5.769  16.045 -0.3848 -0.4308 -0.3865
11306TIP3    H155409   6.113   5.856  16.009  0.1650 -0.5976 -1.0513
11306TIP3    H255410   6.042   5.727  16.045 -1.6652  1.5993  4.1787
11307TIP3   OH255411   2.756   1.511  16.196 -0.3337  0.2856 -0.6982
11307TIP3    H155412   2.767   1.429  16.245  1.0613 -0.0272 -1.4718
11307TIP3    H255413   2.835   1.516  16.141  0.7948  3.3044  0.9758
11308TIP3   OH255414   2.869   5.747  11.908 -0.1474 -0.0890 -0.6408
11308TIP3    H155415   2.786   5.725  11.949  0.5146  0.5168  1.1408
11308TIP3    H255416   2.851   5.748  11.814 -2.1507  0.1351 -0.2810
11309TIP3   OH255417   0.657   2.509  15.877  0.2915  0.5713  0.4424
11309TIP3    H155418   0.730   2.480  15.932  1.3872 -1.0643 -1.7590
11309TIP3    H255419   0.579   2.473  15.920  1.0859 -0.4307  1.0966
11310TIP3   OH255420   3.784   5.948  16.437  0.2435 -0.4045 -0.0534
11310TIP3    H155421   3.869   5.980  16.407 -0.7512  1.5858 -0.9479
11310TIP3    H255422   3.777   5.981  16.527  0.4355 -0.6206  0.0413
11311TIP3   OH255423   1.545   3.407  13.379 -0.7035 -0.1880  0.4586
11311TIP3    H155424   1.600   3.467  13.329 -2.0252  0.0925 -0.7317
11311TIP3    H255425   1.484   3.463  13.427  0.4734 -0.4569  2.3927
11312TIP3   OH255426   6.668   5.653  13.122 -0.3105  0.2110  0.6772
11312TIP3    H155427   6.657   5.732  13.176  2.1817  0.5188  0.8477
11312TIP3    H255428   6.733   5.601  13.169  1.0485 -0.0802 -1.3845
11313TIP3   OH255429   1.971   0.990   2.820  0.4838 -0.3635  0.3252
11313TIP3    H155430   2.054   0.967   2.778  0.1864  1.0386 -1.1412
11313TIP3    H255431   1.914   1.017   2.747  0.4762  3.9628  1.6840
11314TIP3   OH255432   4.170   3.938   5.862  0.5175 -0.4449 -0.1906
11314TIP3    H155433   4.264   3.927   5.878  0.6371 -0.3050 -0.7560
11314TIP3    H255434   4.166   3.993   5.784 -0.0369 -0.4563 -0.1717
11315TIP3   OH255435   6.695   5.048   3.338 -0.1359  0.5706 -0.6242
11315TIP3    H155436   6.693   4.990   3.263 -0.4831  0.6062 -0.6442
11315TIP3    H255437   6.783   5.086   3.337  1.2695 -2.2759  1.1770
11316TIP3   OH255438   0.737   5.091   4.171  0.6298 -0.3701  0.1763
11316TIP3    H155439   0.664   5.147   4.144  2.0278  1.3956 -0.1281
11316TIP3    H255440   0.717   5.068   4.262 -0.2768  0.1623  0.1266
11317TIP3   OH255441   0.787   6.453  11.207  0.6275  0.0959 -0.2698
11317TIP3    H155442   0.842   6.532  11.206 -1.8163  1.8988 -1.6455
11317TIP3    H255443   0.781   6.429  11.300 -0.0300  2.6364  0.4054
11318TIP3   OH255444   3.996   6.389   1.472  0.4532  0.0969 -0.0504
11318TIP3    H155445   4.077   6.385   1.523  0.0214  1.9972  0.8908
11318TIP3    H255446   4.003   6.469   1.422 -1.0059  0.5178  0.3687
11319TIP3   OH255447   3.580   4.227   1.733  0.4386  0.0060  0.1422
11319TIP3    H155448   3.513   4.266   1.677  0.8826  0.7477  0.1138
11319TIP3    H255449   3.615   4.301   1.783 -1.1879 -0.8498  2.7473
11320TIP3   OH255450   3.805   1.130   0.986 -0.2460  0.3081  0.5580
11320TIP3    H155451   3.814   1.221   0.958  2.2779 -0.0223 -0.0166
11320TIP3    H255452   3.731   1.130   1.047 -1.0026  2.5125 -0.2735
11321TIP3   OH255453   1.551   3.503  15.012 -0.9245  0.0844  0.4959
11321TIP3    H155454   1.465   3.474  14.980 -0.5783 -0.0208 -0.3480
11321TIP3    H255455   1.612   3.438  14.978 -0.4400  0.4683  0.6307
11322TIP3   OH255456   1.251   4.248  11.582  0.3823  0.1871 -0.3674
11322TIP3    H155457   1.264   4.219  11.673 -0.7978  0.5267 -0.0853
11322TIP3    H255458   1.173   4.201  11.553  1.6050 -1.1016 -1.7379
11323TIP3   OH255459   5.794   4.561  16.041  0.3560  0.6408  0.0319
11323TIP3    H155460   5.844   4.546  16.122  2.2096 -1.1975 -1.3086
11323TIP3    H255461   5.710   4.518  16.056  1.1317 -0.7578  0.6209
11324TIP3   OH255462   4.870   2.088  12.191 -0.4238  0.4411  0.1025
11324TIP3    H155463   4.894   2.166  12.140 -2.2561  0.0921 -1.3809
11324TIP3    H255464   4.806   2.120  12.255 -1.8378  0.0613 -1.0715
11325TIP3   OH255465   6.713   4.794   0.824  0.0084 -0.3503 -0.3427
11325TIP3    H155466   6.736   4.787   0.731 -0.0085 -0.2408 -0.3549
11325TIP3    H255467   6.618   4.792   0.825  0.0084 -1.9827 -0.2051
11326TIP3   OH255468   5.804   0.951  15.272  0.3141 -0.0665  0.8154
11326TIP3    H155469   5.833   1.002  15.197  1.5760 -0.1143  1.2489
11326TIP3    H255470   5.861   0.874  15.272  0.0494 -0.2691  1.5848
11327TIP3   OH255471   6.301   0.895   0.983  0.0948  0.1916  0.2627
11327TIP3    H155472   6.245   0.907   1.060 -2.9596 -2.1069 -1.3851
11327TIP3    H255473   6.252   0.936   0.911  1.0337 -0.9978 -1.1089
11328TIP3   OH255474   3.847   5.682   2.489 -0.2923 -0.0745 -0.0478
11328TIP3    H155475   3.885   5.679   2.401  1.1433 -2.1146  0.5701
11328TIP3    H255476   3.922   5.681   2.548 -1.2512 -0.0386  1.2203
11329TIP3   OH255477   6.269   0.230   5.605  0.1116  0.2254 -0.2804
11329TIP3    H155478   6.251   0.178   5.527 -1.6206  0.7707 -0.2896
11329TIP3    H255479   6.183   0.255   5.637  0.7391 -0.3882  2.1129
11330TIP3   OH255480   2.376   0.686   0.462 -0.5138  0.6259  0.3237
11330TIP3    H155481   2.368   0.725   0.548 -0.9693  1.1562  0.0398
11330TIP3    H255482   2.358   0.757   0.400  2.5774  1.0397 -0.3060
11331TIP3   OH255483   0.943   0.355   4.635  0.3302  0.0038  0.7625
11331TIP3    H155484   0.854   0.390   4.629  0.1006 -0.5451  0.9401
11331TIP3    H255485   0.948   0.316   4.722  0.3492 -1.0491  0.3005
11332TIP3   OH255486   3.300   1.600  12.321 -0.5779  0.0173  0.2107
11332TIP3    H155487   3.262   1.524  12.275  0.7850 -2.6066  3.0426
11332TIP3    H255488   3.395   1.587  12.313 -0.3022  1.9239  0.1036
11333TIP3   OH255489   6.313   1.394   6.122  0.0336 -0.3067 -0.8478
11333TIP3    H155490   6.344   1.388   6.212  1.0019 -0.0376 -1.1529
11333TIP3    H255491   6.315   1.304   6.089  1.6684 -0.1554 -1.2341
11334TIP3   OH255492   0.568   5.046  15.090  0.0275  0.0274  0.1289
11334TIP3    H155493   0.472   5.049  15.098 -0.1022 -2.6322  0.4956
11334TIP3    H255494   0.600   5.040  15.179  0.6102  1.2826  0.0291
11335TIP3   OH255495   1.995   2.057  13.965 -1.1615 -0.1872  0.1233
11335TIP3    H155496   2.077   2.065  13.916 -0.7623  0.0070  0.8189
11335TIP3    H255497   1.930   2.032  13.899 -0.0354 -3.0938 -0.0063
11336TIP3   OH255498   5.900   2.219   2.731 -0.4252 -0.0223  0.3059
11336TIP3    H155499   5.956   2.166   2.673 -0.9336  1.0045 -1.1791
11336TIP3    H255500   5.959   2.286   2.765  0.2038 -1.4201  2.1346
11337TIP3   OH255501   5.619   1.318   6.420 -0.2168 -0.1628  0.1508
11337TIP3    H155502   5.652   1.228   6.415  1.1189  0.1996  1.5679
11337TIP3    H255503   5.651   1.359   6.340 -0.5334 -0.8505 -0.3414
11338TIP3   OH255504   2.689   2.483   5.360  0.4018  0.7523 -0.5456
11338TIP3    H155505   2.676   2.397   5.321  0.9285  0.5839 -0.3654
11338TIP3    H255506   2.621   2.491   5.426 -0.6267  1.1164 -1.6005
11339TIP3   OH255507   4.161   1.951  14.775 -0.2883 -0.0540 -0.4005
11339TIP3    H155508   4.253   1.922  14.775  0.0588  0.8122 -2.5561
11339TIP3    H255509   4.165   2.044  14.795 -0.5956  0.1745 -1.3579
11340TIP3   OH255510   5.398   0.499   4.705 -0.4640 -0.3922  0.1757
11340TIP3    H155511   5.355   0.445   4.639 -1.3949  1.0626 -0.4768
11340TIP3    H255512   5.338   0.574   4.717  1.2086  0.9853  0.2942
11341TIP3   OH255513   3.311   0.661   1.928 -0.6272  0.1732 -0.2661
11341TIP3    H155514   3.336   0.645   2.019 -1.5720 -1.8266 -0.3186
11341TIP3    H255515   3.344   0.749   1.909 -0.1228  0.4912  1.8934
11342TIP3   OH255516   0.494   1.396  16.512 -0.4749 -0.2295  0.0184
11342TIP3    H155517   0.518   1.405  16.605  0.0684 -1.3758  0.0080
11342TIP3    H255518   0.468   1.305  16.503 -2.1075  0.2611 -0.6218
11343TIP3   OH255519   4.636   6.584   3.353  0.4243  0.1768 -0.0926
11343TIP3    H155520   4.711   6.640   3.332 -0.2946  1.0211 -0.4543
11343TIP3    H255521   4.614   6.541   3.271  1.0330 -0.7423  0.2049
11344TIP3   OH255522   5.921   0.572  16.501  0.1024  0.4648 -0.4756
11344TIP3    H155523   5.948   0.502  16.441 -2.1277 -0.8154 -0.0976
11344TIP3    H255524   5.937   0.536  16.588 -0.6672  0.5920 -0.2786
11345TIP3   OH255525   5.141   0.534  13.025 -0.4455  0.4655  0.0021
11345TIP3    H155526   5.230   0.545  13.060 -0.2353  4.6428 -1.2660
11345TIP3    H255527   5.152   0.541  12.930 -1.8399 -2.8195 -0.5302
11346TIP3   OH255528   2.662   0.029  15.985  0.6130  0.0953  0.6686
11346TIP3    H155529   2.727   0.033  15.915  1.4350 -0.5163  1.3648
11346TIP3    H255530   2.712   0.050  16.064  0.2447 -1.5741  1.3900
11347TIP3   OH255531   5.004   1.317   3.713 -0.2935  0.3245  0.1497
11347TIP3    H155532   5.042   1.392   3.761  1.9846 -1.4548  1.3284
11347TIP3    H255533   4.917   1.308   3.750  0.1608  1.1312  1.5180
11348TIP3   OH255534   6.700   6.684   1.084  0.1800  0.0891  0.4019
11348TIP3    H155535   6.682   6.619   1.152  1.6842  0.2602  1.0058
11348TIP3    H255536   6.737   6.634   1.011  0.9958  0.1993  0.7269
11349TIP3   OH255537   4.891   0.339   3.574 -0.6012 -0.2001 -0.1662
11349TIP3    H155538   4.985   0.340   3.554 -0.9582 -1.8859 -2.3718
11349TIP3    H255539   4.851   0.382   3.498 -1.6182  0.7086  0.8624
11350TIP3   OH255540   3.094   3.390  17.116  0.2340 -0.1460  0.5382
11350TIP3    H155541   3.028   3.436  17.063 -0.6854  0.5429  2.2227
11350TIP3    H255542   3.043   3.342  17.181  1.3691 -0.4419  1.2190
11351TIP3   OH255543   4.822   4.415   5.800 -0.0194  0.1175 -0.9476
11351TIP3    H155544   4.802   4.424   5.893  0.4681 -2.7222 -0.4681
11351TIP3    H255545   4.750   4.364   5.765 -0.7504  2.0794 -2.4264
11352TIP3   OH255546   5.083   4.144   0.528 -0.5112 -0.1486  0.0483
11352TIP3    H155547   5.120   4.113   0.446 -2.8709 -1.9828 -0.4160
11352TIP3    H255548   4.993   4.167   0.507 -1.2262 -0.7976  2.1304
11353TIP3   OH255549   1.448   0.226   1.700  0.2054  0.3120  0.1015
11353TIP3    H155550   1.437   0.131   1.698 -2.9301  0.5453  0.8283
11353TIP3    H255551   1.493   0.243   1.783  0.1672 -0.4876  0.2991
11354TIP3   OH255552   5.162   1.794  11.468 -0.2777 -0.5553 -0.0028
11354TIP3    H155553   5.235   1.823  11.523 -0.8450  0.7016  0.1349
11354TIP3    H255554   5.150   1.865  11.405 -0.1147 -1.6503 -1.3057
11355TIP3   OH255555   4.277   6.376  15.913  0.4656  0.5237 -0.2805
11355TIP3    H155556   4.209   6.393  15.848 -0.3179 -0.1717  0.3292
11355TIP3    H255557   4.250   6.427  15.990  0.1402 -0.4504  0.2653
11356TIP3   OH255558   0.400   2.655   1.125 -0.4811  0.0366 -0.2798
11356TIP3    H155559   0.441   2.681   1.042  1.9304 -0.0189  0.8054
11356TIP3    H255560   0.460   2.590   1.161 -1.4101  0.1622  1.5624
11357TIP3   OH255561   1.576   3.029  15.958 -0.0400 -0.5509  0.3839
11357TIP3    H155562   1.572   3.089  15.884 -0.2811 -0.0261  0.8178
11357TIP3    H255563   1.668   3.000  15.960  0.0238 -0.3850  0.0331
11358TIP3   OH255564   2.322   5.455  12.763 -0.1502  0.1053 -0.4515
11358TIP3    H155565   2.298   5.389  12.828 -0.2132  0.8794  0.3217
11358TIP3    H255566   2.369   5.522  12.812  0.3038  0.4259 -1.3075
11359TIP3   OH255567   5.213   1.990   5.162 -0.1835  0.3652  0.3536
11359TIP3    H155568   5.153   2.064   5.148 -0.0063  0.3722 -0.4038
11359TIP3    H255569   5.175   1.942   5.235 -1.3494  0.1246 -0.3933
11360TIP3   OH255570   0.596   1.902  14.416 -0.0326  0.0362  0.0477
11360TIP3    H155571   0.667   1.921  14.354 -0.1350 -0.1227 -0.1210
11360TIP3    H255572   0.639   1.900  14.501  0.5243 -1.9089 -0.2361
11361TIP3   OH255573   0.485   2.354  16.472  0.3222  0.1942 -0.1687
11361TIP3    H155574   0.396   2.321  16.481  0.4630 -0.1544 -0.0058
11361TIP3    H255575   0.506   2.342  16.379  0.4078 -0.2872 -0.0917
11362TIP3   OH255576   4.229   3.069  16.701  0.5748 -0.5458 -0.3643
11362TIP3    H155577   4.212   2.978  16.726 -0.2447  0.1824  1.9400
11362TIP3    H255578   4.142   3.108  16.691  0.6834  1.1834  3.6862
11363TIP3   OH255579   2.640   3.442   3.231  0.0008  0.4109 -0.0159
11363TIP3    H155580   2.619   3.427   3.139 -0.7358 -1.6724  0.4262
11363TIP3    H255581   2.666   3.356   3.264 -0.9953  0.8168  2.0076
11364TIP3   OH255582   5.961   5.033  12.888 -0.0371  0.0090  0.2672
11364TIP3    H155583   5.970   5.126  12.909 -1.1557 -0.0427  1.0902
11364TIP3    H255584   5.916   5.032  12.804  0.1613  0.2047  0.1554
11365TIP3   OH255585   3.241   0.943  10.414 -0.2282  0.5267 -0.2250
11365TIP3    H155586   3.172   0.975  10.472  0.3058  0.6518  0.3541
11365TIP3    H255587   3.206   0.956  10.325 -0.8994  0.6816  0.0556
11366TIP3   OH255588   3.735   0.250   2.034 -0.3656 -0.4227  0.2622
11366TIP3    H155589   3.657   0.295   2.068  0.3426  0.9803  0.1054
11366TIP3    H255590   3.763   0.305   1.960 -0.5782 -2.1855 -1.2070
11367TIP3   OH255591   5.712   2.580   0.235  0.7140 -0.4339  0.3008
11367TIP3    H155592   5.802   2.569   0.265  1.0140  2.8181  0.8490
11367TIP3    H255593   5.660   2.580   0.316  0.9256  3.0359  0.5531
11368TIP3   OH255594   5.830   4.318  11.992  0.5561 -0.9144  0.1885
11368TIP3    H155595   5.850   4.394  12.047  1.0966  0.0551 -1.2708
11368TIP3    H255596   5.744   4.288  12.022  0.1795  0.4934  0.5843
11369TIP3   OH255597   2.835   0.752   4.457  0.0910  0.9038 -0.1561
11369TIP3    H155598   2.859   0.780   4.545  1.5843  1.5824 -0.7539
11369TIP3    H255599   2.918   0.734   4.414 -0.6601 -0.4325 -1.1278
11370TIP3   OH255600   2.991   6.532   5.479  0.2212  0.3858  0.2841
11370TIP3    H155601   2.958   6.467   5.417  2.3391 -0.5796  0.0597
11370TIP3    H255602   2.938   6.520   5.557 -3.5513  2.6529 -1.6622
11371TIP3   OH255603   5.708   1.844  12.404  0.6878 -0.4899 -0.2946
11371TIP3    H155604   5.715   1.755  12.368  0.5802 -0.5054 -0.2794
11371TIP3    H255605   5.761   1.898  12.345  0.5186 -0.5161 -0.4730
11372TIP3   OH255606   3.991   4.029  15.761  0.1877 -0.1323 -0.2208
11372TIP3    H155607   4.054   3.956  15.758 -1.6557 -1.7879 -1.4604
11372TIP3    H255608   3.907   3.989  15.738 -1.1483  2.1947  0.2783
11373TIP3   OH255609   0.970   0.932   4.513  0.3774  0.5036 -0.2586
11373TIP3    H155610   1.054   0.895   4.541 -0.3190  0.8657  2.6671
11373TIP3    H255611   0.916   0.856   4.491  0.3555 -0.0080  1.4207
11374TIP3   OH255612   3.767   3.534   4.858 -0.3593 -0.4862  0.1631
11374TIP3    H155613   3.746   3.604   4.796  1.0284 -0.6822 -0.5725
11374TIP3    H255614   3.806   3.579   4.933 -3.2481 -0.1048  1.5994
11375TIP3   OH255615   6.733   1.466  16.275  0.0605 -0.7502  0.1967
11375TIP3    H155616   6.774   1.476  16.361 -2.1763  1.9940  1.1034
11375TIP3    H255617   6.806   1.466  16.213  1.6077 -0.1218  1.9313
11376TIP3   OH255618   6.056   2.393  15.516 -0.1967  0.0254 -0.1435
11376TIP3    H155619   6.094   2.451  15.450 -0.3884  0.5929  0.2394
11376TIP3    H255620   6.067   2.305  15.479  0.2273  0.2868 -0.6646
11377TIP3   OH255621   3.652   6.752  12.206  0.0484  0.1818  0.3755
11377TIP3    H155622   3.679   6.661  12.214  2.4796  0.9302  2.0565
11377TIP3    H255623   3.666   6.773  12.113 -0.6416 -1.1568 -0.0500
11378TIP3   OH255624   1.503   5.281  16.832  0.6647  0.5975  0.3423
11378TIP3    H155625   1.544   5.266  16.747 -0.5677  1.3642 -0.4163
11378TIP3    H255626   1.489   5.375  16.835 -0.6105  0.4028  0.7762
11379TIP3   OH255627   1.647   1.955   5.387 -0.5017 -0.0619 -0.5260
11379TIP3    H155628   1.576   1.907   5.346  0.3536  0.1276 -2.3232
11379TIP3    H255629   1.626   2.047   5.372 -0.2546  0.0175 -0.3937
11380TIP3   OH255630   5.786   0.348   4.304 -0.2136  0.2941  0.2344
11380TIP3    H155631   5.746   0.402   4.372 -0.8239 -0.0386  0.1509
11380TIP3    H255632   5.714   0.295   4.271 -1.0633  3.4512 -3.7452
11381TIP3   OH255633   1.120   3.208  11.613 -0.0629 -0.3138 -0.5958
11381TIP3    H155634   1.181   3.214  11.540 -0.4221 -1.3349 -1.0019
11381TIP3    H255635   1.070   3.128  11.596 -0.1100 -0.6160  0.8000
11382TIP3   OH255636   1.371   0.998  13.939  0.0268 -0.1979 -0.3787
11382TIP3    H155637   1.407   1.033  14.020 -0.9647 -2.1903  0.9944
11382TIP3    H255638   1.276   0.998  13.953 -0.2145  0.0131 -1.8201
11383TIP3   OH255639   5.803   4.295  12.717 -0.0869  0.2096 -0.0352
11383TIP3    H155640   5.753   4.375  12.733  0.0625  0.0320  1.4790
11383TIP3    H255641   5.823   4.261  12.805 -0.3239 -1.5917 -0.6218
11384TIP3   OH255642   5.822   5.295   2.859 -0.8138  0.1546 -0.1868
11384TIP3    H155643   5.774   5.212   2.855  0.2122 -0.4475 -0.4044
11384TIP3    H255644   5.856   5.308   2.770  0.7783 -0.2710  0.3303
11385TIP3   OH255645   6.569   6.230   0.175 -0.3905  0.2010  0.8013
11385TIP3    H155646   6.496   6.292   0.181 -0.7232  0.2362 -1.9830
11385TIP3    H255647   6.636   6.267   0.232 -2.0369  0.8746  2.4265
11386TIP3   OH255648   6.484   4.122   0.134  0.3288  0.3042 -0.0851
11386TIP3    H155649   6.402   4.096   0.091  0.0640 -0.6174  0.9211
11386TIP3    H255650   6.490   4.216   0.120  0.2907  0.0316 -2.1683
11387TIP3   OH255651   6.119   5.874   4.119 -0.5179  0.2785  0.6895
11387TIP3    H155652   6.046   5.831   4.165 -0.7802  1.6009  1.5518
11387TIP3    H255653   6.151   5.939   4.181  1.3435 -0.1926  0.2671
11388TIP3   OH255654   1.220   3.706   3.523 -0.2557  0.1619  0.1295
11388TIP3    H155655   1.268   3.707   3.440 -2.0057  1.9366 -0.9477
11388TIP3    H255656   1.285   3.733   3.589  0.5171  1.4468 -1.1032
11389TIP3   OH255657   2.307   5.782   1.355 -0.0491  0.1075  0.0970
11389TIP3    H155658   2.248   5.775   1.430 -1.5988  0.3336 -1.0372
11389TIP3    H255659   2.373   5.715   1.370 -1.9521 -1.8572  0.3002
11390TIP3   OH255660   6.382   0.297   2.341 -0.1954 -0.4533  0.1346
11390TIP3    H155661   6.347   0.208   2.330  0.2522 -0.4653 -1.4176
11390TIP3    H255662   6.353   0.344   2.263 -0.6189  0.8476  1.0487
11391TIP3   OH255663   1.325   3.378  11.023 -0.0752 -0.6229  0.2843
11391TIP3    H155664   1.231   3.372  11.008 -0.3244  0.1715  1.4546
11391TIP3    H255665   1.351   3.289  11.048 -0.1745 -1.2678 -1.7169
11392TIP3   OH255666   5.648   6.412   2.522  0.8472 -0.1999  0.2515
11392TIP3    H155667   5.658   6.458   2.605 -1.1724 -0.3159  0.6185
11392TIP3    H255668   5.554   6.420   2.502  0.9412 -1.8530 -1.0180
11393TIP3   OH255669   2.283   3.050  14.333  0.1302 -0.3321 -0.1117
11393TIP3    H155670   2.192   3.030  14.358  0.3588 -0.1119  0.9327
11393TIP3    H255671   2.299   3.137  14.368  0.3568  0.1568 -1.3882
11394TIP3   OH255672   5.762   4.502   5.478 -0.2943  0.4109 -0.0827
11394TIP3    H155673   5.780   4.462   5.394 -0.9819 -1.1737  0.4821
11394TIP3    H255674   5.667   4.492   5.490  0.0067 -0.9599  1.6049
11395TIP3   OH255675   3.717   0.479  12.018 -0.3137  0.0625 -0.2184
11395TIP3    H155676   3.711   0.511  11.928 -0.9013  0.8678  0.0968
11395TIP3    H255677   3.676   0.392  12.016  1.3166 -0.7240 -1.0851
11396TIP3   OH255678   6.815   5.823  15.605 -0.5335 -0.5223  0.1111
11396TIP3    H155679   6.755   5.876  15.553  1.0263  0.6223 -0.6139
11396TIP3    H255680   6.825   5.742  15.554 -2.0308 -1.0602  0.6356
11397TIP3   OH255681   4.047   2.136   4.825 -0.1694 -0.1204 -0.1166
11397TIP3    H155682   4.016   2.046   4.811 -1.7391 -0.2897  3.4199
11397TIP3    H255683   4.130   2.125   4.872  0.1752  0.2982 -0.6243
11398TIP3   OH255684   5.118   2.138   3.570  0.1631 -0.0728 -0.2054
11398TIP3    H155685   5.143   2.045   3.571 -0.2988 -0.2121 -0.9729
11398TIP3    H255686   5.029   2.139   3.534  0.2913  0.6933 -0.5219
11399TIP3   OH255687   4.508   4.515  13.139  0.2932 -0.1851  0.4089
11399TIP3    H155688   4.566   4.456  13.186 -0.5588 -1.8371 -0.5046
11399TIP3    H255689   4.565   4.563  13.079  0.8636 -0.9256  0.3471
11400TIP3   OH255690   4.634   5.102  16.340 -0.0991 -0.0818 -0.0323
11400TIP3    H155691   4.689   5.177  16.317  1.1570 -1.1281 -0.6319
11400TIP3    H255692   4.614   5.061  16.256 -1.0731 -0.2111  0.2585
11401TIP3   OH255693   1.035   5.082   3.787  0.0765  0.0616  0.4297
11401TIP3    H155694   0.976   5.081   3.862 -2.2474 -0.5185 -1.2876
11401TIP3    H255695   1.037   4.992   3.756 -2.3845  0.8268 -2.5338
11402TIP3   OH255696   6.543   2.463   4.847 -0.3046 -0.4406 -0.6718
11402TIP3    H155697   6.629   2.462   4.805  1.1591 -0.3259  2.0853
11402TIP3    H255698   6.489   2.406   4.792  1.3240 -0.0365 -2.8253
11403TIP3   OH255699   5.271   0.524  16.835 -0.1977 -0.3190  0.6480
11403TIP3    H155700   5.200   0.463  16.858 -0.9435  0.4739  0.5225
11403TIP3    H255701   5.264   0.534  16.740 -0.3585  0.2851  0.7186
11404TIP3   OH255702   1.147   4.553  13.093 -0.2357  0.4595 -0.5467
11404TIP3    H155703   1.218   4.496  13.121 -0.8603  0.7159  1.7697
11404TIP3    H255704   1.179   4.593  13.011  2.2342  0.4845  0.3335
11405TIP3   OH255705   4.278   2.571   4.444 -0.1476 -0.4613 -0.5326
11405TIP3    H155706   4.193   2.587   4.403 -0.0510 -1.3410 -1.1241
11405TIP3    H255707   4.263   2.585   4.538 -1.1385 -1.2887 -0.5421
11406TIP3   OH255708   4.578   1.742  16.969  0.3262 -0.6139  0.3846
11406TIP3    H155709   4.608   1.833  16.965  0.8967 -0.6895  2.1983
11406TIP3    H255710   4.647   1.692  16.926  1.6664 -0.5184  2.3432
11407TIP3   OH255711   4.588   4.434   0.613  0.1711 -0.6282  0.0322
11407TIP3    H155712   4.676   4.456   0.643 -0.9037 -0.1998  3.2463
11407TIP3    H255713   4.531   4.499   0.654 -1.6874 -0.6895 -2.2056
11408TIP3   OH255714   1.163   6.310  12.561  0.8750  0.4621  0.6095
11408TIP3    H155715   1.238   6.260  12.594  1.5620  1.4838  0.6629
11408TIP3    H255716   1.106   6.321  12.637  1.2090  0.6076  0.8417
11409TIP3   OH255717   5.402   0.397  16.378  0.1737 -0.0528 -0.5602
11409TIP3    H155718   5.362   0.317  16.412 -1.8041  0.8948 -0.5128
11409TIP3    H255719   5.495   0.389  16.402 -0.4992 -0.9294  2.1835
11410TIP3   OH255720   6.512   3.239   5.723  0.2250  0.1879  0.0406
11410TIP3    H155721   6.501   3.295   5.799 -1.9513  2.2211 -1.6130
11410TIP3    H255722   6.531   3.153   5.759  2.0146  1.5537  2.7620
11411TIP3   OH255723   0.404   1.599  11.569  0.1439 -0.0904 -0.0668
11411TIP3    H155724   0.318   1.633  11.546  0.6453  0.7337 -0.7552
11411TIP3    H255725   0.401   1.592  11.665 -0.8471 -0.5339 -0.1157
11412TIP3   OH255726   1.557   6.031   2.724  0.2477  0.6534  0.6012
11412TIP3    H155727   1.518   6.055   2.808  0.6299  2.1718  0.3761
11412TIP3    H255728   1.496   6.064   2.658 -0.1591 -0.7203  0.2495
11413TIP3   OH255729   1.057   0.424  13.877  0.0516  0.1025 -0.3179
11413TIP3    H155730   1.022   0.366  13.945  0.7015 -0.2479 -0.2758
11413TIP3    H255731   1.149   0.437  13.901  1.0532 -2.1463 -2.5285
11414TIP3   OH255732   2.130   3.155   0.168 -0.1192 -0.1982 -0.3359
11414TIP3    H155733   2.067   3.161   0.097  0.3534  2.8118 -0.6638
11414TIP3    H255734   2.214   3.179   0.128  0.4042  0.2059  0.9349
11415TIP3   OH255735   4.685   3.233  14.440  0.2436  0.2583 -0.5943
11415TIP3    H155736   4.772   3.237  14.480 -0.1623  0.0960  0.3423
11415TIP3    H255737   4.696   3.174  14.365  0.6318 -0.9550  0.3786
11416TIP3   OH255738   3.417   4.353   1.563 -0.0575 -0.7896 -0.0640
11416TIP3    H155739   3.457   4.411   1.497  2.7861 -1.5041  0.8802
11416TIP3    H255740   3.344   4.403   1.598  1.9682  2.1453  0.3668
11417TIP3   OH255741   6.658   0.980   2.606 -0.0441  0.8896 -0.3319
11417TIP3    H155742   6.751   0.959   2.598  0.1415  1.3889  0.4674
11417TIP3    H255743   6.616   0.897   2.625  0.1294  0.5275 -1.4381
11418TIP3   OH255744   0.709   4.014   2.386  0.1362  0.0317 -0.1336
11418TIP3    H155745   0.731   4.106   2.373  2.0815 -0.3899 -0.1787
11418TIP3    H255746   0.618   4.015   2.413  0.3956  2.0469  0.8665
11419TIP3   OH255747   2.678   4.978   4.962  0.3743 -0.7322 -1.2157
11419TIP3    H155748   2.701   5.050   5.020 -4.1651 -0.2532  0.3609
11419TIP3    H255749   2.714   4.900   5.005 -1.4780 -0.1958  1.5293
11420TIP3   OH255750   3.083   4.007   2.416 -0.6104 -0.2894 -0.9829
11420TIP3    H155751   3.159   4.048   2.375  0.3852  0.1232  1.1167
11420TIP3    H255752   3.026   4.081   2.439  0.4975 -0.0943  1.4633
11421TIP3   OH255753   6.807   1.221   2.036 -0.7954  0.3594 -0.0189
11421TIP3    H155754   6.750   1.268   2.097 -1.2073  0.1768 -0.2584
11421TIP3    H255755   6.748   1.191   1.967 -0.3391  0.5441 -0.4952
11422TIP3   OH255756   0.990   6.134  15.020 -0.5898  0.1805 -0.0376
11422TIP3    H155757   1.075   6.171  15.042  0.6553 -0.7808 -2.8216
11422TIP3    H255758   0.974   6.068  15.088  1.1489  0.0003  0.2358
11423TIP3   OH255759   1.372   5.424   2.799  0.1841 -0.0513 -0.0495
11423TIP3    H155760   1.292   5.476   2.797  0.1407 -0.0708 -2.8834
11423TIP3    H255761   1.346   5.337   2.769  1.0738 -0.3790  0.0754
11424TIP3   OH255762   3.375   3.439  13.355  0.7179  0.0597  0.2841
11424TIP3    H155763   3.454   3.470  13.400  1.5524  0.3760 -1.3423
11424TIP3    H255764   3.374   3.345  13.373  3.1267 -0.5232 -1.9983
11425TIP3   OH255765   3.589   2.876   1.226 -0.2240 -0.1809 -0.1653
11425TIP3    H155766   3.545   2.821   1.161  0.5181  0.6618 -1.4304
11425TIP3    H255767   3.521   2.936   1.258 -0.7623 -1.0655  0.3884
11426TIP3   OH255768   0.417   2.560   4.340  0.2849 -0.0828 -0.2668
11426TIP3    H155769   0.424   2.559   4.436  0.9926  0.4196 -0.3075
11426TIP3    H255770   0.337   2.610   4.323  0.7382  0.7799  0.0472
11427TIP3   OH255771   6.485   2.504   6.329  0.4618  0.0977  0.1636
11427TIP3    H155772   6.512   2.448   6.402 -1.1807 -0.5411  0.3228
11427TIP3    H255773   6.389   2.494   6.325  0.3625  1.2749 -1.1383
11428TIP3   OH255774   0.285   1.198   2.662 -0.9247  0.2545  0.0307
11428TIP3    H155775   0.218   1.260   2.635 -0.5782  1.2598  1.3843
11428TIP3    H255776   0.330   1.241   2.735  1.3812 -0.2796 -0.9938
11429TIP3   OH255777   4.910   5.066   0.854 -0.2023  0.2859  0.0523
11429TIP3    H155778   4.967   5.133   0.893  0.8368  1.6287 -3.4255
11429TIP3    H255779   4.956   4.984   0.870  1.9723  1.1681 -1.2724
11430TIP3   OH255780   6.736   0.963  15.028  0.0278 -0.4165  0.5770
11430TIP3    H155781   6.739   1.029  14.959 -0.2911  0.2437  1.1813
11430TIP3    H255782   6.803   0.899  15.004  0.0549 -0.0867 -0.2327
11431TIP3   OH255783   6.187   6.382   3.005  0.7580  0.3897  0.1190
11431TIP3    H155784   6.157   6.297   3.038  1.3009  0.0888 -0.1574
11431TIP3    H255785   6.135   6.396   2.926  1.0100  0.0850 -0.1038
11432TIP3   OH255786   0.886   2.412   4.976 -0.6368 -0.2200 -0.1878
11432TIP3    H155787   0.936   2.394   4.897 -0.9805  1.0292 -0.7091
11432TIP3    H255788   0.866   2.506   4.972 -2.0734 -0.4581  0.5478
11433TIP3   OH255789   1.741   5.415  16.464 -0.1988 -0.3775  0.2167
11433TIP3    H155790   1.809   5.476  16.490 -0.3845 -0.4192  0.7996
11433TIP3    H255791   1.751   5.407  16.369 -1.9605  2.7197 -0.3640
11434TIP3   OH255792   2.256   6.605  15.565  0.2420 -0.3795  0.0744
11434TIP3    H155793   2.194   6.544  15.605 -0.0650  0.5044  0.9983
11434TIP3    H255794   2.213   6.691  15.574  0.6548 -0.0255 -1.2040
11435TIP3   OH255795   6.566   0.083   2.157 -0.4295 -0.0358  0.6817
11435TIP3    H155796   6.495   0.046   2.105  0.6412  0.8926 -1.5507
11435TIP3    H255797   6.522   0.114   2.237 -2.7401  1.3827 -1.0092
11436TIP3   OH255798   4.460   5.855   0.808 -0.3503 -0.4338  0.1305
11436TIP3    H155799   4.377   5.873   0.852 -0.8417 -1.2556 -0.4306
11436TIP3    H255800   4.477   5.933   0.755 -1.4186 -0.7596 -0.7271
11437TIP3   OH255801   2.771   6.067  12.329  0.2188 -0.0443 -0.0225
11437TIP3    H155802   2.792   5.983  12.288 -0.6139  0.2925 -1.1840
11437TIP3    H255803   2.791   6.053  12.422 -0.8020 -1.8476 -0.0239
11438TIP3   OH255804   3.748   1.439   3.630  0.0402  0.4062  0.2319
11438TIP3    H155805   3.709   1.408   3.548 -0.6070  0.1816  0.6152
11438TIP3    H255806   3.789   1.522   3.607 -0.4008  0.4962 -0.2567
11439TIP3   OH255807   2.589   3.986  14.159  0.0956 -0.4352 -0.3512
11439TIP3    H155808   2.527   3.914  14.161 -1.6669  1.0133  1.0414
11439TIP3    H255809   2.664   3.954  14.209 -0.8932 -1.1227  0.7453
11440TIP3   OH255810   5.131   4.136  13.341 -0.0462  0.3400 -0.1887
11440TIP3    H155811   5.100   4.115  13.253 -2.5451  1.0146  0.4479
11440TIP3    H255812   5.161   4.052  13.376 -2.1395 -0.6305 -0.5640
11441TIP3   OH255813   1.402   6.557   0.549  0.0916  0.0245  0.5017
11441TIP3    H155814   1.421   6.467   0.572  0.8036 -0.0312 -0.2869
11441TIP3    H255815   1.487   6.600   0.545 -0.1676  0.4977 -0.0747
11442TIP3   OH255816   6.420   4.784   3.111  0.7887 -0.5408  0.2883
11442TIP3    H155817   6.404   4.804   3.203  1.8294  0.5827  0.2586
11442TIP3    H255818   6.499   4.834   3.089  0.8591 -1.1944 -1.0784
11443TIP3   OH255819   6.628   6.167   1.336  0.0084 -1.1267  0.2049
11443TIP3    H155820   6.543   6.174   1.294  0.9050  1.8236 -1.4358
11443TIP3    H255821   6.658   6.079   1.315 -2.7308 -2.4002  1.1924
11444TIP3   OH255822   2.157   5.354  14.546  0.2240 -0.0638  0.1334
11444TIP3    H155823   2.231   5.364  14.606 -0.2961  0.2500  0.7280
11444TIP3    H255824   2.138   5.442  14.515  1.6001 -0.4006 -1.8825
11445TIP3   OH255825   5.129   6.583   3.654  0.7091  0.1452  0.2864
11445TIP3    H155826   5.152   6.606   3.564  0.5802  0.0823  0.2362
11445TIP3    H255827   5.108   6.667   3.695  1.4680  0.2552  0.4642
11446TIP3   OH255828   4.802   4.955  12.013  0.2242  0.2517  0.1064
11446TIP3    H155829   4.788   4.874  11.965 -1.4011  0.7035 -0.2265
11446TIP3    H255830   4.808   5.022  11.945 -2.1514  0.9100  0.4804
11447TIP3   OH255831   2.736   5.542   4.969 -0.3587  0.0142 -0.2995
11447TIP3    H155832   2.808   5.489   4.934 -0.5237 -1.1074  0.9757
11447TIP3    H255833   2.661   5.483   4.970 -0.7311  0.4771  0.4759
11448TIP3   OH255834   4.285   1.511  15.477  0.2287 -0.8791 -0.4229
11448TIP3    H155835   4.260   1.593  15.520  2.0658 -1.0388  1.1155
11448TIP3    H255836   4.373   1.529  15.442  0.8490 -2.3037  0.3492
11449TIP3   OH255837   3.403   6.705  15.825 -0.8211 -0.1735  0.1757
11449TIP3    H155838   3.425   6.627  15.775 -4.2737 -2.3462  1.6511
11449TIP3    H255839   3.307   6.703  15.831 -0.8757  2.8514  2.3479
11450TIP3   OH255840   0.073   3.395   5.016  0.0764  0.4584 -0.3704
11450TIP3    H155841   0.005   3.330   4.998 -0.1840  0.6838 -0.2017
11450TIP3    H255842   0.150   3.361   4.971  0.0872 -0.2397  0.1696
11451TIP3   OH255843   2.033   1.477  12.013  0.0345 -0.2474  0.3723
11451TIP3    H155844   2.055   1.513  12.099  0.1559  1.1493 -0.2064
11451TIP3    H255845   1.942   1.448  12.021  0.2111 -0.6229  1.1107
11452TIP3   OH255846   4.671   6.513   2.134  0.4603 -0.2599 -0.0070
11452TIP3    H155847   4.702   6.426   2.159  1.9194 -0.2571 -1.6078
11452TIP3    H255848   4.695   6.569   2.207  0.8277 -0.9440  0.4117
11453TIP3   OH255849   2.231   3.779  11.530  0.3693 -0.0408 -0.9678
11453TIP3    H155850   2.228   3.874  11.519  1.8219  0.9323  4.3096
11453TIP3    H255851   2.142   3.754  11.553 -0.0310 -0.1081 -2.4362
11454TIP3   OH255852   3.370   5.852   3.331  0.6177  0.0977 -0.1606
11454TIP3    H155853   3.287   5.850   3.379  0.8533  1.6407  0.3842
11454TIP3    H255854   3.344   5.856   3.239  0.1486 -2.0213 -0.1766
11455TIP3   OH255855   5.411   3.447   1.755  0.2620  0.1402 -0.0350
11455TIP3    H155856   5.478   3.511   1.729 -0.4291  1.0703  0.4400
11455TIP3    H255857   5.461   3.366   1.770  1.5608  1.1983  1.8825
11456TIP3   OH255858   3.763   1.606   4.840 -0.4561 -0.4328 -0.6995
11456TIP3    H155859   3.742   1.694   4.811 -0.3957 -0.6848 -1.5440
11456TIP3    H255860   3.847   1.614   4.886 -0.8122  0.0591 -0.1184
11457TIP3   OH255861   5.954   0.432   1.418  0.3546 -0.5880 -0.4114
11457TIP3    H155862   5.871   0.463   1.382 -0.4917 -1.0071  1.0629
11457TIP3    H255863   5.973   0.351   1.371 -0.2442 -0.6425 -0.5676
11458TIP3   OH255864   1.877   4.104   2.885 -0.1362 -0.2786  0.0461
11458TIP3    H155865   1.843   4.041   2.822  1.2014 -0.5334 -0.4742
11458TIP3    H255866   1.874   4.188   2.840  1.4265 -0.5616 -0.6444
11459TIP3   OH255867   1.166   4.906  15.145 -0.5551  0.3870 -0.5978
11459TIP3    H155868   1.079   4.869  15.161 -0.7375  0.3662 -1.5759
11459TIP3    H255869   1.150   4.999  15.127 -0.3184  0.4965 -0.2492
11460TIP3   OH255870   2.125   0.786  14.828 -0.3389  0.3255 -0.3957
11460TIP3    H155871   2.097   0.836  14.751  0.4375 -0.0590 -0.9483
11460TIP3    H255872   2.085   0.700  14.817 -2.0672  0.9191  0.7992
11461TIP3   OH255873   6.516   3.994  14.526 -0.1900  0.1416 -0.5451
11461TIP3    H155874   6.554   3.921  14.574 -1.8067 -0.6481 -0.3987
11461TIP3    H255875   6.508   3.963  14.436  0.7905  0.8103 -0.8724
11462TIP3   OH255876   5.770   0.952   6.167  0.5663 -0.3104 -0.1537
11462TIP3    H155877   5.690   0.958   6.116  1.5385  0.0147 -1.6897
11462TIP3    H255878   5.816   1.034   6.150  1.5874 -0.8101  0.0754
11463TIP3   OH255879   3.210   0.446   5.822  0.2302  0.2725 -0.5703
11463TIP3    H155880   3.140   0.421   5.881  0.8297  0.6981  0.3501
11463TIP3    H255881   3.181   0.417   5.735 -1.1189  0.5563 -0.2272
11464TIP3   OH255882   3.713   0.844  14.094  0.1961 -0.4697 -0.6518
11464TIP3    H155883   3.670   0.893  14.164  1.0605  0.7721 -0.9503
11464TIP3    H255884   3.643   0.792  14.054 -0.3952 -0.8356  0.8132
11465TIP3   OH255885   2.355   2.066   2.997 -0.3754 -0.3151 -0.1652
11465TIP3    H155886   2.266   2.077   2.963 -0.4465  0.1673  0.1570
11465TIP3    H255887   2.375   1.974   2.983 -1.1261 -0.5451  0.2421
11466TIP3   OH255888   1.056   0.880  15.665 -1.1000  0.0429  0.0366
11466TIP3    H155889   1.133   0.923  15.702 -0.0740  0.6082 -2.5362
11466TIP3    H255890   1.086   0.792  15.642 -2.5233 -1.3609  3.0163
11467TIP3   OH255891   3.758   6.344  14.990  0.3161 -0.6093 -0.3697
11467TIP3    H155892   3.738   6.258  14.954 -1.3449 -0.3506 -0.1255
11467TIP3    H255893   3.692   6.358  15.058  1.4652  0.2488  0.6080
11468TIP3   OH255894   6.738   5.949  16.828  0.3620  0.3879  0.0643
11468TIP3    H155895   6.811   5.932  16.769  0.6530  1.5591  0.0560
11468TIP3    H255896   6.705   6.034  16.801 -1.2874 -0.3072 -0.1966
11469TIP3   OH255897   3.829   3.676  14.056  0.3867 -0.3391 -0.4246
11469TIP3    H155898   3.775   3.597  14.063  0.0770  0.0036  1.8806
11469TIP3    H255899   3.919   3.644  14.058  0.2760 -0.7373 -1.4203
11470TIP3   OH255900   2.443   6.749  14.876  0.2950  0.3282 -0.1419
11470TIP3    H155901   2.419   6.688  14.946  0.2716  0.4269 -0.0636
11470TIP3    H255902   2.441   6.696  14.796  2.6583 -0.3902  0.1907
11471TIP3   OH255903   4.519   4.687  12.755 -0.3677 -0.8920 -0.8902
11471TIP3    H155904   4.523   4.762  12.814  0.3487 -0.8105 -1.0348
11471TIP3    H255905   4.426   4.677  12.735 -0.5266 -0.4023 -0.4141
11472TIP3   OH255906   4.991   2.692  10.831 -0.0276 -0.3621  0.4223
11472TIP3    H155907   4.931   2.755  10.791  2.2281  0.4547 -1.9749
11472TIP3    H255908   5.008   2.628  10.762  0.2228 -1.8118  1.7631
11473TIP3   OH255909   3.772   5.407   2.424 -0.0733  0.1762 -0.4491
11473TIP3    H155910   3.800   5.495   2.450 -1.6005  0.6080 -0.2122
11473TIP3    H255911   3.692   5.421   2.373  0.4382 -0.9803 -1.6291
11474TIP3   OH255912   0.812   6.517  14.224 -0.0565 -0.2074 -0.0450
11474TIP3    H155913   0.765   6.454  14.168 -0.5262 -1.1670  1.3571
11474TIP3    H255914   0.888   6.543  14.173 -0.9589 -0.3065 -1.5020
11475TIP3   OH255915   6.795   6.697   5.613  0.4295 -0.1732 -0.4441
11475TIP3    H155916   6.744   6.648   5.550  0.2919 -3.2966  1.8608
11475TIP3    H255917   6.743   6.694   5.694  2.0494  0.7539  0.6964
11476TIP3   OH255918   4.387   6.574   2.144  0.1132  0.1230  0.4085
11476TIP3    H155919   4.482   6.563   2.156 -0.0582 -2.2050  0.0631
11476TIP3    H255920   4.358   6.491   2.106 -1.5443  1.9924 -2.9133
11477TIP3   OH255921   5.140   6.042   3.141 -0.2745  0.5005 -0.2180
11477TIP3    H155922   5.198   6.047   3.216  0.4878  0.3402 -0.7802
11477TIP3    H255923   5.171   5.965   3.093 -0.0915  1.1790 -1.2170
11478TIP3   OH255924   4.795   3.015   5.544 -0.4344 -0.2228  0.0799
11478TIP3    H155925   4.711   3.033   5.586 -0.7115 -3.5992  1.3246
11478TIP3    H255926   4.858   3.013   5.615  0.5814  1.2929 -0.7208
11479TIP3   OH255927   3.273   0.270  15.965  0.1091  0.4208  0.3853
11479TIP3    H155928   3.272   0.364  15.983 -1.6828  0.4488  0.3511
11479TIP3    H255929   3.357   0.255  15.923  0.8775  1.8157  1.3272
11480TIP3   OH255930   5.721   3.655   2.661 -0.0084  0.4204  0.2305
11480TIP3    H155931   5.653   3.596   2.693  0.4671  0.6501  1.7276
11480TIP3    H255932   5.788   3.596   2.626  1.1727 -0.1178  3.0989
11481TIP3   OH255933   3.258   3.694   1.095 -0.4135  0.5349 -0.6072
11481TIP3    H155934   3.280   3.783   1.067 -0.5862  1.1900  1.2001
11481TIP3    H255935   3.282   3.691   1.188  1.5032 -1.9508 -1.0492
11482TIP3   OH255936   0.725   5.359  11.863  0.2536  0.0324 -0.8906
11482TIP3    H155937   0.819   5.343  11.857  0.5415 -0.2551  2.6175
11482TIP3    H255938   0.694   5.298  11.930 -2.0612  1.5614 -0.4625
11483TIP3   OH255939   2.110   1.975  15.176 -0.7841  0.2830  0.0543
11483TIP3    H155940   2.043   1.947  15.113  0.3716 -0.8094 -0.7457
11483TIP3    H255941   2.117   1.901  15.237  0.7869 -0.3381 -0.8178
11484TIP3   OH255942   4.813   2.761   1.162  0.2041 -0.2771  0.7822
11484TIP3    H155943   4.766   2.837   1.198 -1.5944 -1.1433  0.3908
11484TIP3    H255944   4.855   2.722   1.238  1.9409  1.5784  0.8644
11485TIP3   OH255945   2.861   6.720  12.308 -0.5027  0.1021 -0.2411
11485TIP3    H155946   2.949   6.748  12.281 -0.5957  1.9057  1.0933
11485TIP3    H255947   2.854   6.629  12.279  2.7020 -0.8999  1.6375
11486TIP3   OH255948   2.241   1.021  16.805  0.1246 -0.0265 -0.5307
11486TIP3    H155949   2.181   0.954  16.772 -1.4461  0.5799  0.9277
11486TIP3    H255950   2.212   1.102  16.763 -1.5367  0.6510  1.7115
11487TIP3   OH255951   4.304   2.369  15.014  0.0448 -0.4763 -0.4133
11487TIP3    H155952   4.346   2.289  15.046  0.9785  0.5691  1.0799
11487TIP3    H255953   4.239   2.390  15.081 -2.2738 -1.4999 -2.1948
11488TIP3   OH255954   5.892   1.106  12.047 -1.0633  0.3219 -0.2501
11488TIP3    H155955   5.854   1.019  12.036  0.4301 -0.6801  1.8876
11488TIP3    H255956   5.823   1.157  12.089 -0.5381 -1.2154  2.7613
11489TIP3   OH255957   5.092   5.446   1.187  0.5212 -0.1642  0.2529
11489TIP3    H155958   5.034   5.450   1.263  0.9099  0.6092  0.5261
11489TIP3    H255959   5.157   5.514   1.204 -0.1592  0.9370 -1.4211
11490TIP3   OH255960   3.454   4.047  12.919  0.0367  0.2948  0.7733
11490TIP3    H155961   3.400   3.982  12.875  0.5712 -1.8299  3.0081
11490TIP3    H255962   3.394   4.120  12.936 -0.8633 -0.0092 -0.9264
11491TIP3   OH255963   2.823   5.657   6.151 -0.1364 -0.2583 -0.2021
11491TIP3    H155964   2.791   5.569   6.170 -1.2869 -0.1151 -1.3788
11491TIP3    H255965   2.855   5.689   6.236  1.6224 -2.2971 -0.0125
11492TIP3   OH255966   1.796   4.563  14.468  0.4753  0.0447  0.1969
11492TIP3    H155967   1.719   4.575  14.412  1.1870 -0.1469 -0.8400
11492TIP3    H255968   1.812   4.650  14.506 -1.8934 -0.4599  2.6844
11493TIP3   OH255969   2.965   2.586   5.357 -0.2417  0.0673 -0.2468
11493TIP3    H155970   3.035   2.520   5.355 -1.3718 -1.5290  3.4371
11493TIP3    H255971   2.884   2.535   5.362 -1.2115  1.6471  2.0346
11494TIP3   OH255972   1.350   2.575   0.198 -0.2123  0.1025 -0.7709
11494TIP3    H155973   1.436   2.569   0.157  1.3296  0.0766  2.1779
11494TIP3    H255974   1.296   2.513   0.148  1.6180 -0.3521 -2.3383
11495TIP3   OH255975   1.549   5.974   1.089  0.6237 -0.4218  0.3500
11495TIP3    H155976   1.619   6.015   1.140  0.8009  1.9199 -1.6146
11495TIP3    H255977   1.576   5.882   1.082  3.1888  0.2708  0.2210
11496TIP3   OH255978   3.763   6.782   0.902 -0.3032  0.1499 -0.1747
11496TIP3    H155979   3.690   6.724   0.925 -0.5280  0.9033  1.0757
11496TIP3    H255980   3.825   6.725   0.857 -1.1994 -0.7253 -0.3494
11497TIP3   OH255981   5.415   6.451  15.841 -0.0456  0.7599 -0.6608
11497TIP3    H155982   5.490   6.478  15.788  2.2137 -2.4434  0.5641
11497TIP3    H255983   5.375   6.380  15.791  0.2532 -0.2407  0.4775
11498TIP3   OH255984   1.492   2.736  13.268 -0.2961  0.1669  0.1251
11498TIP3    H155985   1.479   2.772  13.180 -0.5045  0.3245  0.2186
11498TIP3    H255986   1.573   2.777  13.299 -1.6069  2.2494  1.0578
11499TIP3   OH255987   3.186   2.104   1.351  0.7718  0.1751 -0.6594
11499TIP3    H155988   3.149   2.069   1.269  1.0032  0.6503 -0.9741
11499TIP3    H255989   3.231   2.185   1.324 -2.6158  2.6803  0.4616
11500TIP3   OH255990   2.985   6.660   0.036  0.6722  0.3898  0.3552
11500TIP3    H155991   3.061   6.637   0.089  0.8441  0.4510  0.1376
11500TIP3    H255992   2.913   6.665   0.098  0.4748 -1.4340  0.3256
11501TIP3   OH255993   2.221   6.108   3.138  0.3506  0.2527  0.0962
11501TIP3    H155994   2.131   6.087   3.111 -0.3175  0.7468  1.8155
11501TIP3    H255995   2.273   6.092   3.059 -1.1774 -0.4183 -0.8439
11502TIP3   OH255996   3.336   5.320   1.944 -0.6820  0.0705  0.5060
11502TIP3    H155997   3.383   5.403   1.939 -0.5066 -0.0759 -1.1062
11502TIP3    H255998   3.264   5.336   2.004 -1.3101  1.7524 -0.6262
11503TIP3   OH255999   6.137   3.607  15.891 -0.2008 -1.0035 -0.0869
11503TIP3    H156000   6.138   3.514  15.915  0.9925 -0.8042  0.7437
11503TIP3    H256001   6.229   3.630  15.882 -0.5096 -0.0899 -1.1332
11504TIP3   OH256002   2.784   1.952   2.264 -0.3251  0.6890 -0.5508
11504TIP3    H156003   2.780   2.026   2.325 -1.9377  0.6198 -0.5258
11504TIP3    H256004   2.847   1.979   2.197  2.1627  0.4252  1.5370
11505TIP3   OH256005   0.394   6.410  15.841 -0.4970 -0.2646 -0.1545
11505TIP3    H156006   0.305   6.444  15.835 -0.4182  0.2662  1.3817
11505TIP3    H256007   0.409   6.367  15.757 -1.4328  1.4752 -1.2721
11506TIP3   OH256008   3.503   2.640  16.774 -0.0266 -0.4020  0.2455
11506TIP3    H156009   3.413   2.634  16.744  0.0242  0.3612 -0.0882
11506TIP3    H256010   3.534   2.549  16.777 -0.6017 -0.6207 -0.2666
11507TIP3   OH256011   3.300   5.972  16.122  0.2446 -0.6483 -0.6082
11507TIP3    H156012   3.385   6.010  16.144  1.0231 -2.0535 -1.0599
11507TIP3    H256013   3.303   5.883  16.156 -1.7601 -0.2127  0.9491
11508TIP3   OH256014   6.226   0.945   5.855  0.1475 -0.6953  0.2581
11508TIP3    H156015   6.203   1.013   5.793 -1.4654 -1.1550  0.2973
11508TIP3    H256016   6.213   0.985   5.941  0.7953 -0.5580  0.2953
11509TIP3   OH256017   4.399   2.415  15.585 -0.4629  0.5281 -0.1767
11509TIP3    H156018   4.315   2.431  15.628 -0.0122 -0.4805  1.1611
11509TIP3    H256019   4.430   2.502  15.561 -1.4090  1.0051  0.2610
11510TIP3   OH256020   0.957   3.994   1.307 -0.7695 -0.0202 -0.0753
11510TIP3    H156021   1.037   4.021   1.352 -0.2329 -0.4092 -0.7864
11510TIP3    H256022   0.981   3.914   1.260 -1.6907 -0.3796  0.0485
11511TIP3   OH256023   2.615   3.211   1.865  0.1658  0.8018 -0.2555
11511TIP3    H156024   2.593   3.302   1.883 -2.2888  0.5411 -1.4935
11511TIP3    H256025   2.706   3.214   1.837 -0.3034  3.1687 -1.8676
11512TIP3   OH256026   1.389   5.053  15.358 -0.0190  0.0159  0.7843
11512TIP3    H156027   1.445   5.103  15.418  0.4693  0.2610  0.1317
11512TIP3    H256028   1.369   4.973  15.407  0.9200 -0.0891  1.0259
11513TIP3   OH256029   2.182   4.857  11.628  0.0442  0.1079 -0.1419
11513TIP3    H156030   2.272   4.882  11.647 -0.4281  1.2075  0.7409
11513TIP3    H256031   2.135   4.940  11.618 -0.7873 -0.4519 -1.0213
11514TIP3   OH256032   2.671   4.385  14.753  0.1879 -0.1370  0.2340
11514TIP3    H156033   2.685   4.473  14.718 -0.3599  0.0609  0.4963
11514TIP3    H256034   2.758   4.346  14.756  0.5802  0.7688  1.1055
11515TIP3   OH256035   2.633   6.752   4.958 -0.2610 -0.2292  0.1217
11515TIP3    H156036   2.644   6.833   5.009 -0.9637 -0.6661  0.9991
11515TIP3    H256037   2.595   6.690   5.020  2.3665 -1.9814  0.1574
11516TIP3   OH256038   5.432   2.278   2.999  0.2749 -0.0666  0.5829
11516TIP3    H156039   5.480   2.317   2.925 -1.9698  0.4990 -0.6729
11516TIP3    H256040   5.496   2.276   3.070  2.4848 -0.4662 -1.2969
11517TIP3   OH256041   2.342   5.436   2.556 -0.3217  0.0293 -0.4135
11517TIP3    H156042   2.407   5.440   2.626 -1.1721 -2.1173  0.5744
11517TIP3    H256043   2.393   5.444   2.475  0.6967  2.3969  0.3727
11518TIP3   OH256044   5.916   2.351  12.140  0.0042 -0.0510 -0.3663
11518TIP3    H156045   6.011   2.357  12.133  0.0901 -0.6463  0.1847
11518TIP3    H256046   5.893   2.276  12.085 -0.2482  0.6395 -1.2168
11519TIP3   OH256047   1.201   4.785  12.254  0.2485  0.1713 -0.0092
11519TIP3    H156048   1.228   4.693  12.253 -1.7714 -0.4600 -0.0143
11519TIP3    H256049   1.268   4.829  12.307  1.4403 -1.2139 -0.2912
11520TIP3   OH256050   0.246   5.540   0.854 -0.1489  0.3092  0.2936
11520TIP3    H156051   0.318   5.573   0.908 -0.6435 -0.3692  1.3948
11520TIP3    H256052   0.184   5.613   0.850  1.1387  1.3773 -1.7576
11521TIP3   OH256053   4.205   5.877   0.485 -0.0868  0.1009  0.4003
11521TIP3    H156054   4.152   5.798   0.488  0.6315 -0.3912  0.2284
11521TIP3    H256055   4.294   5.846   0.471  0.3241  0.8901  1.1511
11522TIP3   OH256056   6.458   4.561   2.800 -0.2576 -0.1728  0.9691
11522TIP3    H156057   6.404   4.640   2.799 -0.3880 -0.2671  0.6821
11522TIP3    H256058   6.546   4.593   2.779 -0.4595 -0.2182  0.0382
11523TIP3   OH256059   2.298   3.489  12.922 -0.0196  0.3157 -0.2583
11523TIP3    H156060   2.247   3.413  12.894  0.6650 -0.4649  0.5657
11523TIP3    H256061   2.339   3.462  13.004  1.2874  1.1023 -0.6135
11524TIP3   OH256062   4.752   2.458  16.004 -0.9560  0.1079  0.3093
11524TIP3    H156063   4.730   2.365  16.007 -0.6960  0.0675  1.0028
11524TIP3    H256064   4.848   2.460  16.008 -0.8948  0.3634 -0.8712
11525TIP3   OH256065   6.378   5.032  17.117 -0.3947  0.4566 -0.0125
11525TIP3    H156066   6.372   4.948  17.072 -0.3885  0.2919  0.2917
11525TIP3    H256067   6.437   5.084  17.063 -0.5649  0.3375 -0.3144
11526TIP3   OH256068   1.596   4.399   0.405  0.3946 -0.1391 -0.0337
11526TIP3    H156069   1.586   4.475   0.346  0.8819  0.0475  0.1182
11526TIP3    H256070   1.549   4.328   0.360  1.8992 -0.3689 -1.3356
11527TIP3   OH256071   2.388   3.809   6.375  0.9501 -0.6860  0.4234
11527TIP3    H156072   2.375   3.736   6.314  0.7936  0.0994 -0.4936
11527TIP3    H256073   2.368   3.887   6.324 -1.9326 -0.1009  2.2114
11528TIP3   OH256074   1.584   5.506   5.074 -0.3727 -0.2862  0.2188
11528TIP3    H156075   1.649   5.566   5.110 -2.5912  0.2828  3.9202
11528TIP3    H256076   1.588   5.429   5.131 -2.0665 -0.7314 -0.1951
11529TIP3   OH256077   3.710   2.682  12.684  0.2049 -0.1933 -0.0448
11529TIP3    H156078   3.679   2.647  12.767 -0.2091  0.4248  0.0649
11529TIP3    H256079   3.802   2.654  12.680  0.2788 -0.0844  0.6999
11530TIP3   OH256080   2.574   2.199  17.115  0.2595 -0.4012 -0.6456
11530TIP3    H156081   2.601   2.115  17.078 -1.7725 -0.8154 -1.3245
11530TIP3    H256082   2.492   2.180  17.161  1.1741  0.7083  1.5812
11531TIP3   OH256083   4.603   1.808   2.410 -0.4626  0.1212 -0.1215
11531TIP3    H156084   4.524   1.754   2.410 -0.8703  0.6962 -0.8852
11531TIP3    H256085   4.572   1.896   2.430  0.1565  0.1511  0.7831
11532TIP3   OH256086   0.395   5.621  15.142  0.9878 -0.1169  0.5144
11532TIP3    H156087   0.413   5.674  15.065  0.6157  1.2662  1.3439
11532TIP3    H256088   0.342   5.678  15.199  0.4547 -1.4211  1.3842
11533TIP3   OH256089   0.437   4.479   5.809 -0.2560 -0.3624 -0.3918
11533TIP3    H156090   0.523   4.449   5.839  0.2824  1.7907  0.3772
11533TIP3    H256091   0.451   4.570   5.785 -2.3400  0.0314 -0.2299
11534TIP3   OH256092   4.978   3.430   3.753  0.6442 -0.2667 -0.3491
11534TIP3    H156093   5.001   3.368   3.683 -1.0316  0.0600 -1.2391
11534TIP3    H256094   4.913   3.384   3.805  0.3044  0.2936 -0.2733
11535TIP3   OH256095   5.584   6.813   2.184 -0.5275 -0.8346 -0.0456
11535TIP3    H156096   5.657   6.876   2.178 -0.9178 -0.4083 -0.4226
11535TIP3    H256097   5.562   6.811   2.277 -0.5834 -0.3235 -0.0425
11536TIP3   OH256098   2.853   0.786  12.901  0.6952 -0.0067 -0.4332
11536TIP3    H156099   2.816   0.828  12.823  0.3197  1.1329  0.3240
11536TIP3    H256100   2.801   0.706  12.912 -0.7886  0.9449 -0.0927
11537TIP3   OH256101   0.305   5.748  14.101  0.0135  0.5611 -0.3239
11537TIP3    H156102   0.324   5.746  14.007 -0.1657 -2.2545 -0.3909
11537TIP3    H256103   0.212   5.726  14.107 -0.6213  3.1104  0.4837
11538TIP3   OH256104   0.862   3.004  13.382 -0.2199  0.2975  0.6190
11538TIP3    H156105   0.873   2.923  13.333 -1.0178 -0.3343  1.4421
11538TIP3    H256106   0.827   3.066  13.318  0.9135  0.1713 -0.1491
11539TIP3   OH256107   4.219   2.833   5.086 -0.0319  0.0100  0.1378
11539TIP3    H156108   4.219   2.919   5.043 -3.1410 -0.5828 -1.3305
11539TIP3    H256109   4.212   2.853   5.179  2.9965  1.2782  0.2376
11540TIP3   OH256110   3.644   3.384  11.216  0.2617  1.0279  0.7648
11540TIP3    H156111   3.630   3.289  11.224  1.7576  0.7530  0.4777
11540TIP3    H256112   3.719   3.402  11.273  0.1073  2.0028  0.6646
11541TIP3   OH256113   5.988   1.299   1.399  0.0331  0.1570 -0.2248
11541TIP3    H156114   5.964   1.209   1.374  0.2287  0.4158 -1.4182
11541TIP3    H256115   5.927   1.354   1.350 -0.7673  0.6783  1.2881
11542TIP3   OH256116   5.860   0.929   2.936 -0.0822 -0.0747 -0.1168
11542TIP3    H156117   5.953   0.947   2.952 -0.5277  0.7727  1.7145
11542TIP3    H256118   5.814   0.997   2.985 -1.6801 -0.3862 -1.1397
11543TIP3   OH256119   0.864   0.016   2.754  0.0269  0.5297  0.2944
11543TIP3    H156120   0.802   0.084   2.780  0.5157  0.3569  2.0294
11543TIP3    H256121   0.950   0.054   2.769  0.3324 -0.8583  2.6349
11544TIP3   OH256122   4.508   0.588   2.405  0.8693  0.1043 -0.2146
11544TIP3    H156123   4.580   0.525   2.405 -0.0498 -1.0343  1.5614
11544TIP3    H256124   4.549   0.672   2.426  1.8663 -0.2146 -0.8067
11545TIP3   OH256125   5.843   2.874   5.329 -0.3810  0.3286  0.5575
11545TIP3    H156126   5.824   2.865   5.236 -0.3483 -0.4365  0.6208
11545TIP3    H256127   5.937   2.858   5.337 -0.4781 -0.1607  0.7831
11546TIP3   OH256128   2.711   0.769   5.063  0.2922  0.0524 -0.1057
11546TIP3    H156129   2.689   0.733   4.977  0.2244  0.9435 -0.4728
11546TIP3    H256130   2.638   0.826   5.085  1.3478  1.6417 -0.5249
11547TIP3   OH256131   5.162   5.237  12.717  0.2777 -0.1166 -0.1620
11547TIP3    H156132   5.240   5.228  12.771  0.6065  1.7725 -0.2633
11547TIP3    H256133   5.194   5.276  12.635 -0.6603 -0.0311 -0.5040
11548TIP3   OH256134   3.155   0.379  16.509  0.2674  0.2669  0.4890
11548TIP3    H156135   3.117   0.296  16.481 -1.6426  1.2288  0.0960
11548TIP3    H256136   3.128   0.389  16.600  0.9336  0.2290  0.6959
11549TIP3   OH256137   1.908   0.156   6.845  0.4235  0.6517  0.1810
11549TIP3    H156138   1.944   0.086   6.791 -0.6981  1.4972 -1.7708
11549TIP3    H256139   1.820   0.127   6.868 -1.4573  2.7091 -3.5901
11550TIP3   OH256140   0.002   5.589   2.690  0.0933  0.0769  0.3128
11550TIP3    H156141   0.074   5.528   2.709 -0.6898 -0.3537  2.0860
11550TIP3    H256142   0.027   5.629   2.607  1.6994 -1.0734  0.1779
11551TIP3   OH256143   1.806   4.986   0.785 -0.1731  0.0710  0.1932
11551TIP3    H156144   1.724   4.938   0.795 -1.5436  2.1486 -0.3978
11551TIP3    H256145   1.822   5.025   0.871  0.7152 -1.0527  0.5585
11552TIP3   OH256146   3.324   0.299  16.949 -0.6504  0.1769  0.3882
11552TIP3    H156147   3.419   0.305  16.960 -0.4303  2.3107 -1.8078
11552TIP3    H256148   3.310   0.221  16.896 -0.1667 -0.3161  0.9782
11553TIP3   OH256149   2.789   2.936   1.735 -0.5520 -0.0002  0.1166
11553TIP3    H156150   2.712   2.932   1.680 -0.7288  2.6991  0.0414
11553TIP3    H256151   2.819   3.027   1.729  0.3793  0.0279  3.1383
11554TIP3   OH256152   2.663   0.860   2.272  0.0784 -0.4524 -0.1194
11554TIP3    H156153   2.631   0.794   2.333 -1.4859 -0.0742 -0.4902
11554TIP3    H256154   2.652   0.821   2.186 -0.1352 -0.0116 -0.2966
11555TIP3   OH256155   0.166   3.157  15.264  0.0045  0.1132 -0.1782
11555TIP3    H156156   0.078   3.120  15.272  0.2747 -1.1189 -2.1755
11555TIP3    H256157   0.212   3.127  15.343 -1.9166  2.7123  2.1081
11556TIP3   OH256158   3.486   1.238   4.543 -0.0661  0.0388 -0.3462
11556TIP3    H156159   3.529   1.173   4.487 -1.6420 -4.0413  2.6429
11556TIP3    H256160   3.550   1.255   4.612 -0.9877 -1.6811  1.0438
11557TIP3   OH256161   3.293   4.334   1.895  0.0625 -0.3049 -0.0071
11557TIP3    H156162   3.381   4.316   1.861  1.2138  1.2291  1.9422
11557TIP3    H256163   3.257   4.399   1.834  1.1574  0.6659  0.3326
11558TIP3   OH256164   4.324   5.380  11.646  0.2919 -0.5438  0.4537
11558TIP3    H156165   4.270   5.400  11.723  0.9188  0.9444  0.5592
11558TIP3    H256166   4.308   5.454  11.587  0.5080 -1.2253 -0.4731
11559TIP3   OH256167   5.552   4.257  14.767 -0.2021 -0.3739  0.0116
11559TIP3    H156168   5.459   4.251  14.744 -0.3378  2.4114 -0.4040
11559TIP3    H256169   5.593   4.297  14.690  1.2471 -0.9335  0.4685
11560TIP3   OH256170   2.659   5.076   4.490 -0.3110  0.1058 -0.5567
11560TIP3    H156171   2.656   5.142   4.421 -1.2891  0.8751  0.2035
11560TIP3    H256172   2.613   5.001   4.453 -0.8515  0.5221 -0.7331
11561TIP3   OH256173   3.364   6.786   5.131  0.2786  0.0633 -0.1532
11561TIP3    H156174   3.369   6.797   5.226 -0.0765  0.4303 -0.1749
11561TIP3    H256175   3.378   6.874   5.096 -1.5347  0.3161 -0.3653
11562TIP3   OH256176   3.746   6.146   2.862  0.4289 -0.5767  0.0132
11562TIP3    H156177   3.693   6.226   2.859  0.2412 -0.7094 -0.2011
11562TIP3    H256178   3.763   6.125   2.771 -0.0573 -1.1396  0.0527
11563TIP3   OH256179   3.016   3.418   6.444  0.4447 -0.2749  0.0248
11563TIP3    H156180   3.010   3.447   6.535 -0.2784  0.8402 -0.3657
11563TIP3    H256181   2.925   3.404   6.417  0.4881  1.5430 -1.1832
11564TIP3   OH256182   5.662   3.683  13.434  0.6616  0.4275 -0.4200
11564TIP3    H156183   5.744   3.732  13.439  1.6934 -1.0491 -1.8074
11564TIP3    H256184   5.682   3.600  13.478  0.2414 -0.3350 -1.6500
11565TIP3   OH256185   1.206   0.184  11.774  0.2588  0.1702 -0.0710
11565TIP3    H156186   1.189   0.202  11.682 -1.1721 -2.5087 -0.4154
11565TIP3    H256187   1.144   0.241  11.821  0.8490  1.3937 -0.7200
11566TIP3   OH256188   0.232   3.934  15.116  0.2207 -0.1312 -0.1969
11566TIP3    H156189   0.259   3.874  15.048 -1.4239 -1.2769  0.1054
11566TIP3    H256190   0.201   3.878  15.187  0.0841  1.0544  0.7171
11567TIP3   OH256191   0.292   0.919  17.096 -0.6087  0.3574  0.0419
11567TIP3    H156192   0.260   0.928  17.006  2.2863 -1.7101 -1.3591
11567TIP3    H256193   0.373   0.971  17.098  1.2488 -2.3599  0.2604
11568TIP3   OH256194   2.263   2.622  16.070 -0.3078 -0.4327 -0.4441
11568TIP3    H156195   2.208   2.690  16.110  1.1224 -0.6438  2.1237
11568TIP3    H256196   2.210   2.543  16.075 -0.0127 -0.5540  1.6420
11569TIP3   OH256197   2.367   0.860   6.024 -0.1518  0.3720  0.1440
11569TIP3    H156198   2.299   0.927   6.029  0.5352  0.9896  2.7323
11569TIP3    H256199   2.412   0.865   6.108  1.6371 -1.5753 -0.6029
11570TIP3   OH256200   5.397   4.981   0.370  0.2607  0.5173 -0.0644
11570TIP3    H156201   5.410   5.072   0.346  0.3147  0.6044  0.2949
11570TIP3    H256202   5.485   4.943   0.371  0.2238  0.4153 -0.3837
11571TIP3   OH256203   1.538   2.683  10.483  0.5536  0.1705  0.1985
11571TIP3    H156204   1.465   2.627  10.455  0.2746  1.0901 -0.9969
11571TIP3    H256205   1.508   2.772  10.467  0.3370  0.8510  3.6123
11572TIP3   OH256206   0.962   4.629   3.889  0.2408 -0.0734  0.1279
11572TIP3    H156207   0.876   4.627   3.846  1.0217 -2.1340 -1.5076
11572TIP3    H256208   1.014   4.689   3.837 -0.2625  1.5492  1.3967
11573TIP3   OH256209   0.664   4.404   2.889 -0.5421 -0.3779 -0.1145
11573TIP3    H156210   0.719   4.384   2.965 -0.0216  1.4308  0.0264
11573TIP3    H256211   0.724   4.441   2.824 -1.0816 -1.3584 -1.2095
11574TIP3   OH256212   6.107   2.977  16.097  0.2114  0.3377 -0.2251
11574TIP3    H156213   6.186   2.994  16.045  0.6856  1.2725  0.7629
11574TIP3    H256214   6.058   3.059  16.091  0.2893  0.4682  0.8163
11575TIP3   OH256215   5.021   0.861   0.371  0.5900  0.4808  0.2084
11575TIP3    H156216   4.947   0.810   0.338  1.3243 -0.6272  0.2448
11575TIP3    H256217   5.020   0.941   0.318 -0.0295  0.0336 -0.4676
11576TIP3   OH256218   4.716   2.895  12.414 -0.0791  0.1168  0.0578
11576TIP3    H156219   4.781   2.965  12.419  0.6731 -0.5963  0.3822
11576TIP3    H256220   4.712   2.871  12.322  0.5324 -0.2185  0.1160
11577TIP3   OH256221   4.285   4.945   1.298 -0.2983 -0.5677  0.3861
11577TIP3    H156222   4.233   5.007   1.350  0.8360  1.1651 -0.4397
11577TIP3    H256223   4.317   4.997   1.224  2.1198 -1.6764  0.5561
11578TIP3   OH256224   2.686   1.763   3.164 -0.2095 -0.2896  0.4449
11578TIP3    H156225   2.651   1.839   3.211  0.1630  0.5243 -0.5485
11578TIP3    H256226   2.776   1.789   3.141 -0.8773  0.0563 -2.1365
11579TIP3   OH256227   6.663   3.607  14.265 -0.1596  0.3296 -0.7581
11579TIP3    H156228   6.689   3.526  14.221 -0.0921  0.2671 -0.6045
11579TIP3    H256229   6.744   3.656  14.275  0.0315 -0.1927  0.3917
11580TIP3   OH256230   4.090   4.252   3.748 -0.1421  0.3125 -0.8639
11580TIP3    H156231   4.144   4.173   3.742  2.5512  1.9820 -0.3308
11580TIP3    H256232   4.001   4.222   3.730  0.8018 -2.7744 -0.9224
11581TIP3   OH256233   3.264   3.781   1.441  0.0868  0.3248 -0.0136
11581TIP3    H156234   3.338   3.720   1.435 -0.5336 -0.3357 -1.3041
11581TIP3    H256235   3.298   3.854   1.492  0.7884 -1.1831  1.7985
11582TIP3   OH256236   1.012   1.190  12.948 -0.2093  0.7489  0.4298
11582TIP3    H156237   1.041   1.103  12.975 -1.5301  0.2688  0.3822
11582TIP3    H256238   1.035   1.196  12.855 -1.5442 -0.1949  0.0205
11583TIP3   OH256239   2.039   4.089   4.651  0.2145  0.3107 -0.2578
11583TIP3    H156240   1.950   4.055   4.649  0.2149  0.2125  0.7589
11583TIP3    H256241   2.066   4.092   4.559 -0.7463  0.1205 -0.5562
11584TIP3   OH256242   5.382   2.100  11.663  0.7563  0.7844  0.1672
11584TIP3    H156243   5.416   2.014  11.638 -0.7578 -0.1851  1.2882
11584TIP3    H256244   5.364   2.144  11.580 -0.7268 -0.9560 -0.5022
11585TIP3   OH256245   0.158   5.360   2.441 -0.8257 -0.6237 -0.0267
11585TIP3    H156246   0.206   5.291   2.397 -1.1487 -0.0564 -1.2964
11585TIP3    H256247   0.205   5.440   2.418 -1.0025 -0.3098  0.6689
11586TIP3   OH256248   2.497   1.334  16.628 -0.1112  0.8944 -0.5964
11586TIP3    H156249   2.506   1.251  16.675 -2.2314  0.7696 -0.3184
11586TIP3    H256250   2.476   1.398  16.696 -0.9748  1.1524 -1.0931
11587TIP3   OH256251   2.716   5.187  14.397  0.0184  0.0496 -0.2017
11587TIP3    H156252   2.750   5.104  14.429 -0.5817 -0.8039 -1.6773
11587TIP3    H256253   2.783   5.219  14.336 -0.2235  0.1038 -0.4431
11588TIP3   OH256254   1.426   5.258  16.286 -0.1386  0.0048  0.3829
11588TIP3    H156255   1.344   5.261  16.237  0.9337  2.2966 -1.4914
11588TIP3    H256256   1.400   5.241  16.376 -2.3997 -2.0696 -0.5667
11589TIP3   OH256257   5.926   5.802  10.670  0.1306  0.1970  0.6998
11589TIP3    H156258   5.902   5.890  10.641 -2.7148 -0.0639  1.9934
11589TIP3    H256259   5.919   5.748  10.591  1.1602  0.9622  0.0629
11590TIP3   OH256260   1.946   1.720   5.213  0.3341  0.2790  0.3536
11590TIP3    H156261   1.885   1.790   5.190  1.1095  0.7122 -0.4690
11590TIP3    H256262   1.891   1.642   5.220 -0.5331  0.9340  1.1987
11591TIP3   OH256263   5.940   5.275   2.335 -0.3402  0.2037  0.0782
11591TIP3    H156264   5.904   5.327   2.263  1.4380 -1.8803 -2.5460
11591TIP3    H256265   6.034   5.278   2.322 -0.0431 -1.3939  1.5060
11592TIP3   OH256266   2.617   6.148  14.988 -0.1992  0.2900 -0.0520
11592TIP3    H156267   2.585   6.211  14.923  0.7612  2.4650  1.4787
11592TIP3    H256268   2.550   6.148  15.056  0.4036  0.6239  0.5438
11593TIP3   OH256269   4.847   6.156   5.548 -0.0639 -0.5074 -0.2599
11593TIP3    H156270   4.915   6.123   5.489 -0.9029 -0.4844 -1.2764
11593TIP3    H256271   4.804   6.225   5.498 -1.4035 -1.1207  0.0093
11594TIP3   OH256272   4.813   2.208   4.548 -0.2990 -0.0687 -0.2418
11594TIP3    H156273   4.755   2.133   4.540 -1.6048  0.8630  0.0801
11594TIP3    H256274   4.832   2.233   4.457 -1.9940  0.7646 -0.4096
11595TIP3   OH256275   4.852   3.317   3.413  0.3948  0.0451  0.0960
11595TIP3    H156276   4.879   3.268   3.491  0.6685  1.3004  0.8104
11595TIP3    H256277   4.816   3.399   3.447  2.3175  1.4866 -1.1548
11596TIP3   OH256278   3.753   0.872   4.066 -0.8550  0.0979  0.4453
11596TIP3    H156279   3.776   0.851   3.976 -1.2150  0.5784  0.2336
11596TIP3    H256280   3.672   0.823   4.083 -1.9822  1.6278 -0.2190
11597TIP3   OH256281   0.366   0.497  11.563  0.9670  0.0113 -0.9301
11597TIP3    H156282   0.415   0.488  11.645  0.7477 -0.0180 -0.8028
11597TIP3    H256283   0.303   0.425  11.564 -0.1706  0.9666 -0.3337
11598TIP3   OH256284   4.333   0.156   6.553  0.8363 -0.2524  0.1399
11598TIP3    H156285   4.382   0.116   6.482  2.4147 -0.1122  1.1054
11598TIP3    H256286   4.381   0.132   6.632 -0.8350 -0.3592  1.1776
11599TIP3   OH256287   2.623   2.957  13.502  0.0903 -0.2153  0.8637
11599TIP3    H156288   2.661   2.920  13.423 -1.2584  2.3833 -1.1692
11599TIP3    H256289   2.565   2.888  13.535 -1.2432 -0.5695 -1.9095
11600TIP3   OH256290   1.697   2.776  14.623  0.1986 -0.3690  0.0039
11600TIP3    H156291   1.668   2.830  14.549 -0.8329  0.5730  1.0503
11600TIP3    H256292   1.786   2.806  14.641  0.7754 -1.1729 -1.3293
11601TIP3   OH256293   0.842   2.445  10.870 -0.4197  0.1995  0.1294
11601TIP3    H156294   0.901   2.509  10.832 -0.3616  0.9562  1.4595
11601TIP3    H256295   0.758   2.461  10.828 -0.2676  0.7727  0.0467
11602TIP3   OH256296   4.181   1.255  12.727  0.0705  0.1598 -0.3051
11602TIP3    H156297   4.193   1.337  12.679  0.3932 -0.4015 -1.2119
11602TIP3    H256298   4.265   1.210  12.720 -0.3259 -0.5783 -0.4667
11603TIP3   OH256299   3.052   6.120   2.060  0.1237  0.0194 -0.1167
11603TIP3    H156300   2.967   6.117   2.104  1.2616  1.3357  2.3624
11603TIP3    H256301   3.031   6.136   1.968 -2.3048  3.0953  0.8159
11604TIP3   OH256302   3.447   6.049   2.669 -0.4246  0.0499 -0.1178
11604TIP3    H156303   3.407   6.136   2.675  0.8271  0.5511  1.8504
11604TIP3    H256304   3.507   6.056   2.595 -0.9036  0.5980 -0.4678
11605TIP3   OH256305   1.830   6.688  17.075  0.1439  0.2819  0.3332
11605TIP3    H156306   1.760   6.743  17.039  0.1163  0.8006  1.1459
11605TIP3    H256307   1.815   6.689  17.169  1.2216  0.3605  0.5138
11606TIP3   OH256308   3.609   0.811   0.044 -0.2464 -0.6923  0.2860
11606TIP3    H156309   3.627   0.892   0.091  0.7367 -1.4253  1.2236
11606TIP3    H256310   3.637   0.828  -0.046  1.1113 -0.3694  0.7479
11607TIP3   OH256311   5.979   4.221  12.292  0.0146 -0.3839  0.4443
11607TIP3    H156312   5.996   4.138  12.336 -0.1102 -0.0828  1.0623
11607TIP3    H256313   6.065   4.250  12.261  0.4160  0.2935  2.0841
11608TIP3   OH256314   3.450   6.796   1.326  0.7609 -0.5121 -0.6925
11608TIP3    H156315   3.522   6.744   1.290 -1.9206 -3.4689 -2.2636
11608TIP3    H256316   3.428   6.753   1.409  0.0936 -0.3639 -0.7854
11609TIP3   OH256317   2.706   3.662   1.007 -0.2196  0.2291 -0.2890
11609TIP3    H156318   2.689   3.694   1.095 -1.4069  1.7730 -1.0348
11609TIP3    H256319   2.801   3.673   0.995 -0.2886  1.6082  0.2254
11610TIP3   OH256320   2.913   6.242  14.865  0.1733  0.1454 -0.3405
11610TIP3    H156321   2.828   6.234  14.821 -0.1708  1.1254  0.1223
11610TIP3    H256322   2.967   6.173  14.825 -1.4623 -1.9834  0.9187
11611TIP3   OH256323   3.730   0.808   1.627  0.3407  0.1085  0.0908
11611TIP3    H156324   3.652   0.757   1.607  0.7269 -0.0243 -1.1454
11611TIP3    H256325   3.708   0.898   1.601  0.8170 -0.0487 -0.8953
11612TIP3   OH256326   6.814   5.980   4.986  0.6608 -0.0585  0.2872
11612TIP3    H156327   6.810   5.946   4.896  1.2347 -1.9489  0.9205
11612TIP3    H256328   6.726   5.967   5.020  0.6080  0.0746  0.2040
11613TIP3   OH256329   2.205   1.436  13.094  0.3848 -0.4664 -0.0340
11613TIP3    H156330   2.123   1.414  13.139  0.7174 -0.0856  0.7767
11613TIP3    H256331   2.176   1.474  13.011 -0.2721 -0.3105  0.2512
11614TIP3   OH256332   5.776   2.149  14.261 -0.2411 -0.4253  0.0401
11614TIP3    H156333   5.833   2.226  14.251  0.2195 -0.8100 -0.3461
11614TIP3    H256334   5.725   2.147  14.181 -0.4221 -0.3901  0.1539
11615TIP3   OH256335   2.963   6.709   3.341 -0.1723  0.8512  0.0799
11615TIP3    H156336   2.894   6.768   3.313 -0.6685 -0.6272 -2.0961
11615TIP3    H256337   3.007   6.683   3.259 -0.7936 -2.6717  0.6898
11616TIP3   OH256338   0.956   1.040  15.045  0.2930  0.4370  0.1620
11616TIP3    H156339   0.958   1.126  15.002 -0.3964 -0.4958 -1.8724
11616TIP3    H256340   0.922   1.058  15.133 -0.8438  2.1065 -0.5606
11617TIP3   OH256341   6.364   0.847  11.569  0.2765  0.0026 -0.4259
11617TIP3    H156342   6.333   0.768  11.525 -0.6876 -0.8705  1.6562
11617TIP3    H256343   6.459   0.840  11.568  0.2169 -1.9865  0.9536
11618TIP3   OH256344   3.734   2.169   4.026  0.5313  0.3584 -0.7059
11618TIP3    H156345   3.684   2.088   4.034  3.1690 -1.1202  2.8853
11618TIP3    H256346   3.781   2.160   3.943 -3.0399  0.7989 -3.0376
11619TIP3   OH256347   5.154   3.329   4.349  0.1718  0.4045 -0.8400
11619TIP3    H156348   5.080   3.350   4.291 -0.5083 -0.4536 -0.3044
11619TIP3    H256349   5.124   3.254   4.400  1.5622 -0.1828 -0.8577
11620TIP3   OH256350   1.781   4.498  14.080  0.1919 -0.5579 -0.2019
11620TIP3    H156351   1.715   4.464  14.019 -0.9747  0.8994  0.1655
11620TIP3    H256352   1.751   4.587  14.100  2.0916  0.0200  0.2955
11621TIP3   OH256353   4.296   4.749  11.785  0.2993  0.6150 -0.0072
11621TIP3    H156354   4.259   4.769  11.871  1.3931 -0.5973  0.7806
11621TIP3    H256355   4.287   4.655  11.776  0.9568  0.6236 -0.8511
11622TIP3   OH256356   1.685   2.832   1.997 -0.2681 -0.1348  0.4588
11622TIP3    H156357   1.732   2.766   1.946 -1.2746 -0.1896 -0.4267
11622TIP3    H256358   1.753   2.894   2.024  0.4701 -0.7719  0.1061
11623TIP3   OH256359   0.349   4.081  12.568  0.1837 -0.3886 -0.1877
11623TIP3    H156360   0.310   3.994  12.577 -1.6067  0.4855  1.0628
11623TIP3    H256361   0.439   4.071  12.600 -0.1102 -1.6787  0.2691
11624TIP3   OH256362   3.147   5.576  11.173  0.4157 -0.1978 -0.2045
11624TIP3    H156363   3.092   5.611  11.243  0.0099 -0.7975 -0.2171
11624TIP3    H256364   3.219   5.531  11.219  1.9014  2.0343 -0.1701
11625TIP3   OH256365   1.713   2.379  10.938 -0.2386  0.0419  0.4727
11625TIP3    H156366   1.666   2.442  10.884 -0.4587  0.3928  1.0661
11625TIP3    H256367   1.767   2.330  10.876  0.0292  0.8897  0.0246
11626TIP3   OH256368   6.376   6.784   2.958 -0.2910 -0.3154 -0.1137
11626TIP3    H156369   6.293   6.755   2.996  0.4162 -0.5003  1.3648
11626TIP3    H256370   6.350   6.841   2.885 -1.7107 -2.6091 -1.5348
11627TIP3   OH256371   2.233   0.990  15.565 -0.3106 -0.4237  0.1307
11627TIP3    H156372   2.159   1.050  15.549  0.5895  0.3055 -1.5410
11627TIP3    H256373   2.305   1.048  15.590 -0.2034 -1.1110  1.4956
11628TIP3   OH256374   2.265   3.967   2.698  0.0697  0.3496 -0.1155
11628TIP3    H156375   2.297   4.055   2.677  1.3176 -0.3048 -1.0553
11628TIP3    H256376   2.235   3.932   2.614  1.6151 -0.9254 -0.1701
11629TIP3   OH256377   5.105   5.916   1.776  0.0938 -0.0912  0.2643
11629TIP3    H156378   5.154   5.904   1.695  0.0332 -0.3593  0.2662
11629TIP3    H256379   5.165   5.964   1.833 -0.4933  1.7018 -0.5463
11630TIP3   OH256380   6.705   6.800  12.805 -0.5228  0.1519  0.3274
11630TIP3    H156381   6.791   6.829  12.772 -0.1619  0.5381  1.5513
11630TIP3    H256382   6.709   6.704  12.802  0.6287  0.1090  1.9541
11631TIP3   OH256383   6.827   6.438  11.127 -0.1545 -0.0466  0.5786
11631TIP3    H156384   6.870   6.415  11.209  0.2437 -1.3108  0.0539
11631TIP3    H256385   6.875   6.388  11.060 -0.3460  1.0922 -0.4459
11632TIP3   OH256386   5.660   6.378  17.173 -0.0351 -0.1587 -0.1805
11632TIP3    H156387   5.603   6.445  17.210  1.6376  1.6422 -0.7081
11632TIP3    H256388   5.654   6.391  17.078 -1.6650 -2.5126 -0.4919
11633TIP3   OH256389   4.098   2.805   2.324  0.0941 -0.3517  0.0791
11633TIP3    H156390   4.186   2.774   2.343  0.6180 -0.6243 -2.4656
11633TIP3    H256391   4.044   2.725   2.325  0.5109 -0.7014 -1.4194
11634TIP3   OH256392   2.683   6.306  13.210  0.0145  0.5355 -0.3104
11634TIP3    H156393   2.741   6.292  13.135 -0.2879  0.3351 -0.5076
11634TIP3    H256394   2.734   6.361  13.269  0.4224  0.3303 -0.4650
11635TIP3   OH256395   5.958   6.735  15.183 -0.2447 -0.0485 -0.1959
11635TIP3    H156396   6.008   6.656  15.202 -0.0316  0.2052  0.3178
11635TIP3    H256397   5.897   6.709  15.114  0.1751 -0.5219 -0.3947
11636TIP3   OH256398   1.073   0.760  14.289 -0.1158  0.0420 -0.9536
11636TIP3    H156399   1.111   0.847  14.276  0.7323  0.3730  2.7022
11636TIP3    H256400   0.979   0.773  14.275  0.2348  0.9627 -2.7136
11637TIP3   OH256401   5.012   4.544   1.506 -0.2865  0.7026 -0.3095
11637TIP3    H156402   4.996   4.545   1.411 -0.5849 -0.7870 -0.3066
11637TIP3    H256403   4.979   4.628   1.537  1.1695  1.8501 -1.7117
11638TIP3   OH256404   3.078   2.429   0.137  0.2914  0.0689  0.7444
11638TIP3    H156405   3.043   2.379   0.064 -0.4286 -0.3142  1.3378
11638TIP3    H256406   3.032   2.513   0.134 -0.7786 -0.4681  1.5783
11639TIP3   OH256407   2.405   5.584   3.280  0.1859 -0.3178  0.6807
11639TIP3    H156408   2.355   5.665   3.275 -1.4415 -1.3245 -0.1444
11639TIP3    H256409   2.447   5.576   3.194 -2.5321 -2.0373 -0.6267
11640TIP3   OH256410   6.622   0.165  12.534  0.2670  0.3909 -0.1788
11640TIP3    H156411   6.566   0.091  12.554  0.4846  0.6859  1.6832
11640TIP3    H256412   6.570   0.219  12.474 -0.2375 -0.7988 -0.8412
11641TIP3   OH256413   1.428   5.723   2.878  0.3300  0.1245 -0.0981
11641TIP3    H156414   1.435   5.795   2.939 -1.1055  0.3083 -0.1043
11641TIP3    H256415   1.346   5.679   2.902  1.8091 -2.3460  0.7862
11642TIP3   OH256416   5.811   2.339   5.513  0.2518 -0.6642 -1.1599
11642TIP3    H156417   5.862   2.420   5.517  0.6246 -0.9416  1.3752
11642TIP3    H256418   5.783   2.333   5.422  2.5330  0.8647 -2.0511
11643TIP3   OH256419   0.091   0.476   1.409  0.7652 -0.1560 -0.1408
11643TIP3    H156420   0.136   0.546   1.456  1.2284 -0.9244  0.5798
11643TIP3    H256421   0.061   0.517   1.328  0.7893  0.9427  0.3925
11644TIP3   OH256422   4.442   0.281   3.442 -0.0245  0.7739 -0.2118
11644TIP3    H156423   4.397   0.201   3.414  1.0806 -0.6440  1.8319
11644TIP3    H256424   4.520   0.286   3.386 -0.6893  1.1073 -1.1352
11645TIP3   OH256425   2.899   2.100  11.207 -0.8420 -0.1130  0.6707
11645TIP3    H156426   2.860   2.022  11.167  1.8377 -2.8170  2.8673
11645TIP3    H256427   2.863   2.104  11.295 -0.4528  0.7363  0.8078
11646TIP3   OH256428   5.816   5.036   3.090 -0.3922  0.4231 -0.5881
11646TIP3    H156429   5.780   5.016   3.176 -0.9326  1.3216 -0.5999
11646TIP3    H256430   5.866   4.957   3.067 -0.5954  0.0017  0.3478
11647TIP3   OH256431   6.319   3.203  13.519  0.1506  0.1474 -0.2842
11647TIP3    H156432   6.373   3.280  13.502 -0.6697  1.2532  1.7693
11647TIP3    H256433   6.229   3.233  13.507 -0.1595 -0.7562 -0.3469
11648TIP3   OH256434   4.119   0.924   5.414 -0.4616 -0.1359 -0.5984
11648TIP3    H156435   4.193   0.889   5.364 -1.6017 -1.3050 -1.5335
11648TIP3    H256436   4.083   0.848   5.460 -1.8370  0.1457 -1.1709
11649TIP3   OH256437   3.893   2.534  11.976  0.2108  0.8115  0.4277
11649TIP3    H156438   3.798   2.525  11.971  0.2573 -0.4206  1.2914
11649TIP3    H256439   3.916   2.511  12.066  1.3581  0.7586  0.1475
11650TIP3   OH256440   3.673   4.798  13.274 -0.0910  0.1536  0.0964
11650TIP3    H156441   3.710   4.884  13.255  1.5348 -0.5741 -0.2084
11650TIP3    H256442   3.580   4.806  13.251  0.1877  1.6084 -0.6130
11651TIP3   OH256443   6.108   0.857   3.271 -1.0539 -0.0653 -0.7113
11651TIP3    H156444   6.111   0.802   3.193  0.2713  0.7209 -1.2487
11651TIP3    H256445   6.196   0.851   3.309 -1.3360  0.4847  0.0630
11652TIP3   OH256446   5.267   5.821   3.004 -0.1647  0.8289  0.0510
11652TIP3    H156447   5.197   5.786   2.948 -0.0263 -0.4520  0.6492
11652TIP3    H256448   5.304   5.745   3.047  0.8022  1.6269  0.6842
11653TIP3   OH256449   0.326   0.238  11.305  0.3986  0.2332  0.0213
11653TIP3    H156450   0.354   0.327  11.282 -0.2060  0.3446 -0.3059
11653TIP3    H256451   0.299   0.199  11.223  0.6661 -0.2635  0.1657
11654TIP3   OH256452   2.030   6.574   0.193  0.1142 -0.0074 -0.3237
11654TIP3    H156453   2.064   6.656   0.228  0.5574 -0.6142  0.6972
11654TIP3    H256454   1.935   6.585   0.193  0.2032  0.9043 -1.2260
11655TIP3   OH256455   6.534   0.750  16.020 -0.1592 -0.1832 -0.3853
11655TIP3    H156456   6.450   0.713  15.995  0.1918  0.5595 -2.8563
11655TIP3    H256457   6.512   0.828  16.071 -0.9319 -0.5816 -0.0908
11656TIP3   OH256458   4.473   6.115  13.128  0.0371  0.1905  0.0246
11656TIP3    H156459   4.567   6.103  13.114 -0.1115 -0.3258 -0.5538
11656TIP3    H256460   4.437   6.124  13.041 -0.3699  1.0863  0.2770
11657TIP3   OH256461   6.419   3.609   1.021  0.0031  0.7809 -0.3331
11657TIP3    H156462   6.490   3.672   1.011  1.5339 -0.7574  0.2745
11657TIP3    H256463   6.343   3.662   1.047  0.6162  2.5936 -1.9940
11658TIP3   OH256464   5.242   6.607   4.293 -0.1243  0.0122  0.0194
11658TIP3    H156465   5.262   6.570   4.379 -2.2080 -1.3478 -0.0305
11658TIP3    H256466   5.305   6.565   4.234  0.6527  0.1916  0.7004
11659TIP3   OH256467   5.293   6.705   1.797  0.1668 -0.6157 -0.2839
11659TIP3    H156468   5.363   6.770   1.792  0.7517 -1.2633 -0.5431
11659TIP3    H256469   5.326   6.637   1.855  0.3178 -1.5787 -1.4430
11660TIP3   OH256470   4.060   3.600   5.081  0.2639  0.4275  0.5123
11660TIP3    H156471   4.141   3.637   5.045  0.2443 -0.3573 -0.3897
11660TIP3    H256472   3.990   3.655   5.045  0.2325 -0.4430 -0.8414
11661TIP3   OH256473   6.575   6.321   1.800  0.1318  0.6343  0.0072
11661TIP3    H156474   6.597   6.235   1.835 -0.7401  0.4490  0.1264
11661TIP3    H256475   6.520   6.302   1.724  0.8255  1.0658 -0.6135
11662TIP3   OH256476   6.632   4.738   0.091 -0.6698 -0.2729 -0.2570
11662TIP3    H156477   6.718   4.774   0.070 -1.0259  2.2070  2.0546
11662TIP3    H256478   6.644   4.695   0.176 -1.7218  0.2254  0.1586
11663TIP3   OH256479   6.147   5.628   2.908  0.1103  0.0482  0.0424
11663TIP3    H156480   6.129   5.710   2.953 -2.3612 -1.1066  1.3643
11663TIP3    H256481   6.077   5.618   2.845  0.6646 -0.8203 -0.4642
11664TIP3   OH256482   2.084   0.757  12.868  0.7805 -0.5526  0.3635
11664TIP3    H156483   2.050   0.845  12.855 -2.2119 -1.8361 -1.3800
11664TIP3    H256484   2.108   0.754  12.960  0.1157  1.7938  0.6720
11665TIP3   OH256485   6.226   6.701  14.057 -0.2734  0.3106 -0.7207
11665TIP3    H156486   6.165   6.708  13.983 -0.8771 -0.0475 -0.2689
11665TIP3    H256487   6.210   6.780  14.109  0.0950  0.5230 -0.9284
11666TIP3   OH256488   6.129   5.086  16.674 -0.8885  0.4010  0.0050
11666TIP3    H156489   6.052   5.117  16.626 -0.1495 -1.7701 -2.8965
11666TIP3    H256490   6.168   5.166  16.710 -2.2704  2.0869 -1.9678
11667TIP3   OH256491   3.403   0.533   2.421 -0.0059 -0.0651 -0.1656
11667TIP3    H156492   3.441   0.520   2.507  0.2496 -0.3156 -0.3145
11667TIP3    H256493   3.479   0.548   2.363 -0.2453  1.7553 -0.0686
11668TIP3   OH256494   3.569   4.075  14.758  0.1761  0.1929  0.0610
11668TIP3    H156495   3.621   4.130  14.700  1.0052  1.7009  2.1430
11668TIP3    H256496   3.632   4.014  14.796 -0.5638 -1.6049 -1.4327
11669TIP3   OH256497   4.834   4.369   2.362 -0.2213  0.2932  0.5696
11669TIP3    H156498   4.789   4.293   2.397 -1.8814  0.9363 -0.0881
11669TIP3    H256499   4.914   4.334   2.322 -1.4298 -1.2339 -0.6128
11670TIP3   OH256500   2.008   5.045   5.635  0.2448 -0.6070  0.2056
11670TIP3    H156501   2.020   5.077   5.725  2.4059 -0.4815 -0.0727
11670TIP3    H256502   1.914   5.026   5.628  0.0774 -0.9042  2.5730
11671TIP3   OH256503   2.149   0.562   3.944 -0.6367 -0.2587 -0.1163
11671TIP3    H156504   2.156   0.498   3.873 -1.9337 -1.4536  0.7706
11671TIP3    H256505   2.065   0.543   3.985  1.4251 -2.0364  3.9469
11672TIP3   OH256506   5.257   0.069   4.352  0.2557  0.3318 -0.1251
11672TIP3    H156507   5.254  -0.023   4.324  0.2706 -0.0096  0.9370
11672TIP3    H256508   5.263   0.119   4.271  0.3687 -0.6140 -0.7138
11673TIP3   OH256509   4.254   0.339  12.833 -0.2305  0.2399 -0.5263
11673TIP3    H156510   4.206   0.394  12.896 -0.0924  1.1713 -1.2098
11673TIP3    H256511   4.346   0.364  12.845 -0.2940  1.1520 -1.7557
11674TIP3   OH256512   5.451   2.244  14.662 -0.6066  0.1372 -0.1134
11674TIP3    H156513   5.543   2.220  14.651  0.0527  1.9047  1.0987
11674TIP3    H256514   5.410   2.166  14.698  0.9628  0.0520  1.6144
11675TIP3   OH256515   1.082   2.683   1.206  0.0884 -0.6478  0.0866
11675TIP3    H156516   1.115   2.729   1.283  1.0927  2.3402 -1.9500
11675TIP3    H256517   1.158   2.636   1.171 -0.5409 -2.6337  1.2104
11676TIP3   OH256518   2.977   6.605   1.842  0.5323 -0.1072 -0.6621
11676TIP3    H156519   3.042   6.662   1.802  1.2749  2.0551  3.0788
11676TIP3    H256520   2.893   6.635   1.808  0.9656  2.9663  0.6904
11677TIP3   OH256521   1.057   4.459   1.936  0.6172  0.2181 -0.5780
11677TIP3    H156522   1.056   4.402   1.860 -0.8117 -0.3357 -0.1789
11677TIP3    H256523   0.965   4.480   1.951  0.9327  0.8274  0.6155
11678TIP3   OH256524   1.960   2.352   1.758  0.1450  0.0488  0.0807
11678TIP3    H156525   1.927   2.262   1.761 -0.7258  0.3566  0.1348
11678TIP3    H256526   1.947   2.379   1.667 -2.4101  1.0892  0.6420
11679TIP3   OH256527   6.073   1.880   5.986 -0.1577 -0.0559 -0.0563
11679TIP3    H156528   6.098   1.821   6.057  1.3218  1.0753  0.4228
11679TIP3    H256529   5.998   1.928   6.020 -2.4593 -2.7132 -1.0721
11680TIP3   OH256530   3.631   5.400   3.492 -0.1399  0.4029  0.3811
11680TIP3    H156531   3.706   5.349   3.522 -0.7880 -2.4283 -2.2841
11680TIP3    H256532   3.670   5.472   3.442  0.8040  0.3423  1.0030
11681TIP3   OH256533   2.599   5.455  13.543  0.2503 -0.5097  0.3644
11681TIP3    H156534   2.528   5.499  13.589 -0.9101 -0.3166 -1.4823
11681TIP3    H256535   2.628   5.519  13.477  0.4626 -1.4527 -0.4920
11682TIP3   OH256536   3.635   2.522  12.466  0.3255  0.2412  0.2125
11682TIP3    H156537   3.663   2.595  12.521  1.3093 -0.7106  1.0093
11682TIP3    H256538   3.548   2.500  12.500  1.0109 -0.4861  1.5928
11683TIP3   OH256539   4.353   6.601  15.262 -0.4947 -0.2532  0.0412
11683TIP3    H156540   4.309   6.605  15.177 -0.4898  2.3834  0.0873
11683TIP3    H256541   4.446   6.600  15.241 -0.5023 -0.0387 -0.0123
11684TIP3   OH256542   3.958   4.089  10.960 -0.0468 -0.0781  0.4438
11684TIP3    H156543   3.937   4.154  10.893 -1.1748  0.5946  1.4227
11684TIP3    H256544   4.049   4.107  10.983  0.0146  0.3829 -0.1209
11685TIP3   OH256545   0.837   2.533  13.001 -0.2454  0.5861 -0.1436
11685TIP3    H156546   0.781   2.611  13.005  1.7962  2.1541 -0.4672
11685TIP3    H256547   0.926   2.567  13.010  0.6830 -1.8313  0.5787
11686TIP3   OH256548   1.460   3.440  11.971  0.0024 -0.6373  0.3347
11686TIP3    H156549   1.496   3.520  11.932  0.9652 -0.9907  0.4864
11686TIP3    H256550   1.525   3.373  11.953 -1.1225 -1.5691 -0.4326
11687TIP3   OH256551   5.783   4.161  14.043 -0.7132 -0.3198 -0.2306
11687TIP3    H156552   5.866   4.162  14.090 -0.1141  0.5550 -1.2395
11687TIP3    H256553   5.717   4.138  14.109  0.0986  0.7427  0.9943
11688TIP3   OH256554   4.962   6.756  15.824 -0.1177  0.6553  0.5667
11688TIP3    H156555   4.980   6.846  15.797 -1.0503  0.9244  0.8005
11688TIP3    H256556   5.020   6.741  15.898  0.0069  1.0826  0.5577
11689TIP3   OH256557   0.531   4.791  10.285  0.0756  0.9049 -0.3957
11689TIP3    H156558   0.474   4.794  10.209  0.9535 -1.8472 -1.2796
11689TIP3    H256559   0.478   4.824  10.357 -1.5770  1.2708 -1.7302
11690TIP3   OH256560   2.184   5.659  15.252  0.0283  0.2175  0.4776
11690TIP3    H156561   2.212   5.742  15.213  1.1267 -0.5670 -0.4772
11690TIP3    H256562   2.203   5.669  15.345 -1.4376  1.6523  0.6795
11691TIP3   OH256563   4.297   1.081   0.033 -0.1409 -0.4249  0.4432
11691TIP3    H156564   4.290   0.986   0.029  1.1519 -0.5298 -0.1291
11691TIP3    H256565   4.391   1.098   0.023 -0.5299  0.9748 -1.7414
11692TIP3   OH256566   2.096   3.103   4.051 -0.4324  0.4761 -0.2181
11692TIP3    H156567   2.018   3.059   4.086  0.7762 -0.9270  0.8458
11692TIP3    H256568   2.151   3.031   4.019 -0.7176  1.5567 -3.6227
11693TIP3   OH256569   5.136   3.556   1.599  0.5456 -0.6402 -0.2004
11693TIP3    H156570   5.101   3.640   1.567 -0.0052 -1.3916 -1.6730
11693TIP3    H256571   5.221   3.578   1.636  0.8480  0.4506 -1.4656
11694TIP3   OH256572   3.782   1.337   2.866 -0.2634 -0.0717 -0.2483
11694TIP3    H156573   3.733   1.418   2.852  1.0781  0.6614 -0.9291
11694TIP3    H256574   3.785   1.295   2.780  1.3492  0.5450 -0.5385
11695TIP3   OH256575   4.199   4.410  13.645 -0.2105 -0.1304  0.1877
11695TIP3    H156576   4.246   4.469  13.585  1.1441 -1.6948 -0.3822
11695TIP3    H256577   4.255   4.406  13.723 -0.6662 -0.0966  0.5189
11696TIP3   OH256578   4.089   6.286  13.311  0.2012  0.2708 -0.1047
11696TIP3    H156579   4.134   6.330  13.239  0.8951 -0.3722 -0.0728
11696TIP3    H256580   4.148   6.296  13.386  0.0437 -0.1178  0.0716
11697TIP3   OH256581   6.362   6.559   3.249 -0.3891  0.7224  0.0425
11697TIP3    H156582   6.369   6.634   3.309  0.6610  0.0627  0.7896
11697TIP3    H256583   6.343   6.484   3.307  0.1888  0.1494 -0.5027
11698TIP3   OH256584   5.592   1.215  11.763  0.1417  0.0217  0.6168
11698TIP3    H156585   5.498   1.232  11.767  0.1608  0.3230 -0.1210
11698TIP3    H256586   5.632   1.302  11.763  0.2783  0.0444 -2.3068
11699TIP3   OH256587   3.454   4.145  14.412 -0.1057  0.1387  0.0694
11699TIP3    H156588   3.490   4.057  14.429  0.4243  0.6454  1.7611
11699TIP3    H256589   3.498   4.201  14.475 -0.2870  1.6840 -1.1330
11700TIP3   OH256590   0.909   6.630   0.954 -0.0309  0.2458  0.2554
11700TIP3    H156591   0.941   6.684   1.027 -0.7989  1.0967 -0.0239
11700TIP3    H256592   0.977   6.639   0.887  0.9297 -0.9459  1.0251
11701TIP3   OH256593   0.940   3.321  16.277  0.5575  0.5826  0.2736
11701TIP3    H156594   0.876   3.277  16.221 -0.5052  1.5017  0.7074
11701TIP3    H256595   0.904   3.313  16.366  0.2920  2.3214  0.3569
11702TIP3   OH256596   5.604   1.254  15.452  0.1404 -0.3658 -0.7166
11702TIP3    H156597   5.695   1.224  15.451  0.4258  0.4594 -0.6036
11702TIP3    H256598   5.605   1.330  15.510 -0.4147  0.2905 -1.5475
11703TIP3   OH256599   1.492   2.017  13.170 -0.5632  0.1393 -0.5064
11703TIP3    H156600   1.548   2.018  13.092 -0.5338 -0.0371 -0.4892
11703TIP3    H256601   1.407   1.986  13.139 -0.7976  0.8795 -0.6244
11704TIP3   OH256602   6.301   6.233  15.664  0.1271 -0.4641  0.2431
11704TIP3    H156603   6.350   6.235  15.581  0.2584  0.7905  0.3264
11704TIP3    H256604   6.286   6.140  15.680  0.9099 -0.7868 -0.7164
11705TIP3   OH256605   2.156   2.102   0.194  0.0355  0.8073 -0.2902
11705TIP3    H156606   2.165   2.176   0.254 -0.6317  1.6100 -1.1485
11705TIP3    H256607   2.080   2.054   0.226 -0.6124  1.5039 -0.7611
11706TIP3   OH256608   2.810   1.448  13.426  0.7694 -0.2082  0.0014
11706TIP3    H156609   2.803   1.371  13.482  0.1739 -0.0706  0.1213
11706TIP3    H256610   2.862   1.510  13.477  0.3735 -0.1477  0.3354
11707TIP3   OH256611   6.136   1.295   2.789  0.1231  0.5514 -0.2026
11707TIP3    H156612   6.099   1.362   2.731 -1.1914 -0.5740 -0.7330
11707TIP3    H256613   6.167   1.227   2.730 -0.7710 -0.3844  0.3805
11708TIP3   OH256614   2.690   1.902  13.913  0.0161  0.1569 -0.5814
11708TIP3    H156615   2.640   1.907  13.995 -1.1348 -0.0664 -1.2427
11708TIP3    H256616   2.671   1.984  13.868  0.1715  0.0277 -0.8834
11709TIP3   OH256617   4.209   0.911   2.971  0.9367  0.1925  0.6336
11709TIP3    H156618   4.243   1.000   2.983  0.8978  0.5704 -1.6278
11709TIP3    H256619   4.285   0.854   2.983  1.3539  0.6688  0.2876
11710TIP3   OH256620   0.206   1.148  14.430  0.4376  0.3083  0.5711
11710TIP3    H156621   0.211   1.054  14.448  1.1479  0.4353  1.0403
11710TIP3    H256622   0.263   1.161  14.354 -2.4450 -0.2040 -1.8945
11711TIP3   OH256623   4.899   0.386  11.984  0.0190  0.2327  0.6167
11711TIP3    H156624   4.876   0.479  11.979 -1.5886 -0.1607 -0.1889
11711TIP3    H256625   4.844   0.351  12.054  1.3426  0.0420  1.6068
11712TIP3   OH256626   5.489   1.607  12.341  0.4547  0.3867  0.1195
11712TIP3    H156627   5.432   1.616  12.264 -0.7791 -2.2732  0.6079
11712TIP3    H256628   5.570   1.568  12.306  0.4160  0.4292 -0.0197
11713TIP3   OH256629   4.701   1.153   0.232  0.2413 -0.2888 -0.2973
11713TIP3    H156630   4.664   1.145   0.144 -1.1605 -3.1784  0.4362
11713TIP3    H256631   4.777   1.094   0.232 -0.5368 -1.3459  0.7374
11714TIP3   OH256632   5.646   3.379   0.268  0.3495 -0.7162  0.0422
11714TIP3    H156633   5.652   3.289   0.236 -1.2296 -0.6081 -0.6208
11714TIP3    H256634   5.633   3.370   0.362  0.7938 -1.1614  0.0642
11715TIP3   OH256635   3.561   5.788  17.161 -0.4410 -0.1138 -0.6733
11715TIP3    H156636   3.588   5.868  17.206  0.9564 -0.8394 -0.1736
11715TIP3    H256637   3.629   5.724  17.182 -1.4825 -1.4177 -1.1372
11716TIP3   OH256638   6.470   6.598  10.549 -0.6674  0.1099  0.3823
11716TIP3    H156639   6.379   6.620  10.529 -0.7486 -1.3186 -0.9594
11716TIP3    H256640   6.466   6.507  10.580  0.2374  0.2611  0.9726
11717TIP3   OH256641   1.202   0.133   2.669  0.2170  0.4693  0.1112
11717TIP3    H156642   1.250   0.064   2.624 -1.2333 -1.7635  1.7937
11717TIP3    H256643   1.231   0.127   2.760  0.4585  2.5250  0.2375
11718TIP3   OH256644   3.248   6.089  11.288 -0.6423 -0.0634  0.1675
11718TIP3    H156645   3.331   6.058  11.324 -0.8452 -0.5454  0.2248
11718TIP3    H256646   3.271   6.125  11.203 -0.4301 -0.5405  0.0180
11719TIP3   OH256647   3.519   4.689   4.149  0.2949 -0.0521 -0.0542
11719TIP3    H156648   3.556   4.722   4.067 -0.8002  0.9259 -0.1825
11719TIP3    H256649   3.553   4.748   4.216  0.0994 -0.0178  0.0152
11720TIP3   OH256650   3.797   3.769  16.161 -0.0677  0.0069 -0.1619
11720TIP3    H156651   3.708   3.757  16.129 -0.7757  0.9147  1.3250
11720TIP3    H256652   3.825   3.853  16.125 -1.7032  2.1797  3.0593
11721TIP3   OH256653   6.101   5.076   5.686 -0.0964 -0.2013  0.1614
11721TIP3    H156654   6.040   5.063   5.758  0.7318 -0.2296  0.8773
11721TIP3    H256655   6.119   5.170   5.687 -0.6741 -0.0713 -0.5178
11722TIP3   OH256656   6.401   0.961   2.898  1.1216  0.2602  0.7680
11722TIP3    H156657   6.344   1.024   2.941 -0.7899 -0.8957  0.0333
11722TIP3    H256658   6.471   0.945   2.961  0.4910  1.4889  1.8273
11723TIP3   OH256659   4.754   5.388   2.482  0.1405  0.9024 -0.7124
11723TIP3    H156660   4.778   5.381   2.575  1.7056 -0.1134 -1.1432
11723TIP3    H256661   4.659   5.395   2.482  0.0948  0.7362  0.9655
11724TIP3   OH256662   6.419   6.406   6.142 -0.0441  0.0021 -0.3665
11724TIP3    H156663   6.397   6.422   6.234 -2.6502 -1.3574 -0.6541
11724TIP3    H256664   6.475   6.479   6.118 -0.9568  1.5252  1.7627
11725TIP3   OH256665   0.182   0.408  12.730  0.4082  0.1332  0.0567
11725TIP3    H156666   0.231   0.347  12.674 -0.9595  0.1846 -1.2783
11725TIP3    H256667   0.091   0.379  12.722 -0.0776  1.4604  0.5630
11726TIP3   OH256668   3.716   6.224   5.017  0.7590  0.2495 -0.8375
11726TIP3    H156669   3.788   6.166   4.992  0.7532  0.6081 -1.7364
11726TIP3    H256670   3.740   6.257   5.103  1.7274  0.4427 -1.1719
11727TIP3   OH256671   6.668   3.222   4.897  0.1742  0.6919 -0.3290
11727TIP3    H156672   6.598   3.200   4.958  0.0613 -1.0167 -1.0165
11727TIP3    H256673   6.739   3.163   4.920  0.3130  0.3769 -1.4945
11728TIP3   OH256674   2.179   0.753  14.504 -0.0168 -0.2613 -0.1085
11728TIP3    H156675   2.227   0.803  14.438 -1.0134 -0.2263 -0.8327
11728TIP3    H256676   2.138   0.820  14.559 -0.6988 -0.2780 -0.5908
11729TIP3   OH256677   1.402   4.877  11.908  0.7676 -0.0688  0.2449
11729TIP3    H156678   1.365   4.965  11.901  2.4960  0.5630 -2.2085
11729TIP3    H256679   1.483   4.889  11.956  1.3902 -0.1680 -0.7616
11730TIP3   OH256680   3.028   0.403  15.057 -0.5765 -0.2216 -0.2433
11730TIP3    H156681   3.094   0.397  15.126  1.6308  2.4578 -1.9224
11730TIP3    H256682   3.047   0.329  15.000  0.2603 -0.1342 -0.0934
11731TIP3   OH256683   0.697   3.120  12.684 -0.2950  0.2730  0.4312
11731TIP3    H156684   0.702   3.032  12.646 -1.1253 -0.8650  2.7782
11731TIP3    H256685   0.788   3.147  12.696 -0.0343 -0.3469 -0.1161
11732TIP3   OH256686   6.755   6.686  16.946 -0.6011  0.2163  0.1967
11732TIP3    H156687   6.755   6.781  16.944  0.9877  0.2823  1.1505
11732TIP3    H256688   6.819   6.664  17.014  0.9862 -1.5149 -1.7106
11733TIP3   OH256689   3.022   6.262   4.151  0.3185 -0.3526 -0.3469
11733TIP3    H156690   3.083   6.295   4.217 -0.7238  1.8607 -0.4014
11733TIP3    H256691   3.021   6.167   4.164  0.8733 -0.0740  2.1678
11734TIP3   OH256692   3.269   2.219   0.561 -0.3240  0.0182 -0.1216
11734TIP3    H156693   3.212   2.246   0.489 -0.3783  1.7904  0.5557
11734TIP3    H256694   3.273   2.123   0.553  0.7887  0.2062 -3.3187
11735TIP3   OH256695   4.409   2.651  11.702  0.0261 -0.2182  0.3838
11735TIP3    H156696   4.435   2.687  11.617  1.6086  0.0258  0.9327
11735TIP3    H256697   4.415   2.556  11.691 -0.6416 -0.2158 -0.0287
11736TIP3   OH256698   0.736   3.505   5.779 -0.1311 -0.4846  0.0856
11736TIP3    H156699   0.818   3.462   5.753  0.6051  1.0960 -0.3618
11736TIP3    H256700   0.668   3.452   5.739  0.7918 -0.6118 -1.4269
11737TIP3   OH256701   0.848   3.804   2.502 -0.5101  0.3863  0.3071
11737TIP3    H156702   0.901   3.847   2.569 -0.2094 -1.9480  1.7056
11737TIP3    H256703   0.778   3.866   2.483  0.7676  2.1237  0.9557
11738TIP3   OH256704   0.191   5.289  10.971  0.7470  0.2100  0.7737
11738TIP3    H156705   0.232   5.214  10.927  2.0187  0.4613  1.4709
11738TIP3    H256706   0.099   5.282  10.948  0.7996 -1.6521  0.8992
11739TIP3   OH256707   3.022   2.337   2.316  0.4649 -0.2041  0.1432
11739TIP3    H156708   2.962   2.297   2.380 -0.4392  0.7973 -0.0481
11739TIP3    H256709   2.974   2.412   2.282  1.1186 -0.4473 -1.3933
11740TIP3   OH256710   1.291   5.719  14.173 -0.2915  0.2542 -0.4738
11740TIP3    H156711   1.339   5.694  14.094  0.5352  2.0929 -0.6084
11740TIP3    H256712   1.347   5.784  14.215 -1.7077  0.8897  0.5028
11741TIP3   OH256713   0.035   6.114   4.512 -0.3116  0.3019 -0.3170
11741TIP3    H156714   0.034   6.080   4.422 -1.3696 -1.4048  0.2923
11741TIP3    H256715   0.124   6.095   4.543 -0.9833 -2.4722  0.1499
11742TIP3   OH256716   4.786   0.720  16.493 -0.0440 -0.1602 -0.3357
11742TIP3    H156717   4.698   0.707  16.529  0.4240 -0.4251  0.7756
11742TIP3    H256718   4.777   0.790  16.429 -0.2840  3.1613  3.0041
11743TIP3   OH256719   0.467   2.675  16.119 -0.1984 -0.0584 -0.1845
11743TIP3    H156720   0.373   2.672  16.136 -0.3477  1.8458 -0.3914
11743TIP3    H256721   0.499   2.743  16.179  1.1786 -1.1375  0.3577
11744TIP3   OH256722   1.644   4.837   3.087  0.2619 -0.0034 -0.4060
11744TIP3    H156723   1.689   4.843   3.003 -0.2923  1.6985 -0.6329
11744TIP3    H256724   1.594   4.756   3.082  0.7698 -0.2635 -1.4454
11745TIP3   OH256725   3.785   3.184  11.822  0.3910 -0.1564 -0.2111
11745TIP3    H156726   3.810   3.253  11.883  0.4731 -0.4192  0.0587
11745TIP3    H256727   3.741   3.118  11.877  1.3092 -0.8343 -0.2761
11746TIP3   OH256728   5.364   1.742  14.524  0.1351 -0.4989  0.3866
11746TIP3    H156729   5.307   1.805  14.481 -2.0633 -2.1291  0.7520
11746TIP3    H256730   5.422   1.711  14.455 -1.2020 -0.7408 -0.6550
11747TIP3   OH256731   6.539   3.215  14.992  0.9919  0.4009 -0.0746
11747TIP3    H156732   6.466   3.179  15.044  0.1654  1.2445 -0.6168
11747TIP3    H256733   6.567   3.142  14.938  0.7534 -0.0250  0.3604
11748TIP3   OH256734   1.806   3.037  13.999 -0.2731  0.1673 -0.0956
11748TIP3    H156735   1.888   3.062  13.958 -0.5466  0.1496 -0.6655
11748TIP3    H256736   1.738   3.071  13.940 -0.7867  3.4566  2.1554
11749TIP3   OH256737   6.706   1.874   4.002 -0.2115  0.2061  0.0999
11749TIP3    H156738   6.762   1.951   3.990  1.6523 -1.0234  0.5384
11749TIP3    H256739   6.748   1.805   3.951 -1.3203 -0.7889  0.4789
11750TIP3   OH256740   5.186   1.841   4.899 -0.0078  0.3947 -0.3839
11750TIP3    H156741   5.213   1.921   4.946  2.4415 -0.1694 -0.6535
11750TIP3    H256742   5.216   1.855   4.810  0.7421 -0.9143 -0.3671
11751TIP3   OH256743   5.420   0.229  13.787 -0.0459 -0.4932  0.3006
11751TIP3    H156744   5.393   0.306  13.836 -0.3935 -0.4887  0.1029
11751TIP3    H256745   5.359   0.160  13.812  2.3212 -1.7572  3.1928
11752TIP3   OH256746   1.029   4.555  17.137 -0.7185  0.3596 -0.3959
11752TIP3    H156747   1.004   4.466  17.109  1.5339 -0.4686  0.0476
11752TIP3    H256748   1.043   4.603  17.055 -0.5554 -0.1157 -0.6531
11753TIP3   OH256749   2.152   0.653  16.224  0.3587  0.0082  0.3249
11753TIP3    H156750   2.129   0.674  16.133 -0.7184 -2.8290 -0.1506
11753TIP3    H256751   2.088   0.702  16.276 -1.8318 -1.5738 -0.6888
11754TIP3   OH256752   1.111   0.812  13.730 -0.0785 -0.1061 -0.1104
11754TIP3    H156753   1.082   0.858  13.809  0.2476  0.3511 -0.2566
11754TIP3    H256754   1.059   0.849  13.659 -0.2467 -0.3921 -0.1364
11755TIP3   OH256755   5.164   5.242   0.285 -0.0381 -0.6082 -0.2623
11755TIP3    H156756   5.155   5.188   0.207  1.1744  0.2281 -1.0157
11755TIP3    H256757   5.181   5.330   0.252  0.5941 -0.2529  0.9376
11756TIP3   OH256758   5.416   6.353   1.076  0.0199 -0.1442 -0.0701
11756TIP3    H156759   5.391   6.337   1.168 -1.0311  0.2253 -0.2709
11756TIP3    H256760   5.478   6.284   1.056  0.1493 -0.3200  0.8846
11757TIP3   OH256761   3.576   1.687   6.338  0.1649 -0.1063 -0.0499
11757TIP3    H156762   3.527   1.719   6.414 -0.5286  0.8856 -0.8976
11757TIP3    H256763   3.571   1.591   6.345  0.1519 -0.0402  1.1655
11758TIP3   OH256764   5.118   1.215   6.393 -0.0852  0.1661  0.5806
11758TIP3    H156765   5.067   1.157   6.449  1.5075 -0.6409  1.2518
11758TIP3    H256766   5.130   1.165   6.312  0.7591 -0.2124  0.9280
11759TIP3   OH256767   4.049   0.212  14.908  0.3907 -0.5867 -0.1220
11759TIP3    H156768   4.026   0.275  14.839 -0.4762 -0.2199  0.4776
11759TIP3    H256769   4.137   0.182  14.885  2.1690  3.0870  1.1792
11760TIP3   OH256770   3.230   5.872  13.642 -0.1752 -0.5926  0.0042
11760TIP3    H156771   3.167   5.803  13.621  0.4106 -0.8697 -0.9173
11760TIP3    H256772   3.207   5.944  13.585 -0.3373 -0.2808  0.4563
11761TIP3   OH256773   0.546   5.251  16.928  0.0467  0.2550 -0.1996
11761TIP3    H156774   0.508   5.224  16.844 -1.1845  1.5936 -0.1254
11761TIP3    H256775   0.618   5.190  16.943 -1.3299 -1.6494 -0.9661
11762TIP3   OH256776   5.113   1.046  14.762  0.0105  0.6713  0.7922
11762TIP3    H156777   5.164   0.966  14.750  1.5506  1.6605  0.3429
11762TIP3    H256778   5.022   1.019  14.749  0.5830 -0.7739 -0.5920
11763TIP3   OH256779   1.225   2.268   1.871  0.0421 -0.5939 -0.2787
11763TIP3    H156780   1.150   2.317   1.838  0.1609 -2.0606 -2.9222
11763TIP3    H256781   1.192   2.180   1.887  0.5554 -0.5170  1.4011
11764TIP3   OH256782   3.001   3.895  14.870 -0.0103 -0.8638 -0.1457
11764TIP3    H156783   3.071   3.838  14.902  0.6451 -0.8365 -1.4792
11764TIP3    H256784   3.046   3.975  14.843 -0.4592 -1.0736 -1.5953
11765TIP3   OH256785   6.353   4.591   0.164 -0.6367 -0.0529  0.2873
11765TIP3    H156786   6.259   4.583   0.185 -0.4860  1.3993  1.7595
11765TIP3    H256787   6.357   4.665   0.103 -0.5009 -0.6306 -0.4207
11766TIP3   OH256788   2.288   0.267  11.582 -0.5828  0.1770 -0.0553
11766TIP3    H156789   2.294   0.361  11.600  2.4203 -0.3875  2.9849
11766TIP3    H256790   2.259   0.229  11.664 -1.4203 -1.6431 -1.1348
11767TIP3   OH256791   3.396   3.831   0.338  0.1449 -0.3760 -0.2139
11767TIP3    H156792   3.315   3.798   0.378 -2.2421  1.5191 -3.0979
11767TIP3    H256793   3.451   3.855   0.413 -2.0224 -1.5041  1.8867
11768TIP3   OH256794   0.459   6.103  15.824  0.1666  0.1434  0.1122
11768TIP3    H156795   0.437   6.124  15.733  0.2833  1.5787  0.3868
11768TIP3    H256796   0.379   6.121  15.874  0.3181  0.0719  0.3841
11769TIP3   OH256797   6.496   5.466  15.849 -0.0699 -0.0536 -0.3066
11769TIP3    H156798   6.438   5.390  15.847 -1.2579  0.7670  0.9074
11769TIP3    H256799   6.540   5.461  15.934  0.2907  0.2919 -0.4683
11770TIP3   OH256800   5.978   1.646  11.303  0.0776  0.1393 -0.1161
11770TIP3    H156801   6.024   1.665  11.385  0.8018 -0.2623 -0.4161
11770TIP3    H256802   5.885   1.645  11.327  0.2490  0.5221  0.5956
11771TIP3   OH256803   1.167   2.226   4.040  0.2422 -0.0155  0.0415
11771TIP3    H156804   1.090   2.238   3.985  0.4764 -1.0597 -0.5409
11771TIP3    H256805   1.218   2.306   4.029 -1.4759  1.4006  1.6607
11772TIP3   OH256806   3.390   6.760   6.273 -0.0410  0.0644 -0.4681
11772TIP3    H156807   3.483   6.736   6.276  0.0515  0.2599 -1.3865
11772TIP3    H256808   3.352   6.700   6.209 -0.6093 -0.1751  0.0829
11773TIP3   OH256809   6.189   2.465  12.134 -0.5998  0.2008  0.8074
11773TIP3    H156810   6.183   2.533  12.200 -1.2381  0.7884  0.1661
11773TIP3    H256811   6.162   2.508  12.053 -1.9588 -1.0394  0.5568
11774TIP3   OH256812   2.905   1.454   5.601 -0.3247  0.0103  0.6601
11774TIP3    H156813   2.993   1.491   5.602  0.6925 -1.3373 -5.1160
11774TIP3    H256814   2.856   1.507   5.538 -2.6941 -1.2123  1.3256
11775TIP3   OH256815   4.836   6.479   5.657  0.2468 -0.3980 -0.2410
11775TIP3    H156816   4.864   6.444   5.572 -0.9684  1.1130 -1.3303
11775TIP3    H256817   4.770   6.417   5.687 -1.5794  0.5766 -1.9505
11776TIP3   OH256818   5.561   4.512  17.197  0.1007  0.5193 -0.0695
11776TIP3    H156819   5.600   4.592  17.230  0.4843  0.5209 -0.5172
11776TIP3    H256820   5.595   4.443  17.254 -1.2167  0.8003  1.1188
11777TIP3   OH256821   2.542   1.585  13.469 -0.8515 -0.0247  0.6346
11777TIP3    H156822   2.613   1.530  13.436 -0.4076  0.8276  0.1345
11777TIP3    H256823   2.497   1.530  13.534  0.7078 -0.3184  1.4947
11778TIP3   OH256824   5.647   1.725  16.749  0.1056 -0.2114 -0.5859
11778TIP3    H156825   5.688   1.744  16.664  0.8619 -0.8445 -0.3820
11778TIP3    H256826   5.556   1.751  16.738  0.4212  0.6963 -1.2566
11779TIP3   OH256827   4.062   3.170  12.477  0.6862  0.1461  0.4460
11779TIP3    H156828   4.098   3.139  12.561  1.7701  3.3122  1.2856
11779TIP3    H256829   3.987   3.224  12.502  0.8233  0.8681 -0.6482
11780TIP3   OH256830   3.691   4.276  11.580 -0.0446  0.3597 -0.0202
11780TIP3    H156831   3.758   4.224  11.537 -0.2545 -0.8126  1.0267
11780TIP3    H256832   3.734   4.312  11.658 -0.4333  0.1509  0.2963
11781TIP3   OH256833   4.045   5.159   0.107 -0.6075 -0.4000  0.1161
11781TIP3    H156834   4.012   5.078   0.070  0.4886 -0.2367 -1.2875
11781TIP3    H256835   4.056   5.217   0.032  1.6448 -0.0381  0.6522
11782TIP3   OH256836   4.110   5.849  13.877 -0.3362 -0.5889  0.1408
11782TIP3    H156837   4.091   5.877  13.967 -0.9901  0.7844 -0.3856
11782TIP3    H256838   4.134   5.757  13.885 -1.6779 -0.8598  1.5760
11783TIP3   OH256839   2.540   0.256  15.292  0.0164 -0.0202  0.0185
11783TIP3    H156840   2.535   0.294  15.204 -0.1854 -2.0634 -0.8960
11783TIP3    H256841   2.632   0.234  15.304  0.4488  2.0571  1.2002
11784TIP3   OH256842   4.167   4.106   4.068  0.0013 -0.1821  0.2240
11784TIP3    H156843   4.178   4.034   4.131  0.3046 -0.7438 -0.4625
11784TIP3    H256844   4.162   4.063   3.983 -2.1641  0.4107 -0.0241
11785TIP3   OH256845   2.718   2.349  11.906  0.4462  0.0475  0.4365
11785TIP3    H156846   2.649   2.319  11.965  0.7299 -0.6783  0.4116
11785TIP3    H256847   2.777   2.274  11.898 -1.3024 -1.1174 -3.4207
11786TIP3   OH256848   5.946   3.700   3.801 -0.5354  0.3688 -0.1548
11786TIP3    H156849   5.915   3.682   3.890 -1.5024  0.3427 -0.4922
11786TIP3    H256850   5.977   3.614   3.770 -0.8360  0.2389 -0.0967
11787TIP3   OH256851   6.488   0.809  13.706  0.0021 -0.7486 -0.2280
11787TIP3    H156852   6.401   0.820  13.666  0.6505  1.2622 -1.2206
11787TIP3    H256853   6.549   0.825  13.635  1.2628 -3.0375  0.2365
11788TIP3   OH256854   2.588   2.390   1.878  0.2254  0.5354  0.1840
11788TIP3    H156855   2.544   2.309   1.902  0.4185  0.0953 -0.8939
11788TIP3    H256856   2.672   2.387   1.923 -0.0242  0.4349  0.6433
11789TIP3   OH256857   4.745   2.352  15.392 -0.7568  0.0207 -0.2635
11789TIP3    H156858   4.671   2.380  15.339  0.7693  1.8744 -1.5644
11789TIP3    H256859   4.748   2.257  15.380 -2.4116  0.0052 -0.8151
11790TIP3   OH256860   3.416   4.507  16.575  0.3697  0.1265  0.1693
11790TIP3    H156861   3.436   4.511  16.669  1.8262  0.7105 -0.1257
11790TIP3    H256862   3.328   4.470  16.570  1.7354 -3.8297  1.6297
11791TIP3   OH256863   2.932   0.798  16.879 -0.0524 -0.6669 -0.3627
11791TIP3    H156864   3.010   0.841  16.843 -1.4278  0.9727 -1.5336
11791TIP3    H256865   2.926   0.715  16.831  0.0956 -0.0765 -1.4333
11792TIP3   OH256866   1.847   4.505   0.258 -0.2728  0.4784  0.1079
11792TIP3    H156867   1.921   4.564   0.275  0.5074 -0.1332 -1.0240
11792TIP3    H256868   1.837   4.508   0.163 -1.1708 -0.0970  0.1830
11793TIP3   OH256869   3.019   0.360   1.432 -0.2198 -0.6199 -0.2048
11793TIP3    H156870   3.025   0.454   1.416  0.0148 -0.8046 -1.2633
11793TIP3    H256871   2.927   0.339   1.415 -0.2229 -0.6229 -0.1854
11794TIP3   OH256872   1.425   1.884  12.253  0.2567 -0.0554  0.0635
11794TIP3    H156873   1.432   1.790  12.234  1.3916  0.1033 -0.4355
11794TIP3    H256874   1.479   1.925  12.185 -2.2083  1.1639 -1.3211
11795TIP3   OH256875   6.447   6.452  14.415 -0.1056  0.0000 -0.2668
11795TIP3    H156876   6.413   6.373  14.456  1.4685  0.2250  1.6191
11795TIP3    H256877   6.377   6.480  14.356 -2.0217 -1.0265  1.3838
11796TIP3   OH256878   1.962   5.659  16.213 -0.7796 -0.2934 -0.1216
11796TIP3    H156879   1.925   5.644  16.126 -0.0956 -0.5910 -0.3616
11796TIP3    H256880   1.899   5.718  16.255 -0.6352  0.6415 -1.1633
11797TIP3   OH256881   1.350   6.037  11.367  0.0184  0.1823  0.2532
11797TIP3    H156882   1.289   6.110  11.365 -0.2515 -0.0385  0.4336
11797TIP3    H256883   1.437   6.078  11.362 -0.1502  0.4752 -0.4667
11798TIP3   OH256884   5.044   2.826   4.248  0.0231  0.0004 -0.2543
11798TIP3    H156885   5.034   2.891   4.178  0.2829 -0.1153 -0.3988
11798TIP3    H256886   5.138   2.825   4.266  0.1120 -0.8169 -0.7174
11799TIP3   OH256887   4.491   1.542   1.062 -0.5545  0.7516 -0.5250
11799TIP3    H156888   4.499   1.555   0.967 -0.9810  2.9982 -0.3137
11799TIP3    H256889   4.580   1.553   1.095 -0.1990 -1.1689 -0.7230
11800TIP3   OH256890   1.004   5.408  15.179 -0.2221 -0.2268  0.3594
11800TIP3    H156891   1.054   5.327  15.189 -1.9635 -1.3589  0.3465
11800TIP3    H256892   0.913   5.379  15.169 -0.8903  1.7351  0.2965
11801TIP3   OH256893   6.503   5.297  15.384  0.2104 -0.3130 -0.0749
11801TIP3    H156894   6.543   5.211  15.372  0.7150 -0.1221  0.2237
11801TIP3    H256895   6.560   5.357  15.335  1.4596  0.2617  1.9882
11802TIP3   OH256896   4.456   0.445  14.935  0.5102 -0.2943  0.6708
11802TIP3    H156897   4.504   0.494  14.867 -0.3888  0.2058  0.3841
11802TIP3    H256898   4.369   0.432  14.898  0.9290 -2.8014  0.4389
11803TIP3   OH256899   4.646   0.314   6.269  0.0960  0.2532 -0.2735
11803TIP3    H156900   4.557   0.319   6.305 -0.2455  2.1602 -1.2521
11803TIP3    H256901   4.703   0.313   6.346 -0.7356 -0.4741  0.3576
11804TIP3   OH256902   3.775   3.942  14.045  0.2556 -0.4280  0.1755
11804TIP3    H156903   3.692   3.969  14.084  0.6636  0.3802  0.5032
11804TIP3    H256904   3.790   3.855  14.079  0.2081 -0.0484  1.1924
11805TIP3   OH256905   4.235   2.887   0.634 -0.1841 -0.5618  0.8390
11805TIP3    H156906   4.214   2.870   0.542 -0.4840 -1.4634  1.0568
11805TIP3    H256907   4.328   2.867   0.641 -0.1459 -0.4266  0.7119
11806TIP3   OH256908   4.433   1.893  12.223  0.2680 -0.2276 -0.1417
11806TIP3    H156909   4.342   1.871  12.203  0.3418  0.4450 -1.2812
11806TIP3    H256910   4.429   1.983  12.255  0.4139 -0.5718  0.8740
11807TIP3   OH256911   3.392   0.709   4.366 -0.5781  0.4927  0.8965
11807TIP3    H156912   3.341   0.635   4.398 -3.2384  1.0776 -1.5652
11807TIP3    H256913   3.464   0.718   4.428 -0.8111 -3.3655  1.9393
11808TIP3   OH256914   1.725   5.028   6.018  0.2854 -0.2278 -0.1151
11808TIP3    H156915   1.721   5.026   5.923  0.6617 -0.1867 -0.1336
11808TIP3    H256916   1.812   5.062   6.038  0.6167 -1.2549  0.2486
11809TIP3   OH256917   1.864   4.664  11.654 -0.0371 -0.5450  0.0783
11809TIP3    H156918   1.852   4.757  11.674 -0.4184 -0.3213 -1.1467
11809TIP3    H256919   1.776   4.632  11.634 -0.0032 -1.3333  1.1148
11810TIP3   OH256920   6.147   6.808   1.628  0.1508  0.0779  0.8598
11810TIP3    H156921   6.094   6.804   1.708 -1.2868  1.1222  0.0039
11810TIP3    H256922   6.218   6.746   1.643 -0.9436 -0.8744  2.3369
11811TIP3   OH256923   0.356   6.386   1.725 -0.0473  0.2101  0.2811
11811TIP3    H156924   0.418   6.364   1.795  0.3626 -0.6183 -0.3333
11811TIP3    H256925   0.278   6.416   1.771  0.7644  1.1844  1.0748
11812TIP3   OH256926   2.134   6.485  14.314 -0.4174 -0.4214 -0.5429
11812TIP3    H156927   2.047   6.520  14.296  0.3806  0.7853 -2.3024
11812TIP3    H256928   2.130   6.394  14.285 -1.4569 -0.7729  0.6447
11813TIP3   OH256929   6.668   4.262   2.460 -0.0342  0.6695 -0.0091
11813TIP3    H156930   6.747   4.302   2.494  0.8368  0.7179 -1.9366
11813TIP3    H256931   6.601   4.330   2.468  0.5217  1.2082  0.1505
11814TIP3   OH256932   2.013   4.372   1.304 -0.3361 -0.4730 -0.2008
11814TIP3    H156933   2.105   4.399   1.309  0.4482 -2.7807 -0.8285
11814TIP3    H256934   1.973   4.433   1.242  1.0721 -0.1743 -0.8609
11815TIP3   OH256935   5.970   6.136   3.821 -0.1064  0.0938  0.2395
11815TIP3    H156936   5.997   6.224   3.794  0.9872 -0.1458  0.4772
11815TIP3    H256937   5.945   6.146   3.913  0.5382  0.0597  0.4219
11816TIP3   OH256938   5.630   5.496   2.843 -0.4698 -0.0694 -0.0267
11816TIP3    H156939   5.693   5.436   2.881 -0.7192 -0.2400  0.1175
11816TIP3    H256940   5.647   5.493   2.749  1.6349  1.9998  0.1864
11817TIP3   OH256941   6.651   4.506   0.687 -0.0751  0.0744 -0.3030
11817TIP3    H156942   6.669   4.488   0.780 -1.5090  0.4436  0.0680
11817TIP3    H256943   6.582   4.445   0.664  1.0522 -0.8162 -1.4904
11818TIP3   OH256944   0.622   1.489  16.816 -0.1696 -0.4674 -0.0853
11818TIP3    H156945   0.648   1.580  16.799  0.3473 -0.3741  1.1104
11818TIP3    H256946   0.572   1.494  16.897 -0.7850 -1.1593 -0.4178
11819TIP3   OH256947   5.619   0.868  12.744  0.1526  0.2454  0.5142
11819TIP3    H156948   5.651   0.876  12.834  0.2239 -1.4104  0.6703
11819TIP3    H256949   5.694   0.893  12.690 -0.3183  2.6273  0.8853
11820TIP3   OH256950   4.779   2.741   5.570 -0.1979  0.1470 -0.2331
11820TIP3    H156951   4.854   2.703   5.524  0.6598  0.9343  0.4562
11820TIP3    H256952   4.780   2.833   5.542 -1.8112 -0.1382 -1.3449
11821TIP3   OH256953   2.155   0.687   4.419  0.2306  0.1065 -0.1898
11821TIP3    H156954   2.095   0.755   4.450 -0.2816 -0.3573 -0.1452
11821TIP3    H256955   2.193   0.724   4.339  1.0158  1.0083  0.5757
11822TIP3   OH256956   0.319   3.855   0.225 -0.1514  0.3964 -0.6853
11822TIP3    H156957   0.413   3.866   0.213  0.0949 -1.8715 -1.5010
11822TIP3    H256958   0.307   3.853   0.320  0.5813  0.9650 -0.5710
11823TIP3   OH256959   2.286   3.246   5.620  0.0556 -0.6326 -0.2358
11823TIP3    H156960   2.350   3.315   5.600  0.7440 -1.3410 -0.5508
11823TIP3    H256961   2.221   3.253   5.549 -1.0113  0.9839  0.8274
11824TIP3   OH256962   5.864   2.520  10.948 -0.3572 -0.1200 -0.5012
11824TIP3    H156963   5.810   2.451  10.908 -1.5961  0.0507  0.7797
11824TIP3    H256964   5.800   2.584  10.979  0.5353 -0.1633  1.5550
11825TIP3   OH256965   5.319   6.374   5.814  0.0120 -0.8575  0.0050
11825TIP3    H156966   5.284   6.463   5.818 -0.5990 -0.9751 -1.8568
11825TIP3    H256967   5.401   6.378   5.864 -0.4623  0.5063  0.7162
11826TIP3   OH256968   2.733   0.102  11.230 -0.3214 -0.2080  0.1804
11826TIP3    H156969   2.771   0.180  11.271  1.8929 -0.5837 -0.9800
11826TIP3    H256970   2.759   0.108  11.138 -0.4518 -2.0957 -0.0227
11827TIP3   OH256971   0.309   3.935  16.229  0.1207  0.5287 -0.0526
11827TIP3    H156972   0.306   3.911  16.136  0.2441 -0.2965  0.1476
11827TIP3    H256973   0.225   3.905  16.264  0.9314 -1.1130  0.5457
11828TIP3   OH256974   5.721   0.636  14.883 -0.4476 -0.9399 -0.2822
11828TIP3    H156975   5.766   0.720  14.882 -0.7729 -0.7591  0.0348
11828TIP3    H256976   5.772   0.583  14.945 -0.5302 -0.8163 -0.1091
11829TIP3   OH256977   2.719   0.975   0.014 -0.8702 -0.3987 -0.6113
11829TIP3    H156978   2.656   1.027  -0.035 -0.8661  0.9171  0.6863
11829TIP3    H256979   2.801   0.985  -0.034 -0.0459  3.5944  1.2103
11830TIP3   OH256980   2.117   3.355   2.901  0.0328 -0.5071  0.2817
11830TIP3    H156981   2.132   3.360   2.996 -0.1543 -0.3915  0.3064
11830TIP3    H256982   2.028   3.390   2.889  0.4504  0.4839 -0.0492
11831TIP3   OH256983   2.831   3.111   5.242  0.4571  0.3338  0.4781
11831TIP3    H156984   2.754   3.163   5.266  0.2178  0.0828  0.2503
11831TIP3    H256985   2.841   3.124   5.148  1.4800  1.4241  0.7058
11832TIP3   OH256986   3.599   0.149  15.445  0.3254  0.0168  0.1722
11832TIP3    H156987   3.674   0.203  15.467  1.0206 -1.0814  0.5862
11832TIP3    H256988   3.544   0.151  15.523 -0.6420  1.6796 -0.5000
11833TIP3   OH256989   5.954   0.414   2.347  0.4234 -0.1226  0.6956
11833TIP3    H156990   6.033   0.458   2.380 -0.6446  2.4715  0.0409
11833TIP3    H256991   5.887   0.433   2.413 -0.3275  0.1676 -0.1332
11834TIP3   OH256992   4.867   4.584   5.197 -0.1599  0.5780  0.0476
11834TIP3    H156993   4.849   4.629   5.280 -0.2873  1.1244 -0.2776
11834TIP3    H256994   4.961   4.595   5.184  0.1586 -0.8570  0.9043
11835TIP3   OH256995   4.960   2.417   0.255  0.3458  0.2747  1.1002
11835TIP3    H156996   4.900   2.375   0.316 -0.1207 -2.2110 -0.9310
11835TIP3    H256997   5.044   2.375   0.270  0.5227  0.5406  0.8728
11836TIP3   OH256998   1.020   1.466  16.842  0.0501  0.0286  0.2931
11836TIP3    H156999   1.067   1.448  16.924 -0.8538  1.0874  1.0777
11836TIP3    H257000   0.954   1.398  16.836 -1.2154  1.0802  1.5422
11837TIP3   OH257001   5.038   1.169   5.801 -0.2911  0.3837 -0.1552
11837TIP3    H157002   5.022   1.146   5.709 -0.8156  1.8088 -0.4409
11837TIP3    H257003   5.095   1.246   5.797  1.4797 -0.8008  0.7759
11838TIP3   OH257004   3.369   3.672   4.342 -0.1768  0.0468  0.2604
11838TIP3    H157005   3.461   3.680   4.369 -0.0266  0.5779 -0.3875
11838TIP3    H257006   3.352   3.751   4.291 -1.1407  0.1787  0.7662
11839TIP3   OH257007   3.446   4.285  15.438  0.1498  0.1654  0.0990
11839TIP3    H157008   3.397   4.249  15.512  0.2757 -1.1649 -0.4324
11839TIP3    H257009   3.469   4.208  15.385  2.3651  0.7822  0.0735
11840TIP3   OH257010   3.437   5.333  12.198 -0.2273  0.0265 -0.2263
11840TIP3    H157011   3.408   5.299  12.114 -0.2103 -0.5171 -0.0185
11840TIP3    H257012   3.429   5.258  12.258  0.2988  0.2460  0.1270
11841TIP3   OH257013   2.695   2.126  11.688  0.2814  0.2558 -0.9323
11841TIP3    H157014   2.650   2.201  11.728  2.0765  1.4223 -1.0220
11841TIP3    H257015   2.744   2.087  11.760  0.0882 -0.2727 -1.0882
11842TIP3   OH257016   4.053   1.014  12.798 -0.4469  0.5489  0.2174
11842TIP3    H157017   4.064   1.108  12.783 -0.0345  0.5293  0.3734
11842TIP3    H257018   4.015   1.008  12.885  1.0082  0.5217  0.8666
11843TIP3   OH257019   2.862   3.807   4.409 -0.2040  0.5599 -0.4000
11843TIP3    H157020   2.824   3.848   4.487 -1.0299  1.7289 -1.3688
11843TIP3    H257021   2.887   3.881   4.353  2.0285 -0.2180 -0.5255
11844TIP3   OH257022   0.115   4.161   3.847  0.0400 -0.6478 -0.1902
11844TIP3    H157023   0.130   4.128   3.936 -1.5612  1.5309  0.9823
11844TIP3    H257024   0.063   4.092   3.805 -1.2859 -0.7161  1.4200
11845TIP3   OH257025   1.210   3.205   5.702 -0.3464 -0.0635  0.1012
11845TIP3    H157026   1.290   3.250   5.728 -0.9457  0.3548  1.2896
11845TIP3    H257027   1.185   3.246   5.620 -0.1778  0.8872  0.5070
11846TIP3   OH257028   0.237   4.370  10.820 -0.2466 -0.1102  0.4481
11846TIP3    H157029   0.233   4.318  10.900  1.6022  0.7640  1.1544
11846TIP3    H257030   0.276   4.311  10.755 -1.3412 -0.6746  0.2746
11847TIP3   OH257031   2.731   3.827  16.067  0.2062  0.1543 -0.4194
11847TIP3    H157032   2.822   3.855  16.078 -0.0138  1.4412 -1.5278
11847TIP3    H257033   2.680   3.897  16.106 -0.3359 -0.9962  1.0284
11848TIP3   OH257034   0.059   4.661   4.609 -0.2586 -0.4840  0.0540
11848TIP3    H157035   0.014   4.669   4.693  0.3476  2.7648  0.1755
11848TIP3    H257036   0.145   4.627   4.631 -0.7654 -1.5559  0.4567
11849TIP3   OH257037   0.261   3.851   0.518  0.4067  0.5101  0.3984
11849TIP3    H157038   0.209   3.832   0.597 -0.9256  0.4693 -0.4617
11849TIP3    H257039   0.221   3.930   0.481 -0.4790 -0.7396 -1.4610
11850TIP3   OH257040   4.427   0.351  13.557 -0.3222  0.2740  0.3241
11850TIP3    H157041   4.409   0.259  13.543  0.5445  0.3963 -2.0064
11850TIP3    H257042   4.459   0.356  13.647  1.5122 -2.0257 -0.1175
11851TIP3   OH257043   2.753   3.233  16.676 -0.0411  0.6439  0.2360
11851TIP3    H157044   2.756   3.137  16.675 -1.0181  0.5964  1.0244
11851TIP3    H257045   2.825   3.259  16.618 -0.3019 -0.5704 -0.6767
11852TIP3   OH257046   3.342   4.664  14.181  0.1902  0.1786  0.3647
11852TIP3    H157047   3.248   4.648  14.182  0.2444 -0.1564  0.4432
11852TIP3    H257048   3.380   4.579  14.205  0.5454  0.0880 -0.5098
11853TIP3   OH257049   1.303   2.261  14.560  0.3332 -0.1086  0.6945
11853TIP3    H157050   1.304   2.207  14.481  0.1046  2.0852 -0.8987
11853TIP3    H257051   1.212   2.260  14.589 -0.0088  0.6887 -0.2927
11854TIP3   OH257052   5.376   0.713  15.316  0.0608  0.1386 -0.2522
11854TIP3    H157053   5.471   0.715  15.305 -0.1226 -1.4286 -2.8047
11854TIP3    H257054   5.342   0.758  15.239 -1.3299  1.6791  1.1650
11855TIP3   OH257055   6.350   5.917  11.400  0.9433 -0.0763 -0.4206
11855TIP3    H157056   6.304   5.901  11.482  2.5378  1.6727  0.9033
11855TIP3    H257057   6.281   5.916  11.333 -0.4219 -1.3090  0.9338
11856TIP3   OH257058   6.800   1.609   4.216 -0.3175 -0.2032  0.1450
11856TIP3    H157059   6.736   1.650   4.275  0.0151 -0.5068  0.7302
11856TIP3    H257060   6.868   1.676   4.205  0.2890 -0.6080  1.2030
11857TIP3   OH257061   4.992   3.490  15.369 -0.6598  0.2834 -0.5235
11857TIP3    H157062   5.059   3.423  15.356 -1.6308 -1.1764  1.4365
11857TIP3    H257063   5.039   3.564  15.408  0.0573 -0.1624 -0.5163
11858TIP3   OH257064   0.627   1.506  12.329 -0.1319  0.2233 -0.5213
11858TIP3    H157065   0.593   1.424  12.363 -1.7577  0.1085 -2.3106
11858TIP3    H257066   0.568   1.573  12.364  0.1783  0.4547 -0.4346
11859TIP3   OH257067   6.254   2.823   1.708 -0.8640 -1.0018 -0.1380
11859TIP3    H157068   6.243   2.751   1.645  1.4249 -0.4279 -1.3104
11859TIP3    H257069   6.348   2.824   1.727 -0.7863  1.7009 -0.2418
11860TIP3   OH257070   4.533   5.595   1.546  0.0911  0.5446 -0.1179
11860TIP3    H157071   4.447   5.629   1.570 -1.7419 -1.9649 -2.4020
11860TIP3    H257072   4.533   5.595   1.450  1.7403 -1.4502 -0.2134
11861TIP3   OH257073   2.844   1.189  14.276 -0.1163 -0.3914  0.3965
11861TIP3    H157074   2.756   1.153  14.264  0.1681 -0.4845 -1.8864
11861TIP3    H257075   2.849   1.260  14.212  0.2987  2.0177  2.9145
11862TIP3   OH257076   4.955   3.081   0.342 -0.3930  0.4148 -0.1558
11862TIP3    H157077   5.025   3.144   0.329 -0.6697  1.0285  1.1674
11862TIP3    H257078   4.887   3.130   0.389 -0.4701 -0.9293  1.2196
11863TIP3   OH257079   1.957   3.608  11.824 -0.0109 -0.0654 -0.3047
11863TIP3    H157080   1.866   3.596  11.852  0.6119 -1.2748  1.3959
11863TIP3    H257081   1.967   3.703  11.816 -0.7426  0.2647  1.9955
11864TIP3   OH257082   3.268   1.634  15.759 -0.8038  0.3268 -0.3488
11864TIP3    H157083   3.363   1.646  15.758 -0.5561 -1.1838 -2.5932
11864TIP3    H257084   3.256   1.543  15.787 -1.6463  0.6160  0.2775
11865TIP3   OH257085   0.351   2.482  10.585  0.0298  0.4988  0.0636
11865TIP3    H157086   0.275   2.458  10.532  1.1252 -1.9237 -0.5506
11865TIP3    H257087   0.322   2.473  10.675 -0.6713  0.5591 -0.1505
11866TIP3   OH257088   5.896   1.821  13.533  0.1867  0.4228  0.4113
11866TIP3    H157089   5.868   1.877  13.460 -0.6159  0.4073  0.7018
11866TIP3    H257090   5.931   1.742  13.490 -1.9690 -0.3979  0.0357
11867TIP3   OH257091   1.723   2.852   5.186  0.0254 -0.1744 -0.4893
11867TIP3    H157092   1.812   2.871   5.216 -1.1821  1.0550  2.8413
11867TIP3    H257093   1.724   2.759   5.165  2.0865 -0.1930 -0.4825
11868TIP3   OH257094   2.050   3.441  10.854  0.2477 -0.4248  0.1532
11868TIP3    H157095   2.121   3.463  10.793 -1.1775 -0.6981 -1.6920
11868TIP3    H257096   2.022   3.354  10.827 -0.8672 -0.2762  0.7785
11869TIP3   OH257097   1.688   1.675  15.614 -0.2231  0.4670 -0.1785
11869TIP3    H157098   1.660   1.704  15.701 -1.0845  0.8862 -0.5837
11869TIP3    H257099   1.608   1.675  15.562 -0.0226 -1.3068 -0.5692
11870TIP3   OH257100   3.011   3.900  12.165 -0.0528 -0.3109 -0.5912
11870TIP3    H157101   2.936   3.842  12.175 -0.6256  0.4921 -0.1496
11870TIP3    H257102   2.973   3.985  12.143  0.5642  0.5908  1.5736
11871TIP3   OH257103   2.298   4.791  15.131 -0.2281  0.3678  0.1743
11871TIP3    H157104   2.325   4.869  15.180 -1.2892  0.0084  1.3724
11871TIP3    H257105   2.372   4.773  15.073  1.5418  0.2363  2.3351
11872TIP3   OH257106   5.963   2.645   2.113  0.4768  0.1737 -0.4238
11872TIP3    H157107   5.947   2.555   2.087 -1.4824  0.2615  0.3170
11872TIP3    H257108   6.049   2.643   2.156  0.4765 -1.3140 -0.4570
11873TIP3   OH257109   2.522   3.688  15.136 -0.0255 -1.0341 -0.1264
11873TIP3    H157110   2.599   3.669  15.082 -1.7416  0.8737 -3.6127
11873TIP3    H257111   2.453   3.633  15.099 -1.1542 -0.0851  0.5081
11874TIP3   OH257112   2.685   1.466   3.825  0.1159 -0.9190  0.2959
11874TIP3    H157113   2.779   1.461   3.841  0.1600  0.6540  0.6839
11874TIP3    H257114   2.675   1.445   3.732  1.0250  0.2805 -0.1034
11875TIP3   OH257115   6.411   3.000  14.452  0.0000 -0.0650  0.1464
11875TIP3    H157116   6.390   3.059  14.380 -0.5991 -0.2646  0.1542
11875TIP3    H257117   6.382   2.914  14.423 -0.8181 -0.0464  0.8621
11876TIP3   OH257118   5.801   0.221   4.616 -0.3167 -0.3196  0.2341
11876TIP3    H157119   5.808   0.237   4.522 -1.4221 -3.8882 -0.6315
11876TIP3    H257120   5.708   0.201   4.629 -0.5238  1.6455  2.4770
11877TIP3   OH257121   6.659   0.534  15.859 -0.3232 -0.5415 -0.0270
11877TIP3    H157122   6.655   0.590  15.936  0.0775  0.4224 -0.6770
11877TIP3    H257123   6.621   0.587  15.789 -0.4989 -1.3202 -0.5401
11878TIP3   OH257124   4.300   0.611  13.588 -0.3591 -0.4323  0.2519
11878TIP3    H157125   4.205   0.599  13.579 -0.5404  0.3423  0.9977
11878TIP3    H257126   4.337   0.524  13.569 -1.1506 -0.5626 -0.7914
11879TIP3   OH257127   4.175   3.378  12.687 -0.4119  0.2272 -0.0694
11879TIP3    H157128   4.096   3.392  12.739 -0.2992  1.8096 -0.2969
11879TIP3    H257129   4.208   3.293  12.717 -1.0362  0.5149  1.5423
11880TIP3   OH257130   5.500   2.491  15.435  0.2426 -0.1778  0.1019
11880TIP3    H157131   5.469   2.427  15.498 -3.2368 -0.0505 -1.2449
11880TIP3    H257132   5.420   2.535  15.405  1.9991  1.5189 -2.4708
11881TIP3   OH257133   2.263   4.614   0.974 -0.0877  0.3357 -0.3724
11881TIP3    H157134   2.346   4.652   1.003  0.3463 -1.0004  0.2406
11881TIP3    H257135   2.196   4.658   1.026  0.0733  2.3069 -1.7367
11882TIP3   OH257136   4.136   4.837   3.942 -0.1335 -0.1484 -0.0287
11882TIP3    H157137   4.183   4.920   3.950  1.2305 -0.9152  0.3138
11882TIP3    H257138   4.204   4.774   3.918 -1.4258 -0.8733 -2.0071
11883TIP3   OH257139   2.659   6.062   4.634  0.1457 -0.0412 -0.5409
11883TIP3    H157140   2.569   6.080   4.660  0.5541  1.1862  0.1004
11883TIP3    H257141   2.651   6.010   4.554 -1.1219 -0.3054 -0.2609
11884TIP3   OH257142   0.044   6.355   5.511  0.6028 -0.4037 -0.4516
11884TIP3    H157143  -0.032   6.393   5.468 -1.3311 -1.0486  2.1177
11884TIP3    H257144   0.007   6.298   5.579  3.3749  0.3705  1.9044
11885TIP3   OH257145   4.678   4.059  12.057  0.1058  0.1585 -0.6017
11885TIP3    H157146   4.633   4.027  11.979  1.3279 -2.6640 -0.2672
11885TIP3    H257147   4.608   4.079  12.119 -0.8039 -2.2423 -0.7727
11886TIP3   OH257148   5.997   6.804   5.012  0.1177 -0.2147 -0.6947
11886TIP3    H157149   5.983   6.718   4.972 -0.8755 -0.1197 -0.5829
11886TIP3    H257150   5.909   6.839   5.023  0.3670 -0.1217  1.3540
11887TIP3   OH257151   4.185   6.789  15.927 -0.1485  0.2578  0.5062
11887TIP3    H157152   4.215   6.853  15.991  0.9824 -0.2705  0.5198
11887TIP3    H257153   4.202   6.704  15.967 -0.7797 -0.0699  0.1047
11888TIP3   OH257154   2.606   0.577  16.529  0.2230  0.3819 -0.6847
11888TIP3    H157155   2.643   0.497  16.492  2.5258  0.3448  1.3904
11888TIP3    H257156   2.645   0.647  16.476 -0.9934  0.2183 -1.8494
11889TIP3   OH257157   3.115   5.034   6.211 -0.0393 -0.2690  0.3513
11889TIP3    H157158   3.079   5.012   6.297 -0.3405 -1.0865  0.0320
11889TIP3    H257159   3.103   4.954   6.160  2.0960 -0.5296  0.1698
11890TIP3   OH257160   3.822   5.518   3.359  0.1085  0.2533  0.4502
11890TIP3    H157161   3.822   5.586   3.292  0.4935  1.2157  1.4135
11890TIP3    H257162   3.835   5.437   3.309 -1.8214  0.6776 -0.8563
11891TIP3   OH257163   4.228   0.032   0.327  0.1933  0.6475  0.2982
11891TIP3    H157164   4.189   0.118   0.312 -1.6088 -0.0253  0.9075
11891TIP3    H257165   4.264   0.037   0.415  0.1229  0.7970  0.3185
11892TIP3   OH257166   0.370   1.921  16.599  0.3130 -0.1384  0.3625
11892TIP3    H157167   0.380   1.938  16.693 -0.0798 -0.6156  0.4952
11892TIP3    H257168   0.352   1.827  16.594  1.4461 -0.3333 -0.2706
11893TIP3   OH257169   2.437   3.133   2.945  0.0863 -0.4362  0.4777
11893TIP3    H157170   2.348   3.119   2.914  0.3992 -0.8305 -0.2695
11893TIP3    H257171   2.492   3.083   2.885  1.1145  2.4211 -1.1859
11894TIP3   OH257172   3.379   5.928   4.546 -0.0981 -0.2233 -0.0073
11894TIP3    H157173   3.311   5.908   4.610 -0.3839 -1.0943 -0.5596
11894TIP3    H257174   3.397   6.021   4.559 -1.6489  0.1264 -0.0791
11895TIP3   OH257175   5.949   0.496  12.581  0.2950 -0.3801 -0.4790
11895TIP3    H157176   5.994   0.545  12.512  0.2965 -0.2960 -0.4188
11895TIP3    H257177   5.861   0.480  12.546 -0.4668  1.6133  0.3665
11896TIP3   OH257178   5.639   2.115   1.159 -0.6044  0.0189 -0.1664
11896TIP3    H157179   5.579   2.056   1.114  0.0753  0.1716 -1.3113
11896TIP3    H257180   5.703   2.058   1.201  1.2935 -0.1045 -3.0006
11897TIP3   OH257181   5.485   3.976   1.349  0.1902  0.7862  0.3131
11897TIP3    H157182   5.416   3.955   1.412  1.5203 -0.6090  1.4043
11897TIP3    H257183   5.444   3.966   1.263 -1.0153  0.1671  0.9410
11898TIP3   OH257184   5.137   5.305   2.442  0.1391  0.0856  0.2876
11898TIP3    H157185   5.060   5.325   2.389 -0.0426 -2.1105 -0.4023
11898TIP3    H257186   5.211   5.322   2.384 -0.0121 -1.0943 -0.2963
11899TIP3   OH257187   5.789   4.015  16.021  0.3814  0.6233 -0.3411
11899TIP3    H157188   5.784   4.049  15.932  2.8076  3.2365  0.3414
11899TIP3    H257189   5.831   3.929  16.012 -0.6927  0.2281 -1.7878
11900TIP3   OH257190   1.398   1.339   1.407 -0.3780 -0.3975 -0.0967
11900TIP3    H157191   1.382   1.309   1.496 -1.8708  0.2493 -0.1315
11900TIP3    H257192   1.494   1.336   1.398 -0.0831  0.7799  1.9729
11901TIP3   OH257193   1.577   5.972  12.089 -0.0939  0.0228 -0.5441
11901TIP3    H157194   1.671   5.974  12.111 -0.3614 -1.6543  0.9705
11901TIP3    H257195   1.538   6.031  12.153 -0.3686 -1.5432  0.7981
11902TIP3   OH257196   0.083   2.060   3.970  0.0960 -0.3550 -0.3955
11902TIP3    H157197   0.089   2.096   3.881 -1.6179 -4.5814 -2.5403
11902TIP3    H257198   0.168   2.021   3.985  0.4305  0.4748 -0.0874
11903TIP3   OH257199   0.593   2.805  10.387 -0.2695 -0.3008 -0.0579
11903TIP3    H157200   0.685   2.833  10.385 -0.5034  0.5944 -2.6628
11903TIP3    H257201   0.575   2.789  10.479  1.7711  2.0122  0.8681
11904TIP3   OH257202   4.337   6.331   6.154  0.7356  0.0947  0.1529
11904TIP3    H157203   4.348   6.250   6.104  0.3427 -0.8264  1.5099
11904TIP3    H257204   4.253   6.365   6.125  0.9056  0.0437 -0.4322
11905TIP3   OH257205   2.597   0.399  15.888 -0.8069 -0.4220 -0.2112
11905TIP3    H157206   2.532   0.350  15.939 -1.9016  0.7897 -0.3878
11905TIP3    H257207   2.636   0.459  15.952 -0.5720 -0.4531 -0.3250
11906TIP3   OH257208   1.387   4.219   0.395  0.1768 -0.2346  0.4172
11906TIP3    H157209   1.330   4.143   0.383  2.3521 -1.9189 -0.0565
11906TIP3    H257210   1.429   4.204   0.480  0.4154  0.5870  0.4498
11907TIP3   OH257211   0.597   1.402  15.566 -0.3348  0.4572 -0.6701
11907TIP3    H157212   0.648   1.390  15.486  0.5470  0.6974 -0.1606
11907TIP3    H257213   0.607   1.495  15.587 -2.0444  0.8127 -1.2414
11908TIP3   OH257214   5.237   4.611   1.047  0.4572 -0.1125 -1.0101
11908TIP3    H157215   5.240   4.520   1.018  0.3994 -0.2886 -0.4759
11908TIP3    H257216   5.251   4.662   0.967  1.3095 -0.6003 -1.1928
11909TIP3   OH257217   5.030   3.499  11.807 -0.1616  0.6411 -0.0178
11909TIP3    H157218   5.082   3.507  11.887 -0.8187  0.7377  0.4065
11909TIP3    H257219   4.939   3.510  11.836 -0.5691 -1.1655 -0.4923
11910TIP3   OH257220   0.935   5.674   0.052  0.1552 -0.2786 -0.1519
11910TIP3    H157221   0.980   5.758   0.060  0.7520 -0.5733 -0.3991
11910TIP3    H257222   0.987   5.614   0.106 -0.6643 -0.3355  0.5975
11911TIP3   OH257223   0.474   1.320   6.173  0.1285  0.3035 -0.5983
11911TIP3    H157224   0.525   1.380   6.227 -1.5145  0.6711  0.6132
11911TIP3    H257225   0.494   1.233   6.208  1.2325  0.2513 -1.2859
11912TIP3   OH257226   3.539   5.516  13.396 -0.2777  0.1760  0.0057
11912TIP3    H157227   3.565   5.431  13.433  0.5994 -1.0244 -3.0818
11912TIP3    H257228   3.465   5.543  13.450  1.4381 -0.8810  3.1938
11913TIP3   OH257229   1.999   5.943   5.977 -0.0744 -0.0570 -0.5985
11913TIP3    H157230   2.072   5.998   5.949 -1.6421  1.1761 -2.5636
11913TIP3    H257231   1.952   5.996   6.042 -0.1442 -0.1523 -0.5709
11914TIP3   OH257232   6.101   2.425  11.434  0.2081  0.4687  0.1685
11914TIP3    H157233   6.030   2.458  11.379 -2.3663  0.9668  3.4707
11914TIP3    H257234   6.140   2.503  11.473  0.8930  0.0804  0.2727
11915TIP3   OH257235   6.047   4.547  13.023  0.6985  0.1771 -0.0695
11915TIP3    H157236   5.984   4.482  13.053  3.0452 -2.0647  0.4001
11915TIP3    H257237   6.025   4.562  12.931 -3.3859  3.2282  1.1230
11916TIP3   OH257238   4.058   6.605  11.206 -0.2589  0.1272 -0.3422
11916TIP3    H157239   3.980   6.632  11.157  0.3368  2.0257 -0.3455
11916TIP3    H257240   4.032   6.611  11.298 -0.2112  0.5026 -0.3498
11917TIP3   OH257241   6.779   0.088  15.553  0.0921  0.3147  0.0065
11917TIP3    H157242   6.821   0.051  15.475 -1.0301 -1.9002  0.3737
11917TIP3    H257243   6.715   0.149  15.518 -1.2258 -1.5103 -0.9581
11918TIP3   OH257244   4.151   1.217  11.777  0.0599  0.7325  0.0129
11918TIP3    H157245   4.062   1.222  11.743 -0.5399  0.7993  1.5145
11918TIP3    H257246   4.175   1.125  11.770  0.0494  0.7830 -0.7887
11919TIP3   OH257247   1.058   4.388   6.010 -0.3094  0.0264 -0.1993
11919TIP3    H157248   1.105   4.341   6.078  0.4204 -1.0076 -1.3793
11919TIP3    H257249   0.980   4.335   5.993 -0.1368 -0.0922 -0.6418
11920TIP3   OH257250   2.936   1.811  13.828  0.4264 -0.3209 -0.2603
11920TIP3    H157251   2.848   1.809  13.864 -0.0184 -1.6182 -1.3134
11920TIP3    H257252   2.993   1.824  13.904 -0.7218  3.3392  0.1784
11921TIP3   OH257253   3.874   6.497  16.960  0.9095  0.1793 -0.2394
11921TIP3    H157254   3.932   6.421  16.961 -1.3984 -1.7168  0.5518
11921TIP3    H257255   3.880   6.533  17.048  0.3176 -0.5109  0.0928
11922TIP3   OH257256   2.525   1.812   5.014  0.5357 -0.2360  0.0274
11922TIP3    H157257   2.522   1.749   5.086  0.4414 -2.5174 -1.8552
11922TIP3    H257258   2.488   1.765   4.939  1.5756  1.6677 -1.7921
11923TIP3   OH257259   5.230   4.138  15.576 -0.3590  0.0233 -0.3766
11923TIP3    H157260   5.151   4.191  15.569 -0.7937 -0.8491 -2.8862
11923TIP3    H257261   5.294   4.182  15.520 -0.1550 -1.0833 -1.0438
11924TIP3   OH257262   0.209   4.072  15.359  0.3790  0.2691  0.0465
11924TIP3    H157263   0.235   4.054  15.269  1.5355  3.1565 -0.2881
11924TIP3    H257264   0.141   4.007  15.377  0.9040 -1.1239 -2.4838
11925TIP3   OH257265   3.747   3.193   0.880 -0.0840  0.2961  0.3198
11925TIP3    H157266   3.678   3.234   0.933  0.8374  1.2875  0.8130
11925TIP3    H257267   3.771   3.115   0.930  1.4328  1.7087  1.9745
11926TIP3   OH257268   4.497   1.605  15.233 -0.3576 -0.1997  0.6367
11926TIP3    H157269   4.464   1.693  15.249  0.2325 -0.0352  0.9597
11926TIP3    H257270   4.484   1.591  15.139  2.1137  1.3317 -0.0117
11927TIP3   OH257271   0.618   3.387   5.138 -0.1016 -0.1857 -0.1409
11927TIP3    H157272   0.680   3.410   5.207  0.1310  2.7107 -1.1590
11927TIP3    H257273   0.535   3.374   5.182  0.7096 -1.9216  0.9975
11928TIP3   OH257274   5.092   6.743  16.574  0.1811 -0.2109 -0.1025
11928TIP3    H157275   5.177   6.753  16.615  0.5702  0.9812 -1.1336
11928TIP3    H257276   5.043   6.821  16.600 -0.5109 -0.7442  0.2441
11929TIP3   OH257277   6.250   4.133  15.435 -0.2226  0.2813  0.2039
11929TIP3    H157278   6.268   4.141  15.529 -1.0103 -0.5539  0.4438
11929TIP3    H257279   6.157   4.111  15.431  0.0683 -0.8806 -0.7123
11930TIP3   OH257280   0.068   5.682   2.396 -0.2800  0.7541  0.0269
11930TIP3    H157281   0.062   5.762   2.448  3.0604  0.0697  1.7304
11930TIP3    H257282  -0.021   5.670   2.361 -1.7411  3.3741  2.3918
11931TIP3   OH257283   1.382   4.094  14.327  0.5466  0.0378  0.3654
11931TIP3    H157284   1.334   4.078  14.409 -0.9746 -0.6775 -0.6186
11931TIP3    H257285   1.451   4.028  14.327 -0.4340 -1.0180  0.3452
11932TIP3   OH257286   1.611   3.110  13.828  0.3188  0.0866  0.2527
11932TIP3    H157287   1.527   3.064  13.820 -0.7573  1.7012  1.6316
11932TIP3    H257288   1.612   3.171  13.755  0.0558  0.4118  0.5190
11933TIP3   OH257289   3.769   1.561  11.222 -0.3942 -0.5457  0.2718
11933TIP3    H157290   3.818   1.553  11.304 -2.3803 -0.4745  1.5644
11933TIP3    H257291   3.832   1.593  11.158  0.9863  0.4118  2.0310
11934TIP3   OH257292   2.382   3.759  13.234 -0.1101 -0.7638  0.1077
11934TIP3    H157293   2.323   3.718  13.297 -0.4317 -0.3280  0.0933
11934TIP3    H257294   2.427   3.686  13.192  3.0069 -1.1114  3.5260
11935TIP3   OH257295   3.597   4.360  15.854 -0.2836 -0.8966 -0.4598
11935TIP3    H157296   3.610   4.334  15.945  1.1929 -1.1521 -0.7263
11935TIP3    H257297   3.540   4.292  15.817 -1.2100 -0.5841  0.3507
11936TIP3   OH257298   5.255   0.891  16.536  0.6455 -0.2066  0.6326
11936TIP3    H157299   5.260   0.812  16.481  2.3376 -0.2180  0.7350
11936TIP3    H257300   5.199   0.951  16.487  0.9009 -0.7759 -0.3963
11937TIP3   OH257301   4.097   4.464  12.361 -0.3015  0.2891  0.0153
11937TIP3    H157302   4.022   4.523  12.350  1.0367  1.8132 -1.3499
11937TIP3    H257303   4.160   4.493  12.295  1.6579 -0.6868  1.3763
11938TIP3   OH257304   0.540   5.424  16.425 -0.0204 -0.0273 -0.5587
11938TIP3    H157305   0.581   5.503  16.388 -1.1597  0.9145  0.1081
11938TIP3    H257306   0.608   5.386  16.481  0.7549  0.1225 -1.3636
11939TIP3   OH257307   6.467   0.029  11.872  0.8586  0.6400  0.3868
11939TIP3    H157308   6.476   0.027  11.776 -1.9935  0.7262  0.0397
11939TIP3    H257309   6.483   0.120  11.896 -0.3558  1.0371 -0.2683
11940TIP3   OH257310   6.325   5.251  16.853  0.2936  0.3222  0.0697
11940TIP3    H157311   6.304   5.326  16.910 -0.2484  0.5269 -0.3911
11940TIP3    H257312   6.402   5.212  16.893  0.9002  1.4313  0.0406
11941TIP3   OH257313   5.064   3.908  16.013  0.5433 -0.2739 -0.4558
11941TIP3    H157314   5.044   3.981  15.955 -0.6428  0.2372  0.5604
11941TIP3    H257315   5.150   3.929  16.050 -0.3102  1.2729  0.7672
11942TIP3   OH257316   0.318   4.919  14.393  0.3559 -0.2313  0.3542
11942TIP3    H157317   0.229   4.953  14.383  1.1035  2.2096  1.2147
11942TIP3    H257318   0.352   4.914  14.304  0.2691  1.6229  0.1750
11943TIP3   OH257319   4.985   6.125  12.823  0.5600  0.0216  0.0799
11943TIP3    H157320   4.993   6.220  12.813  0.2639  0.1581  0.9829
11943TIP3    H257321   5.047   6.089  12.761 -0.0826  0.7854 -1.0357
11944TIP3   OH257322   3.845   4.465   4.633  0.7625 -0.1294 -0.3295
11944TIP3    H157323   3.751   4.452   4.621  0.1841  0.8743  2.4012
11944TIP3    H257324   3.877   4.382   4.667  0.3245  0.2856  1.1644
11945TIP3   OH257325   5.278   0.897   3.586  0.2094  0.0986 -0.3771
11945TIP3    H157326   5.261   0.978   3.538  2.8535  1.0640  0.1147
11945TIP3    H257327   5.338   0.923   3.656  0.2530 -2.1149  0.4935
11946TIP3   OH257328   3.524   3.676  11.702  0.3236  0.7652 -0.7598
11946TIP3    H157329   3.431   3.664  11.684  0.2213  0.1881  0.0563
11946TIP3    H257330   3.562   3.589  11.690  0.3064  0.4146  1.2498
11947TIP3   OH257331   6.677   3.714   2.498  0.7936 -0.3848 -0.1944
11947TIP3    H157332   6.615   3.692   2.428  0.6042  0.4738 -0.3099
11947TIP3    H257333   6.728   3.634   2.511 -0.5112 -1.1998  0.0872
11948TIP3   OH257334   2.545   6.475  14.305 -0.4176  0.4314 -0.3815
11948TIP3    H157335   2.483   6.543  14.331 -0.4911  0.1851  0.0777
11948TIP3    H257336   2.490   6.402  14.275 -0.3709 -0.0446  0.6567
11949TIP3   OH257337   0.153   2.806   5.466  0.0062 -0.9923 -0.2575
11949TIP3    H157338   0.218   2.743   5.434  1.3243  0.3429 -0.3210
11949TIP3    H257339   0.204   2.870   5.514 -1.5201 -0.9363  1.3825
11950TIP3   OH257340   2.433   2.722   0.518  0.6267 -0.4940 -0.7377
11950TIP3    H157341   2.387   2.766   0.589 -0.7580 -1.6984 -0.8325
11950TIP3    H257342   2.517   2.768   0.510  0.2367  0.5162  0.7548
11951TIP3   OH257343   0.926   4.885   5.788  0.2519 -0.0131 -0.3107
11951TIP3    H157344   0.926   4.840   5.873  3.1138 -1.0619 -0.7306
11951TIP3    H257345   0.842   4.864   5.749 -0.2162 -1.4259  1.3361
11952TIP3   OH257346   1.065   5.262  16.593  0.6130 -0.1199  0.1428
11952TIP3    H157347   1.006   5.334  16.614  1.2301  0.7308 -0.9599
11952TIP3    H257348   1.145   5.304  16.562  1.2274 -1.2752  0.0986
11953TIP3   OH257349   3.847   0.518  15.881 -0.1276 -0.2385 -0.1463
11953TIP3    H157350   3.771   0.465  15.858 -0.2346 -0.0235 -0.2957
11953TIP3    H257351   3.813   0.607  15.887 -0.2382 -0.3532  1.4697
11954TIP3   OH257352   3.952   0.858   3.814  0.1066  0.9568 -0.1907
11954TIP3    H157353   3.997   0.871   3.897 -1.1610  1.5167  0.4300
11954TIP3    H257354   4.021   0.830   3.753  0.9253 -0.1462  1.1955
11955TIP3   OH257355   5.760   4.667   0.641  0.3285 -0.8546 -0.1670
11955TIP3    H157356   5.784   4.592   0.696 -1.3297 -1.4095 -0.1415
11955TIP3    H257357   5.789   4.743   0.691 -1.1412 -1.3452  1.5159
11956TIP3   OH257358   4.070   5.397  15.315 -0.4643 -0.1408  0.1576
11956TIP3    H157359   4.069   5.303  15.334 -2.1637 -0.0508  0.6753
11956TIP3    H257360   4.044   5.402  15.222 -0.7900 -0.1753  0.2440
11957TIP3   OH257361   0.413   6.329  12.646  0.2941  0.8680  0.5340
11957TIP3    H157362   0.398   6.235  12.633 -0.6971  0.6584  2.7316
11957TIP3    H257363   0.445   6.360  12.561  1.1526 -1.5341 -0.1047
11958TIP3   OH257364   5.287   3.340  15.158 -0.6235 -0.0033  0.1809
11958TIP3    H157365   5.322   3.347  15.069 -0.6663  0.9242  0.2265
11958TIP3    H257366   5.362   3.360  15.215 -0.8157  0.3082  0.3272
11959TIP3   OH257367   4.220   1.275   1.389  0.3336  0.3442 -0.0842
11959TIP3    H157368   4.207   1.349   1.330 -0.8784  0.4318  0.2522
11959TIP3    H257369   4.307   1.288   1.425  0.1110  1.6717  0.0447
11960TIP3   OH257370   3.818   0.512  14.911  0.2359 -0.0222  0.0359
11960TIP3    H157371   3.832   0.478  14.999  1.0107  2.2073  0.8487
11960TIP3    H257372   3.726   0.536  14.909 -1.0866 -4.2840 -1.4541
11961TIP3   OH257373   5.451   4.289  13.018 -0.6890  0.0703 -0.0436
11961TIP3    H157374   5.393   4.318  13.088  0.6056 -1.1150  1.6063
11961TIP3    H257375   5.510   4.363  13.005  0.4556 -0.4400  1.7575
11962TIP3   OH257376   5.546   1.072  15.250  0.3369  0.3701 -0.4263
11962TIP3    H157377   5.624   1.019  15.233 -0.8536 -1.1011 -1.6107
11962TIP3    H257378   5.568   1.122  15.328  1.7679 -1.4766  0.4492
11963TIP3   OH257379   5.250   3.991   2.243 -0.0049  0.1551 -0.1866
11963TIP3    H157380   5.330   4.033   2.212  0.2273  1.5899  2.1658
11963TIP3    H257381   5.262   3.982   2.337 -2.1878 -0.6109  0.0833
11964TIP3   OH257382   0.067   4.606  16.713  0.5260  0.3384 -0.2672
11964TIP3    H157383   0.067   4.702  16.709  0.3099  0.3575  0.1689
11964TIP3    H257384   0.020   4.585  16.793 -0.2228 -0.1553 -0.8221
11965TIP3   OH257385   0.128   4.818   0.655  0.1760 -0.8154  0.0115
11965TIP3    H157386   0.185   4.762   0.709  0.5497 -0.2075  0.2492
11965TIP3    H257387   0.132   4.904   0.697  0.2371 -0.4064 -0.8175
11966TIP3   OH257388   0.103   5.171   3.374 -0.0523  0.1497  0.4722
11966TIP3    H157389   0.183   5.223   3.385  0.5196 -0.6889  0.4430
11966TIP3    H257390   0.111   5.102   3.439  0.2150 -1.0992 -0.8376
11967TIP3   OH257391   3.903   2.444  12.984 -0.6193 -0.3989  0.1427
11967TIP3    H157392   3.845   2.375  12.952 -2.0232  0.0663  1.5740
11967TIP3    H257393   3.979   2.398  13.019 -1.5537 -1.2533  1.1099
11968TIP3   OH257394   1.516   1.174  17.043  0.2329  0.2083 -0.0320
11968TIP3    H157395   1.547   1.085  17.029  0.8681  0.6317 -1.4270
11968TIP3    H257396   1.593   1.222  17.073 -0.1175  0.2901  0.7602
11969TIP3   OH257397   6.057   5.666  13.836  0.4631 -0.1551  0.3140
11969TIP3    H157398   6.094   5.674  13.748  2.1521  0.4678  1.0204
11969TIP3    H257399   6.109   5.726  13.889 -0.1697 -0.8920  1.8398
11970TIP3   OH257400   2.107   5.490  15.513  0.0892 -1.0577  0.1887
11970TIP3    H157401   2.118   5.582  15.538 -0.0707  0.0052 -3.1848
11970TIP3    H257402   2.061   5.451  15.587 -1.6438  2.0563  0.9490
11971TIP3   OH257403   3.304   0.371   0.467 -0.4478 -0.3110 -0.2792
11971TIP3    H157404   3.363   0.339   0.536 -0.2787  2.5869  1.0640
11971TIP3    H257405   3.222   0.325   0.482  0.1798 -1.1799  0.5944
11972TIP3   OH257406   1.400   6.461  12.564 -0.4793  0.4854  0.5884
11972TIP3    H157407   1.465   6.393  12.582 -0.1949  1.0782  1.9811
11972TIP3    H257408   1.316   6.418  12.579 -0.4336 -0.1964 -0.9081
11973TIP3   OH257409   2.420   0.973  13.715 -0.2807  0.4002  0.1410
11973TIP3    H157410   2.451   1.003  13.800  0.4063 -1.1602  0.4791
11973TIP3    H257411   2.439   0.879  13.715 -2.3887 -0.0775 -0.7997
11974TIP3   OH257412   3.495   2.474  15.346 -0.0293  0.3555  0.0395
11974TIP3    H157413   3.471   2.461  15.254 -0.6433  0.5920  0.1650
11974TIP3    H257414   3.495   2.569  15.358 -1.1027  0.2982  0.5828
11975TIP3   OH257415   3.679   0.930  16.996 -0.1546 -0.4422  0.3922
11975TIP3    H157416   3.692   1.024  16.983 -1.5730 -0.0258  1.6946
11975TIP3    H257417   3.751   0.889  16.946 -0.4084  1.2368 -1.5071
11976TIP3   OH257418   5.181   4.551  16.006  0.1053 -0.3833  0.4040
11976TIP3    H157419   5.114   4.575  15.942  0.7467 -0.9710 -0.5132
11976TIP3    H257420   5.180   4.622  16.070  0.6960  1.1991 -1.2408
11977TIP3   OH257421   0.820   4.269   3.442  0.0865 -0.2790 -0.6276
11977TIP3    H157422   0.839   4.198   3.380  1.8454 -1.1935  0.8613
11977TIP3    H257423   0.725   4.271   3.446 -0.0401 -1.4466 -1.9591
11978TIP3   OH257424   3.154   3.840   2.885 -0.7840  0.4095 -0.1278
11978TIP3    H157425   3.160   3.878   2.972 -0.7164 -0.4043  0.2289
11978TIP3    H257426   3.245   3.827   2.858 -0.8088  0.2477 -0.1352
11979TIP3   OH257427   5.867   2.793   1.032  0.1656 -0.1249  0.7300
11979TIP3    H157428   5.956   2.761   1.047  1.5194  2.1724 -1.4934
11979TIP3    H257429   5.873   2.887   1.047 -1.2367  0.4450 -1.7758
11980TIP3   OH257430   0.381   1.772   3.128  0.2251  0.2208 -0.0485
11980TIP3    H157431   0.325   1.785   3.204  0.5172  0.3954  0.1398
11980TIP3    H257432   0.371   1.853   3.077 -2.0754 -0.9149 -1.6088
11981TIP3   OH257433   4.487   2.961   0.042  0.4122 -0.1080 -0.4150
11981TIP3    H157434   4.561   2.911   0.076  1.4137  1.1210 -0.7268
11981TIP3    H257435   4.523   3.015  -0.028 -0.8896  0.1208 -0.9497
11982TIP3   OH257436   0.166   4.979   2.973 -0.0317  0.0701 -0.2184
11982TIP3    H157437   0.214   4.939   3.046 -1.9888  1.6222  2.1214
11982TIP3    H257438   0.189   5.072   2.979 -1.9895  0.5769 -0.0415
11983TIP3   OH257439   2.362   1.353   3.808  0.2574  0.3121 -0.3162
11983TIP3    H157440   2.295   1.381   3.871 -0.7614 -2.1210 -0.1895
11983TIP3    H257441   2.436   1.328   3.862  0.3809  0.7201 -0.2911
11984TIP3   OH257442   0.091   0.920   0.100  0.5419 -0.3514  0.8722
11984TIP3    H157443   0.160   0.894   0.161 -0.4298 -1.6912  1.4406
11984TIP3    H257444   0.098   0.857   0.027  0.3471 -0.0839  0.6190
11985TIP3   OH257445   0.493   6.807  15.090  0.7106  0.3169  0.3827
11985TIP3    H157446   0.494   6.716  15.061  2.2248  0.7628 -1.1707
11985TIP3    H257447   0.402   6.834  15.082  0.5984 -0.4199 -1.4193
11986TIP3   OH257448   2.113   6.006   5.460  0.1230 -0.1234  0.1397
11986TIP3    H157449   2.130   6.058   5.381  0.1862 -0.8089 -0.3083
11986TIP3    H257450   2.111   6.070   5.531  0.0627  0.5035 -0.4188
11987TIP3   OH257451   4.627   5.686   0.641  0.4550  0.0841  0.4217
11987TIP3    H157452   4.683   5.630   0.694  0.4947  0.7791  1.1262
11987TIP3    H257453   4.566   5.725   0.703  1.4216  2.0436  0.2040
11988TIP3   OH257454   5.639   4.831  15.250 -0.0743  0.3064  0.1039
11988TIP3    H157455   5.707   4.898  15.253  0.7518 -0.5356  0.8508
11988TIP3    H257456   5.680   4.757  15.206 -1.2520  0.5532 -1.4951
11989TIP3   OH257457   5.119   4.278  11.500  0.1323 -0.3348  0.2897
11989TIP3    H157458   5.202   4.255  11.543  0.4728 -1.3730 -0.8583
11989TIP3    H257459   5.145   4.336  11.429 -0.0069 -1.3371 -0.5993
11990TIP3   OH257460   2.039   0.005  13.607  0.1004 -0.6328  0.3084
11990TIP3    H157461   2.107  -0.053  13.572  3.1411  1.5255  2.1203
11990TIP3    H257462   2.043  -0.007  13.702  1.9749  3.3332  0.9517
11991TIP3   OH257463   5.716   6.101  16.385 -0.4401  0.4313  0.5143
11991TIP3    H157464   5.628   6.065  16.393 -0.2007 -0.8283 -1.6065
11991TIP3    H257465   5.704   6.196  16.396 -2.1458  0.3366 -0.1332
11992TIP3   OH257466   4.583   5.087   1.376  0.1924  0.0826 -0.0532
11992TIP3    H157467   4.650   5.153   1.398  0.2561  0.4325 -1.2285
11992TIP3    H257468   4.548   5.115   1.292 -1.3172 -0.2151  0.4421
11993TIP3   OH257469   6.030   1.622   4.866  0.1647  0.7109  0.0944
11993TIP3    H157470   6.082   1.624   4.786  0.4881  1.3822  0.3141
11993TIP3    H257471   5.940   1.609   4.836  0.6978 -3.8701 -0.1657
11994TIP3   OH257472   5.223   2.344   3.150  0.2476  0.0514 -0.8693
11994TIP3    H157473   5.288   2.327   3.082  0.9412  2.6258 -0.9687
11994TIP3    H257474   5.245   2.431   3.183 -1.6111 -0.0693  0.9140
11995TIP3   OH257475   5.101   4.429  12.952  0.5455 -0.0686  0.6110
11995TIP3    H157476   5.080   4.522  12.952  1.1280  0.0643  1.2115
11995TIP3    H257477   5.182   4.423  12.900 -0.0522 -0.3809 -0.3211
11996TIP3   OH257478   2.791   5.625   3.904 -0.0073 -0.6763  0.4132
11996TIP3    H157479   2.827   5.705   3.866  1.8221 -1.1784  0.9982
11996TIP3    H257480   2.698   5.628   3.883  0.5078  0.2340 -1.9930
11997TIP3   OH257481   0.732   5.870   2.791 -0.3174 -0.3195 -0.0944
11997TIP3    H157482   0.775   5.948   2.827 -0.5116 -1.0324  1.8280
11997TIP3    H257483   0.792   5.799   2.811 -0.5804 -0.7967 -0.9779
11998TIP3   OH257484   1.921   4.254   0.061 -0.4568 -0.1119  0.4902
11998TIP3    H157485   1.915   4.193   0.135 -1.7017  0.6420  1.0355
11998TIP3    H257486   1.831   4.264   0.030  0.1660 -1.4658 -2.0499
11999TIP3   OH257487   0.927   6.466   3.348  0.2976  0.2593  0.3795
11999TIP3    H157488   0.881   6.388   3.380  1.7571 -1.0915 -0.6250
11999TIP3    H257489   0.893   6.480   3.260  0.8869 -0.0092  0.0972
12000TIP3   OH257490   2.234   5.746  12.652  0.4210  0.4840  0.1078
12000TIP3    H157491   2.204   5.798  12.725  2.0360  1.7901 -0.0937
12000TIP3    H257492   2.194   5.660  12.665  0.6044  0.6952  2.4888
12001TIP3   OH257493   0.270   0.012   5.121 -0.4743 -0.2973  0.4077
12001TIP3    H157494   0.321  -0.062   5.089 -1.1494 -1.3067  1.5732
12001TIP3    H257495   0.314   0.038   5.202 -0.2561  0.5936  0.0246
12002TIP3   OH257496   3.058   2.890   4.615  0.1697  0.0934  0.0074
12002TIP3    H157497   3.002   2.966   4.630  0.7532  0.4602  0.3726
12002TIP3    H257498   3.092   2.902   4.526 -1.1054 -0.6493 -0.6033
12003TIP3   OH257499   3.956   5.157  11.559 -0.4466 -0.2998  0.0918
12003TIP3    H157500   3.871   5.149  11.517  0.5148 -0.2402 -1.9568
12003TIP3    H257501   4.004   5.078  11.533  0.8358  0.6438 -0.5114
12004TIP3   OH257502   4.218   5.316   5.605  0.3834  0.1611  0.3604
12004TIP3    H157503   4.265   5.235   5.620  0.2934  0.0598  0.1071
12004TIP3    H257504   4.170   5.332   5.686  0.3548 -0.0702  0.3881
12005TIP3   OH257505   2.711   6.475  10.326  0.0902  0.4113 -0.2810
12005TIP3    H157506   2.743   6.417  10.395 -1.5124 -1.2473 -0.8675
12005TIP3    H257507   2.791   6.502  10.280  1.4208  2.8142  2.9953
12006TIP3   OH257508   5.258   1.706   2.679 -0.5682  0.1538 -0.2856
12006TIP3    H157509   5.293   1.652   2.608 -0.5326  0.0920 -0.2204
12006TIP3    H257510   5.216   1.644   2.739  1.8334 -0.1575  1.2271
12007TIP3   OH257511   2.054   5.397  14.825  0.2279  0.7359  0.0804
12007TIP3    H157512   2.072   5.311  14.787  1.3543  1.6395 -1.5589
12007TIP3    H257513   2.120   5.455  14.786 -1.2986  2.6153  0.1425
12008TIP3   OH257514   1.119   0.755   2.831  0.3055 -0.4756  0.5195
12008TIP3    H157515   1.104   0.726   2.741  2.2734 -0.0431  0.0139
12008TIP3    H257516   1.042   0.809   2.852 -1.1227 -2.1563 -0.1606
12009TIP3   OH257517   0.241   4.324  16.917 -0.7374  0.2121 -0.3214
12009TIP3    H157518   0.286   4.365  16.991 -1.3466 -0.0835  0.2158
12009TIP3    H257519   0.286   4.360  16.840 -0.1935  0.6353  0.1780
12010TIP3   OH257520   1.345   0.686  13.658  0.2653  0.3693  0.4212
12010TIP3    H157521   1.329   0.604  13.611  0.3174 -1.0905  2.8053
12010TIP3    H257522   1.258   0.722  13.673  0.1799  0.2868  0.1331
12011TIP3   OH257523   3.089   5.066   1.748 -0.1261 -0.4500  0.0487
12011TIP3    H157524   3.033   5.121   1.695  0.3099  0.4639  0.5062
12011TIP3    H257525   3.170   5.116   1.757 -0.3552 -0.3360  1.9640
12012TIP3   OH257526   0.192   6.405  16.084 -0.3018 -0.3224  0.0235
12012TIP3    H157527   0.253   6.353  16.032  0.1970  0.9034 -0.6396
12012TIP3    H257528   0.146   6.340  16.138  0.8177 -1.3733 -0.2427
12013TIP3   OH257529   2.132   2.045  12.645 -0.1847  0.3094 -0.4885
12013TIP3    H157530   2.073   2.013  12.576  0.4994  1.0122 -1.4211
12013TIP3    H257531   2.099   2.132  12.666  0.8938  0.9794 -1.4876
12014TIP3   OH257532   5.347   4.991   0.664  0.3704  0.4532  0.4670
12014TIP3    H157533   5.262   5.031   0.643  0.7414  1.3984  0.7322
12014TIP3    H257534   5.411   5.049   0.623  0.9326  0.2337  1.0262
12015TIP3   OH257535   5.744   6.684   2.642  0.1268 -0.1859 -0.5870
12015TIP3    H157536   5.754   6.763   2.695  0.8355 -0.3727 -0.4336
12015TIP3    H257537   5.711   6.618   2.703  0.3980 -0.2481 -0.5061
12016TIP3   OH257538   5.804   2.745  14.233  0.0075 -0.2984  0.1100
12016TIP3    H157539   5.796   2.676  14.167 -3.1867 -0.2075  0.2771
12016TIP3    H257540   5.769   2.823  14.191  0.7133  0.4830  0.9431
12017TIP3   OH257541   1.575   1.433   5.442  0.1034  0.0087 -0.3046
12017TIP3    H157542   1.541   1.413   5.354 -0.9140  0.1441  0.0453
12017TIP3    H257543   1.510   1.492   5.480  1.0269  0.7287  0.1921
12018TIP3   OH257544   0.562   0.815   3.335 -0.0125  0.7861 -0.2797
12018TIP3    H157545   0.478   0.860   3.343  0.7903  2.1934  0.5943
12018TIP3    H257546   0.614   0.849   3.408  1.7756  0.9534 -1.5749
12019TIP3   OH257547   5.323   2.953  11.646  0.3285  0.5145  0.3312
12019TIP3    H157548   5.406   2.912  11.668  0.4901 -0.3285 -1.6929
12019TIP3    H257549   5.337   2.992  11.560 -2.2370 -2.7017 -1.8239
12020TIP3   OH257550   0.169   0.446   6.565 -0.3279 -0.1102  0.1930
12020TIP3    H157551   0.232   0.409   6.503 -0.4443 -1.9450  1.0922
12020TIP3    H257552   0.112   0.373   6.587 -2.2676  1.2939  0.0683
12021TIP3   OH257553   0.940   0.183  13.601  0.3135  0.3181  0.2277
12021TIP3    H157554   0.997   0.257  13.579  1.7699 -0.2775  1.8410
12021TIP3    H257555   0.995   0.106  13.589 -0.7089 -0.4064  0.0939
12022TIP3   OH257556   1.368   0.142  12.419  0.1873  0.0502 -0.2077
12022TIP3    H157557   1.384   0.133  12.325  2.2834  1.8851 -0.0876
12022TIP3    H257558   1.351   0.052  12.448  2.2701 -0.9725 -1.8887
12023TIP3   OH257559   6.454   0.124   3.447  0.2276  0.0656  0.0845
12023TIP3    H157560   6.465   0.110   3.353  0.1628 -0.2707  0.1256
12023TIP3    H257561   6.542   0.112   3.484  0.2674  0.2713  0.0583
12024TIP3   OH257562   0.233   6.651   0.434 -0.5571 -0.1879  0.0027
12024TIP3    H157563   0.284   6.584   0.480 -0.4936  0.1344  0.4099
12024TIP3    H257564   0.289   6.728   0.434 -0.9761  0.1231  0.3118
12025TIP3   OH257565   4.137   3.340   4.971  0.0645  0.3525 -0.0292
12025TIP3    H157566   4.045   3.318   4.985  0.1475  0.7188  1.1619
12025TIP3    H257567   4.153   3.417   5.026  0.7021  1.2297 -1.3825
12026TIP3   OH257568   4.186   2.224  14.809  0.1706  0.0547  0.1423
12026TIP3    H157569   4.266   2.246  14.857  0.0407  0.2721  0.2619
12026TIP3    H257570   4.118   2.279  14.849  0.0839  0.3170 -0.3674
12027TIP3   OH257571   3.944   5.065  12.206  0.2630  0.3423  0.0721
12027TIP3    H157572   3.920   5.103  12.290  0.1553 -1.3388  0.8509
12027TIP3    H257573   3.869   5.010  12.182 -0.1114  1.4964 -1.6080
12028TIP3   OH257574   1.714   4.044   5.609 -0.0585 -0.0005 -0.7290
12028TIP3    H157575   1.646   4.068   5.672  0.5493  0.2336 -0.1571
12028TIP3    H257576   1.725   4.122   5.555 -0.1950 -0.0174 -0.7827
12029TIP3   OH257577   1.960   2.602   4.462  0.0336 -0.9162  0.0254
12029TIP3    H157578   1.870   2.571   4.459 -0.5039 -0.0505 -6.2683
12029TIP3    H257579   2.013   2.529   4.430  0.7265  0.1325 -1.3595
12030TIP3   OH257580   3.323   4.232  10.933  0.0528 -0.3139 -0.2461
12030TIP3    H157581   3.383   4.159  10.948  0.8814  0.7826  2.2640
12030TIP3    H257582   3.236   4.197  10.952  0.4135 -0.7488  0.6476
12031TIP3   OH257583   3.498   3.284   4.956  0.1515 -0.4472  0.1716
12031TIP3    H157584   3.457   3.238   4.882  1.3730 -0.5648 -0.4702
12031TIP3    H257585   3.475   3.232   5.032  0.8618 -1.7400 -0.4526
12032TIP3   OH257586   0.335   2.425   2.009  0.2778  0.2246  0.2867
12032TIP3    H157587   0.363   2.374   2.085  0.7868  2.9838  2.0982
12032TIP3    H257588   0.415   2.463   1.973 -0.1730  0.6749 -0.2886
12033TIP3   OH257589   3.275   3.139   0.556  0.0230  0.4050  0.4355
12033TIP3    H157590   3.241   3.223   0.525 -0.9069 -0.5794 -1.3706
12033TIP3    H257591   3.247   3.076   0.489 -0.5819 -1.5953  2.4606
12034TIP3   OH257592   3.500   2.307  11.515  0.1776  0.0618  0.2093
12034TIP3    H157593   3.435   2.247  11.480  0.4092 -0.8722  1.3298
12034TIP3    H257594   3.568   2.311  11.448  0.5496 -1.5804  0.4448
12035TIP3   OH257595   4.534   6.438  12.118 -0.1197  0.6646  0.2709
12035TIP3    H157596   4.572   6.525  12.113  2.3786 -0.3375  0.0413
12035TIP3    H257597   4.607   6.381  12.143 -1.9641 -1.1892  1.8369
12036TIP3   OH257598   0.530   3.830  16.353  0.3530  0.0157  0.4794
12036TIP3    H157599   0.586   3.879  16.294  1.0875 -0.9422  0.3609
12036TIP3    H257600   0.441   3.845  16.319  0.6705  0.3060 -0.2494
12037TIP3   OH257601   5.424   3.545  12.874  0.2487 -0.4158  0.3414
12037TIP3    H157602   5.514   3.563  12.845  0.2324 -0.3860  0.3100
12037TIP3    H257603   5.369   3.587  12.809  0.2094  1.6649  1.6001
12038TIP3   OH257604   6.429   6.501   0.083  0.0389  0.7201  0.2492
12038TIP3    H157605   6.366   6.465   0.145 -0.2850  0.8225 -0.0200
12038TIP3    H257606   6.412   6.455   0.001  1.6532 -0.7277  0.6529
12039TIP3   OH257607   4.176   1.098   2.148 -0.2095  0.3666 -0.7811
12039TIP3    H157608   4.228   1.177   2.136  1.5386 -0.2412  1.9362
12039TIP3    H257609   4.240   1.030   2.168 -1.7813 -1.4535 -1.6166
12040TIP3   OH257610   5.794   3.750  15.487  0.1131  0.0306  0.1724
12040TIP3    H157611   5.768   3.665  15.451 -0.6149  0.7676 -1.1230
12040TIP3    H257612   5.880   3.735  15.525  0.4979 -1.0172 -1.0662
12041TIP3   OH257613   2.297   1.451   3.566  0.4028  0.2805  0.2965
12041TIP3    H157614   2.357   1.525   3.558  0.9408 -0.1068  0.6641
12041TIP3    H257615   2.321   1.410   3.650 -0.4644  0.2025  0.5186
12042TIP3   OH257616   2.464   2.218   2.795 -0.2134 -0.0440 -0.1734
12042TIP3    H157617   2.406   2.154   2.836  0.1244  0.0195  0.4156
12042TIP3    H257618   2.519   2.251   2.867  0.8186 -0.3918 -0.7763
12043TIP3   OH257619   6.534   3.551  12.328 -0.0721  0.1406 -0.2511
12043TIP3    H157620   6.450   3.522  12.292 -0.5262 -1.3509  1.8147
12043TIP3    H257621   6.598   3.492  12.288 -0.4049 -0.6760  0.3954
12044TIP3   OH257622   5.470   3.473  15.945 -0.2889  0.1842 -0.0614
12044TIP3    H157623   5.416   3.552  15.941  0.8396  1.0312  0.6410
12044TIP3    H257624   5.452   3.427  15.863 -1.6206  0.7215 -0.0982
12045TIP3   OH257625   3.293   5.373  17.188 -0.4413  0.0832 -0.5508
12045TIP3    H157626   3.322   5.451  17.234 -0.7021 -0.3065  0.2987
12045TIP3    H257627   3.323   5.300  17.243 -1.4501 -0.3705 -0.5845
12046TIP3   OH257628   4.689   5.594  10.718  0.2910  0.4903 -0.1530
12046TIP3    H157629   4.711   5.582  10.626  1.2661  0.0924  0.1157
12046TIP3    H257630   4.687   5.689  10.731  2.2774  0.5592 -0.1212
12047TIP3   OH257631   3.937   5.975   2.945 -0.1926 -0.0890 -0.3653
12047TIP3    H157632   3.869   6.041   2.957  1.2047  1.4620 -0.6939
12047TIP3    H257633   3.888   5.893   2.931 -1.9530  0.6594  1.0139
12048TIP3   OH257634   5.832   2.870  12.492  0.3861 -0.0811 -0.2677
12048TIP3    H157635   5.890   2.857  12.567 -2.1384  0.4703  1.9571
12048TIP3    H257636   5.778   2.790  12.490  1.3408 -0.7396 -2.4931
12049TIP3   OH257637   4.764   2.740  15.961 -0.1140  0.5209 -0.4649
12049TIP3    H157638   4.715   2.770  15.884 -1.6430 -0.7959 -0.0401
12049TIP3    H257639   4.751   2.645  15.963 -0.3472  0.5507  1.5706
12050TIP3   OH257640   1.585   4.535   1.972 -0.3708 -0.0671  0.5512
12050TIP3    H157641   1.541   4.620   1.966  0.8525  0.5126 -1.2821
12050TIP3    H257642   1.567   4.504   2.060  0.7402  3.0049  1.9959
12051TIP3   OH257643   3.309   2.183   3.714  0.2755 -0.2339 -0.3512
12051TIP3    H157644   3.275   2.149   3.631  0.5259 -0.3626 -0.4047
12051TIP3    H257645   3.250   2.255   3.737 -0.4486 -0.9038 -0.0768
12052TIP3   OH257646   3.749   0.278   2.625  0.0416 -0.2140  0.1247
12052TIP3    H157647   3.745   0.357   2.570 -0.7636 -1.2426 -1.3620
12052TIP3    H257648   3.838   0.277   2.660  0.9368 -0.0593 -2.0126
12053TIP3   OH257649   0.230   3.559   1.437 -0.0472  0.2723 -0.0449
12053TIP3    H157650   0.168   3.493   1.468  0.7503 -0.9817 -1.0408
12053TIP3    H257651   0.314   3.533   1.475  0.7343 -0.6681 -2.2435
12054TIP3   OH257652   0.679   5.273  11.482  0.2819  0.7056  0.2600
12054TIP3    H157653   0.755   5.255  11.538  1.2654  2.4319 -0.4336
12054TIP3    H257654   0.707   5.246  11.394 -0.0455  0.9963  0.0632
12055TIP3   OH257655   6.015   4.578   3.652 -0.5769  0.2771 -0.5936
12055TIP3    H157656   5.950   4.632   3.698 -1.2057  0.0727 -1.2197
12055TIP3    H257657   5.964   4.532   3.585 -0.3592 -2.2335  0.8281
12056TIP3   OH257658   5.462   0.713   0.593  0.8577  0.0599 -0.5840
12056TIP3    H157659   5.509   0.750   0.667 -0.4630  0.3086  0.1583
12056TIP3    H257660   5.418   0.788   0.553 -0.6463 -0.4543  0.0453
12057TIP3   OH257661   2.132   3.453   3.663  0.1509  0.0685  0.2041
12057TIP3    H157662   2.122   3.379   3.724  1.5954  0.3578  0.8339
12057TIP3    H257663   2.199   3.425   3.602  0.2339  0.6112  0.0413
12058TIP3   OH257664   3.541   3.404  11.567  0.8668  0.6070 -0.3297
12058TIP3    H157665   3.601   3.466  11.524  1.3346 -0.2766 -0.9746
12058TIP3    H257666   3.542   3.327  11.511 -0.6977  0.4738 -0.2036
12059TIP3   OH257667   0.166   0.251  10.264  0.8595  0.6566  0.7025
12059TIP3    H157668   0.085   0.291  10.233  0.0034 -0.8941  0.8467
12059TIP3    H257669   0.137   0.184  10.326  2.3269  0.9180  1.7399
12060TIP3   OH257670   4.158   0.676  12.377 -0.0958  0.5894 -0.0139
12060TIP3    H157671   4.105   0.633  12.444 -0.2991  0.3120 -0.3541
12060TIP3    H257672   4.229   0.718  12.426 -1.6346  2.5299  0.6661
12061TIP3   OH257673   2.856   4.227   3.352 -0.3766 -0.3930  0.1000
12061TIP3    H157674   2.931   4.176   3.322 -1.0568 -1.0837 -0.4679
12061TIP3    H257675   2.823   4.179   3.428 -0.1210  0.0194  0.4725
12062TIP3   OH257676   3.433   4.236  16.970 -0.1078 -0.1475  0.2099
12062TIP3    H157677   3.347   4.253  17.007  0.5100 -1.2225  2.2703
12062TIP3    H257678   3.426   4.150  16.929 -0.7050  0.9098 -2.0258
12063TIP3   OH257679   3.939   3.209  11.202  0.5036 -0.1032 -1.0808
12063TIP3    H157680   3.867   3.175  11.149  0.3706 -0.8924 -0.4121
12063TIP3    H257681   4.018   3.187  11.153  0.2923  1.3975 -2.1752
12064TIP3   OH257682   5.461   3.789  13.249  0.2872  0.7930 -0.0262
12064TIP3    H157683   5.486   3.843  13.174  0.2405  2.3290  1.0260
12064TIP3    H257684   5.544   3.766  13.291  0.1996  2.5039  1.1615
12065TIP3   OH257685   5.204   4.264  16.570  0.2237  0.3814  0.0769
12065TIP3    H157686   5.296   4.289  16.559  0.1700  0.1770 -0.8792
12065TIP3    H257687   5.204   4.210  16.649  1.0116 -0.0504 -0.2084
12066TIP3   OH257688   2.361   6.447   4.591  0.2082  0.0243  0.2135
12066TIP3    H157689   2.357   6.498   4.671 -2.6401  0.0322  0.1605
12066TIP3    H257690   2.388   6.359   4.620  1.1462  0.4980  0.8466
12067TIP3   OH257691   1.896   1.972  15.382 -0.2256 -0.1466 -0.4425
12067TIP3    H157692   1.855   1.943  15.463 -0.1403  1.2440  0.1366
12067TIP3    H257693   1.986   1.994  15.408  0.0101 -0.3794 -1.0622
12068TIP3   OH257694   5.338   0.446  11.746  0.0594 -0.2380 -0.4788
12068TIP3    H157695   5.364   0.393  11.821 -0.6886  0.0529  0.0056
12068TIP3    H257696   5.264   0.498  11.778  1.4445  1.9234 -0.5872
12069TIP3   OH257697   4.167   0.902   3.358  0.4665 -0.7399 -0.2725
12069TIP3    H157698   4.080   0.872   3.332  1.2894 -3.5188 -0.1560
12069TIP3    H257699   4.204   0.941   3.279 -0.2047 -1.2693 -0.8557
12070TIP3   OH257700   6.331   3.111   4.623 -0.4943 -0.1531  0.3248
12070TIP3    H157701   6.319   3.201   4.655 -1.1219  0.1246 -0.6622
12070TIP3    H257702   6.367   3.122   4.535 -1.8296 -0.8228 -0.3316
12071TIP3   OH257703   2.976   6.610  14.072 -0.0847  0.3467  0.1743
12071TIP3    H157704   3.064   6.571  14.075  0.1417  0.8531  2.1013
12071TIP3    H257705   2.919   6.540  14.043  0.7959 -0.3710  0.1223
12072TIP3   OH257706   4.843   2.280   3.647 -0.1746 -0.4512 -0.4388
12072TIP3    H157707   4.860   2.189   3.624  0.8484  0.3378 -3.1776
12072TIP3    H257708   4.926   2.313   3.682  0.1045 -0.0636 -1.4228
12073TIP3   OH257709   1.071   2.164  15.466  0.1772 -0.2082  0.0319
12073TIP3    H157710   1.025   2.247  15.462  3.1006  1.5209 -1.9531
12073TIP3    H257711   1.025   2.107  15.405 -0.1067  1.0237 -0.9429
12074TIP3   OH257712   4.140   2.835  11.682 -0.8338  0.0428 -0.1678
12074TIP3    H157713   4.211   2.780  11.716  0.5201  2.1930  0.6500
12074TIP3    H257714   4.068   2.821  11.744 -0.2462 -0.1946  0.4699
12075TIP3   OH257715   4.969   2.988   5.771  0.3508  0.2799  0.0463
12075TIP3    H157716   5.018   3.009   5.850 -0.4367 -0.8279  0.8480
12075TIP3    H257717   4.902   2.926   5.799  0.3963 -0.5771 -1.5883
12076TIP3   OH257718   6.667   1.398  16.719  0.0715  0.7652 -0.0483
12076TIP3    H157719   6.693   1.313  16.755 -0.7854  0.5995  0.1872
12076TIP3    H257720   6.693   1.462  16.785  3.8926  1.1136 -1.6282
12077TIP3   OH257721   4.075   3.168  10.516  0.2733 -0.7762  0.4336
12077TIP3    H157722   4.071   3.081  10.555 -2.4822 -0.1171  1.8640
12077TIP3    H257723   4.092   3.227  10.590  1.0300  0.0135 -0.3413
12078TIP3   OH257724   4.263   4.716  12.695  0.3581  0.1255 -0.1508
12078TIP3    H157725   4.292   4.742  12.608  0.5255  0.4256 -0.0046
12078TIP3    H257726   4.168   4.707  12.687  0.5483 -1.6601 -0.8449
12079TIP3   OH257727   5.019   2.437  16.064  0.5725  0.0437  0.5975
12079TIP3    H157728   5.073   2.436  15.984  0.7540 -0.9050  0.7214
12079TIP3    H257729   5.062   2.374  16.122  0.3026  0.5498  1.3585
12080TIP3   OH257730   1.379   6.285  13.049 -0.3540 -0.2432  0.0092
12080TIP3    H157731   1.423   6.202  13.030  0.3046  0.5274 -2.0543
12080TIP3    H257732   1.439   6.332  13.106  0.0889 -0.4366 -0.2968
12081TIP3   OH257733   0.650   4.967  13.610  0.6406  1.0945 -0.2293
12081TIP3    H157734   0.609   4.968  13.524 -0.5040  0.3361  0.2894
12081TIP3    H257735   0.653   5.059  13.637 -0.3628  1.2063 -0.4584
12082TIP3   OH257736   4.317   5.913  15.220 -0.0741  0.3357  0.5610
12082TIP3    H157737   4.224   5.922  15.203  0.2883  0.0604 -1.9715
12082TIP3    H257738   4.329   5.820  15.239 -0.3101  0.3801  0.9364
12083TIP3   OH257739   3.798   6.802   1.995  0.3196  0.4361  0.3815
12083TIP3    H157740   3.783   6.894   2.015  1.9185  1.3473 -2.0546
12083TIP3    H257741   3.878   6.802   1.941  0.2935 -2.3602  0.1738
12084TIP3   OH257742   0.911   3.417   4.587  0.0527 -0.2605 -0.4714
12084TIP3    H157743   0.953   3.471   4.521  1.8861 -0.8264  0.1628
12084TIP3    H257744   0.838   3.374   4.542  1.6744 -1.1781 -2.3371
12085TIP3   OH257745   2.005   5.731   5.302  0.3864 -0.1710 -0.0297
12085TIP3    H157746   1.936   5.747   5.237  0.5618 -1.7408 -0.6323
12085TIP3    H257747   1.989   5.797   5.370 -0.0821  1.2201 -1.4177
12086TIP3   OH257748   3.028   0.591  15.461 -0.6982 -0.1824  0.2003
12086TIP3    H157749   2.982   0.510  15.436 -0.7614 -0.2059  0.3931
12086TIP3    H257750   3.023   0.592  15.556  0.8572 -0.8765  0.3144
12087TIP3   OH257751   2.573   0.400  10.898 -0.3507 -0.2051  0.6592
12087TIP3    H157752   2.624   0.341  10.842  0.1124 -0.5538  1.4408
12087TIP3    H257753   2.618   0.484  10.891 -0.2904 -0.2498  0.5141
12088TIP3   OH257754   6.049   5.991  10.841 -0.1056 -0.4668 -0.1437
12088TIP3    H157755   6.011   6.054  10.902 -0.0375 -2.1602  1.7664
12088TIP3    H257756   6.006   5.908  10.862  0.2066 -1.1875 -2.1787
12089TIP3   OH257757   6.751   4.043   0.637 -0.7198  0.5456 -0.3018
12089TIP3    H157758   6.800   4.003   0.565  0.4179  2.3835 -0.6189
12089TIP3    H257759   6.813   4.104   0.677 -2.0892  1.3336  0.7086
12090TIP3   OH257760   4.161   2.964   2.744  0.0842  0.1890  0.4829
12090TIP3    H157761   4.221   2.983   2.672 -0.6176 -1.9747 -0.7701
12090TIP3    H257762   4.073   2.970   2.705 -0.2652 -2.9980  0.4893
12091TIP3   OH257763   1.328   4.582   4.297 -0.5335  0.4696 -0.2758
12091TIP3    H157764   1.345   4.489   4.280 -0.3270  0.4764 -0.1100
12091TIP3    H257765   1.314   4.586   4.392  2.0172  0.9974  0.1388
12092TIP3   OH257766   2.605   4.240   4.320  0.2079  0.0452 -0.5384
12092TIP3    H157767   2.548   4.208   4.390  0.1249  0.9291 -0.1917
12092TIP3    H257768   2.674   4.173   4.314 -0.6899 -0.8837 -0.7653
12093TIP3   OH257769   5.682   2.590   1.802 -0.2165  0.1769  0.1263
12093TIP3    H157770   5.606   2.628   1.846  0.6836  0.2056  1.7248
12093TIP3    H257771   5.706   2.515   1.857  0.9888  0.2561 -0.2790
12094TIP3   OH257772   0.577   0.179   6.150  0.5940  0.5528 -0.0488
12094TIP3    H157773   0.562   0.264   6.191  0.6634 -0.7158  2.8425
12094TIP3    H257774   0.527   0.117   6.204  0.5640 -1.2801 -2.0297
12095TIP3   OH257775   5.725   1.988   4.523  0.1056 -0.1528 -0.3124
12095TIP3    H157776   5.811   1.951   4.544  0.8092  0.0840 -2.5632
12095TIP3    H257777   5.735   2.082   4.538  0.8109  0.1030 -2.1951
12096TIP3   OH257778   6.783   6.708  11.159  0.3395 -0.0449 -0.0240
12096TIP3    H157779   6.868   6.741  11.188  0.5876 -0.0951 -0.6685
12096TIP3    H257780   6.802   6.620  11.126  0.4725  0.7158 -2.1774
12097TIP3   OH257781   1.409   2.431  11.962 -0.0731 -0.9538 -0.0526
12097TIP3    H157782   1.475   2.362  11.958 -0.5706 -1.4652  0.3721
12097TIP3    H257783   1.339   2.394  12.017 -0.0290  0.1533  0.7888
12098TIP3   OH257784   5.073   4.044   2.511 -0.5415 -0.0798 -0.3437
12098TIP3    H157785   5.031   3.992   2.443  0.5667 -0.1455 -0.9998
12098TIP3    H257786   5.041   4.006   2.593 -2.9631  0.8573 -0.7686
12099TIP3   OH257787   5.253   3.722   5.905 -0.3029 -0.1299  0.3144
12099TIP3    H157788   5.218   3.712   5.993 -1.5719  2.4306  0.1828
12099TIP3    H257789   5.188   3.682   5.848  0.2190 -1.2266  0.4613
12100TIP3   OH257790   6.287   5.720   5.329 -0.2305  0.3159  0.0547
12100TIP3    H157791   6.374   5.759   5.343 -0.4599  1.5002 -1.5226
12100TIP3    H257792   6.282   5.705   5.235 -0.3390 -3.2854  0.5094
12101TIP3   OH257793   4.888   2.504  11.024 -0.1990 -0.7156 -0.1950
12101TIP3    H157794   4.932   2.537  10.946  2.1684 -0.1107  1.2766
12101TIP3    H257795   4.882   2.580  11.082 -1.1407 -1.3373  0.5663
12102TIP3   OH257796   5.475   1.624  15.882  0.3381 -0.2041  0.0211
12102TIP3    H157797   5.518   1.703  15.913 -0.6608  0.7032 -0.8281
12102TIP3    H257798   5.384   1.650  15.868  0.1208 -1.3316 -0.8378
12103TIP3   OH257799   4.786   1.649  12.644 -0.3355  0.1929  0.6746
12103TIP3    H157800   4.745   1.707  12.708 -0.6029  0.9143 -0.1449
12103TIP3    H257801   4.774   1.693  12.560  1.4598  0.0780  0.3137
12104TIP3   OH257802   0.148   4.478   0.125  0.0053  0.6326  0.4451
12104TIP3    H157803   0.065   4.480   0.078  0.5010 -0.2186 -0.5110
12104TIP3    H257804   0.212   4.453   0.059  1.0727  1.5315  1.1124
12105TIP3   OH257805   3.137   0.823   6.653  0.1949 -1.0607  0.0797
12105TIP3    H157806   3.048   0.792   6.671  0.6161 -1.7644  0.9948
12105TIP3    H257807   3.192   0.746   6.662  0.8896 -0.6659 -0.6609
12106TIP3   OH257808   2.097   3.560   6.524  0.3984 -0.4924  0.1139
12106TIP3    H157809   2.150   3.623   6.572  0.3471 -2.1790  2.5810
12106TIP3    H257810   2.159   3.515   6.467  1.0077 -0.2634  0.5828
12107TIP3   OH257811   0.651   2.931  11.579 -0.0692  0.4628 -1.0408
12107TIP3    H157812   0.627   3.024  11.577 -2.2326 -0.0252 -2.3026
12107TIP3    H257813   0.650   2.907  11.671 -2.1733  1.1537 -0.8196
12108TIP3   OH257814   0.344   4.236   4.948 -0.5570 -0.1730  1.1453
12108TIP3    H157815   0.333   4.168   4.881 -1.3019 -0.6423  1.7231
12108TIP3    H257816   0.426   4.215   4.992 -0.4536 -0.3145  0.8821
12109TIP3   OH257817   0.168   2.878  13.533  0.1649 -0.0886  0.1057
12109TIP3    H157818   0.190   2.932  13.458 -0.0624  0.8536  0.7089
12109TIP3    H257819   0.216   2.796  13.519 -1.9900 -1.0609 -2.4762
12110TIP3   OH257820   2.535   6.761   2.649  0.4419  0.2035 -0.0312
12110TIP3    H157821   2.578   6.750   2.565 -0.3881 -0.2182 -0.4147
12110TIP3    H257822   2.473   6.688   2.654  1.3122 -0.4870  1.4767
12111TIP3   OH257823   5.744   4.689  11.565  0.3839  0.1111 -0.0834
12111TIP3    H157824   5.757   4.654  11.653  0.3443  2.2878  0.8397
12111TIP3    H257825   5.815   4.651  11.513  0.1940 -1.4915  0.7577
12112TIP3   OH257826   2.720   1.252  12.815 -0.5641  0.6162  0.4899
12112TIP3    H157827   2.791   1.190  12.830 -1.5685 -0.6485  0.1876
12112TIP3    H257828   2.760   1.338  12.829  1.1544 -0.0229 -0.2626
12113TIP3   OH257829   1.529   3.736  11.245  0.4416 -0.0755 -0.1748
12113TIP3    H157830   1.534   3.745  11.150  1.9805  1.5695  0.0222
12113TIP3    H257831   1.476   3.657  11.258 -1.1601  0.5299 -2.3603
12114TIP3   OH257832   1.026   0.156   1.773  0.2157  0.3308 -0.4186
12114TIP3    H157833   1.011   0.159   1.679  1.7110  1.7480 -0.6712
12114TIP3    H257834   0.986   0.236   1.806  1.7213  1.0470 -0.2358
12115TIP3   OH257835   3.330   5.949   0.593 -0.2176 -0.1669  0.0457
12115TIP3    H157836   3.366   5.981   0.676  0.5509  0.2025 -0.4220
12115TIP3    H257837   3.404   5.950   0.533 -0.2968 -2.1998 -0.1743
12116TIP3   OH257838   1.600   6.639   6.121  0.1125  0.6002 -0.1654
12116TIP3    H157839   1.524   6.676   6.166  0.5388 -0.7644  1.7812
12116TIP3    H257840   1.629   6.709   6.063 -1.6003  1.7697  0.3133
12117TIP3   OH257841   3.257   6.495   5.234  0.1208 -0.1579  0.5787
12117TIP3    H157842   3.268   6.586   5.208  0.0304  0.1514  1.5902
12117TIP3    H257843   3.343   6.455   5.218 -0.0243 -0.0673 -0.4836
12118TIP3   OH257844   1.483   2.952  12.568  0.0177 -0.4954  0.2065
12118TIP3    H157845   1.392   2.981  12.574  0.5453  1.8408 -1.6588
12118TIP3    H257846   1.534   3.025  12.603  1.2549 -1.0094 -0.4628
12119TIP3   OH257847   3.964   2.575  13.688 -0.3018 -0.4178  0.1731
12119TIP3    H157848   4.048   2.620  13.677 -0.2812  0.3610  2.7599
12119TIP3    H257849   3.968   2.539  13.776 -2.5427 -0.6803  0.2223
12120TIP3   OH257850   2.582   3.609  12.733  0.2885  0.3502  0.3798
12120TIP3    H157851   2.564   3.517  12.710 -0.4156 -0.3244  3.2533
12120TIP3    H257852   2.577   3.611  12.828 -3.0877  4.0465  0.3572
12121TIP3   OH257853   2.714   3.413   3.967  0.4484  0.4385  0.2738
12121TIP3    H157854   2.772   3.458   4.027 -0.4165 -1.1613  2.4296
12121TIP3    H257855   2.772   3.359   3.913  1.1474  0.7617  0.6909
12122TIP3   OH257856   2.977   6.069  15.223  0.5016 -0.2492 -0.3028
12122TIP3    H157857   3.056   6.117  15.196  0.2660  0.3692  0.0881
12122TIP3    H257858   2.982   5.986  15.175  0.2380  0.6944 -2.0567
12123TIP3   OH257859   5.347   5.367  12.545 -0.1915 -0.4415  0.1773
12123TIP3    H157860   5.391   5.283  12.558 -0.0222 -0.4521 -0.4150
12123TIP3    H257861   5.357   5.385  12.451  2.0748  1.5200  0.7088
12124TIP3   OH257862   4.327   3.405   0.607  0.1439 -0.4304 -0.6281
12124TIP3    H157863   4.384   3.481   0.593 -0.0427  0.2154  1.6395
12124TIP3    H257864   4.380   3.344   0.657 -0.3590 -0.9065 -0.6713
12125TIP3   OH257865   5.054   3.997  16.860 -0.3456 -0.5607 -0.0938
12125TIP3    H157866   5.087   4.049  16.934 -1.6706 -0.0340  0.1565
12125TIP3    H257867   4.980   3.948  16.897 -0.9358 -0.3951 -1.0254
12126TIP3   OH257868   1.531   5.791   3.139 -0.2323  0.0478  0.1331
12126TIP3    H157869   1.615   5.833   3.153 -0.4329  0.9294 -1.1437
12126TIP3    H257870   1.533   5.714   3.196  1.2138  0.3273  0.5021
12127TIP3   OH257871   5.597   6.318  15.384 -0.1198  0.4291 -0.2647
12127TIP3    H157872   5.656   6.281  15.450 -1.4517 -0.0003  0.7216
12127TIP3    H257873   5.613   6.412  15.388 -0.6031  0.4789  1.1222
12128TIP3   OH257874   0.547   4.109   4.010 -0.4668  0.4379 -0.7004
12128TIP3    H157875   0.609   4.178   4.036  0.5769  0.1422 -2.2536
12128TIP3    H257876   0.601   4.044   3.965 -1.7064 -0.5320 -0.8289
12129TIP3   OH257877   4.357   0.683  15.893 -0.1237  0.3704 -0.3974
12129TIP3    H157878   4.408   0.759  15.921 -0.4939  0.5213 -0.1285
12129TIP3    H257879   4.385   0.612  15.951  1.5896 -0.1908 -1.8452
12130TIP3   OH257880   3.707   2.409   0.718  0.3663 -0.2449  0.5211
12130TIP3    H157881   3.778   2.424   0.655 -0.3981  0.3753 -0.2097
12130TIP3    H257882   3.675   2.321   0.697  0.9523 -0.5593  0.9038
12131TIP3   OH257883   2.729   4.654   5.796 -0.0722  0.5187  0.4706
12131TIP3    H157884   2.659   4.717   5.813 -0.0526  0.2522  1.5966
12131TIP3    H257885   2.693   4.570   5.826  0.5782  0.3046  0.6621
12132TIP3   OH257886   6.444   4.243  11.094  0.1285  0.0164 -0.0195
12132TIP3    H157887   6.353   4.232  11.067  0.5051  0.9952 -1.9017
12132TIP3    H257888   6.455   4.185  11.169 -1.0243 -3.1036 -2.0576
12133TIP3   OH257889   3.750   3.154  14.752 -0.8355  0.3992  0.0844
12133TIP3    H157890   3.770   3.173  14.660  0.7659 -3.7593 -0.6540
12133TIP3    H257891   3.654   3.146  14.754 -1.0499  2.2078 -0.7358
12134TIP3   OH257892   6.167   1.336   5.547  0.1421 -0.0185 -0.4118
12134TIP3    H157893   6.182   1.246   5.575  1.2674  0.1990 -0.2805
12134TIP3    H257894   6.130   1.328   5.459  1.7385 -0.5966 -1.0698
12135TIP3   OH257895   4.425   2.656   1.431  0.0407 -0.0446  0.1580
12135TIP3    H157896   4.374   2.719   1.381  2.4785  1.8686 -0.1042
12135TIP3    H257897   4.507   2.647   1.382  1.1980 -0.6201  2.0955
12136TIP3   OH257898   3.631   0.302  12.277  0.0080 -0.0994 -0.2545
12136TIP3    H157899   3.665   0.387  12.306 -0.8478  0.3855 -0.6312
12136TIP3    H257900   3.674   0.238  12.334  1.5261  0.4821 -0.7033
12137TIP3   OH257901   6.261   6.484  11.903 -0.3223 -0.1286 -0.5416
12137TIP3    H157902   6.207   6.410  11.931  0.0477 -0.2637 -0.1717
12137TIP3    H257903   6.213   6.561  11.933 -0.1143 -0.2603  0.1537
12138TIP3   OH257904   5.641   5.281  14.451 -0.0179  0.1613 -0.1234
12138TIP3    H157905   5.565   5.290  14.508 -1.4393 -0.3333 -1.8828
12138TIP3    H257906   5.692   5.361  14.468 -0.1848 -0.1238  2.0525
12139TIP3   OH257907   3.876   6.010  12.454  0.4589 -0.3057 -0.0930
12139TIP3    H157908   3.792   5.999  12.409 -0.9950 -0.1985  2.3877
12139TIP3    H257909   3.913   5.922  12.458  0.7322 -0.2787 -1.6306
12140TIP3   OH257910   4.510   4.164   6.233  0.1264  0.1714  0.0643
12140TIP3    H157911   4.428   4.123   6.206 -0.2649  0.6861  0.4446
12140TIP3    H257912   4.557   4.094   6.279  0.5337 -0.5300 -1.3838
12141TIP3   OH257913   5.145   0.329   3.463  0.4679  0.6073  0.3484
12141TIP3    H157914   5.115   0.377   3.386  1.1592 -0.0955 -0.3986
12141TIP3    H257915   5.237   0.309   3.443  0.2403 -0.8957  0.6603
12142TIP3   OH257916   4.466   6.521  11.660 -0.0997  0.3297 -0.4687
12142TIP3    H157917   4.522   6.481  11.594 -0.1308 -0.1043 -0.2354
12142TIP3    H257918   4.512   6.602  11.684 -0.3054  0.7076 -1.3265
12143TIP3   OH257919   3.499   1.078  11.234 -0.3570  0.4548  0.5023
12143TIP3    H157920   3.538   1.123  11.159  0.2736  0.3849  0.7783
12143TIP3    H257921   3.473   0.992  11.200 -2.1487  1.2138 -0.1879
12144TIP3   OH257922   3.414   3.532   1.334 -0.2668  0.7116 -0.3644
12144TIP3    H157923   3.404   3.486   1.251 -0.8360 -1.2701  0.7271
12144TIP3    H257924   3.438   3.464   1.397 -0.1803  2.0832  1.1712
12145TIP3   OH257925   2.699   2.402  16.966  0.5174 -0.3308 -0.0076
12145TIP3    H157926   2.628   2.344  16.991  1.0660 -0.2271  1.9801
12145TIP3    H257927   2.681   2.484  17.012 -0.1352  1.0876 -2.5890
12146TIP3   OH257928   4.258   4.720   5.164  0.6666 -0.3329  0.6808
12146TIP3    H157929   4.200   4.726   5.088 -1.3429  1.0534  2.2140
12146TIP3    H257930   4.330   4.664   5.135 -0.0880  0.0224 -2.1639
12147TIP3   OH257931   2.983   2.383  14.906  0.2167 -0.2035  0.1483
12147TIP3    H157932   3.022   2.452  14.960  0.7890  0.1778 -0.7453
12147TIP3    H257933   2.920   2.429  14.850  0.3759 -0.4487 -0.2327
12148TIP3   OH257934   6.226   1.783  16.950  0.0858 -0.8476  0.0070
12148TIP3    H157935   6.229   1.758  16.858 -0.2574  0.0112 -0.2492
12148TIP3    H257936   6.275   1.865  16.955 -0.5085 -0.5074  0.4550
12149TIP3   OH257937   6.676   4.572   3.611  0.0520 -0.6407 -0.7244
12149TIP3    H157938   6.724   4.499   3.651 -0.1408  0.1648  1.0922
12149TIP3    H257939   6.610   4.595   3.676  0.1998  1.2480 -1.2062
12150TIP3   OH257940   1.391   3.724  15.365 -0.1757  0.9997 -0.1271
12150TIP3    H157941   1.403   3.747  15.458  2.3593  2.5705 -0.7465
12150TIP3    H257942   1.478   3.694  15.337 -0.4041  2.2601 -2.4186
12151TIP3   OH257943   0.179   6.016   6.115  0.1548  0.3835  0.1998
12151TIP3    H157944   0.156   6.055   6.199  0.7298  1.5949 -0.1826
12151TIP3    H257945   0.110   5.951   6.099  1.0203 -1.1861  2.4290
12152TIP3   OH257946   1.304   1.299  14.803  0.2579  0.0082 -0.3798
12152TIP3    H157947   1.272   1.231  14.862  1.2090  0.3794  0.5931
12152TIP3    H257948   1.225   1.347  14.776 -0.3279 -0.9686 -0.4556
12153TIP3   OH257949   2.846   3.067  16.418  0.0345  0.1926  0.6947
12153TIP3    H157950   2.920   3.127  16.421  0.1263  0.3101 -1.8117
12153TIP3    H257951   2.794   3.095  16.342 -1.2890 -1.3340  0.9642
12154TIP3   OH257952   4.995   5.290  15.384 -0.4046 -0.1425 -0.1288
12154TIP3    H157953   4.961   5.320  15.468  0.2955  1.5771 -0.4208
12154TIP3    H257954   4.924   5.306  15.322  0.1426  1.5472 -0.3791
12155TIP3   OH257955   3.400   1.236  13.493 -0.4090  0.2299 -0.0316
12155TIP3    H157956   3.349   1.195  13.423 -1.9496  0.6455  0.7864
12155TIP3    H257957   3.373   1.191  13.572  0.9007  0.1380  0.3888
12156TIP3   OH257958   5.459   6.795   1.017 -0.0707  0.0052 -0.3793
12156TIP3    H157959   5.532   6.741   0.987 -0.2124  0.3486 -1.3634
12156TIP3    H257960   5.501   6.876   1.048 -0.0890  0.7343 -2.1309
12157TIP3   OH257961   1.809   5.906  10.953 -0.0776  0.0311 -0.2785
12157TIP3    H157962   1.816   5.854  11.033 -1.0905  0.2876  0.0014
12157TIP3    H257963   1.826   5.844  10.882 -1.7105 -0.8339  0.0279
12158TIP3   OH257964   1.040   1.594   0.650 -0.3521 -0.4678 -0.2473
12158TIP3    H157965   1.100   1.614   0.722 -1.2376 -0.4975  0.5096
12158TIP3    H257966   1.068   1.508   0.619  2.4539  1.0458 -2.4577
12159TIP3   OH257967   6.072   2.635   2.388  0.0728  0.0817  0.0714
12159TIP3    H157968   6.073   2.713   2.444  0.8859  2.6972 -3.2665
12159TIP3    H257969   6.160   2.629   2.353 -0.8996 -0.0761 -2.5455
12160TIP3   OH257970   4.653   0.040  14.170 -0.3254 -0.0914 -0.4619
12160TIP3    H157971   4.608  -0.020  14.229  1.3131 -1.2358 -0.3257
12160TIP3    H257972   4.584   0.098  14.137 -1.6989 -1.1305  0.5077
12161TIP3   OH257973   0.901   5.102  15.050  0.0432  0.4303  0.2896
12161TIP3    H157974   0.861   5.071  14.968  0.0543 -0.3857  0.5813
12161TIP3    H257975   0.979   5.149  15.022  0.3939 -0.3861 -0.1475
12162TIP3   OH257976   3.214   0.824   1.288 -0.2840 -0.1255 -0.2915
12162TIP3    H157977   3.218   0.860   1.377  1.5898 -1.5211  0.2521
12162TIP3    H257978   3.290   0.862   1.244 -0.2617 -0.7289 -0.7802
12163TIP3   OH257979   4.592   6.683   5.026  0.4355 -0.1464 -0.2254
12163TIP3    H157980   4.575   6.767   5.068  1.2811  0.4249 -0.9860
12163TIP3    H257981   4.593   6.620   5.098 -1.9685  0.1823  0.1832
12164TIP3   OH257982   6.334   0.170   0.901 -0.0942  0.3954  0.1351
12164TIP3    H157983   6.335   0.212   0.987  0.1832 -1.3330  1.0120
12164TIP3    H257984   6.350   0.078   0.919  0.9324  0.1305 -1.8551
12165TIP3   OH257985   3.118   4.530  14.093 -0.1387  0.4171  0.0358
12165TIP3    H157986   3.073   4.508  14.012  0.5732 -1.4827  0.0940
12165TIP3    H257987   3.057   4.505  14.162  0.2652 -0.4873  0.0884
12166TIP3   OH257988   1.985   1.325   5.449  0.0304  0.0333 -0.0003
12166TIP3    H157989   2.054   1.304   5.512  1.7196  1.9608 -1.0849
12166TIP3    H257990   1.932   1.391   5.493  0.0171 -0.0543  0.1173
12167TIP3   OH257991   1.198   1.055   4.790 -0.1561  0.3718 -0.3687
12167TIP3    H157992   1.202   1.021   4.880 -1.5638  0.3012 -0.3048
12167TIP3    H257993   1.280   1.103   4.779 -1.0930  2.7810  1.9469
12168TIP3   OH257994   4.826   0.111   4.750 -0.0344 -0.4217 -0.3660
12168TIP3    H157995   4.739   0.078   4.727 -1.2753  0.7581  2.1253
12168TIP3    H257996   4.872   0.035   4.786 -0.8632 -0.6155  0.3185
12169TIP3   OH257997   6.088   2.224   5.684 -0.1177  0.0506  0.3180
12169TIP3    H157998   6.176   2.185   5.689 -0.9944 -2.2222 -0.7453
12169TIP3    H257999   6.099   2.311   5.723  3.0197  0.5856 -1.3545
12170TIP3   OH258000   2.876   3.924  17.058  0.6851 -0.1134 -0.2872
12170TIP3    H158001   2.860   3.923  16.963 -0.4856  0.7859 -0.1202
12170TIP3    H258002   2.961   3.966  17.067 -0.0201  1.5246 -0.8683
12171TIP3   OH258003   2.439   3.814  14.853  0.3641 -0.0119  0.5960
12171TIP3    H158004   2.355   3.819  14.898  0.3234  0.3961  0.4777
12171TIP3    H258005   2.491   3.754  14.907 -0.7104 -2.0727 -0.5184
12172TIP3   OH258006   3.524   5.338   5.917 -0.1527  0.5849 -0.5423
12172TIP3    H158007   3.569   5.254   5.918  0.9414  1.1483 -0.3875
12172TIP3    H258008   3.514   5.359   5.824 -2.1069 -0.5573 -0.6263
12173TIP3   OH258009   0.772   3.381   2.529  0.3059 -0.7039  0.0116
12173TIP3    H158010   0.732   3.429   2.456 -1.0554 -0.7750  0.6844
12173TIP3    H258011   0.785   3.447   2.597  0.0919 -0.9462  0.2869
12174TIP3   OH258012   4.940   1.688   4.047 -0.0444  0.2959  0.4904
12174TIP3    H158013   4.866   1.629   4.035 -0.4564  1.2005 -2.2767
12174TIP3    H258014   4.942   1.706   4.141 -2.8251 -0.4070  0.7688
12175TIP3   OH258015   5.964   0.505  13.478 -0.2692  0.0995  0.2730
12175TIP3    H158016   5.947   0.586  13.526  2.0357  0.0633  1.2968
12175TIP3    H258017   6.058   0.490  13.490  0.0668 -0.8786 -2.8337
12176TIP3   OH258018   3.643   0.460   1.183  0.0515  0.0961  0.3788
12176TIP3    H158019   3.737   0.467   1.165  0.2876  0.3048  1.6068
12176TIP3    H258020   3.637   0.395   1.253 -0.6751  0.3861  0.5959
12177TIP3   OH258021   4.791   4.609  16.253 -0.3500  0.3206 -0.2112
12177TIP3    H158022   4.703   4.646  16.243 -1.2806 -1.5155  0.6978
12177TIP3    H258023   4.776   4.522  16.288  1.8413 -0.2129 -0.4793
12178TIP3   OH258024   0.050   3.901  14.513  0.0473  0.0868 -0.3478
12178TIP3    H158025   0.086   3.979  14.555 -0.1772 -0.7675  1.5160
12178TIP3    H258026  -0.005   3.935  14.442  1.3887  1.5296 -0.7513
12179TIP3   OH258027   0.766   5.531   0.826 -0.0088 -0.2655  0.3710
12179TIP3    H158028   0.843   5.588   0.831  1.0544 -1.5958 -0.2050
12179TIP3    H258029   0.780   5.478   0.748 -2.0704  0.2040 -0.4018
12180TIP3   OH258030   0.073   3.278  16.204 -0.2414  0.1822 -0.4873
12180TIP3    H158031  -0.003   3.233  16.166  0.0734 -0.2284 -0.6330
12180TIP3    H258032   0.119   3.316  16.129  0.1313 -0.2421 -0.4761
12181TIP3   OH258033   4.192   0.650   3.424 -0.4290  0.0738  0.2541
12181TIP3    H158034   4.206   0.740   3.397 -0.7985 -0.5884 -2.4166
12181TIP3    H258035   4.280   0.616   3.442  0.0082  0.2140 -1.4737
12182TIP3   OH258036   3.491   2.678   5.238  0.2760  0.1465  0.2260
12182TIP3    H158037   3.427   2.653   5.305  1.1946 -1.9988  0.3786
12182TIP3    H258038   3.510   2.770   5.256 -1.0493  0.1930  1.5840
12183TIP3   OH258039   5.026   6.800   2.132 -0.3123 -0.1471  0.1632
12183TIP3    H158040   5.119   6.817   2.121 -0.4396  0.2065 -0.4048
12183TIP3    H258041   4.984   6.845   2.059 -0.8925 -0.6613  0.1684
12184TIP3   OH258042   2.889   4.890  12.451 -0.3755 -0.1118 -0.2711
12184TIP3    H158043   2.888   4.954  12.523  1.7896 -0.8626  0.5132
12184TIP3    H258044   2.846   4.935  12.379 -1.0444  1.3364  0.9680
12185TIP3   OH258045   6.170   1.307  16.365  0.2810 -0.4612 -0.3765
12185TIP3    H158046   6.204   1.281  16.451 -1.3760  0.9475  0.7848
12185TIP3    H258047   6.207   1.395  16.350 -1.9733  0.7131  0.4973
12186TIP3   OH258048   4.034   5.609  14.784 -0.1989 -0.6500  0.3673
12186TIP3    H158049   4.093   5.679  14.809 -1.4283 -0.1119  1.9273
12186TIP3    H258050   4.065   5.580  14.698  2.0089 -0.0845  0.9271
12187TIP3   OH258051   3.529   0.829   4.655 -0.0455 -0.2565  0.2673
12187TIP3    H158052   3.599   0.791   4.602  0.5017 -2.8882  2.6497
12187TIP3    H258053   3.550   0.923   4.658  1.9673 -0.5904 -1.0380
12188TIP3   OH258054   2.723   3.496   0.342 -0.0152 -0.1814  0.1944
12188TIP3    H158055   2.661   3.467   0.275 -1.3655 -0.9582  1.6929
12188TIP3    H258056   2.725   3.425   0.406  1.6148  0.3084  0.7500
12189TIP3   OH258057   3.763   4.818   0.044  0.1488  0.0253  0.0660
12189TIP3    H158058   3.852   4.846   0.020  0.1442 -0.8681 -1.1114
12189TIP3    H258059   3.719   4.898   0.071  1.5538  0.3660  1.5262
12190TIP3   OH258060   0.081   1.194  10.897  0.2682  0.3112 -0.5737
12190TIP3    H158061   0.040   1.192  10.983  2.0383 -2.0458  0.3259
12190TIP3    H258062   0.139   1.270  10.899 -1.2435  1.5253 -0.5433
12191TIP3   OH258063   5.685   6.092   0.235 -0.2362  0.5147  0.6418
12191TIP3    H158064   5.615   6.041   0.276 -0.4399  0.2237 -0.0649
12191TIP3    H258065   5.646   6.127   0.155  0.6321 -0.2494 -0.1387
12192TIP3   OH258066   2.201   6.788   0.307  0.0201  0.1396  0.0054
12192TIP3    H158067   2.279   6.739   0.334 -0.1464 -1.2379 -1.7851
12192TIP3    H258068   2.197   6.862   0.367  2.5328  0.0852  0.3503
12193TIP3   OH258069   2.197   2.182  13.068 -0.0834  0.3220  0.0356
12193TIP3    H158070   2.255   2.241  13.116  0.5055 -0.6983  0.6207
12193TIP3    H258071   2.218   2.197  12.976  2.3619 -1.1901  0.2580
12194TIP3   OH258072   2.908   4.543  15.002  0.4065 -0.0466  0.1365
12194TIP3    H158073   2.921   4.637  14.987  1.0915 -0.3656 -1.3486
12194TIP3    H258074   2.992   4.512  15.034  0.0583 -0.0935  1.0340
12195TIP3   OH258075   1.904   4.986  15.814 -0.3983 -0.5757 -0.4387
12195TIP3    H158076   1.976   4.925  15.831 -0.3328 -0.6831 -1.0709
12195TIP3    H258077   1.828   4.929  15.800 -0.9971 -0.4356  1.8292
12196TIP3   OH258078   4.481   6.443   4.327 -0.0933  0.8702  0.2850
12196TIP3    H158079   4.422   6.512   4.294  0.8226  2.4386  1.7565
12196TIP3    H258080   4.567   6.485   4.329  0.8121 -0.8609 -0.2637
12197TIP3   OH258081   5.556   3.198   4.949 -0.5985 -0.3337 -0.0754
12197TIP3    H158082   5.623   3.266   4.937 -0.0674 -0.5151  1.6166
12197TIP3    H258083   5.571   3.137   4.876  0.5478  0.0597 -0.1902
12198TIP3   OH258084   4.351   1.325   4.790  0.2870  0.0673  0.3902
12198TIP3    H158085   4.272   1.360   4.749  0.6679 -0.4054 -0.7830
12198TIP3    H258086   4.361   1.376   4.870 -1.3588 -0.0462  0.7114
12199TIP3   OH258087   2.979   5.871   6.645 -0.4204  0.0184  0.5694
12199TIP3    H158088   3.073   5.885   6.631 -0.5686  0.5692  0.0802
12199TIP3    H258089   2.961   5.787   6.602 -0.4165  0.5939 -0.6015
12200TIP3   OH258090   6.010   1.052   1.011  0.1672  0.1788  0.6262
12200TIP3    H158091   5.918   1.072   1.029  0.6310  3.4525 -0.0796
12200TIP3    H258092   6.058   1.089   1.085  0.9794 -1.3954  0.9276
12201TIP3   OH258093   4.484   6.552  14.978  0.0228  0.8485 -0.0104
12201TIP3    H158094   4.406   6.607  14.970 -0.2274  0.4775 -0.1179
12201TIP3    H258095   4.540   6.579  14.906 -0.0342  1.0687  0.0273
12202TIP3   OH258096   3.401   4.267   4.923 -0.2126  0.3367  0.1496
12202TIP3    H158097   3.347   4.345   4.933  0.3882  0.8139 -0.3041
12202TIP3    H258098   3.490   4.298   4.933  0.1150 -0.0582 -1.3180
12203TIP3   OH258099   1.077   3.552  16.280 -0.3193  0.3073  0.5056
12203TIP3    H158100   1.157   3.521  16.322  0.3624  2.7702  1.1847
12203TIP3    H258101   1.027   3.472  16.263  2.7118 -1.4644 -1.0061
12204TIP3   OH258102   3.516   0.884   3.165  0.3519 -0.2612  0.0717
12204TIP3    H158103   3.513   0.979   3.152  1.8388 -0.1991  0.0323
12204TIP3    H258104   3.518   0.873   3.260  0.7106 -0.2217  0.0706
12205TIP3   OH258105   4.379   6.216  13.561  0.5449 -0.1488 -0.0385
12205TIP3    H158106   4.413   6.205  13.472  1.3019 -0.2073  0.2567
12205TIP3    H258107   4.340   6.132  13.582  0.1767 -0.0709 -0.3924
12206TIP3   OH258108   6.125   0.724  14.360 -0.6769  0.5822  0.2027
12206TIP3    H158109   6.062   0.716  14.288  0.1370 -1.1327 -0.3630
12206TIP3    H258110   6.071   0.739  14.437 -1.6090  1.7670 -0.6495
12207TIP3   OH258111   6.273   3.533  14.082 -0.1218  0.4076 -0.7344
12207TIP3    H158112   6.328   3.522  14.160  1.5942  0.1103 -1.9209
12207TIP3    H258113   6.300   3.617  14.046 -1.0839  0.6592 -0.8889
12208TIP3   OH258114   2.317   5.086   0.089 -0.0144 -0.4042 -0.3458
12208TIP3    H158115   2.374   5.028   0.140 -0.1210  0.4077  0.7255
12208TIP3    H258116   2.253   5.118   0.151 -2.0253 -1.6870 -1.6328
12209TIP3   OH258117   4.952   6.601  12.603 -0.1797 -0.7511 -0.2122
12209TIP3    H158118   4.919   6.691  12.607 -0.7176 -0.9798  1.2731
12209TIP3    H258119   5.028   6.601  12.661 -1.0382 -1.5574  0.9805
12210TIP3   OH258120   6.724   0.373   4.711  0.5656  0.1635 -0.1422
12210TIP3    H158121   6.681   0.331   4.786 -0.9697  0.1951 -0.9646
12210TIP3    H258122   6.817   0.367   4.731  0.2266 -0.3804  1.4782
12211TIP3   OH258123   3.898   1.567  15.333 -0.0265 -0.0761  0.2626
12211TIP3    H158124   3.874   1.545  15.243  1.8267 -0.5078 -0.1685
12211TIP3    H258125   3.874   1.659  15.343  1.0064  0.3893 -1.1655
12212TIP3   OH258126   1.499   4.664  11.636 -0.3997  0.2135  0.1753
12212TIP3    H158127   1.460   4.667  11.724  0.2079  0.3140  0.4428
12212TIP3    H258128   1.543   4.748  11.626  0.5621 -0.2645  0.2582
12213TIP3   OH258129   5.306   4.883  16.822  0.3920 -0.3464  0.7635
12213TIP3    H158130   5.263   4.935  16.890 -1.9334  0.3266 -1.0433
12213TIP3    H258131   5.345   4.948  16.764  0.6044 -0.7895  0.4095
12214TIP3   OH258132   3.628   5.024   0.116  0.4046 -0.0882 -0.9725
12214TIP3    H158133   3.534   5.041   0.112 -0.0867 -2.1898  0.1620
12214TIP3    H258134   3.669   5.107   0.093 -1.7183  0.5260 -2.8120
12215TIP3   OH258135   4.691   5.624  15.804  0.0047 -0.3939  0.2951
12215TIP3    H158136   4.693   5.698  15.744  0.0698  0.2514  1.0639
12215TIP3    H258137   4.599   5.601  15.811 -0.0376 -0.2501  0.2074
12216TIP3   OH258138   2.555   5.735  12.313  0.1253 -0.1008 -0.3477
12216TIP3    H158139   2.558   5.765  12.404 -3.4009  0.0631 -0.1238
12216TIP3    H258140   2.501   5.655  12.317 -1.1720  0.5956 -2.3721
12217TIP3   OH258141   1.822   3.769   2.143  1.1344  0.4004 -0.0638
12217TIP3    H158142   1.828   3.819   2.062  0.7750  0.6790  0.0808
12217TIP3    H258143   1.745   3.714   2.132  1.2152  0.2744 -0.0027
12218TIP3   OH258144   6.517   2.990  14.832  0.2981  0.0822  0.2552
12218TIP3    H158145   6.454   2.945  14.887  0.4621 -0.6432 -0.1357
12218TIP3    H258146   6.470   3.066  14.798 -0.3291 -0.3812  0.0677
12219TIP3   OH258147   6.202   6.122   3.362  0.1599  0.0838  0.2811
12219TIP3    H158148   6.117   6.155   3.391 -0.5768 -0.6887 -0.9147
12219TIP3    H258149   6.215   6.042   3.413  0.0650  0.0923  0.3200
12220TIP3   OH258150   4.484   5.220  16.570 -0.7774  0.2553 -0.2002
12220TIP3    H158151   4.499   5.140  16.620  5.1319  0.5919 -0.6189
12220TIP3    H258152   4.517   5.201  16.483 -0.8020  2.6218 -0.8015
12221TIP3   OH258153   4.403   1.342  11.699  0.2594  0.1831 -0.6821
12221TIP3    H158154   4.320   1.294  11.707 -0.4943  1.6794  2.0697
12221TIP3    H258155   4.467   1.275  11.676 -1.1017 -1.7958  0.8479
12222TIP3   OH258156   1.242   4.114  11.215 -0.1347  0.1335  0.5300
12222TIP3    H158157   1.331   4.152  11.217 -0.2152  0.3162  0.6709
12222TIP3    H258158   1.224   4.102  11.122  0.0219  0.1347  0.4985
12223TIP3   OH258159   2.687   6.239  14.725  1.0203 -0.0780 -0.4778
12223TIP3    H158160   2.665   6.327  14.756  0.8965  0.0698 -0.9750
12223TIP3    H258161   2.709   6.251  14.633  0.1428 -0.6969 -0.7871
12224TIP3   OH258162   0.224   5.295  17.112  0.1580 -0.9368  0.0668
12224TIP3    H158163   0.248   5.208  17.144  2.0731 -0.6647 -0.4967
12224TIP3    H258164   0.299   5.350  17.134 -0.2583  0.1678 -1.1570
12225TIP3   OH258165   0.185   0.414  15.955  0.0140  0.6126  0.5345
12225TIP3    H158166   0.131   0.352  15.906 -0.9427  1.2000  0.8251
12225TIP3    H258167   0.165   0.499  15.917  0.2445  0.9154  1.0763
12226TIP3   OH258168   1.580   3.877  14.365 -0.3779  0.8016  0.0708
12226TIP3    H158169   1.563   3.807  14.427 -1.1844  2.0886  1.3718
12226TIP3    H258170   1.670   3.905  14.383 -0.6074  1.1670  0.6884
12227TIP3   OH258171   1.590   3.211   2.057 -0.2456  0.0235  0.1599
12227TIP3    H158172   1.629   3.166   1.983 -2.3979  0.3994 -1.2873
12227TIP3    H258173   1.606   3.304   2.040  0.6703  0.0525  1.0545
12228TIP3   OH258174   1.110   2.814  14.899 -0.0000 -0.2109 -0.0210
12228TIP3    H158175   1.090   2.903  14.929 -3.8512 -0.5770 -0.8728
12228TIP3    H258176   1.104   2.761  14.978 -2.4903 -0.1939 -0.0924
12229TIP3   OH258177   6.337   6.062   1.464  0.2014 -0.3496 -0.1392
12229TIP3    H158178   6.294   5.986   1.424  0.3632 -0.4858 -0.0546
12229TIP3    H258179   6.325   6.133   1.400  1.5420 -0.8727 -1.0174
12230TIP3   OH258180   0.866   1.820   0.562  0.4693 -0.3725 -0.3777
12230TIP3    H158181   0.814   1.792   0.486 -2.4746 -0.2000  1.4181
12230TIP3    H258182   0.877   1.741   0.614  0.6899 -0.0964 -0.0062
12231TIP3   OH258183   1.323   4.323   5.147 -0.0863  0.5710  0.0836
12231TIP3    H158184   1.317   4.411   5.109 -1.2030  0.1772 -0.7197
12231TIP3    H258185   1.296   4.265   5.076  1.3949 -0.5031  0.3610
12232TIP3   OH258186   4.539   3.519  15.738 -0.0595 -0.1913  0.5813
12232TIP3    H158187   4.531   3.548  15.648 -2.0651 -0.3886  0.6591
12232TIP3    H258188   4.588   3.436  15.733 -1.2909 -0.8831 -0.4777
12233TIP3   OH258189   3.323   1.941  16.753  0.3715  0.4350 -0.2260
12233TIP3    H158190   3.313   1.848  16.771  0.7786  0.0374 -1.8494
12233TIP3    H258191   3.287   1.985  16.830 -3.1470 -1.0011 -0.8587
12234TIP3   OH258192   6.770   3.622   1.774 -0.1431  0.1728 -0.0579
12234TIP3    H158193   6.727   3.645   1.692  1.0340  1.2485 -0.4153
12234TIP3    H258194   6.705   3.638   1.842 -0.0883  2.5477 -0.4953
12235TIP3   OH258195   1.388   5.949   4.194  0.3059 -0.4198 -0.4630
12235TIP3    H158196   1.365   5.859   4.172 -2.4165 -0.0845  0.6109
12235TIP3    H258197   1.454   5.942   4.262  1.6385 -1.5431 -1.8140
12236TIP3   OH258198   1.110   2.834   2.864 -0.0825  0.4687  0.8291
12236TIP3    H158199   1.158   2.770   2.812 -2.5054 -1.2523  0.5839
12236TIP3    H258200   1.162   2.844   2.944  0.3724 -1.8496  0.8821
12237TIP3   OH258201   3.377   4.468  15.663  0.3631 -0.3682  0.0075
12237TIP3    H158202   3.434   4.397  15.632  3.8639  1.7879  0.9359
12237TIP3    H258203   3.351   4.442  15.751 -1.4386 -2.0086 -0.9209
12238TIP3   OH258204   6.544   3.529  16.125 -0.1003  0.8694  0.2687
12238TIP3    H158205   6.516   3.529  16.033  2.3220 -2.2824 -0.6553
12238TIP3    H258206   6.637   3.554  16.121 -0.1176  1.2522  1.9345
12239TIP3   OH258207   1.330   2.043  12.654 -0.3575 -0.8308  0.2034
12239TIP3    H158208   1.266   2.086  12.598  0.3463  0.1026  0.0848
12239TIP3    H258209   1.319   1.950  12.637 -0.0585 -0.5610 -1.6020
12240TIP3   OH258210   3.980   6.630  12.071 -0.5558  0.1858 -0.2471
12240TIP3    H158211   4.005   6.537  12.073  0.8678  0.5443  0.3153
12240TIP3    H258212   3.936   6.644  12.155  0.7538  0.3735  0.4432
12241TIP3   OH258213   6.559   6.074   1.923 -0.0655 -0.0047  0.4629
12241TIP3    H158214   6.609   6.103   1.999 -0.1456  1.5976 -0.0466
12241TIP3    H258215   6.542   5.981   1.939  1.4986 -0.1576  1.5049
12242TIP3   OH258216   3.555   1.459  12.772 -0.3583 -0.2876 -0.1232
12242TIP3    H158217   3.561   1.427  12.682 -1.1653 -1.7523  0.3136
12242TIP3    H258218   3.633   1.424  12.815 -0.1802  0.0707 -0.1560
12243TIP3   OH258219   5.778   1.354   0.931 -0.1126  0.1272  0.4961
12243TIP3    H158220   5.784   1.265   0.895  1.4452  0.4059 -0.0227
12243TIP3    H258221   5.694   1.386   0.900 -0.6078 -1.0910  0.5098
12244TIP3   OH258222   0.269   3.513   5.388 -0.2836 -0.2012  0.2825
12244TIP3    H158223   0.310   3.586   5.435 -0.1725  0.1714 -0.3912
12244TIP3    H258224   0.183   3.547   5.361 -0.2455 -0.3362 -0.0033
12245TIP3   OH258225   2.510   6.076   5.727  0.0304 -0.1625 -0.1947
12245TIP3    H158226   2.604   6.092   5.728 -0.1340  1.1387 -1.5234
12245TIP3    H258227   2.478   6.124   5.650 -1.2836 -3.1407 -1.6792
12246TIP3   OH258228   0.490   1.422   3.989 -0.4508 -0.0276 -0.7367
12246TIP3    H158229   0.583   1.447   3.986 -0.7438  1.0077 -2.4304
12246TIP3    H258230   0.491   1.327   3.997  0.7890 -0.1228 -1.6507
12247TIP3   OH258231   1.032   5.766   5.982 -0.5686 -0.1783  0.1103
12247TIP3    H158232   1.016   5.675   5.957 -1.2804  0.2356 -1.0083
12247TIP3    H258233   1.044   5.813   5.899  1.7407  0.4299  0.7133
12248TIP3   OH258234   2.514   0.918   5.149 -0.1922  0.2876  0.6031
12248TIP3    H158235   2.437   0.878   5.109  1.6261 -3.0258  0.1625
12248TIP3    H258236   2.497   0.913   5.243 -0.5262 -0.3630  0.5082
12249TIP3   OH258237   3.727   3.961  15.729 -0.0867 -0.6495  0.4182
12249TIP3    H158238   3.662   4.027  15.705 -0.7173 -1.0442  0.9901
12249TIP3    H258239   3.734   3.906  15.652 -0.3694 -0.5496  0.3170
12250TIP3   OH258240   4.569   2.304  14.894  0.5756 -0.0115 -0.1599
12250TIP3    H158241   4.575   2.391  14.933  2.1406 -0.3837  0.4780
12250TIP3    H258242   4.618   2.311  14.813 -0.3396  0.0039 -0.7318
12251TIP3   OH258243   2.829   4.815   2.966  0.5067  0.1836  0.1383
12251TIP3    H158244   2.748   4.863   2.951 -0.2657 -0.7959  1.0242
12251TIP3    H258245   2.897   4.869   2.926 -0.3850  1.7567  0.6816
12252TIP3   OH258246   0.878   3.736  16.285  0.0460 -0.5021 -0.1939
12252TIP3    H158247   0.952   3.681  16.313 -0.0734 -1.2192 -1.2358
12252TIP3    H258248   0.918   3.821  16.266  0.2191 -0.1645  1.5247
12253TIP3   OH258249   1.702   4.464   0.664 -0.2384 -0.1056  0.2621
12253TIP3    H158250   1.676   4.451   0.573 -1.2750  0.0704  0.5156
12253TIP3    H258251   1.685   4.380   0.706  1.2604 -0.5199  0.0776
12254TIP3   OH258252   3.112   5.547   3.270  0.3660 -0.5044  0.2737
12254TIP3    H158253   3.109   5.554   3.365  0.9410 -0.5135  0.2980
12254TIP3    H258254   3.203   5.525   3.250 -0.0380 -1.8420 -0.1940
12255TIP3   OH258255   2.505   4.011   2.450  0.2753  0.2214 -0.3691
12255TIP3    H158256   2.567   4.053   2.509 -1.2401 -0.4053  1.8135
12255TIP3    H258257   2.432   4.073   2.444  0.8235  0.7248 -2.4714
12256TIP3   OH258258   1.121   1.505   0.356  0.2912  0.2051 -0.3367
12256TIP3    H158259   1.127   1.450   0.435  1.0159  1.7852  0.7633
12256TIP3    H258260   1.153   1.591   0.384 -1.9854  1.5935 -1.6307
12257TIP3   OH258261   6.653   1.768  11.210  0.1915 -0.8773  0.2203
12257TIP3    H158262   6.700   1.698  11.165  0.8963  0.0498 -0.5222
12257TIP3    H258263   6.719   1.837  11.222 -0.8099  0.1882 -0.2576
12258TIP3   OH258264   0.770   2.767   3.258 -0.3058 -0.1792 -0.1390
12258TIP3    H158265   0.804   2.678   3.271 -0.2810 -0.3826 -1.3923
12258TIP3    H258266   0.715   2.759   3.180  0.4601  1.1007 -0.8320
12259TIP3   OH258267   4.241   2.536   2.920 -0.3888  0.1291 -0.0084
12259TIP3    H158268   4.335   2.516   2.923 -0.0435  1.7661  1.3893
12259TIP3    H258269   4.234   2.624   2.957 -2.5172 -0.1035  0.2334
12260TIP3   OH258270   3.548   3.256  12.781 -0.1266  0.0644 -0.5408
12260TIP3    H158271   3.559   3.344  12.815 -0.3597  0.1831 -0.7687
12260TIP3    H258272   3.621   3.206  12.819 -1.6381 -0.3941  2.0099
12261TIP3   OH258273   5.936   0.845  12.894  0.0102  0.0416  0.1763
12261TIP3    H158274   5.975   0.763  12.863  0.1072 -0.2911  1.1582
12261TIP3    H258275   6.004   0.885  12.949 -0.9311 -0.4490  1.7528
12262TIP3   OH258276   3.992   1.628   2.146  0.0791 -0.0978  0.0896
12262TIP3    H158277   3.962   1.713   2.115  0.0920 -0.6845 -1.6122
12262TIP3    H258278   3.950   1.564   2.089  0.0938 -1.2601  1.3115
12263TIP3   OH258279   2.225   5.281  12.979  0.1615  0.0086  0.1851
12263TIP3    H158280   2.225   5.374  13.001  0.9874  0.1638 -0.4448
12263TIP3    H258281   2.274   5.240  13.051  1.5948  0.3366 -0.5654
12264TIP3   OH258282   1.735   3.314  14.431 -0.1124  0.3179 -0.2872
12264TIP3    H158283   1.726   3.254  14.505 -0.9347 -0.5264 -1.0365
12264TIP3    H258284   1.818   3.358  14.446  0.9242 -1.5785 -0.0734
12265TIP3   OH258285   4.838   1.779   4.468 -0.0921 -0.3467  0.3181
12265TIP3    H158286   4.913   1.835   4.450 -0.7028  0.6987  0.9303
12265TIP3    H258287   4.866   1.692   4.441  1.6370 -0.1377  1.3051
12266TIP3   OH258288   6.559   1.507  12.382 -0.3216  1.0892  0.0310
12266TIP3    H158289   6.505   1.552  12.447  0.4791  1.3836  0.4966
12266TIP3    H258290   6.526   1.539  12.298 -1.5125  0.5345  0.2711
12267TIP3   OH258291   0.795   3.032  16.105  0.0967  0.0709  0.4318
12267TIP3    H158292   0.761   3.036  16.016 -0.9615 -3.0766  0.5513
12267TIP3    H258293   0.739   3.093  16.154 -0.3097  0.7071 -0.7835
12268TIP3   OH258294   2.708   5.159   5.928  0.4628  0.1836  0.6500
12268TIP3    H158295   2.695   5.215   6.004  0.0990  1.9110 -0.6199
12268TIP3    H258296   2.626   5.164   5.879  0.1608 -2.0445  0.8146
12269TIP3   OH258297   4.130   1.761  15.479 -0.1347  0.2740 -0.3092
12269TIP3    H158298   4.080   1.838  15.452 -0.6221 -0.5564 -1.8744
12269TIP3    H258299   4.067   1.706  15.525 -0.0638  0.2917 -0.1898
12270TIP3   OH258300   2.620   4.090  11.740 -0.5724  0.3753  0.0064
12270TIP3    H158301   2.649   4.165  11.688  0.3833  0.3681  0.5186
12270TIP3    H258302   2.685   4.082  11.810 -1.5458  0.0504  0.9009
12271TIP3   OH258303   4.356   5.800   5.417  0.7827 -0.7108  0.2905
12271TIP3    H158304   4.382   5.772   5.505  0.6074  0.7411  0.8266
12271TIP3    H258305   4.376   5.725   5.362  0.4433 -1.8506  1.6341
12272TIP3   OH258306   0.203   0.227  11.568  0.0701 -0.0364  0.4579
12272TIP3    H158307   0.156   0.159  11.617  0.4395  0.1536  1.0865
12272TIP3    H258308   0.249   0.179  11.499 -0.6308 -0.2827  0.1499
12273TIP3   OH258309   1.107   5.287   5.087 -0.7141 -0.1160 -0.3082
12273TIP3    H158310   1.019   5.263   5.057 -1.8171  0.0783  2.4630
12273TIP3    H258311   1.108   5.383   5.081 -0.6832 -0.1196 -0.3577
12274TIP3   OH258312   1.269   0.682   2.523  0.1761 -0.4743 -0.8834
12274TIP3    H158313   1.173   0.679   2.516  0.0204  0.2621  0.5278
12274TIP3    H258314   1.296   0.745   2.456 -0.7480  2.5001  1.3132
12275TIP3   OH258315   2.197   5.976  14.130  0.8560 -0.7159  0.4615
12275TIP3    H158316   2.199   6.059  14.177  1.5217 -0.5148  0.0909
12275TIP3    H258317   2.212   5.999  14.039  0.4809 -1.1905  0.2770
12276TIP3   OH258318   6.397   5.331  11.493  0.3166 -0.3327 -0.6660
12276TIP3    H158319   6.394   5.423  11.468 -1.2719 -0.2500 -0.3207
12276TIP3    H258320   6.320   5.292  11.451  0.2446 -1.2062  0.2246
12277TIP3   OH258321   1.823   6.441  11.831  0.0988 -0.0805 -0.3564
12277TIP3    H158322   1.741   6.395  11.850  0.2519 -0.7582 -1.2678
12277TIP3    H258323   1.891   6.374  11.843  0.3524 -0.0189 -1.4003
12278TIP3   OH258324   6.616   6.364   3.334 -0.0628  0.1380  0.4770
12278TIP3    H158325   6.646   6.287   3.382 -0.1059 -0.1673  0.0225
12278TIP3    H258326   6.576   6.419   3.400  2.6549  1.1894  1.3780
12279TIP3   OH258327   0.751   5.292   1.550  0.2302 -0.0520 -0.1774
12279TIP3    H158328   0.823   5.352   1.528 -0.0708  1.0807  1.6554
12279TIP3    H258329   0.794   5.211   1.578  0.8507  0.6536  1.0153
12280TIP3   OH258330   3.403   5.001   4.634  0.2905  0.3597 -0.2863
12280TIP3    H158331   3.372   5.084   4.670  1.2906 -0.2261  2.1535
12280TIP3    H258332   3.432   5.022   4.545 -0.4717  2.3646 -0.0982
12281TIP3   OH258333   3.940   1.637  14.442 -0.1041  0.7036 -0.0330
12281TIP3    H158334   4.024   1.676  14.466 -0.0179  0.0350  0.8088
12281TIP3    H258335   3.963   1.557  14.395 -0.2348 -0.0314  1.1025
12282TIP3   OH258336   3.463   1.926  15.980  0.1577 -0.0463 -0.5209
12282TIP3    H158337   3.402   1.877  16.035 -2.5911  2.3164 -1.2615
12282TIP3    H258338   3.519   1.858  15.941 -2.5227 -2.5165 -0.4297
12283TIP3   OH258339   3.497   2.889  11.570 -0.5573  0.5150  0.2377
12283TIP3    H158340   3.475   2.916  11.659 -0.2892  2.0283 -0.1246
12283TIP3    H258341   3.413   2.871  11.528 -0.7787  1.2695  0.3561
12284TIP3   OH258342   3.989   5.715   0.530 -0.6166  0.0218 -0.0906
12284TIP3    H158343   3.964   5.729   0.621  1.0684  1.4693  0.2116
12284TIP3    H258344   3.923   5.655   0.496 -0.3294 -2.0125  2.5600
12285TIP3   OH258345   6.676   0.862   3.716 -0.3519  0.3671 -0.7081
12285TIP3    H158346   6.709   0.919   3.786  3.2748 -1.9897 -0.2182
12285TIP3    H258347   6.711   0.900   3.636 -1.1855  0.8883 -0.8372
12286TIP3   OH258348   2.875   5.363   0.586 -0.0618  0.0157  0.2961
12286TIP3    H158349   2.854   5.294   0.524 -0.2583 -0.8221  1.2577
12286TIP3    H258350   2.795   5.374   0.637 -0.0177  0.9378  0.1800
12287TIP3   OH258351   3.766   2.089   5.686  0.5464 -0.4660  0.2758
12287TIP3    H158352   3.807   2.057   5.766 -0.3733 -0.0382  0.9298
12287TIP3    H258353   3.672   2.077   5.700  0.2033  1.7332  0.2313
12288TIP3   OH258354   1.349   3.440   2.783 -0.5468 -0.2505 -0.2233
12288TIP3    H158355   1.260   3.454   2.751 -1.4088 -0.6469  1.8632
12288TIP3    H258356   1.388   3.528   2.783 -0.4664 -0.2331 -2.2860
12289TIP3   OH258357   6.409   0.675   1.640 -0.0366  0.3905 -0.1431
12289TIP3    H158358   6.489   0.693   1.691 -0.5495  1.0907  0.4374
12289TIP3    H258359   6.408   0.580   1.630  1.3068  0.4150 -0.8818
12290TIP3   OH258360   3.674   2.832  15.190 -0.2061  0.1023  0.4661
12290TIP3    H158361   3.610   2.823  15.260 -0.9041  1.0186 -0.0225
12290TIP3    H258362   3.634   2.787  15.115  0.5785 -0.9604  0.6599
12291TIP3   OH258363   6.745   6.638  13.877 -0.1319 -0.0169  0.0123
12291TIP3    H158364   6.658   6.678  13.875 -0.6783 -1.1800 -0.8211
12291TIP3    H258365   6.757   6.602  13.789  0.9771 -0.3336  0.2750
12292TIP3   OH258366   1.682   0.331   5.797  0.0015  0.3580 -0.3695
12292TIP3    H158367   1.622   0.279   5.851 -0.6822  1.3828 -0.1293
12292TIP3    H258368   1.655   0.314   5.707 -0.0403  0.0879 -0.3071
12293TIP3   OH258369   1.193   5.757  12.593  0.7998  0.1798  0.2276
12293TIP3    H158370   1.243   5.686  12.633  0.8562 -0.8838 -1.6253
12293TIP3    H258371   1.102   5.737  12.616  0.9038  0.0722  0.5521
12294TIP3   OH258372   0.745   4.550   1.054  0.5304  0.3458  0.7204
12294TIP3    H158373   0.781   4.638   1.066 -0.6426  1.0449 -0.5782
12294TIP3    H258374   0.660   4.552   1.098  0.4626 -0.1149  0.6190
12295TIP3   OH258375   1.369   0.464  12.687  0.2474  0.5884 -0.1738
12295TIP3    H158376   1.398   0.519  12.760 -0.7523  0.8811  0.0187
12295TIP3    H258377   1.447   0.455  12.632  0.8335  0.9348  0.5697
12296TIP3   OH258378   4.382   5.018  14.752  0.1327  0.2178  0.1279
12296TIP3    H158379   4.385   4.932  14.710 -3.1344  0.0461  0.0071
12296TIP3    H258380   4.468   5.057  14.733  1.9392 -3.1316  0.6241
12297TIP3   OH258381   4.593   4.445  16.601 -0.6658 -0.3707  0.1063
12297TIP3    H158382   4.631   4.423  16.686  0.6175 -3.3375 -1.1095
12297TIP3    H258383   4.498   4.441  16.616 -0.5165  0.9983  1.7512
12298TIP3   OH258384   2.908   1.661  14.479 -0.5726  0.4663  0.4885
12298TIP3    H158385   2.945   1.573  14.478  3.4060  1.9296 -0.8410
12298TIP3    H258386   2.937   1.698  14.563 -0.2048  1.1849  0.0600
12299TIP3   OH258387   3.660   1.462   5.750 -0.2469 -0.1159 -0.1913
12299TIP3    H158388   3.689   1.372   5.736  1.8363  0.6261 -1.0009
12299TIP3    H258389   3.689   1.483   5.839  1.0952  0.3723 -0.7211
12300TIP3   OH258390   6.353   2.663   3.012  0.5884  0.0862  1.0902
12300TIP3    H158391   6.268   2.697   3.042  0.6552  1.1353  0.1735
12300TIP3    H258392   6.336   2.630   2.924  1.4405  1.9391  0.1606
12301TIP3   OH258393   1.355   5.878  12.954 -0.6290 -0.2791  0.0923
12301TIP3    H158394   1.443   5.895  12.920 -0.6314  1.1587  0.7367
12301TIP3    H258395   1.350   5.783  12.959  1.5009 -0.3968  1.5276
12302TIP3   OH258396   3.704   3.393   2.322 -1.0169 -0.4744 -0.3983
12302TIP3    H158397   3.772   3.342   2.365 -1.2380 -0.1395  0.3514
12302TIP3    H258398   3.752   3.454   2.265 -0.5597  1.1816  1.6572
12303TIP3   OH258399   3.769   5.209  16.011  0.0492  0.2314 -0.0299
12303TIP3    H158400   3.701   5.145  16.029  0.8171 -0.6310 -0.1355
12303TIP3    H258401   3.848   5.157  15.994  0.7676  1.2083  0.2129
12304TIP3   OH258402   2.779   3.726  13.049 -0.1575  0.3346  0.1055
12304TIP3    H158403   2.834   3.679  13.111  1.2924  1.9501  0.1369
12304TIP3    H258404   2.836   3.741  12.973 -0.4447  2.2225  0.2042
12305TIP3   OH258405   2.624   3.865  15.565 -0.4222  0.2598  0.4243
12305TIP3    H158406   2.640   3.801  15.635 -0.8322  0.8044  1.0302
12305TIP3    H258407   2.649   3.820  15.485  0.2375 -0.3151  0.9403
12306TIP3   OH258408   3.379   1.062   5.218  0.3510  0.0462  0.4693
12306TIP3    H158409   3.290   1.045   5.251  0.7227 -2.7653  0.3209
12306TIP3    H258410   3.366   1.122   5.145 -1.5204 -0.6137  0.1793
12307TIP3   OH258411   4.430   2.385   5.978 -0.5906  0.2229  0.3578
12307TIP3    H158412   4.495   2.368   6.046 -0.2752 -2.1820 -0.4510
12307TIP3    H258413   4.438   2.311   5.918 -2.7388  0.8654 -0.8264
12308TIP3   OH258414   1.238   0.877  16.659 -0.0434 -0.8485  1.1139
12308TIP3    H158415   1.236   0.973  16.664  0.1427 -0.8744  1.9284
12308TIP3    H258416   1.166   0.849  16.716  0.2620 -1.1979  1.3301
12309TIP3   OH258417   4.925   6.127  14.868 -0.4336  0.1904  0.5855
12309TIP3    H158418   4.869   6.098  14.796  0.9443 -0.0648 -0.4306
12309TIP3    H258419   4.920   6.056  14.932 -2.7279  1.0069  1.4225
12310TIP3   OH258420   0.167   6.378   3.298 -0.0099  0.3654 -0.0301
12310TIP3    H158421   0.106   6.418   3.235 -0.4891 -0.2846  0.0109
12310TIP3    H258422   0.218   6.452   3.331  0.2459  0.7287 -1.1714
12311TIP3   OH258423   1.238   0.859   1.263  0.4087  0.1694  0.1429
12311TIP3    H158424   1.216   0.856   1.170  2.4087  0.5367 -0.3903
12311TIP3    H258425   1.233   0.768   1.292 -1.9790  0.2374  0.1898
12312TIP3   OH258426   4.150   2.526  15.378 -0.2389  0.6780  0.2224
12312TIP3    H158427   4.125   2.616  15.357 -1.0299  0.3924 -0.0719
12312TIP3    H258428   4.143   2.521  15.474 -0.1474  0.9394  0.2435
12313TIP3   OH258429   5.725   3.903   5.721  0.3626 -0.3641 -1.2939
12313TIP3    H158430   5.786   3.844   5.677 -0.4647 -3.1148  0.9036
12313TIP3    H258431   5.741   3.888   5.814 -1.7260  0.9468 -0.6573
12314TIP3   OH258432   2.626   2.155  13.740 -0.0658  0.0846  0.1395
12314TIP3    H158433   2.706   2.173  13.789  0.7642 -3.3366  0.3422
12314TIP3    H258434   2.555   2.177  13.800  0.8332 -0.2413  1.3579
12315TIP3   OH258435   3.810   2.987  13.860  0.5009  0.1413  0.0454
12315TIP3    H158436   3.897   3.027  13.864 -0.0507  1.3401  0.4636
12315TIP3    H258437   3.825   2.902  13.817  1.6799  0.8847 -1.0936
12316TIP3   OH258438   3.974   0.117   1.014 -0.2459 -0.3287 -1.1138
12316TIP3    H158439   3.927   0.068   0.947 -1.1852  1.4051 -1.7987
12316TIP3    H258440   3.960   0.209   0.991 -0.1767  0.3268  1.1700
12317TIP3   OH258441   1.299   6.053  16.361  0.0805 -0.4214 -0.2480
12317TIP3    H158442   1.270   5.963  16.377  0.4504 -0.6519 -0.8266
12317TIP3    H258443   1.297   6.095  16.447 -1.2376 -0.6436 -0.1605
12318TIP3   OH258444   3.474   6.092  11.592 -0.0438  0.0928 -0.1932
12318TIP3    H158445   3.387   6.108  11.628  0.3736  0.9114  0.5055
12318TIP3    H258446   3.467   6.116  11.500 -0.3969  0.7958  0.0093
12319TIP3   OH258447   1.192   1.350  10.777  0.2234 -0.4085 -0.5816
12319TIP3    H158448   1.282   1.326  10.756 -0.3082 -3.4748  0.1467
12319TIP3    H258449   1.168   1.415  10.711  2.9460  0.5936 -0.7223
12320TIP3   OH258450   6.173   2.855  15.398 -0.1000  0.1387  0.2132
12320TIP3    H158451   6.121   2.784  15.436  1.4938 -0.4927  1.3464
12320TIP3    H258452   6.167   2.926  15.462 -1.4441  0.9521 -0.7742
12321TIP3   OH258453   3.995   1.631  14.001  0.2088 -0.5586 -0.0227
12321TIP3    H158454   3.934   1.596  13.936  0.9451  0.2066 -1.1703
12321TIP3    H258455   4.082   1.618  13.962  0.5413  3.4949 -1.1708
12322TIP3   OH258456   0.757   0.063  14.355  0.3356 -0.6239 -0.4537
12322TIP3    H158457   0.843   0.022  14.356  1.1101  0.9513 -0.0567
12322TIP3    H258458   0.735   0.077  14.447  0.6526  0.9462 -0.5903
12323TIP3   OH258459   3.333   1.491   1.556  0.0821  0.3188  0.1874
12323TIP3    H158460   3.346   1.396   1.550 -0.4883  0.2707 -0.3291
12323TIP3    H258461   3.309   1.505   1.648 -0.1246 -0.0760  0.1968
12324TIP3   OH258462   1.223   0.091  16.358 -0.5770  0.2868  0.5008
12324TIP3    H158463   1.232   0.095  16.453  1.6424 -2.2635  0.5277
12324TIP3    H258464   1.190   0.003  16.341  1.6105 -0.3153 -1.1292
12325TIP3   OH258465   1.145   2.951  15.658  0.0696 -0.1951 -0.1032
12325TIP3    H158466   1.097   2.964  15.576 -2.6367 -1.6611  1.1410
12325TIP3    H258467   1.163   2.857  15.661  1.2395  0.0262  0.4486
12326TIP3   OH258468   6.499   2.714  14.044 -0.1518  0.4238  0.3208
12326TIP3    H158469   6.439   2.763  13.988  1.6951 -0.1654 -2.3337
12326TIP3    H258470   6.479   2.745  14.132 -0.6576  4.2487 -0.9589
12327TIP3   OH258471   4.046   0.516  13.571  0.1168 -0.0016  0.6195
12327TIP3    H158472   3.976   0.571  13.536  0.0822 -0.3816  0.0753
12327TIP3    H258473   4.014   0.487  13.656 -0.6686 -0.6676  0.1225
12328TIP3   OH258474   2.465   6.688  16.104  0.0964 -0.0124 -0.4105
12328TIP3    H158475   2.512   6.722  16.028  0.3298  0.1858 -0.1821
12328TIP3    H258476   2.527   6.630  16.148  0.7417  1.5020  0.7963
12329TIP3   OH258477   0.004   6.824   5.057  0.2261  0.4646  0.5591
12329TIP3    H158478   0.022   6.799   4.966 -2.0569  1.8673 -0.3500
12329TIP3    H258479   0.090   6.851   5.091  1.1946 -0.4218 -1.0364
12330TIP3   OH258480   3.412   3.450   3.446 -0.5002 -0.0579  0.3059
12330TIP3    H158481   3.494   3.401   3.440  0.2378  1.2627 -0.9842
12330TIP3    H258482   3.362   3.421   3.370 -0.3847  0.5904 -0.0226
12331TIP3   OH258483   1.106   4.181  16.248  0.1042  0.3621 -0.7606
12331TIP3    H158484   1.130   4.183  16.340  0.0652  1.0286 -0.7623
12331TIP3    H258485   1.113   4.272  16.219  0.5504  0.0997 -1.5249
12332TIP3   OH258486   0.907   4.856  14.756  0.0098  0.6959 -0.5955
12332TIP3    H158487   0.890   4.786  14.693 -0.3786 -0.6668  0.9393
12332TIP3    H258488   0.825   4.904  14.763 -0.3974 -0.0485 -0.1001
12333TIP3   OH258489   6.496   2.905  16.450 -0.0444  0.4141  0.0634
12333TIP3    H158490   6.472   2.880  16.539 -2.5203  0.2273 -0.5964
12333TIP3    H258491   6.414   2.906  16.401  1.0410  1.8797 -1.9193
12334TIP3   OH258492   2.170   2.597   5.520 -0.6711  0.4249 -0.3505
12334TIP3    H158493   2.228   2.527   5.491  1.7019  1.2893  1.9475
12334TIP3    H258494   2.099   2.551   5.566 -0.2477 -0.5333 -0.6242
12335TIP3   OH258495   3.301   2.987   1.794 -0.2667  0.0783  0.0527
12335TIP3    H158496   3.271   2.957   1.708 -0.0405 -1.2559  0.4241
12335TIP3    H258497   3.227   3.038   1.828 -0.0611  1.2985 -1.2394
12336TIP3   OH258498   3.196   2.536   0.668  0.3159  0.3200  0.4616
12336TIP3    H158499   3.241   2.615   0.638  0.3326  1.2001  2.6299
12336TIP3    H258500   3.266   2.480   0.703  0.0601  0.4121  1.1391
12337TIP3   OH258501   5.706   2.632   1.189 -0.4040 -0.0804  0.2972
12337TIP3    H158502   5.718   2.694   1.118  0.9403  0.6453  1.1184
12337TIP3    H258503   5.650   2.678   1.252 -0.8636 -0.3833  0.1136
12338TIP3   OH258504   5.908   3.407   1.381 -0.4689 -0.0573  0.2993
12338TIP3    H158505   5.885   3.404   1.288 -1.8286  0.5825  0.6074
12338TIP3    H258506   5.991   3.358   1.386  0.7714  1.6694 -1.5735
12339TIP3   OH258507   1.649   6.082   4.722 -0.0126  0.1272 -0.1763
12339TIP3    H158508   1.566   6.043   4.749 -0.3781  0.9207 -0.1295
12339TIP3    H258509   1.704   6.007   4.698 -0.7428 -0.4045 -0.2230
12340TIP3   OH258510   4.997   5.806  12.409 -0.0802  0.6335 -0.4678
12340TIP3    H158511   5.044   5.793  12.326  0.1329 -1.5581 -0.0640
12340TIP3    H258512   5.066   5.811  12.475 -0.2797  1.6646 -0.3242
12341TIP3   OH258513   3.953   5.889   0.003  0.1944 -0.6607  0.3581
12341TIP3    H158514   3.934   5.796   0.017 -1.7525 -0.3329  0.1057
12341TIP3    H258515   3.870   5.933   0.020  1.1849  1.0883  0.8341
12342TIP3   OH258516   2.132   4.745  16.964 -0.2214  0.3181 -0.3328
12342TIP3    H158517   2.158   4.833  16.991  1.0804  0.0626 -0.7209
12342TIP3    H258518   2.145   4.691  17.042  0.4347  0.1858 -0.5342
12343TIP3   OH258519   2.116   0.321  16.033  0.4225  0.5268 -0.2859
12343TIP3    H158520   2.066   0.262  15.977  0.1362  0.7604 -0.2763
12343TIP3    H258521   2.106   0.286  16.121  2.4115 -0.9437 -0.5786
12344TIP3   OH258522   0.439   2.338  17.139  0.5809  0.0065 -0.4136
12344TIP3    H158523   0.408   2.420  17.101  1.5118  1.2368  1.3434
12344TIP3    H258524   0.514   2.363  17.192  2.1745 -2.2988 -1.4144
12345TIP3   OH258525   0.945   0.562   4.022  0.3033  0.8235  0.0919
12345TIP3    H158526   1.000   0.625   3.974 -0.0344 -0.9045 -2.8412
12345TIP3    H258527   1.007   0.502   4.063  0.6402  0.4276 -0.9697
12346TIP3   OH258528   5.238   3.720  11.832  0.3936 -0.1793 -0.1166
12346TIP3    H158529   5.201   3.809  11.830  2.1593  0.5973 -0.9094
12346TIP3    H258530   5.186   3.672  11.767 -0.1712  0.4630 -0.1567
12347TIP3   OH258531   6.138   3.247   2.963  0.4298  0.1124 -0.3252
12347TIP3    H158532   6.121   3.220   2.873 -1.5233  0.8626 -0.2416
12347TIP3    H258533   6.073   3.316   2.980 -2.2882 -2.8933  2.9847
12348TIP3   OH258534   5.514   3.918   2.295  0.1973 -0.2581 -0.1997
12348TIP3    H158535   5.475   3.850   2.349  2.3505 -0.3961  1.2991
12348TIP3    H258536   5.521   3.879   2.208 -2.8816 -0.2019 -0.5885
12349TIP3   OH258537   5.803   3.773   4.075  0.3771 -0.1121  0.6044
12349TIP3    H158538   5.719   3.808   4.047  0.1360 -0.7014  0.5950
12349TIP3    H258539   5.783   3.690   4.118  1.1560 -1.5385 -1.6226
12350TIP3   OH258540   0.643   3.108   4.765 -0.2947 -0.9862 -0.9343
12350TIP3    H158541   0.580   3.110   4.837 -0.1262 -3.2663 -0.6230
12350TIP3    H258542   0.701   3.182   4.781 -1.2000 -0.5214  0.3796
12351TIP3   OH258543   4.330   1.302   2.504  0.3712 -0.5359 -0.7157
12351TIP3    H158544   4.357   1.243   2.574  0.6032  1.5830  1.0845
12351TIP3    H258545   4.403   1.363   2.494  0.5507 -1.0428 -3.1836
12352TIP3   OH258546   0.267   1.196   0.418 -0.7804 -0.3132  0.2689
12352TIP3    H158547   0.311   1.163   0.339  0.8254  1.1884  0.4743
12352TIP3    H258548   0.201   1.257   0.384 -0.5484 -0.1755  0.0631
12353TIP3   OH258549   2.262   1.740  16.805  0.0204  0.5259  0.2794
12353TIP3    H158550   2.319   1.790  16.864  0.9677  2.8094 -2.2967
12353TIP3    H258551   2.304   1.749  16.719 -2.4055 -0.7067 -1.1429
12354TIP3   OH258552   3.397   1.857   4.235 -0.0389 -0.3119 -0.6015
12354TIP3    H158553   3.329   1.804   4.193  1.3498 -1.7349 -1.1720
12354TIP3    H258554   3.464   1.793   4.260  1.6674  1.1623 -1.2315
12355TIP3   OH258555   3.866   4.948   2.057  0.8129  0.2208  0.0427
12355TIP3    H158556   3.882   4.854   2.052  0.5937  0.2478 -1.8233
12355TIP3    H258557   3.772   4.958   2.045  0.7299  0.6621  0.9332
12356TIP3   OH258558   1.967   4.492   0.678 -0.9435  0.4104  0.1251
12356TIP3    H158559   1.875   4.472   0.693 -0.4024 -0.5822  2.4221
12356TIP3    H258560   1.998   4.423   0.620 -0.8331 -1.4214  2.2587
12357TIP3   OH258561   3.001   3.704  11.688  0.2692  0.3606 -0.0231
12357TIP3    H158562   2.949   3.755  11.626  1.4404  0.2308 -1.1516
12357TIP3    H258563   2.942   3.634  11.717 -0.5347  0.8631 -0.4129
12358TIP3   OH258564   4.081   5.320   6.134 -0.2786 -0.3222 -0.3670
12358TIP3    H158565   4.109   5.242   6.181 -1.7617 -2.4756 -2.8010
12358TIP3    H258566   3.991   5.335   6.163  0.2485  1.0800  0.6979
12359TIP3   OH258567   5.577   6.728  13.029  0.2738 -0.0784 -0.5913
12359TIP3    H158568   5.606   6.695  13.114  2.6978 -0.1529 -1.3628
12359TIP3    H258569   5.654   6.774  12.994 -0.6483 -0.0658 -2.7436
12360TIP3   OH258570   0.920   1.935   1.163  0.0855 -0.0092  0.3455
12360TIP3    H158571   0.996   1.914   1.217 -0.9276 -1.5492  1.2500
12360TIP3    H258572   0.850   1.953   1.226 -1.3383 -2.6275 -0.3361
12361TIP3   OH258573   0.746   5.152   2.617  0.4826 -0.9785 -0.0547
12361TIP3    H158574   0.680   5.159   2.548 -0.9077  0.3199  1.3353
12361TIP3    H258575   0.787   5.238   2.620  0.4438 -0.9784  0.7872
12362TIP3   OH258576   6.220   5.783   2.486  0.0169  0.3498 -0.2969
12362TIP3    H158577   6.224   5.825   2.400  0.5570  0.2352 -0.3269
12362TIP3    H258578   6.243   5.853   2.548 -0.1044  0.3626 -0.2653
12363TIP3   OH258579   2.585   6.553   1.188 -0.3603  0.3396  0.0318
12363TIP3    H158580   2.524   6.614   1.229 -1.4015 -0.3796 -0.4085
12363TIP3    H258581   2.664   6.557   1.243 -0.2769  2.3033 -0.1872
12364TIP3   OH258582   0.810   2.704   4.898  0.1138  0.2906 -0.5097
12364TIP3    H158583   0.802   2.794   4.869 -1.0921  0.9029  1.5280
12364TIP3    H258584   0.750   2.697   4.973  2.2687 -1.4162  1.1818
12365TIP3   OH258585   4.943   1.276  12.412  0.6091  0.3034  0.0625
12365TIP3    H158586   4.927   1.362  12.375  0.2795  1.1163  1.9660
12365TIP3    H258587   5.015   1.289  12.474  0.2021 -0.6535  0.7729
12366TIP3   OH258588   5.111   4.497  11.663  0.0566 -0.4334  0.3108
12366TIP3    H158589   5.108   4.562  11.592 -0.5979 -0.6213  0.1546
12366TIP3    H258590   5.094   4.413  11.620  0.3297 -0.6342  0.5926
12367TIP3   OH258591   2.089   6.379   3.722 -0.4918 -0.5370  0.1067
12367TIP3    H158592   2.089   6.470   3.752 -1.4985 -0.2969 -0.5600
12367TIP3    H258593   2.082   6.386   3.627 -0.6433 -1.3191  0.0602
12368TIP3   OH258594   1.511   5.729   1.896  0.0357 -0.1909  0.5180
12368TIP3    H158595   1.591   5.677   1.890  0.5361  0.5808  0.3577
12368TIP3    H258596   1.450   5.686   1.836  0.0811 -1.2002  1.1697
12369TIP3   OH258597   6.584   0.111   5.441  0.1067 -1.0299 -0.4817
12369TIP3    H158598   6.604   0.187   5.387  3.8643 -1.2124  0.3757
12369TIP3    H258599   6.507   0.138   5.492 -1.3013  0.4883 -3.2009
12370TIP3   OH258600   2.854   1.979   3.452  0.2388  0.7973 -0.6231
12370TIP3    H158601   2.842   1.916   3.523  0.0994  1.3572 -0.1416
12370TIP3    H258602   2.768   1.988   3.413 -0.1731  2.0758  0.5036
12371TIP3   OH258603   4.764   2.062   1.919 -0.4388  0.3405  0.2568
12371TIP3    H158604   4.700   2.035   1.985  1.3796 -0.8206  1.6250
12371TIP3    H258605   4.754   1.998   1.849 -1.4258  0.7689 -0.0250
12372TIP3   OH258606   5.856   1.945  12.181 -0.5160  0.3336 -0.3412
12372TIP3    H158607   5.942   1.975  12.152  0.4109 -1.3419  0.5633
12372TIP3    H258608   5.832   1.875  12.121 -2.2336  2.0815 -1.8455
12373TIP3   OH258609   5.069   1.492   1.458 -0.6570 -0.5127  0.2461
12373TIP3    H158610   5.128   1.463   1.528 -0.8535  0.9848  1.0773
12373TIP3    H258611   5.002   1.543   1.503  0.7860  2.9854 -1.2096
12374TIP3   OH258612   4.840   6.375  14.160  0.4610 -0.1594  0.2069
12374TIP3    H158613   4.775   6.404  14.096 -0.7853 -3.0274  0.0460
12374TIP3    H258614   4.924   6.388  14.117 -0.0513  2.0671 -0.2251
12375TIP3   OH258615   1.392   0.261  14.452  0.1356  0.2379 -0.4909
12375TIP3    H158616   1.399   0.293  14.362 -1.3062  1.5134 -0.1977
12375TIP3    H258617   1.412   0.338  14.506  0.5691 -0.4036  0.2835
12376TIP3   OH258618   4.283   0.811   0.016 -0.5260 -0.0400  0.2199
12376TIP3    H158619   4.341   0.804  -0.059 -1.4172  0.5807 -0.5599
12376TIP3    H258620   4.289   0.727   0.060 -0.0945 -0.4603 -0.6280
12377TIP3   OH258621   6.303   4.186  15.719  0.0586 -0.2459  0.6833
12377TIP3    H158622   6.238   4.149  15.779 -1.2922  2.5698  1.1097
12377TIP3    H258623   6.366   4.229  15.776 -0.8313  1.8261  0.1876
12378TIP3   OH258624   1.560   6.448  16.274  0.1001  0.4556  0.3971
12378TIP3    H158625   1.475   6.490  16.283 -0.8147 -1.2481  0.2676
12378TIP3    H258626   1.603   6.496  16.203 -1.0495  0.8977 -0.0257
12379TIP3   OH258627   5.721   3.281  12.117  0.0918  0.0862  0.5415
12379TIP3    H158628   5.733   3.327  12.200 -3.4620 -3.1707  3.1914
12379TIP3    H258629   5.641   3.318  12.080 -1.8348 -2.4096  1.8595
12380TIP3   OH258630   1.991   1.478   3.728 -0.4470 -0.3441 -0.6595
12380TIP3    H158631   1.951   1.438   3.650  1.3125 -1.0344 -1.2722
12380TIP3    H258632   2.054   1.541   3.692  0.8984 -1.1788  0.1443
12381TIP3   OH258633   2.653   4.407   4.692 -0.5135  0.0130  0.0493
12381TIP3    H158634   2.744   4.427   4.714 -1.2792  1.7934  1.9644
12381TIP3    H258635   2.643   4.313   4.710  0.7603 -0.0542  0.4653
12382TIP3   OH258636   4.777   2.792  16.230 -0.3937  0.3568 -0.1652
12382TIP3    H158637   4.769   2.774  16.137  1.2430  2.2667 -0.7296
12382TIP3    H258638   4.688   2.814  16.258 -1.2966 -2.1524 -0.7507
12383TIP3   OH258639   3.828   5.886  13.773  0.1699 -0.5298 -0.9794
12383TIP3    H158640   3.888   5.960  13.775 -0.3974 -0.0748 -0.3004
12383TIP3    H258641   3.875   5.815  13.817  0.1469 -0.1245 -0.2876
12384TIP3   OH258642   6.229   3.063  11.325  0.0950 -0.1136  0.4739
12384TIP3    H158643   6.192   3.068  11.236 -0.7887  0.5763  0.8660
12384TIP3    H258644   6.285   3.140  11.331  0.3949 -0.3259  0.4145
12385TIP3   OH258645   3.407   2.746   4.692 -0.3323 -0.2293 -0.1239
12385TIP3    H158646   3.420   2.695   4.772 -0.9347  0.5186  0.4656
12385TIP3    H258647   3.337   2.700   4.645  0.0007 -0.6507 -0.2158
12386TIP3   OH258648   2.678   1.006  15.495  0.3864 -0.3992  0.3045
12386TIP3    H158649   2.617   0.949  15.542  0.5638  0.0807  1.1299
12386TIP3    H258650   2.755   1.010  15.551  0.1397  1.1353  0.5767
12387TIP3   OH258651   2.956   3.576  16.922  0.3189 -0.0507  0.4808
12387TIP3    H158652   2.916   3.650  16.876  1.1492  1.4488  2.0335
12387TIP3    H258653   2.967   3.509  16.855 -2.6202  0.2933 -0.5072
12388TIP3   OH258654   4.892   0.063  15.244 -0.0706  0.1503 -0.0625
12388TIP3    H158655   4.925  -0.015  15.288 -0.4005 -0.8394 -1.4813
12388TIP3    H258656   4.858   0.030  15.160 -0.3039  1.8050 -0.6518
12389TIP3   OH258657   3.916   4.136  15.026  0.3042  0.5096  0.4340
12389TIP3    H158658   3.978   4.068  14.997 -0.8321 -0.5945  0.4804
12389TIP3    H258659   3.863   4.092  15.093 -0.8262  1.2780  0.0566
12390TIP3   OH258660   3.221   3.565   2.332  0.0873 -0.0837 -0.1345
12390TIP3    H158661   3.244   3.474   2.353  1.1875  0.4896  1.2748
12390TIP3    H258662   3.278   3.587   2.258  0.4942 -0.2597  0.1184
12391TIP3   OH258663   2.410   3.704   5.698  0.3903  0.4354  0.4508
12391TIP3    H158664   2.436   3.676   5.785  0.5703 -0.9899 -0.0272
12391TIP3    H258665   2.492   3.723   5.653  0.6604 -2.4984 -0.5454
12392TIP3   OH258666   0.166   4.471  13.594  0.2402 -0.0858  0.1549
12392TIP3    H158667   0.232   4.535  13.622  2.8765 -2.3518 -0.5451
12392TIP3    H258668   0.172   4.470  13.499  0.9224 -1.9718  0.1832
12393TIP3   OH258669   1.735   6.381  15.539  0.1605 -0.3105  0.5042
12393TIP3    H158670   1.821   6.349  15.566  0.4249  0.7211  0.9015
12393TIP3    H258671   1.743   6.394  15.444  0.1953 -0.9428  0.4149
12394TIP3   OH258672   3.003   0.346  10.755 -0.3670 -0.0597  0.1881
12394TIP3    H158673   3.010   0.362  10.849  1.3973  0.0370  0.0826
12394TIP3    H258674   3.075   0.286  10.735  2.9142  4.0223 -1.8759
12395TIP3   OH258675   4.161   5.729  16.213  0.2539 -0.3180 -0.1343
12395TIP3    H158676   4.132   5.669  16.281  1.2613  0.1246  0.6940
12395TIP3    H258677   4.255   5.737  16.225  0.4232 -0.0643 -1.4482
12396TIP3   OH258678   2.717   2.441   0.785  0.3704  0.3580 -0.1492
12396TIP3    H158679   2.698   2.358   0.742  2.2107  0.4980 -1.3699
12396TIP3    H258680   2.744   2.418   0.874  0.7408 -0.3596 -0.4399
12397TIP3   OH258681   0.202   4.668   3.929 -0.1101  0.1249  0.0212
12397TIP3    H158682   0.142   4.739   3.907 -0.0352 -0.0382 -0.7415
12397TIP3    H258683   0.158   4.589   3.900 -0.4812 -0.2282  1.4585
12398TIP3   OH258684   6.794   1.236  13.851 -0.4545 -0.1690  0.0417
12398TIP3    H158685   6.862   1.188  13.900  0.1163  0.2544 -0.3167
12398TIP3    H258686   6.843   1.305  13.805 -0.7994 -1.2077 -1.9890
12399TIP3   OH258687   5.272   3.951  12.258 -0.1781 -0.2952  0.2433
12399TIP3    H158688   5.202   4.010  12.228  0.3789  0.1366 -0.2431
12399TIP3    H258689   5.280   3.886  12.188  0.3363  0.0418 -0.0279
12400TIP3   OH258690   6.228   5.224   4.987  0.9286 -0.3272  0.0960
12400TIP3    H158691   6.202   5.151   5.044  1.1740  0.2543  0.9677
12400TIP3    H258692   6.180   5.299   5.021 -1.5235 -0.5407 -2.4762
12401TIP3   OH258693   2.598   5.331  12.421  0.1104  0.2146  0.1104
12401TIP3    H158694   2.524   5.332  12.482 -0.2361  1.1681 -0.3087
12401TIP3    H258695   2.593   5.246  12.378 -0.5492  0.1440  0.3223
12402TIP3   OH258696   0.682   4.326  11.014  0.0067  0.0374 -0.1584
12402TIP3    H158697   0.694   4.317  11.109 -2.4201  1.7996  0.4050
12402TIP3    H258698   0.769   4.312  10.978  1.2400  0.3959  2.4118
12403TIP3   OH258699   0.942   5.656   4.344 -0.2254 -0.6318  0.4633
12403TIP3    H158700   0.859   5.613   4.366 -1.3346  0.7544 -0.8287
12403TIP3    H258701   0.925   5.700   4.261  1.5855  0.3251  0.5522
12404TIP3   OH258702   5.882   3.849   3.137  0.2949  0.0612 -0.0627
12404TIP3    H158703   5.857   3.917   3.075  0.1273 -0.5934 -0.7228
12404TIP3    H258704   5.798   3.815   3.170  0.3320 -0.8593 -0.8812
12405TIP3   OH258705   2.983   3.234   5.009 -0.2969  0.4693 -0.2852
12405TIP3    H158706   3.022   3.309   5.054 -0.9974 -0.5028  2.1510
12405TIP3    H258707   3.055   3.171   5.000  0.9784  2.2121 -4.6926
12406TIP3   OH258708   1.571   3.170   0.082  0.1141  0.4279 -0.8217
12406TIP3    H158709   1.596   3.205  -0.003 -0.5521 -0.5254 -1.4313
12406TIP3    H258710   1.490   3.217   0.104 -0.9206 -0.8556 -1.7578
12407TIP3   OH258711   4.078   1.113  14.427 -0.0181  0.5215  0.2733
12407TIP3    H158712   4.058   1.196  14.470 -0.5310  1.5629 -1.8697
12407TIP3    H258713   4.000   1.059  14.443 -0.6847  1.2940 -0.2775
12408TIP3   OH258714   4.380   2.659   3.233  0.1693 -0.5599  0.2390
12408TIP3    H158715   4.432   2.587   3.196  0.0890  0.0326 -1.0880
12408TIP3    H258716   4.292   2.623   3.243  0.1043 -0.6291 -0.5269
12409TIP3   OH258717   4.350   2.373  11.744  0.2485 -0.2469 -0.7922
12409TIP3    H158718   4.275   2.394  11.801  0.0749  1.4512 -1.5850
12409TIP3    H258719   4.385   2.291  11.780 -0.2255  0.4330  1.3829
12410TIP3   OH258720   0.767   5.552   3.389  0.4690  0.2266  0.1793
12410TIP3    H158721   0.769   5.603   3.470  1.6194 -0.2201  0.4522
12410TIP3    H258722   0.764   5.461   3.417 -0.8691  0.0998 -0.3073
12411TIP3   OH258723   4.464   0.491   4.596 -0.4343 -0.0186  0.1678
12411TIP3    H158724   4.528   0.548   4.640  0.1477 -0.6255  0.1372
12411TIP3    H258725   4.379   0.524   4.624 -0.0836 -0.2307  1.5653
12412TIP3   OH258726   6.144   2.032  12.026  0.1439 -0.5190  0.0019
12412TIP3    H158727   6.188   2.060  12.106  1.0456  0.2571 -0.7381
12412TIP3    H258728   6.192   1.953  11.999  1.3922  0.5117 -0.9849
12413TIP3   OH258729   0.774   0.188   0.614  0.2023 -0.5007 -0.1671
12413TIP3    H158730   0.802   0.268   0.658 -1.0090 -0.7094  1.0619
12413TIP3    H258731   0.854   0.152   0.575  1.1665  0.1293  1.1785
12414TIP3   OH258732   0.155   4.715  10.443 -0.0325  0.9469 -0.0021
12414TIP3    H158733   0.186   4.646  10.502 -1.0141  0.5652  0.0882
12414TIP3    H258734   0.183   4.796  10.485  1.3487  0.6092 -0.2304
12415TIP3   OH258735   4.583   2.150  16.997  0.2953  0.4454 -0.3740
12415TIP3    H158736   4.508   2.209  16.998 -0.5190 -0.5616  0.1062
12415TIP3    H258737   4.572   2.099  16.916 -0.0559 -0.3233  0.1456
12416TIP3   OH258738   0.481   1.133  16.564  0.0528 -0.1287 -0.1114
12416TIP3    H158739   0.387   1.127  16.578  0.2345 -0.9280  0.9540
12416TIP3    H258740   0.507   1.044  16.540  0.3758  0.3417 -1.6029
12417TIP3   OH258741   1.696   5.495  13.765 -0.1276  0.2591  0.2277
12417TIP3    H158742   1.642   5.555  13.714 -0.3984 -0.5776 -0.5063
12417TIP3    H258743   1.679   5.518  13.856  1.1461  2.4585 -0.0246
12418TIP3   OH258744   4.161   5.656   4.696 -0.1874 -0.0342  0.3067
12418TIP3    H158745   4.080   5.656   4.746  0.0892 -2.5241  0.8860
12418TIP3    H258746   4.142   5.603   4.619  0.3539  1.0299 -0.5977
12419TIP3   OH258747   3.403   6.799  12.287 -0.4595 -0.0674  0.6648
12419TIP3    H158748   3.473   6.775  12.228 -1.9140 -3.2889  0.0638
12419TIP3    H258749   3.447   6.821  12.369  1.2880 -1.4577  0.1480
12420TIP3   OH258750   6.324   1.087   6.128 -0.1556  0.3337 -0.5090
12420TIP3    H158751   6.253   1.055   6.182 -0.3602 -1.2480 -1.6673
12420TIP3    H258752   6.397   1.098   6.189 -0.9986  0.7519  0.4597
12421TIP3   OH258753   5.120   6.689   0.231  0.1765 -0.3732  0.0062
12421TIP3    H158754   5.111   6.642   0.148 -0.2948 -0.6369  0.2065
12421TIP3    H258755   5.059   6.762   0.223  1.3174  0.5572 -0.5379
12422TIP3   OH258756   5.346   5.273   0.879 -0.0698 -0.2117 -0.0374
12422TIP3    H158757   5.427   5.269   0.930  0.6318  1.5479 -0.9225
12422TIP3    H258758   5.375   5.282   0.788 -1.2936 -1.9971 -0.6588
12423TIP3   OH258759   4.168   5.452   2.398  0.4052 -0.0664  0.7681
12423TIP3    H158760   4.097   5.432   2.459  2.4081 -3.6267  2.2907
12423TIP3    H258761   4.181   5.370   2.350  1.6998  1.3577 -1.4651
12424TIP3   OH258762   1.456   3.937  12.096 -0.2345  0.7625  0.0874
12424TIP3    H158763   1.442   4.032  12.106  1.6862  1.1776 -0.6579
12424TIP3    H258764   1.369   3.899  12.107 -0.7112  2.3783  2.8494
12425TIP3   OH258765   6.488   4.471  16.302 -0.1770 -0.3070 -0.6330
12425TIP3    H158766   6.467   4.378  16.295  3.1536 -1.1397 -1.3201
12425TIP3    H258767   6.470   4.507  16.215  2.5734 -1.3744 -1.7325
12426TIP3   OH258768   6.553   4.371  14.229  0.2560  0.6486  0.3479
12426TIP3    H158769   6.607   4.351  14.153  0.1198 -2.7072  0.9762
12426TIP3    H258770   6.615   4.384  14.300  0.3315 -0.8672  0.5832
12427TIP3   OH258771   6.098   5.371  16.323  0.1236 -0.0592  0.2390
12427TIP3    H158772   6.167   5.304  16.329  0.8454  0.6229 -0.3153
12427TIP3    H258773   6.100   5.399  16.232  0.9969  1.9336  0.8249
12428TIP3   OH258774   0.708   1.161  12.159  0.3835  0.0781  0.0089
12428TIP3    H158775   0.748   1.187  12.243 -0.7825 -1.5060  1.1178
12428TIP3    H258776   0.636   1.223  12.146 -0.3430 -0.5537  0.9445
12429TIP3   OH258777   4.249   4.957  14.006 -0.5149 -0.4023  0.3289
12429TIP3    H158778   4.238   5.051  14.023  1.1250 -0.0501 -0.3472
12429TIP3    H258779   4.249   4.917  14.093 -1.6069  0.1713  0.6070
12430TIP3   OH258780   1.254   4.370   2.694 -0.1961  0.1215  0.3561
12430TIP3    H158781   1.168   4.374   2.652  0.1104 -1.2712 -0.4691
12430TIP3    H258782   1.246   4.427   2.770 -1.7405  0.2897  0.0999
12431TIP3   OH258783   6.401   4.825   3.387  0.0633 -0.8649  0.1971
12431TIP3    H158784   6.356   4.909   3.397 -1.1076 -1.4274 -0.1485
12431TIP3    H258785   6.383   4.779   3.469 -0.2579 -1.2086 -0.0619
12432TIP3   OH258786   6.203   6.417  16.325  0.1324 -0.1318  0.2608
12432TIP3    H158787   6.295   6.434  16.305  0.0854  0.0128  0.1620
12432TIP3    H258788   6.179   6.346  16.266  0.6274 -1.3087  1.4420
12433TIP3   OH258789   1.315   1.802  11.196 -0.1506 -0.2991 -0.1114
12433TIP3    H158790   1.227   1.828  11.170  0.1306  0.7890 -0.0035
12433TIP3    H258791   1.301   1.742  11.270 -0.7839  0.3006  0.2679
12434TIP3   OH258792   1.148   5.601   3.720  0.1231  0.2842 -0.0765
12434TIP3    H158793   1.226   5.546   3.714 -1.4086 -1.9351 -1.0290
12434TIP3    H258794   1.138   5.618   3.814  0.0910 -2.0063  0.3973
12435TIP3   OH258795   0.996   5.073  16.160  0.2249 -0.0171 -0.7031
12435TIP3    H158796   1.008   4.984  16.127 -0.0992 -0.7256  0.9645
12435TIP3    H258797   0.910   5.070  16.204 -0.3292  1.4515 -1.6295
12436TIP3   OH258798   5.334   3.362   3.927  0.1329  0.3353  0.1548
12436TIP3    H158799   5.292   3.300   3.867  2.3582  1.6017 -3.0103
12436TIP3    H258800   5.420   3.324   3.946  1.3102  2.0163 -1.3892
12437TIP3   OH258801   3.629   5.718  14.386 -0.9702  0.0497 -0.0476
12437TIP3    H158802   3.558   5.674  14.339 -0.9817 -1.1487  1.0308
12437TIP3    H258803   3.666   5.779  14.323 -2.0481 -0.3330 -1.0741
12438TIP3   OH258804   3.828   0.098  13.430  0.1772 -0.3084  0.5670
12438TIP3    H158805   3.847   0.176  13.377  1.7226 -0.1190  1.3400
12438TIP3    H258806   3.734   0.084  13.419  0.1818  0.6511 -0.9518
12439TIP3   OH258807   3.420   3.876  15.701  0.1382 -0.5109 -0.1262
12439TIP3    H158808   3.342   3.876  15.646 -0.8545  0.7939  1.2152
12439TIP3    H258809   3.449   3.785  15.701 -1.7839 -1.1675 -0.1140
12440TIP3   OH258810   2.598   5.495   5.896 -0.5233 -0.2586 -0.5309
12440TIP3    H158811   2.538   5.546   5.842 -3.1734 -1.3773  1.1530
12440TIP3    H258812   2.578   5.520   5.986  1.6127 -0.6686  0.1240
12441TIP3   OH258813   0.535   2.611  10.943 -0.2898  0.3495 -0.3887
12441TIP3    H158814   0.550   2.589  10.851  2.9254 -0.9332  0.3067
12441TIP3    H258815   0.575   2.697  10.954 -1.7774  1.0743 -0.4003
12442TIP3   OH258816   0.770   0.358  13.798  0.3615  0.2366  0.1047
12442TIP3    H158817   0.792   0.300  13.725 -0.8128  1.1005 -0.9900
12442TIP3    H258818   0.848   0.413  13.810  0.4725  0.2696 -0.7051
12443TIP3   OH258819   6.796   1.694   1.063  0.1211  0.3768  0.2953
12443TIP3    H158820   6.882   1.676   1.099  0.4219  1.1140 -0.0394
12443TIP3    H258821   6.788   1.636   0.988 -0.5935 -1.3237  1.6152
12444TIP3   OH258822   4.769   6.657  12.139  0.0676 -0.5269 -0.0684
12444TIP3    H158823   4.767   6.652  12.043 -0.8946  0.1011 -0.0945
12444TIP3    H258824   4.859   6.636  12.162  0.1144 -1.5562 -1.0602
12445TIP3   OH258825   0.605   1.766   0.833 -0.1148  0.1152 -0.2070
12445TIP3    H158826   0.584   1.759   0.740  0.0334 -1.4689 -0.1541
12445TIP3    H258827   0.616   1.860   0.849  2.0677  0.3095 -2.2815
12446TIP3   OH258828   3.926   6.080   0.463 -0.0229 -0.4145  0.3652
12446TIP3    H158829   3.878   6.098   0.544 -2.5352 -0.8018 -0.9264
12446TIP3    H258830   3.989   6.012   0.487  0.5469  0.7171  2.3458
12447TIP3   OH258831   4.980   2.540   5.410  0.0629 -0.2769 -0.6210
12447TIP3    H158832   4.968   2.508   5.320 -0.8613 -0.7198 -0.3483
12447TIP3    H258833   4.994   2.461   5.462 -0.5285 -0.1117 -0.2026
12448TIP3   OH258834   6.718   6.515  13.045  0.9539  0.1061  0.2424
12448TIP3    H158835   6.706   6.602  13.085 -0.8384 -0.9875  2.3113
12448TIP3    H258836   6.795   6.480  13.090 -0.4066 -0.6855  2.0803
12449TIP3   OH258837   2.602   5.635   0.581  0.0315 -0.2512 -0.1627
12449TIP3    H158838   2.548   5.664   0.654 -1.8700 -0.9619 -1.2080
12449TIP3    H258839   2.620   5.543   0.599 -1.4410 -0.7597 -1.0947
12450TIP3   OH258840   3.032   0.667  14.735  0.2833 -0.0202  0.1155
12450TIP3    H158841   3.057   0.730  14.668  0.8061  0.3540  0.6576
12450TIP3    H258842   3.019   0.720  14.814 -0.1193 -0.4821  0.3605
12451TIP3   OH258843   4.019   3.129   0.463  0.4003  0.2539 -0.0660
12451TIP3    H158844   4.062   3.144   0.547 -0.8013  0.7424  0.4866
12451TIP3    H258845   3.931   3.098   0.486  0.0491  0.3917 -1.1490
12452TIP3   OH258846   6.167   3.001   1.463 -0.2192  0.0349  0.4781
12452TIP3    H158847   6.238   2.938   1.450  0.7088  1.1871 -0.3238
12452TIP3    H258848   6.121   2.971   1.541  1.6385 -0.3369  1.4874
12453TIP3   OH258849   3.247   5.171  15.890 -0.4199 -0.1289 -0.2601
12453TIP3    H158850   3.168   5.201  15.934  0.2919 -0.8624  1.6423
12453TIP3    H258851   3.317   5.190  15.952  1.1380  1.7557 -2.4497
12454TIP3   OH258852   3.726   0.139  16.816 -0.2351  0.3976 -0.3074
12454TIP3    H158853   3.800   0.199  16.805  0.5191 -0.4848 -0.2484
12454TIP3    H258854   3.761   0.054  16.788 -1.7236  0.2517 -1.8429
12455TIP3   OH258855   2.010   0.859  16.801 -0.6690 -0.0976 -0.5007
12455TIP3    H158856   1.958   0.939  16.806 -1.7436 -0.6663 -1.8880
12455TIP3    H258857   1.947   0.792  16.774  0.5053 -1.1194 -0.7687
12456TIP3   OH258858   0.273   4.329   2.754  0.2449 -0.2974  0.5277
12456TIP3    H158859   0.191   4.336   2.706  0.1183 -1.3178  0.5703
12456TIP3    H258860   0.287   4.235   2.765  1.1773 -0.1291  0.9383
12457TIP3   OH258861   3.783   3.174  13.537 -0.1854 -0.7074  0.6369
12457TIP3    H158862   3.873   3.200  13.517 -0.6059 -0.0433 -0.4414
12457TIP3    H258863   3.771   3.198  13.629 -0.0268  1.4359  0.1358
12458TIP3   OH258864   4.899   2.946  13.909  0.3269 -0.0177 -0.4063
12458TIP3    H158865   4.971   2.966  13.848  1.6423  1.2576  1.4543
12458TIP3    H258866   4.925   2.988  13.991 -2.5417  0.4441  0.3713
12459TIP3   OH258867   2.195   5.561   2.920 -0.0807 -0.4028 -0.5626
12459TIP3    H158868   2.228   5.471   2.927 -1.2821 -0.8446 -0.3283
12459TIP3    H258869   2.269   5.616   2.947  0.2650 -1.3795  0.5539
12460TIP3   OH258870   5.997   4.104   1.078 -0.2520  0.0330  0.3720
12460TIP3    H158871   6.022   4.019   1.043  0.5648  0.4193  0.0080
12460TIP3    H258872   6.026   4.102   1.169 -0.9035 -0.3520  0.5769
12461TIP3   OH258873   1.002   3.821  12.873  0.3273 -0.2766 -0.6134
12461TIP3    H158874   0.994   3.885  12.802 -1.3172 -0.1493 -0.3404
12461TIP3    H258875   0.995   3.873  12.953  0.0619 -0.6690 -0.3821
12462TIP3   OH258876   3.897   1.344   0.494  0.0737 -0.5433  0.0252
12462TIP3    H158877   3.814   1.391   0.492 -0.6946 -1.7942  1.5401
12462TIP3    H258878   3.954   1.395   0.435 -0.8709  1.9804  1.1587
12463TIP3   OH258879   5.191   6.700   5.300  0.4743 -0.0465 -0.2451
12463TIP3    H158880   5.227   6.621   5.342 -1.2995 -2.0953 -2.3342
12463TIP3    H258881   5.263   6.732   5.245  0.7065 -1.1767 -0.6193
12464TIP3   OH258882   5.084   1.896   1.912  0.6766 -1.1217 -0.5837
12464TIP3    H158883   5.171   1.855   1.909  2.0714  1.6231 -0.5257
12464TIP3    H258884   5.049   1.881   1.824  2.0592 -0.6352 -1.2577
12465TIP3   OH258885   2.009   0.388  14.075 -0.2908 -0.5625  0.6468
12465TIP3    H158886   2.093   0.432  14.058  0.3240 -1.5494  1.0308
12465TIP3    H258887   1.953   0.456  14.113 -0.5963  0.8373 -2.0742
12466TIP3   OH258888   2.527   2.419  15.628  0.3562  0.5072 -0.1189
12466TIP3    H158889   2.452   2.471  15.599 -0.2650 -0.0204  0.5161
12466TIP3    H258890   2.489   2.341  15.668  1.2631 -0.2273 -0.6399
12467TIP3   OH258891   3.451   0.835  13.574  0.5647  0.1032 -0.2034
12467TIP3    H158892   3.421   0.755  13.531 -0.8032  0.7603 -0.5246
12467TIP3    H258893   3.376   0.865  13.625  1.2440  0.8728  0.3747
12468TIP3   OH258894   3.524   2.377   4.885  0.2743 -0.0490 -0.1636
12468TIP3    H158895   3.448   2.372   4.828 -0.6304 -1.1580  1.0820
12468TIP3    H258896   3.509   2.455   4.938  0.3166  0.0739 -0.3307
12469TIP3   OH258897   3.482   4.770   1.152  0.0366  1.2382  0.0807
12469TIP3    H158898   3.505   4.862   1.166  0.0150  1.0766  1.2028
12469TIP3    H258899   3.410   4.773   1.090  1.5423  1.8545 -1.7543
12470TIP3   OH258900   3.785   0.657   0.237  0.5615  0.5649  0.4135
12470TIP3    H158901   3.787   0.720   0.309  0.2429  0.8777  0.1519
12470TIP3    H258902   3.714   0.688   0.180 -0.7954 -1.0330  1.1705
12471TIP3   OH258903   1.107   1.032   0.685  0.3266  0.0420  0.2815
12471TIP3    H158904   1.068   0.955   0.726  1.4763 -0.5897  0.2205
12471TIP3    H258905   1.094   1.018   0.591 -1.9295  1.2865  0.3422
12472TIP3   OH258906   6.771   5.075   4.032 -0.0734 -0.1477 -0.0573
12472TIP3    H158907   6.717   5.154   4.038 -0.0051  0.1889 -2.7068
12472TIP3    H258908   6.854   5.100   4.073 -0.4142  0.8162  0.0733
12473TIP3   OH258909   2.767   0.572   3.973 -0.1669 -0.1556  0.0880
12473TIP3    H158910   2.734   0.526   4.050  0.9823 -0.5934  0.3355
12473TIP3    H258911   2.738   0.663   3.985  0.7110 -0.0254  1.4891
12474TIP3   OH258912   4.727   4.172  12.424  0.6127 -0.0395  0.0535
12474TIP3    H158913   4.712   4.226  12.346  0.3788 -0.3734 -0.1323
12474TIP3    H258914   4.822   4.160  12.427  0.5286 -1.2425 -1.0101
12475TIP3   OH258915   5.328   1.238  11.863  0.3476 -0.1563  0.2611
12475TIP3    H158916   5.260   1.286  11.816 -0.0314 -0.4836  0.4690
12475TIP3    H258917   5.323   1.272  11.953  0.0235 -0.6437  0.4278
12476TIP3   OH258918   4.310   4.996   2.694  0.3264  0.4791  0.5319
12476TIP3    H158919   4.242   5.035   2.639 -0.6894 -0.1301  1.3078
12476TIP3    H258920   4.392   5.033   2.662 -0.0934 -0.7299 -2.1474
12477TIP3   OH258921   2.350   2.490  12.943 -0.5236 -0.7837 -0.3100
12477TIP3    H158922   2.442   2.469  12.960 -0.2997  0.5764  0.2929
12477TIP3    H258923   2.352   2.568  12.889 -1.3197  0.0964  0.8812
12478TIP3   OH258924   3.169   4.635  13.690 -0.2968  0.1003  0.2113
12478TIP3    H158925   3.149   4.551  13.648 -1.5409  0.0714  0.7985
12478TIP3    H258926   3.230   4.678  13.630 -1.1117 -0.4264 -1.0453
12479TIP3   OH258927   3.772   0.853   0.426 -0.0666 -0.1114  0.7748
12479TIP3    H158928   3.793   0.944   0.406  1.2029 -0.4511  0.4101
12479TIP3    H258929   3.757   0.852   0.520 -0.0328  0.4614  0.7921
12480TIP3   OH258930   2.308   4.540   4.401  0.0895 -0.1808  0.4296
12480TIP3    H158931   2.368   4.542   4.475 -0.6227 -0.7158  1.0367
12480TIP3    H258932   2.228   4.501   4.436 -0.2608 -0.4438 -0.6245
12481TIP3   OH258933   6.674   2.105  16.216  0.3186  0.1284  0.5876
12481TIP3    H158934   6.741   2.128  16.281  1.3327 -0.9188 -0.0464
12481TIP3    H258935   6.708   2.141  16.134 -0.8219  1.2058  0.5651
12482TIP3   OH258936   6.300   0.186   3.847  0.1544  0.2515 -0.1690
12482TIP3    H158937   6.360   0.258   3.826  0.6638 -0.2033 -0.3193
12482TIP3    H258938   6.226   0.199   3.787  0.2071  0.6922 -0.1424
12483TIP3   OH258939   3.985   1.682   5.462  0.1448 -0.9850 -0.2337
12483TIP3    H158940   4.010   1.613   5.400  2.7252  1.8225 -2.6664
12483TIP3    H258941   4.066   1.701   5.510  0.1818  1.7098 -1.1907
12484TIP3   OH258942   2.336   6.445  16.066 -0.6928 -0.6035  0.5962
12484TIP3    H158943   2.413   6.404  16.027 -0.4802 -1.2056  1.6216
12484TIP3    H258944   2.358   6.538  16.070 -0.9155 -0.4268 -1.1382
12485TIP3   OH258945   6.263   5.094   3.881  0.5325 -0.4380 -0.2271
12485TIP3    H158946   6.311   5.145   3.815 -2.2500  1.6886 -0.8408
12485TIP3    H258947   6.246   5.157   3.951 -2.3992 -0.5926 -0.6724
12486TIP3   OH258948   4.709   6.195  15.402 -0.0248 -0.0366 -0.4732
12486TIP3    H158949   4.623   6.155  15.414 -1.0134  2.1076 -0.0125
12486TIP3    H258950   4.694   6.289  15.415  2.6239  0.2804  0.9594
12487TIP3   OH258951   4.986   1.080  13.352 -0.0645 -0.2595 -0.0484
12487TIP3    H158952   4.974   1.102  13.260 -0.7398 -0.9493 -0.1368
12487TIP3    H258953   4.939   1.147  13.400 -0.3726 -0.3398 -0.2367
12488TIP3   OH258954   2.012   0.774  10.363  0.3977  0.1957 -0.0038
12488TIP3    H158955   2.011   0.678  10.370  1.2132  0.1549 -0.3521
12488TIP3    H258956   2.056   0.804  10.442 -0.1499  0.3123  0.2670
12489TIP3   OH258957   4.990   2.677  13.867  0.1118 -0.5725 -0.2992
12489TIP3    H158958   5.079   2.695  13.898 -0.2107 -1.1339  1.0172
12489TIP3    H258959   4.937   2.749  13.902 -0.1636 -0.8909 -0.0612
12490TIP3   OH258960   0.219   6.562   2.986 -0.9776  0.0195 -0.0851
12490TIP3    H158961   0.132   6.561   3.026 -0.3746  0.9658  1.3254
12490TIP3    H258962   0.274   6.514   3.048 -0.0537  1.3764  0.1821
12491TIP3   OH258963   6.707   3.098   0.249 -0.0082  0.5055 -0.4930
12491TIP3    H158964   6.623   3.057   0.267  0.1039  0.3996 -0.1999
12491TIP3    H258965   6.766   3.025   0.229  0.3148  0.4658  0.5213
12492TIP3   OH258966   3.359   5.630   0.035  0.0685  0.3891 -0.2096
12492TIP3    H158967   3.435   5.662  -0.013 -0.3904 -0.0315 -1.2560
12492TIP3    H258968   3.377   5.653   0.126  2.9713 -2.4573  0.1320
12493TIP3   OH258969   3.836   1.151   4.762  0.0831 -0.7240 -0.2579
12493TIP3    H158970   3.848   1.224   4.823  2.0392 -0.2312 -1.1528
12493TIP3    H258971   3.769   1.096   4.804 -1.5290  1.5719  0.4119
12494TIP3   OH258972   1.839   1.764  13.173 -0.7095  0.3346 -0.3716
12494TIP3    H158973   1.862   1.671  13.175 -0.0947  0.4872 -0.0518
12494TIP3    H258974   1.867   1.797  13.258  0.3465  1.1093 -0.9977
12495TIP3   OH258975   4.787   6.441   2.982 -0.0465  0.2633 -0.5967
12495TIP3    H158976   4.805   6.402   2.896 -0.5140  2.0686 -1.5754
12495TIP3    H258977   4.774   6.367   3.040  0.8263 -1.0234 -1.9684
12496TIP3   OH258978   5.001   1.191  12.040 -0.1402 -0.1121  0.2310
12496TIP3    H158979   4.956   1.150  12.115  0.8513 -1.4841  0.1086
12496TIP3    H258980   5.054   1.120  12.003 -0.3502  0.6387 -1.5709
12497TIP3   OH258981   4.498   4.179  11.547 -0.4330 -0.1810  0.0723
12497TIP3    H158982   4.537   4.191  11.460 -1.1168  1.8195 -0.0189
12497TIP3    H258983   4.409   4.149  11.530 -0.6325  0.4064  0.0620
12498TIP3   OH258984   3.816   1.804   6.288  0.4787 -0.5159 -0.2849
12498TIP3    H158985   3.721   1.798   6.277  0.3106 -0.7207  1.0860
12498TIP3    H258986   3.828   1.867   6.358  1.2196 -2.1518  1.1379
12499TIP3   OH258987   1.241   1.287  13.485 -0.1166  0.2880 -0.0850
12499TIP3    H158988   1.286   1.221  13.538  1.3763 -0.4018 -2.1164
12499TIP3    H258989   1.292   1.367  13.498 -2.1044  1.2832  2.6269
12500TIP3   OH258990   0.933   3.841  13.709  0.1810  0.0402  0.6630
12500TIP3    H158991   0.858   3.901  13.717  0.9298  1.3080 -1.0970
12500TIP3    H258992   0.971   3.862  13.623  0.7261 -2.7210  0.1584
12501TIP3   OH258993   6.039   0.831  11.880  0.4865  0.2065  0.2080
12501TIP3    H158994   5.973   0.851  11.946 -0.1440 -0.1612 -0.2949
12501TIP3    H258995   5.989   0.818  11.799  0.9467 -1.9472  0.1858
12502TIP3   OH258996   6.162   6.746  13.773 -0.3072 -0.0505  0.9475
12502TIP3    H158997   6.068   6.763  13.768 -0.4677 -1.0886 -0.1360
12502TIP3    H258998   6.176   6.672  13.713  1.3452  0.6777  0.3761
12503TIP3   OH258999   5.684   3.874   2.841  0.5735 -0.3910 -0.0601
12503TIP3    H159000   5.679   3.817   2.764  0.6128 -1.4481  0.6974
12503TIP3    H259001   5.771   3.914   2.835 -0.1589  1.1459 -1.6276
12504TIP3   OH259002   0.995   2.909  15.944  0.0886  0.5190 -0.3785
12504TIP3    H159003   0.955   2.940  15.863 -0.4269 -2.8481 -1.5940
12504TIP3    H259004   0.927   2.920  16.011 -0.6453  0.4729 -1.1092
12505TIP3   OH259005   4.360   3.704  16.552  0.0120 -0.1328 -0.5592
12505TIP3    H159006   4.330   3.766  16.619  3.0797 -0.0438  0.9170
12505TIP3    H259007   4.332   3.618  16.585 -0.0334  0.0619 -0.0780
12506TIP3   OH259008   1.140   2.308   1.042 -0.2129  0.2059 -0.4820
12506TIP3    H159009   1.150   2.260   1.124 -1.2635 -0.1924 -0.5731
12506TIP3    H259010   1.046   2.308   1.026  0.0288 -0.3621 -2.0621
12507TIP3   OH259011   2.265   3.667  11.851 -0.6088 -0.3415 -0.4071
12507TIP3    H159012   2.200   3.639  11.785 -0.4935  0.7580 -1.0130
12507TIP3    H259013   2.254   3.762  11.856  1.7574  0.0468 -1.4074
12508TIP3   OH259014   4.699   6.443  12.439  0.6903 -0.0800 -0.0710
12508TIP3    H159015   4.668   6.532  12.452  2.5924  0.5701  0.2975
12508TIP3    H259016   4.625   6.388  12.463 -0.7828  1.3981 -1.0842
12509TIP3   OH259017   0.396   0.448  16.628  0.0624 -0.2955 -0.0766
12509TIP3    H159018   0.419   0.421  16.538 -1.3500  0.1554 -0.5938
12509TIP3    H259019   0.311   0.408  16.643  0.0698  0.0503  0.9003
12510TIP3   OH259020   6.493   0.970  16.173 -0.1824  0.2467  0.1475
12510TIP3    H159021   6.404   0.995  16.199  0.0056  0.4621  0.5930
12510TIP3    H259022   6.537   1.054  16.158 -0.4717  0.1331 -1.5361
12511TIP3   OH259023   6.563   0.065  13.585 -0.2149 -0.0773 -0.1638
12511TIP3    H159024   6.511   0.061  13.666  0.3628  0.2451  0.2340
12511TIP3    H259025   6.507   0.111  13.523 -0.0828  1.1025  0.5372
12512TIP3   OH259026   3.184   3.123  14.310  0.0636 -0.1995  0.5074
12512TIP3    H159027   3.129   3.198  14.287  0.1033 -0.0370  0.9338
12512TIP3    H259028   3.147   3.050  14.259  1.2220  0.5016 -1.4360
12513TIP3   OH259029   4.898   3.651   2.074 -0.6219  0.0662 -0.0087
12513TIP3    H159030   4.948   3.577   2.108  0.3218  0.6979  0.0043
12513TIP3    H259031   4.849   3.615   2.001  0.3323 -0.4383 -0.4194
12514TIP3   OH259032   1.196   4.499  12.277  0.4969 -0.3547 -0.5390
12514TIP3    H159033   1.212   4.424  12.219 -0.6818  0.5298 -2.0805
12514TIP3    H259034   1.108   4.527  12.256  0.1653  0.2467  1.4851
12515TIP3   OH259035   1.042   4.694  15.432  0.1837 -0.2214  0.5996
12515TIP3    H159036   1.126   4.739  15.424  1.0398 -1.8958 -0.4832
12515TIP3    H259037   1.009   4.720  15.518  1.5638  0.8557  0.8429
12516TIP3   OH259038   1.682   6.643  16.729  0.6051 -0.0117  0.4674
12516TIP3    H159039   1.603   6.675  16.685 -0.7084 -1.6265  1.4888
12516TIP3    H259040   1.697   6.705  16.800 -0.8763 -0.5980  1.3664
12517TIP3   OH259041   0.097   2.914   1.818  0.1610 -0.4037  0.1045
12517TIP3    H159042   0.068   2.862   1.743 -0.5501 -0.2791  0.2859
12517TIP3    H259043   0.174   2.867   1.852  0.0072 -0.8968 -0.2204
12518TIP3   OH259044   0.079   2.698  16.712 -0.4377 -0.0753 -0.8445
12518TIP3    H159045   0.085   2.788  16.682  0.7460  0.0255 -0.3875
12518TIP3    H259046   0.129   2.648  16.647 -0.3850 -0.2761 -0.6510
12519TIP3   OH259047   2.850   2.601  12.371  0.5161 -0.6739 -0.5017
12519TIP3    H159048   2.809   2.683  12.396  4.1027  1.2733 -0.2559
12519TIP3    H259049   2.840   2.544  12.447  0.9256  0.8152  0.7036
12520TIP3   OH259050   5.084   3.333  12.784  0.5018 -0.4842 -0.2036
12520TIP3    H159051   5.017   3.383  12.737 -0.6911 -1.9754 -0.1781
12520TIP3    H259052   5.117   3.393  12.851 -1.1021  0.1873  0.0287
12521TIP3   OH259053   2.728   1.842  14.820 -0.0976  0.4650 -0.2711
12521TIP3    H159054   2.739   1.849  14.726 -0.0519 -1.3227 -0.4224
12521TIP3    H259055   2.764   1.757  14.843 -1.8359  0.0335  1.0888
12522TIP3   OH259056   2.971   0.218   4.052  0.3905  0.3192 -0.1198
12522TIP3    H159057   2.994   0.195   3.962  0.6319  1.5683 -0.4035
12522TIP3    H259058   2.989   0.139   4.103 -0.2312 -0.5608 -1.2341
12523TIP3   OH259059   3.653   0.931   0.864 -0.5812  0.1743 -0.0330
12523TIP3    H159060   3.693   0.863   0.809  0.9799  0.6974  0.3976
12523TIP3    H259061   3.726   0.967   0.914 -1.3553  2.2300 -0.3063
12524TIP3   OH259062   3.845   2.066  12.678  0.3603  0.3600  0.2872
12524TIP3    H159063   3.788   2.123  12.729 -1.0653 -1.2334  0.5637
12524TIP3    H259064   3.871   2.119  12.603  0.5303  1.9364  1.4200
12525TIP3   OH259065   4.873   2.205  16.682  0.7291  0.1278 -0.0206
12525TIP3    H159066   4.799   2.264  16.671 -0.5122 -1.4635 -0.6626
12525TIP3    H259067   4.944   2.247  16.633  0.0668  1.3574  0.0295
12526TIP3   OH259068   1.152   5.378   5.927 -0.1455  0.0284  0.4366
12526TIP3    H159069   1.087   5.446   5.907 -0.9241 -0.0397  2.4551
12526TIP3    H259070   1.099   5.303   5.954  0.7379 -1.0766 -0.8181
12527TIP3   OH259071   0.996   1.377  14.373  0.3924  0.7657 -0.3961
12527TIP3    H159072   1.023   1.390  14.282 -0.9013 -0.1931 -0.9574
12527TIP3    H259073   0.903   1.403  14.374  0.4086  0.8385  0.6652
12528TIP3   OH259074   1.094   2.203   5.222 -0.4165  0.1283  0.7544
12528TIP3    H159075   1.022   2.155   5.181 -1.1674  0.4524  1.6530
12528TIP3    H259076   1.083   2.293   5.194  0.8606 -0.1453 -0.7464
12529TIP3   OH259077   5.631   4.435  14.510  0.0926  0.1883 -0.4088
12529TIP3    H159078   5.640   4.447  14.415  0.3357  0.0521 -0.4045
12529TIP3    H259079   5.721   4.428  14.542 -0.0113 -1.5302 -0.4009
12530TIP3   OH259080   5.140   1.355  12.585 -0.0703  0.4441 -0.0031
12530TIP3    H159081   5.173   1.445  12.583 -1.7035  1.0740 -1.2408
12530TIP3    H259082   5.209   1.304  12.543  1.1111  1.0174  1.1882
12531TIP3   OH259083   5.244   4.366  15.067 -0.2873 -0.7973 -0.4403
12531TIP3    H159084   5.300   4.289  15.057  2.6495  1.1652 -0.2773
12531TIP3    H259085   5.294   4.438  15.029 -1.6460  1.5589  1.8702
12532TIP3   OH259086   3.130   4.044  11.692  0.2810 -0.1349  0.3618
12532TIP3    H159087   3.182   3.969  11.664  0.9263  0.3314  0.3049
12532TIP3    H259088   3.194   4.112  11.713 -0.3340  1.1765 -1.7201
12533TIP3   OH259089   1.140   1.330  11.043 -0.0620  0.4641 -0.0565
12533TIP3    H159090   1.145   1.337  10.948 -0.0702  0.6965 -0.0394
12533TIP3    H259091   1.191   1.252  11.064  0.8222  1.0031 -0.1594
12534TIP3   OH259092   2.688   0.855  16.751 -0.0941  0.3117 -0.3031
12534TIP3    H159093   2.767   0.835  16.801 -0.2795 -0.4502 -0.2913
12534TIP3    H259094   2.639   0.772  16.751  0.3188  0.0056 -2.5255
12535TIP3   OH259095   6.558   1.754   5.037 -0.1168  0.1824 -0.2011
12535TIP3    H159096   6.569   1.775   4.945  1.0761  0.9013  0.0763
12535TIP3    H259097   6.641   1.780   5.078 -0.4965 -0.4152  1.0194
12536TIP3   OH259098   4.204   6.680   4.949  0.2633  0.6251 -0.4941
12536TIP3    H159099   4.242   6.631   5.022  0.7058  3.7190  1.5783
12536TIP3    H259100   4.111   6.658   4.951  0.7723 -1.8411 -1.2081
12537TIP3   OH259101   1.524   5.672   5.324 -0.4039 -0.1096  0.6416
12537TIP3    H159102   1.442   5.636   5.291  1.1050 -0.8707 -2.6914
12537TIP3    H259103   1.559   5.605   5.382 -0.9044 -0.9326  0.0050
12538TIP3   OH259104   5.860   2.571   3.039 -0.5112 -0.0351 -0.1536
12538TIP3    H159105   5.869   2.479   3.065  0.5741 -0.4476 -1.7876
12538TIP3    H259106   5.867   2.569   2.943  1.6260  1.9365 -0.1354
12539TIP3   OH259107   5.096   2.949  11.800  0.3377 -0.1727  0.1624
12539TIP3    H159108   5.159   2.980  11.865  0.8193 -0.2375 -0.2649
12539TIP3    H259109   5.144   2.953  11.717 -1.1969  2.7679 -0.6881
12540TIP3   OH259110   5.651   0.105  14.893  0.0224 -0.3348  0.4749
12540TIP3    H159111   5.643   0.128  14.800  0.5197  2.2192  0.9894
12540TIP3    H259112   5.574   0.144  14.934  0.7952  0.2478  1.4067
12541TIP3   OH259113   0.393   1.259  11.374 -0.6025  0.5664  0.2776
12541TIP3    H159114   0.482   1.229  11.390 -0.8019  0.2251  0.7507
12541TIP3    H259115   0.403   1.336  11.318 -0.1145 -0.8667 -1.7145
12542TIP3   OH259116   3.800   2.015  13.012  0.5212 -0.3777 -0.0812
12542TIP3    H159117   3.756   2.095  13.041 -1.3082 -1.4641  0.3542
12542TIP3    H259118   3.889   2.023  13.044  0.5939  1.7949 -0.6782
12543TIP3   OH259119   6.674   4.036   4.896  0.0253  0.4447 -0.3982
12543TIP3    H159120   6.654   3.981   4.972 -0.3553  0.9222 -0.1545
12543TIP3    H259121   6.767   4.056   4.905 -0.1450  0.9785  0.2596
12544TIP3   OH259122   4.529   5.826  10.489  0.4006 -0.1134 -0.0635
12544TIP3    H159123   4.499   5.902  10.439 -0.7054 -0.7563 -0.3962
12544TIP3    H259124   4.460   5.809  10.552  0.5008 -1.0186 -0.1811
12545TIP3   OH259125   3.548   6.766  12.552  0.6155 -0.2545 -0.3781
12545TIP3    H159126   3.545   6.862  12.551 -0.5700 -0.0484  3.5391
12545TIP3    H259127   3.638   6.745  12.578  0.2562  0.0356  1.2659
12546TIP3   OH259128   6.279   3.344  14.587  0.3792 -0.6435 -0.4962
12546TIP3    H159129   6.347   3.300  14.536 -1.0690 -0.2947 -2.9386
12546TIP3    H259130   6.278   3.433  14.553 -1.3492 -0.6905 -0.6675
12547TIP3   OH259131   4.844   5.628   3.322 -0.3797 -0.0825 -0.0795
12547TIP3    H159132   4.770   5.688   3.330  0.4753  0.8393  1.4639
12547TIP3    H259133   4.921   5.683   3.341  0.4564 -1.5525  0.9686
12548TIP3   OH259134   5.258   4.335  15.803 -0.2928  0.5991 -0.1169
12548TIP3    H159135   5.227   4.412  15.852  0.5429  0.1750  1.1220
12548TIP3    H259136   5.272   4.368  15.714 -2.1359  1.3172 -0.1760
12549TIP3   OH259137   2.201   5.478  16.580  0.0851  0.0846  0.5619
12549TIP3    H159138   2.276   5.418  16.580 -0.8185 -1.1821  2.4551
12549TIP3    H259139   2.239   5.565  16.590  1.3266 -0.5418  1.6219
12550TIP3   OH259140   6.675   5.793  13.818 -0.0866  0.2349  0.4909
12550TIP3    H159141   6.627   5.828  13.893 -0.9840 -1.4155  0.7329
12550TIP3    H259142   6.765   5.781  13.850  0.7902  3.8137 -0.1087
12551TIP3   OH259143   6.194   0.611   1.839  0.0829  0.2074 -0.0494
12551TIP3    H159144   6.225   0.659   1.763 -1.9673 -0.8531 -1.6452
12551TIP3    H259145   6.157   0.530   1.803 -1.9571  0.1627  1.9309
12552TIP3   OH259146   1.912   4.689  16.446 -0.6827  0.3516 -0.3885
12552TIP3    H159147   1.986   4.746  16.465  0.9048 -1.8741  0.4161
12552TIP3    H259148   1.951   4.606  16.418 -2.9005 -0.1086 -2.5263
12553TIP3   OH259149   5.309   3.341  12.525 -0.1862 -0.1546 -0.0626
12553TIP3    H159150   5.330   3.416  12.580  1.2716 -1.2946  1.0277
12553TIP3    H259151   5.298   3.378  12.437  0.8460  1.2901  0.3761
12554TIP3   OH259152   6.106   3.084  15.527 -0.6505 -0.1062 -0.1199
12554TIP3    H159153   6.024   3.127  15.551 -0.1837  1.2454 -0.8077
12554TIP3    H259154   6.174   3.150  15.544  0.0587 -0.4096 -1.5737
12555TIP3   OH259155   1.588   1.605   3.493  0.1372  0.2749 -0.6420
12555TIP3    H159156   1.542   1.552   3.559  0.6427  0.5770 -0.0407
12555TIP3    H259157   1.523   1.670   3.466 -0.2729 -0.2282 -0.8998
12556TIP3   OH259158   2.444   6.161  13.815  0.1279  0.2341  0.0131
12556TIP3    H159159   2.500   6.188  13.888 -0.6391  2.3948 -0.1312
12556TIP3    H259160   2.355   6.166  13.850 -0.1104 -2.8229  0.1262
12557TIP3   OH259161   3.244   2.316  14.226  0.4036 -0.2108  0.3230
12557TIP3    H159162   3.210   2.369  14.154 -0.0429  0.4964  1.0382
12557TIP3    H259163   3.167   2.296  14.279  0.3170 -2.7166 -0.6181
12558TIP3   OH259164   2.955   6.576  11.214 -0.3624  0.0058 -0.4967
12558TIP3    H159165   2.913   6.593  11.299 -0.8969  0.7272 -0.8956
12558TIP3    H259166   3.007   6.498  11.229 -0.6076  0.0069  0.4500
12559TIP3   OH259167   1.920   6.818   0.719  0.1895  0.2085 -0.6699
12559TIP3    H159168   2.012   6.806   0.698  0.4110  1.1627 -0.3006
12559TIP3    H259169   1.911   6.780   0.806  0.3331  0.4843 -0.5323
12560TIP3   OH259170   5.381   6.119  14.543  0.4556  0.4119 -0.2392
12560TIP3    H159171   5.401   6.179  14.615  1.4525 -1.7362  1.3787
12560TIP3    H259172   5.290   6.091  14.559 -0.1625  1.7353 -1.2410
12561TIP3   OH259173   0.013   4.726  12.718  0.4517  0.1122 -0.0716
12561TIP3    H159174  -0.044   4.803  12.717  0.7194  0.3076 -0.3789
12561TIP3    H259175   0.014   4.698  12.810 -1.0928 -0.5968 -0.2422
12562TIP3   OH259176   3.464   2.380  14.788  0.0356  0.0631 -0.2973
12562TIP3    H159177   3.485   2.288  14.777 -2.0311 -0.8057  2.1640
12562TIP3    H259178   3.384   2.392  14.737 -2.8582 -1.0490  3.5498
12563TIP3   OH259179   5.878   4.785   3.813  0.5628  0.1681 -0.1704
12563TIP3    H159180   5.930   4.847   3.865  1.0850 -0.9489  0.6698
12563TIP3    H259181   5.861   4.712   3.873 -0.5839 -0.2213 -0.9503
12564TIP3   OH259182   1.420   6.126  12.360  0.0933 -0.2714 -0.0244
12564TIP3    H159183   1.409   6.206  12.309 -2.7488 -1.9321 -2.3326
12564TIP3    H259184   1.409   6.154  12.451 -2.2551  1.8501 -0.8338
12565TIP3   OH259185   6.124   4.519  10.467  0.2341  0.4897 -0.5441
12565TIP3    H159186   6.209   4.556  10.489 -0.7572  2.0441  0.8453
12565TIP3    H259187   6.117   4.440  10.521  0.6872  0.4739 -0.5091
12566TIP3   OH259188   0.912   0.911   2.892  0.1387 -0.2755 -0.3437
12566TIP3    H159189   0.844   0.877   2.950 -0.4457  0.1675 -0.7608
12566TIP3    H259190   0.875   0.991   2.855  0.9401  0.0412 -0.4796
12567TIP3   OH259191   3.871   6.188   0.723  0.0946 -0.6579  0.0698
12567TIP3    H159192   3.864   6.175   0.818 -1.9909  1.9835  0.3847
12567TIP3    H259193   3.949   6.243   0.712 -0.3609  0.0840  0.4347
12568TIP3   OH259194   0.968   5.846  12.074  0.0027  0.7246  0.4797
12568TIP3    H159195   0.939   5.812  12.158  0.8816  1.1162  0.9546
12568TIP3    H259196   0.889   5.881  12.033 -0.5886 -0.2759  0.7517
12569TIP3   OH259197   1.893   5.394  16.867 -0.0001  0.3940  0.3091
12569TIP3    H159198   1.810   5.441  16.859 -0.8614 -0.7274  1.9594
12569TIP3    H259199   1.922   5.380  16.777 -1.7850  0.5052 -0.3109
12570TIP3   OH259200   2.674   0.035  11.685  0.4667  0.4240  0.2520
12570TIP3    H159201   2.710  -0.008  11.607  0.4462 -0.5170  0.7526
12570TIP3    H259202   2.624   0.109  11.650  0.9335  0.3553 -0.5937
12571TIP3   OH259203   0.405   1.627  13.127  0.5245 -0.2324  0.4341
12571TIP3    H159204   0.473   1.567  13.096  0.7802 -0.2361  0.9896
12571TIP3    H259205   0.416   1.705  13.074 -0.7458 -1.1887 -1.3175
12572TIP3   OH259206   2.835   0.989   3.116 -0.4390 -0.2722  0.0063
12572TIP3    H159207   2.854   1.033   3.033 -2.7003 -0.1598 -0.5154
12572TIP3    H259208   2.798   1.058   3.171 -2.4088 -1.0955 -0.2214
12573TIP3   OH259209   5.606   1.088  16.675  0.5164  0.1883 -0.0540
12573TIP3    H159210   5.607   1.041  16.758  0.9499  1.0841  0.4616
12573TIP3    H259211   5.691   1.133  16.673 -0.3615  1.8911  0.0160
12574TIP3   OH259212   1.680   4.211  17.183 -0.3263  0.0774 -0.0420
12574TIP3    H159213   1.632   4.156  17.122  0.2053 -0.9396  0.4204
12574TIP3    H259214   1.613   4.249  17.239 -0.8526  1.3088 -1.4485
12575TIP3   OH259215   3.220   2.080   4.223  0.0108 -0.4057 -0.5996
12575TIP3    H159216   3.158   2.015   4.189 -0.5754 -1.1984  1.8125
12575TIP3    H259217   3.301   2.031   4.237 -0.5257 -0.7691  1.5242
12576TIP3   OH259218   0.671   6.618   3.781  0.0260  0.2309  0.2722
12576TIP3    H159219   0.761   6.640   3.756 -0.1840  1.7777  0.7672
12576TIP3    H259220   0.633   6.701   3.809 -2.0451 -0.0936 -1.3425
12577TIP3   OH259221   5.246   6.322  16.025  0.0355 -0.8355  0.3274
12577TIP3    H159222   5.288   6.256  15.970 -3.0269 -1.9125 -0.9454
12577TIP3    H259223   5.243   6.401  15.971  2.5540  0.1198  1.3920
12578TIP3   OH259224   1.855   3.868  14.369 -0.0479 -0.4157  0.0161
12578TIP3    H159225   1.885   3.866  14.278 -2.3559  1.4452 -0.9081
12578TIP3    H259226   1.917   3.926  14.414  0.4487 -0.4312 -0.6374
12579TIP3   OH259227   6.098   3.592   1.138 -0.5824 -0.2321 -0.3559
12579TIP3    H159228   6.156   3.526   1.175 -1.3142  0.3241  1.9060
12579TIP3    H259229   6.013   3.550   1.133 -0.9147  0.3138  0.4954
12580TIP3   OH259230   6.038   1.254   1.723 -0.8308 -0.3764  0.5001
12580TIP3    H159231   6.057   1.161   1.740 -0.3914 -0.2056  0.9854
12580TIP3    H259232   6.058   1.266   1.630 -0.7626 -0.7431  0.4658
12581TIP3   OH259233   4.576   2.246   3.791  0.3870 -0.1732 -0.0322
12581TIP3    H159234   4.522   2.299   3.733  0.5233 -0.3490 -0.3273
12581TIP3    H259235   4.665   2.256   3.756  0.9956  2.1296  1.9118
12582TIP3   OH259236   0.962   3.542   1.030 -0.2305 -0.3485  0.3886
12582TIP3    H159237   1.013   3.581   1.101 -0.9267  0.3854  0.4965
12582TIP3    H259238   0.941   3.454   1.062  0.9899 -0.6904  0.3164
12583TIP3   OH259239   6.365   3.960   0.387 -0.5514  0.3080  0.2139
12583TIP3    H159240   6.410   4.031   0.341 -0.7040  0.4974  0.3523
12583TIP3    H259241   6.363   3.888   0.324  2.4688 -0.7255  1.1330
12584TIP3   OH259242   4.859   0.583  16.100  0.6600 -0.1458 -0.4736
12584TIP3    H159243   4.831   0.493  16.084  0.7518  0.2236 -3.2295
12584TIP3    H259244   4.929   0.575  16.165  0.0806 -1.9503 -0.0078
12585TIP3   OH259245   4.178   1.019  16.234 -0.3589 -0.1286  0.4601
12585TIP3    H159246   4.116   1.092  16.224 -0.4597 -0.0588  1.5004
12585TIP3    H259247   4.175   0.974  16.150  0.0396  1.3270 -0.3853
12586TIP3   OH259248   0.145   2.024  16.455  0.3091  0.3510 -0.6001
12586TIP3    H159249   0.217   1.978  16.498 -0.8328  0.2974  1.3415
12586TIP3    H259250   0.102   1.957  16.403  0.1207 -0.2381  0.2874
12587TIP3   OH259251   0.747   0.291  17.113 -0.2282  0.1636  0.3726
12587TIP3    H159252   0.733   0.279  17.020 -0.6966  0.6572  0.3727
12587TIP3    H259253   0.841   0.275  17.126 -0.1820 -0.0085 -0.1626
12588TIP3   OH259254   1.002   3.151   0.251  0.2080  0.2420  0.0068
12588TIP3    H159255   1.039   3.069   0.220  0.6713  0.2107  0.6217
12588TIP3    H259256   1.058   3.177   0.324  0.7281  1.6645 -0.8504
12589TIP3   OH259257   2.159   1.947  12.291 -0.5778 -0.4702 -0.1559
12589TIP3    H159258   2.101   1.926  12.363  0.0211 -0.5877  0.3039
12589TIP3    H259259   2.128   2.031  12.258 -0.0714  0.2199  1.0831
12590TIP3   OH259260   2.657   5.901   5.135  0.1180 -0.0977 -0.2499
12590TIP3    H159261   2.624   5.991   5.130 -0.2522 -0.1902  0.3850
12590TIP3    H259262   2.743   5.910   5.174 -0.7652 -0.1767  1.8318
12591TIP3   OH259263   6.500   2.997  17.115  0.2202 -0.0563 -0.5119
12591TIP3    H159264   6.443   3.074  17.105  0.9994  0.2372 -3.4044
12591TIP3    H259265   6.529   3.001  17.206 -2.1360  1.3546  0.2622
12592TIP3   OH259266   3.273   0.595  12.601  0.4154 -0.0347 -0.0454
12592TIP3    H159267   3.181   0.610  12.580  0.6623  1.9358  0.0186
12592TIP3    H259268   3.286   0.641  12.685  1.3141 -0.8486  0.2839
12593TIP3   OH259269   2.297   2.575   4.452  0.0225 -0.4404 -0.0026
12593TIP3    H159270   2.255   2.660   4.436 -2.3072 -1.4528  0.3416
12593TIP3    H259271   2.383   2.583   4.410 -0.3941  1.8372 -0.5702
12594TIP3   OH259272   5.780   5.870  12.046 -0.3605  0.2078 -0.5907
12594TIP3    H159273   5.771   5.777  12.066  0.4095  0.2563  0.0451
12594TIP3    H259274   5.777   5.874  11.950 -0.6161 -0.4397 -0.6194
12595TIP3   OH259275   2.641   1.175   2.261 -0.3101 -0.2084  0.1557
12595TIP3    H159276   2.603   1.197   2.176 -0.4004  2.1188  0.7392
12595TIP3    H259277   2.637   1.079   2.264  0.5958 -0.4600 -2.8427
12596TIP3   OH259278   1.692   2.884  11.810 -0.0563  0.3442 -0.1486
12596TIP3    H159279   1.645   2.928  11.739  0.3698 -0.5065 -0.9898
12596TIP3    H259280   1.763   2.837  11.766 -0.6975 -1.4515  0.6397
12597TIP3   OH259281   1.616   4.777   2.424 -0.4641 -0.4745  0.0867
12597TIP3    H159282   1.558   4.813   2.356 -0.1214  0.7238  0.3950
12597TIP3    H259283   1.557   4.740   2.489 -0.9587  1.1233  0.6138
12598TIP3   OH259284   6.361   3.642   5.052 -0.4207 -0.2179 -0.5935
12598TIP3    H159285   6.348   3.570   5.115  0.6343  0.2393  0.1775
12598TIP3    H259286   6.456   3.648   5.042 -0.5272  0.6220 -1.1843
12599TIP3   OH259287   1.121   4.174   3.402  0.4618  0.1236  0.2002
12599TIP3    H159288   1.061   4.109   3.439  0.3951 -0.0290 -0.1694
12599TIP3    H259289   1.180   4.196   3.474 -0.0227  0.2632  0.5659
12600TIP3   OH259290   1.510   4.354  14.276  0.1618  0.0766  0.4778
12600TIP3    H159291   1.454   4.283  14.306  0.3808  0.5953  2.2555
12600TIP3    H259292   1.584   4.310  14.234 -0.0312 -0.7288  0.9586
12601TIP3   OH259293   1.300   4.056   4.110  0.2491  0.3426  0.4926
12601TIP3    H159294   1.218   4.078   4.155 -1.0066  0.4437 -1.7271
12601TIP3    H259295   1.302   4.113   4.034  1.0157 -1.5379 -0.9717
12602TIP3   OH259296   2.336   4.377  11.502  0.0699  0.6605  0.1626
12602TIP3    H159297   2.327   4.472  11.511 -2.7047  0.3739  1.4469
12602TIP3    H259298   2.261   4.350  11.449  1.7386 -0.7173 -1.6944
12603TIP3   OH259299   2.190   2.700  10.988 -0.1507 -0.0252  0.4282
12603TIP3    H159300   2.282   2.706  10.961  0.0183 -1.3267  0.6618
12603TIP3    H259301   2.168   2.787  11.020  0.6820  0.5979 -0.6370
12604TIP3   OH259302   2.576   4.963   2.985  0.1643 -0.2487 -0.0029
12604TIP3    H159303   2.499   4.959   2.928 -1.0802 -0.2781  1.5940
12604TIP3    H259304   2.562   4.894   3.049  0.6500  0.8695  1.3574
12605TIP3   OH259305   3.338   4.342   4.628 -0.1150  0.3071 -0.5496
12605TIP3    H159306   3.411   4.375   4.679  2.8266 -1.8914 -2.9884
12605TIP3    H259307   3.331   4.250   4.651  0.6130 -0.4828 -3.1390
12606TIP3   OH259308   3.209   4.948  14.587  0.0289 -0.2814  0.0771
12606TIP3    H159309   3.159   4.868  14.575  0.8881 -1.0427  1.2836
12606TIP3    H259310   3.255   4.935  14.670  0.2199  1.4483  0.2816
12607TIP3   OH259311   6.456   2.419   2.745 -0.7422  0.6452 -0.2368
12607TIP3    H159312   6.431   2.334   2.780 -1.3793 -0.0628 -2.2457
12607TIP3    H259313   6.374   2.468   2.740 -0.2807  1.6580  1.5236
12608TIP3   OH259314   2.265   2.513   5.002 -0.1811  0.0911 -0.1878
12608TIP3    H159315   2.343   2.457   4.992  0.1953  0.5758 -0.0009
12608TIP3    H259316   2.258   2.558   4.918 -0.3527 -0.0701 -0.2597
12609TIP3   OH259317   0.688   4.211  11.781  0.0698  0.0051 -0.0447
12609TIP3    H159318   0.680   4.192  11.688 -0.9634 -0.6711  0.1636
12609TIP3    H259319   0.618   4.161  11.822  0.9815 -0.3079  1.1838
12610TIP3   OH259320   5.897   0.279   0.824  0.4777 -0.0837  0.1818
12610TIP3    H159321   5.917   0.340   0.752 -1.7292  1.0196  0.4395
12610TIP3    H259322   5.965   0.211   0.817  1.4917  1.0407 -1.6997
12611TIP3   OH259323   6.568   3.768  15.510  1.1661  0.0434 -0.0120
12611TIP3    H159324   6.587   3.752  15.418  0.5133  1.3023 -0.3888
12611TIP3    H259325   6.574   3.682  15.551  0.1598 -0.7732 -1.4674
12612TIP3   OH259326   6.381   2.114  11.712  0.2655  0.2319 -0.2046
12612TIP3    H159327   6.351   2.194  11.755  0.9630  0.1266  0.5034
12612TIP3    H259328   6.373   2.133  11.618  0.8724  1.3193 -0.0545
12613TIP3   OH259329   0.935   0.653  15.917  0.4264  0.3833  0.1195
12613TIP3    H159330   0.907   0.593  15.986 -0.9833  0.1776 -0.5842
12613TIP3    H259331   1.030   0.657  15.925  0.3576 -0.2406  1.5603
12614TIP3   OH259332   4.639   6.710  15.340 -0.2355  0.2065  0.4660
12614TIP3    H159333   4.682   6.757  15.269 -0.7283 -1.3941 -0.9762
12614TIP3    H259334   4.568   6.768  15.369  0.5181  1.2511  0.2704
12615TIP3   OH259335   5.168   2.057  14.962  0.7942  0.1735  0.1029
12615TIP3    H159336   5.174   2.146  14.997 -1.0627 -0.1280  1.3219
12615TIP3    H259337   5.137   2.069  14.872 -0.7678  0.7457  0.6860
12616TIP3   OH259338   0.038   0.593  16.232 -0.9460 -0.2749  0.5904
12616TIP3    H159339   0.034   0.682  16.267 -0.8781 -0.4022  0.9279
12616TIP3    H259340   0.080   0.542  16.302 -0.1506 -0.3896  0.0406
12617TIP3   OH259341   1.034   1.480   4.454 -0.2269 -0.0961 -0.3514
12617TIP3    H159342   1.093   1.405   4.446 -1.3423 -0.9321 -1.2589
12617TIP3    H259343   1.060   1.538   4.383 -0.7530 -0.6720 -1.0327
12618TIP3   OH259344   4.369   5.177   1.151  0.4050  0.4001 -0.3226
12618TIP3    H159345   4.428   5.252   1.162  0.4896  0.5839 -1.8238
12618TIP3    H259346   4.296   5.212   1.100  0.3154 -0.4654 -0.7931
12619TIP3   OH259347   4.340   4.487   3.240 -0.3421 -0.1396  0.2423
12619TIP3    H159348   4.345   4.577   3.208 -1.2740 -0.6142 -1.3239
12619TIP3    H259349   4.292   4.493   3.322  0.1875  0.8527  0.5009
12620TIP3   OH259350   1.608   6.272  11.863 -0.2609  0.7089  0.3380
12620TIP3    H159351   1.515   6.286  11.847 -0.1139  1.1742 -0.1122
12620TIP3    H259352   1.636   6.212  11.793 -0.2276  0.5413  0.4926
12621TIP3   OH259353   1.877   2.510   3.485  0.3067  0.1190  0.1360
12621TIP3    H159354   1.892   2.577   3.551 -1.3691  0.8832 -0.1992
12621TIP3    H259355   1.865   2.429   3.534  2.0114  0.0876  0.5629
12622TIP3   OH259356   6.095   1.695  12.328  0.6214 -0.4778 -0.3421
12622TIP3    H159357   6.118   1.742  12.408 -2.0329 -0.6009  0.5852
12622TIP3    H259358   6.108   1.759  12.258 -1.7222  1.3303  0.7540
12623TIP3   OH259359   4.448   6.772   1.918  0.1839  0.8884  0.1136
12623TIP3    H159360   4.428   6.738   2.006  1.2240  0.6604  0.2713
12623TIP3    H259361   4.368   6.754   1.867  0.6573 -1.8620  0.1596
12624TIP3   OH259362   2.453   0.467  14.409  0.7410 -0.2006 -0.9333
12624TIP3    H159363   2.407   0.539  14.365 -0.3215 -0.0882  0.2754
12624TIP3    H259364   2.396   0.391  14.396  0.2616 -0.1074  0.4017
12625TIP3   OH259365   0.642   6.550   1.940 -0.3405  0.1774  0.3317
12625TIP3    H159366   0.684   6.527   2.023 -0.5081 -1.8516 -0.0806
12625TIP3    H259367   0.709   6.597   1.891  0.6212 -0.7781  0.6805
12626TIP3   OH259368   0.678   5.662   0.244 -1.0939 -0.1940  0.2473
12626TIP3    H159369   0.662   5.568   0.255 -2.3022 -0.3667 -2.2935
12626TIP3    H259370   0.765   5.666   0.203 -0.8038 -0.1451  0.8539
12627TIP3   OH259371   6.816   2.713  10.818 -0.3235  0.1330 -0.2211
12627TIP3    H159372   6.838   2.655  10.745  0.3326 -1.4946  1.2190
12627TIP3    H259373   6.721   2.705  10.826 -0.4017  0.3171 -0.8628
12628TIP3   OH259374   2.084   3.633  15.527 -0.0999 -0.2075 -0.3506
12628TIP3    H159375   2.166   3.659  15.569  1.1203 -0.2438 -2.5764
12628TIP3    H259376   2.103   3.549  15.486 -0.8413  0.3549 -1.9376
12629TIP3   OH259377   3.551   4.352  13.919  0.0578  0.4086  0.0867
12629TIP3    H159378   3.526   4.437  13.882 -0.4531  1.0439  1.7434
12629TIP3    H259379   3.643   4.362  13.943  0.1588  0.2936 -0.2587
12630TIP3   OH259380   3.761   5.483  13.729 -0.2138 -0.1040  0.3335
12630TIP3    H159381   3.774   5.433  13.649  0.2500 -0.8960  0.8903
12630TIP3    H259382   3.745   5.417  13.796 -1.5949  0.5870  0.7258
12631TIP3   OH259383   1.543   4.478   2.236  1.1806 -0.6291  0.4129
12631TIP3    H159384   1.461   4.479   2.285  0.9483  1.0359  0.0340
12631TIP3    H259385   1.601   4.422   2.288  0.4838 -0.0609  1.8475
12632TIP3   OH259386   4.186   2.438  14.617  0.4852 -0.4052  0.9440
12632TIP3    H159387   4.157   2.349  14.636  2.6905 -1.4879 -0.4217
12632TIP3    H259388   4.247   2.459  14.688  1.5092 -0.7860  0.1872
12633TIP3   OH259389   4.731   5.727  12.154  0.4125  0.0834  0.2357
12633TIP3    H159390   4.694   5.806  12.194  1.5211 -0.1059  1.7384
12633TIP3    H259391   4.802   5.759  12.098  0.9498  0.1583  0.9494
12634TIP3   OH259392   3.455   3.783   2.555 -0.5021  0.2334 -0.4391
12634TIP3    H159393   3.466   3.691   2.533 -1.1672 -0.5958  2.2527
12634TIP3    H259394   3.360   3.796   2.560 -0.4439  0.2844  1.7148
12635TIP3   OH259395   4.152   1.865  11.057  0.1799 -0.3994 -0.3137
12635TIP3    H159396   4.246   1.870  11.040  0.2133 -0.8898 -0.2980
12635TIP3    H259397   4.125   1.956  11.071  0.6407 -0.2504 -0.3739
12636TIP3   OH259398   2.155   5.471  16.265  0.1149  0.0715  0.3155
12636TIP3    H159399   2.169   5.520  16.347  2.3425  2.5583 -1.3487
12636TIP3    H259400   2.086   5.519  16.220 -1.7859 -1.8525  1.0328
12637TIP3   OH259401   3.827   0.775  12.322 -0.2024 -0.2172  0.1278
12637TIP3    H159402   3.885   0.777  12.246 -0.4280 -2.5804 -0.2007
12637TIP3    H259403   3.758   0.713  12.297 -0.4545 -0.8087  2.1146
12638TIP3   OH259404   6.248   4.095  15.101  0.4913 -0.1735  0.8890
12638TIP3    H159405   6.176   4.042  15.136 -1.0099  0.7638 -0.6165
12638TIP3    H259406   6.239   4.088  15.006  4.1923 -2.3270  0.5397
12639TIP3   OH259407   4.275   3.068   2.479 -0.7039  0.3116  0.0628
12639TIP3    H159408   4.269   3.114   2.395 -0.8849  1.2506  0.5795
12639TIP3    H259409   4.338   3.120   2.530 -0.1200 -0.6024  0.2938
12640TIP3   OH259410   6.753   0.999   4.515 -0.5470  0.1322 -0.6018
12640TIP3    H159411   6.777   0.929   4.577  0.2883  0.2368 -0.7902
12640TIP3    H259412   6.790   0.970   4.432  2.2751  2.0257 -0.1559
12641TIP3   OH259413   6.381   3.215  12.622  0.0933 -0.6558 -0.1379
12641TIP3    H159414   6.311   3.150  12.627 -1.1123  0.6221  0.2952
12641TIP3    H259415   6.383   3.241  12.529 -2.9502  2.2720  0.4121
12642TIP3   OH259416   3.950   2.852   0.674  0.0118  0.1727  0.5807
12642TIP3    H159417   3.910   2.852   0.760  0.4490  1.7749  0.8162
12642TIP3    H259418   4.044   2.844   0.691 -0.0192 -2.2067  0.0909
12643TIP3   OH259419   6.321   0.945   4.850  0.1700 -0.4699  0.2458
12643TIP3    H159420   6.288   0.916   4.764  1.8372 -0.0262 -0.5860
12643TIP3    H259421   6.251   1.000   4.885  0.0192  0.5601 -1.5110
12644TIP3   OH259422   6.240   3.362   5.001  0.0657  0.0770  0.1440
12644TIP3    H159423   6.263   3.354   4.908  2.8753 -1.3496  0.8387
12644TIP3    H259424   6.311   3.317   5.047  0.4646  3.3118  3.1594
12645TIP3   OH259425   1.696   1.946   1.713  0.1532 -0.1015  0.1293
12645TIP3    H159426   1.784   1.978   1.729  0.9480 -1.5860 -1.0272
12645TIP3    H259427   1.672   1.982   1.628  0.6020 -1.5538 -0.6441
12646TIP3   OH259428   1.599   5.537  12.894  0.1611 -0.0559  0.3792
12646TIP3    H159429   1.679   5.586  12.880 -0.4437  0.3031 -2.3501
12646TIP3    H259430   1.627   5.446  12.902  0.8095 -0.4048 -3.7022
12647TIP3   OH259431   1.810   1.712   1.822  0.1683 -0.6569  0.6912
12647TIP3    H159432   1.862   1.755   1.890 -1.6156  0.2834  1.5298
12647TIP3    H259433   1.764   1.784   1.778 -0.4693 -1.4636  0.0090
12648TIP3   OH259434   5.752   1.262   5.136  0.3469 -0.5554  0.3667
12648TIP3    H159435   5.678   1.233   5.189  0.3550 -2.5650 -0.6245
12648TIP3    H259436   5.713   1.293   5.054  0.4580  0.8687  0.8247
12649TIP3   OH259437   1.857   6.023   4.954 -0.1705 -0.0782 -0.5130
12649TIP3    H159438   1.805   6.100   4.931 -2.0252 -1.3497 -0.7826
12649TIP3    H259439   1.884   5.986   4.870 -1.0365 -0.8421 -0.4717
12650TIP3   OH259440   4.822   6.035   0.080 -0.1704 -0.6712  0.0803
12650TIP3    H159441   4.828   6.097   0.007 -0.8564 -2.1124 -1.2396
12650TIP3    H259442   4.736   5.995   0.071 -0.3172 -0.8021  1.7709
12651TIP3   OH259443   3.717   4.595  12.722  0.2149 -0.0889 -0.2681
12651TIP3    H159444   3.782   4.651  12.680 -0.8359  1.1569 -0.2756
12651TIP3    H259445   3.769   4.529  12.769  1.4497  0.1323 -1.2641
12652TIP3   OH259446   4.201   1.509  11.844  0.1049  0.1894  0.2289
12652TIP3    H159447   4.115   1.467  11.838  0.1064  0.2758 -0.4109
12652TIP3    H259448   4.256   1.458  11.785  0.4600  0.2231  0.5319
12653TIP3   OH259449   4.900   3.352  14.981 -0.2201 -0.0866  0.1677
12653TIP3    H159450   4.842   3.299  14.926 -0.1029 -0.4080  0.3475
12653TIP3    H259451   4.955   3.287  15.026 -0.3878  0.1629  0.7408
12654TIP3   OH259452   0.530   1.597  15.200  0.1125  0.1837  0.1534
12654TIP3    H159453   0.519   1.570  15.291 -1.2211 -0.8106 -0.2696
12654TIP3    H259454   0.620   1.629  15.194  1.2483 -2.6153  1.1087
12655TIP3   OH259455   4.720   3.075  17.137  0.2779  0.1243  0.4947
12655TIP3    H159456   4.726   3.168  17.114  1.8056  0.4136  1.8506
12655TIP3    H259457   4.811   3.049  17.153 -0.0636 -1.7559 -0.3477
12656TIP3   OH259458   6.127   4.077  13.093 -0.3922  0.3616 -0.5549
12656TIP3    H159459   6.216   4.050  13.115 -0.4803  0.3446 -0.2057
12656TIP3    H259460   6.116   4.162  13.137 -0.9465 -0.1855  0.4059
12657TIP3   OH259461   5.565   4.965   0.906  0.4216  0.0145  0.4033
12657TIP3    H159462   5.630   4.908   0.865 -0.4368 -0.1924 -0.7234
12657TIP3    H259463   5.539   5.026   0.836 -1.1572 -0.4156  0.5710
12658TIP3   OH259464   5.313   5.877   3.500 -0.0675 -0.2159  0.2098
12658TIP3    H159465   5.327   5.965   3.465 -1.4929  0.1408  0.4597
12658TIP3    H259466   5.259   5.890   3.577 -3.7308 -1.5246 -1.8837
12659TIP3   OH259467   0.253   6.561  15.221 -0.1753  0.0242  0.6340
12659TIP3    H159468   0.287   6.592  15.137  0.0388  0.3320  0.8328
12659TIP3    H259469   0.282   6.470  15.227 -1.6188 -0.5343 -0.3880
12660TIP3   OH259470   3.172   2.195  16.456  0.0941 -0.8787 -0.7929
12660TIP3    H159471   3.182   2.227  16.367 -3.0678 -2.7283 -1.9751
12660TIP3    H259472   3.258   2.159  16.478  1.7136  1.9773 -1.9807
12661TIP3   OH259473   4.141   3.437   5.391 -0.2861  0.4558  0.9512
12661TIP3    H159474   4.211   3.390   5.344  1.0933 -0.3395  3.6027
12661TIP3    H259475   4.068   3.440   5.329  1.0081 -1.5610 -0.7921
12662TIP3   OH259476   3.237   2.005   3.184 -0.0677  0.4995 -0.0123
12662TIP3    H159477   3.259   2.066   3.114 -1.5287 -0.4348 -1.3583
12662TIP3    H259478   3.147   2.026   3.207 -0.5064 -0.9187 -0.3153
12663TIP3   OH259479   0.897   2.298  13.165 -0.3678 -0.0623  0.1289
12663TIP3    H159480   0.877   2.379  13.118 -0.2395 -0.2209 -0.1997
12663TIP3    H259481   0.846   2.304  13.246 -0.2449  0.4171  0.1773
12664TIP3   OH259482   0.230   4.747   5.104 -0.5936  0.3636 -0.2710
12664TIP3    H159483   0.146   4.710   5.133 -0.3103 -0.4375 -0.4522
12664TIP3    H259484   0.293   4.718   5.170 -0.1329 -0.5718 -1.1053
12665TIP3   OH259485   6.708   5.735  12.845  0.1462  0.7377 -0.6042
12665TIP3    H159486   6.644   5.683  12.799 -0.0676 -0.6061  1.1002
12665TIP3    H259487   6.687   5.723  12.938  2.1942  1.1041 -0.0347
12666TIP3   OH259488   0.117   6.586   2.650  0.2321 -0.0766 -0.0211
12666TIP3    H159489   0.022   6.583   2.639  0.2918 -1.4662 -0.3653
12666TIP3    H259490   0.131   6.604   2.743 -0.3399  2.1928 -0.3334
12667TIP3   OH259491   0.013   2.963  12.217 -0.1881 -0.0001 -0.4495
12667TIP3    H159492  -0.062   3.002  12.263 -0.4010  1.0437 -1.6135
12667TIP3    H259493   0.034   2.885  12.268 -0.1897  1.2647  1.6119
12668TIP3   OH259494   2.955   4.444  13.248  0.1420 -0.4780 -0.2625
12668TIP3    H159495   2.860   4.441  13.260  0.2406 -2.3194  0.2673
12668TIP3    H259496   2.978   4.536  13.265 -1.6727  0.2850 -1.6179
12669TIP3   OH259497   2.426   2.796   6.447 -0.3484  0.4081  0.1893
12669TIP3    H159498   2.512   2.770   6.412 -0.2218  1.2047 -0.1045
12669TIP3    H259499   2.446   2.842   6.528 -0.5047  0.5048  0.1728
12670TIP3   OH259500   0.321   5.950   3.460  0.4727  0.0068 -0.4460
12670TIP3    H159501   0.353   6.019   3.402 -1.6675  1.3377 -0.1533
12670TIP3    H259502   0.226   5.965   3.466 -0.3932 -3.7744 -1.4615
12671TIP3   OH259503   0.459   0.749  16.699  0.0305  0.0973  0.1982
12671TIP3    H159504   0.524   0.728  16.766 -0.0962 -1.7439 -0.1998
12671TIP3    H259505   0.400   0.674  16.699 -0.9530  0.8359 -0.8302
12672TIP3   OH259506   1.574   0.160  12.744 -0.3273  0.3448 -0.5988
12672TIP3    H159507   1.645   0.204  12.789 -0.6387 -0.2561  0.5316
12672TIP3    H259508   1.611   0.133  12.660  1.0204 -0.5964  0.2501
12673TIP3   OH259509   4.180   6.133   4.983 -0.7705  0.4568  0.3205
12673TIP3    H159510   4.216   6.064   5.040  1.5426  2.8117  1.9675
12673TIP3    H259511   4.232   6.127   4.903  0.4289  1.1034  1.0138
12674TIP3   OH259512   5.749   4.214   0.980 -0.0126 -0.2348  0.3389
12674TIP3    H159513   5.781   4.302   0.961 -0.6544 -0.4709 -2.1110
12674TIP3    H259514   5.820   4.174   1.031  0.0193  1.8577  2.0608
12675TIP3   OH259515   5.224   1.257   5.082 -0.4761  0.9022  0.5357
12675TIP3    H159516   5.264   1.254   4.995  1.0438  1.6957  1.1729
12675TIP3    H259517   5.205   1.349   5.096 -2.0459  0.6031  0.4903
12676TIP3   OH259518   1.038   5.524  17.009  0.0202 -0.0719  0.1041
12676TIP3    H159519   1.030   5.504  17.102 -0.2460  0.8744  0.2971
12676TIP3    H259520   1.130   5.547  16.997  0.6136 -2.4435 -0.3562
12677TIP3   OH259521   3.698   2.787  16.659 -0.4768  0.2249  0.1670
12677TIP3    H159522   3.633   2.731  16.702  0.8306 -1.2544  0.3064
12677TIP3    H259523   3.763   2.726  16.625 -0.0515  1.5515 -1.5326
12678TIP3   OH259524   5.634   3.514   5.512  0.1526  0.0316 -0.1044
12678TIP3    H159525   5.559   3.555   5.555  0.2279  1.4745 -1.3030
12678TIP3    H259526   5.708   3.569   5.536  0.0740  1.4100 -2.6803
12679TIP3   OH259527   5.121   2.506   4.494 -0.0769 -0.3254 -0.3084
12679TIP3    H159528   5.118   2.523   4.588  0.7091  0.0310 -0.3388
12679TIP3    H259529   5.185   2.435   4.484 -0.7098 -0.8799 -0.5117
12680TIP3   OH259530   2.534   6.451  13.525 -0.4644  0.4828 -0.2555
12680TIP3    H159531   2.494   6.453  13.438  0.9573  0.4099 -0.9415
12680TIP3    H259532   2.622   6.415  13.510 -0.9991 -1.8825  1.5533
12681TIP3   OH259533   0.637   3.947   1.636  0.2885 -0.0230  0.3849
12681TIP3    H159534   0.579   3.882   1.596  0.5599 -0.6357  0.9738
12681TIP3    H259535   0.684   3.985   1.562  0.8488 -1.2059  0.1105
12682TIP3   OH259536   1.561   5.954   5.116  0.2319  0.6310  0.2766
12682TIP3    H159537   1.588   5.892   5.183  1.7765  0.6406 -0.2996
12682TIP3    H259538   1.624   6.026   5.123 -0.0963  1.0201 -0.6400
12683TIP3   OH259539   5.027   4.294   1.895 -0.0071  0.4303 -0.1897
12683TIP3    H159540   5.039   4.199   1.893 -1.5216  0.2224 -1.6320
12683TIP3    H259541   5.062   4.321   1.980  1.7969 -1.1989 -0.3277
12684TIP3   OH259542   1.606   2.028  10.665  0.2046 -0.5294  0.1120
12684TIP3    H159543   1.517   2.032  10.632  0.2931  1.1074 -0.0136
12684TIP3    H259544   1.622   2.115  10.702  2.4530 -0.0435 -1.7499
12685TIP3   OH259545   2.224   0.101  16.940 -0.1227  0.5104  0.6004
12685TIP3    H159546   2.186   0.041  17.004 -1.9386  1.6457  0.6597
12685TIP3    H259547   2.317   0.108  16.965 -0.4722 -0.1946  2.1969
12686TIP3   OH259548   5.162   0.299   0.694 -0.7976  0.2741  0.1400
12686TIP3    H159549   5.205   0.384   0.686 -1.1741  0.6063  1.4350
12686TIP3    H259550   5.176   0.274   0.786 -1.3889 -0.6820 -0.0252
12687TIP3   OH259551   2.282   6.227   0.795 -0.1571 -0.1925 -0.4963
12687TIP3    H159552   2.194   6.259   0.777  0.8300  1.7709 -2.3002
12687TIP3    H259553   2.327   6.301   0.835  1.9074  0.4879 -3.7626
12688TIP3   OH259554   0.072   1.121   0.875 -1.1681  0.3600 -0.4708
12688TIP3    H159555   0.138   1.101   0.809 -0.8274  2.6373 -0.8972
12688TIP3    H259556   0.099   1.205   0.912 -1.4721 -0.7221  2.4583
12689TIP3   OH259557   4.005   3.744   2.686  0.7529  0.3709 -0.0820
12689TIP3    H159558   4.029   3.672   2.628  1.7460  1.1206 -0.6281
12689TIP3    H259559   4.089   3.786   2.708  0.3881  0.1887  1.7872
12690TIP3   OH259560   6.610   4.578  13.071  0.1089  0.6787 -0.0880
12690TIP3    H159561   6.522   4.546  13.092  0.1102  0.5294 -0.3022
12690TIP3    H259562   6.608   4.671  13.094  0.2741  0.4189  1.0490
12691TIP3   OH259563   3.217   6.775  15.438 -0.4129 -0.1635  0.1153
12691TIP3    H159564   3.180   6.862  15.451  1.2465  0.3707  1.7738
12691TIP3    H259565   3.265   6.757  15.519 -0.2516 -2.3998 -0.4127
12692TIP3   OH259566   0.323   4.767  15.052 -0.1363 -0.3760  0.1835
12692TIP3    H159567   0.418   4.763  15.059 -0.1595 -0.5439  0.4325
12692TIP3    H259568   0.292   4.719  15.128 -0.4229  0.0090  0.3146
12693TIP3   OH259569   6.730   2.233   5.756  0.6378 -0.3087  0.1977
12693TIP3    H159570   6.801   2.186   5.711  1.5260  0.5823  0.6340
12693TIP3    H259571   6.774   2.299   5.808 -0.4080 -0.8314  1.8403
12694TIP3   OH259572   4.335   4.936   1.987  0.2202  0.2271 -0.2758
12694TIP3    H159573   4.312   5.021   1.948  1.1566  0.4554 -0.3423
12694TIP3    H259574   4.250   4.892   1.999 -0.2548  1.0665 -0.4711
12695TIP3   OH259575   0.451   5.461   1.270 -0.2159  0.4898 -0.3151
12695TIP3    H159576   0.514   5.498   1.332  1.2743 -0.9467 -0.8961
12695TIP3    H259577   0.453   5.367   1.288 -0.3400  0.1351 -1.9817
12696TIP3   OH259578   6.110   2.288  14.449 -0.1336 -0.7636 -0.1473
12696TIP3    H159579   6.026   2.332  14.440 -0.5353 -1.1119  1.4569
12696TIP3    H259580   6.131   2.255  14.362 -0.4008  1.5172 -1.1262
12697TIP3   OH259581   6.696   5.373  16.374 -0.0130 -0.8643 -0.1214
12697TIP3    H159582   6.781   5.375  16.331 -0.5607  1.7932 -1.3247
12697TIP3    H259583   6.640   5.322  16.315  0.3663 -1.3112 -0.0992
12698TIP3   OH259584   5.200   1.768  16.294  0.1843  0.2640  0.4172
12698TIP3    H159585   5.158   1.810  16.219  1.1032 -1.4037 -1.0925
12698TIP3    H259586   5.293   1.791  16.285  0.7670 -2.2378 -0.6292
12699TIP3   OH259587   4.511   6.806   4.366  0.2506  0.6533 -0.4162
12699TIP3    H159588   4.441   6.745   4.342  0.1463 -0.5259  2.4408
12699TIP3    H259589   4.474   6.892   4.351 -0.6447  0.0404 -1.9047
12700TIP3   OH259590   2.129   2.583   3.677  0.0956 -0.1589  0.6937
12700TIP3    H159591   2.066   2.605   3.746  0.0188 -0.6119  0.7697
12700TIP3    H259592   2.136   2.488   3.680 -0.3203 -0.2322 -0.2794
12701TIP3   OH259593   3.670   5.461  12.725 -0.0323  0.3375 -0.1913
12701TIP3    H159594   3.646   5.494  12.638  1.6974  0.4566 -0.6707
12701TIP3    H259595   3.760   5.429  12.714  0.3128  0.5903  1.6075
12702TIP3   OH259596   2.008   6.206  14.231  0.1373  0.4810 -0.0881
12702TIP3    H159597   1.956   6.133  14.198 -0.9272  0.3733  1.6902
12702TIP3    H259598   1.970   6.284  14.191 -0.8316  0.3238  0.5057
12703TIP3   OH259599   4.512   4.786  13.373  0.8439 -0.1801 -0.2071
12703TIP3    H159600   4.502   4.808  13.280  0.8974  0.5004 -0.0537
12703TIP3    H259601   4.461   4.852  13.419  0.0293 -1.0793  0.2150
12704TIP3   OH259602   5.445   6.706  12.782 -0.3073  0.1237 -0.7234
12704TIP3    H159603   5.475   6.708  12.873  0.6863 -0.1370 -1.0333
12704TIP3    H259604   5.456   6.795  12.751 -1.1544  0.3334 -0.4331
12705TIP3   OH259605   4.826   1.938  16.532 -0.4352  0.8720  0.0166
12705TIP3    H159606   4.747   1.919  16.482 -0.4654  0.7032  0.1276
12705TIP3    H259607   4.817   2.029  16.559  0.0907  1.3210 -1.2233
12706TIP3   OH259608   4.460   1.569  10.914  0.8678 -0.7982  0.4195
12706TIP3    H159609   4.529   1.560  10.980 -0.1918 -3.1912  1.3319
12706TIP3    H259610   4.383   1.595  10.963  0.4456 -0.9933 -0.1301
12707TIP3   OH259611   3.258   2.720  16.702  0.2786  0.2312  0.1091
12707TIP3    H159612   3.284   2.769  16.625 -3.4846 -0.2769 -1.6998
12707TIP3    H259613   3.236   2.786  16.767  0.3377  0.7841 -0.4278
12708TIP3   OH259614   3.383   2.737  12.463  0.3095 -0.3592 -0.8123
12708TIP3    H159615   3.423   2.687  12.392 -1.1081 -0.6743 -1.4162
12708TIP3    H259616   3.441   2.813  12.473 -0.4592  0.7662 -3.7016
12709TIP3   OH259617   1.315   3.230   6.281 -0.1581  0.5421  0.1522
12709TIP3    H159618   1.373   3.292   6.325 -1.2303  0.6844  1.4377
12709TIP3    H259619   1.361   3.147   6.285  0.4764  0.8892  0.0874
12710TIP3   OH259620   3.547   6.171   3.749  0.2513  0.4899  0.6930
12710TIP3    H159621   3.591   6.256   3.740 -0.4441  0.8232  0.4291
12710TIP3    H259622   3.572   6.123   3.670 -0.1445  0.8152  0.3651
12711TIP3   OH259623   0.059   3.195   0.423 -0.1772 -0.2163 -0.0308
12711TIP3    H159624  -0.003   3.167   0.356 -2.1523  0.2059  1.5394
12711TIP3    H259625   0.087   3.282   0.394 -0.8882 -0.0991 -0.3968
12712TIP3   OH259626   0.526   6.213  14.726 -0.3460  0.2797 -0.1313
12712TIP3    H159627   0.617   6.192  14.747 -0.6036 -0.6635  0.0940
12712TIP3    H259628   0.523   6.215  14.630 -0.1595 -0.0620 -0.1480
12713TIP3   OH259629   3.733   1.848   5.189  0.2429  0.2648  0.1786
12713TIP3    H159630   3.780   1.884   5.265  0.7535  0.5891 -0.2846
12713TIP3    H259631   3.651   1.816   5.225 -0.5715  2.5239  0.5356
12714TIP3   OH259632   1.900   4.171   1.448 -0.1668 -0.3910 -0.7686
12714TIP3    H159633   1.928   4.244   1.393  0.5865 -0.4897 -0.5391
12714TIP3    H259634   1.887   4.209   1.534 -0.4544 -0.4008 -0.8082
12715TIP3   OH259635   2.970   4.388  14.273 -0.2005  0.3563 -0.3569
12715TIP3    H159636   2.900   4.378  14.337  1.6461  0.1680  1.7268
12715TIP3    H259637   2.979   4.300  14.235 -0.1678  0.0383  0.3714
12716TIP3   OH259638   2.517   5.810  12.583  0.1538  0.2649  0.1837
12716TIP3    H159639   2.425   5.783  12.583  0.4464 -0.9023  1.3726
12716TIP3    H259640   2.515   5.905  12.587 -1.0557  0.2158  2.0376
12717TIP3   OH259641   3.773   2.785  14.588  0.1901 -0.2118 -0.0295
12717TIP3    H159642   3.787   2.699  14.548 -1.4659  0.0777 -1.3541
12717TIP3    H259643   3.828   2.785  14.666  2.3008 -1.4340 -1.4495
12718TIP3   OH259644   2.816   6.335   2.863 -0.4962  0.1356 -0.1854
12718TIP3    H159645   2.743   6.392   2.885 -1.8693 -1.7800  0.4729
12718TIP3    H259646   2.845   6.299   2.947 -0.6048 -1.1937 -0.6954
12719TIP3   OH259647   1.423   0.506   2.701  0.2640 -0.4201  0.2721
12719TIP3    H159648   1.370   0.548   2.634  0.0594 -0.7931  0.1977
12719TIP3    H259649   1.453   0.578   2.757  0.4943 -0.0982 -0.2548
12720TIP3   OH259650   2.304   1.351  16.250 -0.6870  0.3361  0.3977
12720TIP3    H159651   2.287   1.445  16.253 -0.2134  0.4576 -0.4362
12720TIP3    H259652   2.240   1.317  16.187 -1.9528 -0.1737  1.8879
12721TIP3   OH259653   2.930   6.343  16.563  0.3947  0.4404 -0.5567
12721TIP3    H159654   2.913   6.425  16.610  1.0362 -0.2023  0.8536
12721TIP3    H259655   2.845   6.299  16.561  0.7148 -0.4161  1.8379
12722TIP3   OH259656   2.405   0.715   1.340 -0.0966 -0.1333 -0.1681
12722TIP3    H159657   2.392   0.670   1.256 -1.1492 -0.8594  0.3651
12722TIP3    H259658   2.324   0.765   1.353  1.0286  1.9698 -0.7354
12723TIP3   OH259659   6.164   6.387  11.627  0.1898  0.3411 -0.0324
12723TIP3    H159660   6.168   6.292  11.619 -1.0138  0.0408  2.0384
12723TIP3    H259661   6.240   6.410  11.680 -0.8661  0.1368  1.6792
12724TIP3   OH259662   4.769   6.741   2.276 -0.0225  0.3478 -0.2200
12724TIP3    H159663   4.862   6.726   2.256  0.0883 -0.9788  1.0849
12724TIP3    H259664   4.758   6.835   2.269  1.0570  0.3818 -1.8773
12725TIP3   OH259665   0.735   5.518   2.482  0.1314 -0.5822 -0.1110
12725TIP3    H159666   0.794   5.489   2.552  0.4202  1.6279  0.6369
12725TIP3    H259667   0.650   5.528   2.525  0.0954 -0.0933 -0.2935
12726TIP3   OH259668   1.212   1.776   0.424 -0.4522 -0.2395  0.2744
12726TIP3    H159669   1.167   1.852   0.387  0.1758 -0.6544 -1.4565
12726TIP3    H259670   1.231   1.801   0.514  0.6962  2.1260 -0.5263
12727TIP3   OH259671   2.264   3.907  15.551  0.2355  0.2459  0.1787
12727TIP3    H159672   2.315   3.839  15.508 -0.4307  0.4783 -1.0220
12727TIP3    H259673   2.186   3.918  15.496  0.1905  1.7712  0.4816
12728TIP3   OH259674   3.495   0.758   4.092 -0.1488 -0.0350 -0.4065
12728TIP3    H159675   3.453   0.739   4.176  0.1866 -0.4874 -0.3358
12728TIP3    H259676   3.436   0.820   4.049  0.5911  1.7114  0.9626
12729TIP3   OH259677   5.791   4.771   5.546 -0.1813  0.0672 -0.4257
12729TIP3    H159678   5.867   4.804   5.500  1.3205 -0.4073  1.5597
12729TIP3    H259679   5.792   4.677   5.530 -0.5782  0.1111 -0.7105
12730TIP3   OH259680   6.247   5.042   6.090 -0.2643 -0.3044 -0.4600
12730TIP3    H159681   6.183   4.973   6.111  0.1924 -0.4874  0.3789
12730TIP3    H259682   6.194   5.117   6.063 -0.8932 -0.1442  1.1166
12731TIP3   OH259683   3.298   3.858  14.244  0.0795 -0.2432 -0.3864
12731TIP3    H159684   3.237   3.924  14.210  1.6248  0.5113 -1.8102
12731TIP3    H259685   3.289   3.783  14.185 -0.1765 -0.5232  0.0000
12732TIP3   OH259686   6.272   0.703  10.590  0.3727  0.2082 -0.0213
12732TIP3    H159687   6.297   0.768  10.656  0.2978  0.7769 -0.5421
12732TIP3    H259688   6.351   0.650  10.578  0.6892  0.7018 -0.1654
12733TIP3   OH259689   4.740   6.565  15.843 -0.0145 -0.4675 -0.2653
12733TIP3    H159690   4.794   6.624  15.790 -0.2783 -1.2489 -1.4350
12733TIP3    H259691   4.802   6.506  15.884  0.0455 -1.8035 -2.1484
12734TIP3   OH259692   3.065   1.706   5.035  0.1511 -0.4791  0.4385
12734TIP3    H159693   3.061   1.801   5.048 -0.7086 -0.5876  1.1112
12734TIP3    H259694   3.113   1.674   5.111 -0.5413 -0.6750  0.8016
12735TIP3   OH259695   5.527   2.754  11.669  0.0548  0.0975 -0.0636
12735TIP3    H159696   5.607   2.703  11.685 -1.0764 -2.0814 -1.0086
12735TIP3    H259697   5.456   2.691  11.679 -1.5658  1.9591  0.6099
12736TIP3   OH259698   4.988   5.095   3.515  0.4504 -0.0840  0.0763
12736TIP3    H159699   5.036   5.111   3.596  0.3886  1.4695 -0.1608
12736TIP3    H259700   5.050   5.120   3.445  0.6498 -1.7830 -0.4009
12737TIP3   OH259701   0.485   1.941  12.008  0.0858 -0.3377 -0.0783
12737TIP3    H159702   0.572   1.966  11.976 -0.4031  1.0841 -0.3819
12737TIP3    H259703   0.499   1.915  12.099  0.7057  0.7987  0.1670
12738TIP3   OH259704   0.160   5.098   3.858  0.4523 -0.0873 -0.5684
12738TIP3    H159705   0.071   5.073   3.833  0.2906 -2.5528  1.9429
12738TIP3    H259706   0.154   5.116   3.952  2.7380 -1.3407 -0.1002
12739TIP3   OH259707   6.587   3.443  14.651  0.4155 -0.3091  0.0765
12739TIP3    H159708   6.572   3.352  14.627  1.2683 -0.5797  0.5290
12739TIP3    H259709   6.663   3.440  14.709  0.2380  0.6549  0.3666
12740TIP3   OH259710   1.806   1.269   4.657  0.6940 -0.4195 -0.7589
12740TIP3    H159711   1.734   1.326   4.684  2.3189  1.5562 -0.3278
12740TIP3    H259712   1.783   1.242   4.568 -0.3156  0.6673 -0.8486
12741TIP3   OH259713   1.000   0.679  14.920  0.0021  0.2757 -0.9481
12741TIP3    H159714   1.089   0.701  14.894  0.5431 -0.7128 -0.0038
12741TIP3    H259715   1.009   0.601  14.975 -1.3508  0.6622 -0.1227
12742TIP3   OH259716   4.155   6.103   2.775 -0.2640  0.1381 -0.1316
12742TIP3    H159717   4.099   6.070   2.846  0.3629  1.3782  0.9965
12742TIP3    H259718   4.244   6.085   2.805  0.0319 -2.4056 -2.2077
12743TIP3   OH259719   0.974   3.889   0.484 -0.2079 -0.7551 -0.0183
12743TIP3    H159720   0.927   3.810   0.513 -1.8683  0.4090  0.6391
12743TIP3    H259721   0.938   3.907   0.397  0.1549 -0.7075 -0.1577
12744TIP3   OH259722   5.481   5.890   0.307  0.2605 -0.3189  0.5886
12744TIP3    H159723   5.430   5.853   0.235 -1.2803 -1.0584  1.9756
12744TIP3    H259724   5.564   5.843   0.305  1.9029  2.2583 -2.9453
12745TIP3   OH259725   0.038   5.624  15.399  0.6124  0.0287 -0.9169
12745TIP3    H159726   0.094   5.673  15.338  0.6075 -1.1023 -1.8754
12745TIP3    H259727   0.100   5.583  15.460  0.5208  3.5926  1.9120
12746TIP3   OH259728   1.413   0.854   3.994 -0.5915  0.1014  0.1248
12746TIP3    H159729   1.365   0.874   4.074  0.5963  1.6413  0.5020
12746TIP3    H259730   1.479   0.791   4.021 -0.0609  0.7727  0.4255
12747TIP3   OH259731   6.656   1.333   5.687 -0.2646  0.2251 -0.8847
12747TIP3    H159732   6.706   1.410   5.661 -0.6091  0.4740 -0.8059
12747TIP3    H259733   6.569   1.366   5.709 -0.6681 -0.2955 -1.6495
12748TIP3   OH259734   0.110   4.807   2.072 -0.1362 -0.2742  0.2265
12748TIP3    H159735   0.145   4.862   2.002  0.1978 -0.8128 -0.0375
12748TIP3    H259736   0.174   4.737   2.081  0.6338  0.5965  2.1235
12749TIP3   OH259737   1.942   4.794   0.119 -0.0692  0.2690 -0.3482
12749TIP3    H159738   1.959   4.717   0.066 -0.1385  0.1669 -0.2222
12749TIP3    H259739   1.995   4.781   0.198 -1.1795 -0.3447  0.3215
12750TIP3   OH259740   4.123   1.868  14.444 -0.2500  0.1829 -0.5305
12750TIP3    H159741   4.193   1.857  14.381 -0.5927 -2.6324 -0.5500
12750TIP3    H259742   4.146   1.947  14.492  2.3595 -0.0551 -1.2329
12751TIP3   OH259743   0.931   2.326   6.382  0.0190 -0.1486  0.2491
12751TIP3    H159744   0.857   2.265   6.382 -0.0286 -0.1002  0.9527
12751TIP3    H259745   0.919   2.377   6.462  0.7747 -0.0826  0.3240
12752TIP3   OH259746   0.705   5.853   3.378 -0.0979 -0.0126  0.0469
12752TIP3    H159747   0.614   5.831   3.357  0.4678 -0.8691 -1.7255
12752TIP3    H259748   0.728   5.921   3.315  0.2578  0.8145  1.0456
12753TIP3   OH259749   3.443   4.960   2.883 -0.4188  0.5114 -0.1936
12753TIP3    H159750   3.349   4.976   2.877 -0.4148  0.6254  0.0387
12753TIP3    H259751   3.480   5.004   2.806 -0.6862 -0.5973 -0.9754
12754TIP3   OH259752   3.815   0.174  12.559 -0.3015  0.0247 -0.1094
12754TIP3    H159753   3.885   0.121  12.520  0.0395  0.8499 -0.6283
12754TIP3    H259754   3.839   0.264  12.539 -1.6008  0.3089 -0.4356
12755TIP3   OH259755   6.173   0.707   1.252  0.0917  0.1975 -0.2587
12755TIP3    H159756   6.234   0.633   1.248  0.4589 -0.0246  4.1875
12755TIP3    H259757   6.230   0.783   1.265 -0.4462  0.6399 -0.4794
12756TIP3   OH259758   4.213   6.590   5.519 -0.6656  0.2439  0.2468
12756TIP3    H159759   4.268   6.616   5.445  1.0138 -0.9837  0.9953
12756TIP3    H259760   4.194   6.673   5.564  1.8874  0.6302  0.7894
12757TIP3   OH259761   1.299   1.960  11.630  0.1631  0.2049 -0.2064
12757TIP3    H159762   1.215   2.006  11.622 -1.0512 -1.5352  1.7731
12757TIP3    H259763   1.340   1.972  11.544 -2.7925 -0.1871 -1.8282
12758TIP3   OH259764   3.706   5.591   0.474 -0.7684 -0.2952  0.1869
12758TIP3    H159765   3.725   5.665   0.417 -1.0253  0.8856  1.5812
12758TIP3    H259766   3.611   5.579   0.467 -0.8953  0.2846  0.8675
12759TIP3   OH259767   6.322   5.746   4.431 -0.1158  0.4987  0.2526
12759TIP3    H159768   6.286   5.834   4.421  0.0897  0.7689  1.6846
12759TIP3    H259769   6.248   5.691   4.455  0.1624  0.7758  1.7924
12760TIP3   OH259770   2.497   2.958  15.300 -0.2405  0.3629  0.0091
12760TIP3    H159771   2.402   2.950  15.294 -0.3359  1.8185 -1.0318
12760TIP3    H259772   2.529   2.868  15.296 -1.6140 -0.2959  2.0563
12761TIP3   OH259773   1.787   5.522   0.984  0.3948  0.4705 -0.4311
12761TIP3    H159774   1.875   5.550   1.010  0.3263  0.9308 -0.6776
12761TIP3    H259775   1.729   5.557   1.052  0.3450  0.6597 -0.5677
12762TIP3   OH259776   1.647   5.517   1.605 -0.1396  0.3643  0.0571
12762TIP3    H159777   1.671   5.577   1.534  0.4242  0.0487 -0.0284
12762TIP3    H259778   1.706   5.442   1.594  0.1038  0.4045  0.9910
12763TIP3   OH259779   4.126   4.169   1.947 -0.0488 -0.7515  0.2382
12763TIP3    H159780   4.158   4.163   2.037  1.4418 -0.3102 -0.2372
12763TIP3    H259781   4.086   4.255   1.941  2.2984  0.3855 -0.2260
12764TIP3   OH259782   2.568   3.737   0.796  0.0421 -0.4992 -0.0571
12764TIP3    H159783   2.634   3.715   0.862 -1.6842 -2.1745  1.2173
12764TIP3    H259784   2.527   3.817   0.830 -1.2666 -1.7020  1.3080
12765TIP3   OH259785   4.587   5.360   3.334  0.3369  0.0743  0.0384
12765TIP3    H159786   4.542   5.276   3.332  2.2837 -1.1286  2.1104
12765TIP3    H259787   4.666   5.348   3.281  0.8961  0.3778  0.7667
12766TIP3   OH259788   2.952   1.155   2.908 -0.3518  0.2574 -0.4577
12766TIP3    H159789   2.887   1.156   2.838 -1.1977  0.4485  0.3030
12766TIP3    H259790   3.025   1.106   2.873 -0.7120  0.4553 -1.5149
12767TIP3   OH259791   3.944   6.809  12.979  0.2316 -0.6573 -0.2215
12767TIP3    H159792   4.016   6.747  12.983  1.5612  0.8654  1.0596
12767TIP3    H259793   3.883   6.779  13.046  0.2431 -1.2788 -0.4825
12768TIP3   OH259794   1.338   1.041   0.838  0.3683 -0.1111  0.2033
12768TIP3    H159795   1.351   0.950   0.811  1.3428 -0.0054  0.2607
12768TIP3    H259796   1.247   1.060   0.816 -0.3332 -1.5699  1.5946
12769TIP3   OH259797   2.046   6.241  12.987 -0.2412 -0.1744  0.1973
12769TIP3    H159798   2.121   6.276  12.937 -0.5764  0.0646 -0.1502
12769TIP3    H259799   2.054   6.146  12.978 -0.4193 -0.1332 -0.5155
12770TIP3   OH259800   3.418   2.385  15.878 -0.4621  0.2066 -0.2837
12770TIP3    H159801   3.456   2.462  15.836  0.1802  0.4202  0.6432
12770TIP3    H259802   3.447   2.391  15.969 -2.1963  0.0067  0.3076
12771TIP3   OH259803   3.316   0.019  15.030  0.5352  0.2016 -0.7885
12771TIP3    H159804   3.391   0.029  15.089 -0.3466 -0.1346  0.4395
12771TIP3    H259805   3.253  -0.033  15.080 -0.0777 -0.4864 -2.2179
12772TIP3   OH259806   2.376   2.442   0.499  0.5380  0.0595 -0.1333
12772TIP3    H159807   2.388   2.536   0.511 -0.4411  0.2725 -0.7420
12772TIP3    H259808   2.359   2.430   0.406  0.2891 -0.6693 -0.0101
12773TIP3   OH259809   2.266   1.432  16.498  0.0122 -0.2176 -0.0354
12773TIP3    H159810   2.287   1.379  16.421 -1.9242 -2.3673  0.8089
12773TIP3    H259811   2.334   1.410  16.562  1.1293  0.9275 -0.7771
12774TIP3   OH259812   6.648   1.529  15.044 -0.3303 -0.4107 -0.0394
12774TIP3    H159813   6.571   1.580  15.068  0.0852 -0.0009  0.4521
12774TIP3    H259814   6.698   1.522  15.126  0.3981 -0.2354 -0.4607
12775TIP3   OH259815   3.177   1.369   2.104 -0.2779 -0.2492 -0.7074
12775TIP3    H159816   3.181   1.458   2.140  0.3133  0.3721 -2.2454
12775TIP3    H259817   3.101   1.370   2.045 -1.6221 -1.4376  0.8958
12776TIP3   OH259818   2.886   6.253   4.555  0.0836 -0.4771 -0.1788
12776TIP3    H159819   2.968   6.203   4.555  0.2891 -0.1429 -0.3517
12776TIP3    H259820   2.819   6.190   4.582  0.7376 -0.1969  2.4005
12777TIP3   OH259821   6.254   6.039   5.341 -0.4295  0.0597 -0.6368
12777TIP3    H159822   6.230   6.012   5.252 -1.7033 -1.4116  0.1011
12777TIP3    H259823   6.213   6.124   5.352 -0.6208  0.0619 -1.3225
12778TIP3   OH259824   0.024   6.429   2.155  0.3058 -0.4116  0.2588
12778TIP3    H159825  -0.042   6.494   2.180 -0.3087  0.0023 -2.2573
12778TIP3    H259826   0.107   6.465   2.188 -0.1608  1.1812 -0.2361
12779TIP3   OH259827   1.823   2.164  12.721  0.1653 -0.2549 -0.2391
12779TIP3    H159828   1.832   2.251  12.681 -0.5820 -0.2441 -0.3907
12779TIP3    H259829   1.733   2.163  12.755  0.9833  0.0160  2.1067
12780TIP3   OH259830   4.466   4.442   5.784  0.4544  0.3118 -0.2522
12780TIP3    H159831   4.518   4.406   5.855  0.2392  1.2905  0.4135
12780TIP3    H259832   4.375   4.420   5.807  0.5607 -2.3796 -1.9635
12781TIP3   OH259833   3.166   3.421   5.112  0.4410  0.4430  0.3665
12781TIP3    H159834   3.198   3.428   5.022  0.4928 -2.4029  0.1000
12781TIP3    H259835   3.157   3.512   5.141 -0.6427  1.4797 -2.8627
12782TIP3   OH259836   5.192   3.813   1.764  0.0525  0.0746  0.2672
12782TIP3    H159837   5.129   3.859   1.820  1.0839  2.2866 -0.2841
12782TIP3    H259838   5.189   3.722   1.794 -2.5379  0.3272  1.0096
12783TIP3   OH259839   2.039   0.740  13.652  0.2913  0.4611 -0.4781
12783TIP3    H159840   2.046   0.780  13.738  2.2282 -1.6636  0.4567
12783TIP3    H259841   1.949   0.758  13.625 -0.4700  0.9742  2.0985
12784TIP3   OH259842   0.763   1.632  16.526 -0.3788  0.2292  0.2041
12784TIP3    H159843   0.746   1.539  16.540  0.2818  0.1010  0.1786
12784TIP3    H259844   0.858   1.638  16.517 -0.5901  0.4893 -2.7641
12785TIP3   OH259845   5.911   5.004  11.836 -0.0400  0.1869  0.1309
12785TIP3    H159846   5.995   5.006  11.882 -0.3471  1.6662  0.6958
12785TIP3    H259847   5.853   4.955  11.893  0.4705 -1.0257 -0.3601
12786TIP3   OH259848   1.372   2.346   0.351 -0.7073 -0.3530  0.1017
12786TIP3    H159849   1.445   2.377   0.296  0.0546  0.6361  1.5993
12786TIP3    H259850   1.298   2.401   0.326 -0.3535  0.1258  0.0974
12787TIP3   OH259851   4.635   3.576   0.226  0.6397 -0.9001  0.1709
12787TIP3    H159852   4.695   3.508   0.195  1.4269 -0.9691  1.7575
12787TIP3    H259853   4.550   3.533   0.228  0.7735 -1.2337 -0.7470
12788TIP3   OH259854   4.333   2.401  12.909 -0.0928 -0.2409  0.0267
12788TIP3    H159855   4.355   2.418  12.818  2.1303  2.0219  0.8373
12788TIP3    H259856   4.412   2.361  12.946  1.3049  3.7526  2.0152
12789TIP3   OH259857   4.148   5.867  14.813 -0.5568 -0.1932 -0.2252
12789TIP3    H159858   4.158   5.956  14.778 -0.3212  0.0843  0.5260
12789TIP3    H259859   4.054   5.858  14.827 -0.4949  0.3192  0.6296
12790TIP3   OH259860   6.434   3.552  15.883  0.2402  0.1137  0.7640
12790TIP3    H159861   6.485   3.518  15.810 -0.3621 -0.9195  0.8072
12790TIP3    H259862   6.425   3.646  15.865  1.4755  0.1663  0.3637
12791TIP3   OH259863   0.501   0.186   0.685 -0.5148  0.4783  0.5044
12791TIP3    H159864   0.591   0.182   0.653 -1.0918  1.6546 -1.4883
12791TIP3    H259865   0.486   0.279   0.702 -1.0830  0.1836  1.6952
12792TIP3   OH259866   0.654   0.375   4.637 -0.7955 -0.1549 -0.2106
12792TIP3    H159867   0.604   0.293   4.643  1.1829 -1.4133 -0.1239
12792TIP3    H259868   0.602   0.430   4.579 -1.8057 -1.7514 -0.9076
12793TIP3   OH259869   3.929   5.932   5.264  0.0718 -0.8300  0.2641
12793TIP3    H159870   3.876   5.993   5.315  2.0427  0.7294  0.6048
12793TIP3    H259871   3.919   5.848   5.309  0.7525  0.2155  2.5336
12794TIP3   OH259872   6.085   1.524  12.961 -0.2792  0.0414 -0.2118
12794TIP3    H159873   6.098   1.562  13.048  1.1508 -1.4147  0.2499
12794TIP3    H259874   5.992   1.540  12.943 -0.4189  1.1167  1.1997
12795TIP3   OH259875   0.967   5.977   3.661 -0.1765 -0.1127 -0.5780
12795TIP3    H159876   1.062   5.979   3.651  0.0112  0.9886  0.9977
12795TIP3    H259877   0.933   6.012   3.579  0.7138 -1.2765 -1.4887
12796TIP3   OH259878   2.676   2.456  11.129  0.6205 -0.6184  0.0623
12796TIP3    H159879   2.627   2.509  11.067  0.6294 -0.4557  0.1943
12796TIP3    H259880   2.625   2.459  11.210  0.7932 -0.5329  0.1702
12797TIP3   OH259881   5.339   6.795  11.298 -0.2281  1.0022  0.0019
12797TIP3    H159882   5.371   6.793  11.207  3.6184  0.2574  1.1979
12797TIP3    H259883   5.348   6.886  11.325  2.3535  0.6274  0.6731
12798TIP3   OH259884   5.686   1.198  15.861  0.6091 -0.2328 -0.4050
12798TIP3    H159885   5.772   1.238  15.876  0.3043  0.1896  0.2463
12798TIP3    H259886   5.638   1.266  15.813  0.5831 -0.4124 -0.6354
12799TIP3   OH259887   1.028   4.343   4.868 -0.1711 -0.3275  0.0221
12799TIP3    H159888   1.084   4.362   4.793 -0.1726  0.5199  0.2253
12799TIP3    H259889   1.023   4.426   4.915 -1.8881 -0.2701 -0.1889
12800TIP3   OH259890   3.865   6.721  16.127  0.3169 -0.4975 -0.2800
12800TIP3    H159891   3.779   6.679  16.119  0.0934  0.0443 -0.8820
12800TIP3    H259892   3.927   6.655  16.096  0.1306 -0.9239  0.2396
12801TIP3   OH259893   1.898   3.145  11.533  0.1177  0.0959 -0.6472
12801TIP3    H159894   1.811   3.118  11.563  0.2009 -0.5379 -0.9549
12801TIP3    H259895   1.907   3.236  11.563 -0.7289  0.2328 -0.7984
12802TIP3   OH259896   5.742   0.331  13.519  0.9859  0.1763  0.3339
12802TIP3    H159897   5.679   0.376  13.575 -0.7015 -0.8951 -0.6123
12802TIP3    H259898   5.819   0.388  13.518  0.0458  1.5203  1.5544
12803TIP3   OH259899   0.855   4.372  14.818  0.0379 -0.1261  0.1901
12803TIP3    H159900   0.936   4.363  14.869  0.7271  0.8699 -0.6645
12803TIP3    H259901   0.859   4.300  14.754  0.5871  0.2903 -0.2592
12804TIP3   OH259902   0.706   1.338  11.752 -0.1569  0.6957  0.2652
12804TIP3    H159903   0.622   1.312  11.715  0.4601 -0.6679 -0.2328
12804TIP3    H259904   0.686   1.363  11.842 -1.1214  0.6205  0.0809
12805TIP3   OH259905   5.355   3.722  16.576  0.0152  0.0164  0.2606
12805TIP3    H159906   5.267   3.716  16.540  0.2516  0.9556 -0.5268
12805TIP3    H259907   5.345   3.700  16.669 -0.7592 -1.5385 -0.1610
12806TIP3   OH259908   2.032   4.793   3.007  0.2714  0.6689 -0.4862
12806TIP3    H159909   1.992   4.707   3.016  0.3434  0.8287  1.9303
12806TIP3    H259910   2.035   4.828   3.096 -0.1817  3.3780 -1.4391
12807TIP3   OH259911   3.817   5.254  15.473  0.1778 -0.1497 -0.0126
12807TIP3    H159912   3.896   5.207  15.447  0.1223  0.0250 -0.5090
12807TIP3    H259913   3.838   5.346  15.460 -0.1488 -0.1091 -0.2817
12808TIP3   OH259914   1.639   2.316  10.620 -0.0655 -0.2108  0.1199
12808TIP3    H159915   1.546   2.327  10.635 -0.1980  0.4068 -1.1066
12808TIP3    H259916   1.652   2.334  10.527  1.0649 -1.6521 -0.0553
12809TIP3   OH259917   1.505   2.484   5.970 -0.2063 -0.2094 -0.6135
12809TIP3    H159918   1.412   2.467   5.955 -0.8720  1.6917  1.0268
12809TIP3    H259919   1.513   2.498   6.064  1.1371  2.7616 -1.0587
12810TIP3   OH259920   2.182   0.834  16.535  0.4757  0.0401  0.5690
12810TIP3    H159921   2.248   0.895  16.567  0.0522 -0.1798  1.9444
12810TIP3    H259922   2.178   0.766  16.602 -1.8842  0.6026  1.0918
12811TIP3   OH259923   5.784   0.930  12.515 -0.1581 -0.6206  0.3320
12811TIP3    H159924   5.753   0.880  12.440 -2.9255 -0.5740  1.3279
12811TIP3    H259925   5.861   0.976  12.483 -1.0872 -0.7843 -2.4100
12812TIP3   OH259926   2.658   0.115   5.159  0.0436  0.4718  0.1632
12812TIP3    H159927   2.575   0.163   5.152  0.1621  0.6065 -0.4247
12812TIP3    H259928   2.720   0.179   5.194  0.1975  0.7521 -0.6059
12813TIP3   OH259929   0.509   3.886  15.807 -0.2955 -0.2504 -0.4298
12813TIP3    H159930   0.421   3.886  15.844 -0.5450 -0.1647 -1.0212
12813TIP3    H259931   0.563   3.847  15.875 -0.6472  0.4615  0.2707
12814TIP3   OH259932   0.516   4.671   4.916  0.1248  0.1179  0.5589
12814TIP3    H159933   0.593   4.725   4.898  0.7051 -0.1304  2.1605
12814TIP3    H259934   0.496   4.687   5.008 -2.3117  0.8469 -0.0392
12815TIP3   OH259935   4.412   1.421  13.137  0.1502  0.1282 -0.1214
12815TIP3    H159936   4.481   1.452  13.078  0.2014  0.7561  0.2562
12815TIP3    H259937   4.357   1.498  13.153  0.4182  0.1038  1.0310
12816TIP3   OH259938   1.758   1.234  14.853 -0.1911 -0.5169  0.1995
12816TIP3    H159939   1.739   1.148  14.891  0.5817 -0.2267  1.3034
12816TIP3    H259940   1.827   1.270  14.909  2.1436 -0.6732 -2.3218
12817TIP3   OH259941   6.316   2.034   2.259  0.4274  0.0145  0.2246
12817TIP3    H159942   6.291   2.126   2.258 -3.3246 -0.8254 -1.4331
12817TIP3    H259943   6.267   1.997   2.333  1.3445 -0.7850  0.4488
12818TIP3   OH259944   3.363   6.706   3.650  0.1840  0.2470  0.1098
12818TIP3    H159945   3.442   6.707   3.596  0.4553  0.2117  0.4983
12818TIP3    H259946   3.313   6.782   3.621  0.4832  0.4173  0.0371
12819TIP3   OH259947   4.165   2.220  15.414  0.2478 -0.2653  0.4036
12819TIP3    H159948   4.199   2.309  15.407 -0.3385 -0.0631  0.0697
12819TIP3    H259949   4.135   2.212  15.505 -0.2546  0.0853  0.2733
12820TIP3   OH259950   2.026   0.358  14.586 -0.7455  0.6187  0.0421
12820TIP3    H159951   2.100   0.301  14.564 -1.7685 -0.6503 -0.2002
12820TIP3    H259952   2.032   0.429  14.522 -0.1130  0.1861 -0.3993
12821TIP3   OH259953   6.791   1.913  14.574  0.0187  0.1223 -0.1972
12821TIP3    H159954   6.848   1.932  14.649 -0.3868  2.6551 -0.4421
12821TIP3    H259955   6.851   1.890  14.503  0.6833  1.3414 -0.0618
12822TIP3   OH259956   0.699   6.725  15.745 -0.2773  0.0031 -0.4809
12822TIP3    H159957   0.685   6.760  15.833  0.3033  0.9471 -0.7411
12822TIP3    H259958   0.741   6.641  15.759  1.2516  0.8196  0.1454
12823TIP3   OH259959   0.137   2.093   2.664  0.3754  0.2117  0.0566
12823TIP3    H159960   0.083   2.047   2.600  0.1077 -0.1233  0.5205
12823TIP3    H259961   0.076   2.121   2.732  0.7902 -0.2169  0.6120
12824TIP3   OH259962   5.462   5.218   0.271 -0.1160 -0.0672 -0.0748
12824TIP3    H159963   5.519   5.277   0.320 -0.9453  0.0630  0.7510
12824TIP3    H259964   5.374   5.239   0.301 -0.6891  0.1395 -1.7430
12825TIP3   OH259965   4.360   6.179  12.877 -0.0812 -0.4212 -0.5176
12825TIP3    H159966   4.288   6.152  12.820  1.0147  0.3879 -2.3554
12825TIP3    H259967   4.373   6.271  12.857  0.9129 -0.3495  0.4218
12826TIP3   OH259968   3.903   4.866   4.996  0.0736 -0.2478  0.1424
12826TIP3    H159969   3.943   4.898   5.076  1.5989 -1.1741 -0.2109
12826TIP3    H259970   3.812   4.895   5.001 -0.1235 -1.1130  2.6583
12827TIP3   OH259971   1.289   6.115   5.700  0.2475  0.2067  0.0021
12827TIP3    H159972   1.293   6.211   5.695  2.4319  0.1343 -0.3388
12827TIP3    H259973   1.237   6.090   5.623 -1.7794  1.1367  0.9853
12828TIP3   OH259974   4.145   1.900   5.741  0.2475 -0.1109  0.3777
12828TIP3    H159975   4.236   1.886   5.767 -0.0572  0.4723  1.8232
12828TIP3    H259976   4.151   1.942   5.656  1.3045 -1.0022 -0.0186
12829TIP3   OH259977   6.446   1.566  15.805 -0.1481  0.4757 -0.8436
12829TIP3    H159978   6.411   1.528  15.886 -0.7515  2.8603  0.0850
12829TIP3    H259979   6.511   1.502  15.775 -0.0482 -0.5717  1.4032
12830TIP3   OH259980   0.187   3.088  12.472 -0.8480  0.0126  0.2777
12830TIP3    H159981   0.234   3.004  12.476 -0.7861  0.0985  1.9641
12830TIP3    H259982   0.170   3.110  12.563 -1.3960  1.5560 -0.1754
12831TIP3   OH259983   4.889   1.094  11.776 -0.0589 -0.2312 -0.4395
12831TIP3    H159984   4.961   1.066  11.833 -1.2855 -1.3033  0.6421
12831TIP3    H259985   4.893   1.189  11.776  2.1497 -0.2565 -1.4775
12832TIP3   OH259986   6.395   4.419  13.170 -0.0954  0.1000  0.2572
12832TIP3    H159987   6.305   4.412  13.202  0.4441 -0.2645  1.7882
12832TIP3    H259988   6.443   4.353  13.220  1.0251  0.2746 -0.5490
12833TIP3   OH259989   2.971   2.160  13.286  0.0830 -0.6767  0.1927
12833TIP3    H159990   2.951   2.086  13.343 -0.6982 -1.0399 -0.5202
12833TIP3    H259991   3.052   2.136  13.242 -0.7789 -1.6938 -0.9296
12834TIP3   OH259992   4.860   4.590  14.937 -0.3512  0.7787 -0.0721
12834TIP3    H159993   4.835   4.682  14.940 -0.3754  0.7595  0.5940
12834TIP3    H259994   4.952   4.591  14.913  0.6021  1.2023  3.0868
12835TIP3   OH259995   2.021   0.431   3.232  0.2740  0.1667 -0.7490
12835TIP3    H159996   1.983   0.498   3.176  0.5199 -0.3974 -1.6079
12835TIP3    H259997   2.115   0.451   3.234  0.0900  1.0613  0.6901
12836TIP3   OH259998   4.415   2.351   3.593 -0.0887  0.1821 -0.3975
12836TIP3    H159999   4.380   2.295   3.524 -0.0956 -0.1003 -0.1672
12836TIP3    H260000   4.368   2.433   3.583  0.1297  0.2521 -0.9222
12837TIP3   OH260001   3.494   1.373   1.820 -0.5342 -0.4557  0.2284
12837TIP3    H160002   3.557   1.444   1.813  0.2198 -1.0567  0.7944
12837TIP3    H260003   3.461   1.379   1.909  0.0837 -1.2741  0.5133
12838TIP3   OH260004   1.857   6.690   4.420  0.4695  0.2295 -0.1283
12838TIP3    H160005   1.953   6.686   4.421  0.4791 -3.5428 -0.7239
12838TIP3    H260006   1.834   6.668   4.329 -0.8958 -2.0341  0.6927
12839TIP3   OH260007   6.114   2.185  10.982 -0.6016 -0.5747  0.0386
12839TIP3    H160008   6.143   2.094  10.979 -0.0892 -0.3815 -1.2719
12839TIP3    H260009   6.050   2.192  10.912 -0.0238  0.2763 -0.4176
12840TIP3   OH260010   2.282   5.953  13.243  0.6485 -0.1862 -0.4188
12840TIP3    H160011   2.241   6.028  13.287  1.9280  1.6449 -2.1478
12840TIP3    H260012   2.348   5.993  13.186  2.6435 -2.7854 -0.0781
12841TIP3   OH260013   3.870   6.293   4.498 -0.1381  0.5878  0.1425
12841TIP3    H160014   3.777   6.315   4.488 -0.0266  1.1629  0.3166
12841TIP3    H260015   3.878   6.263   4.588 -0.2254  0.1617  0.0101
12842TIP3   OH260016   1.120   4.947   2.775  0.3549 -0.6733 -0.0840
12842TIP3    H160017   1.111   4.908   2.861  2.2410 -0.1955  0.3895
12842TIP3    H260018   1.215   4.952   2.761  0.1222  0.7342 -1.4868
12843TIP3   OH260019   4.701   1.674   0.424  0.1560  0.3841  0.1644
12843TIP3    H160020   4.794   1.653   0.424 -0.2105 -1.4965 -1.0740
12843TIP3    H260021   4.687   1.718   0.339  0.0011  1.2472  0.6208
12844TIP3   OH260022   3.983   6.403   4.875 -0.3363 -0.2513 -0.1491
12844TIP3    H160023   4.052   6.341   4.853  1.4172  0.8127  2.0490
12844TIP3    H260024   3.985   6.468   4.804 -1.9004 -2.2789 -2.2388
12845TIP3   OH260025   2.402   3.461   3.912  0.3588 -0.5439  0.0030
12845TIP3    H160026   2.496   3.455   3.895  0.5205 -0.4267  0.8130
12845TIP3    H260027   2.366   3.378   3.881  0.8718 -0.9766  0.5409
12846TIP3   OH260028   4.023   3.828   6.247  0.6032 -0.2802  0.2067
12846TIP3    H160029   4.055   3.739   6.267  2.0202  0.0865 -0.3422
12846TIP3    H260030   4.058   3.847   6.160  0.2620  0.7973  0.2961
12847TIP3   OH260031   3.761   3.218   5.643 -0.5215  0.4087 -0.3723
12847TIP3    H160032   3.720   3.213   5.729  2.8937 -0.8585  1.3303
12847TIP3    H260033   3.715   3.152   5.591 -1.4024 -0.1258  1.0270
12848TIP3   OH260034   4.322   3.651  15.530  0.3278 -0.3441  0.4486
12848TIP3    H160035   4.396   3.710  15.547  0.7600 -1.1240  1.4130
12848TIP3    H260036   4.364   3.569  15.502 -0.2436 -0.3375 -0.4443
12849TIP3   OH260037   1.697   2.856   1.674 -0.3789 -0.1630  0.0056
12849TIP3    H160038   1.746   2.776   1.688  0.8564  0.3423 -1.2270
12849TIP3    H260039   1.643   2.839   1.597 -2.6301 -0.8923  1.6394
12850TIP3   OH260040   2.046   4.133  16.699  0.4838 -0.3999  0.7376
12850TIP3    H160041   2.050   4.166  16.789 -0.3859 -1.7260  1.2868
12850TIP3    H260042   2.037   4.038  16.708  0.0569 -0.5287 -0.7457
12851TIP3   OH260043   4.760   4.753  11.096  0.0366 -0.0564 -0.1040
12851TIP3    H160044   4.665   4.766  11.093  0.1469  0.7505 -2.3356
12851TIP3    H260045   4.787   4.755  11.004  2.4251  1.4609  0.5295
12852TIP3   OH260046   0.767   1.727   4.678  0.2820  0.6330  0.2169
12852TIP3    H160047   0.675   1.735   4.652 -0.0119 -0.2675  0.9401
12852TIP3    H260048   0.796   1.645   4.637  0.9949  1.3019 -0.6514
12853TIP3   OH260049   2.142   0.027  15.694  0.2342  0.7078 -0.1770
12853TIP3    H160050   2.166   0.044  15.786  0.1769  1.9925 -0.3847
12853TIP3    H260051   2.197   0.086  15.643  0.5002 -0.2305 -1.0123
12854TIP3   OH260052   2.309   2.903  13.546  0.3420  0.5630  0.2116
12854TIP3    H160053   2.361   2.825  13.527 -0.3638  0.2301 -0.4281
12854TIP3    H260054   2.325   2.922  13.638  1.9083  0.7150 -0.0768
12855TIP3   OH260055   0.326   5.629   4.318  0.0521  0.4566  0.4771
12855TIP3    H160056   0.380   5.620   4.396  0.0035  0.6256  0.5312
12855TIP3    H260057   0.382   5.600   4.246  0.2063  0.6047  0.5356
12856TIP3   OH260058   5.277   4.363  14.316 -0.5463 -0.1553 -0.3258
12856TIP3    H160059   5.262   4.269  14.326  0.7811 -0.3415  0.2208
12856TIP3    H260060   5.234   4.403  14.392  0.8815 -0.5843  0.7588
12857TIP3   OH260061   2.138   3.253   4.767 -0.0666  0.2245 -0.1912
12857TIP3    H160062   2.110   3.304   4.691  0.5573 -0.6353 -1.0115
12857TIP3    H260063   2.079   3.281   4.837 -1.0339  0.6164 -1.1350
12858TIP3   OH260064   6.501   1.393  13.588  0.2266 -0.1992 -0.2757
12858TIP3    H160065   6.496   1.483  13.621  0.4386 -0.2344 -0.1419
12858TIP3    H260066   6.593   1.382  13.562  0.4357 -0.6751  0.5941
12859TIP3   OH260067   3.923   6.708   4.856 -0.4186  0.1666  0.0551
12859TIP3    H160068   3.859   6.775   4.833 -2.2368 -1.5526 -0.1618
12859TIP3    H260069   3.890   6.669   4.937  0.1996 -0.9284 -0.1899
12860TIP3   OH260070   3.477   0.809  12.369  0.5195 -0.3395  0.0030
12860TIP3    H160071   3.521   0.727  12.347  2.5910  0.4927  0.7457
12860TIP3    H260072   3.494   0.820  12.463 -1.7608 -0.1876  0.4439
12861TIP3   OH260073   1.343   3.194   5.137 -0.7363 -0.2599  0.2179
12861TIP3    H160074   1.289   3.117   5.117 -1.4597  0.3942 -0.4190
12861TIP3    H260075   1.313   3.260   5.075 -0.1471  0.5467  0.7851
12862TIP3   OH260076   4.241   4.677  14.127  0.4390 -0.5314  0.0702
12862TIP3    H160077   4.152   4.689  14.162  0.1759 -0.5528 -0.5879
12862TIP3    H260078   4.230   4.679  14.032  1.3912  1.5149 -0.0608
12863TIP3   OH260079   0.664   5.271  12.527  0.0837 -0.1053  0.2555
12863TIP3    H160080   0.736   5.323  12.564 -0.6862  0.0893  1.5349
12863TIP3    H260081   0.707   5.214  12.462  1.2988  0.4281  0.5580
12864TIP3   OH260082   6.389   2.381  16.535  0.3073  0.0987  0.2210
12864TIP3    H160083   6.445   2.374  16.613 -0.1121 -1.1367  0.4325
12864TIP3    H260084   6.410   2.467  16.498  0.4271  0.7667  1.7643
12865TIP3   OH260085   2.212   4.503   5.697 -0.2100  0.2655  0.2626
12865TIP3    H160086   2.178   4.539   5.615 -1.2341  0.7847  0.9073
12865TIP3    H260087   2.170   4.418   5.706 -0.0417  0.1766  0.2236
12866TIP3   OH260088   6.622   0.704   1.173 -0.2783 -0.1552 -0.0142
12866TIP3    H160089   6.664   0.790   1.173 -0.6691  0.0882 -2.0003
12866TIP3    H260090   6.555   0.710   1.105 -0.8662 -1.7777  0.3695
12867TIP3   OH260091   2.991   1.869   3.007  0.5172  0.5593 -0.1112
12867TIP3    H160092   2.973   1.925   2.931  0.2059  1.2463  0.4518
12867TIP3    H260093   3.047   1.923   3.064  2.5697 -0.7404 -0.8126
12868TIP3   OH260094   1.691   4.313   2.398  0.1865  0.0622 -0.1654
12868TIP3    H160095   1.649   4.313   2.484  0.3933  2.0857  0.0047
12868TIP3    H260096   1.659   4.235   2.355 -1.6529  0.1459  0.9412
12869TIP3   OH260097   1.674   3.077  10.279 -0.1148 -0.0790  0.7652
12869TIP3    H160098   1.705   3.138  10.212 -1.7759  0.7113  0.6603
12869TIP3    H260099   1.731   3.094  10.354  2.2544 -1.4957 -0.6015
12870TIP3   OH260100   3.354   6.386  17.081  0.2410 -0.5089 -0.3195
12870TIP3    H160101   3.305   6.467  17.069  0.4219 -0.4653 -0.8276
12870TIP3    H260102   3.393   6.370  16.995  1.7108 -0.1499  0.2406
12871TIP3   OH260103   2.163   2.203   1.391 -0.2861  0.2489  1.0594
12871TIP3    H160104   2.181   2.252   1.311 -2.7528  0.4921  0.5658
12871TIP3    H260105   2.196   2.258   1.462  1.6574  0.1686  0.2779
12872TIP3   OH260106   5.468   3.997   5.162 -0.1409  0.5219 -0.0097
12872TIP3    H160107   5.518   3.998   5.081 -3.1338  0.7273 -1.9741
12872TIP3    H260108   5.508   4.067   5.215  1.1840  1.1255 -1.7106
12873TIP3   OH260109   6.759   4.133  16.319  0.1949  0.5026 -0.4243
12873TIP3    H160110   6.669   4.131  16.353  0.2617 -0.6871 -0.2692
12873TIP3    H260111   6.751   4.174  16.233 -0.4595  0.6392 -0.3047
12874TIP3   OH260112   0.278   1.440  12.366  0.1596 -0.3640 -0.4482
12874TIP3    H160113   0.274   1.527  12.325  0.6594 -0.2109 -0.1819
12874TIP3    H260114   0.225   1.449  12.445 -0.0766 -0.4041 -0.6011
12875TIP3   OH260115   1.847   6.428  17.101 -0.0778  0.3779 -0.4115
12875TIP3    H160116   1.838   6.400  17.010  0.1827  0.9871 -0.6266
12875TIP3    H260117   1.849   6.524  17.097 -3.4167  0.6048  0.5161
12876TIP3   OH260118   3.180   3.566   1.784  0.0004  0.7697 -0.4460
12876TIP3    H160119   3.200   3.659   1.794 -0.1645  0.7404  0.2056
12876TIP3    H260120   3.260   3.528   1.747 -0.0906  1.2435 -1.1353
12877TIP3   OH260121   6.586   2.800   3.401  0.0916 -0.3240  0.4026
12877TIP3    H160122   6.515   2.755   3.355  0.4504 -1.2943  0.7679
12877TIP3    H260123   6.650   2.820   3.333  0.7304 -1.9664  0.4664
12878TIP3   OH260124   6.365   1.631   3.995  0.1529  0.5178  0.9808
12878TIP3    H160125   6.273   1.611   4.012  0.4545 -0.5449  1.4557
12878TIP3    H260126   6.390   1.689   4.067  0.6738 -1.7567  2.7537
12879TIP3   OH260127   3.014   0.977  14.360 -0.6055  0.4659  0.4989
12879TIP3    H160128   2.957   0.904  14.336 -0.2263  0.3750 -0.1451
12879TIP3    H260129   2.963   1.055  14.336 -0.4832  0.3862 -0.0298
12880TIP3   OH260130   5.871   0.584  11.127 -0.2360 -0.0464 -0.3583
12880TIP3    H160131   5.842   0.676  11.129 -2.5026 -0.6733 -1.3589
12880TIP3    H260132   5.856   0.552  11.216  0.6865  0.5424  0.0318
12881TIP3   OH260133   4.840   5.600  15.085 -0.3365  0.4160  0.6083
12881TIP3    H160134   4.808   5.558  15.006  1.4566 -0.2696  0.1804
12881TIP3    H260135   4.819   5.692  15.074 -0.3304  0.2930 -0.5697
12882TIP3   OH260136   3.604   3.534   2.569  0.4576 -0.0391 -0.2182
12882TIP3    H160137   3.612   3.480   2.491 -1.0147  0.5687 -0.8351
12882TIP3    H260138   3.582   3.472   2.639 -2.2855 -0.2205 -1.1226
12883TIP3   OH260139   5.664   3.276  13.868 -0.4714 -1.1506  0.0063
12883TIP3    H160140   5.737   3.245  13.921 -1.2980 -1.2591  1.1304
12883TIP3    H260141   5.688   3.254  13.778  1.2615 -0.4054  0.2347
12884TIP3   OH260142   3.176   0.986  13.124  0.6212 -0.1539 -0.3794
12884TIP3    H160143   3.233   1.062  13.139 -0.2450  0.7780 -1.5822
12884TIP3    H260144   3.158   0.988  13.031 -1.1526 -0.5790 -0.0712
12885TIP3   OH260145   6.825   6.757  16.261  0.3744 -0.0090 -0.2058
12885TIP3    H160146   6.864   6.775  16.347 -0.2806  0.3248  0.0357
12885TIP3    H260147   6.744   6.809  16.261 -0.6158 -1.4888 -0.2639
12886TIP3   OH260148   1.020   2.166  11.237 -0.2815 -0.1424 -0.2534
12886TIP3    H160149   1.015   2.261  11.249  0.9259 -0.1859  0.7824
12886TIP3    H260150   0.981   2.151  11.151  1.6681  1.5607 -1.5257
12887TIP3   OH260151   3.617   0.279   3.585  0.3048  0.4392 -0.3006
12887TIP3    H160152   3.618   0.222   3.662 -1.3480 -0.0935 -0.6230
12887TIP3    H260153   3.708   0.282   3.556  0.3948 -3.0059 -0.8960
12888TIP3   OH260154   3.310   3.775  11.956  0.6652 -0.2079  0.0385
12888TIP3    H160155   3.232   3.829  11.945  0.7967  0.0355  0.3041
12888TIP3    H260156   3.304   3.710  11.886  0.7714  0.4641 -0.6047
12889TIP3   OH260157   3.276   0.739  15.783  0.0068  0.4297  0.0363
12889TIP3    H160158   3.212   0.668  15.790 -1.7038  1.9785  0.8529
12889TIP3    H260159   3.273   0.765  15.691  0.8567 -0.6951 -0.3340
12890TIP3   OH260160   1.574   0.882  16.224 -0.1044 -0.2318 -0.1864
12890TIP3    H160161   1.651   0.889  16.281  1.3294  1.9305 -2.2097
12890TIP3    H260162   1.575   0.792  16.193  1.1912 -0.4472  0.4115
12891TIP3   OH260163   3.220   0.454   5.406 -0.3472 -0.1431  0.2717
12891TIP3    H160164   3.139   0.423   5.448  0.2302  1.0006  2.3717
12891TIP3    H260165   3.215   0.549   5.413  0.5884  0.0001 -0.8033
12892TIP3   OH260166   3.168   4.390   2.847  0.4798  0.3985 -0.3515
12892TIP3    H160167   3.179   4.359   2.757 -2.6251 -0.8275 -0.4004
12892TIP3    H260168   3.103   4.460   2.840  0.3581  0.4308  0.9476
12893TIP3   OH260169   5.523   4.215  10.801  0.2524 -0.0530  0.0728
12893TIP3    H160170   5.542   4.124  10.822  0.4559 -0.0716 -0.1861
12893TIP3    H260171   5.428   4.221  10.803  0.2352 -0.2952 -0.0131
12894TIP3   OH260172   4.564   4.374   4.859  0.3079 -0.6618  0.6283
12894TIP3    H160173   4.534   4.285   4.840  1.1101 -1.1231  1.4646
12894TIP3    H260174   4.655   4.375   4.831 -0.2511  0.5698 -1.3865
12895TIP3   OH260175   2.075   5.770  14.260 -0.2092 -1.0433  0.0957
12895TIP3    H160176   2.120   5.840  14.213  0.7026 -1.7902 -0.1770
12895TIP3    H260177   1.986   5.771  14.224  0.1966 -0.9670 -0.9448
12896TIP3   OH260178   3.253   5.645   4.751  0.4423 -0.4412 -0.5393
12896TIP3    H160179   3.271   5.607   4.665 -1.6953 -0.7219 -0.9334
12896TIP3    H260180   3.174   5.697   4.737  0.2626 -0.2164  1.1811
12897TIP3   OH260181   1.898   3.805   3.028 -0.5652  0.4698 -0.1208
12897TIP3    H160182   1.816   3.762   3.052 -0.7726  1.4227  0.9419
12897TIP3    H260183   1.904   3.881   3.085  0.8135  0.7155 -0.5351
12898TIP3   OH260184   0.214   0.403   2.782 -0.5579 -0.0662  0.7002
12898TIP3    H160185   0.157   0.391   2.858  0.9514  0.0197  1.9045
12898TIP3    H260186   0.282   0.335   2.793  0.4694  0.8513  0.2033
12899TIP3   OH260187   3.878   6.646   6.705  0.6839  0.0567 -0.0604
12899TIP3    H160188   3.809   6.614   6.763 -0.3438  0.6638 -0.8942
12899TIP3    H260189   3.867   6.595   6.625  0.7265  0.6654 -0.4590
12900TIP3   OH260190   0.663   6.325   5.996 -0.5566  0.0955 -0.5799
12900TIP3    H160191   0.632   6.282   6.075  2.6200 -2.5283 -0.5665
12900TIP3    H260192   0.611   6.286   5.926  0.3107 -1.7596 -0.2513
12901TIP3   OH260193   0.537   4.672  13.994 -0.4550  0.7010 -0.4176
12901TIP3    H160194   0.631   4.666  13.978 -0.0138  1.0762  1.6662
12901TIP3    H260195   0.517   4.765  13.981 -0.8456  0.4146 -2.1189
12902TIP3   OH260196   2.037   2.506  16.341  0.5109 -0.2700  0.1623
12902TIP3    H160197   1.983   2.459  16.277  1.2346 -0.7059 -0.1371
12902TIP3    H260198   2.084   2.437  16.389  0.3895  0.0771  0.7972
12903TIP3   OH260199   5.738   1.844   4.928  0.0726 -0.2090  0.5755
12903TIP3    H160200   5.648   1.835   4.961  0.1463 -2.2769  0.3807
12903TIP3    H260201   5.792   1.802   4.995  0.7561 -0.1116  0.0899
12904TIP3   OH260202   5.552   4.820  16.955  0.2075 -0.3004  0.5488
12904TIP3    H160203   5.600   4.740  16.938  0.8387  0.4021 -1.1217
12904TIP3    H260204   5.469   4.809  16.908  1.4417  1.1266 -2.1512
12905TIP3   OH260205   2.645   5.606   6.558 -0.3865 -0.0919 -0.7969
12905TIP3    H160206   2.565   5.553   6.565 -0.7484  0.4816 -0.4863
12905TIP3    H260207   2.665   5.629   6.649  1.1685 -1.7194 -0.6733
12906TIP3   OH260208   0.405   2.383  11.042 -0.2377 -0.5338  0.4947
12906TIP3    H160209   0.456   2.343  11.112 -0.6682 -0.9689  0.5626
12906TIP3    H260210   0.454   2.462  11.018 -0.1580 -0.3054  1.3857
12907TIP3   OH260211   2.547   2.923   1.605 -0.0586  0.6374  0.5742
12907TIP3    H160212   2.530   3.013   1.633  0.9510  0.6151  1.3495
12907TIP3    H260213   2.525   2.922   1.512 -1.6363  1.2501  0.9147
12908TIP3   OH260214   3.366   5.171  15.612  0.3218  0.0025  0.1274
12908TIP3    H160215   3.339   5.141  15.699 -0.1973 -1.7003 -0.5863
12908TIP3    H260216   3.452   5.209  15.626  0.1273  0.0285  1.4339
12909TIP3   OH260217   4.310   5.479   6.148  0.0395 -0.3606 -0.3076
12909TIP3    H160218   4.220   5.448   6.160 -0.5936  1.1732 -0.8744
12909TIP3    H260219   4.301   5.568   6.116  1.7822 -0.0894 -0.1561
12910TIP3   OH260220   5.262   4.462   3.088  0.3346  0.1368 -0.1289
12910TIP3    H160221   5.351   4.427   3.080  0.0717 -0.3851 -0.9605
12910TIP3    H260222   5.217   4.398   3.143  0.4256  0.3232  0.1669
12911TIP3   OH260223   0.199   5.632  15.714 -0.9035 -0.1738 -0.6367
12911TIP3    H160224   0.274   5.682  15.682 -0.3347 -0.0961  0.7291
12911TIP3    H260225   0.237   5.556  15.757 -1.5835 -0.0766  0.1684
12912TIP3   OH260226   5.879   4.740   5.168 -0.0015 -0.4467 -0.2447
12912TIP3    H160227   5.818   4.706   5.233 -0.0958 -0.5151 -0.3681
12912TIP3    H260228   5.953   4.679   5.171  0.5250  0.2055  0.6263
12913TIP3   OH260229   1.920   1.317   5.834 -0.2772  0.2815 -0.3037
12913TIP3    H160230   1.895   1.342   5.923  1.5436 -0.3665  0.4429
12913TIP3    H260231   1.971   1.392   5.801 -1.2947  0.6940 -0.9751
12914TIP3   OH260232   6.337   4.130  11.340  0.4233 -0.2509 -0.0180
12914TIP3    H160233   6.333   4.122  11.436 -0.5439 -1.1835 -0.1259
12914TIP3    H260234   6.282   4.205  11.320 -0.6745 -1.0210  0.0477
12915TIP3   OH260235   5.790   2.203   0.545  0.6221 -0.0252  0.1235
12915TIP3    H160236   5.697   2.223   0.536  0.9039  0.6611 -1.9948
12915TIP3    H260237   5.793   2.119   0.590 -0.9165  0.9646  2.2292
12916TIP3   OH260238   3.012   1.416  16.437  0.0052 -0.4663 -0.1286
12916TIP3    H160239   2.922   1.386  16.449 -0.0629 -0.6065 -0.9260
12916TIP3    H260240   3.007   1.511  16.452 -0.5032 -0.2944 -1.2546
12917TIP3   OH260241   1.618   3.357  15.419 -0.2076  0.2083 -0.0743
12917TIP3    H160242   1.561   3.282  15.435 -0.5173  0.3811 -0.3478
12917TIP3    H260243   1.648   3.384  15.506 -1.4370  0.8151  0.1823
12918TIP3   OH260244   6.406   4.320   3.463  0.0083 -0.2350 -0.0962
12918TIP3    H160245   6.500   4.316   3.443  0.4574 -0.1389  1.8558
12918TIP3    H260246   6.367   4.355   3.383  1.7849  0.9590 -0.5096
12919TIP3   OH260247   3.517   5.528  12.927  0.0963 -0.0930  0.4635
12919TIP3    H160248   3.551   5.477  13.001  0.7822  0.4473  0.5246
12919TIP3    H260249   3.566   5.496  12.851 -1.1960 -1.2464  0.0753
12920TIP3   OH260250   6.664   1.559   5.512 -0.1163  0.1172 -0.1842
12920TIP3    H160251   6.569   1.550   5.515 -0.1715  0.9321  1.8456
12920TIP3    H260252   6.691   1.504   5.438 -1.9355 -2.1198  0.6929
12921TIP3   OH260253   5.579   5.937   2.504  0.8439 -0.1646 -0.3744
12921TIP3    H160254   5.659   5.919   2.554 -0.8363  0.5875  2.8163
12921TIP3    H260255   5.517   5.871   2.533 -1.0872  2.0631  0.8698
12922TIP3   OH260256   0.016   3.075   2.741  0.0898 -0.3862 -0.2894
12922TIP3    H160257   0.024   3.018   2.817 -1.0691 -1.4728 -0.9499
12922TIP3    H260258   0.019   3.015   2.666  0.9051  0.6302 -1.0994
12923TIP3   OH260259   4.640   3.725  11.596  0.2327 -0.3366  0.1860
12923TIP3    H160260   4.635   3.645  11.543 -0.3704  0.0402 -0.3423
12923TIP3    H260261   4.553   3.763  11.590  0.8075  0.9275 -0.4682
12924TIP3   OH260262   1.616   3.426   1.723 -0.4111 -0.5416  0.5561
12924TIP3    H160263   1.659   3.469   1.649 -1.5217 -1.7141 -0.8251
12924TIP3    H260264   1.620   3.490   1.793  2.0297  0.0617 -0.0138
12925TIP3   OH260265   2.849   2.840  12.057  0.4846  0.4026 -0.5751
12925TIP3    H160266   2.938   2.855  12.024  0.1354  0.9654 -1.2728
12925TIP3    H260267   2.826   2.753  12.026  0.3952  0.6805 -1.2988
12926TIP3   OH260268   3.463   0.611  15.564 -0.5437  0.8620 -0.7964
12926TIP3    H160269   3.421   0.585  15.646 -0.7059  0.3828 -1.0298
12926TIP3    H260270   3.547   0.649  15.591  0.2601 -1.0141 -0.5113
12927TIP3   OH260271   5.276   6.498   3.947  0.0674 -0.3615 -0.0579
12927TIP3    H160272   5.255   6.587   3.975  1.2240 -0.3673  0.9061
12927TIP3    H260273   5.191   6.455   3.938 -0.4610  0.5380  0.4989
12928TIP3   OH260274   5.302   6.463   1.962  0.0979  0.4645  0.2464
12928TIP3    H160275   5.344   6.409   2.030 -1.2952 -0.4682  0.4034
12928TIP3    H260276   5.339   6.431   1.880  0.0289 -0.0361  0.4086
12929TIP3   OH260277   3.024   1.371   6.219 -0.3126 -0.7320 -0.9379
12929TIP3    H160278   3.070   1.330   6.146  1.9310 -2.7919  1.4186
12929TIP3    H260279   2.953   1.311   6.241  0.1979 -1.1167 -0.2878
12930TIP3   OH260280   1.493   5.587   4.524 -0.0316 -0.0503  0.3003
12930TIP3    H160281   1.491   5.607   4.430  0.5921  1.3784  0.5699
12930TIP3    H260282   1.407   5.548   4.541 -0.0089 -0.7036 -0.9257
12931TIP3   OH260283   1.682   5.172   3.202 -0.1341 -0.4743  0.3372
12931TIP3    H160284   1.775   5.171   3.180  0.0782 -0.4490  1.2004
12931TIP3    H260285   1.659   5.265   3.206 -0.1414 -0.4763  0.3440
12932TIP3   OH260286   6.406   5.565  16.677 -0.4328  0.3069 -0.4060
12932TIP3    H160287   6.430   5.656  16.656  0.3949  0.6331  1.7171
12932TIP3    H260288   6.317   5.571  16.711  0.2544  0.6233  1.4184
12933TIP3   OH260289   0.916   2.293  12.812  0.3689  0.4229 -0.0884
12933TIP3    H160290   0.968   2.354  12.759  0.3557  1.0288  0.5911
12933TIP3    H260291   0.859   2.349  12.865  0.2720 -0.1803  0.4580
12934TIP3   OH260292   2.519   5.288  16.109  0.2907  0.1802 -0.3079
12934TIP3    H160293   2.508   5.362  16.169  2.3071  0.6382 -0.4416
12934TIP3    H260294   2.430   5.269  16.078 -0.3468  2.2421  0.0823
12935TIP3   OH260295   0.959   5.415   0.180 -0.2358 -0.3395 -0.0695
12935TIP3    H160296   0.996   5.338   0.222 -0.2421  0.9685  2.4759
12935TIP3    H260297   0.864   5.407   0.193 -0.1367  0.8762  1.7695
12936TIP3   OH260298   2.104   1.277  14.785 -0.1068 -0.2802  0.1013
12936TIP3    H160299   2.035   1.277  14.851  0.6532 -1.1867  0.9364
12936TIP3    H260300   2.095   1.361  14.740 -2.2389 -0.6755 -0.3519
12937TIP3   OH260301   2.204   1.198   6.267  0.2460  0.0454 -0.1354
12937TIP3    H160302   2.181   1.111   6.236  1.2964  0.0296 -0.9240
12937TIP3    H260303   2.282   1.222   6.218  0.3909  1.1483  0.5747
12938TIP3   OH260304   2.309   2.206  16.787  0.0520  0.2874 -0.3513
12938TIP3    H160305   2.239   2.152  16.824 -0.4366  1.0865 -0.0844
12938TIP3    H260306   2.364   2.144  16.739  0.5645 -0.7774  1.4692
12939TIP3   OH260307   6.637   1.317   2.982 -0.3746 -0.2461  0.1391
12939TIP3    H160308   6.729   1.302   3.001 -0.5721  0.1388  1.5243
12939TIP3    H260309   6.630   1.309   2.887  1.9124  4.1101 -0.6605
12940TIP3   OH260310   3.714   5.678  13.087 -0.1922 -0.7733  0.4927
12940TIP3    H160311   3.625   5.646  13.080 -0.0559 -1.2190  0.7447
12940TIP3    H260312   3.734   5.714  13.000 -0.9334  0.2024  0.7047
12941TIP3   OH260313   5.860   2.352   1.092  0.4803  0.2841  0.4280
12941TIP3    H160314   5.800   2.369   1.164  0.1847 -1.4863  0.6458
12941TIP3    H260315   5.803   2.324   1.020  1.0345 -2.4939  0.9667
12942TIP3   OH260316   2.588   2.442   1.594 -0.5634 -0.0343 -0.0804
12942TIP3    H160317   2.586   2.434   1.689 -0.5139  0.4595 -0.0366
12942TIP3    H260318   2.660   2.385   1.567  0.6608  1.2740  0.3326
12943TIP3   OH260319   3.897   0.323  14.093  0.2567 -0.5152 -0.2304
12943TIP3    H160320   3.905   0.416  14.075  1.4939 -0.7651 -1.0846
12943TIP3    H260321   3.898   0.316  14.188 -0.9301  0.4098 -0.1262
12944TIP3   OH260322   0.125   1.095  12.573  0.3891 -0.0489 -0.5087
12944TIP3    H160323   0.202   1.048  12.541 -0.8158 -1.2736 -1.7395
12944TIP3    H260324   0.068   1.105  12.497  0.2112  2.7362 -0.0955
12945TIP3   OH260325   2.208   0.464   1.549  0.0199  0.1684  0.7678
12945TIP3    H160326   2.233   0.372   1.555  2.2664  0.7264  0.7399
12945TIP3    H260327   2.223   0.487   1.457 -1.0446  0.4524  0.6496
12946TIP3   OH260328   0.866   2.659  12.279  0.2597  0.0838 -0.1308
12946TIP3    H160329   0.801   2.625  12.341 -0.0489  1.4028  0.3248
12946TIP3    H260330   0.819   2.667  12.196 -0.6202  2.2349  0.4925
12947TIP3   OH260331   4.686   2.571   2.528 -0.1412  0.3484  0.5948
12947TIP3    H160332   4.747   2.573   2.454  0.1517 -1.1737  0.7693
12947TIP3    H260333   4.738   2.538   2.602 -0.2503  2.4843  1.6887
12948TIP3   OH260334   1.975   4.705   5.534 -0.3308  0.5802 -0.2726
12948TIP3    H160335   1.920   4.780   5.513 -1.7491 -0.4797 -0.5068
12948TIP3    H260336   1.956   4.686   5.626 -1.0000 -0.2820 -0.5757
12949TIP3   OH260337   0.983   1.386   3.754 -0.4556  0.4454  0.0984
12949TIP3    H160338   0.985   1.481   3.747 -0.4935  0.3691 -1.2838
12949TIP3    H260339   1.073   1.361   3.776 -0.3810  0.7852  0.1713
12950TIP3   OH260340   6.204   0.509   3.298  0.0798  0.3522  0.2790
12950TIP3    H160341   6.109   0.503   3.293 -0.2075  3.8145 -2.3580
12950TIP3    H260342   6.235   0.460   3.222  0.1868  1.0391 -0.1350
12951TIP3   OH260343   2.109   0.613   0.797 -0.0436 -0.3059 -0.2560
12951TIP3    H160344   2.038   0.636   0.858 -1.3075 -0.9026 -1.4471
12951TIP3    H260345   2.130   0.695   0.752 -1.5621 -0.5370 -1.4651
12952TIP3   OH260346   5.432   4.029  15.417 -0.2338 -0.2001 -1.0653
12952TIP3    H160347   5.384   4.026  15.500 -2.8884  0.3777 -2.4970
12952TIP3    H260348   5.512   4.078  15.437 -1.6358  1.4645  0.7585
12953TIP3   OH260349   3.349   2.125  16.953  0.1917 -0.2411 -0.1891
12953TIP3    H160350   3.373   2.135  17.045  2.6624 -0.0786 -0.7965
12953TIP3    H260351   3.331   2.214  16.923  0.0096 -0.2258 -0.0396
12954TIP3   OH260352   5.080   6.081   5.394 -0.4340  0.6465  0.0338
12954TIP3    H160353   5.119   6.167   5.382  0.1385  0.2713 -0.9564
12954TIP3    H260354   5.152   6.025   5.422 -0.8323  0.5129  0.8220
12955TIP3   OH260355   3.628   1.345  10.617 -0.2236 -0.3196  0.1189
12955TIP3    H160356   3.559   1.332  10.682  1.2736 -0.7942  1.6727
12955TIP3    H260357   3.657   1.257  10.596  1.1155 -0.0611  0.8347
12956TIP3   OH260358   6.746   5.363  13.608  0.1329 -0.0525 -0.2169
12956TIP3    H160359   6.680   5.418  13.650 -0.3434 -0.7142 -0.0780
12956TIP3    H260360   6.697   5.315  13.541  0.5692 -0.1916 -0.4356
12957TIP3   OH260361   4.472   2.715   5.049  0.4054  0.0716  1.0604
12957TIP3    H160362   4.380   2.723   5.074  0.3159 -0.0280  0.7676
12957TIP3    H260363   4.471   2.705   4.953  0.7300  0.2517  1.0347
12958TIP3   OH260364   6.046   6.190   0.260  0.8463  0.2086  0.0623
12958TIP3    H160365   6.037   6.177   0.166  1.2797 -0.8967  0.1492
12958TIP3    H260366   5.977   6.252   0.283 -0.9503 -1.4147 -0.5960
12959TIP3   OH260367   4.385   6.205   3.443 -0.3366  0.1993 -0.3756
12959TIP3    H160368   4.316   6.142   3.461 -0.5628  0.3000 -0.8624
12959TIP3    H260369   4.342   6.273   3.390  0.5111 -0.6167 -2.2042
12960TIP3   OH260370   0.847   5.196   0.410  0.2662  0.1594  0.0869
12960TIP3    H160371   0.835   5.212   0.504  0.0221  1.4089 -0.1347
12960TIP3    H260372   0.890   5.111   0.406  0.0330 -0.0441  1.3220
12961TIP3   OH260373   0.970   5.674  12.746  0.2953  0.4005  0.4642
12961TIP3    H160374   1.002   5.727  12.819  0.3795  2.7060 -1.1543
12961TIP3    H260375   0.875   5.675  12.755  0.2748  1.1979  0.2232
12962TIP3   OH260376   4.755   4.024  14.837 -0.0073  0.9200  0.0455
12962TIP3    H160377   4.704   3.947  14.814 -1.1493  1.8097 -0.5349
12962TIP3    H260378   4.845   3.993  14.841 -0.5093 -0.5641  0.4481
12963TIP3   OH260379   6.648   4.863  13.780  0.3548 -0.4219  0.1475
12963TIP3    H160380   6.683   4.781  13.814  1.0188 -0.0043  0.5013
12963TIP3    H260381   6.722   4.923  13.782 -0.3632  0.4695  0.8742
12964TIP3   OH260382   0.688   0.517  14.078 -0.1393 -0.3954  0.4765
12964TIP3    H160383   0.661   0.443  14.022 -1.5928 -0.2340  0.9422
12964TIP3    H260384   0.763   0.555  14.031 -1.2993 -0.2610 -1.3818
12965TIP3   OH260385   4.257   1.864   2.638  0.1866 -0.4666 -0.2873
12965TIP3    H160386   4.240   1.784   2.588 -0.8652 -0.3386 -0.1441
12965TIP3    H260387   4.179   1.876   2.691  0.6342  0.2790  0.2123
12966TIP3   OH260388   4.998   3.691   4.335  0.1015 -0.6056 -0.3115
12966TIP3    H160389   5.042   3.687   4.420  0.4308  0.8840 -0.3726
12966TIP3    H260390   4.983   3.784   4.321 -0.6304 -0.8921 -1.5500
12967TIP3   OH260391   5.902   4.049   2.767  0.4261  0.3371  0.4210
12967TIP3    H160392   5.865   4.130   2.731  0.2793 -0.9394 -2.6717
12967TIP3    H260393   5.963   4.078   2.835 -0.9924  2.8846  0.7178
12968TIP3   OH260394   5.615   4.587   0.966  0.3695  0.0248 -0.6168
12968TIP3    H160395   5.567   4.575   0.883  0.8801  0.2619 -0.9502
12968TIP3    H260396   5.701   4.618   0.939  0.9194 -0.9815 -0.0589
12969TIP3   OH260397   5.603   0.554  13.345  0.3969 -0.4951 -0.4134
12969TIP3    H160398   5.574   0.600  13.424  0.8850  0.2602 -0.6652
12969TIP3    H260399   5.695   0.534  13.362  0.0575 -1.8771 -0.0835
12970TIP3   OH260400   5.728   0.186   6.480 -0.5185  0.4783  0.2752
12970TIP3    H160401   5.675   0.129   6.425  0.8252 -0.7330  0.1642
12970TIP3    H260402   5.791   0.128   6.522 -0.4282  1.6102  1.8174
12971TIP3   OH260403   0.893   4.778  13.301 -0.1730 -0.3082  0.2931
12971TIP3    H160404   0.802   4.774  13.274 -0.1974 -0.5152  0.3997
12971TIP3    H260405   0.929   4.853  13.255 -0.4546 -0.0900  0.4274
12972TIP3   OH260406   1.391   5.623   1.675 -0.1661 -0.1957  0.4315
12972TIP3    H160407   1.472   5.605   1.628 -0.4162  0.7659 -0.4026
12972TIP3    H260408   1.329   5.650   1.607 -1.3418 -1.3886  0.9785
12973TIP3   OH260409   3.853   4.852  13.631 -0.1919 -0.0346  0.1712
12973TIP3    H160410   3.868   4.869  13.724 -1.8089  1.0945  0.2648
12973TIP3    H260411   3.806   4.769  13.629 -1.9434  0.8971  0.5579
12974TIP3   OH260412   5.467   4.599   0.666  0.7226 -0.6024  0.1407
12974TIP3    H160413   5.421   4.564   0.590  1.8658 -2.0977  0.1080
12974TIP3    H260414   5.555   4.619   0.634  1.0372 -0.6906  0.9354
12975TIP3   OH260415   0.724   2.316  12.037 -0.6355  0.2405 -0.0857
12975TIP3    H160416   0.721   2.385  12.103  0.1534 -0.4511  0.6982
12975TIP3    H260417   0.720   2.362  11.954  1.1713  1.3318  0.3797
12976TIP3   OH260418   6.615   3.129   4.367  0.7007  0.1003 -0.0125
12976TIP3    H160419   6.653   3.054   4.321 -0.2640  0.5617 -1.6391
12976TIP3    H260420   6.653   3.125   4.455 -0.2453 -3.0106  0.3760
12977TIP3   OH260421   2.900   5.957   1.043 -0.0183  0.3148 -0.3681
12977TIP3    H160422   2.898   5.892   0.973 -0.5455 -1.2865  1.0632
12977TIP3    H260423   2.938   6.035   1.002 -1.3416 -0.1678 -2.7222
12978TIP3   OH260424   1.516   2.387   0.683 -0.0211 -0.3041  0.4903
12978TIP3    H160425   1.488   2.422   0.599 -1.0236 -0.6338  0.6827
12978TIP3    H260426   1.542   2.297   0.664  1.4721  0.1535  0.2125
12979TIP3   OH260427   1.554   4.593  16.765 -0.3134 -0.2362 -0.0677
12979TIP3    H160428   1.603   4.634  16.837 -0.1663 -2.7556  1.3895
12979TIP3    H260429   1.462   4.605  16.789 -0.2850 -0.1365 -0.0090
12980TIP3   OH260430   2.684   4.610  13.334 -0.7895 -0.4181  0.5042
12980TIP3    H160431   2.599   4.568  13.323  0.1012 -2.4872  1.0742
12980TIP3    H260432   2.706   4.644  13.247 -1.6026 -1.0387  0.0512
12981TIP3   OH260433   4.865   1.981   3.953  0.4343  0.2453 -0.3824
12981TIP3    H160434   4.908   1.895   3.951  1.8092  0.9090 -0.5802
12981TIP3    H260435   4.937   2.044   3.944 -0.5889  1.4109 -0.6551
12982TIP3   OH260436   0.080   1.479   6.055  0.4160 -0.1723  0.5749
12982TIP3    H160437   0.087   1.568   6.088  0.5958  0.2588 -0.5577
12982TIP3    H260438   0.167   1.459   6.022  0.0836 -0.3017 -0.2675
12983TIP3   OH260439   6.085   0.583  12.907  0.3560  0.0728 -0.0800
12983TIP3    H160440   6.134   0.592  12.825  0.6426 -2.3703 -0.2578
12983TIP3    H260441   6.148   0.548  12.969 -0.4054 -0.1908  0.5655
12984TIP3   OH260442   2.038   2.311   1.134 -0.3726  0.0318  0.0301
12984TIP3    H160443   1.961   2.356   1.100  0.1922  0.6603 -0.4320
12984TIP3    H260444   2.048   2.234   1.079 -0.2246  0.3583 -0.4035
12985TIP3   OH260445   2.153   2.479  12.579  0.3423  0.0366 -0.5249
12985TIP3    H160446   2.130   2.571  12.590 -1.2606 -0.3553 -0.3668
12985TIP3    H260447   2.235   2.481  12.530  0.5070  1.5497 -0.2430
12986TIP3   OH260448   2.965   4.978   3.885  0.4548 -0.1557 -0.2311
12986TIP3    H160449   2.920   4.981   3.969 -0.1492  1.4866 -0.5624
12986TIP3    H260450   3.010   4.894   3.884  0.9777  0.0352  1.9787
12987TIP3   OH260451   2.459   4.162   2.748 -0.2803  0.3200 -0.1229
12987TIP3    H160452   2.492   4.242   2.707 -1.5884  0.1982 -1.5070
12987TIP3    H260453   2.387   4.192   2.804 -0.5634  0.1571 -0.3959
12988TIP3   OH260454   2.355   0.701  14.948 -0.0874  0.1640 -0.3379
12988TIP3    H160455   2.392   0.657  14.872  0.3794  1.0483 -0.6348
12988TIP3    H260456   2.271   0.735  14.918 -0.5552 -0.6997 -0.0421
12989TIP3   OH260457   5.338   2.048   2.019 -0.0250  0.3389 -0.4490
12989TIP3    H160458   5.432   2.040   2.035  0.1645  0.4152 -1.4658
12989TIP3    H260459   5.313   1.963   1.981 -0.2557  0.5146 -0.6935
12990TIP3   OH260460   6.210   0.072   1.216  0.3035 -0.0025  0.0657
12990TIP3    H160461   6.132   0.126   1.222 -0.1678 -0.4299 -1.5930
12990TIP3    H260462   6.280   0.134   1.195  0.1467  0.2217  0.2051
12991TIP3   OH260463   1.133   2.286  16.844  0.3594 -0.1515 -0.1089
12991TIP3    H160464   1.147   2.354  16.779 -1.6683  0.8895  0.4468
12991TIP3    H260465   1.175   2.318  16.923 -0.5179  0.4712  0.1282
12992TIP3   OH260466   0.262   0.708  16.091 -0.6546 -0.4026 -0.0322
12992TIP3    H160467   0.206   0.786  16.082 -0.2492 -0.1607 -0.5567
12992TIP3    H260468   0.202   0.637  16.113 -0.9740  0.1474  0.9096
12993TIP3   OH260469   5.584   3.422   2.730 -0.1015 -0.2571 -0.2115
12993TIP3    H160470   5.660   3.372   2.759  2.3071  1.0884 -3.5191
12993TIP3    H260471   5.540   3.364   2.667 -0.3449 -0.1209 -0.1663
12994TIP3   OH260472   1.896   0.199   1.610 -0.6384  0.1691 -0.6384
12994TIP3    H160473   1.929   0.231   1.526  0.6076  0.1351 -0.1935
12994TIP3    H260474   1.928   0.263   1.674 -0.6414 -0.3817 -0.0738
12995TIP3   OH260475   6.320   4.160   4.517 -0.0647 -0.4816 -0.4554
12995TIP3    H160476   6.244   4.173   4.574  0.8551  1.6613  0.3819
12995TIP3    H260477   6.383   4.113   4.572  0.1016 -0.1375 -0.3512
12996TIP3   OH260478   1.890   4.524  11.948 -0.2046 -0.2983  0.2106
12996TIP3    H160479   1.929   4.462  12.010  0.3631 -0.2819 -0.1207
12996TIP3    H260480   1.963   4.580  11.921 -0.9186  1.3504  1.4623
12997TIP3   OH260481   3.134   2.372   5.386  0.4056 -0.0287  0.0525
12997TIP3    H160482   3.138   2.381   5.482 -1.7882 -0.0008  0.1885
12997TIP3    H260483   3.226   2.366   5.359  1.0567 -0.9854  2.2404
12998TIP3   OH260484   6.428   1.057  15.458  0.4304  0.2131  0.0260
12998TIP3    H160485   6.434   1.037  15.552  2.1053 -2.8543 -0.6072
12998TIP3    H260486   6.508   1.021  15.420 -0.6536  0.4342 -2.7212
12999TIP3   OH260487   0.582   3.624   1.233  0.4192  0.0016 -0.3815
12999TIP3    H160488   0.654   3.632   1.295  0.5818 -1.0975 -0.4013
12999TIP3    H260489   0.588   3.534   1.201 -1.0377 -0.1525 -0.2914
13000TIP3   OH260490   3.670   5.932   5.590 -0.3798 -0.1043  0.4840
13000TIP3    H160491   3.725   5.855   5.605 -0.8871 -1.0977 -2.2092
13000TIP3    H260492   3.705   5.971   5.510 -2.7865 -0.0778 -0.6233
13001TIP3   OH260493   0.748   1.188  10.554  0.0671 -0.4606  0.4355
13001TIP3    H160494   0.664   1.208  10.512  0.3668 -2.3887 -1.2000
13001TIP3    H260495   0.812   1.240  10.506  0.1462 -1.0786 -0.1329
13002TIP3   OH260496   4.700   0.203  11.677 -0.0795 -0.6192  0.0910
13002TIP3    H160497   4.669   0.273  11.620 -0.6823 -0.9199  0.0334
13002TIP3    H260498   4.628   0.188  11.738 -0.8481 -2.5677 -1.1912
13003TIP3   OH260499   1.222   6.733   1.735 -0.1441 -0.0309 -0.1117
13003TIP3    H160500   1.312   6.760   1.748 -0.5574  1.1579  0.4108
13003TIP3    H260501   1.199   6.766   1.648 -1.0066  2.4726  0.9735
13004TIP3   OH260502   4.675   3.811  15.088 -0.1990  0.9910  0.2061
13004TIP3    H160503   4.731   3.889  15.096 -1.4710  1.8780  0.8288
13004TIP3    H260504   4.732   3.738  15.113  0.5611  1.9217  1.3269
13005TIP3   OH260505   4.366   3.683   1.160 -0.6275  0.0548  0.1093
13005TIP3    H160506   4.310   3.746   1.206 -0.5033 -0.1635  0.5690
13005TIP3    H260507   4.355   3.602   1.209  0.2921  0.0748  0.3579
13006TIP3   OH260508   2.920   3.311   5.936  0.1739  0.3425 -0.8261
13006TIP3    H160509   2.849   3.374   5.927 -0.1980 -0.0562 -0.7382
13006TIP3    H260510   2.918   3.286   6.029  1.4412  1.4946 -0.4618
13007TIP3   OH260511   1.273   3.552   4.563  0.3163  0.0556  0.4959
13007TIP3    H160512   1.282   3.485   4.496 -3.1339 -0.3508  0.2359
13007TIP3    H260513   1.244   3.630   4.515 -1.1275  0.0659  1.3278
13008TIP3   OH260514   2.809   5.027  12.231 -0.2232 -0.2154  0.5350
13008TIP3    H160515   2.720   4.996  12.219 -0.3809  0.2904  0.3619
13008TIP3    H260516   2.808   5.117  12.197  0.4591 -0.3568  0.1160
13009TIP3   OH260517   2.697   3.212   0.464  0.2607 -0.1045 -0.0574
13009TIP3    H160518   2.704   3.246   0.553  1.1268 -0.8916  0.1825
13009TIP3    H260519   2.768   3.149   0.456  0.2110 -0.0269 -1.3209
13010TIP3   OH260520   0.012   1.020   3.906  0.5023  0.1188  0.1569
13010TIP3    H160521   0.081   1.083   3.927 -0.3985  0.2457  3.1963
13010TIP3    H260522   0.018   0.954   3.974  1.5486 -3.4008 -3.0222
13011TIP3   OH260523   0.373   5.328  16.207 -0.0947 -0.4596  0.7527
13011TIP3    H160524   0.442   5.348  16.143  1.3112 -2.7887  1.4451
13011TIP3    H260525   0.406   5.364  16.289 -0.2155 -0.6386  0.8790
13012TIP3   OH260526   1.948   6.113   3.328  0.1540  0.2948  0.6342
13012TIP3    H160527   1.949   6.088   3.420  1.9508  1.3251  0.9512
13012TIP3    H260528   2.037   6.093   3.297 -0.8212 -1.3915 -1.2925
13013TIP3   OH260529   2.525   1.656  10.733  0.2576  0.0075 -0.2622
13013TIP3    H160530   2.596   1.623  10.788 -0.1498  1.5009  1.2648
13013TIP3    H260531   2.480   1.578  10.702  1.6823 -0.9235 -0.0764
13014TIP3   OH260532   1.570   5.021  14.685 -0.1838 -0.0400  0.3382
13014TIP3    H160533   1.534   4.934  14.669  1.3636 -0.5530 -0.5715
13014TIP3    H260534   1.494   5.075  14.705 -1.2638 -1.4084  0.1025
13015TIP3   OH260535   2.144   2.909  13.184 -0.2381  0.6315 -0.2931
13015TIP3    H160536   2.180   2.980  13.237  0.0980  1.8178 -2.0402
13015TIP3    H260537   2.201   2.904  13.107 -0.5583 -1.2154 -0.4675
13016TIP3   OH260538   4.050   1.067  11.518 -0.6521 -0.1139  0.3970
13016TIP3    H160539   4.100   1.091  11.440  0.0655 -0.3662  0.7692
13016TIP3    H260540   4.111   1.015  11.570 -1.6328 -1.3283  0.3819
13017TIP3   OH260541   4.160   3.078  11.580 -0.2910 -0.3094  0.0852
13017TIP3    H160542   4.147   2.995  11.625  0.3059  0.9961  2.9262
13017TIP3    H260543   4.254   3.083  11.566 -0.5595 -1.1253 -2.3400
13018TIP3   OH260544   6.235   1.945  13.930  0.1720  0.2529  0.4343
13018TIP3    H160545   6.154   1.993  13.950  0.1063  1.2585 -1.9912
13018TIP3    H260546   6.211   1.853  13.943 -1.5981  0.4822 -0.7801
13019TIP3   OH260547   6.634   3.978  11.729  0.2985  0.1208  0.3585
13019TIP3    H160548   6.660   3.990  11.638  1.5018  0.1790  0.6975
13019TIP3    H260549   6.712   3.944  11.773 -0.3008 -0.0364  1.3439
13020TIP3   OH260550   2.229   3.097   1.102  0.9133 -0.2573 -0.0568
13020TIP3    H160551   2.295   3.156   1.067 -0.4895  0.2867 -1.9547
13020TIP3    H260552   2.271   3.011   1.105  1.8000  0.1344 -0.9406
13021TIP3   OH260553   4.548   4.953  14.425 -0.2925 -0.1037  0.0643
13021TIP3    H160554   4.590   4.874  14.459 -1.7255 -0.9114  0.0432
13021TIP3    H260555   4.457   4.927  14.410 -0.7349  1.4892 -0.1889
13022TIP3   OH260556   0.795   3.705  16.809 -0.1580 -0.0756  0.2644
13022TIP3    H160557   0.760   3.715  16.720  0.4755  0.4221  0.0544
13022TIP3    H260558   0.761   3.621  16.839  1.0869 -1.1713 -1.1670
13023TIP3   OH260559   1.874   1.235  12.976  0.4180  0.1245  0.3193
13023TIP3    H160560   1.788   1.238  12.933 -0.4563 -1.3640  1.8855
13023TIP3    H260561   1.889   1.325  13.005 -0.0260  0.6591 -1.0078
13024TIP3   OH260562   1.309   2.165  16.528  0.4301 -0.2422  0.6018
13024TIP3    H160563   1.253   2.142  16.602 -1.9355 -0.2272 -1.0599
13024TIP3    H260564   1.311   2.086  16.473  2.7637 -0.5092  0.9600
13025TIP3   OH260565   0.795   6.158  14.798  0.5226 -0.2770 -0.0383
13025TIP3    H160566   0.855   6.233  14.797  2.1129 -1.5232 -1.2472
13025TIP3    H260567   0.826   6.104  14.871 -0.5328  0.1026  0.7329
13026TIP3   OH260568   4.216   3.724   4.650 -0.1363 -0.2543  0.0395
13026TIP3    H160569   4.166   3.695   4.575 -1.4520 -0.1339  0.8481
13026TIP3    H260570   4.239   3.643   4.696  1.1439 -0.3720 -0.7445
13027TIP3   OH260571   1.555   4.919   1.728  0.5599 -0.0916 -0.0126
13027TIP3    H160572   1.583   4.838   1.686 -1.3004  0.2860 -2.1373
13027TIP3    H260573   1.460   4.916   1.727  0.4509  1.6130  0.9442
13028TIP3   OH260574   0.987   1.638  11.092 -0.6602 -0.2176  1.0546
13028TIP3    H160575   0.897   1.638  11.058 -0.7567 -0.3401  1.3037
13028TIP3    H260576   0.983   1.579  11.167 -0.5164  0.2831  1.4551
13029TIP3   OH260577   3.276   1.964  14.908  0.1845 -0.0550  0.1563
13029TIP3    H160578   3.227   2.043  14.885  1.7048  0.8473 -0.1151
13029TIP3    H260579   3.215   1.913  14.960 -1.1369  0.8876 -0.3962
13030TIP3   OH260580   5.948   6.468   2.880  0.2510 -0.1306  0.9094
13030TIP3    H160581   5.883   6.414   2.835  1.7302 -1.4211  0.2087
13030TIP3    H260582   5.976   6.531   2.813  2.0985 -1.7436  0.0221
13031TIP3   OH260583   2.306   6.542   3.923 -0.4862  0.0610  0.2827
13031TIP3    H160584   2.289   6.453   3.895  0.9755 -0.0307 -0.3953
13031TIP3    H260585   2.225   6.589   3.905 -0.9282 -0.9051 -0.3064
13032TIP3   OH260586   2.716   1.623   4.794 -0.9436 -0.5045  0.1637
13032TIP3    H160587   2.720   1.657   4.883 -2.2253 -0.6348  0.2925
13032TIP3    H260588   2.660   1.545   4.801 -1.5080 -0.2086 -0.8330
13033TIP3   OH260589   4.422   6.454   0.466 -0.0665 -0.5816  0.1130
13033TIP3    H160590   4.484   6.417   0.529 -1.8156 -0.6278  1.9175
13033TIP3    H260591   4.410   6.386   0.401  1.4765 -0.7049 -0.0818
13034TIP3   OH260592   1.177   4.310   2.343  0.4154  0.3769  0.1775
13034TIP3    H160593   1.136   4.348   2.265  2.2334  1.6269 -0.2418
13034TIP3    H260594   1.264   4.350   2.346  0.9746 -0.8458  1.9801
13035TIP3   OH260595   6.737   1.832   2.815  0.0064  0.7819  0.0662
13035TIP3    H160596   6.689   1.752   2.832  0.9219  0.1912 -0.0558
13035TIP3    H260597   6.800   1.838   2.887  1.3097  0.2961 -0.9816
13036TIP3   OH260598   5.113   0.837  15.404 -0.0768  0.0178 -0.0529
13036TIP3    H160599   5.085   0.748  15.422  0.1838 -0.2958 -1.1355
13036TIP3    H260600   5.147   0.834  15.314 -1.1385  1.4376 -0.5460
13037TIP3   OH260601   1.123   2.290  14.997  0.0559 -0.4748 -0.5901
13037TIP3    H160602   1.033   2.282  15.027 -0.2849 -0.6084 -1.6128
13037TIP3    H260603   1.130   2.379  14.963 -0.2742 -1.0569 -2.2891
13038TIP3   OH260604   0.493   1.771   4.602  0.4102  0.5550 -0.0476
13038TIP3    H160605   0.479   1.866   4.602  2.4240  0.9028 -0.1458
13038TIP3    H260606   0.445   1.740   4.525  0.0129  1.5309 -0.2130
13039TIP3   OH260607   6.525   5.068   2.648  0.1417 -0.5029  0.0425
13039TIP3    H160608   6.510   5.064   2.743 -0.5306 -0.0176 -0.0318
13039TIP3    H260609   6.549   4.979   2.623  0.2061 -0.6581  0.6493
13040TIP3   OH260610   5.225   3.017   4.630 -0.2974 -0.3542 -0.0977
13040TIP3    H160611   5.282   2.940   4.625  1.0528  0.5109  1.1700
13040TIP3    H260612   5.247   3.068   4.552 -2.5320 -2.0492 -1.9639
13041TIP3   OH260613   4.387   4.966   3.577 -0.6398 -0.3153  0.0353
13041TIP3    H160614   4.459   4.918   3.617  0.1641 -1.3882 -2.5162
13041TIP3    H260615   4.322   4.898   3.556 -0.7661  0.1181 -1.0133
13042TIP3   OH260616   6.219   1.128  16.850  0.4991  0.2806 -0.3861
13042TIP3    H160617   6.166   1.051  16.828 -0.7873  1.0594 -0.1309
13042TIP3    H260618   6.177   1.200  16.803  1.9521  0.7757 -0.9930
13043TIP3   OH260619   2.833   6.512  13.359 -0.2202 -0.0595 -0.9265
13043TIP3    H160620   2.810   6.520  13.452 -2.5780 -0.8528 -1.3582
13043TIP3    H260621   2.925   6.486  13.359  0.4891  2.0792  1.0767
13044TIP3   OH260622   3.911   1.850  14.729  0.5263 -0.2846 -0.5292
13044TIP3    H160623   3.994   1.889  14.704  0.2554  0.6019 -0.0839
13044TIP3    H260624   3.924   1.821  14.819 -0.0475  1.0847  0.0190
13045TIP3   OH260625   4.342   4.948  16.203  0.0632 -0.2919  0.5948
13045TIP3    H160626   4.366   4.984  16.118  0.0362  0.6110  0.9562
13045TIP3    H260627   4.311   4.860  16.184 -2.0175  0.6406 -0.6011
13046TIP3   OH260628   6.439   4.830   0.784 -0.4039 -0.2991  0.0827
13046TIP3    H160629   6.384   4.754   0.764 -2.7649  1.2349  0.2371
13046TIP3    H260630   6.390   4.905   0.748  1.9563  1.1570 -0.3544
13047TIP3   OH260631   4.759   4.549   0.992  0.3567  0.6812 -0.0510
13047TIP3    H160632   4.672   4.514   0.972  0.5774  0.0821  0.0109
13047TIP3    H260633   4.799   4.483   1.048  1.1607  0.5511 -0.7632
13048TIP3   OH260634   3.195   6.735   0.949 -0.3169 -0.0039  0.5648
13048TIP3    H160635   3.147   6.812   0.918 -1.5115 -1.3578 -1.1522
13048TIP3    H260636   3.283   6.747   0.915 -0.3393  0.8538  0.7789
13049TIP3   OH260637   2.339   5.631  14.281  0.1962 -0.3007  0.0607
13049TIP3    H160638   2.316   5.545  14.317 -1.4525  0.0310 -0.0943
13049TIP3    H260639   2.258   5.682  14.289  1.4194  1.6063  1.1903
13050TIP3   OH260640   3.016   0.668  17.177 -0.4654 -0.2899 -0.4679
13050TIP3    H160641   2.942   0.728  17.165 -0.5317 -0.1377  0.6287
13050TIP3    H260642   3.012   0.642  17.269 -0.0392 -1.4698 -0.7634
13051TIP3   OH260643   0.690   5.240  11.193 -0.2998 -0.3936 -0.2115
13051TIP3    H160644   0.684   5.278  11.105  0.3416  0.4631  0.1101
13051TIP3    H260645   0.726   5.152  11.178  3.0982  0.9131 -0.5585
13052TIP3   OH260646   0.584   4.510  10.304  0.3472  0.2940  0.2162
13052TIP3    H160647   0.502   4.465  10.326  0.5094 -0.4525 -0.6614
13052TIP3    H260648   0.561   4.603  10.305 -0.9765  0.0424 -1.7056
13053TIP3   OH260649   5.635   3.840  15.730 -0.5275 -0.3085  0.6762
13053TIP3    H160650   5.667   3.765  15.781  1.2664 -0.1437 -0.1154
13053TIP3    H260651   5.691   3.841  15.652  0.4381  2.6487  1.2992
13054TIP3   OH260652   4.627   0.565   0.042  1.0272  0.1986  0.7097
13054TIP3    H160653   4.660   0.654   0.055  1.6420  0.0516  0.2282
13054TIP3    H260654   4.599   0.536   0.129 -1.3486  1.6796  0.5143
13055TIP3   OH260655   4.859   3.139   3.214  0.6238  0.0405 -0.1918
13055TIP3    H160656   4.948   3.115   3.188  0.4054 -1.4172  0.3114
13055TIP3    H260657   4.870   3.209   3.279  1.4092 -0.3449  0.0924
13056TIP3   OH260658   5.131   2.999  15.508  0.2438 -0.5990 -0.0918
13056TIP3    H160659   5.043   2.976  15.479 -0.6217 -1.2456  2.7335
13056TIP3    H260660   5.132   3.095  15.510  0.6368 -0.4560 -2.7584
13057TIP3   OH260661   0.726   2.926  13.827  0.3994 -0.5576  0.5415
13057TIP3    H160662   0.631   2.924  13.835  0.2297  0.8782 -0.8285
13057TIP3    H260663   0.750   3.018  13.840  1.0685  0.0881 -3.8210
13058TIP3   OH260664   4.902   1.199   5.147  0.0625 -0.6166  0.2290
13058TIP3    H160665   4.963   1.142   5.100  0.3916  1.0862 -1.5149
13058TIP3    H260666   4.952   1.232   5.221  1.1099  0.3078 -0.8621
13059TIP3   OH260667   3.089   4.035   0.175 -0.4443  0.2544 -0.5134
13059TIP3    H160668   3.092   3.960   0.234  0.9897  0.3955 -0.3851
13059TIP3    H260669   2.997   4.062   0.177 -0.9047 -1.2201 -0.2351
13060TIP3   OH260670   1.693   4.259  16.552 -0.2998 -0.2923 -0.1188
13060TIP3    H160671   1.731   4.337  16.591 -1.2143  1.2454 -2.1042
13060TIP3    H260672   1.695   4.276  16.457 -0.8580 -2.5188 -0.5946
13061TIP3   OH260673   6.030   5.304  11.945  0.2171  0.4629  0.0800
13061TIP3    H160674   6.097   5.251  11.988  1.0214  0.8281 -0.6864
13061TIP3    H260675   6.036   5.280  11.852 -0.7170  0.5056 -0.0004
13062TIP3   OH260676   5.159   4.302  15.317 -0.0117  0.3184 -0.3065
13062TIP3    H160677   5.194   4.346  15.240  0.5481  1.7927  0.7462
13062TIP3    H260678   5.136   4.372  15.377  0.7146 -0.7920  1.3550
13063TIP3   OH260679   5.844   5.368   1.032  0.2510  0.0397  0.2723
13063TIP3    H160680   5.772   5.323   1.076  0.7253 -1.1540 -0.1222
13063TIP3    H260681   5.802   5.420   0.963 -0.1904 -1.4675 -0.6522
13064TIP3   OH260682   1.368   5.969   1.304 -0.3621 -0.1794 -0.0365
13064TIP3    H160683   1.434   5.949   1.237  1.1190 -1.4022  1.6952
13064TIP3    H260684   1.391   6.057   1.334  1.3035 -1.0398  1.3749
13065TIP3   OH260685   2.205   1.282   5.636 -0.2377  0.1563  0.0617
13065TIP3    H160686   2.300   1.274   5.628 -0.3452  0.3242 -1.6851
13065TIP3    H260687   2.191   1.368   5.677  0.3851 -0.8513  2.5641
13066TIP3   OH260688   0.065   3.943   5.378  0.1624  0.2310 -0.4192
13066TIP3    H160689   0.014   3.877   5.426  0.5282 -0.2458 -0.6745
13066TIP3    H260690   0.117   3.892   5.316  2.2173  0.5222  0.9457
13067TIP3   OH260691   5.235   0.147  16.358  0.4800 -0.8020 -0.1198
13067TIP3    H160692   5.152   0.192  16.344 -0.7325 -2.7404  0.3751
13067TIP3    H260693   5.267   0.127  16.270 -0.4536 -1.5100 -0.3103
13068TIP3   OH260694   0.366   1.270   0.677  0.5272  0.2994  0.2934
13068TIP3    H160695   0.322   1.260   0.593  1.4429 -2.1568  0.0425
13068TIP3    H260696   0.395   1.362   0.678 -2.8390  1.4881 -0.3179
13069TIP3   OH260697   6.353   3.128   3.777 -0.3939  0.1072 -0.4776
13069TIP3    H160698   6.380   3.097   3.690 -0.5898  2.7637 -1.6106
13069TIP3    H260699   6.306   3.055   3.816  1.9207 -2.0826 -1.5234
13070TIP3   OH260700   2.072   4.516   1.690  0.1768  0.3199  0.2110
13070TIP3    H160701   2.065   4.422   1.707 -1.1043  0.2272 -0.6690
13070TIP3    H260702   1.987   4.552   1.717 -0.0109  0.9259 -1.1091
13071TIP3   OH260703   2.987   4.464  11.508 -0.5463  0.1910  0.3121
13071TIP3    H160704   2.926   4.523  11.552 -2.6520 -2.1612  0.7655
13071TIP3    H260705   2.952   4.454  11.420  1.9015  2.3942 -1.0809
13072TIP3   OH260706   6.509   2.903  12.084  0.2311  0.1091  0.0868
13072TIP3    H160707   6.539   2.839  12.149 -2.3834  0.3959  1.7358
13072TIP3    H260708   6.485   2.851  12.008 -2.0706 -1.0677  1.4727
13073TIP3   OH260709   0.223   2.560   1.294 -0.3314 -0.0114 -0.8946
13073TIP3    H160710   0.206   2.490   1.230 -0.1870 -1.4348  0.5409
13073TIP3    H260711   0.292   2.613   1.254 -0.3656 -0.7507 -1.9859
13074TIP3   OH260712   1.615   0.293  16.278  0.0358 -0.1486 -0.4837
13074TIP3    H160713   1.596   0.348  16.355  0.8952  1.9355 -1.6647
13074TIP3    H260714   1.543   0.230  16.275 -1.2762  1.2137  0.7005
13075TIP3   OH260715   6.195   0.370  15.288  0.0138  0.0571  0.8804
13075TIP3    H160716   6.199   0.274  15.294 -0.7244 -0.1123 -0.8622
13075TIP3    H260717   6.167   0.398  15.376  1.6540 -1.1894  1.8609
13076TIP3   OH260718   2.507   0.138   6.045 -0.1625  0.6712  0.0269
13076TIP3    H160719   2.479   0.050   6.072  0.6739 -0.1859 -1.7191
13076TIP3    H260720   2.461   0.197   6.105  0.9544 -1.0007  2.7179
13077TIP3   OH260721   5.211   4.661  13.647 -0.5829 -0.7042  0.5616
13077TIP3    H160722   5.236   4.754  13.643  1.0826 -1.1755 -0.7622
13077TIP3    H260723   5.260   4.626  13.721 -0.9704 -0.6053  0.8673
13078TIP3   OH260724   3.774   5.977  12.130  0.0524 -0.1166  0.0611
13078TIP3    H160725   3.847   6.027  12.094 -0.5908  0.8068 -0.0122
13078TIP3    H260726   3.746   5.920  12.058 -0.0192  0.3530 -0.2895
13079TIP3   OH260727   6.671   0.177   0.569  0.0631 -0.3504 -0.0308
13079TIP3    H160728   6.608   0.248   0.578  0.0461 -0.2416 -0.9244
13079TIP3    H260729   6.711   0.191   0.484  0.8734 -0.7647  0.2728
13080TIP3   OH260730   2.761   0.742  11.395  0.6236  0.2784  0.1053
13080TIP3    H160731   2.818   0.683  11.346 -0.1140 -1.2101  0.9864
13080TIP3    H260732   2.674   0.702  11.390 -0.0566  1.7009  0.0818
13081TIP3   OH260733   1.102   2.529   4.125 -0.0679  0.1055  0.3445
13081TIP3    H160734   1.065   2.505   4.210 -1.9034  2.4148  0.2811
13081TIP3    H260735   1.028   2.563   4.075  1.3585  0.7540 -1.4471
13082TIP3   OH260736   2.969   1.875  16.822 -0.3376  0.1428 -0.1910
13082TIP3    H160737   2.876   1.864  16.805 -0.8883  1.2375  1.7914
13082TIP3    H260738   3.005   1.906  16.740 -1.9577  0.8829 -0.6576
13083TIP3   OH260739   1.639   4.292  13.183 -0.3946  0.1383 -0.8682
13083TIP3    H160740   1.679   4.375  13.208 -1.6999  0.3328  0.8127
13083TIP3    H260741   1.672   4.230  13.248  0.9914 -0.8317 -2.4234
13084TIP3   OH260742   3.163   3.896  13.826 -0.3502 -0.0103  0.5460
13084TIP3    H160743   3.193   3.960  13.762  0.4514  0.4065  1.3060
13084TIP3    H260744   3.133   3.948  13.900 -0.8316 -0.4916  0.6942
13085TIP3   OH260745   6.388   3.519  14.830 -0.4361  0.3053 -0.0881
13085TIP3    H160746   6.298   3.487  14.829 -0.6618  0.8923  0.7895
13085TIP3    H260747   6.432   3.469  14.761 -0.5801 -2.4678  1.6792
13086TIP3   OH260748   2.395   2.806  14.347 -0.2959  0.2851 -0.3469
13086TIP3    H160749   2.413   2.782  14.438 -1.1712  1.2667  0.1064
13086TIP3    H260750   2.353   2.892  14.353  1.3894  1.3014 -1.7842
13087TIP3   OH260751   4.434   1.147  14.123 -0.7415  0.7560  0.0666
13087TIP3    H160752   4.401   1.065  14.086 -0.8205  1.0909 -0.6253
13087TIP3    H260753   4.506   1.171  14.065 -0.2080  0.7784  0.7235
13088TIP3   OH260754   5.116   0.017   4.898 -0.0328  0.7938  0.1376
13088TIP3    H160755   5.181  -0.026   4.953 -1.4390 -0.8968  0.5779
13088TIP3    H260756   5.101  -0.045   4.826 -3.5320 -0.5305  1.7945
13089TIP3   OH260757   1.348   4.032   6.044  0.1290  0.1356  0.1507
13089TIP3    H160758   1.409   4.091   6.089  0.9085  0.0093 -0.7104
13089TIP3    H260759   1.307   3.982   6.114  1.0930  0.1559  0.7486
13090TIP3   OH260760   3.916   6.049   1.604  0.2235 -0.1208 -0.2204
13090TIP3    H160761   3.925   6.128   1.656 -0.1654 -0.2133 -0.0108
13090TIP3    H260762   3.834   6.062   1.555 -0.2103 -0.6870  0.3356
13091TIP3   OH260763   1.770   5.709  15.268  0.2579  0.4911 -0.0033
13091TIP3    H160764   1.835   5.725  15.337  3.0596  0.4292 -2.4374
13091TIP3    H260765   1.732   5.624  15.290  0.4570  0.8425  1.8622
13092TIP3   OH260766   2.508   0.453   2.631  0.3809 -0.4463  0.5908
13092TIP3    H160767   2.420   0.430   2.600 -0.1758 -0.1203  1.8902
13092TIP3    H260768   2.498   0.542   2.665  1.5919  0.2251 -0.6901
13093TIP3   OH260769   0.956   6.625   6.640  0.3241 -0.6263  0.7320
13093TIP3    H160770   0.917   6.707   6.609  0.8915 -0.2222  1.0993
13093TIP3    H260771   0.905   6.602   6.717 -1.0014 -1.5598 -0.3749
13094TIP3   OH260772   3.572   1.665   4.309  0.4642  0.2615  0.2813
13094TIP3    H160773   3.603   1.631   4.393  1.1199  1.9647  0.7771
13094TIP3    H260774   3.616   1.612   4.243  1.6559  0.2902  1.0195
13095TIP3   OH260775   3.812   0.695  16.554  0.2176  0.6405  0.0900
13095TIP3    H160776   3.741   0.687  16.617 -0.2781  1.1026 -0.4020
13095TIP3    H260777   3.838   0.604  16.536 -1.1452  0.3851 -0.7254
13096TIP3   OH260778   6.502   4.368   4.654  0.2062  0.7530  0.3765
13096TIP3    H160779   6.469   4.306   4.720 -1.1356  0.6592 -0.3522
13096TIP3    H260780   6.428   4.381   4.594  1.6808  0.0267 -1.7261
13097TIP3   OH260781   0.795   4.036   5.138 -0.1093  0.1658 -0.2187
13097TIP3    H160782   0.782   3.999   5.225 -1.0483  0.7183 -0.1168
13097TIP3    H260783   0.886   4.065   5.138  0.6109 -1.9225 -0.2296
13098TIP3   OH260784   1.057   4.991  15.460  0.4053  0.2903 -0.0604
13098TIP3    H160785   1.095   5.065  15.508 -1.8279 -0.0931  2.5639
13098TIP3    H260786   0.979   4.969  15.509 -1.4916 -0.9829 -3.3282
13099TIP3   OH260787   5.650   2.488  14.632 -0.1708 -0.6359 -0.2030
13099TIP3    H160788   5.629   2.487  14.538  1.2515 -0.1036 -0.5498
13099TIP3    H260789   5.729   2.435  14.639 -0.7715 -1.4366  0.8573
13100TIP3   OH260790   0.961   4.118  13.977  0.5224  0.1033 -0.2593
13100TIP3    H160791   0.912   4.123  14.059 -1.7056 -2.2747 -1.3254
13100TIP3    H260792   1.050   4.093  14.004  0.7065  2.3198  1.5516
13101TIP3   OH260793   2.172   4.968  13.115  0.4553  0.2695 -0.7229
13101TIP3    H160794   2.188   4.962  13.209  1.1712 -0.7712 -0.8998
13101TIP3    H260795   2.241   5.026  13.082 -1.0009  2.3378 -0.3482
13102TIP3   OH260796   2.054   4.710   0.822  0.6946 -0.2881 -0.5597
13102TIP3    H160797   2.023   4.639   0.766 -0.0793 -0.1340 -0.3357
13102TIP3    H260798   2.136   4.677   0.859  0.3432 -1.0703 -0.4597
13103TIP3   OH260799   4.660   3.931   0.734 -0.0539  0.7699  0.1318
13103TIP3    H160800   4.747   3.892   0.732 -0.5855 -0.4758  0.2166
13103TIP3    H260801   4.666   4.008   0.678  1.2501  1.0362  0.6209
13104TIP3   OH260802   5.408   5.580  13.607 -0.7402  0.1602 -0.1158
13104TIP3    H160803   5.315   5.567  13.623 -0.8281  3.0531  2.8281
13104TIP3    H260804   5.450   5.501  13.641 -1.9988 -0.8047 -0.7025
13105TIP3   OH260805   5.120   0.831   5.247  1.0087  0.4597 -0.3759
13105TIP3    H160806   5.032   0.815   5.281  0.9116 -0.0660 -0.8584
13105TIP3    H260807   5.106   0.882   5.168  1.0121 -0.9661 -1.3351
13106TIP3   OH260808   2.261   2.903   3.977  0.4605 -0.5707 -0.2322
13106TIP3    H160809   2.221   2.873   3.896  0.8812  0.4868 -0.8633
13106TIP3    H260810   2.324   2.835   3.999  0.9771 -0.4605 -1.2939
13107TIP3   OH260811   1.089   0.556  13.016 -0.2489 -0.1485  0.1212
13107TIP3    H160812   1.046   0.638  13.041  2.6625  1.1132  1.5409
13107TIP3    H260813   1.183   0.576  13.023  0.5791 -3.3261 -0.5318
13108TIP3   OH260814   2.806   1.103  11.464  0.4463 -0.0547 -0.0840
13108TIP3    H160815   2.836   1.095  11.374  1.9658  2.4372  0.1018
13108TIP3    H260816   2.733   1.165  11.460 -1.7652 -2.4912  0.0728
13109TIP3   OH260817   3.572   2.922   4.896 -0.5438  0.7814 -0.1824
13109TIP3    H160818   3.476   2.931   4.898 -0.8350 -1.6568  1.2504
13109TIP3    H260819   3.587   2.828   4.893  1.8495  1.1282 -0.8551
13110TIP3   OH260820   2.027   6.344   1.293  0.1068  0.2053  0.2969
13110TIP3    H160821   2.027   6.255   1.327 -0.6369  0.6375  1.4892
13110TIP3    H260822   2.117   6.360   1.266 -0.4123 -2.3465 -3.9528
13111TIP3   OH260823   1.803   0.687  12.479 -0.0825 -0.6795 -0.1068
13111TIP3    H160824   1.717   0.658  12.448  0.2699 -0.0366 -1.8049
13111TIP3    H260825   1.856   0.694  12.399  0.7575  1.5346  0.5685
13112TIP3   OH260826   1.376   5.635  13.895  0.2001  0.4571 -0.6178
13112TIP3    H160827   1.400   5.642  13.803  2.6093 -1.2505 -0.2357
13112TIP3    H260828   1.363   5.541  13.910 -0.4599  0.7349  0.7061
13113TIP3   OH260829   2.984   3.752   5.625  0.0205 -0.0934  0.6062
13113TIP3    H160830   2.967   3.767   5.718 -1.5883 -0.8403  0.4637
13113TIP3    H260831   3.047   3.680   5.623  0.2831  0.1217  1.1208
13114TIP3   OH260832   5.076   0.516  13.368 -0.3147 -0.1123  0.1953
13114TIP3    H160833   4.992   0.496  13.409 -1.4108 -1.6433 -2.5173
13114TIP3    H260834   5.054   0.577  13.297  0.9620 -0.0752 -0.2004
13115TIP3   OH260835   3.236   5.077  15.408  0.3241  0.3335 -0.0507
13115TIP3    H160836   3.176   5.028  15.464 -1.0520  1.1519 -0.7403
13115TIP3    H260837   3.297   5.120  15.469  0.4993 -0.8615  0.6408
13116TIP3   OH260838   2.634   1.242  14.957  0.6098  0.0818  0.2591
13116TIP3    H160839   2.554   1.219  15.005  1.9767 -3.0380  1.3632
13116TIP3    H260840   2.693   1.277  15.025  1.8612 -2.5052  0.6601
13117TIP3   OH260841   3.197   0.532   3.435 -1.2499 -0.3559  0.5235
13117TIP3    H160842   3.262   0.489   3.490 -0.3316  0.2587 -0.0412
13117TIP3    H260843   3.125   0.553   3.494 -0.6399 -0.4470  1.3125
13118TIP3   OH260844   0.802   0.910   0.561  0.4535  0.9140  0.3510
13118TIP3    H160845   0.777   0.898   0.653 -0.5980 -1.0426 -0.1288
13118TIP3    H260846   0.829   0.822   0.533 -2.8219  0.5255 -2.1852
13119TIP3   OH260847   3.061   6.398   2.212  0.0791  0.1703  0.0713
13119TIP3    H160848   3.109   6.320   2.185 -0.4649 -0.3239  0.4949
13119TIP3    H260849   3.122   6.471   2.197  0.3485 -0.2495 -0.9741
13120TIP3   OH260850   3.236   3.199   0.244 -0.1274  0.1542  0.1014
13120TIP3    H160851   3.296   3.203   0.170  0.0974  0.8992  0.3161
13120TIP3    H260852   3.217   3.106   0.254 -0.2144  0.0502 -0.9310
13121TIP3   OH260853   1.550   0.721   5.118 -0.0852  0.2111 -0.1438
13121TIP3    H160854   1.522   0.780   5.188 -2.1506 -1.0248  0.1408
13121TIP3    H260855   1.617   0.665   5.159 -0.7779 -0.0508  0.6629
13122TIP3   OH260856   0.054   2.521  16.313 -0.1894  0.1582  0.8266
13122TIP3    H160857   0.098   2.562  16.239 -1.0491 -0.6200 -0.1541
13122TIP3    H260858   0.038   2.592  16.375 -0.5477  1.0606 -0.2821
13123TIP3   OH260859   1.599   2.464  16.094 -0.5171 -0.1268 -0.1858
13123TIP3    H160860   1.644   2.542  16.062 -0.8797 -0.9952 -3.0161
13123TIP3    H260861   1.584   2.482  16.187  2.8596  1.5193  0.2007
13124TIP3   OH260862   3.188   6.102   3.893 -0.4515 -0.3699 -0.0800
13124TIP3    H160863   3.202   6.027   3.835 -2.4630 -0.5494 -0.4122
13124TIP3    H260864   3.158   6.063   3.975  1.9329 -0.0881  1.0211
13125TIP3   OH260865   3.382   0.243   1.464  0.7363  0.1841  0.1574
13125TIP3    H160866   3.471   0.267   1.489  0.1405  0.2330  2.4158
13125TIP3    H260867   3.367   0.158   1.505 -0.7637  0.8929  1.1854
13126TIP3   OH260868   6.313   3.219   0.208 -0.2283  0.1588 -0.0289
13126TIP3    H160869   6.288   3.131   0.235 -1.4817  0.5151  0.0239
13126TIP3    H260870   6.230   3.266   0.200  0.4958  1.8575  1.6799
13127TIP3   OH260871   5.134   1.997  15.864 -0.0523  0.2109 -0.0180
13127TIP3    H160872   5.226   2.014  15.884 -0.2092  0.4635  0.5043
13127TIP3    H260873   5.133   1.978  15.771  0.7785 -1.5582  0.3019
13128TIP3   OH260874   2.530   6.390   2.515  0.1706 -0.4949  0.1279
13128TIP3    H160875   2.613   6.346   2.500  0.2433  0.4399 -2.6520
13128TIP3    H260876   2.489   6.398   2.429 -2.2749  0.1453  1.2308
13129TIP3   OH260877   5.705   2.478  16.187 -0.2717 -0.2575  0.0038
13129TIP3    H160878   5.721   2.569  16.162 -0.4285 -0.2458 -0.0567
13129TIP3    H260879   5.764   2.427  16.131  1.5819 -0.0737  1.6686
13130TIP3   OH260880   4.222   0.647   4.630 -0.8089 -0.3706 -0.5683
13130TIP3    H160881   4.251   0.680   4.545 -0.4250  0.7885 -0.0097
13130TIP3    H260882   4.189   0.725   4.676 -1.7542 -1.1128  0.0498
13131TIP3   OH260883   3.222   4.979   1.437 -0.2619 -0.0958 -0.3626
13131TIP3    H160884   3.172   4.994   1.357  0.2843 -0.7325 -0.8388
13131TIP3    H260885   3.168   4.920   1.489  0.4616 -1.7507 -1.3897
13132TIP3   OH260886   0.370   6.449  14.550  0.1020 -0.3568 -0.5020
13132TIP3    H160887   0.309   6.475  14.481 -0.9073 -1.7315 -0.1659
13132TIP3    H260888   0.439   6.401  14.505  2.3505  3.1791 -1.2304
13133TIP3   OH260889   1.399   3.112  11.064  0.0129  0.0173  0.1982
13133TIP3    H160890   1.398   3.065  10.981  2.8224  0.8509 -0.4351
13133TIP3    H260891   1.339   3.063  11.120 -1.1959 -1.1616 -1.9896
13134TIP3   OH260892   1.744   1.903   2.345 -0.3844 -0.5838 -0.2014
13134TIP3    H160893   1.694   1.981   2.369 -2.0192 -1.6419 -0.0537
13134TIP3    H260894   1.703   1.871   2.265 -0.6921 -2.0911  0.5246
13135TIP3   OH260895   1.188   3.112   3.178 -0.6189 -0.6605  0.5141
13135TIP3    H160896   1.105   3.086   3.216 -0.5497  0.2442  1.3285
13135TIP3    H260897   1.248   3.119   3.252 -0.3044  0.4581  0.1855
13136TIP3   OH260898   5.492   0.976   0.957 -0.0877 -0.2252  0.2007
13136TIP3    H160899   5.462   0.919   1.029  0.6717 -0.5796  0.2492
13136TIP3    H260900   5.515   0.915   0.887 -1.9466  0.1676 -0.8100
13137TIP3   OH260901   3.760   3.055   5.102 -0.4413 -0.2653 -0.4295
13137TIP3    H160902   3.799   3.121   5.043 -1.0259 -0.4675 -1.0526
13137TIP3    H260903   3.686   3.021   5.053  1.1946 -3.1060 -1.1532
13138TIP3   OH260904   4.566   1.458  14.770 -0.3464  0.1487  0.2001
13138TIP3    H160905   4.646   1.508  14.787 -1.1728  1.6629 -0.2281
13138TIP3    H260906   4.598   1.374  14.737  1.0857  0.2494  1.2035
13139TIP3   OH260907   6.181   1.198  13.629 -0.3687  0.3108 -0.1157
13139TIP3    H160908   6.248   1.159  13.685  0.6833  1.2925 -0.6478
13139TIP3    H260909   6.113   1.226  13.690 -0.7970 -1.5985  0.3468
13140TIP3   OH260910   4.577   0.183  13.222  0.4331 -0.7910  0.4241
13140TIP3    H160911   4.566   0.127  13.145 -0.8390  1.4471 -1.1290
13140TIP3    H260912   4.672   0.196  13.229  0.5035  0.2197 -1.7610
13141TIP3   OH260913   4.622   6.621  13.697 -0.2661 -0.0173  0.2963
13141TIP3    H160914   4.560   6.615  13.625 -0.3110 -0.7434  0.3922
13141TIP3    H260915   4.638   6.715  13.707  0.2460  0.0584 -1.0827
13142TIP3   OH260916   2.550   0.446  11.332  0.0019 -0.3885  0.6748
13142TIP3    H160917   2.573   0.376  11.393  1.1239 -0.1207  0.5767
13142TIP3    H260918   2.524   0.400  11.252 -0.8382 -0.7200  1.1250
13143TIP3   OH260919   6.214   6.322  12.312 -0.0591 -0.2357 -0.0077
13143TIP3    H160920   6.119   6.316  12.298 -0.0242  0.5729 -0.6346
13143TIP3    H260921   6.239   6.235  12.342 -0.6003 -1.2298 -2.2766
13144TIP3   OH260922   2.346   4.573  12.960  0.4376  0.7120  0.2026
13144TIP3    H160923   2.326   4.521  12.882 -1.3380  2.5856 -0.6568
13144TIP3    H260924   2.410   4.519  13.007  0.6857 -1.0346 -1.9156
13145TIP3   OH260925   4.324   3.953   1.056  0.1789  0.5482  0.3562
13145TIP3    H160926   4.411   3.964   1.093 -0.3023  1.2120  1.3242
13145TIP3    H260927   4.340   3.921   0.967  1.4522  1.7461  0.1187
13146TIP3   OH260928   5.298   3.260   5.406 -0.3338 -0.1064  0.2755
13146TIP3    H160929   5.366   3.261   5.338 -1.4552  0.9933 -0.9038
13146TIP3    H260930   5.230   3.203   5.371  0.3231 -1.9359  1.8567
13147TIP3   OH260931   5.305   3.802   3.190 -0.1214  0.6574  0.3431
13147TIP3    H160932   5.224   3.833   3.230  0.3686  0.6205  1.4025
13147TIP3    H260933   5.336   3.876   3.138  0.7063  1.8066  2.3385
13148TIP3   OH260934   5.313   4.304   1.177  0.4475  0.0696  0.2858
13148TIP3    H160935   5.391   4.331   1.226  1.2898 -3.4710  1.1762
13148TIP3    H260936   5.347   4.247   1.108 -1.3381 -1.7840  0.8655
13149TIP3   OH260937   0.526   3.724   3.932  0.6175 -0.2810 -0.0213
13149TIP3    H160938   0.594   3.721   3.999  0.9072 -1.8872 -0.3299
13149TIP3    H260939   0.565   3.678   3.857  0.2142  1.2559 -1.2228
13150TIP3   OH260940   3.342   1.087   1.209  0.5574 -0.1185 -0.1032
13150TIP3    H160941   3.333   1.124   1.122  2.0093 -1.1635 -0.7331
13150TIP3    H260942   3.288   1.143   1.265 -0.5251  0.4643 -1.6837
13151TIP3   OH260943   2.384   0.966  10.977  0.8800  0.0143  0.7888
13151TIP3    H160944   2.442   0.916  10.920 -0.6788 -1.2686  0.2701
13151TIP3    H260945   2.321   1.007  10.918 -0.3917 -0.8471  1.5081
13152TIP3   OH260946   4.752   2.552   4.890  0.4097  0.1636  0.1712
13152TIP3    H160947   4.724   2.503   4.813  0.8264 -0.2138  0.2518
13152TIP3    H260948   4.794   2.631   4.855  0.3768  0.1117  0.0165
13153TIP3   OH260949   4.796   4.653   2.321 -0.3188  0.0436  0.1964
13153TIP3    H160950   4.830   4.565   2.339 -0.3104  0.0427  0.1770
13153TIP3    H260951   4.701   4.642   2.320 -0.2919 -0.1628 -0.8316
13154TIP3   OH260952   6.447   3.663   5.359  0.3387  0.7992  0.4679
13154TIP3    H160953   6.379   3.606   5.322  0.7569 -0.3484  1.3886
13154TIP3    H260954   6.529   3.628   5.323  0.4287  3.2336 -2.0331
13155TIP3   OH260955   4.492   5.519  13.938  0.1185 -0.3489 -0.2442
13155TIP3    H160956   4.537   5.436  13.920  0.8083 -0.5777  2.1666
13155TIP3    H260957   4.536   5.553  14.016 -0.0194  2.4157 -1.2723
13156TIP3   OH260958   6.228   5.971  10.629  0.4308 -0.5322  0.0338
13156TIP3    H160959   6.177   5.970  10.710  3.2600 -0.7525  1.9544
13156TIP3    H260960   6.223   6.061  10.598  0.3574 -0.1325  1.1705
13157TIP3   OH260961   2.866   3.630   1.907  0.2295  0.2745  0.3973
13157TIP3    H160962   2.953   3.630   1.867  0.2011 -0.2886  0.3177
13157TIP3    H260963   2.855   3.718   1.943 -0.3170  1.3013 -2.0759
13158TIP3   OH260964   3.881   2.899  13.360 -0.5272 -0.6366  0.3243
13158TIP3    H160965   3.908   2.851  13.282 -1.4819 -1.7472  0.6585
13158TIP3    H260966   3.960   2.903  13.414 -0.4115 -1.7501  0.2486
13159TIP3   OH260967   4.679   5.949   1.040 -0.0105  0.0976 -0.0049
13159TIP3    H160968   4.597   5.990   1.066  0.0251 -0.0679  0.3694
13159TIP3    H260969   4.653   5.869   0.994 -0.0467 -0.5557  1.1178
13160TIP3   OH260970   2.074   6.815  16.742 -0.5214 -0.6932 -0.2497
13160TIP3    H160971   2.109   6.728  16.761  0.4024 -0.3314 -0.2767
13160TIP3    H260972   2.119   6.873  16.803  0.9442  0.1723 -2.0440
13161TIP3   OH260973   4.397   2.261   1.977  0.0592  0.1936 -0.0072
13161TIP3    H160974   4.319   2.227   1.933  0.6963  0.6916 -1.5570
13161TIP3    H260975   4.402   2.352   1.950  0.9092  0.3026  0.4812
13162TIP3   OH260976   6.540   2.158   1.011  0.8041  0.2544  0.1814
13162TIP3    H160977   6.590   2.100   0.953  1.8097  0.8445  0.4270
13162TIP3    H260978   6.517   2.233   0.956  1.8681  0.8736  0.5473
13163TIP3   OH260979   4.196   1.292  11.093  0.0506 -0.4121 -0.3978
13163TIP3    H160980   4.117   1.296  11.146  0.8935 -0.1970  0.8667
13163TIP3    H260981   4.186   1.213  11.040 -0.3196 -1.2337  0.8683
13164TIP3   OH260982   2.583   0.194   2.378 -0.2253  0.2552 -0.1823
13164TIP3    H160983   2.489   0.211   2.386 -0.7623 -2.2540 -0.5041
13164TIP3    H260984   2.592   0.153   2.292  1.3053  1.0976 -0.4549
13165TIP3   OH260985   5.849   1.458   3.923  0.1312  0.5954  0.2946
13165TIP3    H160986   5.918   1.433   3.861  0.0163  2.2342 -0.5309
13165TIP3    H260987   5.768   1.454   3.871 -0.3001 -0.3622  1.0038
13166TIP3   OH260988   5.431   3.708  14.369 -0.0619 -0.1446  0.2925
13166TIP3    H160989   5.380   3.776  14.413 -0.4758  0.0303 -0.4453
13166TIP3    H260990   5.409   3.718  14.276  2.4404  0.9381 -0.2714
13167TIP3   OH260991   4.848   6.281  11.577 -0.6708  0.1748  0.1592
13167TIP3    H160992   4.847   6.278  11.672 -1.1505 -0.3283  0.1433
13167TIP3    H260993   4.816   6.195  11.550 -0.7263  0.3832 -0.4541
13168TIP3   OH260994   0.995   2.889  12.899 -0.2150  1.0429 -0.7513
13168TIP3    H160995   1.076   2.890  12.950 -0.4966  1.1360 -0.2992
13168TIP3    H260996   0.935   2.945  12.948 -0.6387  0.7628 -0.9424
13169TIP3   OH260997   0.467   3.936  12.265 -0.4127 -0.2223  0.0785
13169TIP3    H160998   0.428   4.016  12.231 -0.0069  0.0605  0.2807
13169TIP3    H260999   0.522   3.965  12.338  0.8743 -0.5200 -0.7525
13170TIP3   OH261000   2.652   6.586  17.156 -0.3752  0.5029  0.2728
13170TIP3    H161001   2.665   6.593  17.250 -1.2886 -1.2192  0.5891
13170TIP3    H261002   2.571   6.535  17.147  0.9759 -1.5691 -1.3885
13171TIP3   OH261003   2.879   0.742   1.858  0.0380 -0.3884  0.7026
13171TIP3    H161004   2.960   0.747   1.909 -1.3285  0.2619  2.9792
13171TIP3    H261005   2.882   0.820   1.802  1.0262 -0.4438  0.6563
13172TIP3   OH261006   0.223   3.282  13.888 -0.1397  0.4572 -0.2171
13172TIP3    H161007   0.156   3.277  13.820 -0.0225  1.1767 -0.3871
13172TIP3    H261008   0.192   3.222  13.957 -0.9008  0.7076 -0.3385
13173TIP3   OH261009   0.482   5.652   1.595 -0.2947  0.2703  0.0097
13173TIP3    H161010   0.397   5.608   1.588 -0.2627  0.1933  0.1052
13173TIP3    H261011   0.464   5.743   1.573 -0.4108  0.2625  0.0755
13174TIP3   OH261012   1.539   2.406  14.894  0.6481  0.9184 -0.1678
13174TIP3    H161013   1.511   2.325  14.937  1.9433  0.3151 -0.4127
13174TIP3    H261014   1.464   2.464  14.902 -0.3936 -0.3776 -0.1819
13175TIP3   OH261015   2.740   4.227  16.331 -0.1778  0.2764 -0.3494
13175TIP3    H161016   2.823   4.231  16.380  0.6375 -0.2785 -1.6310
13175TIP3    H261017   2.744   4.303  16.273 -0.1537 -0.2363 -1.0280
13176TIP3   OH261018   4.003   1.791   0.286 -0.4991  0.2245  0.8844
13176TIP3    H161019   3.976   1.868   0.237 -0.7473 -0.2242  0.3013
13176TIP3    H261020   3.928   1.770   0.342 -0.6776  0.0331  0.5751
13177TIP3   OH261021   1.831   2.738  14.369  0.4112  0.2222  0.5447
13177TIP3    H161022   1.908   2.703  14.415 -0.0812  0.2521  1.4287
13177TIP3    H261023   1.820   2.827  14.405  0.1233  0.3157  0.2331
13178TIP3   OH261024   4.831   1.600  16.989  0.3295  0.1354 -0.0166
13178TIP3    H161025   4.895   1.620  16.922  0.5916  2.3770  0.8296
13178TIP3    H261026   4.854   1.656  17.063 -1.3184 -0.5787  1.1161
13179TIP3   OH261027   6.040   5.579   6.253  0.0958  0.2962 -0.3371
13179TIP3    H161028   6.135   5.570   6.251  0.1739  0.8529  0.2480
13179TIP3    H261029   6.024   5.644   6.322 -0.8010 -1.0142  0.7494
13180TIP3   OH261030   3.308   3.217  12.929 -0.0218  0.1599 -0.6069
13180TIP3    H161031   3.375   3.213  12.861  1.5643  0.0164  0.8924
13180TIP3    H261032   3.244   3.279  12.895  2.6309  3.1751 -0.7087
13181TIP3   OH261033   2.924   1.078  12.890  0.1672  0.3719 -0.5428
13181TIP3    H161034   3.010   1.074  12.848 -0.5543 -1.5672 -1.9758
13181TIP3    H261035   2.872   1.013  12.843 -2.6685  2.7755 -0.9550
13182TIP3   OH261036   1.266   5.469   2.406  0.5466 -0.3784 -0.2728
13182TIP3    H161037   1.282   5.520   2.327  2.3810  1.1807  0.9890
13182TIP3    H261038   1.353   5.440   2.434 -0.2684 -2.6555  0.0921
13183TIP3   OH261039   1.222   3.694   5.046 -0.1137  0.1239  0.1328
13183TIP3    H161040   1.202   3.607   5.081 -0.4226  1.4618  3.7081
13183TIP3    H261041   1.178   3.754   5.105 -0.0903  2.7781 -2.3549
13184TIP3   OH261042   3.442   1.868   2.970 -0.6568 -0.0157 -0.2144
13184TIP3    H161043   3.438   1.945   2.914  1.0422 -0.3122 -0.8118
13184TIP3    H261044   3.405   1.798   2.916  0.7938 -0.2591 -0.9439
13185TIP3   OH261045   6.569   2.276   2.517 -0.5183 -0.4899 -0.1220
13185TIP3    H161046   6.482   2.297   2.482  0.4498 -0.4506 -2.6864
13185TIP3    H261047   6.582   2.339   2.588 -2.5754 -0.5512  0.4009
13186TIP3   OH261048   2.465   5.508  17.108 -0.6091  0.0005 -0.1412
13186TIP3    H161049   2.499   5.419  17.099 -0.1438  0.3192 -2.0560
13186TIP3    H261050   2.535   5.556  17.152  0.7795  0.2201 -2.4171
13187TIP3   OH261051   0.110   3.279   3.450 -0.3086  0.4462  0.2063
13187TIP3    H161052   0.176   3.329   3.401  0.0881 -0.3637 -0.0991
13187TIP3    H261053   0.037   3.271   3.389 -0.4660  0.8398  0.3374
13188TIP3   OH261054   5.520   3.175   2.646 -0.2596 -0.4196 -0.0012
13188TIP3    H161055   5.560   3.168   2.733 -1.5129 -0.9451  0.5601
13188TIP3    H261056   5.458   3.102   2.642  0.3741 -0.9147 -1.6786
13189TIP3   OH261057   1.673   5.367  16.177  0.3350 -0.5760  0.1398
13189TIP3    H161058   1.709   5.297  16.122  2.1103 -0.1990  0.7749
13189TIP3    H261059   1.589   5.332  16.208 -0.2917 -1.1460 -2.0565
13190TIP3   OH261060   3.889   1.325   4.955  0.4284 -0.5526 -0.2546
13190TIP3    H161061   3.956   1.394   4.958  0.5028 -0.5363 -1.6341
13190TIP3    H261062   3.849   1.327   5.042  2.4209 -0.7718  0.7301
13191TIP3   OH261063   4.795   6.439   3.647  0.2971  0.2156  0.7425
13191TIP3    H161064   4.704   6.429   3.675 -0.3888  1.2547 -0.9321
13191TIP3    H261065   4.816   6.531   3.665  1.0389 -0.0156  1.1291
13192TIP3   OH261066   6.811   0.919  14.202  0.3271 -0.2085  0.0084
13192TIP3    H161067   6.807   0.891  14.111 -0.0734  1.7130 -0.6025
13192TIP3    H261068   6.875   0.860  14.242  0.6749 -0.9508 -1.5430
13193TIP3   OH261069   1.775   0.858  11.870  0.0310 -0.0834 -0.0214
13193TIP3    H161070   1.814   0.813  11.795 -0.4017 -1.5444  0.5996
13193TIP3    H261071   1.683   0.865  11.849 -0.5466 -2.5251  1.2392
13194TIP3   OH261072   2.447   4.657  16.939  0.3030  0.2649  0.9778
13194TIP3    H161073   2.524   4.620  16.984  0.6371 -0.7043 -0.3159
13194TIP3    H261074   2.408   4.581  16.895  0.7389  1.3428 -1.4090
13195TIP3   OH261075   1.295   6.688   3.010  0.2699 -0.0130  0.2340
13195TIP3    H161076   1.242   6.686   3.089 -0.7328 -1.6364 -0.4183
13195TIP3    H261077   1.301   6.781   2.987 -0.8632  0.3396  1.2717
13196TIP3   OH261078   3.775   1.194  15.620  0.6087 -0.1937 -0.0863
13196TIP3    H161079   3.713   1.181  15.549 -0.5801 -2.9269  1.3027
13196TIP3    H261080   3.858   1.161  15.586 -0.1665 -2.3974  0.0439
13197TIP3   OH261081   1.821   6.041   5.257  0.3460  0.1504  0.0883
13197TIP3    H161082   1.888   6.059   5.190  0.5793  1.3949  0.6224
13197TIP3    H261083   1.824   6.118   5.314 -1.3275  0.0737  0.3116
13198TIP3   OH261084   6.500   2.758   5.302 -0.2019 -0.0022  0.0182
13198TIP3    H161085   6.551   2.781   5.379  0.4600  2.0106 -0.9662
13198TIP3    H261086   6.559   2.774   5.228 -0.5356 -2.6258 -0.9336
13199TIP3   OH261087   3.167   0.524   0.758  0.0420  0.8356 -0.2896
13199TIP3    H161088   3.131   0.569   0.834  0.0247 -0.3981  0.4541
13199TIP3    H261089   3.124   0.438   0.758 -1.3794  1.4420 -2.7756
13200TIP3   OH261090   4.127   2.339  13.099  0.0347 -0.5002  0.0697
13200TIP3    H161091   4.141   2.408  13.164  0.8682 -0.6595  0.0658
13200TIP3    H261092   4.203   2.345  13.042 -2.0147  1.6079 -2.7399
13201TIP3   OH261093   1.237   3.666  12.618 -0.1158 -0.6705 -0.3372
13201TIP3    H161094   1.238   3.732  12.549  1.8498 -0.3590 -0.0704
13201TIP3    H261095   1.237   3.717  12.699  0.2856 -1.0077 -0.1252
13202TIP3   OH261096   4.622   4.984   1.630  0.7475  0.2507 -0.0402
13202TIP3    H161097   4.597   4.988   1.537  0.6554  2.4567  0.0419
13202TIP3    H261098   4.715   5.004   1.631  1.4504 -2.6110  0.1504
13203TIP3   OH261099   4.659   5.992  16.375 -0.1719  0.2853 -0.1614
13203TIP3    H161100   4.727   5.993  16.308 -1.8414  0.7081 -1.9687
13203TIP3    H261101   4.578   6.008  16.326 -1.5210  0.2441  1.9401
13204TIP3   OH261102   3.794   5.702  12.814 -0.6103 -0.1915 -0.0569
13204TIP3    H161103   3.880   5.697  12.773 -0.4053  0.9384  0.2182
13204TIP3    H261104   3.751   5.621  12.787  1.1124 -1.5917  1.1273
13205TIP3   OH261105   2.320   1.184  11.168 -0.0360 -0.0345  0.0580
13205TIP3    H161106   2.344   1.121  11.100  0.4101 -0.0724  0.2478
13205TIP3    H261107   2.293   1.263  11.120 -0.1508 -0.2118 -0.1694
13206TIP3   OH261108   1.661   1.794  11.901 -0.0602 -0.3337 -0.4115
13206TIP3    H161109   1.604   1.735  11.853  0.3806 -1.2884  0.2045
13206TIP3    H261110   1.747   1.752  11.898  0.1522  0.0229  0.4622
13207TIP3   OH261111   6.137   0.138  16.789  0.1177  0.0443 -0.6330
13207TIP3    H161112   6.217   0.093  16.761  0.4648  1.3623 -1.9053
13207TIP3    H261113   6.130   0.119  16.882  2.0856  0.0883 -0.4338
13208TIP3   OH261114   4.395   5.785  13.563 -0.1568 -0.5898  0.3143
13208TIP3    H161115   4.343   5.854  13.604  2.5748  1.4877  0.5235
13208TIP3    H261116   4.413   5.818  13.475  0.8816 -1.2002  0.2814
13209TIP3   OH261117   4.589   6.192   1.919  0.1834 -0.1916  0.3218
13209TIP3    H161118   4.508   6.215   1.964 -0.0254 -1.4939  0.6679
13209TIP3    H261119   4.645   6.269   1.928 -1.5631  1.3660 -1.3078
13210TIP3   OH261120   2.061   0.033   4.969  0.2308  0.7039  0.5840
13210TIP3    H161121   2.057   0.105   4.905  0.2308  0.5480  0.4100
13210TIP3    H261122   2.153   0.010   4.975 -0.1004 -2.0473 -2.4468
13211TIP3   OH261123   4.937   0.677   2.619 -0.2338 -0.5966 -0.2418
13211TIP3    H161124   4.965   0.696   2.529 -1.4203  0.0787 -0.4889
13211TIP3    H261125   4.925   0.763   2.659 -2.3635 -0.7885 -0.3179
13212TIP3   OH261126   6.401   0.244  13.425 -0.0367 -0.2179 -0.1019
13212TIP3    H161127   6.420   0.332  13.457 -0.7727 -0.1419  0.1638
13212TIP3    H261128   6.365   0.257  13.337  2.1807 -0.4414 -1.0990
13213TIP3   OH261129   3.722   2.543  11.431 -0.2398  1.0076 -0.4659
13213TIP3    H161130   3.688   2.629  11.455  0.8405  0.9821  1.3275
13213TIP3    H261131   3.808   2.539  11.472  0.8906  0.0845 -2.7465
13214TIP3   OH261132   4.282   2.580  13.117  0.4432 -0.0206  0.4163
13214TIP3    H161133   4.316   2.521  13.049 -0.8588  0.3846 -0.6122
13214TIP3    H261134   4.225   2.641  13.071 -0.8753 -0.0313  1.9374
13215TIP3   OH261135   5.482   2.139   3.931  0.1760  0.2645 -0.2933
13215TIP3    H161136   5.451   2.060   3.976  2.6040 -1.7327 -1.8050
13215TIP3    H261137   5.555   2.170   3.984  1.9498 -1.1101 -1.7542
13216TIP3   OH261138   3.233   5.802   2.379 -0.5835  0.3524 -0.0447
13216TIP3    H161139   3.239   5.802   2.474 -0.4250  0.6324 -0.0532
13216TIP3    H261140   3.194   5.887   2.357 -0.0766  0.5304 -0.2619
13217TIP3   OH261141   5.670   4.194   4.106  0.2667  0.2580  0.7201
13217TIP3    H161142   5.659   4.119   4.164  0.8187  0.9481  1.7323
13217TIP3    H261143   5.765   4.207   4.100  0.1697  1.0042  0.7202
13218TIP3   OH261144   0.422   2.866  14.661 -0.2903 -0.0333  0.7603
13218TIP3    H161145   0.365   2.932  14.700 -0.3983 -1.0968  2.5344
13218TIP3    H261146   0.511   2.900  14.676 -0.3878  0.5578  0.0241
13219TIP3   OH261147   4.950   6.804   0.563 -0.0628  0.0550  0.2140
13219TIP3    H161148   4.858   6.823   0.545  0.1162  0.3638 -0.4014
13219TIP3    H261149   4.996   6.883   0.536  0.3554  0.0131  0.7976
13220TIP3   OH261150   1.866   4.186  13.584 -0.4678 -0.0948  0.1657
13220TIP3    H161151   1.879   4.115  13.648  0.7601 -0.2373 -0.2076
13220TIP3    H261152   1.868   4.266  13.637 -3.7178 -0.3180  0.8656
13221TIP3   OH261153   3.955   6.736  13.256  0.2669  0.4183 -0.0509
13221TIP3    H161154   4.034   6.701  13.296  0.7829  1.1066 -0.4384
13221TIP3    H261155   3.918   6.794  13.323  1.0455  1.4479 -0.4750
13222TIP3   OH261156   0.977   4.304  11.990  0.0927 -0.2248  0.4259
13222TIP3    H161157   1.071   4.312  12.007  0.3157  0.8539 -1.1647
13222TIP3    H261158   0.956   4.377  11.931 -1.3695 -1.5365 -0.7623
13223TIP3   OH261159   3.122   1.624   2.426 -0.1770 -0.1257 -0.6377
13223TIP3    H161160   3.051   1.657   2.371 -1.2339 -1.9636 -0.4870
13223TIP3    H261161   3.086   1.544   2.465  0.9333  0.4659  1.8046
13224TIP3   OH261162   4.241   3.452  12.442 -0.0930 -0.4446  0.1036
13224TIP3    H161163   4.216   3.414  12.526  0.5367 -0.3175  0.3462
13224TIP3    H261164   4.167   3.432  12.384 -0.1988 -1.1760  0.4879
13225TIP3   OH261165   4.434   4.024   3.577 -0.4053  0.2616  0.0762
13225TIP3    H161166   4.494   4.092   3.608 -0.4447  0.3645 -0.0705
13225TIP3    H261167   4.485   3.943   3.583  0.0161  0.4493 -0.7659
13226TIP3   OH261168   4.261   6.309  12.054 -0.4865  0.3989  0.1026
13226TIP3    H161169   4.243   6.255  12.132 -1.6353  0.5854 -0.0289
13226TIP3    H261170   4.338   6.360  12.079 -0.2971 -0.1950  0.7909
13227TIP3   OH261171   4.421   1.167  16.665 -0.4316  0.0130 -0.3247
13227TIP3    H161172   4.490   1.233  16.661 -1.0705  0.6699 -0.7763
13227TIP3    H261173   4.355   1.204  16.724 -0.5638 -0.4427 -0.1804
13228TIP3   OH261174   0.265   3.391   0.329 -0.1299 -0.7296  0.5879
13228TIP3    H161175   0.235   3.482   0.318 -0.5297 -1.1570 -3.4619
13228TIP3    H261176   0.355   3.399   0.360 -0.4797  1.0157  1.2588
13229TIP3   OH261177   4.581   0.617   5.357 -0.1589 -0.1091  0.2450
13229TIP3    H161178   4.588   0.532   5.401  2.0590  0.3416  0.9008
13229TIP3    H261179   4.639   0.609   5.281 -0.7307  0.5077 -0.2703
13230TIP3   OH261180   6.809   2.563   4.305  0.0515  0.1309  0.3415
13230TIP3    H161181   6.829   2.497   4.238  0.5448 -0.5262  1.1183
13230TIP3    H261182   6.874   2.632   4.290  0.1282  0.0121  0.1138
13231TIP3   OH261183   2.561   1.671  16.080  0.4625  0.1890 -0.5921
13231TIP3    H161184   2.588   1.659  15.989 -0.2058  1.0694 -0.9220
13231TIP3    H261185   2.611   1.606  16.129 -0.3894 -1.4380 -1.7837
13232TIP3   OH261186   5.869   6.285  13.727  0.8674 -0.1094  0.1658
13232TIP3    H161187   5.838   6.376  13.728  1.4144  0.0792  0.8896
13232TIP3    H261188   5.881   6.266  13.634  1.3612  0.7802  0.0303
13233TIP3   OH261189   5.826   5.063  15.695  0.2930 -0.2408  0.4706
13233TIP3    H161190   5.843   5.157  15.696  2.4982 -0.5945  0.9994
13233TIP3    H261191   5.864   5.032  15.613  1.4038 -0.9360  1.2219
13234TIP3   OH261192   0.445   2.300  13.401 -0.2751 -0.3849  0.3615
13234TIP3    H161193   0.460   2.345  13.484  1.6833  1.2959 -0.8041
13234TIP3    H261194   0.353   2.273  13.405 -0.8496  1.5458  2.1811
13235TIP3   OH261195   3.331   1.715  11.388 -0.0457  0.4991 -0.0017
13235TIP3    H161196   3.389   1.739  11.460 -1.0320  0.1740  0.9280
13235TIP3    H261197   3.333   1.619  11.387 -0.2064  0.4966 -0.2841
13236TIP3   OH261198   5.123   2.945  13.722 -0.6058 -0.6479  0.0189
13236TIP3    H161199   5.185   3.015  13.742 -0.7818 -0.8717  1.4402
13236TIP3    H261200   5.173   2.883  13.670  0.3416 -0.7335  0.9865
13237TIP3   OH261201   5.456   5.950   1.766 -0.0389  0.0081  0.1225
13237TIP3    H161202   5.397   5.992   1.828 -2.5924  0.0010 -2.1002
13237TIP3    H261203   5.483   6.020   1.707  0.6092 -0.3630 -0.0267
13238TIP3   OH261204   3.597   3.691  12.432  0.3594  0.1748  0.3629
13238TIP3    H161205   3.615   3.634  12.507 -0.7084 -0.3967  0.2000
13238TIP3    H261206   3.517   3.657  12.394  0.2626  1.1618 -0.3714
13239TIP3   OH261207   3.072   5.842   4.697  0.0979 -0.2936  0.4322
13239TIP3    H161208   3.005   5.872   4.758 -1.6867 -2.7846 -0.1513
13239TIP3    H261209   3.025   5.820   4.617  1.5169 -2.4088  0.0931
13240TIP3   OH261210   5.847   0.301  12.116  0.1855  0.3460 -0.4201
13240TIP3    H161211   5.920   0.290  12.055 -0.8502 -2.5061 -1.3123
13240TIP3    H261212   5.772   0.322  12.060  0.0839  2.4136  0.4014
13241TIP3   OH261213   2.834   6.816  15.442  0.5990  0.2134 -0.0724
13241TIP3    H161214   2.843   6.823  15.347  2.2571 -1.3774 -0.0873
13241TIP3    H261215   2.741   6.833  15.458  0.4376  1.3203 -1.8757
13242TIP3   OH261216   2.928   1.021  17.061 -0.3649 -1.0304 -0.3811
13242TIP3    H161217   2.937   0.938  17.013  0.2890 -0.9915 -0.3311
13242TIP3    H261218   3.017   1.053  17.071 -0.5859 -0.4883 -0.0909
13243TIP3   OH261219   5.135   0.327  14.787 -0.4058  0.3932 -0.2291
13243TIP3    H161220   5.177   0.245  14.760 -0.6502  1.1822 -3.3856
13243TIP3    H261221   5.055   0.299  14.832  0.5343 -1.0760  0.6402
13244TIP3   OH261222   2.967   3.288   3.292 -0.2604  0.3673  0.4637
13244TIP3    H161223   2.931   3.365   3.248  0.4445 -0.2356 -1.2414
13244TIP3    H261224   3.061   3.293   3.277 -0.2927 -1.3719 -0.6663
13245TIP3   OH261225   1.044   0.114  12.176 -0.5954 -0.1095  0.4681
13245TIP3    H161226   1.054   0.154  12.089 -1.8114 -2.0728 -0.6418
13245TIP3    H261227   0.992   0.178  12.225  2.6079  2.4609  0.8793
13246TIP3   OH261228   5.706   4.353   0.163  0.1525  0.4538  0.8241
13246TIP3    H161229   5.652   4.307   0.228  0.7869 -0.5115  0.6965
13246TIP3    H261230   5.781   4.386   0.212  0.8731 -0.6877  0.5253
13247TIP3   OH261231   0.636   1.340   1.767  0.7691  0.5245 -0.2359
13247TIP3    H161232   0.647   1.290   1.686 -1.4915 -1.6391  0.6800
13247TIP3    H261233   0.556   1.391   1.754  0.4671  0.2745  0.5736
13248TIP3   OH261234   2.332   6.591  12.665  0.7979 -0.5740 -0.1619
13248TIP3    H161235   2.345   6.636  12.581 -2.4011 -1.4648 -1.3044
13248TIP3    H261236   2.283   6.654  12.718 -1.2491 -1.5590 -0.7580
13249TIP3   OH261237   2.495   4.868   1.286  0.0368 -0.1606 -0.2270
13249TIP3    H161238   2.577   4.846   1.329  0.2031  1.4389  0.3393
13249TIP3    H261239   2.427   4.847   1.351  0.0986 -0.0861 -0.1396
13250TIP3   OH261240   0.367   5.790   2.471  0.0978 -0.2695  0.0394
13250TIP3    H161241   0.338   5.879   2.491 -0.5423 -0.6422  0.8176
13250TIP3    H261242   0.428   5.768   2.542  0.5467 -0.3300 -0.3529
13251TIP3   OH261243   4.965   0.532   0.085  0.7382  0.2858 -0.0930
13251TIP3    H161244   5.005   0.483   0.156  2.0933  0.6827 -0.5580
13251TIP3    H261245   4.986   0.624   0.104  1.3491  0.3798 -1.1252
13252TIP3   OH261246   0.168   5.607   5.202 -1.1047 -0.0700  0.0752
13252TIP3    H161247   0.194   5.588   5.112  0.7299 -0.2081  0.5912
13252TIP3    H261248   0.073   5.597   5.202 -0.9345 -2.7140 -1.2568
13253TIP3   OH261249   4.266   5.256   2.991  0.0474 -0.3812 -0.0885
13253TIP3    H161250   4.222   5.287   2.912 -1.6222  0.2193  1.0108
13253TIP3    H261251   4.340   5.315   3.002 -1.0178  0.9945  0.0124
13254TIP3   OH261252   1.806   0.135  11.767 -0.0319 -0.3769  0.2522
13254TIP3    H161253   1.782   0.086  11.689  1.2006 -0.4770 -0.0813
13254TIP3    H261254   1.852   0.072  11.822 -0.0199 -0.0513  0.6199
13255TIP3   OH261255   2.101   4.824  12.388  1.1949  0.0326 -0.7508
13255TIP3    H161256   2.054   4.741  12.389 -1.5933  1.4321  2.5065
13255TIP3    H261257   2.058   4.875  12.319  0.9823 -0.2271 -0.8100
13256TIP3   OH261258   4.656   5.519  11.616  0.3696  0.1454  0.3098
13256TIP3    H161259   4.628   5.437  11.658 -1.6393  1.4305  1.6303
13256TIP3    H261260   4.744   5.533  11.649  0.1600 -0.7098  1.3197
13257TIP3   OH261261   5.928   2.014   5.442  0.0907  0.1372  0.4649
13257TIP3    H161262   5.887   2.000   5.357 -0.7694  0.3345  0.8380
13257TIP3    H261263   6.022   2.016   5.423 -0.1063  3.8344 -1.1158
13258TIP3   OH261264   1.653   3.951  11.882 -0.3526  0.0118 -0.1320
13258TIP3    H161265   1.643   4.018  11.814 -0.6080 -0.6508 -0.7573
13258TIP3    H261266   1.597   3.981  11.954 -2.2602 -0.6301 -1.2673
13259TIP3   OH261267   2.713   4.028   2.910 -0.1415  0.4836  0.1982
13259TIP3    H161268   2.618   4.042   2.917  0.0454  1.7225  0.4770
13259TIP3    H261269   2.721   3.957   2.846 -1.2694  0.0295  0.5258
13260TIP3   OH261270   0.830   5.602   5.588  0.0673  0.8164 -0.0062
13260TIP3    H161271   0.796   5.678   5.541 -2.3342 -0.0020  0.2678
13260TIP3    H261272   0.768   5.532   5.569  2.7730 -1.4633 -1.1285
13261TIP3   OH261273   4.471   4.372   2.501  0.3517  0.3454  0.3763
13261TIP3    H161274   4.518   4.369   2.584  2.4136  0.1864 -0.7440
13261TIP3    H261275   4.475   4.283   2.468  0.4903  0.6232 -0.3812
13262TIP3   OH261276   1.114   3.766   0.099  0.0288  0.4211 -0.0890
13262TIP3    H161277   1.168   3.845   0.103 -1.7231  1.6669 -0.0463
13262TIP3    H261278   1.132   3.721   0.182  0.6926  1.0036  0.0935
13263TIP3   OH261279   1.856   2.895  16.845 -0.3974 -0.1632 -0.1664
13263TIP3    H161280   1.867   2.800  16.844 -0.3101 -0.1537 -0.0942
13263TIP3    H261281   1.783   2.911  16.905  0.7378 -0.0643  1.2355
13264TIP3   OH261282   5.848   2.681  11.390 -0.4255  0.5052 -0.2608
13264TIP3    H161283   5.858   2.606  11.332 -1.9418  0.3245 -0.3345
13264TIP3    H261284   5.855   2.644  11.478 -0.5550  0.3632 -0.3084
13265TIP3   OH261285   0.820   0.971  14.778  0.1607 -0.2965 -0.5253
13265TIP3    H161286   0.772   1.054  14.779 -1.9075 -1.4489  0.8319
13265TIP3    H261287   0.824   0.947  14.685  1.9133  1.8600 -1.1051
13266TIP3   OH261288   5.012   4.668  12.183  0.4705  0.2275  0.4578
13266TIP3    H161289   5.050   4.584  12.158  1.5476  1.2420 -1.5348
13266TIP3    H261290   5.077   4.708  12.241  0.8715  0.5140 -0.1863
13267TIP3   OH261291   2.999   0.454   4.632  0.5948 -0.3339 -0.3502
13267TIP3    H161292   3.068   0.390   4.616 -0.4209 -1.8921  1.0356
13267TIP3    H261293   3.036   0.515   4.695  1.1690 -0.3276 -0.6955
13268TIP3   OH261294   5.295   6.445   3.130  0.3824  0.0821  0.6230
13268TIP3    H161295   5.216   6.499   3.132  0.2474 -0.0523 -0.6619
13268TIP3    H261296   5.294   6.399   3.213 -0.3143  0.8986  1.0913
13269TIP3   OH261297   5.379   2.253   5.997  0.6161  0.4977 -0.4109
13269TIP3    H161298   5.389   2.271   5.903  0.9340 -0.2764 -0.5315
13269TIP3    H261299   5.435   2.177   6.013 -1.3289 -0.9376 -0.1013
13270TIP3   OH261300   3.986   4.179   1.690 -0.5597 -0.0316 -0.4960
13270TIP3    H161301   4.004   4.273   1.680 -0.4624 -0.0786 -0.7625
13270TIP3    H261302   4.030   4.155   1.771 -0.3569  0.0929 -0.5686
13271TIP3   OH261303   3.123   0.377  13.952 -0.6458  0.1027 -0.2560
13271TIP3    H161304   3.156   0.295  13.917  0.4532 -0.2701  1.5144
13271TIP3    H261305   3.144   0.374  14.046 -3.6869  0.8812  0.5761
13272TIP3   OH261306   2.441   1.937  13.685 -0.4708 -0.1016  0.4103
13272TIP3    H161307   2.488   1.854  13.680 -1.0820 -0.5326  1.4568
13272TIP3    H261308   2.504   2.002  13.656  0.5695 -0.7371  1.1836
13273TIP3   OH261309   6.627   4.776  11.327 -0.0741  0.0960  0.0616
13273TIP3    H161310   6.655   4.850  11.273  0.9550  0.3323  0.8816
13273TIP3    H261311   6.547   4.743  11.284 -0.3136  1.4125 -0.5437
13274TIP3   OH261312   1.275   1.557   0.102  0.0795 -0.6445  0.5677
13274TIP3    H161313   1.218   1.527   0.174  1.0854 -3.3553  0.3330
13274TIP3    H261314   1.320   1.478   0.073  1.1941  0.7616 -1.7525
13275TIP3   OH261315   5.238   5.160  11.084 -0.0095 -0.0270  0.0168
13275TIP3    H161316   5.321   5.149  11.037  0.3251 -1.4238  0.8957
13275TIP3    H261317   5.184   5.087  11.056  0.9058 -2.1209  3.1767
13276TIP3   OH261318   0.115   3.641  16.161  0.4359  0.3759  0.6041
13276TIP3    H161319   0.165   3.597  16.229 -1.6222 -0.5080  1.6553
13276TIP3    H261320   0.089   3.725  16.200 -0.5865 -0.0513  0.8960
13277TIP3   OH261321   1.297   0.807   0.438 -0.8137  0.0322 -0.0788
13277TIP3    H161322   1.259   0.725   0.406  1.0066 -0.3806 -1.3632
13277TIP3    H261323   1.313   0.792   0.531  1.2698 -1.8651 -0.6583
13278TIP3   OH261324   2.675   4.304   4.009 -0.5167  0.4324  0.6081
13278TIP3    H161325   2.642   4.294   4.099 -1.6375  0.7730  0.2501
13278TIP3    H261326   2.639   4.388   3.979 -1.8182 -0.6044 -0.8454
13279TIP3   OH261327   1.285   4.253   1.758  0.3630  0.1195 -0.0678
13279TIP3    H161328   1.189   4.255   1.756  0.1644  0.0873  3.3692
13279TIP3    H261329   1.308   4.164   1.734 -0.2431  0.7190 -3.2308
13280TIP3   OH261330   1.372   1.845  15.721 -0.0561  0.2857 -0.3337
13280TIP3    H161331   1.419   1.919  15.682 -0.9689  1.8075  1.3269
13280TIP3    H261332   1.441   1.791  15.760  0.6583 -0.0296 -1.9289
13281TIP3   OH261333   4.123   0.593  14.699 -0.1723 -0.1099 -0.1734
13281TIP3    H161334   4.165   0.665  14.651  0.6903  0.5146  1.4417
13281TIP3    H261335   4.176   0.516  14.677 -0.4914 -0.0670 -1.1220
13282TIP3   OH261336   3.252   6.581   2.200 -0.0057 -0.0103  0.1637
13282TIP3    H161337   3.321   6.645   2.186 -1.6302  1.7606 -0.2707
13282TIP3    H261338   3.185   6.629   2.249 -1.3611 -1.3221 -0.3262
13283TIP3   OH261339   4.978   5.836  15.531 -0.2073  0.4442 -0.4686
13283TIP3    H161340   4.971   5.865  15.440 -2.0379  0.0083 -0.5151
13283TIP3    H261341   4.889   5.844  15.565 -0.2417 -2.3205  0.3675
13284TIP3   OH261342   6.478   2.252  15.969  0.2148 -0.3986  0.2646
13284TIP3    H161343   6.496   2.335  15.924  0.4445 -0.5437  0.0839
13284TIP3    H261344   6.417   2.275  16.039 -0.1432 -0.1633 -0.1162
13285TIP3   OH261345   4.468   2.905  16.638 -0.2105 -0.0049  0.2756
13285TIP3    H161346   4.389   2.908  16.693  0.9276  0.1891  1.9976
13285TIP3    H261347   4.466   2.987  16.590 -1.4708 -0.3692 -0.3464
13286TIP3   OH261348   3.947   4.297  14.183  0.5521  0.4545  0.2421
13286TIP3    H161349   3.992   4.267  14.103  0.3680 -0.2397  0.3936
13286TIP3    H261350   3.946   4.220  14.240 -0.2431  0.6517  0.5019
13287TIP3   OH261351   3.297   5.391   5.084 -0.0847  0.0981 -0.3820
13287TIP3    H161352   3.300   5.328   5.156 -2.2120  2.0257  1.5349
13287TIP3    H261353   3.266   5.340   5.009 -0.1709 -1.4623  0.6663
13288TIP3   OH261354   6.721   0.440  14.267 -0.0415 -0.9110 -0.9246
13288TIP3    H161355   6.639   0.415  14.310  0.2197 -0.2479 -0.0031
13288TIP3    H261356   6.702   0.435  14.174 -2.1678  2.3553 -0.8145
13289TIP3   OH261357   3.622   3.735  12.773  0.1926  0.2180 -0.7234
13289TIP3    H161358   3.694   3.727  12.836 -1.3700  0.4638  1.2181
13289TIP3    H261359   3.546   3.701  12.820 -1.6413  3.0460 -1.3625
13290TIP3   OH261360   3.733   6.394   3.208  0.2373  0.0108  0.9934
13290TIP3    H161361   3.676   6.411   3.284  2.0012  0.3988  2.2995
13290TIP3    H261362   3.694   6.318   3.166 -2.5592  1.5995  0.4315
13291TIP3   OH261363   5.885   6.823  11.341  0.0807  0.3216  0.3016
13291TIP3    H161364   5.935   6.792  11.416 -0.0763  1.6382  0.9793
13291TIP3    H261365   5.872   6.745  11.286  2.1891 -0.2076  0.4779
13292TIP3   OH261366   3.271   6.239   1.496  0.0391 -0.0975 -0.6726
13292TIP3    H161367   3.256   6.270   1.407  0.7133 -1.1912 -1.1810
13292TIP3    H261368   3.364   6.251   1.511 -0.0162 -0.2036 -0.2151
13293TIP3   OH261369   6.778   5.047  14.777  0.1358  0.0743 -0.4385
13293TIP3    H161370   6.782   5.025  14.684  1.5480  1.8253 -0.8439
13293TIP3    H261371   6.869   5.050  14.805 -0.2284  0.5724  0.7599
13294TIP3   OH261372   0.827   2.715  16.472 -0.1297 -0.0442 -0.4455
13294TIP3    H161373   0.735   2.725  16.445 -0.0409 -0.0102 -0.7466
13294TIP3    H261374   0.876   2.761  16.404  0.1672 -0.7905 -0.7468
13295TIP3   OH261375   4.393   4.256   2.903  0.6279 -0.0684 -0.3999
13295TIP3    H161376   4.336   4.228   2.975  0.4331  1.2486 -0.0112
13295TIP3    H261377   4.338   4.315   2.851  1.4908  0.9289 -0.2311
13296TIP3   OH261378   5.188   5.756  12.224  0.1181 -0.0688 -0.4429
13296TIP3    H161379   5.127   5.793  12.160  0.5803  0.5087 -0.5624
13296TIP3    H261380   5.222   5.677  12.182  1.1775  0.8351 -1.3688
13297TIP3   OH261381   0.748   3.965  17.184  0.4652 -0.1145  0.8431
13297TIP3    H161382   0.812   4.010  17.128  2.3337  0.1666  3.0828
13297TIP3    H261383   0.760   3.872  17.163 -0.2294  0.0815 -0.5576
13298TIP3   OH261384   0.483   6.436  12.415  0.1702 -0.4705 -0.4341
13298TIP3    H161385   0.483   6.520  12.461 -1.1623 -0.5992 -0.1430
13298TIP3    H261386   0.499   6.459  12.323  0.2341  0.0535 -0.2952
13299TIP3   OH261387   5.469   1.157  12.914 -0.4619 -1.0844 -0.2163
13299TIP3    H161388   5.560   1.128  12.924 -1.1420 -2.5133  3.0729
13299TIP3    H261389   5.474   1.252  12.924  0.7715 -0.9383 -1.7053
13300TIP3   OH261390   4.740   5.965   4.586 -0.4087 -0.1388  0.1097
13300TIP3    H161391   4.693   5.883   4.572 -0.1606 -0.4650  1.0572
13300TIP3    H261392   4.830   5.938   4.604 -0.3379  0.3335  0.4922
13301TIP3   OH261393   2.725   3.838   3.352 -0.0372  0.1766  0.7710
13301TIP3    H161394   2.775   3.917   3.371 -0.4577  0.6874 -0.1808
13301TIP3    H261395   2.639   3.854   3.391  0.2017 -0.2569  1.4872
13302TIP3   OH261396   6.139   4.044   5.040 -0.0028  0.3207 -0.4522
13302TIP3    H161397   6.224   4.048   5.083  0.5077 -1.2620 -1.2083
13302TIP3    H261398   6.095   3.969   5.080 -0.6253  0.5159 -0.7570
13303TIP3   OH261399   3.432   4.654  11.303 -0.0715  0.4202 -0.4644
13303TIP3    H161400   3.355   4.686  11.350  0.4812  1.8211 -0.4768
13303TIP3    H261401   3.459   4.576  11.351 -0.6296  0.7488  0.4062
13304TIP3   OH261402   5.285   4.595   2.330 -0.4625 -0.4423  0.5740
13304TIP3    H161403   5.277   4.670   2.272 -2.5684 -1.7999 -1.0040
13304TIP3    H261404   5.271   4.632   2.418 -0.4581  1.1433 -0.0524
13305TIP3   OH261405   3.606   6.015   0.119  0.2421  0.5943 -0.0605
13305TIP3    H161406   3.614   5.983   0.208  0.3233 -0.8570 -0.5537
13305TIP3    H261407   3.592   6.109   0.128 -0.3108  0.3942  1.4898
13306TIP3   OH261408   1.038   6.297  13.957  0.4833  0.2164  0.5075
13306TIP3    H161409   1.053   6.384  13.994 -0.6939  0.8053 -0.3477
13306TIP3    H261410   0.975   6.311  13.887  0.9893 -1.1998 -0.2656
13307TIP3   OH261411   3.656   2.494  13.742  0.4834  0.2802 -0.3514
13307TIP3    H161412   3.652   2.435  13.817 -3.5548  1.3215  0.4959
13307TIP3    H261413   3.663   2.436  13.666 -2.4545 -1.4114  0.5043
13308TIP3   OH261414   4.025   2.140   0.018 -0.2090 -0.6125  0.3992
13308TIP3    H161415   3.996   2.171   0.104 -2.0033 -2.1221  0.4013
13308TIP3    H261416   3.983   2.201  -0.044 -0.3453 -0.5699  0.5315
13309TIP3   OH261417   1.449   1.974  11.354 -0.1741  0.0919  0.1067
13309TIP3    H161418   1.396   1.937  11.284 -0.3592  1.0131 -0.2598
13309TIP3    H261419   1.520   2.020  11.309  0.6411 -0.6740  0.5801
13310TIP3   OH261420   0.372   1.341   3.745 -0.5552  0.4435  0.4883
13310TIP3    H161421   0.356   1.367   3.836  0.5114  0.7950  0.5936
13310TIP3    H261422   0.448   1.393   3.718 -1.2313  0.7933 -0.8206
13311TIP3   OH261423   4.718   5.012   1.112 -0.0396  0.5183  0.5612
13311TIP3    H161424   4.703   5.063   1.032  0.1229  0.4376  0.4802
13311TIP3    H261425   4.770   4.937   1.083  0.8826  1.0028  0.9129
13312TIP3   OH261426   2.964   0.580   4.974  0.7298 -0.6724 -0.9219
13312TIP3    H161427   3.049   0.620   4.959  0.5973 -0.1009 -0.2067
13312TIP3    H261428   2.910   0.651   5.010  0.1580 -1.2094 -0.6996
13313TIP3   OH261429   1.984   6.214   2.740  0.2442 -0.2495 -0.6124
13313TIP3    H161430   1.915   6.186   2.800 -0.6354 -0.7997 -1.8464
13313TIP3    H261431   2.056   6.153   2.756 -0.3587 -1.0261 -0.8027
13314TIP3   OH261432   1.247   3.231  11.840  0.3755  0.5697 -0.2354
13314TIP3    H161433   1.202   3.208  11.759 -1.6118  0.7468  0.7486
13314TIP3    H261434   1.335   3.256  11.812  0.9207 -2.7115 -1.9435
13315TIP3   OH261435   2.734   5.593   2.041 -0.3368  0.2476  0.0793
13315TIP3    H161436   2.718   5.605   2.134 -0.3367  1.3234 -0.0535
13315TIP3    H261437   2.773   5.506   2.034  1.0983  0.7726  1.2512
13316TIP3   OH261438   4.518   0.817  11.248  0.2292  0.1563  0.1735
13316TIP3    H161439   4.526   0.885  11.181 -1.2904  1.4189  1.2099
13316TIP3    H261440   4.478   0.743  11.201  0.2815  0.5869 -0.5707
13317TIP3   OH261441   5.662   2.569   3.846  0.1356 -0.3644 -0.1149
13317TIP3    H161442   5.705   2.638   3.796  0.4491  0.5967  1.4211
13317TIP3    H261443   5.593   2.537   3.788  1.3841 -0.3094 -1.7119
13318TIP3   OH261444   2.644   2.175   6.026 -0.1494  0.4492 -1.0123
13318TIP3    H161445   2.718   2.126   5.989 -0.2236 -0.2825 -0.2355
13318TIP3    H261446   2.682   2.227   6.097 -0.7102 -2.0231  1.2751
13319TIP3   OH261447   5.828   0.860  13.320  0.8428 -0.4038 -0.6982
13319TIP3    H161448   5.810   0.814  13.403 -1.5311 -1.4617 -1.7139
13319TIP3    H261449   5.885   0.800  13.272 -0.8690 -1.6452 -1.3152
13320TIP3   OH261450   3.140   0.884   3.732 -0.1256  1.3685 -0.2332
13320TIP3    H161451   3.140   0.883   3.637 -0.0582  0.1569 -0.2355
13320TIP3    H261452   3.232   0.874   3.757 -0.1689  1.4462 -0.0340
13321TIP3   OH261453   3.194   1.564  10.976  0.6667 -0.4916 -0.5328
13321TIP3    H161454   3.104   1.594  10.986  0.5885 -0.8931  0.0205
13321TIP3    H261455   3.204   1.548  10.882  0.3625  0.1674 -0.6810
13322TIP3   OH261456   5.552   0.981   3.678 -0.1318  0.1710 -0.2945
13322TIP3    H161457   5.629   1.000   3.731 -0.7678 -1.5360  1.3813
13322TIP3    H261458   5.586   0.937   3.600  0.6216 -0.0352  0.1470
13323TIP3   OH261459   3.879   4.529   2.763 -0.0770  0.2086  0.8212
13323TIP3    H161460   3.939   4.484   2.822  0.9361 -1.7700 -1.4989
13323TIP3    H261461   3.805   4.554   2.817  1.0791 -0.8730  3.0200
13324TIP3   OH261462   0.949   3.595  12.357  0.3542 -0.0172 -0.3156
13324TIP3    H161463   0.927   3.511  12.396  1.0869  0.2753  0.7844
13324TIP3    H261464   0.932   3.584  12.264  1.8757 -1.8729 -0.4232
13325TIP3   OH261465   2.020   1.756   1.001  0.1088  0.2178 -0.1561
13325TIP3    H161466   1.989   1.686   1.057 -1.2168  1.0905  0.2474
13325TIP3    H261467   1.947   1.774   0.941  0.4346  1.2005 -0.2862
13326TIP3   OH261468   2.837   2.164  15.660  0.2793  0.1879 -0.1515
13326TIP3    H161469   2.851   2.165  15.754 -0.8990  0.4545  0.0354
13326TIP3    H261470   2.895   2.232  15.626 -1.1321  1.9043  0.6902
13327TIP3   OH261471   1.928   0.125   3.856  0.4337 -0.1479  0.2374
13327TIP3    H161472   1.874   0.125   3.936 -0.0867  0.0211 -0.1089
13327TIP3    H261473   2.018   0.124   3.888  0.2372  0.6839  0.8360
13328TIP3   OH261474   6.763   1.605   3.272  0.1391  0.1956 -0.2802
13328TIP3    H161475   6.670   1.626   3.265 -0.1822 -1.1604 -0.3660
13328TIP3    H261476   6.802   1.636   3.190 -0.4331 -0.1465 -0.6852
13329TIP3   OH261477   5.278   1.874   4.657 -0.0682  0.2332 -0.1655
13329TIP3    H161478   5.284   1.828   4.574 -0.7706  2.0790 -1.2970
13329TIP3    H261479   5.358   1.926   4.662  0.3282 -0.4188  0.7053
13330TIP3   OH261480   3.353   6.196   4.673 -0.4169  0.3690 -0.2550
13330TIP3    H161481   3.448   6.210   4.667  0.0904 -0.8256  2.9480
13330TIP3    H261482   3.321   6.275   4.718 -0.2450 -0.8530  2.1652
13331TIP3   OH261483   1.590   6.376  16.767  0.4413  0.0185  0.1546
13331TIP3    H161484   1.615   6.468  16.767  0.8273 -0.0720 -0.9733
13331TIP3    H261485   1.673   6.329  16.772  0.1974 -0.3060  2.4273
13332TIP3   OH261486   4.549   4.268  10.635  0.0218 -0.0042 -0.2778
13332TIP3    H161487   4.551   4.173  10.642 -1.1750 -0.2865 -2.6755
13332TIP3    H261488   4.461   4.293  10.662 -0.6336  0.0626 -2.3097
13333TIP3   OH261489   5.510   2.537   2.358 -0.1092  1.0151  0.0895
13333TIP3    H161490   5.586   2.595   2.347  0.7993 -0.2524 -0.6029
13333TIP3    H261491   5.434   2.594   2.344  0.7236  2.1711  0.0848
13334TIP3   OH261492   6.807   5.614  15.969  0.4622  0.0144 -0.0582
13334TIP3    H161493   6.829   5.613  15.876  0.3640  0.3464 -0.0833
13334TIP3    H261494   6.772   5.526  15.986  1.1215 -0.2815 -0.1797
13335TIP3   OH261495   4.702   0.978  15.674 -0.1355  0.0414 -0.5159
13335TIP3    H161496   4.633   1.033  15.711 -0.9726 -0.3874 -1.4181
13335TIP3    H261497   4.707   1.003  15.582  1.1050  0.2510 -0.4164
13336TIP3   OH261498   4.408   3.624  14.605 -0.2324 -0.2188 -0.5970
13336TIP3    H161499   4.323   3.648  14.567 -0.7240 -0.4610  0.3029
13336TIP3    H261500   4.418   3.531  14.583  0.4162  0.1215 -1.8013
13337TIP3   OH261501   3.719   3.397   0.281  0.0830  0.4066 -0.4076
13337TIP3    H161502   3.792   3.453   0.306  0.3102 -0.0032 -0.1452
13337TIP3    H261503   3.732   3.381   0.187  0.1365  0.6146 -0.4357
13338TIP3   OH261504   1.493   6.064  15.156  0.7609  0.4022  0.7128
13338TIP3    H161505   1.523   6.122  15.087 -2.1481  1.3611  0.1228
13338TIP3    H261506   1.499   5.976  15.118 -0.8035  0.9141 -0.8150
13339TIP3   OH261507   3.212   3.233  10.715  0.0705  0.2045 -0.4318
13339TIP3    H161508   3.146   3.191  10.659  2.3390 -2.0280 -1.6367
13339TIP3    H261509   3.208   3.184  10.797 -0.1963  0.5089 -0.2598
13340TIP3   OH261510   4.042   5.327   1.785  0.0047 -0.0681  0.1222
13340TIP3    H161511   4.019   5.344   1.876  3.4302  0.2471  1.0756
13340TIP3    H261512   4.019   5.408   1.739 -0.1060  0.4457  1.0686
13341TIP3   OH261513   2.104   1.552  14.216 -0.0581 -0.6382  0.2080
13341TIP3    H161514   2.081   1.476  14.269  2.3866 -0.8995  1.0015
13341TIP3    H261515   2.059   1.625  14.258 -0.1292 -1.2171  1.1742
13342TIP3   OH261516   6.637   5.223   4.628  0.0747  0.8494 -0.2315
13342TIP3    H161517   6.638   5.210   4.534  1.4311  1.9379 -0.4175
13342TIP3    H261518   6.719   5.183   4.659 -0.2678  0.6606  0.4599
13343TIP3   OH261519   1.728   6.475  12.661  0.0076  0.0889  0.3734
13343TIP3    H161520   1.703   6.552  12.610 -0.2665 -1.4489 -1.9942
13343TIP3    H261521   1.820   6.489  12.684  0.3907  0.4981 -1.3211
13344TIP3   OH261522   1.676   0.968   3.884  0.1049 -0.1374  0.0174
13344TIP3    H161523   1.757   0.929   3.917  0.0318 -0.5473 -0.2850
13344TIP3    H261524   1.650   1.030   3.952 -0.5574 -1.6382  1.2038
13345TIP3   OH261525   5.464   1.033  15.772  0.0652  0.1158  0.0212
13345TIP3    H161526   5.440   1.066  15.685  1.1441 -0.0031 -0.3381
13345TIP3    H261527   5.557   1.054  15.780  0.1781 -0.6580  0.7937
13346TIP3   OH261528   4.882   5.789   4.267 -0.3408 -0.8662 -0.0725
13346TIP3    H161529   4.910   5.715   4.321  1.3335 -0.2067  0.0302
13346TIP3    H261530   4.924   5.865   4.307 -1.1395 -0.0101 -0.8188
13347TIP3   OH261531   2.242   3.328  16.316 -0.0055  0.0596  0.4203
13347TIP3    H161532   2.336   3.322  16.332  0.0502 -0.4327 -0.0778
13347TIP3    H261533   2.234   3.354  16.225 -0.3513 -0.1630  0.3825
13348TIP3   OH261534   2.502   0.436   0.686  0.2196  0.1402 -0.1219
13348TIP3    H161535   2.416   0.465   0.654 -0.5126  1.3148  2.6524
13348TIP3    H261536   2.564   0.467   0.620 -1.4660 -1.5176 -2.6889
13349TIP3   OH261537   1.093   2.341   4.797  0.5874  0.1846 -0.5220
13349TIP3    H161538   1.125   2.254   4.773  0.8683  0.2261 -0.3003
13349TIP3    H261539   1.091   2.389   4.714 -2.3659 -0.8924 -1.1969
13350TIP3   OH261540   6.755   3.177   4.620 -0.0828  0.4234  0.1808
13350TIP3    H161541   6.848   3.162   4.638 -0.3787  0.2900  1.6364
13350TIP3    H261542   6.709   3.145   4.697 -1.3623  0.4147 -0.5517
13351TIP3   OH261543   4.696   5.995  14.706  0.5377 -0.0036  0.2611
13351TIP3    H161544   4.639   6.070  14.686 -0.1753  0.1260  2.4769
13351TIP3    H261545   4.734   5.971  14.622 -0.9074  1.4643 -0.8890
13352TIP3   OH261546   3.912   3.612   0.237  0.3163  0.3210 -0.1961
13352TIP3    H161547   3.940   3.533   0.191 -0.4182  0.5717 -1.0971
13352TIP3    H261548   3.994   3.653   0.267  0.6852 -0.9631  0.6207
13353TIP3   OH261549   2.681   3.830   5.636  0.5767  0.1485  0.3341
13353TIP3    H161550   2.687   3.903   5.698  0.8219 -1.6307  2.5228
13353TIP3    H261551   2.771   3.819   5.604  0.0812  2.5326 -2.2791
13354TIP3   OH261552   6.539   5.995  13.997 -0.2746 -0.6815  0.3233
13354TIP3    H161553   6.447   5.987  14.022 -0.3400 -0.3453  0.1946
13354TIP3    H261554   6.548   6.085  13.965  0.2207 -0.5386  0.8389
13355TIP3   OH261555   5.464   2.475   0.706 -0.0903  0.6904  0.0255
13355TIP3    H161556   5.427   2.421   0.636 -1.2069 -1.0171  1.7845
13355TIP3    H261557   5.491   2.411   0.772 -1.3734  2.2493  2.1875
13356TIP3   OH261558   4.430   0.774  15.266  0.1878  0.2839  0.0722
13356TIP3    H161559   4.522   0.800  15.279  0.3888  1.1444 -2.4523
13356TIP3    H261560   4.428   0.681  15.287  1.7130  0.1898 -0.0829
13357TIP3   OH261561   2.673   0.466   5.895  0.1468  0.2535  0.0314
13357TIP3    H161562   2.698   0.552   5.859 -1.0453  0.8945  0.6554
13357TIP3    H261563   2.711   0.465   5.983 -1.8804  1.2607  1.0115
13358TIP3   OH261564   0.562   2.283  16.189 -0.0182  0.5398  0.1793
13358TIP3    H161565   0.495   2.327  16.137 -1.3546 -2.4503 -0.8980
13358TIP3    H261566   0.645   2.320  16.159 -0.7431 -0.7071 -3.9556
13359TIP3   OH261567   3.045   6.353  14.365  0.8383 -0.1648 -0.5690
13359TIP3    H161568   3.064   6.442  14.396  1.2707 -0.9279  1.5118
13359TIP3    H261569   2.951   6.342  14.383  1.1672 -0.7394  0.9315
13360TIP3   OH261570   1.813   0.611   1.235  0.5377 -0.2116  0.3165
13360TIP3    H161571   1.887   0.621   1.295  0.1329  2.7318  0.4768
13360TIP3    H261572   1.779   0.523   1.253  1.9798 -0.3902  2.5731
13361TIP3   OH261573   0.877   4.825   1.012  0.3642  0.2130 -0.3547
13361TIP3    H161574   0.905   4.771   0.938  1.1225 -1.3495  1.0005
13361TIP3    H261575   0.959   4.852   1.054 -0.0117 -0.8536  1.1952
13362TIP3   OH261576   4.066   1.193   2.584 -0.3917  0.3311 -0.2932
13362TIP3    H161577   4.052   1.242   2.665  1.1838  0.3442  0.0078
13362TIP3    H261578   4.140   1.238   2.542 -0.2049 -0.5930 -0.9736
13363TIP3   OH261579   3.054   0.344   5.601 -0.2246 -0.3126 -0.0135
13363TIP3    H161580   2.988   0.395   5.648  0.8427 -0.1235  1.3372
13363TIP3    H261581   3.033   0.253   5.621 -0.9185 -0.3288 -0.7692
13364TIP3   OH261582   5.405   1.055  11.080  0.4876 -0.1152  0.6818
13364TIP3    H161583   5.461   1.034  11.005 -1.5222 -0.8851 -0.6939
13364TIP3    H261584   5.341   1.118  11.045 -1.3264 -1.5133  1.2985
13365TIP3   OH261585   2.906   1.307  14.716 -0.1620  0.4297  0.3684
13365TIP3    H161586   2.817   1.341  14.703 -0.7573 -1.3827 -0.5493
13365TIP3    H261587   2.949   1.320  14.632 -0.2105 -0.5186  0.1907
13366TIP3   OH261588   0.326   3.768  14.477 -0.1964 -0.1054  0.1020
13366TIP3    H161589   0.375   3.846  14.452  0.6502 -0.6195  0.1276
13366TIP3    H261590   0.237   3.786  14.447  0.4490 -0.0656 -1.9657
13367TIP3   OH261591   0.352   3.055  11.534  0.0724 -0.9803 -0.2134
13367TIP3    H161592   0.413   3.057  11.461 -0.0852 -1.5689 -0.3697
13367TIP3    H261593   0.395   3.103  11.604  0.0915 -0.1330 -0.7949
13368TIP3   OH261594   2.484   0.739  13.458  0.5600  0.6054  0.6516
13368TIP3    H161595   2.392   0.760  13.471  0.9263  2.0609  1.0454
13368TIP3    H261596   2.512   0.698  13.540  0.5472  1.2455  0.9801
13369TIP3   OH261597   0.795   1.558  12.982  0.2656 -0.0083  0.1176
13369TIP3    H161598   0.876   1.514  13.006  1.5233  3.0040  2.0990
13369TIP3    H261599   0.731   1.530  13.048  0.8289  0.5413  0.9032
13370TIP3   OH261600   1.304   4.032   2.344 -0.1355  0.6221 -0.3771
13370TIP3    H161601   1.237   3.965   2.360  0.3388  0.3756  0.6561
13370TIP3    H261602   1.260   4.096   2.288 -1.2153  0.4264  0.2117
13371TIP3   OH261603   3.770   5.385  14.582 -0.5759  0.1375  0.0864
13371TIP3    H161604   3.827   5.316  14.617 -1.6887 -1.5710 -1.3362
13371TIP3    H261605   3.759   5.446  14.656  3.6130  0.9989  0.2276
13372TIP3   OH261606   0.754   4.262  14.600  0.5309 -0.2106  0.2391
13372TIP3    H161607   0.774   4.318  14.525 -0.3974 -0.9442 -0.5840
13372TIP3    H261608   0.692   4.313  14.652 -2.3186 -1.3097 -1.7882
13373TIP3   OH261609   4.492   5.480  16.379 -0.2444  0.5783 -0.3037
13373TIP3    H161610   4.568   5.468  16.322 -0.3168  1.2146 -0.5438
13373TIP3    H261611   4.452   5.561  16.348  0.6005  1.7900  1.6484
13374TIP3   OH261612   6.099   1.927  15.858 -0.2050 -0.1404 -0.6555
13374TIP3    H161613   6.081   1.905  15.766  0.7883 -1.3514 -0.5762
13374TIP3    H261614   6.188   1.897  15.873 -1.0402 -1.8527  1.2928
13375TIP3   OH261615   2.560   6.535  11.670 -0.4350 -0.4629  0.0179
13375TIP3    H161616   2.565   6.533  11.574 -0.6608  1.3101 -0.0671
13375TIP3    H261617   2.534   6.625  11.690 -0.2783 -0.7827  1.7571
13376TIP3   OH261618   1.628   2.338   3.551  0.6210 -0.5737 -0.1388
13376TIP3    H161619   1.594   2.291   3.475  0.1438 -0.9655  0.3073
13376TIP3    H261620   1.667   2.270   3.605 -0.9609 -0.6406  0.9997
13377TIP3   OH261621   1.512   3.098  14.253 -0.1734  0.6488  0.2418
13377TIP3    H161622   1.443   3.056  14.202  0.2902 -0.9645  0.8582
13377TIP3    H261623   1.515   3.188  14.221 -1.3759  0.2792 -1.0037
13378TIP3   OH261624   3.687   3.911   5.764  0.5499 -0.4598  0.2454
13378TIP3    H161625   3.616   3.974   5.779  1.0318 -0.4476  3.1074
13378TIP3    H261626   3.752   3.959   5.714 -0.2244  0.4510  0.0834
13379TIP3   OH261627   5.594   4.516  12.972 -0.6461  0.0629 -0.8171
13379TIP3    H161628   5.573   4.572  12.897  1.2434  0.9322 -0.7550
13379TIP3    H261629   5.559   4.563  13.048 -0.5024  0.3436 -0.9247
13380TIP3   OH261630   5.596   3.791   0.863 -0.3570 -0.0348  0.1668
13380TIP3    H161631   5.673   3.805   0.918  0.0827 -1.2799 -0.0994
13380TIP3    H261632   5.599   3.863   0.799  0.7474 -0.2233 -0.0132
13381TIP3   OH261633   1.144   4.268  12.883  0.5071  0.0195 -0.1287
13381TIP3    H161634   1.206   4.214  12.931  1.3731 -0.4140 -1.6512
13381TIP3    H261635   1.176   4.358  12.895  0.9471 -0.1214 -0.2104
13382TIP3   OH261636   2.374   2.952   6.244  0.3236  0.5303 -0.3044
13382TIP3    H161637   2.405   2.913   6.326  0.5386 -3.4964 -2.0970
13382TIP3    H261638   2.279   2.962   6.257  0.1626 -1.2075  0.0755
13383TIP3   OH261639   6.427   4.969  14.863  0.0508 -0.2386 -0.8262
13383TIP3    H161640   6.424   5.047  14.919 -0.4742 -1.0492  0.3290
13383TIP3    H261641   6.435   5.003  14.774  0.9777  1.1076 -0.2641
13384TIP3   OH261642   6.381   5.954   0.557  0.1219  0.4076 -0.1595
13384TIP3    H161643   6.380   5.953   0.461  1.0271 -0.2894 -0.1706
13384TIP3    H261644   6.320   6.024   0.580 -1.7162 -0.7690 -1.1939
13385TIP3   OH261645   5.916   3.182  11.060  0.6363 -0.4741  0.0034
13385TIP3    H161646   6.011   3.189  11.062  0.6865 -0.1597 -1.6578
13385TIP3    H261647   5.887   3.264  11.020 -0.1466 -1.5122 -1.6654
13386TIP3   OH261648   1.974   4.015  16.477  0.3458  0.2821  0.3112
13386TIP3    H161649   1.907   3.956  16.511  1.1672 -0.3267  0.8994
13386TIP3    H261650   1.994   4.074  16.549  3.3316 -2.0849  1.6536
13387TIP3   OH261651   6.370   1.811  11.691 -0.4648  0.4822 -0.0644
13387TIP3    H161652   6.430   1.748  11.731 -0.1333  0.5930 -0.3895
13387TIP3    H261653   6.426   1.883  11.661 -0.7813  0.6810 -0.1856
13388TIP3   OH261654   3.758   1.213  16.927 -0.1649 -0.3291 -0.2345
13388TIP3    H161655   3.685   1.247  16.875 -0.0693 -0.4396 -0.4434
13388TIP3    H261656   3.751   1.257  17.011 -0.4819 -0.3506 -0.2493
13389TIP3   OH261657   5.868   5.998  14.241 -0.3519  0.0413  0.3909
13389TIP3    H161658   5.819   6.030  14.317  0.1318  1.4176  0.1508
13389TIP3    H261659   5.869   6.072  14.180  0.7502 -0.4488 -0.2195
13390TIP3   OH261660   4.779   5.082  12.655 -0.1744  0.6529  0.4646
13390TIP3    H161661   4.872   5.062  12.659 -0.5242 -1.2543  0.1078
13390TIP3    H261662   4.774   5.162  12.603  1.3163  1.4018  1.4071
13391TIP3   OH261663   3.911   3.849  15.044  0.0525  0.3306  0.3024
13391TIP3    H161664   3.901   3.882  15.133  1.9690 -1.2289  1.1831
13391TIP3    H261665   3.890   3.756  15.050 -1.2843  0.4878 -1.2349
13392TIP3   OH261666   1.178   0.241  13.013 -0.2394  0.2097  0.2736
13392TIP3    H161667   1.203   0.152  13.036 -1.1412 -0.5524 -1.5467
13392TIP3    H261668   1.258   0.280  12.977 -0.6151 -1.0231 -2.0981
13393TIP3   OH261669   5.545   4.544   2.738 -0.4478  0.2037  0.2279
13393TIP3    H161670   5.532   4.462   2.785  0.8989 -0.7072 -0.9127
13393TIP3    H261671   5.480   4.542   2.668 -0.9201  0.4705  0.6580
13394TIP3   OH261672   6.140   4.132   3.889  0.0143 -0.0603 -0.4564
13394TIP3    H161673   6.104   4.208   3.935  2.0638  0.9167 -0.3785
13394TIP3    H261674   6.144   4.158   3.797  0.7800 -0.0327 -0.4230
13395TIP3   OH261675   0.951   0.428   0.417 -0.3036  0.1774  0.3122
13395TIP3    H161676   0.894   0.374   0.362  0.8095  0.4436 -1.1746
13395TIP3    H261677   1.018   0.367   0.449  1.3357  0.7081 -1.9011
13396TIP3   OH261678   4.658   0.522   5.806  0.5106 -0.0638 -0.7040
13396TIP3    H161679   4.659   0.581   5.731  0.9104  0.3118 -0.4074
13396TIP3    H261680   4.565   0.503   5.820  0.5072 -1.6176 -2.4320
13397TIP3   OH261681   4.821   6.323   1.957 -0.4762  0.2651 -0.1846
13397TIP3    H161682   4.885   6.275   1.905  0.4515  0.6426  0.5845
13397TIP3    H261683   4.864   6.406   1.979 -1.3362  0.6555  0.0994
13398TIP3   OH261684   5.598   4.785  14.366  0.6274  0.2252  0.5442
13398TIP3    H161685   5.552   4.844  14.306 -1.6499 -0.3730  1.5808
13398TIP3    H261686   5.592   4.828  14.451  1.8976  0.0405  0.7445
13399TIP3   OH261687   6.090   4.841  11.059  0.1971  0.3975  0.5322
13399TIP3    H161688   6.090   4.781  10.984 -1.8525  2.6004 -1.3955
13399TIP3    H261689   6.173   4.888  11.053 -0.6186  1.6852 -1.4299
13400TIP3   OH261690   3.943   4.836   0.490 -0.1378  0.2837 -0.0843
13400TIP3    H161691   3.929   4.742   0.499  1.5357  0.1846  3.3801
13400TIP3    H261692   3.867   4.868   0.443 -1.8888 -2.5128  0.6430
13401TIP3   OH261693   0.230   3.970  15.605  0.1216 -0.6345 -0.4670
13401TIP3    H161694   0.308   3.918  15.585  0.0596 -0.2887 -1.6601
13401TIP3    H261695   0.238   4.048  15.550 -1.6705 -1.1610 -1.5529
13402TIP3   OH261696   0.898   1.977  17.004 -0.0261 -0.4036 -0.2924
13402TIP3    H161697   0.917   1.887  17.029 -1.2184 -1.9357 -4.1973
13402TIP3    H261698   0.807   1.990  17.029 -0.8326 -1.4914 -2.4442
13403TIP3   OH261699   4.459   5.903  13.898  0.0577 -0.4361 -0.0282
13403TIP3    H161700   4.398   5.962  13.943  0.4916  0.2343 -0.2896
13403TIP3    H261701   4.479   5.835  13.962 -0.2757 -0.1710  0.3658
13404TIP3   OH261702   5.571   0.111  12.126  0.5568 -0.3025  0.1013
13404TIP3    H161703   5.636   0.163  12.077 -0.8415  1.7149  0.2794
13404TIP3    H261704   5.533   0.053  12.060 -1.3241  2.4016 -1.3956
13405TIP3   OH261705   1.700   0.387  14.888  0.0992  0.3912  0.2172
13405TIP3    H161706   1.742   0.473  14.894 -1.3584  1.0459  2.2169
13405TIP3    H261707   1.773   0.324  14.893  1.0239  1.4973  1.6275
13406TIP3   OH261708   1.862   1.023  15.702 -0.0072  0.4985 -0.1020
13406TIP3    H161709   1.939   0.969  15.720  0.0208  1.4482  3.5192
13406TIP3    H261710   1.795   0.987  15.760 -1.3105  1.6537 -0.8551
13407TIP3   OH261711   0.867   4.766  12.189  0.4329  0.1819  0.0150
13407TIP3    H161712   0.877   4.684  12.141 -0.8418  0.1622 -0.2614
13407TIP3    H261713   0.944   4.818  12.167 -0.4247  0.4679 -2.6689
13408TIP3   OH261714   4.638   1.119  11.300  0.3832  0.3462 -0.1044
13408TIP3    H161715   4.647   1.214  11.306  1.2822  0.2327  0.4564
13408TIP3    H261716   4.683   1.095  11.219  1.7765  0.2146  0.6802
13409TIP3   OH261717   5.802   6.008  15.561  0.9821 -0.1164  0.0338
13409TIP3    H161718   5.876   5.980  15.508  1.8449 -1.2138  1.7152
13409TIP3    H261719   5.808   6.104  15.563  0.9715 -0.0634 -1.7044
13410TIP3   OH261720   1.637   5.518   0.429 -0.1396 -0.0352 -1.0531
13410TIP3    H161721   1.614   5.610   0.447  1.3885  0.2880 -0.6012
13410TIP3    H261722   1.592   5.469   0.498  0.6604  0.5971 -0.0379
13411TIP3   OH261723   5.357   3.942  10.781 -0.2851 -0.5436 -0.3757
13411TIP3    H161724   5.298   3.878  10.819  0.1004 -1.9931 -2.1052
13411TIP3    H261725   5.302   4.018  10.761 -1.0226 -0.8632  0.3971
13412TIP3   OH261726   0.209   4.689  16.065 -0.8094  0.0891  0.1381
13412TIP3    H161727   0.134   4.655  16.113  0.4816 -0.3455  1.9382
13412TIP3    H261728   0.243   4.613  16.017 -0.7202 -0.0393  0.4032
13413TIP3   OH261729   5.410   2.040  11.350 -0.6320  0.3788  0.2221
13413TIP3    H161730   5.339   2.041  11.286 -0.3465 -1.0826 -0.1512
13413TIP3    H261731   5.452   2.126  11.341 -1.1273  0.5216 -0.9386
13414TIP3   OH261732   6.640   1.521   0.512 -0.3140 -0.6545 -0.0823
13414TIP3    H161733   6.597   1.606   0.502  0.6805 -0.3455 -2.3220
13414TIP3    H261734   6.611   1.490   0.598  0.2754  2.4774  1.3918
13415TIP3   OH261735   3.900   4.231   5.644  0.3926  0.2940 -0.0906
13415TIP3    H161736   3.915   4.302   5.581  2.4388  0.1307  0.1445
13415TIP3    H261737   3.854   4.273   5.717 -0.7147  0.7935 -1.0512
13416TIP3   OH261738   1.145   3.338  13.412  0.0729 -0.3197 -0.2322
13416TIP3    H161739   1.174   3.368  13.325 -0.1724 -0.9327 -0.5303
13416TIP3    H261740   1.059   3.377  13.424  1.2361  2.0673  0.9447
13417TIP3   OH261741   5.682   4.414  10.898 -0.1902  0.1635  0.1283
13417TIP3    H161742   5.668   4.398  10.991 -2.1395  1.4785  0.1261
13417TIP3    H261743   5.626   4.349  10.854  1.4964 -1.1384 -0.2132
13418TIP3   OH261744   1.272   5.282   1.152 -0.0136  0.2228  0.0005
13418TIP3    H161745   1.325   5.213   1.113 -0.0912  0.3372 -0.3045
13418TIP3    H261746   1.327   5.360   1.150 -0.6804  0.6809 -1.5801
13419TIP3   OH261747   0.268   3.040  13.330 -0.0779  0.5357  0.7018
13419TIP3    H161748   0.355   3.079  13.340 -0.0481  0.5208  0.4965
13419TIP3    H261749   0.246   3.053  13.238 -0.2969  0.5461  0.7564
13420TIP3   OH261750   4.023   4.026   1.348 -0.1049  0.0760  0.1425
13420TIP3    H161751   3.979   4.020   1.263  0.0991  0.3677  0.0122
13420TIP3    H261752   4.047   4.119   1.356  0.4879 -0.0734  0.2046
13421TIP3   OH261753   2.507   5.701  12.860  0.0224  0.4092 -0.3859
13421TIP3    H161754   2.508   5.743  12.774  0.7088 -1.8073 -1.5655
13421TIP3    H261755   2.588   5.731  12.903  0.2312  0.6942 -0.9752
13422TIP3   OH261756   5.927   5.945   3.625 -0.1350  0.1832 -0.0698
13422TIP3    H161757   5.853   5.991   3.584  0.6923  0.1143 -1.6991
13422TIP3    H261758   5.961   6.008   3.689 -1.8274  0.0551  1.0348
13423TIP3   OH261759   4.248   5.112  15.976  1.0982  0.0264  0.0408
13423TIP3    H161760   4.314   5.163  15.930  0.3654  2.0424  1.0967
13423TIP3    H261761   4.172   5.113  15.918  1.2631 -0.3837 -0.1888
13424TIP3   OH261762   6.056   0.235  11.932 -0.5675 -0.1363 -0.2473
13424TIP3    H161763   6.138   0.285  11.937  0.2708 -1.5484  1.1778
13424TIP3    H261764   6.078   0.158  11.880 -0.8357 -0.7941  0.5972
13425TIP3   OH261765   1.354   3.015   4.732  0.2064 -0.0155  0.3184
13425TIP3    H161766   1.406   3.095   4.729 -0.2186  0.2770  0.5641
13425TIP3    H261767   1.408   2.949   4.689  1.9886 -0.4423  2.9951
13426TIP3   OH261768   1.318   1.396   3.543  0.1701 -0.2788 -0.5808
13426TIP3    H161769   1.310   1.369   3.634  0.0490  1.2693 -0.1189
13426TIP3    H261770   1.279   1.324   3.493 -1.5131 -0.2892  0.6824
13427TIP3   OH261771   5.166   5.547  12.964  0.1969  0.1549 -0.3076
13427TIP3    H161772   5.229   5.602  12.917  1.8131  0.7586  2.3410
13427TIP3    H261773   5.088   5.602  12.974  1.1989  1.4362  0.8713
13428TIP3   OH261774   3.290   0.097  16.796 -0.3126 -0.1512  0.3116
13428TIP3    H161775   3.330   0.099  16.709 -1.8374  1.8056 -0.4064
13428TIP3    H261776   3.202   0.062  16.782 -0.4774 -0.0839  1.1182
13429TIP3   OH261777   4.786   3.878  15.386 -0.2386  0.4459 -0.2559
13429TIP3    H161778   4.849   3.859  15.456 -1.1544  1.0415  0.7495
13429TIP3    H261779   4.823   3.834  15.309  1.7709  1.3658  0.1168
13430TIP3   OH261780   6.556   2.193  10.235  0.1652  0.5461 -0.4000
13430TIP3    H161781   6.584   2.264  10.177  1.2351  1.0852  0.7215
13430TIP3    H261782   6.543   2.118  10.177  3.6176  0.3422 -1.1445
13431TIP3   OH261783   2.714   0.312  12.259 -0.4521 -0.2693 -0.3952
13431TIP3    H161784   2.667   0.261  12.193  2.0631 -1.7265 -1.2419
13431TIP3    H261785   2.770   0.371  12.207 -2.4801  2.7371  0.5590
13432TIP3   OH261786   2.987   3.596   0.316 -0.6319  0.5058 -0.7924
13432TIP3    H161787   2.893   3.588   0.334 -0.5317  0.8216 -0.1021
13432TIP3    H261788   3.024   3.512   0.344 -0.6775  0.4679 -0.8458
13433TIP3   OH261789   2.236   5.839  16.129 -0.2549 -0.7158  0.0301
13433TIP3    H161790   2.293   5.872  16.198  1.2795 -0.5713 -1.2543
13433TIP3    H261791   2.153   5.885  16.142 -0.2667 -1.2140  2.1744
13434TIP3   OH261792   0.540   1.662  15.685 -0.2635 -0.0351  0.3120
13434TIP3    H161793   0.541   1.743  15.633 -0.1288 -0.1899  0.0713
13434TIP3    H261794   0.590   1.684  15.764 -1.0643  0.4146  0.7152
13435TIP3   OH261795   3.458   3.154   3.999  0.4411  0.0583  0.0267
13435TIP3    H161796   3.395   3.136   3.929  1.7080  0.3843 -1.2588
13435TIP3    H261797   3.510   3.074   4.006  0.7710  0.2778  0.1069
13436TIP3   OH261798   4.694   2.559  12.275 -0.0599  0.3130  0.0970
13436TIP3    H161799   4.642   2.603  12.342  0.0515  0.6938 -0.0613
13436TIP3    H261800   4.779   2.602  12.278 -0.2156  0.7033 -0.6375
13437TIP3   OH261801   5.049   2.224   1.157  0.4437  0.3285 -0.3360
13437TIP3    H161802   5.097   2.141   1.165  1.7024  0.6387 -3.4654
13437TIP3    H261803   4.998   2.215   1.076 -0.0370  2.3201 -0.3070
13438TIP3   OH261804   2.285   6.714   0.984 -0.1860  0.0566  0.2458
13438TIP3    H161805   2.223   6.786   0.997 -0.0182  0.2455  0.0044
13438TIP3    H261806   2.334   6.711   1.066 -0.8557 -0.4332  0.6452
13439TIP3   OH261807   0.264   2.544  16.587 -0.5760 -0.3543 -0.1110
13439TIP3    H161808   0.238   2.453  16.573  0.3822 -0.5330 -0.8724
13439TIP3    H261809   0.360   2.542  16.585 -0.5375  0.6505  0.0205
13440TIP3   OH261810   6.584   6.161   4.713  0.2623 -0.1074  0.4515
13440TIP3    H161811   6.637   6.159   4.633  0.6434 -0.3065  0.7086
13440TIP3    H261812   6.647   6.157   4.784 -0.1590 -2.6954  0.7812
13441TIP3   OH261813   1.260   5.426   2.077 -0.4136  0.2644  0.4273
13441TIP3    H161814   1.179   5.461   2.113 -0.0656  0.8346  0.6676
13441TIP3    H261815   1.325   5.494   2.094 -0.2455  0.5838 -1.3251
13442TIP3   OH261816   2.445   3.110   4.512  0.0638 -0.7489  0.6250
13442TIP3    H161817   2.376   3.120   4.447 -0.7527  1.3209  1.7185
13442TIP3    H261818   2.439   3.018   4.539 -2.3548 -0.6183  0.7553
13443TIP3   OH261819   6.722   0.013  10.802  0.4414  0.3899  0.4766
13443TIP3    H161820   6.808  -0.030  10.798 -0.0495 -0.5657 -2.2633
13443TIP3    H261821   6.710   0.051  10.715 -1.8615  0.5676  0.8000
13444TIP3   OH261822   5.649   0.676  15.364  0.1866  0.4686 -0.6453
13444TIP3    H161823   5.674   0.704  15.276  1.4115  2.2920  0.2271
13444TIP3    H261824   5.688   0.741  15.422 -2.2451  0.4432  1.1673
13445TIP3   OH261825   1.141   1.426  16.446  0.6473  0.6467 -0.0324
13445TIP3    H161826   1.100   1.478  16.515  0.6857 -1.1091  1.3716
13445TIP3    H261827   1.076   1.424  16.376 -1.2156 -0.9507  1.6094
13446TIP3   OH261828   0.446   0.530  14.892 -0.1376 -0.1229  0.3530
13446TIP3    H161829   0.399   0.555  14.972 -0.4021  0.0982  0.1326
13446TIP3    H261830   0.457   0.435  14.900  1.0406  0.0672  1.2837
13447TIP3   OH261831   4.711   4.895  16.903  0.5802  0.6220 -0.6611
13447TIP3    H161832   4.722   4.823  16.841 -1.5846  1.1856 -1.7871
13447TIP3    H261833   4.671   4.855  16.980 -0.7388  0.6064 -1.3348
13448TIP3   OH261834   1.121   1.248  12.712 -0.4385  0.2183 -0.2827
13448TIP3    H161835   1.051   1.313  12.705 -1.4990 -0.9038 -0.3549
13448TIP3    H261836   1.165   1.250  12.627 -0.4584  0.8294 -0.2836
13449TIP3   OH261837   5.538   3.892   3.736  0.4397  0.5047  0.3584
13449TIP3    H161838   5.615   3.864   3.686  0.1772  0.8585 -0.2561
13449TIP3    H261839   5.463   3.858   3.687  0.0757  2.7600 -0.7820
13450TIP3   OH261840   5.988   0.227   1.215 -0.1301 -0.5703  0.5810
13450TIP3    H161841   5.987   0.280   1.136  1.0573  0.0112  0.9253
13450TIP3    H261842   5.897   0.198   1.227  0.2478 -4.4992 -3.4534
13451TIP3   OH261843   1.208   0.023   1.128 -0.2205 -0.0692 -0.4150
13451TIP3    H161844   1.161   0.068   1.058 -0.2584  1.3804  0.4857
13451TIP3    H261845   1.148   0.028   1.203  0.6130  0.1752  0.2495
13452TIP3   OH261846   4.167   6.557  16.106 -0.1000 -0.4016 -0.2044
13452TIP3    H161847   4.149   6.501  16.181 -1.4064  0.5621  0.2297
13452TIP3    H261848   4.245   6.607  16.131  0.5290 -1.3291 -0.2347
13453TIP3   OH261849   5.499   0.163   4.499  0.7233  0.1860 -0.0409
13453TIP3    H161850   5.528   0.217   4.425  0.4459  0.3612 -0.0240
13453TIP3    H261851   5.430   0.108   4.462 -0.1194  0.9769  0.3168
13454TIP3   OH261852   0.151   0.649   4.896  0.0036  0.1423 -1.0340
13454TIP3    H161853   0.228   0.701   4.919 -0.7121  1.2227 -1.0089
13454TIP3    H261854   0.149   0.579   4.961  1.4463 -0.4412 -1.5600
13455TIP3   OH261855   4.529   3.398  12.050  0.1222  0.4317 -0.2319
13455TIP3    H161856   4.486   3.465  12.104  0.3567 -1.3872  2.4031
13455TIP3    H261857   4.586   3.447  11.992  0.0500  2.5597  1.3652
13456TIP3   OH261858   3.944   6.641   3.074 -0.3105  0.3705  0.4107
13456TIP3    H161859   3.937   6.737   3.068 -2.3087  0.1746 -2.1427
13456TIP3    H261860   4.034   6.622   3.048  0.4934  1.5482  2.1130
13457TIP3   OH261861   1.150   3.415  15.150 -0.3607  0.4810 -0.5965
13457TIP3    H161862   1.212   3.387  15.083  0.3307  1.1086 -0.2328
13457TIP3    H261863   1.170   3.507  15.164 -1.2253  0.6280 -0.3054
13458TIP3   OH261864   3.103   0.883   1.613  0.3158 -0.0255 -0.3143
13458TIP3    H161865   3.097   0.935   1.532 -0.4132 -1.3682 -1.1690
13458TIP3    H261866   3.197   0.869   1.626  0.4278 -0.2265 -1.2495
13459TIP3   OH261867   5.023   1.456   4.764  0.1376  0.0711  0.3332
13459TIP3    H161868   4.953   1.447   4.829 -1.4162 -1.2109 -1.4366
13459TIP3    H261869   5.052   1.547   4.774 -2.0144  0.7580  0.9005
13460TIP3   OH261870   0.091   0.016  13.989  0.3537 -0.5271  0.6016
13460TIP3    H161871   0.072  -0.069  13.950 -0.0719  0.4543 -1.4832
13460TIP3    H261872   0.007   0.047  14.022  0.6531 -1.2135  2.0888
13461TIP3   OH261873   0.884   3.005   5.560  0.5271  0.0527  1.0461
13461TIP3    H161874   0.877   2.913   5.585 -0.2769 -0.5591 -1.1912
13461TIP3    H261875   0.967   3.011   5.513  0.5028  0.4378  1.0446
13462TIP3   OH261876   5.787   6.395  15.099  0.2338 -0.1153 -0.1148
13462TIP3    H161877   5.790   6.490  15.113 -0.2720 -0.0509 -0.4082
13462TIP3    H261878   5.734   6.362  15.171  0.4007 -0.1754 -0.0192
13463TIP3   OH261879   2.542   3.660  16.260 -0.2988  0.2632  0.6122
13463TIP3    H161880   2.632   3.647  16.230  0.3087 -0.5656  2.6119
13463TIP3    H261881   2.494   3.686  16.182  1.2073 -1.5034 -1.0010
13464TIP3   OH261882   3.174   1.515   3.799 -0.1269  0.2631 -0.1999
13464TIP3    H161883   3.116   1.534   3.725  1.3572  0.2102 -1.4182
13464TIP3    H261884   3.115   1.495   3.871 -1.7253  3.4519 -0.4488
13465TIP3   OH261885   5.019   1.285   0.282 -0.0617  0.3469 -0.3069
13465TIP3    H161886   5.039   1.264   0.373 -2.5240  0.2274  0.2739
13465TIP3    H261887   5.105   1.289   0.239  1.3482  2.4114  2.3949
13466TIP3   OH261888   0.043   5.128  11.838 -0.6371  0.3990  0.4561
13466TIP3    H161889  -0.049   5.155  11.847 -1.1124 -1.1496  0.5854
13466TIP3    H261890   0.041   5.059  11.771  0.2362 -0.5510  1.3869
13467TIP3   OH261891   0.871   6.730  11.210  0.3446  0.7971 -0.2556
13467TIP3    H161892   0.877   6.732  11.115  1.2445  1.0150 -0.2005
13467TIP3    H261893   0.777   6.735  11.228  0.0224 -1.1962 -1.1587
13468TIP3   OH261894   5.990   2.678  16.383 -0.0225  0.0090  0.4069
13468TIP3    H161895   5.926   2.691  16.453  0.2589 -0.4243  0.7491
13468TIP3    H261896   5.953   2.723  16.307 -1.5552 -1.6869  0.1016
13469TIP3   OH261897   2.242   3.292   2.400 -0.1983 -0.3658  0.2405
13469TIP3    H161898   2.200   3.378   2.399  0.7177  0.0950 -0.7821
13469TIP3    H261899   2.309   3.297   2.333 -0.1465 -1.9084  0.1279
13470TIP3   OH261900   1.972   3.705   5.450  0.2914  0.2223 -0.1945
13470TIP3    H161901   1.891   3.747   5.421 -0.0938  0.0343  0.6164
13470TIP3    H261902   1.984   3.632   5.389 -1.0930 -0.8276  0.7492
13471TIP3   OH261903   6.070   4.247  14.152 -0.4789 -0.1706 -0.6081
13471TIP3    H161904   6.099   4.158  14.134 -0.7048 -0.1044 -1.3388
13471TIP3    H261905   6.136   4.282  14.211 -0.3529 -0.7999 -0.3676
13472TIP3   OH261906   0.439   6.744  14.288 -0.6514 -1.1233 -0.4721
13472TIP3    H161907   0.522   6.727  14.245  0.9840 -0.2563  2.1134
13472TIP3    H261908   0.389   6.664  14.276  0.0438 -1.2485 -3.0563
13473TIP3   OH261909   0.428   5.229   4.814 -0.2358  0.1505  0.1665
13473TIP3    H161910   0.347   5.279   4.816 -0.4507 -0.1727 -0.1606
13473TIP3    H261911   0.403   5.145   4.775  0.2642  0.0656  0.0166
13474TIP3   OH261912   2.137   1.216   0.001  0.0147 -0.1220 -0.6777
13474TIP3    H161913   2.095   1.269  -0.067 -2.2912  0.1788  0.8733
13474TIP3    H261914   2.070   1.152   0.026  1.0034 -0.5953  0.8944
13475TIP3   OH261915   4.815   3.961  17.019  0.2299 -0.6769  0.3626
13475TIP3    H161916   4.837   3.916  16.937  0.0915 -0.6840  0.3298
13475TIP3    H261917   4.728   3.997  17.004  0.5067 -0.0445  0.2385
13476TIP3   OH261918   0.087   0.915  13.373  0.0690  0.6696  0.5466
13476TIP3    H161919   0.145   0.988  13.352  1.2343 -0.2957  0.2472
13476TIP3    H261920   0.003   0.938  13.333  0.7947  1.2275 -0.7014
13477TIP3   OH261921   5.613   1.717  12.638  1.1970  0.1451  0.2132
13477TIP3    H161922   5.617   1.762  12.554  0.4250  1.1800  0.7041
13477TIP3    H261923   5.627   1.625  12.617 -0.6686  0.1396 -1.2883
13478TIP3   OH261924   2.841   3.097   1.265  0.1388 -0.8078 -0.0858
13478TIP3    H161925   2.750   3.123   1.275  0.2804 -0.9102  2.0015
13478TIP3    H261926   2.841   3.034   1.193 -1.1971  0.1737 -0.9857
13479TIP3   OH261927   5.722   4.150  16.537  0.1541 -0.0973  0.2721
13479TIP3    H161928   5.810   4.185  16.525  0.1143 -0.0667  0.0608
13479TIP3    H261929   5.711   4.088  16.465 -0.3812  0.6591 -0.3131
13480TIP3   OH261930   0.567   5.331  16.026  0.6100  0.1536 -0.2710
13480TIP3    H161931   0.653   5.352  15.989  0.4801  0.9005 -0.1747
13480TIP3    H261932   0.524   5.278  15.960  0.6003  0.9871 -0.9561
13481TIP3   OH261933   5.685   1.392  16.306  0.1957  0.5711 -0.0365
13481TIP3    H161934   5.664   1.398  16.213 -3.1711  1.8001  0.6410
13481TIP3    H261935   5.732   1.473  16.325  0.7658  0.3854 -0.6300
13482TIP3   OH261936   3.634   0.801  12.047 -0.5020 -0.3725 -0.5734
13482TIP3    H161937   3.546   0.820  12.014 -0.1527  2.3701 -0.2243
13482TIP3    H261938   3.620   0.760  12.132 -1.6231  2.9859  1.0569
13483TIP3   OH261939   2.261   6.828  15.970 -0.4396  0.2708 -0.1865
13483TIP3    H161940   2.323   6.785  16.029 -0.3223  1.7386  0.8269
13483TIP3    H261941   2.177   6.821  16.014 -0.1508  2.4475  0.8352
13484TIP3   OH261942   6.314   5.101  15.190  0.3080 -0.2826  0.1972
13484TIP3    H161943   6.297   5.179  15.242  1.0731 -1.0537  1.6818
13484TIP3    H261944   6.355   5.134  15.110 -0.8846  0.9352  0.0500
13485TIP3   OH261945   4.137   5.935   6.920  0.0088 -0.7824  0.0503
13485TIP3    H161946   4.121   5.841   6.930  1.8386 -1.2059 -0.5680
13485TIP3    H261947   4.232   5.944   6.926 -0.1833  1.2250  1.4798
13486TIP3   OH261948   1.679   3.065   1.827  0.4742 -0.1328 -0.1386
13486TIP3    H161949   1.655   2.979   1.791 -2.9259  0.4226  0.5371
13486TIP3    H261950   1.645   3.128   1.763 -0.3046  0.7549  1.1130
13487TIP3   OH261951   3.251   4.141   0.474 -0.0345 -0.1569 -0.2753
13487TIP3    H161952   3.156   4.152   0.467 -0.1887  0.0458  1.4945
13487TIP3    H261953   3.287   4.192   0.401 -1.2630  0.4008 -0.5109
13488TIP3   OH261954   6.723   2.451   0.873  0.6573 -0.2971 -0.8584
13488TIP3    H161955   6.805   2.443   0.921 -0.4172 -1.8170  0.8802
13488TIP3    H261956   6.713   2.367   0.828 -0.2814 -0.4401 -0.4179
13489TIP3   OH261957   0.937   0.196   0.951  0.3266 -0.2973  0.1382
13489TIP3    H161958   0.955   0.137   0.878  1.2782 -0.7592  0.7343
13489TIP3    H261959   0.844   0.183   0.970  0.2917 -0.8645 -0.3798
13490TIP3   OH261960   2.685   1.133   5.047 -0.2869 -0.0492 -0.4974
13490TIP3    H161961   2.661   1.061   5.105  2.4932 -1.2387 -0.6613
13490TIP3    H261962   2.730   1.196   5.103 -0.3868  0.3109 -0.8133
13491TIP3   OH261963   4.808   4.630   4.420 -0.8926  0.2712 -0.9565
13491TIP3    H161964   4.840   4.634   4.510 -0.0244  0.5690 -1.2653
13491TIP3    H261965   4.785   4.720   4.398 -0.6003  0.2887 -1.2034
13492TIP3   OH261966   2.604   0.553   0.295  0.0945 -0.5034 -0.2535
13492TIP3    H161967   2.514   0.579   0.312  0.0002 -0.6414 -0.5325
13492TIP3    H261968   2.638   0.619   0.235  0.1391 -0.5279 -0.2556
13493TIP3   OH261969   2.755   6.300  14.425  0.2917 -0.3195  0.3932
13493TIP3    H161970   2.708   6.367  14.375  0.8617 -0.4682 -0.3447
13493TIP3    H261971   2.689   6.232  14.440 -0.0287 -0.0324  0.3222
13494TIP3   OH261972   1.168   2.202   1.286  0.1937  0.6431 -0.0877
13494TIP3    H161973   1.148   2.128   1.344  0.0174  0.0173 -0.9124
13494TIP3    H261974   1.199   2.271   1.344 -1.0406  0.4268  0.8711
13495TIP3   OH261975   2.089   5.608  13.675 -0.0697  0.6677 -0.1579
13495TIP3    H161976   2.107   5.631  13.767  2.6115  0.4267 -0.5272
13495TIP3    H261977   2.063   5.691  13.635  2.6739  1.7250  0.0265
13496TIP3   OH261978   1.398   3.578  11.717 -0.4409 -1.0965 -0.1841
13496TIP3    H161979   1.337   3.550  11.785 -1.7738  2.4247  0.2694
13496TIP3    H261980   1.346   3.579  11.637  0.4067 -2.6374 -0.8025
13497TIP3   OH261981   6.264   6.013  17.141 -0.1736 -0.3079  0.5596
13497TIP3    H161982   6.317   6.004  17.219  0.7023  1.3533  0.2163
13497TIP3    H261983   6.220   6.098  17.152  0.8497  0.5197 -1.1987
13498TIP3   OH261984   0.319   2.763  12.793  0.2033 -0.2803 -0.3753
13498TIP3    H161985   0.342   2.705  12.866 -0.8813  0.3917  0.5318
13498TIP3    H261986   0.325   2.707  12.715 -0.6109 -1.5545  0.4500
13499TIP3   OH261987   3.677   4.821  14.528 -0.1978 -0.0512 -0.1112
13499TIP3    H161988   3.596   4.803  14.480 -1.0323 -0.5996  1.4485
13499TIP3    H261989   3.663   4.907  14.567  0.4516  0.3628 -0.7740
13500TIP3   OH261990   3.124   2.238  10.681 -0.0861 -0.4594 -0.7030
13500TIP3    H161991   3.208   2.269  10.649  0.2215  0.6863  1.0482
13500TIP3    H261992   3.064   2.312  10.669 -0.4177 -0.6756 -0.4289
13501TIP3   OH261993   1.366   1.289   1.997  0.5480 -0.2211 -0.0360
13501TIP3    H161994   1.350   1.327   1.910 -2.8308  0.0471  0.5469
13501TIP3    H261995   1.281   1.254   2.023  1.6984 -1.1804  2.7750
13502TIP3   OH261996   3.339   0.163  11.467  0.1094 -0.1311  0.2017
13502TIP3    H161997   3.248   0.169  11.438  0.7689  0.5793 -1.8912
13502TIP3    H261998   3.390   0.200  11.395  1.9318  1.7475  2.3237
13503TIP3   OH261999   6.608   1.318   2.681  0.3005 -0.2908  0.4545
13503TIP3    H162000   6.534   1.258   2.672  0.6694 -0.9022  1.3411
13503TIP3    H262001   6.606   1.370   2.601 -2.7495  1.6109  1.6037
13504TIP3   OH262002   4.602   3.548   1.592 -0.0264  0.4754  0.1428
13504TIP3    H162003   4.666   3.497   1.541 -0.9109  0.7497 -1.3078
13504TIP3    H262004   4.656   3.609   1.642  0.8853  1.0629 -1.4485
13505TIP3   OH262005   0.294   1.754  11.310  0.4296 -0.1580 -0.1008
13505TIP3    H162006   0.291   1.788  11.399 -1.7293  0.5395 -0.3810
13505TIP3    H262007   0.293   1.658  11.320 -2.2183 -0.1125  0.6588
13506TIP3   OH262008   5.804   5.922   4.253  0.0811 -0.1323 -0.3389
13506TIP3    H162009   5.711   5.947   4.255  0.2562  0.5771 -0.8499
13506TIP3    H262010   5.827   5.924   4.160  0.2028 -1.8644 -0.3734
13507TIP3   OH262011   2.896   2.629  14.787  0.8489 -0.5249  0.2637
13507TIP3    H162012   2.976   2.617  14.736  0.9596  1.7945 -0.2187
13507TIP3    H262013   2.867   2.718  14.767 -0.2911 -0.2638  2.6201
13508TIP3   OH262014   3.859   3.412   6.234 -0.4281 -0.1213  0.2285
13508TIP3    H162015   3.953   3.430   6.222 -0.3943  0.3168  1.0769
13508TIP3    H262016   3.854   3.316   6.241 -0.3295 -0.3340 -2.0530
13509TIP3   OH262017   6.692   5.471  15.242  0.0555  0.1259  0.0807
13509TIP3    H162018   6.703   5.516  15.158 -0.4664  0.4636  0.1915
13509TIP3    H262019   6.748   5.520  15.303 -1.2248  1.2341  0.4186
13510TIP3   OH262020   5.730   4.138  12.502  0.5505 -0.0814 -0.6328
13510TIP3    H162021   5.790   4.064  12.504  0.5061 -0.1328 -1.1850
13510TIP3    H262022   5.756   4.192  12.577  2.2070  0.6361 -1.6788
13511TIP3   OH262023   6.329   3.228  12.336  0.0901 -0.1353  0.2546
13511TIP3    H162024   6.363   3.218  12.247  0.6832 -1.0911  0.5676
13511TIP3    H262025   6.290   3.315  12.337 -0.3221 -0.2674 -1.0710
13512TIP3   OH262026   3.351   2.303   5.742  0.4039  0.3483 -0.4901
13512TIP3    H162027   3.313   2.225   5.702  2.2113 -0.6038 -0.4535
13512TIP3    H262028   3.387   2.353   5.669 -0.0524  0.7606 -0.4375
13513TIP3   OH262029   4.808   3.884  12.335  0.1098 -0.1442 -0.2661
13513TIP3    H162030   4.722   3.910  12.304 -0.9761 -0.2333  2.4268
13513TIP3    H262031   4.837   3.956  12.390  0.1990 -1.5145  1.5829
13514TIP3   OH262032   4.430   3.584   4.207  0.1687  0.3638 -1.0218
13514TIP3    H162033   4.470   3.661   4.246 -0.6680  1.0574 -1.4936
13514TIP3    H262034   4.439   3.597   4.113  0.1122 -0.1704 -1.1078
13515TIP3   OH262035   1.812   3.254   4.325 -0.0459 -0.1625  0.0753
13515TIP3    H162036   1.904   3.275   4.339  0.3152 -1.3672 -0.2931
13515TIP3    H262037   1.780   3.322   4.266  0.3320  0.8338  1.0087
13516TIP3   OH262038   4.619   2.869   0.366  0.2446  0.5934 -0.4322
13516TIP3    H162039   4.715   2.865   0.374  0.3010  0.5224 -1.1134
13516TIP3    H262040   4.595   2.783   0.333 -0.2807 -0.1810  1.7742
13517TIP3   OH262041   4.607   3.874   0.290 -0.1454 -0.6500  0.2497
13517TIP3    H162042   4.625   3.788   0.252 -1.3364  0.4018 -3.0989
13517TIP3    H262043   4.674   3.885   0.358  1.8852 -3.0018 -1.1909
13518TIP3   OH262044   6.051   6.365  14.093  0.3782 -0.1286  0.0233
13518TIP3    H162045   5.994   6.307  14.144  1.3681  0.5033  1.9237
13518TIP3    H262046   6.139   6.349  14.128  0.8993  1.3191 -0.5706
13519TIP3   OH262047   4.145   3.736  11.684  0.1728  0.4265 -0.7103
13519TIP3    H162048   4.159   3.762  11.775 -3.5013 -0.1797  0.2016
13519TIP3    H262049   4.170   3.644  11.681 -0.2728  0.2851 -0.1402
13520TIP3   OH262050   5.629   6.783   0.676 -0.5455 -0.3263 -0.1103
13520TIP3    H162051   5.558   6.751   0.622 -1.1068  1.9249 -0.8177
13520TIP3    H262052   5.701   6.797   0.615  0.2848 -1.8156  0.4715
13521TIP3   OH262053   2.064   6.714  12.502  0.4547  0.3149  0.1632
13521TIP3    H162054   2.140   6.746  12.454 -0.5105 -0.3363 -1.9304
13521TIP3    H262055   1.993   6.774  12.478 -1.0136 -2.1959 -2.6335
13522TIP3   OH262056   5.495   6.530   4.156  0.1079 -0.2248 -0.0559
13522TIP3    H162057   5.446   6.512   4.075  0.2688 -0.5904 -0.0725
13522TIP3    H262058   5.566   6.465   4.157  2.0314  1.7295 -1.2120
13523TIP3   OH262059   2.404   0.401  12.028 -0.4814  0.1547 -0.1033
13523TIP3    H162060   2.324   0.453  12.028  0.2112  1.2631  0.7208
13523TIP3    H262061   2.449   0.425  12.109  0.2745 -1.1174 -0.1065
13524TIP3   OH262062   2.287   1.719  16.487  0.1424  0.0034 -0.0366
13524TIP3    H162063   2.277   1.746  16.396 -0.4233  0.1877  0.0755
13524TIP3    H262064   2.258   1.628  16.489 -0.0284  0.0580 -0.0059
13525TIP3   OH262065   5.133   0.401   2.265 -0.2776  0.0960 -0.7226
13525TIP3    H162066   5.162   0.487   2.234  0.7372 -0.4689 -1.4158
13525TIP3    H262067   5.134   0.408   2.360  0.3606  0.6826 -0.7625
13526TIP3   OH262068   0.219   2.037  11.735 -0.0610 -0.1324  0.2658
13526TIP3    H162069   0.126   2.035  11.759  0.1401 -1.9944  1.0830
13526TIP3    H262070   0.262   2.080  11.808 -0.0634 -1.1664  0.8997
13527TIP3   OH262071   5.425   1.671   5.216  0.1180  0.5324 -0.7280
13527TIP3    H162072   5.335   1.642   5.209 -0.0213  1.0971 -1.3360
13527TIP3    H262073   5.439   1.684   5.310 -0.2872  0.0148 -0.5928
13528TIP3   OH262074   1.206   5.847  16.505  0.2630 -0.1823  0.3681
13528TIP3    H162075   1.210   5.926  16.559  2.4190  0.4540 -0.6176
13528TIP3    H262076   1.191   5.776  16.566  1.3286  0.6592  1.6433
13529TIP3   OH262077   3.267   1.563   3.438 -0.0392  0.0793  0.4126
13529TIP3    H162078   3.351   1.582   3.479  1.3932 -1.7407 -1.4622
13529TIP3    H262079   3.276   1.595   3.348 -1.0392 -0.8698 -0.0499
13530TIP3   OH262080   3.797   4.533  12.383  0.0443 -0.2736  0.0667
13530TIP3    H162081   3.811   4.448  12.425 -0.4770 -0.2566  0.2795
13530TIP3    H262082   3.801   4.596  12.455  1.1833 -0.0290 -0.1876
13531TIP3   OH262083   1.039   1.312  13.313 -0.1065 -0.4179  0.3776
13531TIP3    H162084   0.996   1.227  13.314 -1.6507  0.3143 -0.6217
13531TIP3    H262085   1.112   1.303  13.375 -0.9658 -2.0711  1.2031
13532TIP3   OH262086   2.370   5.818  13.836  0.3078 -0.1019 -0.1510
13532TIP3    H162087   2.297   5.775  13.881  0.7898 -0.6241  0.1463
13532TIP3    H262088   2.442   5.816  13.899  0.2572  1.4571 -0.0034
13533TIP3   OH262089   5.458   4.305   2.837  0.8879  0.4021 -0.3202
13533TIP3    H162090   5.473   4.256   2.757 -0.4242  0.1937 -0.4568
13533TIP3    H262091   5.368   4.284   2.862  0.7837  1.6190  0.4019
13534TIP3   OH262092   2.416   6.477   3.631 -0.0209 -0.4389 -0.1279
13534TIP3    H162093   2.504   6.466   3.594  0.2369  0.4631  0.1829
13534TIP3    H262094   2.410   6.571   3.650 -1.0719 -0.4866 -0.1847
13535TIP3   OH262095   4.503   0.710  16.545  0.4984 -0.2944 -0.3752
13535TIP3    H162096   4.492   0.698  16.451 -0.2381 -0.9062 -0.2284
13535TIP3    H262097   4.468   0.629  16.583  2.0663 -0.6566  0.3710
13536TIP3   OH262098   2.885   3.376  16.436 -0.7895 -0.4094  0.6448
13536TIP3    H162099   2.902   3.461  16.395  0.3106 -0.5882  0.6979
13536TIP3    H262100   2.950   3.370  16.506 -0.1513 -1.7488 -0.0324
13537TIP3   OH262101   5.572   4.832  14.638  0.0363  0.0515 -0.2029
13537TIP3    H162102   5.528   4.746  14.640 -0.2074  0.1373  2.8170
13537TIP3    H262103   5.642   4.824  14.703  0.9895  1.6828 -0.9831
13538TIP3   OH262104   5.584   2.835   5.407 -0.2059  0.2048 -0.0501
13538TIP3    H162105   5.669   2.853   5.369 -0.8202  1.6926 -0.7916
13538TIP3    H262106   5.523   2.892   5.360 -1.5816 -0.6205  0.6313
13539TIP3   OH262107   2.651   6.158  11.205  0.7010  0.0739  0.1410
13539TIP3    H162108   2.740   6.191  11.215  0.8518 -0.8414  2.4397
13539TIP3    H262109   2.604   6.194  11.279 -0.6753 -0.0558 -0.6424
13540TIP3   OH262110   1.136   4.435   5.317  0.0438 -0.0558 -0.4432
13540TIP3    H162111   1.080   4.420   5.241 -0.5109 -1.3132  0.1833
13540TIP3    H262112   1.216   4.387   5.297  0.7424  1.3123 -1.1068
13541TIP3   OH262113   3.125   3.489   5.886  0.3692  0.2012 -0.7290
13541TIP3    H162114   3.061   3.422   5.908  0.3217  0.8101  1.2532
13541TIP3    H262115   3.099   3.565   5.940  2.8559  0.3783  0.3580
13542TIP3   OH262116   2.753   3.481  14.706  0.3539 -0.9135 -0.7617
13542TIP3    H162117   2.795   3.412  14.757 -0.5344 -1.5269 -0.8225
13542TIP3    H262118   2.822   3.544  14.689  1.2208 -1.8388 -0.7968
13543TIP3   OH262119   4.046   3.657   4.441  0.2663  0.0480  0.0977
13543TIP3    H162120   4.018   3.575   4.401 -0.9468  0.0538  0.8999
13543TIP3    H262121   3.999   3.725   4.392  1.2334  0.2795 -0.5358
13544TIP3   OH262122   4.739   4.977  16.042 -0.3419  0.0571 -0.5703
13544TIP3    H162123   4.681   4.909  16.009 -2.0037  2.2532 -2.6255
13544TIP3    H262124   4.694   5.059  16.018  1.6525  1.8740  1.4928
13545TIP3   OH262125   5.521   4.808   4.372 -0.0107  1.3114 -0.0444
13545TIP3    H162126   5.489   4.782   4.458  0.4822 -2.4645 -0.8586
13545TIP3    H262127   5.456   4.775   4.310  0.2880  2.8308 -1.2533
13546TIP3   OH262128   6.217   0.225   4.305 -0.0650  0.0472  0.3184
13546TIP3    H162129   6.188   0.295   4.247 -0.0092 -0.0020  0.2313
13546TIP3    H262130   6.135   0.181   4.331 -0.0470 -0.2869 -0.1763
13547TIP3   OH262131   0.666   2.263   1.100 -0.5083 -0.0373  0.4847
13547TIP3    H162132   0.611   2.326   1.054  0.2449  0.1037 -0.2549
13547TIP3    H262133   0.750   2.267   1.055 -0.6473 -2.1227 -0.0900
13548TIP3   OH262134   3.106   0.188   3.329  0.0713  0.2358 -0.0593
13548TIP3    H162135   3.082   0.106   3.286 -0.4158 -0.0485  0.7236
13548TIP3    H262136   3.031   0.245   3.314  0.7238  0.8101 -1.2457
13549TIP3   OH262137   4.007   2.264  16.220  0.2211 -0.1642 -0.1211
13549TIP3    H162138   4.040   2.182  16.256 -2.0775 -0.7333  0.8550
13549TIP3    H262139   3.972   2.241  16.134  0.9286  0.1393 -0.5059
13550TIP3   OH262140   4.163   5.946  15.727 -0.3698  0.0226 -0.2266
13550TIP3    H162141   4.185   5.879  15.791 -0.6173  0.1794  0.0250
13550TIP3    H262142   4.076   5.922  15.695  0.2831 -0.7889 -1.4730
13551TIP3   OH262143   6.203   1.367   5.054  0.1222 -0.1270 -0.0068
13551TIP3    H162144   6.270   1.412   5.105 -0.9696 -0.3956  1.7496
13551TIP3    H262145   6.123   1.417   5.071 -0.6902 -1.4826  0.3064
13552TIP3   OH262146   3.306   2.445   0.269  0.0351 -0.0096  0.0215
13552TIP3    H162147   3.319   2.539   0.280  0.2267  0.0382 -0.5604
13552TIP3    H262148   3.225   2.437   0.220 -0.0886 -0.1581  0.2477
13553TIP3   OH262149   2.058   2.284   6.196 -0.0351  0.1839 -0.1894
13553TIP3    H162150   2.043   2.218   6.264 -1.7991 -0.7776 -1.4409
13553TIP3    H262151   2.141   2.259   6.157 -0.6067 -1.2682 -0.5510
13554TIP3   OH262152   4.665   5.151  13.642  0.0357 -0.0381  0.5368
13554TIP3    H162153   4.659   5.203  13.562  1.1333  1.2274  1.2208
13554TIP3    H262154   4.575   5.147  13.676  0.0657  2.6393  1.1525
13555TIP3   OH262155   0.328   3.353  13.032  0.1861  0.5982  0.5641
13555TIP3    H162156   0.377   3.328  12.954 -0.3736 -0.4668  0.5449
13555TIP3    H262157   0.275   3.428  13.003 -0.0762  0.1628 -0.0991
13556TIP3   OH262158   2.122   4.687  13.028 -0.6779 -0.2989  0.8143
13556TIP3    H162159   2.203   4.637  13.017 -0.4900  0.1176  0.2384
13556TIP3    H262160   2.147   4.778  13.012 -1.3028 -0.1924  0.3816
13557TIP3   OH262161   2.656   5.227   1.468  0.1539  1.0780  0.0457
13557TIP3    H162162   2.664   5.322   1.477 -2.4522  1.3232  0.5739
13557TIP3    H262163   2.604   5.215   1.389 -0.8105  0.2039  0.7768
13558TIP3   OH262164   2.538   1.240  15.390 -0.0941 -0.3164 -0.5992
13558TIP3    H162165   2.624   1.224  15.351 -0.2332 -0.1955 -0.9614
13558TIP3    H262166   2.532   1.177  15.462  1.0368  0.8652  0.5818
13559TIP3   OH262167   6.809   3.221  14.444  1.2130 -0.6304  0.2180
13559TIP3    H162168   6.857   3.270  14.377 -0.4647 -2.0890 -2.2116
13559TIP3    H262169   6.863   3.144  14.460  1.3418 -0.5641  0.1116
13560TIP3   OH262170   5.353   2.942   2.744 -0.0932 -0.0691  0.3407
13560TIP3    H162171   5.425   2.976   2.798  0.0201  0.0017  0.1460
13560TIP3    H262172   5.282   2.925   2.806 -0.0349  0.2112  0.4849
13561TIP3   OH262173   5.123   4.979   2.498  0.5009 -0.0352  0.1712
13561TIP3    H162174   5.046   4.923   2.495  0.0829  0.5570 -1.0855
13561TIP3    H262175   5.099   5.050   2.557  0.8452 -0.8860  1.3661
13562TIP3   OH262176   2.119   3.436   0.680 -0.1060  0.1643 -0.1293
13562TIP3    H162177   2.046   3.450   0.741 -0.1832  0.1633 -0.2207
13562TIP3    H262178   2.158   3.522   0.669 -0.1002  0.1670 -0.0888
13563TIP3   OH262179   5.156   6.184  14.715  0.3709 -0.6019 -0.7031
13563TIP3    H162180   5.123   6.269  14.686  2.0659  1.5629  3.0565
13563TIP3    H262181   5.093   6.154  14.781  0.5863 -1.5807 -0.9144
13564TIP3   OH262182   4.812   2.418  16.307  0.2371 -0.1887 -0.2863
13564TIP3    H162183   4.746   2.348  16.307  0.2548 -0.2768  1.6122
13564TIP3    H262184   4.789   2.473  16.233 -1.8665 -0.3526  0.1760
13565TIP3   OH262185   6.524   2.453   0.366 -0.1293 -0.2745  0.0003
13565TIP3    H162186   6.429   2.446   0.376 -0.1744  0.2644 -0.0496
13565TIP3    H262187   6.548   2.533   0.413  0.1600  0.1782 -0.8940
13566TIP3   OH262188   0.660   3.608  15.526 -0.4515  0.3302 -0.5242
13566TIP3    H162189   0.712   3.619  15.447 -0.0029  0.8192 -0.1737
13566TIP3    H262190   0.605   3.532  15.509 -0.5328  0.5827 -1.3930
13567TIP3   OH262191   2.832   4.851  11.040  0.4273  0.2008  0.2826
13567TIP3    H162192   2.850   4.772  10.989 -1.0424 -1.0649  1.6361
13567TIP3    H262193   2.896   4.848  11.112 -0.7674 -0.7928  1.3640
13568TIP3   OH262194   5.082   4.057   3.645 -0.2291  0.0203 -0.1892
13568TIP3    H162195   5.177   4.050   3.633 -0.5480 -0.3601 -3.5544
13568TIP3    H262196   5.067   4.149   3.667  0.8624  0.4333 -1.0653
13569TIP3   OH262197   5.005   2.770   1.979 -0.0667 -0.1030  0.4882
13569TIP3    H162198   5.045   2.688   2.010  0.2462 -0.7315 -1.4740
13569TIP3    H262199   5.012   2.829   2.055  3.7040 -0.4804  0.6568
13570TIP3   OH262200   5.970   6.415   0.778 -0.4010  0.1045  0.1792
13570TIP3    H162201   6.018   6.494   0.799  0.4364 -0.7999  1.8642
13570TIP3    H262202   6.003   6.349   0.839  0.5477 -2.1858 -2.5641
13571TIP3   OH262203   4.656   2.148   5.066  0.1832 -0.4762  0.0552
13571TIP3    H162204   4.661   2.243   5.070 -0.4740 -0.4657  1.0269
13571TIP3    H262205   4.657   2.127   4.972  1.3866  0.4043 -0.1558
13572TIP3   OH262206   2.706   5.136  15.720  0.5021 -0.6152  0.2400
13572TIP3    H162207   2.773   5.070  15.705 -0.2215 -1.4855  0.7750
13572TIP3    H262208   2.716   5.160  15.812 -1.1223 -2.1400  0.8531
13573TIP3   OH262209   4.230   6.604   0.605  0.7104  0.4263  0.1173
13573TIP3    H162210   4.289   6.665   0.649  1.3597  0.0442 -0.2041
13573TIP3    H262211   4.286   6.556   0.544  0.5600 -1.5631  1.4083
13574TIP3   OH262212   2.927   3.569  14.150  0.4820  0.0904  0.5205
13574TIP3    H162213   2.987   3.500  14.122  0.9701  0.6308  0.1981
13574TIP3    H262214   2.956   3.592  14.238 -0.3572 -0.8436  1.0634
13575TIP3   OH262215   0.766   0.384  10.927  0.4181  0.4163 -0.5086
13575TIP3    H162216   0.788   0.338  10.846  0.0938  0.1531 -0.4477
13575TIP3    H262217   0.673   0.404  10.919  0.1015 -0.6198  0.2875
13576TIP3   OH262218   3.875   5.849  14.949 -0.0637  0.0921  0.1825
13576TIP3    H162219   3.940   5.833  15.017  0.0837  0.5321  0.1451
13576TIP3    H262220   3.794   5.809  14.984  0.1479 -0.1874  0.3588
13577TIP3   OH262221   1.774   6.204   0.944 -0.0037 -0.6229 -0.0012
13577TIP3    H162222   1.694   6.222   0.894 -0.0338  0.8046  0.4872
13577TIP3    H262223   1.742   6.176   1.030 -0.0818  1.4262  0.7181
13578TIP3   OH262224   4.516   1.736  13.231  0.0574  0.4833  0.0950
13578TIP3    H162225   4.436   1.688  13.250  0.3718 -0.5774 -1.0892
13578TIP3    H262226   4.491   1.800  13.164  0.6338 -1.6106 -2.2999
13579TIP3   OH262227   3.584   1.323  13.122  0.0489 -0.9749  0.4713
13579TIP3    H162228   3.653   1.374  13.165  0.2113  0.5109 -1.4460
13579TIP3    H262229   3.614   1.313  13.032 -1.6561 -1.4073 -0.0825
13580TIP3   OH262230   4.282   6.525   5.187  0.7484 -0.1807  0.6002
13580TIP3    H162231   4.305   6.592   5.251  2.9645 -0.7878  0.5002
13580TIP3    H262232   4.363   6.475   5.174 -0.9205 -3.2675  1.0942
13581TIP3   OH262233   6.341   5.110   3.082  0.1411  0.2680  0.1578
13581TIP3    H162234   6.286   5.045   3.127 -0.0565  1.8903  2.4198
13581TIP3    H262235   6.280   5.154   3.021  0.3259 -1.6898 -1.5751
13582TIP3   OH262236   5.456   0.275  13.009 -0.3823 -0.0651  0.2737
13582TIP3    H162237   5.431   0.359  13.048  0.2417  1.2236 -1.9260
13582TIP3    H262238   5.538   0.252  13.053 -0.6921  0.3379  1.0848
13583TIP3   OH262239   5.767   5.652   5.549  0.0209  0.1783 -0.1765
13583TIP3    H162240   5.835   5.651   5.616 -0.2842 -0.1116  0.1312
13583TIP3    H262241   5.703   5.587   5.579 -1.1415  1.5113  0.3225
13584TIP3   OH262242   0.525   3.147  11.754  0.3697 -0.1661 -0.1504
13584TIP3    H162243   0.509   3.093  11.832  3.3169 -0.7861  0.1799
13584TIP3    H262244   0.511   3.237  11.784  0.4644 -0.4578  0.8233
13585TIP3   OH262245   6.260   4.494   4.800 -0.4220 -0.2997  0.6368
13585TIP3    H162246   6.244   4.583   4.830 -0.4748  0.4576 -1.4572
13585TIP3    H262247   6.317   4.456   4.867 -0.3098  1.3345  1.5249
13586TIP3   OH262248   6.722   3.222  17.190 -0.0268 -0.2371 -0.3131
13586TIP3    H162249   6.671   3.298  17.162  0.1227 -0.0541 -0.0951
13586TIP3    H262250   6.718   3.224  17.285 -1.0540 -1.2102 -0.3146
13587TIP3   OH262251   0.883   5.616   2.857  0.1495  0.2374  0.7627
13587TIP3    H162252   0.849   5.670   2.928  1.9967  0.9133  1.1703
13587TIP3    H262253   0.945   5.557   2.899 -0.9014 -1.4000  0.1239
13588TIP3   OH262254   6.579   4.932  12.703 -0.0368 -0.6817 -0.2458
13588TIP3    H162255   6.577   4.994  12.776 -0.2102  0.0910 -0.8880
13588TIP3    H262256   6.603   4.986  12.627  0.4186 -1.5200 -0.7080
13589TIP3   OH262257   6.789   2.394  15.588 -0.1520 -0.4342 -0.4233
13589TIP3    H162258   6.718   2.455  15.608 -0.5520 -0.7871 -0.7440
13589TIP3    H262259   6.745   2.309  15.575  0.5301 -1.1525  1.5630
13590TIP3   OH262260   3.423   2.516  11.289  0.4763 -0.3362 -0.1084
13590TIP3    H162261   3.356   2.496  11.355  1.1874  0.0200  0.7360
13590TIP3    H262262   3.464   2.432  11.270 -0.3935 -0.6139 -0.8633
13591TIP3   OH262263   5.793   5.784  11.292  0.1843  0.4372 -0.4411
13591TIP3    H162264   5.760   5.848  11.229  0.5184  1.4770  0.4137
13591TIP3    H262265   5.798   5.832  11.374 -0.1837 -0.8864  0.3750
13592TIP3   OH262266   0.531   5.269   5.068 -0.3072 -0.6350  0.4248
13592TIP3    H162267   0.484   5.343   5.106 -0.3396  0.1230 -1.0292
13592TIP3    H262268   0.495   5.260   4.980  0.9408 -1.2347 -0.0507
13593TIP3   OH262269   1.735   1.447  13.681  0.1058  0.0329 -0.3818
13593TIP3    H162270   1.752   1.376  13.743 -2.4311  1.2655  1.8937
13593TIP3    H262271   1.641   1.461  13.685  0.4632  3.4079 -0.8497
13594TIP3   OH262272   5.805   1.115  14.490  0.1589  0.0949  0.2502
13594TIP3    H162273   5.740   1.121  14.560  0.5204 -0.5605  0.6601
13594TIP3    H262274   5.888   1.133  14.534  0.4318 -0.6926  0.0721
13595TIP3   OH262275   1.836   1.543  13.436 -0.0328  0.0800 -0.0059
13595TIP3    H162276   1.800   1.506  13.517 -0.8022  0.6633 -0.0680
13595TIP3    H262277   1.839   1.637  13.452  2.3649  0.0080  0.3331
13596TIP3   OH262278   1.572   2.216   5.328  0.3316  0.2350  0.9331
13596TIP3    H162279   1.657   2.257   5.311  0.2247 -0.0199 -0.2533
13596TIP3    H262280   1.517   2.242   5.255 -0.5535  0.1960  1.5657
13597TIP3   OH262281   0.866   4.688  16.410 -0.4759 -0.4874 -0.4569
13597TIP3    H162282   0.792   4.643  16.369 -0.6333 -1.0029  0.3647
13597TIP3    H262283   0.833   4.715  16.496  0.6063 -1.7101  0.3790
13598TIP3   OH262284   4.912   5.948  13.592 -0.2592 -0.9537  0.0309
13598TIP3    H162285   4.920   5.893  13.669  0.9671  1.7174  1.9910
13598TIP3    H262286   4.836   6.004  13.609  1.3291  1.2064  0.4855
13599TIP3   OH262287   4.579   0.438   0.839  0.1736  0.0220 -0.0280
13599TIP3    H162288   4.652   0.396   0.884 -1.9124 -0.5419  3.1848
13599TIP3    H262289   4.593   0.532   0.852  1.3665  0.0640 -1.3582
13600TIP3   OH262290   4.482   2.113   5.577 -0.0932 -0.4187 -0.0135
13600TIP3    H162291   4.411   2.156   5.529 -1.5305 -0.7983  1.6539
13600TIP3    H262292   4.539   2.185   5.603 -0.5992  0.0719 -0.2192
13601TIP3   OH262293   0.416   4.163   1.359 -0.8931 -0.3024  0.0172
13601TIP3    H162294   0.429   4.072   1.329  0.0009  0.2861 -1.4987
13601TIP3    H262295   0.334   4.160   1.408 -1.0885 -1.8700 -0.3354
13602TIP3   OH262296   0.014   2.576   5.577 -0.0734  0.5764 -0.4939
13602TIP3    H162297  -0.070   2.611   5.605 -0.2295 -0.6459  0.6790
13602TIP3    H262298   0.060   2.651   5.539 -2.2072  0.9690 -2.4935
13603TIP3   OH262299   2.897   5.224  16.502 -0.1117  0.0571  0.3860
13603TIP3    H162300   2.893   5.140  16.457 -0.3682  0.3650 -0.1850
13603TIP3    H262301   2.917   5.287  16.432  1.5829  0.2953  1.0257
13604TIP3   OH262302   0.442   3.609   1.730 -0.2523 -0.3587  0.0067
13604TIP3    H162303   0.501   3.578   1.798  1.3346  1.8246 -0.2951
13604TIP3    H262304   0.355   3.608   1.772  0.6671  0.9494  2.1170
13605TIP3   OH262305   1.150   3.733  13.853 -0.1989 -0.0343  0.1293
13605TIP3    H162306   1.063   3.770  13.842 -0.4927 -0.4410  1.0093
13605TIP3    H262307   1.146   3.650  13.805 -0.0919  0.2419 -0.3630
13606TIP3   OH262308   2.702   1.556  15.877 -0.1886  0.1161  0.2789
13606TIP3    H162309   2.747   1.638  15.893 -0.6626  0.2610  0.9301
13606TIP3    H262310   2.763   1.488  15.905  0.4223  0.2105 -0.7819
13607TIP3   OH262311   5.866   4.431   6.497 -0.3524  0.0468  0.3926
13607TIP3    H162312   5.885   4.494   6.566 -0.1222  0.0312  0.3429
13607TIP3    H262313   5.899   4.348   6.530 -1.3455 -0.2060  0.7906
13608TIP3   OH262314   6.125   5.690  10.824 -0.1827  0.0691  0.2133
13608TIP3    H162315   6.074   5.714  10.901 -0.0960 -0.2718  0.3776
13608TIP3    H262316   6.087   5.742  10.753 -0.2925  0.3514  0.4739
13609TIP3   OH262317   2.199   1.733   2.492 -0.5618  0.5406  0.8833
13609TIP3    H162318   2.258   1.768   2.559 -0.5921  0.2346  1.0732
13609TIP3    H262319   2.125   1.794   2.491  1.1133  2.7585 -1.5465
13610TIP3   OH262320   3.915   3.196   1.275  0.2367 -0.0946 -0.0841
13610TIP3    H162321   3.955   3.175   1.359 -0.7756 -1.6091  0.0763
13610TIP3    H262322   3.883   3.286   1.284  0.2911 -0.1874  1.0965
13611TIP3   OH262323   5.543   0.629   5.465  0.1685  0.2248  0.7410
13611TIP3    H162324   5.518   0.651   5.555  1.3879 -0.2242  1.2217
13611TIP3    H262325   5.473   0.664   5.411 -0.2001  1.2128  1.8137
13612TIP3   OH262326   5.607   3.624   1.167 -0.3196  0.0133 -0.5762
13612TIP3    H162327   5.560   3.584   1.240  0.8106 -0.0619  0.1210
13612TIP3    H262328   5.580   3.573   1.090 -1.7713  0.3038 -0.2811
13613TIP3   OH262329   5.702   5.208   1.584  0.4807  0.0730  0.2849
13613TIP3    H162330   5.772   5.191   1.647 -0.7012 -1.3746  1.2921
13613TIP3    H262331   5.653   5.125   1.581 -0.1225  0.4521 -1.7579
13614TIP3   OH262332   4.929   5.135  16.621 -0.2332 -0.3542 -0.3228
13614TIP3    H162333   4.897   5.225  16.624  2.2178  0.5844  0.7270
13614TIP3    H262334   4.936   5.109  16.713  0.0710 -1.2233 -0.5812
13615TIP3   OH262335   5.753   2.340  15.613 -0.2523  0.0042  0.2939
13615TIP3    H162336   5.685   2.388  15.661 -0.1642  0.1276  0.2954
13615TIP3    H262337   5.831   2.394  15.622 -0.2227  0.0008  0.0559
13616TIP3   OH262338   3.733   3.607  11.452 -0.1667 -0.3246 -0.0519
13616TIP3    H162339   3.709   3.700  11.458 -0.6123 -0.4103 -0.5052
13616TIP3    H262340   3.793   3.594  11.526 -0.9910  0.0473  0.7082
13617TIP3   OH262341   5.542   3.528  12.473  0.0812 -0.2697  0.0559
13617TIP3    H162342   5.596   3.606  12.460 -0.2104  0.0484  0.6812
13617TIP3    H262343   5.473   3.557  12.533  0.1569 -1.0980  0.5573
13618TIP3   OH262344   1.601   4.498  13.868  0.7405  0.3327  0.2098
13618TIP3    H162345   1.571   4.437  13.801 -0.3718  0.6812  0.3650
13618TIP3    H262346   1.643   4.569  13.820  0.8419  0.0936 -0.0545
13619TIP3   OH262347   5.635   2.691  16.029 -0.2596 -0.3036 -0.2904
13619TIP3    H162348   5.661   2.723  16.115 -0.0815 -0.6385 -0.2202
13619TIP3    H262349   5.540   2.683  16.034 -0.1011 -2.1147  0.4982
13620TIP3   OH262350   4.846   0.430  13.496 -0.0659 -0.0118  0.3232
13620TIP3    H162351   4.827   0.422  13.589  0.7428 -0.2594  0.4728
13620TIP3    H262352   4.789   0.501  13.466  0.5301  0.8827  1.2580
13621TIP3   OH262353   1.506   0.470   4.426  0.3813 -0.1322  0.0427
13621TIP3    H162354   1.419   0.494   4.394 -0.0192 -2.0696 -0.4502
13621TIP3    H262355   1.488   0.413   4.501  1.2867  1.5153  1.5891
13622TIP3   OH262356   4.221   2.255  11.521  0.0260  0.1059 -0.3240
13622TIP3    H162357   4.179   2.315  11.583 -0.2743  1.2059 -1.5468
13622TIP3    H262358   4.310   2.291  11.511  0.9626 -1.5381  1.3644
13623TIP3   OH262359   0.757   3.096  12.292 -0.5181  0.2315  0.5167
13623TIP3    H162360   0.756   3.000  12.288  0.8264  0.2476 -1.6981
13623TIP3    H262361   0.690   3.123  12.230 -1.2446  0.7577  1.5084
13624TIP3   OH262362   2.878   5.025  16.328  0.2995 -0.2883  0.3317
13624TIP3    H162363   2.889   4.936  16.296 -1.1302 -1.1822  2.2031
13624TIP3    H262364   2.798   5.056  16.285  1.4900  0.6485 -1.3492
13625TIP3   OH262365   0.288   1.329  13.121  0.2619  0.1834  0.4058
13625TIP3    H162366   0.238   1.406  13.093  1.5065  1.1308  0.7038
13625TIP3    H262367   0.339   1.360  13.196  1.4012 -0.7010  0.0274
13626TIP3   OH262368   1.141   3.509  10.261  0.3280  0.3703 -0.0556
13626TIP3    H162369   1.224   3.533  10.220  1.5998 -0.3657  1.9451
13626TIP3    H262370   1.145   3.546  10.349 -2.0944  1.4720 -0.3153
13627TIP3   OH262371   3.605   3.562  15.188  0.6346 -0.6361 -0.2401
13627TIP3    H162372   3.698   3.575  15.208  0.3603  1.7810 -0.2490
13627TIP3    H262373   3.604   3.504  15.112  2.1443 -0.3665 -0.4867
13628TIP3   OH262374   5.308   5.197  13.734 -0.2362  0.3002  0.0103
13628TIP3    H162375   5.224   5.243  13.732 -0.4793 -0.1784 -1.0442
13628TIP3    H262376   5.356   5.231  13.659 -0.2015 -0.7433 -0.4544
13629TIP3   OH262377   4.649   5.417  11.190  0.2100 -0.5904  0.5946
13629TIP3    H162378   4.678   5.474  11.261 -0.5920 -1.0951  1.3414
13629TIP3    H262379   4.724   5.414  11.130  1.4856 -1.3977  2.1660
13630TIP3   OH262380   2.749   2.121   3.858 -0.4224 -0.2710 -0.1399
13630TIP3    H162381   2.695   2.054   3.899  0.6036 -1.4372 -0.6270
13630TIP3    H262382   2.830   2.121   3.909  0.1949 -0.5249 -1.0924
13631TIP3   OH262383   6.449   0.273   0.287 -0.1405 -0.0561  0.2335
13631TIP3    H162384   6.365   0.294   0.327  0.0154  1.0375  0.0383
13631TIP3    H262385   6.427   0.218   0.212 -0.5626 -0.8054  0.8955
13632TIP3   OH262386   5.171   3.919  16.359 -0.5018  0.4221  0.0297
13632TIP3    H162387   5.119   3.855  16.312 -0.4563 -1.0754  1.8978
13632TIP3    H262388   5.141   3.913  16.450  2.4414 -0.0830  1.0876
13633TIP3   OH262389   2.734   3.432   1.492  0.1021 -0.1341 -0.3933
13633TIP3    H162390   2.669   3.499   1.513  0.1276 -0.2233 -0.0255
13633TIP3    H262391   2.799   3.439   1.561  1.0916  0.7323 -1.3786
13634TIP3   OH262392   2.025   6.647  13.860  0.1553  0.1317  0.0558
13634TIP3    H162393   1.935   6.620  13.845 -0.1905  0.7965  0.8485
13634TIP3    H262394   2.062   6.578  13.916  0.2335 -0.2824 -0.4978
13635TIP3   OH262395   6.404   3.846  11.961  0.0607 -0.3815  0.7940
13635TIP3    H162396   6.492   3.813  11.979  0.4742  0.0155 -0.4474
13635TIP3    H262397   6.411   3.941  11.969  0.0669 -0.2518 -0.5598
13636TIP3   OH262398   3.146   3.873   3.176  0.3896  0.0147  0.0606
13636TIP3    H162399   3.162   3.897   3.268 -0.3151  1.5177 -0.1781
13636TIP3    H262400   3.054   3.892   3.162  0.4593 -0.3231 -0.9355
13637TIP3   OH262401   3.976   0.742  14.123 -0.0286 -0.2729  0.3354
13637TIP3    H162402   3.884   0.766  14.114  0.5618  1.6640 -1.2503
13637TIP3    H262403   4.019   0.822  14.154  1.2643 -0.8527  0.0826
13638TIP3   OH262404   2.546   0.610  16.803  0.2467  0.3819  0.2747
13638TIP3    H162405   2.564   0.607  16.709  0.8710  0.5462  0.3903
13638TIP3    H262406   2.521   0.521  16.826  0.3321  0.2884  0.0035
13639TIP3   OH262407   6.350   6.367  17.072 -0.6755 -0.2396  0.5678
13639TIP3    H162408   6.405   6.296  17.037 -0.5443 -1.3936  2.9060
13639TIP3    H262409   6.262   6.329  17.074 -1.1301  0.6658 -0.6437
13640TIP3   OH262410   5.632   4.687   5.256 -0.1323  0.3293 -0.2199
13640TIP3    H162411   5.643   4.652   5.344 -0.1154 -0.0345 -0.3661
13640TIP3    H262412   5.556   4.745   5.262  0.1284  0.6387  0.1317
13641TIP3   OH262413   4.762   6.662   2.790  0.7331 -0.4620 -0.3962
13641TIP3    H162414   4.678   6.654   2.745  0.8077  0.9944 -0.8439
13641TIP3    H262415   4.752   6.611   2.871 -1.0505  0.7543  0.1976
13642TIP3   OH262416   3.231   5.632   0.669  0.5281 -0.2007 -0.9299
13642TIP3    H162417   3.233   5.721   0.703  1.4830 -0.8278  0.7941
13642TIP3    H262418   3.177   5.583   0.731  2.1387 -1.3439 -0.3627
13643TIP3   OH262419   1.841   4.564  15.297 -0.5128 -0.8939 -0.0537
13643TIP3    H162420   1.777   4.621  15.255  0.2994  0.5207  0.5320
13643TIP3    H262421   1.926   4.599  15.269  0.0335 -0.4912  1.9305
13644TIP3   OH262422   0.468   6.648   6.199  0.3053 -0.7173  0.3247
13644TIP3    H162423   0.423   6.571   6.232 -0.4935 -0.8658 -1.0390
13644TIP3    H262424   0.402   6.695   6.147  0.7741  0.8696  1.0873
13645TIP3   OH262425   3.012   4.436  13.864  0.3220  0.3278 -0.2729
13645TIP3    H162426   2.921   4.408  13.853  0.4799 -0.1577 -0.3752
13645TIP3    H262427   3.033   4.484  13.783 -0.6603  2.7903  0.8332
13646TIP3   OH262428   1.297   4.572   5.079 -0.9633  0.2557  0.9163
13646TIP3    H162429   1.324   4.611   5.162 -0.5140  1.2964  0.2979
13646TIP3    H262430   1.328   4.634   5.012 -1.3321 -0.5540 -0.0242
13647TIP3   OH262431   5.024   5.119   5.875 -0.4309 -0.1671  0.1547
13647TIP3    H162432   5.098   5.064   5.848  1.7199  1.4129  2.3907
13647TIP3    H262433   4.994   5.082   5.958  0.1836  1.1801  1.0180
13648TIP3   OH262434   5.301   0.233   4.126 -0.0525  0.1996  0.2457
13648TIP3    H162435   5.287   0.328   4.131  3.0832  0.8396 -0.8639
13648TIP3    H262436   5.310   0.215   4.032 -1.7322 -1.4878  0.3335
13649TIP3   OH262437   3.034   0.932  13.558 -0.4439  0.5126 -0.4557
13649TIP3    H162438   2.961   0.954  13.499 -0.7563  1.4564  0.2625
13649TIP3    H262439   3.030   0.836  13.565 -2.0628  0.5788  0.0893
13650TIP3   OH262440   5.886   0.202   0.119  0.3827 -0.1717  0.2656
13650TIP3    H162441   5.802   0.230   0.083  0.7558  0.6990  0.0501
13650TIP3    H262442   5.915   0.276   0.172  0.3834 -0.9953  1.4443
13651TIP3   OH262443   6.803   0.728  11.325  0.3276 -0.2743 -0.2716
13651TIP3    H162444   6.874   0.729  11.389  0.6661 -1.2394 -0.6162
13651TIP3    H262445   6.807   0.641  11.286  0.9861  0.7025 -2.5552
13652TIP3   OH262446   5.150   4.582  14.853 -0.3632 -0.1517  0.4863
13652TIP3    H162447   5.158   4.675  14.832 -1.8909 -0.0492  0.2706
13652TIP3    H262448   5.149   4.538  14.768 -2.1570 -0.1257  0.4749
13653TIP3   OH262449   0.167   5.840   2.151 -0.2999 -0.1096  0.1906
13653TIP3    H162450   0.262   5.831   2.159 -0.0435  2.2736  0.5003
13653TIP3    H262451   0.131   5.779   2.215  1.1074  0.9397  2.0536
13654TIP3   OH262452   1.787   1.268   4.389  0.5718  0.0298  0.0874
13654TIP3    H162453   1.831   1.209   4.328 -0.9573  1.1729 -2.2789
13654TIP3    H262454   1.852   1.335   4.409  1.2971 -0.7076  0.2547
13655TIP3   OH262455   1.528   2.780  13.655 -0.5939  0.2003 -0.1538
13655TIP3    H162456   1.472   2.726  13.599 -0.0577  0.8796 -1.3923
13655TIP3    H262457   1.470   2.849  13.687 -0.9078 -0.2001  0.1541
13656TIP3   OH262458   2.035   0.577  13.364 -0.6437  0.4526 -0.6616
13656TIP3    H162459   2.086   0.563  13.444  0.3377  2.1054 -0.9553
13656TIP3    H262460   2.014   0.670  13.365 -0.1531  0.6295 -2.5770
13657TIP3   OH262461   3.721   2.192  16.868 -0.3763 -0.1714 -0.0173
13657TIP3    H162462   3.762   2.116  16.911 -2.3881 -0.6734  1.1403
13657TIP3    H262463   3.773   2.267  16.897  2.6693 -1.0987 -2.4356
13658TIP3   OH262464   6.269   2.178  13.620 -0.1986 -0.2193 -0.6720
13658TIP3    H162465   6.223   2.251  13.660 -0.0966 -0.8467  0.6581
13658TIP3    H262466   6.306   2.213  13.539 -2.1111  0.5733 -1.2564
13659TIP3   OH262467   0.972   1.421  11.233 -0.0432 -0.1612 -0.3210
13659TIP3    H162468   1.028   1.380  11.167  1.1761  2.1365 -0.8293
13659TIP3    H262469   0.999   1.379  11.315 -0.1566 -1.6255 -0.9885
13660TIP3   OH262470   2.157   4.263  13.713  0.2027 -0.0961  0.1204
13660TIP3    H162471   2.118   4.278  13.799 -1.4594 -2.1130 -0.1842
13660TIP3    H262472   2.237   4.214  13.731  0.8547  1.1004  0.5813
13661TIP3   OH262473   3.782   5.404   3.846  0.2312 -0.3650  0.1844
13661TIP3    H162474   3.721   5.334   3.822 -1.2809  0.4401  1.4542
13661TIP3    H262475   3.770   5.471   3.779  0.1983 -0.4836  0.0722
13662TIP3   OH262476   1.790   1.848   3.764 -0.2175 -0.2217  0.4848
13662TIP3    H162477   1.799   1.913   3.833 -0.8458  0.6131 -0.2132
13662TIP3    H262478   1.697   1.825   3.763 -0.2946  0.1001 -0.3738
13663TIP3   OH262479   2.963   3.182  12.105  0.1198 -0.2464  0.1693
13663TIP3    H162480   3.012   3.164  12.186 -0.3530  0.0001  0.5134
13663TIP3    H262481   2.948   3.276  12.106  1.0461 -0.0707 -0.7542
13664TIP3   OH262482   5.072   5.276  16.884  0.0572  0.2796 -0.1555
13664TIP3    H162483   5.000   5.220  16.913  0.3074  0.6810  1.3079
13664TIP3    H262484   5.030   5.360  16.864 -0.3657 -0.4249 -2.6379
13665TIP3   OH262485   4.821   2.014   4.283  0.4034 -0.1923 -0.3390
13665TIP3    H162486   4.760   1.954   4.240  0.7805 -0.3111 -0.7286
13665TIP3    H262487   4.804   2.099   4.242 -2.1982  0.6995  2.2726
13666TIP3   OH262488   5.857   2.609  14.966  0.1230  0.1100 -0.4760
13666TIP3    H162489   5.937   2.557  14.955  1.5434  1.7281  1.5324
13666TIP3    H262490   5.807   2.561  15.032 -0.2006 -0.4449 -1.1054
13667TIP3   OH262491   0.303   1.653  16.546 -0.4313  0.2301  0.1935
13667TIP3    H162492   0.243   1.640  16.473 -0.4307 -0.2679  0.2819
13667TIP3    H262493   0.373   1.590  16.531 -1.9603 -2.1609  2.2915
13668TIP3   OH262494   4.468   6.283  12.570  0.1628  0.3733 -0.1403
13668TIP3    H162495   4.533   6.264  12.638 -2.6028  0.6693  2.7950
13668TIP3    H262496   4.448   6.198  12.531 -0.0783 -0.2458  1.2776
13669TIP3   OH262497   0.821   3.831   4.448 -0.3217  0.3954 -0.0589
13669TIP3    H162498   0.770   3.759   4.484  1.0589 -0.4997  0.1980
13669TIP3    H262499   0.779   3.852   4.364 -1.8148  0.5370  0.6992
13670TIP3   OH262500   1.114   6.505   4.881 -0.5013  0.0301  0.4220
13670TIP3    H162501   1.119   6.549   4.796  2.0432  1.1363  1.0378
13670TIP3    H262502   1.110   6.411   4.859 -2.2325  0.3402 -0.8736
13671TIP3   OH262503   5.019   6.719  12.229  0.3425  0.0746  0.0021
13671TIP3    H162504   5.083   6.745  12.296  1.5921 -0.1768 -1.0578
13671TIP3    H262505   4.983   6.802  12.197  0.8613  0.2652 -0.0871
13672TIP3   OH262506   2.002   5.285  16.640  0.2299  0.0987 -0.0598
13672TIP3    H162507   1.977   5.321  16.555  2.0171 -0.6637 -0.9628
13672TIP3    H262508   2.077   5.338  16.667  0.2268 -0.2343  0.6250
13673TIP3   OH262509   2.658   2.517   3.308 -0.0649  0.0924  0.1737
13673TIP3    H162510   2.592   2.579   3.339  0.3836  0.3332  0.6783
13673TIP3    H262511   2.724   2.572   3.266  0.2963 -0.0479  0.5524
13674TIP3   OH262512   6.561   3.346   1.989 -1.1383  0.3367  0.5848
13674TIP3    H162513   6.540   3.321   1.899 -1.4115  0.6304  0.5643
13674TIP3    H262514   6.522   3.278   2.043  0.2070 -0.6023  0.4346
13675TIP3   OH262515   6.160   5.354  14.169 -0.4649  0.0344  0.1720
13675TIP3    H162516   6.143   5.408  14.092 -2.4877 -0.6253  0.0944
13675TIP3    H262517   6.175   5.266  14.135  0.9025  0.1562  0.4167
13676TIP3   OH262518   0.533   0.768  11.393  0.3037  0.4377  0.6106
13676TIP3    H162519   0.608   0.794  11.339  0.4578  0.1737  0.6903
13676TIP3    H262520   0.549   0.675  11.411 -0.2324  0.2872  0.3222
13677TIP3   OH262521   4.265   0.743  11.851  0.1342 -0.6144  0.5543
13677TIP3    H162522   4.185   0.730  11.801  0.5102 -3.4737  0.5552
13677TIP3    H262523   4.253   0.692  11.931  1.3207  0.2532  1.3297
13678TIP3   OH262524   1.107   1.644   5.617 -0.0538  0.3089  0.4282
13678TIP3    H162525   1.075   1.691   5.694 -0.1213 -1.8863  1.8001
13678TIP3    H262526   1.029   1.633   5.562 -0.3808  0.3081  0.8885
13679TIP3   OH262527   3.047   4.918   5.068  0.2385 -0.6925 -0.3528
13679TIP3    H162528   2.969   4.897   5.120  0.1309  1.0783  0.2648
13679TIP3    H262529   3.028   4.883   4.981 -0.3540 -2.1064  0.3238
13680TIP3   OH262530   6.738   0.486  11.142  0.0058 -0.2738 -0.1975
13680TIP3    H162531   6.795   0.480  11.219 -1.9066 -0.2696  1.2836
13680TIP3    H262532   6.744   0.399  11.102 -0.5236 -0.9679  1.1466
13681TIP3   OH262533   0.110   5.841   1.845  0.0757  0.1072  0.5122
13681TIP3    H162534   0.142   5.791   1.920 -0.4756 -0.4142  0.4037
13681TIP3    H262535   0.085   5.926   1.882  1.9620  0.7049  0.5386
13682TIP3   OH262536   3.404   2.483   2.267  0.3583 -0.7356  0.3401
13682TIP3    H162537   3.327   2.490   2.323 -0.5063  1.3446 -1.0202
13682TIP3    H262538   3.478   2.489   2.327 -0.5367  1.9707  1.3009
13683TIP3   OH262539   4.774   4.722  15.527  0.1634  0.1781  0.0932
13683TIP3    H162540   4.680   4.709  15.516 -0.0535  0.3492  1.6482
13683TIP3    H262541   4.794   4.796  15.470 -0.3317 -0.8035 -1.4360
13684TIP3   OH262542   2.759   5.236  11.657 -0.9153 -0.5803  0.7193
13684TIP3    H162543   2.843   5.206  11.691 -0.9990  0.1498  1.6081
13684TIP3    H262544   2.697   5.220  11.728 -1.1190  0.8239  0.8864
13685TIP3   OH262545   6.271   4.362  14.323 -0.6443 -0.2384 -0.4785
13685TIP3    H162546   6.360   4.338  14.296 -1.1192 -1.5230 -0.9892
13685TIP3    H262547   6.281   4.395  14.412  0.3061 -0.6726 -0.4135
13686TIP3   OH262548   4.891   6.576  15.560  0.0248 -0.5798  0.2687
13686TIP3    H162549   4.968   6.608  15.606 -0.4365  0.1575  0.5521
13686TIP3    H262550   4.900   6.610  15.471 -2.0562  3.3353  1.3228
13687TIP3   OH262551   1.044   3.778  15.594  0.1696 -0.8432 -0.7311
13687TIP3    H162552   1.071   3.730  15.673 -0.6924  0.8169  0.6369
13687TIP3    H262553   0.986   3.717  15.548  0.1836 -1.6275  0.2466
13688TIP3   OH262554   0.168   5.739  11.867 -0.0345  0.1830 -0.0645
13688TIP3    H162555   0.247   5.713  11.914 -0.9567 -0.7632  1.0467
13688TIP3    H262556   0.155   5.831  11.891  1.1104  0.5796 -0.8609
13689TIP3   OH262557   0.728   2.370   1.498  0.4487  0.3042 -0.1658
13689TIP3    H162558   0.785   2.297   1.521  1.0569  0.8998  0.2782
13689TIP3    H262559   0.785   2.447   1.503 -0.1787  0.8107 -0.6093
13690TIP3   OH262560   0.200   0.557   5.762 -0.2521  0.2845  0.1428
13690TIP3    H162561   0.206   0.640   5.714  0.2084  0.3622  0.3236
13690TIP3    H262562   0.107   0.546   5.779 -0.2137  1.4191  1.2323
13691TIP3   OH262563   2.777   1.493  13.121 -0.1274  1.0152 -0.0534
13691TIP3    H162564   2.812   1.550  13.190 -0.7282 -1.6088  2.5987
13691TIP3    H262565   2.817   1.408  13.136 -1.7637 -0.1546 -1.7736
13692TIP3   OH262566   4.283   1.915  15.836 -0.2980  0.6010  0.4007
13692TIP3    H162567   4.323   1.944  15.754  0.5558  0.2498  0.6828
13692TIP3    H262568   4.198   1.879  15.810  0.5704 -0.8896 -0.5561
13693TIP3   OH262569   6.153   3.817   1.948  0.3825 -0.7084 -0.1527
13693TIP3    H162570   6.091   3.769   1.893 -0.8555 -2.1573  2.3071
13693TIP3    H262571   6.234   3.767   1.942 -0.1311 -1.6196  0.3463
13694TIP3   OH262572   1.777   3.032  15.012  0.2269  0.7117  0.4374
13694TIP3    H162573   1.732   2.988  15.083 -0.4095  0.5875 -0.0395
13694TIP3    H262574   1.729   3.007  14.933  1.5057  0.0514 -0.1618
13695TIP3   OH262575   1.756   0.337   1.255  0.3260  0.7420 -0.8839
13695TIP3    H162576   1.700   0.296   1.321  2.8391  0.1917  1.0802
13695TIP3    H262577   1.738   0.289   1.174 -0.7911 -0.5136  0.0607
13696TIP3   OH262578   1.805   3.125  15.689 -0.0002  0.7019 -0.1026
13696TIP3    H162579   1.774   3.215  15.680  1.4244  1.1377 -1.1832
13696TIP3    H262580   1.804   3.091  15.600 -0.3004 -0.2848  0.2695
13697TIP3   OH262581   3.853   3.450   2.790  0.0594 -0.4659 -0.3541
13697TIP3    H162582   3.874   3.458   2.883 -1.2448 -1.0288  0.0079
13697TIP3    H262583   3.917   3.506   2.746 -0.7607  1.7200  1.0555
13698TIP3   OH262584   5.365   4.134  15.126 -0.0595 -0.8104 -0.2150
13698TIP3    H162585   5.458   4.115  15.113 -0.2061 -1.2352 -0.7083
13698TIP3    H262586   5.352   4.131  15.220  0.8776  1.4337  0.0521
13699TIP3   OH262587   3.001   4.145   1.270  0.3952 -0.6117  0.1784
13699TIP3    H162588   3.090   4.120   1.243  0.2767 -0.3110 -0.5083
13699TIP3    H262589   2.972   4.206   1.202  0.3324  0.6778  1.3300
13700TIP3   OH262590   5.365   3.065   0.398 -0.4072 -0.3599 -0.1150
13700TIP3    H162591   5.446   3.112   0.418 -1.3518  0.6929  1.4631
13700TIP3    H262592   5.379   2.977   0.433  0.1968 -0.3167 -0.2345
13701TIP3   OH262593   3.910   4.547   0.502  0.2220 -0.7215 -0.6137
13701TIP3    H162594   4.005   4.538   0.494  0.5943  1.7169  0.2577
13701TIP3    H262595   3.892   4.531   0.595 -0.1784 -0.8978 -0.7214
13702TIP3   OH262596   2.461   5.484  11.989 -0.2046 -0.1178 -0.0176
13702TIP3    H162597   2.447   5.476  12.084 -1.8144 -0.0766 -0.2163
13702TIP3    H262598   2.461   5.394  11.958 -0.2423 -0.1089 -0.0431
13703TIP3   OH262599   4.775   4.844   4.108 -0.3413  0.3856  0.0114
13703TIP3    H162600   4.856   4.806   4.075  0.1572 -0.0790  1.6739
13703TIP3    H262601   4.737   4.890   4.033  0.9058 -0.3039 -1.0687
13704TIP3   OH262602   3.986   2.708  15.013 -0.0727 -0.8277  0.0769
13704TIP3    H162603   3.921   2.757  14.963 -0.0935 -1.6780 -0.7686
13704TIP3    H262604   3.967   2.730  15.105  1.2326  2.3038 -0.3051
13705TIP3   OH262605   5.576   0.751   3.237  0.0893 -0.3405  0.4240
13705TIP3    H162606   5.491   0.708   3.233  0.2322 -0.6819  0.9531
13705TIP3    H262607   5.617   0.734   3.152 -0.7575  0.6593 -0.2151
13706TIP3   OH262608   1.935   5.289   1.866  0.1856 -0.1036 -0.5941
13706TIP3    H162609   1.997   5.230   1.823 -0.2122 -0.6325 -0.4520
13706TIP3    H262610   1.849   5.258   1.838 -0.2317 -1.9218  2.3192
13707TIP3   OH262611   5.040   1.823   0.860  0.2489 -0.1738 -0.4316
13707TIP3    H162612   4.959   1.854   0.820 -1.0003 -0.2607  1.8943
13707TIP3    H262613   5.104   1.893   0.841 -0.9855  1.0333 -0.2909
13708TIP3   OH262614   1.070   5.459   1.025 -0.2969 -0.0971  0.3173
13708TIP3    H162615   1.134   5.423   1.088  1.6722  1.8344 -0.4605
13708TIP3    H262616   1.123   5.495   0.955 -2.2972  1.2309 -0.6006
13709TIP3   OH262617   2.355   4.773   2.004  0.0147  0.0431 -0.1308
13709TIP3    H162618   2.411   4.845   2.033 -1.5279  1.1230  0.2687
13709TIP3    H262619   2.413   4.717   1.952  0.9312  2.3415 -1.7548
13710TIP3   OH262620   0.496   2.626   4.624  0.5613 -0.2404 -0.8990
13710TIP3    H162621   0.482   2.575   4.704  0.0288 -0.2304 -0.9869
13710TIP3    H262622   0.563   2.691   4.649  0.9461 -0.7138 -0.6742
13711TIP3   OH262623   6.299   5.794   0.822 -0.1353  0.2047  0.0448
13711TIP3    H162624   6.359   5.719   0.824  0.1445  0.4019 -0.6008
13711TIP3    H262625   6.354   5.869   0.844 -0.2671  0.3116  0.0091
13712TIP3   OH262626   4.262   4.749   2.235  0.3720 -0.3509  0.3317
13712TIP3    H162627   4.355   4.728   2.246  0.9947  0.7327 -2.1384
13712TIP3    H262628   4.238   4.707   2.152 -1.1869 -0.0861  0.6255
13713TIP3   OH262629   0.609   4.524  10.732 -0.1440 -0.6535  0.4474
13713TIP3    H162630   0.679   4.500  10.670 -0.0122  1.3223 -0.2206
13713TIP3    H262631   0.636   4.483  10.814  0.6902 -1.6903 -0.3036
13714TIP3   OH262632   2.581   4.101   0.835 -0.1040 -0.5023  0.2079
13714TIP3    H162633   2.668   4.082   0.800  0.1351  0.0604  0.4899
13714TIP3    H262634   2.592   4.180   0.888 -0.5192 -1.1480  1.2978
13715TIP3   OH262635   0.519   1.462   5.017 -0.0483  0.1925  0.1165
13715TIP3    H162636   0.474   1.501   4.943  1.2217  0.4538 -0.5452
13715TIP3    H262637   0.469   1.491   5.094  0.8576  3.2464 -0.3289
13716TIP3   OH262638   3.846   1.112   0.369 -0.0888  0.4508 -0.0544
13716TIP3    H162639   3.857   1.145   0.458  0.3069  1.9420 -0.6456
13716TIP3    H262640   3.932   1.120   0.328 -1.0119  3.3870 -1.7345
13717TIP3   OH262641   3.995   3.305  11.656 -0.2027 -0.1658 -0.8208
13717TIP3    H162642   4.061   3.245  11.621  1.0970  1.0517 -0.5903
13717TIP3    H262643   3.930   3.249  11.698  2.0311 -1.3571  1.2817
13718TIP3   OH262644   0.273   0.855  13.657 -0.7040 -0.3668 -0.0758
13718TIP3    H162645   0.348   0.908  13.630 -0.0740 -0.7202  0.9469
13718TIP3    H262646   0.287   0.770  13.615 -0.1182 -0.6758  0.7217
13719TIP3   OH262647   3.750   6.471  12.280  0.0417  0.1075  0.1626
13719TIP3    H162648   3.704   6.426  12.351 -1.6621  0.1532 -0.8598
13719TIP3    H262649   3.825   6.512  12.323  0.7252 -2.2664  1.4203
13720TIP3   OH262650   2.607   2.562   0.208 -0.2359 -0.0301  0.0472
13720TIP3    H162651   2.650   2.483   0.175  1.2520  0.8713 -0.2472
13720TIP3    H262652   2.672   2.603   0.264 -0.6685  1.4279 -0.4726
13721TIP3   OH262653   5.510   1.315   0.336  0.2390  0.4952  0.2902
13721TIP3    H162654   5.546   1.329   0.249 -0.4613  1.0558  0.0828
13721TIP3    H262655   5.418   1.293   0.321  0.4447 -0.8133  0.8166
13722TIP3   OH262656   1.326   3.146  13.416 -0.1669 -0.5128  0.3017
13722TIP3    H162657   1.272   3.225  13.422 -0.5603 -0.5951 -1.5844
13722TIP3    H262658   1.321   3.121  13.324  2.5147 -0.9427  0.2011
13723TIP3   OH262659   2.960   0.560   0.979 -0.3277 -0.4616 -0.1631
13723TIP3    H162660   2.872   0.584   0.948 -0.8371 -1.7168  0.2500
13723TIP3    H262661   2.945   0.483   1.034  1.0038 -0.4816  0.1872
13724TIP3   OH262662   0.686   4.466  11.880  0.1602 -0.7150 -0.0944
13724TIP3    H162663   0.594   4.458  11.907 -0.0871 -0.0354 -0.6969
13724TIP3    H262664   0.703   4.386  11.830  0.4983 -1.7837  1.6307
13725TIP3   OH262665   0.304   5.416   1.630 -0.0684 -0.0173  0.0339
13725TIP3    H162666   0.267   5.347   1.685  1.3315  1.4772  3.1017
13725TIP3    H262667   0.387   5.380   1.600 -0.6647 -0.6957 -0.8799
13726TIP3   OH262668   1.871   2.931  13.526  0.4469  0.3970  0.1300
13726TIP3    H162669   1.966   2.924  13.534  0.5405 -0.0792 -1.1022
13726TIP3    H262670   1.838   2.845  13.552  0.5748 -0.3196 -1.8965
13727TIP3   OH262671   0.151   6.119   2.764  0.1455  0.0512  0.3672
13727TIP3    H162672   0.182   6.166   2.841  3.6459  0.1536 -0.8941
13727TIP3    H262673   0.180   6.029   2.777  0.6322  0.0343 -0.7276
13728TIP3   OH262674   2.046   1.141  13.178  0.3555 -0.5118  0.1886
13728TIP3    H162675   1.993   1.163  13.101  1.6140 -1.0852 -0.8836
13728TIP3    H262676   2.135   1.132  13.144  1.1863  0.4906  1.9496
13729TIP3   OH262677   1.055   4.596   0.945 -0.4813  0.2565  0.1987
13729TIP3    H162678   1.103   4.515   0.928 -0.3730  0.2701  0.4367
13729TIP3    H262679   1.121   4.665   0.936 -0.7865  0.4149 -1.0501
13730TIP3   OH262680   3.924   3.568   3.322  0.0981 -0.3172 -0.3626
13730TIP3    H162681   3.954   3.639   3.378 -1.5408  0.5699 -0.5619
13730TIP3    H262682   3.929   3.489   3.376  1.4573  0.0155  0.0168
13731TIP3   OH262683   1.902   1.509   2.215  0.1311 -1.3573  0.0499
13731TIP3    H162684   1.884   1.541   2.304  1.2365 -2.1042  0.5718
13731TIP3    H262685   1.981   1.556   2.188  0.6148 -2.1425  0.0437
13732TIP3   OH262686   4.609   5.913  15.193  0.1489  0.0866  0.6238
13732TIP3    H162687   4.538   5.953  15.244 -0.3934  0.3231 -0.3011
13732TIP3    H262688   4.565   5.855  15.131  0.6791  1.0094 -0.6618
13733TIP3   OH262689   2.990   0.483   0.221  0.2681 -0.2482  0.1922
13733TIP3    H162690   2.994   0.473   0.316  1.1820 -2.3831 -0.0051
13733TIP3    H262691   2.929   0.415   0.193  0.0506  0.3287 -0.7644
13734TIP3   OH262692   0.772   6.591   6.239  0.4614  0.0190 -0.3657
13734TIP3    H162693   0.806   6.612   6.152  0.4999  0.4728 -0.2389
13734TIP3    H262694   0.677   6.585   6.227  0.3157  1.5963 -0.1316
13735TIP3   OH262695   1.053   6.566   3.738  0.5179 -0.6402 -0.2423
13735TIP3    H162696   1.064   6.471   3.750  2.1953 -0.2142  2.3934
13735TIP3    H262697   1.093   6.584   3.653  1.4457 -2.1386 -0.1722
13736TIP3   OH262698   0.877   3.927   0.221  0.4990  0.0650 -0.2218
13736TIP3    H162699   0.876   3.869   0.145 -2.3278  0.1305 -0.3184
13736TIP3    H262700   0.864   4.014   0.185  2.6646  0.5874  0.1093
13737TIP3   OH262701   3.299   5.412   5.561 -0.7328 -0.3692 -0.5352
13737TIP3    H162702   3.335   5.330   5.596 -0.2996  0.1083  0.1705
13737TIP3    H262703   3.375   5.470   5.553 -1.3385  0.7752  1.3163
13738TIP3   OH262704   6.221   0.981  14.505 -0.1756  0.0476 -0.0320
13738TIP3    H162705   6.195   1.068  14.535 -0.8388  0.1471 -0.8631
13738TIP3    H262706   6.314   0.989  14.484  0.0105  0.2834  0.8439
13739TIP3   OH262707   0.067   4.271  15.685 -0.3877  0.3607 -0.2528
13739TIP3    H162708   0.015   4.206  15.638 -2.6909  1.9882 -0.1437
13739TIP3    H262709   0.111   4.221  15.754  1.8378 -1.8156 -3.0216
13740TIP3   OH262710   2.288   0.230   1.139  0.2860  0.6049 -0.0402
13740TIP3    H162711   2.217   0.166   1.144 -2.0442  3.0996  2.0727
13740TIP3    H262712   2.352   0.201   1.204  1.1907 -1.5028 -1.7430
13741TIP3   OH262713   0.571   1.705  12.525 -0.4594  0.0721  0.2280
13741TIP3    H162714   0.510   1.653  12.578 -0.1524 -0.3055  0.2141
13741TIP3    H262715   0.657   1.682  12.558 -0.3396  0.9358  0.5404
13742TIP3   OH262716   4.002   0.479  16.567 -0.1519  0.5298 -0.0452
13742TIP3    H162717   4.066   0.534  16.523 -0.9491  1.4806 -0.0562
13742TIP3    H262718   4.007   0.505  16.659 -1.8808  2.0599 -0.3258
13743TIP3   OH262719   5.709   0.696   4.635 -0.2417 -0.0658 -0.6583
13743TIP3    H162720   5.749   0.729   4.715 -0.1470 -1.0139 -0.3041
13743TIP3    H262721   5.655   0.769   4.604 -0.0491  0.4175  0.1024
13744TIP3   OH262722   4.655   0.715  12.281 -0.2184  0.1523  0.2002
13744TIP3    H162723   4.604   0.752  12.353 -0.8423 -1.8698  0.8576
13744TIP3    H262724   4.592   0.664  12.230  0.3684  0.9341 -1.3724
13745TIP3   OH262725   4.481   2.602  15.184  0.1813  0.2945  0.0994
13745TIP3    H162726   4.523   2.593  15.098 -0.5981 -0.2980 -0.2374
13745TIP3    H262727   4.472   2.512  15.215 -0.2973  0.4570  0.4327
13746TIP3   OH262728   5.802   0.705  12.314 -0.9071 -0.0834  0.0671
13746TIP3    H162729   5.785   0.667  12.228 -0.1357 -1.0858  0.3403
13746TIP3    H262730   5.721   0.694  12.362 -0.1123 -3.4873  0.8802
13747TIP3   OH262731   6.494   5.222   6.235  0.3861  0.2483  1.0034
13747TIP3    H162732   6.565   5.280   6.263 -0.4270  1.1154  1.3219
13747TIP3    H262733   6.440   5.277   6.177  1.6153 -1.2595 -1.7895
13748TIP3   OH262734   5.518   3.955   3.379  0.5569 -0.4167  0.2697
13748TIP3    H162735   5.514   3.861   3.359 -0.8087 -0.3372  0.1263
13748TIP3    H262736   5.563   3.994   3.303  2.2917 -1.0811  0.8938
13749TIP3   OH262737   6.751   4.540  11.407 -0.3163  0.0197  0.2961
13749TIP3    H162738   6.697   4.615  11.381 -2.4150 -1.3867  0.3588
13749TIP3    H262739   6.736   4.475  11.339  0.8606 -0.6265  0.6384
13750TIP3   OH262740   1.696   3.070   3.394  0.0244 -0.0572  0.1556
13750TIP3    H162741   1.707   3.078   3.489  0.8391 -2.1800  0.3011
13750TIP3    H262742   1.785   3.056   3.361  0.0845  2.9505 -1.2701
13751TIP3   OH262743   2.002   3.625   4.202  0.5128 -0.9312  0.2194
13751TIP3    H162744   2.034   3.693   4.262  1.3265 -0.7844 -0.3669
13751TIP3    H262745   2.009   3.664   4.115 -3.9867  0.2425  0.1320
13752TIP3   OH262746   3.184   3.536   5.606 -0.4722 -0.8450  0.1161
13752TIP3    H162747   3.183   3.519   5.700 -0.0221  0.0435  0.2925
13752TIP3    H262748   3.248   3.474   5.571  0.3313 -0.2979  0.5829
13753TIP3   OH262749   5.945   1.901  14.297 -0.1426  0.1303 -0.1809
13753TIP3    H162750   6.031   1.934  14.321  0.7513 -1.6356 -0.7887
13753TIP3    H262751   5.888   1.978  14.300  0.5857  0.7386  4.0016
13754TIP3   OH262752   1.542   5.381  12.154 -0.1946 -0.2110 -0.7132
13754TIP3    H162753   1.570   5.465  12.189  0.2203 -0.3368 -0.7371
13754TIP3    H262754   1.465   5.358  12.205 -1.2686  0.9312 -1.7683
13755TIP3   OH262755   6.685   6.316   4.942  0.4742  0.3233 -0.2481
13755TIP3    H162756   6.638   6.277   5.015  2.1135 -0.6904  0.3326
13755TIP3    H262757   6.683   6.410   4.959  1.3749  0.0696  1.4827
13756TIP3   OH262758   3.394   4.669  12.852 -0.1374 -0.0389 -0.2721
13756TIP3    H162759   3.431   4.631  12.772 -0.6239  0.9291 -0.9780
13756TIP3    H262760   3.465   4.664  12.916  1.5304  2.3201 -1.7625
13757TIP3   OH262761   1.631   3.090   5.269 -0.1076  0.4806 -0.1841
13757TIP3    H162762   1.576   3.125   5.199 -1.4361  1.2039  1.1677
13757TIP3    H262763   1.640   2.997   5.248 -1.7581  0.3699 -0.5194
13758TIP3   OH262764   5.332   6.524  12.089  0.2896 -0.7746 -0.2158
13758TIP3    H162765   5.316   6.548  12.180 -0.0369 -0.5937 -0.3196
13758TIP3    H262766   5.367   6.435  12.093  0.9711 -0.4967  0.1363
13759TIP3   OH262767   1.895   0.058   2.720 -0.4776  0.5653 -0.4117
13759TIP3    H162768   1.800   0.046   2.726 -0.5427  1.4650  0.5673
13759TIP3    H262769   1.906   0.149   2.694  0.1222  0.3544 -0.9175
13760TIP3   OH262770   0.615   1.125  11.374 -0.0377 -1.0301 -0.1512
13760TIP3    H162771   0.660   1.042  11.386 -2.4630 -2.2235  1.5168
13760TIP3    H262772   0.625   1.145  11.280  0.5003 -3.2565 -0.6207
13761TIP3   OH262773   2.582   5.905  11.148 -0.0315 -0.0333  0.2580
13761TIP3    H162774   2.518   5.892  11.078 -0.5875  0.6052  0.6455
13761TIP3    H262775   2.578   5.998  11.168 -0.7952 -0.3998  2.0148
13762TIP3   OH262776   2.980   0.658   3.581 -0.2117 -0.3806  0.1037
13762TIP3    H162777   2.917   0.631   3.648  0.3417  0.7457  1.1274
13762TIP3    H262778   2.926   0.700   3.513 -0.6188  0.1495  0.7428
13763TIP3   OH262779   4.088   1.480   6.922 -0.6807 -0.4421  0.1129
13763TIP3    H162780   4.077   1.490   7.016 -0.2037  1.8203 -0.0126
13763TIP3    H262781   4.112   1.568   6.891  2.7653 -1.7757 -1.5977
13764TIP3   OH262782   5.508   2.629   4.312  0.5496  0.1560  0.5403
13764TIP3    H162783   5.578   2.625   4.247 -1.7222  2.2297 -2.2797
13764TIP3    H262784   5.456   2.550   4.297  0.6708  0.0469  0.6845
13765TIP3   OH262785   6.160   2.174  16.027  0.0747  0.0860 -0.4096
13765TIP3    H162786   6.169   2.224  15.946 -0.1617 -0.2805 -0.6667
13765TIP3    H262787   6.112   2.095  16.001 -2.4063  1.1504  0.5706
13766TIP3   OH262788   1.718   0.055  16.895  0.4323 -0.5879  0.2608
13766TIP3    H162789   1.813   0.049  16.885  0.5874  0.5733  0.9241
13766TIP3    H262790   1.703   0.136  16.944 -0.9770 -0.1345 -0.8335
13767TIP3   OH262791   5.790   5.291   1.328 -0.6423  0.3482  0.0578
13767TIP3    H162792   5.734   5.268   1.403 -1.9550  0.4231 -0.8595
13767TIP3    H262793   5.878   5.296   1.364 -1.3970  1.5911  1.8659
13768TIP3   OH262794   0.509   4.931  13.879 -0.2257  0.1198 -0.2452
13768TIP3    H162795   0.493   5.024  13.895  0.6549  0.4673 -1.2520
13768TIP3    H262796   0.519   4.924  13.784  0.9704 -0.7817 -0.0844
13769TIP3   OH262797   5.121   4.318  12.655 -0.0850 -0.3496 -0.0675
13769TIP3    H162798   5.076   4.276  12.728 -1.5360 -1.9070 -1.7760
13769TIP3    H262799   5.051   4.347  12.596  1.0467  0.2958 -1.1585
13770TIP3   OH262800   2.823   1.212  16.162 -0.1684  0.0815 -0.2714
13770TIP3    H162801   2.858   1.131  16.198 -0.1384  1.1217  2.1931
13770TIP3    H262802   2.733   1.216  16.194 -0.0674  1.1657 -0.0668
13771TIP3   OH262803   2.589   1.645   0.720  0.4614 -0.1319  0.0295
13771TIP3    H162804   2.622   1.620   0.634  1.5406  0.6163  0.1917
13771TIP3    H262805   2.554   1.734   0.707 -2.0053 -1.0728 -0.2366
13772TIP3   OH262806   3.410   3.459   1.710 -0.4238  0.3840 -0.0917
13772TIP3    H162807   3.489   3.483   1.758 -0.5051  0.8017 -0.1571
13772TIP3    H262808   3.431   3.376   1.667 -0.4573 -0.1571  0.9095
13773TIP3   OH262809   6.191   2.816   4.301 -0.3114 -0.3479 -0.1057
13773TIP3    H162810   6.226   2.862   4.225 -0.3908 -2.8775 -1.7876
13773TIP3    H262811   6.096   2.827   4.294 -0.4836 -2.2405 -1.6341
13774TIP3   OH262812   4.157   5.884  16.586 -0.3161  0.3271  0.2438
13774TIP3    H162813   4.115   5.943  16.649  1.1494  2.9227 -1.0349
13774TIP3    H262814   4.139   5.796  16.620 -2.0589  1.4816  2.6449
13775TIP3   OH262815   4.884   4.989  15.751  0.6871 -0.0972 -0.1261
13775TIP3    H162816   4.975   4.961  15.764  0.8141  0.6820  0.7661
13775TIP3    H262817   4.876   5.070  15.802 -0.3373  0.1819 -0.7026
13776TIP3   OH262818   0.403   4.965   3.944 -0.0683  0.3765  0.3787
13776TIP3    H162819   0.460   5.038   3.967  0.0050  0.4539 -0.0309
13776TIP3    H262820   0.329   5.007   3.899  1.2092  0.0431 -2.2738
13777TIP3   OH262821   5.381   1.518   2.501  0.4050  0.3103  0.1405
13777TIP3    H162822   5.372   1.423   2.500  0.5463  0.2883  0.6816
13777TIP3    H262823   5.427   1.538   2.420  1.9592 -0.2506  0.8569
13778TIP3   OH262824   2.707   6.349   5.356  0.1987 -0.0132  0.5016
13778TIP3    H162825   2.767   6.301   5.413 -1.2768 -0.6191  1.6191
13778TIP3    H262826   2.659   6.407   5.415  0.7076  1.5706 -0.5822
13779TIP3   OH262827   0.070   1.412  12.571  0.3072 -0.2845 -0.2093
13779TIP3    H162828   0.078   1.505  12.591  1.3184  0.3612 -3.0814
13779TIP3    H262829   0.140   1.370  12.620 -0.9762  0.1961  2.1730
13780TIP3   OH262830   5.605   6.564   1.649  0.2039 -0.1559  0.1513
13780TIP3    H162831   5.550   6.498   1.692 -0.1483 -0.0843 -0.1835
13780TIP3    H262832   5.640   6.519   1.572  3.3103 -1.3206  2.0197
13781TIP3   OH262833   2.531   6.639  13.952 -0.0624 -0.2239 -0.3749
13781TIP3    H162834   2.558   6.713  14.005  1.4800 -1.2717  0.3892
13781TIP3    H262835   2.612   6.592  13.934 -0.9862 -1.6969 -0.8764
13782TIP3   OH262836   2.372   2.389  13.234  0.5035  0.0102 -0.4314
13782TIP3    H162837   2.342   2.479  13.237 -2.3514 -0.8427  2.1528
13782TIP3    H262838   2.386   2.365  13.326  1.2344 -2.1541 -1.0364
13783TIP3   OH262839   3.390   2.625  12.204 -0.2638 -0.0738 -0.0134
13783TIP3    H162840   3.439   2.593  12.129 -1.3423 -0.0531 -0.7460
13783TIP3    H262841   3.317   2.564  12.214  0.4347 -0.7134  1.7042
13784TIP3   OH262842   0.109   1.409   3.941 -0.4231 -0.1697  0.1411
13784TIP3    H162843   0.146   1.375   4.023  0.8875 -0.2489 -0.4687
13784TIP3    H262844   0.015   1.392   3.949  0.0676 -3.6524  0.0401
13785TIP3   OH262845   2.392   6.794   4.685  0.2042  0.0402 -0.6192
13785TIP3    H162846   2.431   6.860   4.628 -0.0001  1.6108  0.9740
13785TIP3    H262847   2.300   6.792   4.661 -0.2683  2.0300  0.7760
13786TIP3   OH262848   0.175   3.440   2.090 -0.2964  0.5795  0.7674
13786TIP3    H162849   0.096   3.419   2.139  0.2405 -0.4592  1.2212
13786TIP3    H262850   0.153   3.419   1.999  0.4166 -2.8443  1.2614
13787TIP3   OH262851   2.348   5.038   6.479 -0.3468 -0.4458  0.0234
13787TIP3    H162852   2.318   5.125   6.503  0.6332  0.0102 -0.3531
13787TIP3    H262853   2.365   5.043   6.385  0.4569 -0.8087  0.1405
13788TIP3   OH262854   3.397   4.930  11.822  0.2649 -0.0821 -0.4579
13788TIP3    H162855   3.432   4.870  11.755  0.4763  0.7818 -1.1398
13788TIP3    H262856   3.451   5.008  11.814 -0.6952  0.6087 -0.3110
13789TIP3   OH262857   0.039   1.179  16.310  0.4921  0.2813  0.3167
13789TIP3    H162858   0.124   1.137  16.307 -0.2030 -1.1341 -0.5535
13789TIP3    H262859   0.029   1.206  16.402  2.3941  1.6864  0.1692
13790TIP3   OH262860   3.958   6.602  12.344  0.8425  0.3101  0.6445
13790TIP3    H162861   4.045   6.562  12.333  1.2707  1.6806 -1.6951
13790TIP3    H262862   3.969   6.663  12.416  1.8243  0.4376  0.4008
13791TIP3   OH262863   0.953   5.521   5.821  0.1361  0.0103  0.0700
13791TIP3    H162864   0.915   5.572   5.749  0.4763  1.0830  0.6191
13791TIP3    H262865   0.878   5.483   5.866 -0.3128  1.6515  0.8083
13792TIP3   OH262866   5.062   3.388  17.076 -1.2385 -0.5231 -0.0808
13792TIP3    H162867   5.018   3.324  17.020 -0.6568  0.4299 -1.6943
13792TIP3    H262868   5.088   3.338  17.153 -1.0283 -2.1697 -1.1621
13793TIP3   OH262869   0.140   1.450   5.563  0.4340  0.4033 -0.2377
13793TIP3    H162870   0.069   1.501   5.524  0.5251  0.3718 -0.4431
13793TIP3    H262871   0.216   1.508   5.560 -0.0932  1.3467  2.0991
13794TIP3   OH262872   6.206   2.340   1.625  0.3650 -0.0994 -0.1078
13794TIP3    H162873   6.175   2.424   1.656 -0.1429 -0.4773  0.4354
13794TIP3    H262874   6.146   2.316   1.554 -0.2094 -0.5386  0.5198
13795TIP3   OH262875   2.372   4.983  15.363  0.1786 -0.6288 -0.0246
13795TIP3    H162876   2.306   5.021  15.421  0.6926  0.0425  0.1293
13795TIP3    H262877   2.445   4.960  15.421  0.9353  0.5830 -0.4603
13796TIP3   OH262878   0.534   6.370   3.713 -0.6737 -0.4084 -0.4074
13796TIP3    H162879   0.570   6.454   3.743  0.5808 -0.8975 -0.4489
13796TIP3    H262880   0.607   6.308   3.724 -1.4640 -1.4180 -0.7144
13797TIP3   OH262881   4.750   6.415   0.568 -0.1300 -0.2861 -0.3890
13797TIP3    H162882   4.832   6.366   0.575 -0.8048 -1.3616  0.4800
13797TIP3    H262883   4.738   6.428   0.474  0.5628 -0.9629 -0.5839
13798TIP3   OH262884   1.378   3.734   1.553 -0.6464  0.8148 -0.2593
13798TIP3    H162885   1.466   3.763   1.579 -0.8212  0.4685  0.7830
13798TIP3    H262886   1.363   3.655   1.605 -1.5113  0.7741 -0.5532
13799TIP3   OH262887   3.607   0.007  13.233 -0.1183  0.2815 -0.0596
13799TIP3    H162888   3.606   0.037  13.142  0.9970  0.6741  0.0335
13799TIP3    H262889   3.637  -0.084  13.228  0.1590  0.3718 -0.0796
13800TIP3   OH262890   4.229   5.996  13.627  0.0914 -0.3413  0.1645
13800TIP3    H162891   4.223   5.965  13.717 -0.7553 -1.3502 -0.2276
13800TIP3    H262892   4.141   5.988  13.593  0.2285  0.7961 -0.5306
13801TIP3   OH262893   2.099   2.663  14.388  0.8739  0.2298 -0.0363
13801TIP3    H162894   2.084   2.729  14.321  0.9783  0.3648  0.0717
13801TIP3    H262895   2.071   2.581  14.348 -1.5683  0.6344  0.6518
13802TIP3   OH262896   1.931   0.418   4.054  0.4343 -0.1068  0.6643
13802TIP3    H162897   1.894   0.385   3.972  0.1021  1.3172  0.2288
13802TIP3    H262898   1.856   0.422   4.114  0.1790  1.1558  0.2905
13803TIP3   OH262899   4.078   0.272   6.165  0.0307 -0.3298 -0.1631
13803TIP3    H162900   4.155   0.257   6.109  1.7316  0.1859  1.9289
13803TIP3    H262901   4.071   0.367   6.173 -0.5376 -0.3845  0.0744
13804TIP3   OH262902   0.906   4.393  14.360 -0.4008  0.6097 -0.5675
13804TIP3    H162903   0.893   4.474  14.408  2.5130  1.6958 -1.3964
13804TIP3    H262904   1.001   4.379  14.362 -0.4745 -0.9524 -3.3120
13805TIP3   OH262905   6.577   3.949  17.070  0.0207  0.2381  0.1060
13805TIP3    H162906   6.515   4.009  17.112  0.8236  0.4772  0.9854
13805TIP3    H262907   6.601   3.994  16.989  0.6061  1.1291  0.7476
13806TIP3   OH262908   6.787   1.496   0.867  0.1550 -0.7697  0.7202
13806TIP3    H162909   6.791   1.469   0.775  0.9105  0.5932  0.3207
13806TIP3    H262910   6.874   1.475   0.901  0.4442  0.2819  0.6470
13807TIP3   OH262911   0.288   5.401   3.492  0.2873 -0.1881  0.2198
13807TIP3    H162912   0.246   5.446   3.566 -1.6501  0.9849 -1.4551
13807TIP3    H262913   0.331   5.471   3.443  1.3464 -0.9092  0.0897
13808TIP3   OH262914   6.462   5.649  11.060 -0.1888  0.3053 -0.0163
13808TIP3    H162915   6.519   5.599  11.002 -0.6403  1.3788 -1.4427
13808TIP3    H262916   6.486   5.740  11.045 -2.1059  0.7672 -0.4805
13809TIP3   OH262917   2.531   6.138   0.314 -0.2076 -0.8294 -0.4309
13809TIP3    H162918   2.484   6.115   0.394 -0.8600 -0.2899 -0.6479
13809TIP3    H262919   2.623   6.137   0.339 -0.4129 -0.5701  0.3544
13810TIP3   OH262920   4.204   5.893   5.181  0.7730 -0.0083  1.0117
13810TIP3    H162921   4.241   5.849   5.258  1.4852 -0.1023  0.6271
13810TIP3    H262922   4.113   5.866   5.179  0.8373 -0.2767  1.6324
13811TIP3   OH262923   5.512   0.858  14.291 -0.6729 -0.3658 -0.0417
13811TIP3    H162924   5.443   0.856  14.358  0.1295 -0.1736  0.8010
13811TIP3    H262925   5.515   0.949  14.264  0.4204 -0.0077  1.1821
13812TIP3   OH262926   2.382   3.207  16.086 -0.0865  0.0305  0.1303
13812TIP3    H162927   2.373   3.287  16.034  1.6706  0.1505 -0.0561
13812TIP3    H262928   2.351   3.137  16.028  0.8992  0.2803 -0.7276
13813TIP3   OH262929   6.022   1.051   3.431  0.2951  0.4582  0.3913
13813TIP3    H162930   6.033   1.017   3.520 -0.7129 -0.0948  0.3157
13813TIP3    H262931   6.053   0.980   3.375  0.0854  0.4583  0.2775
13814TIP3   OH262932   2.503   1.375   0.555  0.3834  0.5283 -0.0441
13814TIP3    H162933   2.480   1.391   0.463 -0.9102  0.6980  0.3003
13814TIP3    H262934   2.436   1.421   0.605  0.3190 -0.6601  0.9879
13815TIP3   OH262935   2.503   1.474  17.113 -0.1841  0.4081 -0.0452
13815TIP3    H162936   2.564   1.543  17.088 -0.5862  0.5486 -0.6442
13815TIP3    H262937   2.445   1.515  17.177 -0.1622  0.4990 -0.0842
13816TIP3   OH262938   1.026   0.387  13.423  0.4440  0.0982 -0.0326
13816TIP3    H162939   0.957   0.401  13.357  0.4716  1.6617  0.2221
13816TIP3    H262940   1.100   0.354  13.374  0.6842  1.8697 -0.9490
13817TIP3   OH262941   4.921   2.234   2.501  0.1071 -0.2406  0.2099
13817TIP3    H162942   4.970   2.218   2.421  0.7429  1.6876  0.1671
13817TIP3    H262943   4.985   2.220   2.571  0.5537  1.5284  0.1887
13818TIP3   OH262944   0.291   3.090   2.826 -0.1410  0.2310  0.4644
13818TIP3    H162945   0.350   3.097   2.901 -0.8827 -0.4120  1.1297
13818TIP3    H262946   0.227   3.160   2.839 -1.3463 -0.9903  1.4503
13819TIP3   OH262947   4.401   6.310   2.934  0.3413  0.5541 -1.0554
13819TIP3    H162948   4.478   6.260   2.908 -1.0516 -1.2581 -1.9708
13819TIP3    H262949   4.339   6.297   2.862 -1.4491  0.4149  0.4330
13820TIP3   OH262950   1.922   3.580   3.484  0.0254  0.4194  0.1694
13820TIP3    H162951   2.001   3.562   3.536  0.6217  3.8085  0.6523
13820TIP3    H262952   1.893   3.666   3.514 -2.4967  0.3270 -1.7283
13821TIP3   OH262953   6.734   5.488   0.870  0.1586  0.1410 -0.6361
13821TIP3    H162954   6.741   5.394   0.854 -0.1634 -0.0595  0.2882
13821TIP3    H262955   6.796   5.528   0.810  2.5265 -0.8782  0.9897
13822TIP3   OH262956   2.296   2.069  16.015 -0.0689 -0.2285  0.3175
13822TIP3    H162957   2.272   2.041  15.927 -0.3424  0.1831  0.2593
13822TIP3    H262958   2.313   1.987  16.062 -0.4899 -0.4781  0.0452
13823TIP3   OH262959   6.074   3.951  11.490 -0.2359  0.1610 -0.0405
13823TIP3    H162960   6.130   3.926  11.564  0.4419  1.1107 -0.2287
13823TIP3    H262961   6.001   3.889  11.495  0.4204 -0.5923  0.6772
13824TIP3   OH262962   0.232   4.584  14.838 -0.0508  0.2993 -0.5042
13824TIP3    H162963   0.156   4.541  14.878 -1.2857  1.1813 -1.8286
13824TIP3    H262964   0.280   4.622  14.912 -1.9921  1.4558  0.2286
13825TIP3   OH262965   6.567   1.817   3.177 -0.0323  0.3112  0.1452
13825TIP3    H162966   6.562   1.889   3.240 -0.6691  0.0054  0.4542
13825TIP3    H262967   6.654   1.825   3.138 -0.0821  1.2313  0.1989
13826TIP3   OH262968   2.895   4.981   0.151  0.3690 -0.7223 -0.3877
13826TIP3    H162969   2.807   4.944   0.153 -0.3840  0.8146 -2.1513
13826TIP3    H262970   2.904   5.016   0.062  1.1743  2.8293  0.9268
13827TIP3   OH262971   6.376   1.743  12.962 -0.2201 -0.4422  0.0508
13827TIP3    H162972   6.390   1.785  13.047 -0.1443 -1.4424  0.5419
13827TIP3    H262973   6.311   1.799  12.918 -1.1868 -0.5781  1.2509
13828TIP3   OH262974   4.319   1.381   5.062 -0.6644  0.0176 -0.7077
13828TIP3    H162975   4.272   1.298   5.060 -2.7832  1.0426  1.3145
13828TIP3    H262976   4.251   1.448   5.051  0.9708  1.5471 -2.2760
13829TIP3   OH262977   0.949   5.640  15.333  0.2076 -0.3435 -0.1472
13829TIP3    H162978   0.937   5.559  15.284  0.0548 -0.3428 -0.1140
13829TIP3    H262979   0.872   5.645  15.390 -0.4250  0.4450 -1.0266
13830TIP3   OH262980   2.710   3.354  13.054 -0.0497 -0.0616  0.2022
13830TIP3    H162981   2.805   3.344  13.047 -0.0742  0.1912 -0.6858
13830TIP3    H262982   2.691   3.347  13.147  0.9399  0.7861  0.4811
13831TIP3   OH262983   4.964   6.691   5.156 -0.0654 -0.2083  0.0734
13831TIP3    H162984   4.889   6.723   5.206  0.1360 -0.6602  0.6691
13831TIP3    H262985   5.039   6.706   5.213  0.9526  3.8549 -1.9164
13832TIP3   OH262986   1.112   2.383  15.890  0.2886 -0.1723  0.7651
13832TIP3    H162987   1.101   2.323  15.964  1.2597  0.0665  1.1178
13832TIP3    H262988   1.190   2.434  15.912  1.1297 -0.7001 -0.8163
13833TIP3   OH262989   3.245   0.742  15.440 -0.3079  0.1621 -0.0153
13833TIP3    H162990   3.315   0.679  15.458 -0.9817 -0.6876 -0.3003
13833TIP3    H262991   3.164   0.694  15.459 -0.8071  1.2441  0.6566
13834TIP3   OH262992   5.413   5.413  12.284 -0.2481 -0.4395 -0.3390
13834TIP3    H162993   5.475   5.342  12.266 -0.8326 -0.8834 -0.6275
13834TIP3    H262994   5.380   5.438  12.198 -0.5248 -0.2538 -0.1799
13835TIP3   OH262995   3.358   3.524  16.603 -0.1406 -0.5745 -0.3619
13835TIP3    H162996   3.388   3.490  16.519  1.1215 -0.5506  0.0599
13835TIP3    H262997   3.403   3.471  16.668 -0.0433  0.3086  0.3025
13836TIP3   OH262998   1.405   1.049  13.505  0.5719 -0.2103 -0.5713
13836TIP3    H162999   1.404   0.989  13.430  1.7590 -1.4657  0.3670
13836TIP3    H263000   1.421   0.993  13.581 -1.9104  0.8428  0.8573
13837TIP3   OH263001   0.775   3.305  15.756  0.0029 -0.7616  0.1698
13837TIP3    H163002   0.764   3.234  15.820  2.5939  0.0169  1.6243
13837TIP3    H263003   0.770   3.262  15.671 -4.3413 -1.7413  0.6879
13838TIP3   OH263004   0.659   4.031   3.679 -0.1459  0.0526 -0.2432
13838TIP3    H163005   0.719   3.980   3.734 -0.1129 -0.5640 -0.8410
13838TIP3    H263006   0.601   3.966   3.641 -0.7891  0.5817 -0.1814
13839TIP3   OH263007   1.285   5.815   5.496 -0.1505  0.0503 -0.0101
13839TIP3    H163008   1.332   5.732   5.491 -0.7222 -0.2590 -0.3161
13839TIP3    H263009   1.354   5.881   5.489  0.2264 -0.3995 -0.7483
13840TIP3   OH263010   1.340   0.288  14.174 -0.2807 -0.1379  0.0139
13840TIP3    H163011   1.408   0.313  14.112 -0.4255 -1.0847 -0.5350
13840TIP3    H263012   1.295   0.371  14.194 -0.2172  0.1826 -1.1123
13841TIP3   OH263013   4.758   1.344   1.739 -0.0175 -0.8081  0.1519
13841TIP3    H163014   4.767   1.291   1.659 -0.3789  1.3440 -1.4191
13841TIP3    H263015   4.848   1.352   1.772  0.3405 -0.6296 -0.8172
13842TIP3   OH263016   4.982   4.696   0.053 -0.5290  0.3238  0.4966
13842TIP3    H163017   5.039   4.684  -0.023  0.5583  0.1289  1.3241
13842TIP3    H263018   4.970   4.791   0.059 -1.3429  0.2884 -0.4303
13843TIP3   OH263019   4.183   0.765  14.507  0.0587 -0.2467 -0.2691
13843TIP3    H163020   4.097   0.808  14.505  1.0859  1.9692 -2.9653
13843TIP3    H263021   4.210   0.760  14.415  2.2215 -2.2560  0.3729
13844TIP3   OH263022   4.905   0.486  12.825 -0.3435 -0.2240  0.0249
13844TIP3    H163023   4.954   0.405  12.810 -1.9912 -1.1533 -0.5672
13844TIP3    H263024   4.844   0.465  12.895  0.0576  0.9117  0.7433
13845TIP3   OH263025   6.457   2.726  13.340  0.3803  0.0583 -0.4085
13845TIP3    H163026   6.546   2.751  13.366  0.3421 -0.7587  0.5258
13845TIP3    H263027   6.452   2.752  13.247  2.0010 -0.9758 -0.8280
13846TIP3   OH263028   6.309   3.845  13.937 -0.1718 -0.5568 -0.3130
13846TIP3    H163029   6.368   3.867  13.865  0.2073  2.1092  0.6908
13846TIP3    H263030   6.367   3.812  14.006  0.0403  0.8007  0.1934
13847TIP3   OH263031   4.587   0.060  14.617 -0.2677  0.0923 -0.0813
13847TIP3    H163032   4.649  -0.011  14.598 -0.8653 -0.3322 -0.5089
13847TIP3    H263033   4.579   0.061  14.712 -0.4564 -0.6093 -0.0801
13848TIP3   OH263034   2.532   2.754   3.096  0.0242 -0.3123  0.3410
13848TIP3    H163035   2.446   2.796   3.103 -0.9896 -1.8969 -1.4316
13848TIP3    H263036   2.584   2.814   3.042 -0.4684  0.0041  0.2106
13849TIP3   OH263037   5.654   4.278  11.507  0.4728 -0.0415  0.2099
13849TIP3    H163038   5.672   4.358  11.557 -0.2983 -0.2171  0.7691
13849TIP3    H263039   5.606   4.309  11.430  0.8343  0.1166  0.0442
13850TIP3   OH263040   3.248   5.866  15.087 -0.4717 -0.0133 -0.1902
13850TIP3    H163041   3.309   5.939  15.091 -0.0983 -0.3182 -0.2301
13850TIP3    H263042   3.225   5.848  15.178 -1.5275  0.9358 -0.2385
13851TIP3   OH263043   0.850   1.982  14.287  0.2723 -0.3129  0.2495
13851TIP3    H163044   0.916   1.918  14.313  1.6349  0.8964 -0.1058
13851TIP3    H263045   0.858   2.052  14.352 -0.3341  0.0762 -0.0902
13852TIP3   OH263046   1.294   3.829  12.844  0.3940  0.3469 -0.4270
13852TIP3    H163047   1.335   3.873  12.918  0.4859 -0.4847  0.0373
13852TIP3    H263048   1.205   3.811  12.874 -0.0284  1.2999 -1.0730
13853TIP3   OH263049   1.249   0.325  13.292 -0.5117  0.1521  0.4136
13853TIP3    H163050   1.257   0.233  13.266  1.2910  0.2730  0.4378
13853TIP3    H263051   1.303   0.373  13.230  0.6389  0.9050  1.9243
13854TIP3   OH263052   3.168   0.736   2.967 -0.6654 -0.0953  0.8241
13854TIP3    H163053   3.180   0.739   2.872 -0.1836  0.2641  0.8885
13854TIP3    H263054   3.254   0.710   3.001 -1.3238 -2.1416  1.0622
13855TIP3   OH263055   4.690   0.398  14.770 -0.4924  0.3417 -0.8281
13855TIP3    H163056   4.699   0.303  14.770 -0.0900  0.3730 -0.1814
13855TIP3    H263057   4.749   0.428  14.839 -0.7041  1.0541 -0.9439
13856TIP3   OH263058   6.094   3.417  10.780  0.0293  0.4596  0.2965
13856TIP3    H163059   6.115   3.444  10.691  1.5746 -1.2710  0.0834
13856TIP3    H263060   6.011   3.460  10.799  0.0514  1.4746 -1.6925
13857TIP3   OH263061   0.841   4.414  12.641  0.1490 -0.0880  0.1482
13857TIP3    H163062   0.793   4.485  12.684 -0.2093  0.2531 -0.7734
13857TIP3    H263063   0.861   4.449  12.554  0.2550 -1.0058 -0.2038
13858TIP3   OH263064   0.922   0.759   2.346  0.0425  0.1840  0.2522
13858TIP3    H163065   0.876   0.737   2.265 -0.2591 -0.3767  0.5667
13858TIP3    H263066   0.864   0.821   2.390 -1.1262 -1.5677  1.3001
13859TIP3   OH263067   3.582   2.556  15.754  0.1358 -0.3635 -0.5355
13859TIP3    H163068   3.546   2.637  15.791 -0.4695 -0.9455  0.1882
13859TIP3    H263069   3.521   2.533  15.684 -0.9109 -1.2932  0.6232
13860TIP3   OH263070   3.795   3.730   5.931 -0.4677  0.0427 -0.1333
13860TIP3    H163071   3.772   3.642   5.901 -0.3712  0.4520 -1.5023
13860TIP3    H263072   3.732   3.787   5.887 -1.5746  0.5649  1.9820
13861TIP3   OH263073   0.220   4.686  15.639  0.2074 -0.7770 -0.3001
13861TIP3    H163074   0.199   4.605  15.592  0.9764 -1.2637  0.1758
13861TIP3    H263075   0.250   4.656  15.725 -1.6569  0.0991  0.7269
13862TIP3   OH263076   0.894   6.238   5.792  0.3486  0.3323  0.0481
13862TIP3    H163077   0.857   6.303   5.852  0.1066 -0.4406  0.7548
13862TIP3    H263078   0.888   6.279   5.705  0.2814  1.2783  0.4914
13863TIP3   OH263079   4.453   6.106   2.680 -0.0664  0.2261  0.0866
13863TIP3    H163080   4.543   6.132   2.702  0.4035 -0.3902 -1.0265
13863TIP3    H263081   4.463   6.020   2.637 -0.9052  1.1985 -2.2294
13864TIP3   OH263082   3.213   4.085   5.015  0.5266 -0.6644 -0.0438
13864TIP3    H163083   3.285   4.144   4.992  0.7417 -0.4488  1.0819
13864TIP3    H263084   3.185   4.115   5.102 -0.2429 -1.4003 -0.0216
13865TIP3   OH263085   5.721   2.670  13.107  0.0069  0.2775  0.1637
13865TIP3    H163086   5.768   2.673  13.024  1.2033 -3.7473  0.5273
13865TIP3    H263087   5.787   2.692  13.173  0.1228 -0.5809  0.3351
13866TIP3   OH263088   5.629   1.936  14.906 -0.1943 -0.1030 -0.0033
13866TIP3    H163089   5.647   1.999  14.976 -1.1242  0.5057 -0.2825
13866TIP3    H263090   5.690   1.960  14.836  0.9895 -0.9450  0.7069
13867TIP3   OH263091   3.762   0.387   3.973 -0.3629  0.7846 -0.2249
13867TIP3    H163092   3.750   0.293   3.985  1.2073  0.7288  1.3324
13867TIP3    H263093   3.834   0.394   3.910  1.4338  0.8241  1.7118
13868TIP3   OH263094   1.127   2.460   6.189 -0.1592 -0.7308  0.4303
13868TIP3    H163095   1.061   2.486   6.124 -0.3405  0.8682  1.2074
13868TIP3    H263096   1.075   2.430   6.263 -0.0097 -0.4469  0.6521
13869TIP3   OH263097   1.104   5.019  14.687  0.0700 -0.5913 -0.2026
13869TIP3    H163098   1.053   5.100  14.688 -0.6867 -1.0640  1.1649
13869TIP3    H263099   1.039   4.950  14.680  0.6018 -1.1572  0.3743
13870TIP3   OH263100   6.341   4.358   1.302 -0.3568  0.5426  0.2066
13870TIP3    H163101   6.246   4.367   1.297 -0.3642 -0.0582 -1.0648
13870TIP3    H263102   6.356   4.278   1.352 -0.5546  0.0139 -0.5647
13871TIP3   OH263103   5.457   1.878  10.488  0.2536 -0.8527  0.1956
13871TIP3    H163104   5.487   1.908  10.574 -1.7242 -0.1692  0.6858
13871TIP3    H263105   5.516   1.922  10.426 -1.0832  2.4100  1.0099
13872TIP3   OH263106   6.804   3.599  15.926 -0.3727 -0.3842  0.3184
13872TIP3    H163107   6.841   3.601  16.014 -0.6370 -1.0317  0.4517
13872TIP3    H263108   6.782   3.691  15.908  1.4603  0.0553  0.1412
13873TIP3   OH263109   3.277   4.931  15.154 -0.7413 -0.0892 -0.3696
13873TIP3    H163110   3.298   4.955  15.244 -1.4467  1.5158 -0.6053
13873TIP3    H263111   3.355   4.885  15.123 -0.0786  0.2559  0.7290
13874TIP3   OH263112   3.858   4.427   3.431  0.0268  0.0961 -0.1940
13874TIP3    H163113   3.944   4.392   3.452  0.5934  1.9142  0.7763
13874TIP3    H263114   3.873   4.483   3.354 -0.1926  0.6920  0.1874
13875TIP3   OH263115   6.445   6.791  14.256 -0.4286 -0.6740  0.4730
13875TIP3    H163116   6.379   6.732  14.292 -0.2244 -0.4084  1.2971
13875TIP3    H263117   6.484   6.833  14.332  1.4853 -1.6502  0.1033
13876TIP3   OH263118   6.248   6.401   0.264  0.0772  0.2518 -0.4003
13876TIP3    H163119   6.218   6.310   0.255  1.7758 -0.4052  0.0927
13876TIP3    H263120   6.175   6.446   0.305  0.3372 -1.6931  2.5417
13877TIP3   OH263121   4.385   3.249   5.899 -0.1454 -0.1175 -0.6940
13877TIP3    H163122   4.315   3.298   5.941 -0.2098  0.5926 -1.5889
13877TIP3    H263123   4.341   3.174   5.859  0.0354 -1.2955  1.1793
13878TIP3   OH263124   4.384   2.120  16.709  0.0305 -0.3288  0.3545
13878TIP3    H163125   4.359   2.173  16.785 -0.1469  0.1534 -0.0342
13878TIP3    H263126   4.436   2.178  16.655  2.5662 -1.4799  1.4069
13879TIP3   OH263127   2.959   6.496   4.714 -0.4165 -0.5298  0.5988
13879TIP3    H163128   2.924   6.520   4.628  1.6482 -0.1379 -0.1830
13879TIP3    H263129   2.924   6.409   4.730 -1.6960 -0.1812 -0.1325
13880TIP3   OH263130   1.343   4.832   4.142 -0.0516 -0.0805 -0.3789
13880TIP3    H163131   1.421   4.778   4.124 -0.2030 -1.9604  3.4985
13880TIP3    H263132   1.296   4.784   4.210 -0.4204  4.6968  3.2863
13881TIP3   OH263133   3.502   5.628  14.627 -0.9607  0.0753 -0.1469
13881TIP3    H163134   3.572   5.588  14.677 -0.5363  0.1996 -0.6334
13881TIP3    H263135   3.546   5.667  14.551 -1.5169  0.3938 -0.3112
13882TIP3   OH263136   0.946   6.761  15.651  0.2939  0.0302  0.3807
13882TIP3    H163137   0.938   6.837  15.594  1.0614  1.0018  1.5343
13882TIP3    H263138   0.856   6.736  15.671  0.0142 -0.2300 -1.0995
13883TIP3   OH263139   2.141   5.466   5.632  0.1143 -0.0469  0.0978
13883TIP3    H163140   2.218   5.413   5.610  0.0580 -0.8676  1.7264
13883TIP3    H263141   2.178   5.547   5.669  0.1802  0.1097 -0.2978
13884TIP3   OH263142   3.035   5.773   1.371 -0.1388  0.0016 -0.2080
13884TIP3    H163143   3.057   5.866   1.360 -0.3737  0.1581  0.5563
13884TIP3    H263144   3.008   5.744   1.284 -0.6231  0.7995 -0.3307
13885TIP3   OH263145   3.741   6.640   1.684  0.0942 -0.0569 -0.0252
13885TIP3    H163146   3.714   6.716   1.735 -0.5003 -1.2685  1.5787
13885TIP3    H263147   3.789   6.585   1.747 -1.8174 -2.2370 -0.3144
13886TIP3   OH263148   1.839   6.069   6.151  0.4770 -0.0672 -0.2421
13886TIP3    H163149   1.831   6.017   6.231  0.4242  0.3968  0.0606
13886TIP3    H263150   1.877   6.152   6.181  1.1182 -0.1534 -0.8078
13887TIP3   OH263151   2.002   0.433  11.564 -0.0933 -0.5321  0.2417
13887TIP3    H163152   1.983   0.374  11.492 -1.3073 -1.1282  1.0055
13887TIP3    H263153   2.087   0.471  11.543 -0.8598  0.1031 -2.0022
13888TIP3   OH263154   4.918   0.210  14.943 -0.2957 -0.0603  0.3706
13888TIP3    H163155   4.916   0.163  15.027  1.0148  0.2462  0.5971
13888TIP3    H263156   4.865   0.156  14.884  0.5002 -1.4048  0.8407
13889TIP3   OH263157   1.966   1.544   0.126 -0.4003 -0.3168  0.4827
13889TIP3    H163158   2.001   1.463   0.163 -0.0527 -0.9395 -1.1125
13889TIP3    H263159   1.872   1.531   0.123 -0.4151 -0.3201  1.0132
13890TIP3   OH263160   1.543   5.821  15.443 -0.0288  0.4637 -0.0037
13890TIP3    H163161   1.463   5.787  15.402 -0.9244 -1.6383  3.1457
13890TIP3    H263162   1.614   5.771  15.403 -0.4665  0.7366 -1.1911
13891TIP3   OH263163   0.824   0.898  13.798  0.0437 -0.2899  0.0152
13891TIP3    H163164   0.737   0.914  13.762  1.4769  2.4567 -2.6797
13891TIP3    H263165   0.866   0.984  13.799  2.2885 -1.2418  2.7099
13892TIP3   OH263166   6.782   4.183  14.474 -0.0015  0.2363  0.0297
13892TIP3    H163167   6.831   4.226  14.544 -0.8986 -0.9209  1.4117
13892TIP3    H263168   6.690   4.192  14.500 -0.2305 -4.2063  1.5294
13893TIP3   OH263169   4.428   5.826  16.696 -0.1716 -0.3476 -0.1683
13893TIP3    H163170   4.347   5.856  16.656 -0.4518 -1.2081 -0.2790
13893TIP3    H263171   4.465   5.904  16.737 -1.4986 -0.0972  0.6408
13894TIP3   OH263172   2.919   0.985  15.808 -0.0934 -0.4769  0.0440
13894TIP3    H163173   2.874   1.068  15.826  0.3902 -0.1717 -0.1286
13894TIP3    H263174   2.878   0.922  15.867 -1.0567 -0.3103 -0.4202
13895TIP3   OH263175   5.272   4.371  14.006  0.5568  0.2058  0.8979
13895TIP3    H163176   5.296   4.458  13.974 -3.8443  1.7204  1.0616
13895TIP3    H263177   5.255   4.383  14.099 -0.3247 -0.7519  0.8766
13896TIP3   OH263178   3.992   2.427  14.884  0.6516  0.0970 -0.1485
13896TIP3    H163179   4.006   2.481  14.962  2.7773  0.2143 -0.5544
13896TIP3    H263180   3.905   2.453  14.852  0.7366  1.7372  0.8474
13897TIP3   OH263181   5.348   2.315   6.324  0.1812 -0.5052  0.5830
13897TIP3    H163182   5.389   2.295   6.240 -1.6295 -0.1562 -0.4522
13897TIP3    H263183   5.332   2.410   6.320 -1.2372 -0.7233  0.6671
13898TIP3   OH263184   2.253   4.087  15.757 -0.1124 -0.1743 -0.3410
13898TIP3    H163185   2.208   4.160  15.716  0.9571  0.6030 -0.1661
13898TIP3    H263186   2.267   4.024  15.687  0.6552  0.6298 -0.9323
13899TIP3   OH263187   1.349   0.580   5.920  0.5896 -0.1462 -0.5936
13899TIP3    H163188   1.274   0.603   5.975 -0.3311 -0.5244 -1.6525
13899TIP3    H263189   1.340   0.486   5.906  0.1825  0.1143 -2.2614
13900TIP3   OH263190   2.117   4.664   3.465 -0.0568 -0.5564  0.5620
13900TIP3    H163191   2.101   4.741   3.519 -1.2293 -0.2241 -0.2288
13900TIP3    H263192   2.067   4.594   3.508  1.0720 -0.9286  1.3260
13901TIP3   OH263193   2.013   6.641  12.956 -0.2150  0.1593 -0.1283
13901TIP3    H163194   2.099   6.681  12.965  0.5352 -0.9945 -1.7005
13901TIP3    H263195   1.957   6.691  13.016  1.1671  1.9795 -0.2666
13902TIP3   OH263196   3.639   3.890   1.728  0.4161 -0.2318 -0.0994
13902TIP3    H163197   3.553   3.897   1.685 -0.1130  0.7080  1.0375
13902TIP3    H263198   3.692   3.956   1.685  0.1473  0.1185  0.0968
13903TIP3   OH263199   2.743   4.179  10.638 -0.1908 -0.4974  0.4408
13903TIP3    H163200   2.801   4.189  10.562 -0.9084  0.0919 -0.0379
13903TIP3    H263201   2.725   4.085  10.642 -0.8025 -0.4486 -0.6311
13904TIP3   OH263202   3.507   5.589   4.561  1.0317  0.8717 -0.2683
13904TIP3    H163203   3.508   5.537   4.481  2.0567 -1.0004  0.8952
13904TIP3    H263204   3.484   5.677   4.532 -0.0924 -0.0536 -2.4121
13905TIP3   OH263205   4.208   4.783  15.266  0.3486 -0.0368  0.4280
13905TIP3    H163206   4.214   4.815  15.176  1.2836 -1.3449 -0.0156
13905TIP3    H263207   4.215   4.862  15.320  0.1722  0.7283 -0.6322
13906TIP3   OH263208   2.144   5.968   2.766 -0.2929 -0.2405  0.1077
13906TIP3    H163209   2.079   5.927   2.823 -0.8570 -0.3674 -0.6093
13906TIP3    H263210   2.220   5.980   2.822 -1.2513  0.8171  1.2442
13907TIP3   OH263211   1.363   3.055  14.679 -0.0196  0.1077  0.6059
13907TIP3    H163212   1.449   3.090  14.654  0.8115 -2.2429 -0.1116
13907TIP3    H263213   1.383   2.979  14.733 -1.5391 -1.5323 -0.9942
13908TIP3   OH263214   1.822   0.598  16.250  0.0674  0.7214 -0.0358
13908TIP3    H163215   1.850   0.688  16.267  0.9537  0.4365  0.0968
13908TIP3    H263216   1.823   0.556  16.337 -3.5708  1.4008  0.4780
13909TIP3   OH263217   6.265   5.062   1.132 -0.0335 -0.0446 -0.7664
13909TIP3    H163218   6.329   5.089   1.067  0.0199  1.2585 -0.2165
13909TIP3    H263219   6.208   5.138   1.142 -0.6857 -0.6076 -0.0830
13910TIP3   OH263220   1.315   4.635  13.753 -0.5136  0.2708  0.3157
13910TIP3    H163221   1.301   4.558  13.807  1.7893  0.1934  0.9297
13910TIP3    H263222   1.379   4.606  13.687  0.3850  1.6325  0.5593
13911TIP3   OH263223   1.612   3.347   2.698  0.5367  0.6894 -0.4907
13911TIP3    H163224   1.619   3.356   2.604  0.4913  0.9342 -0.4723
13911TIP3    H263225   1.525   3.382   2.719  0.5449  0.6348 -0.3606
13912TIP3   OH263226   3.710   0.378   0.251 -0.2889 -0.0970  0.0436
13912TIP3    H163227   3.627   0.411   0.216  0.7256  2.1971 -0.3527
13912TIP3    H263228   3.760   0.456   0.274  1.6683 -1.4097  0.5321
13913TIP3   OH263229   2.843   1.659   0.882 -0.3526  0.0153  0.5323
13913TIP3    H163230   2.778   1.719   0.845 -0.3603  0.3433  1.0542
13913TIP3    H263231   2.804   1.572   0.873  0.0773 -0.0294 -1.1081
13914TIP3   OH263232   4.875   2.225   4.850  0.4568 -0.4083  0.0911
13914TIP3    H163233   4.871   2.161   4.921  1.3917 -2.4188 -1.5504
13914TIP3    H263234   4.809   2.194   4.787  0.7452  0.4104 -0.6313
13915TIP3   OH263235   4.508   2.461  14.577  0.3304  0.1597 -0.2136
13915TIP3    H163236   4.464   2.447  14.661  0.9708  1.1804  0.3114
13915TIP3    H263237   4.538   2.552  14.581  3.3599 -0.7476 -0.1235
13916TIP3   OH263238   5.152   6.358   5.376 -0.5933  0.1245  0.4934
13916TIP3    H163239   5.114   6.406   5.302  1.2098  1.2130  0.2121
13916TIP3    H263240   5.133   6.413   5.452  0.2464  0.5895  0.3748
13917TIP3   OH263241   4.855   6.714  13.229 -0.0494 -0.0226  0.1953
13917TIP3    H163242   4.887   6.636  13.184  1.0774  0.8006 -0.4816
13917TIP3    H263243   4.840   6.777  13.159  1.9724  1.3704  0.9254
13918TIP3   OH263244   1.882   5.517   3.773  0.3100  0.3161 -0.1779
13918TIP3    H163245   1.803   5.477   3.736  1.0983 -1.9289  0.3957
13918TIP3    H263246   1.852   5.601   3.807 -1.0642  1.1422 -3.0869
13919TIP3   OH263247   5.563   1.880  16.408  0.2270 -0.4352  0.2737
13919TIP3    H163248   5.651   1.850  16.432  0.2319 -0.6336  0.0056
13919TIP3    H263249   5.573   1.974  16.389  0.1327 -0.1499  1.5357
13920TIP3   OH263250   4.511   3.197  16.594 -0.4446  0.5285 -0.0626
13920TIP3    H163251   4.550   3.162  16.515  0.3606  1.3925 -0.0701
13920TIP3    H263252   4.422   3.220  16.569  0.3070  2.4022 -1.2439
13921TIP3   OH263253   5.183   0.498  12.444  0.2447  0.5185  0.5907
13921TIP3    H163254   5.256   0.442  12.416 -0.8976 -0.5497 -0.3672
13921TIP3    H263255   5.193   0.578  12.393 -1.7831 -1.3577 -3.1945
13922TIP3   OH263256   0.357   3.654   2.234 -0.6227  0.4110  0.0867
13922TIP3    H163257   0.346   3.712   2.310  1.3542 -2.0718  2.4630
13922TIP3    H263258   0.285   3.591   2.242 -0.2127 -0.0576  0.1103
13923TIP3   OH263259   5.219   1.519   0.420 -0.3655  0.2172 -0.0362
13923TIP3    H163260   5.167   1.513   0.340 -0.1195  0.9717 -0.2597
13923TIP3    H263261   5.163   1.481   0.488 -1.7029  1.9910 -0.0602
13924TIP3   OH263262   2.558   5.147   4.747 -0.0129 -0.4552  0.2988
13924TIP3    H163263   2.626   5.099   4.795 -0.0590  0.1256  0.9598
13924TIP3    H263264   2.586   5.143   4.656 -0.4861 -2.5037  0.2152
13925TIP3   OH263265   3.624   6.189   0.573  0.5640  0.1461  0.3753
13925TIP3    H163266   3.558   6.251   0.603 -0.1636  0.1154 -1.0916
13925TIP3    H263267   3.693   6.194   0.639  0.6397  2.6850  0.2218
13926TIP3   OH263268   2.607   4.413   5.888  0.0381 -0.2843 -0.2443
13926TIP3    H163269   2.657   4.349   5.939  0.1144 -0.0371 -0.0099
13926TIP3    H263270   2.521   4.373   5.877  0.0219 -0.3367  0.0757
13927TIP3   OH263271   0.596   3.389  12.157  0.6139  0.4813 -0.0545
13927TIP3    H163272   0.610   3.444  12.234  2.3343  0.1023 -0.0635
13927TIP3    H263273   0.602   3.450  12.083  0.8990  0.5499  0.0217
13928TIP3   OH263274   6.627   5.843   3.291 -0.3567 -0.3845  0.0754
13928TIP3    H163275   6.640   5.796   3.373  1.5327 -1.3626 -0.7335
13928TIP3    H263276   6.590   5.927   3.318  0.3266 -0.6281  1.9381
13929TIP3   OH263277   6.023   3.184   0.294 -0.0380  0.4817 -0.1041
13929TIP3    H163278   5.996   3.093   0.299  1.3200  0.1068  1.1173
13929TIP3    H263279   6.021   3.216   0.384  0.9178  1.1971 -0.3079
13930TIP3   OH263280   5.904   5.595  11.612  0.2877 -0.0154  0.1972
13930TIP3    H163281   5.868   5.530  11.671  1.0299 -0.0608  0.6141
13930TIP3    H263282   5.958   5.544  11.550 -1.8463 -0.1828 -1.6418
13931TIP3   OH263283   3.077   6.246  14.089 -0.1266 -0.6726  0.0885
13931TIP3    H163284   3.053   6.271  14.178 -1.1077 -0.7708 -0.1381
13931TIP3    H263285   3.024   6.169  14.071 -0.8224  0.0307 -0.9917
13932TIP3   OH263286   3.333   0.968   0.121  0.0048  0.0889  0.6651
13932TIP3    H163287   3.253   1.019   0.107  0.3694  0.8797  1.3466
13932TIP3    H263288   3.393   1.029   0.164  1.1370 -0.3531 -0.2207
13933TIP3   OH263289   0.688   5.646  13.975 -0.6012 -0.3308 -0.0640
13933TIP3    H163290   0.783   5.639  13.989 -0.6376  0.5920  0.7103
13933TIP3    H263291   0.679   5.710  13.905 -0.6153 -1.5959 -1.2791
13934TIP3   OH263292   3.258   0.680   0.530  0.2805  0.0112 -0.0099
13934TIP3    H163293   3.251   0.588   0.556  2.4986 -0.3268 -0.4549
13934TIP3    H263294   3.224   0.682   0.441  0.2204 -0.3849 -0.0003
13935TIP3   OH263295   5.131   1.483  14.679  0.2678 -0.7928 -0.5460
13935TIP3    H163296   5.202   1.423  14.656 -0.2649 -2.2550  1.3122
13935TIP3    H263297   5.089   1.504  14.596  2.5741 -0.2176 -1.6441
13936TIP3   OH263298   4.431   1.382  12.233  0.2625  0.4561  0.1134
13936TIP3    H163299   4.495   1.324  12.192  1.2388  1.6538 -0.1066
13936TIP3    H263300   4.484   1.447  12.279 -0.7289  2.3657 -1.3133
13937TIP3   OH263301   4.564   0.133  16.070  0.7647  0.4335 -0.7691
13937TIP3    H163302   4.597   0.105  15.985  0.5427  1.2972 -1.1535
13937TIP3    H263303   4.469   0.142  16.057  0.6289 -0.1602 -0.2194
13938TIP3   OH263304   3.572   5.787  10.869 -0.5518 -0.3065  0.4532
13938TIP3    H163305   3.482   5.814  10.852 -0.1761  0.6752 -0.0563
13938TIP3    H263306   3.616   5.794  10.784  0.3768  0.7155  0.9855
13939TIP3   OH263307   2.072   5.136   1.334  0.1412  0.1858  0.0551
13939TIP3    H163308   2.037   5.209   1.385 -1.0407  0.1548 -0.6657
13939TIP3    H263309   2.066   5.061   1.393  0.3310  0.4573  0.4228
13940TIP3   OH263310   4.342   3.853  12.610  0.4020  0.4346  0.3942
13940TIP3    H163311   4.344   3.949  12.614  0.9413  0.3934  1.3348
13940TIP3    H263312   4.298   3.826  12.690  1.1496 -0.1262  0.6268
13941TIP3   OH263313   5.277   1.441   2.140 -0.2464 -0.2200 -0.0278
13941TIP3    H163314   5.290   1.536   2.145 -1.0756 -0.0862 -0.2248
13941TIP3    H263315   5.362   1.406   2.115  0.0121  0.4906 -0.1600
13942TIP3   OH263316   5.057   5.690   2.849  0.3521  0.2542 -0.0855
13942TIP3    H163317   4.977   5.638   2.846  1.7769 -2.1112  0.6983
13942TIP3    H263318   5.124   5.633   2.811  2.1524  1.2075  1.5150
13943TIP3   OH263319   2.840   6.048   2.212  0.2778 -0.1492  0.4583
13943TIP3    H163320   2.850   6.021   2.303 -0.1615  0.2904  0.6441
13943TIP3    H263321   2.757   6.008   2.185  0.2725 -0.0586  0.3413
13944TIP3   OH263322   4.210   0.326  14.100 -0.0593 -0.2485 -0.0549
13944TIP3    H163323   4.126   0.371  14.088  0.1687  0.8954  2.1262
13944TIP3    H263324   4.276   0.395  14.091  0.4385 -0.5345  1.1922
13945TIP3   OH263325   3.009   1.333  11.595 -0.0972 -0.3767 -0.5953
13945TIP3    H163326   3.040   1.282  11.520  0.4681 -0.7045 -0.1427
13945TIP3    H263327   2.918   1.355  11.572  0.5447  0.9057 -2.0952
13946TIP3   OH263328   5.365   5.079   6.322 -0.5824  0.4719  0.3348
13946TIP3    H163329   5.384   5.071   6.228 -0.8916  0.4549  0.2723
13946TIP3    H263330   5.280   5.123   6.325 -0.0860  1.4633  0.6219
13947TIP3   OH263331   4.024   0.830  17.101 -0.3319 -0.2260  0.4429
13947TIP3    H163332   4.010   0.908  17.047  0.6754 -0.6795 -0.5304
13947TIP3    H263333   4.111   0.844  17.140  0.0462 -1.0399 -0.0874
13948TIP3   OH263334   0.292   6.046  13.663  0.4600 -0.2082 -0.6214
13948TIP3    H163335   0.359   6.070  13.727  1.7359 -0.3252 -1.8445
13948TIP3    H263336   0.211   6.086  13.696  1.8160  3.0417 -0.8387
13949TIP3   OH263337   3.749   3.053  10.883  0.2779 -0.1318 -0.1715
13949TIP3    H163338   3.797   2.988  10.934  0.2325 -0.3887 -0.4552
13949TIP3    H263339   3.815   3.118  10.859  0.6147 -0.7802 -1.0484
13950TIP3   OH263340   2.831   1.962   0.092 -0.2371 -0.0682  0.3671
13950TIP3    H163341   2.779   1.977   0.013 -1.7964 -0.3791  1.2886
13950TIP3    H263342   2.921   1.954   0.060 -1.0108 -2.0963 -1.6271
13951TIP3   OH263343   0.838   0.468   5.106  0.2018 -0.0757 -0.0610
13951TIP3    H163344   0.913   0.499   5.055 -0.4139  0.1739 -0.8378
13951TIP3    H263345   0.780   0.429   5.041 -1.3142  1.6377  0.1880
13952TIP3   OH263346   4.606   6.316   1.666  0.2574 -0.5262  0.4637
13952TIP3    H163347   4.702   6.319   1.668  0.2267  1.2726  0.3933
13952TIP3    H263348   4.578   6.384   1.727 -0.9377  0.5016 -1.1414
13953TIP3   OH263349   0.926   0.247  14.089 -0.3035 -0.3430 -0.3833
13953TIP3    H163350   0.994   0.184  14.111 -0.3821 -0.8824 -1.5583
13953TIP3    H263351   0.921   0.305  14.164  0.8045 -0.8534  0.1096
13954TIP3   OH263352   6.400   5.773   1.816  0.7730  0.3528  0.4385
13954TIP3    H163353   6.325   5.831   1.829  2.1011  2.3462 -0.2850
13954TIP3    H263354   6.430   5.752   1.904 -0.0717  0.3222  0.7203
13955TIP3   OH263355   3.234   0.107   1.272  0.0162  0.8631  0.3145
13955TIP3    H163356   3.246   0.172   1.341  0.1137  1.8753 -0.6391
13955TIP3    H263357   3.304   0.043   1.288  0.5591  1.5256  0.6558
13956TIP3   OH263358   1.153   6.307  15.147  0.2622  0.4976  0.1860
13956TIP3    H163359   1.188   6.247  15.213 -0.1393 -0.8068 -0.7525
13956TIP3    H263360   1.231   6.344  15.105  0.5361 -0.5406 -0.2500
13957TIP3   OH263361   5.648   0.740  17.098  0.0146 -0.0464  0.1108
13957TIP3    H163362   5.699   0.723  17.178  0.9430 -0.0260 -0.4530
13957TIP3    H263363   5.563   0.699  17.114  0.3889 -0.5513  0.8819
13958TIP3   OH263364   4.757   2.442  13.973 -0.4297 -1.0464 -0.1946
13958TIP3    H163365   4.683   2.483  13.928  0.0296 -1.1055 -1.0285
13958TIP3    H263366   4.830   2.503  13.958 -0.6269 -0.1839  1.9413
13959TIP3   OH263367   5.325   6.151  15.839  0.8512  0.3318  0.0927
13959TIP3    H163368   5.265   6.092  15.794  0.5738  0.6832  0.0031
13959TIP3    H263369   5.407   6.143  15.791  0.7978  0.0684  0.0431
13960TIP3   OH263370   2.266   0.233  14.501  0.2838 -0.6025 -0.1087
13960TIP3    H163371   2.262   0.144  14.535  1.1214 -1.8028 -2.8709
13960TIP3    H263372   2.317   0.226  14.421  0.2370  2.3670 -0.5152
13961TIP3   OH263373   2.265   6.080   1.524  0.0456  0.4255  0.3426
13961TIP3    H163374   2.354   6.101   1.497  0.0114 -0.0241 -0.1337
13961TIP3    H263375   2.275   6.006   1.584  0.0685  1.0236  1.0970
13962TIP3   OH263376   0.710   1.439  11.180  0.3031  0.1219  0.1125
13962TIP3    H163377   0.804   1.446  11.198  0.1201  0.1935  1.0483
13962TIP3    H263378   0.667   1.480  11.255 -0.5102 -0.9475  0.2568
13963TIP3   OH263379   0.755   6.203   3.756 -0.2892  0.0929 -0.7749
13963TIP3    H163380   0.831   6.236   3.804 -1.3994  2.3997 -0.4296
13963TIP3    H263381   0.754   6.109   3.773  2.2407  0.0510 -0.4946
13964TIP3   OH263382   6.093   5.797  16.327 -0.4184 -0.3717  0.0869
13964TIP3    H163383   6.073   5.710  16.361 -3.3898  0.0567 -0.2720
13964TIP3    H263384   6.072   5.791  16.233 -0.6469  0.7056  0.0572
13965TIP3   OH263385   4.411   4.845   0.522  0.0509 -0.5179  0.2533
13965TIP3    H163386   4.333   4.862   0.469  0.7000  1.3936 -0.1563
13965TIP3    H263387   4.482   4.891   0.477  1.1325 -0.9970  1.4054
13966TIP3   OH263388   6.112   6.532   4.562  0.2620 -0.0844  0.0567
13966TIP3    H163389   6.077   6.608   4.609  0.2862 -1.0506  1.7175
13966TIP3    H263390   6.043   6.509   4.499 -1.4229 -0.8989  2.0860
13967TIP3   OH263391   6.743   1.550   2.120  0.0233  0.8129  0.1140
13967TIP3    H163392   6.800   1.584   2.051 -2.1745  1.3972 -1.5551
13967TIP3    H263393   6.667   1.515   2.073 -0.0216 -2.0042  2.0858
13968TIP3   OH263394   4.496   4.447  17.206 -0.8214 -0.6618  0.2337
13968TIP3    H163395   4.536   4.367  17.238 -0.3828  0.7622  3.6536
13968TIP3    H263396   4.569   4.504  17.183 -1.0044 -0.1283  0.9213
13969TIP3   OH263397   3.862   4.697  11.063  0.7517 -0.0618 -0.1356
13969TIP3    H163398   3.904   4.613  11.083  1.3915 -0.1793 -1.8365
13969TIP3    H263399   3.933   4.750  11.026 -0.1061  0.5267 -0.9514
13970TIP3   OH263400   4.430   5.727  16.270  0.5310  0.3687  0.3343
13970TIP3    H163401   4.414   5.800  16.329  0.3372  3.2501 -2.9759
13970TIP3    H263402   4.513   5.747  16.228  0.9417 -1.8444 -0.0445
13971TIP3   OH263403   1.488   2.959   4.357  0.2456 -0.3776 -0.5616
13971TIP3    H163404   1.513   2.895   4.291 -0.1525 -1.0732 -0.0534
13971TIP3    H263405   1.392   2.953   4.361  0.1858  0.3877 -0.6420
13972TIP3   OH263406   0.853   6.404  11.464  0.3974 -0.1018 -0.0280
13972TIP3    H163407   0.839   6.309  11.460 -1.3733  0.0678  1.2683
13972TIP3    H263408   0.875   6.421  11.555  0.3892  0.7804 -0.1851
13973TIP3   OH263409   2.107   4.018   1.287  0.2817 -0.1510  0.3625
13973TIP3    H163410   2.030   4.069   1.314 -0.0786 -0.6176  0.2399
13973TIP3    H263411   2.075   3.928   1.283  0.4618 -0.1605 -1.1222
13974TIP3   OH263412   2.727   5.866   0.338 -0.4293  0.2357 -0.2342
13974TIP3    H163413   2.718   5.861   0.433 -0.5388  0.0291 -0.2539
13974TIP3    H263414   2.814   5.904   0.324  0.3019 -1.2821 -0.0563
13975TIP3   OH263415   1.204   2.792  14.057 -0.2161  0.1383  0.0156
13975TIP3    H163416   1.121   2.746  14.047 -0.7034  1.2965 -2.1702
13975TIP3    H263417   1.181   2.875  14.098  0.2303 -0.3731  1.3617
13976TIP3   OH263418   3.357   0.287   2.862  0.1284 -0.2568 -0.7210
13976TIP3    H163419   3.435   0.251   2.904 -0.4081  0.1771  0.6861
13976TIP3    H263420   3.285   0.265   2.920 -0.5319  1.0373 -1.0048
13977TIP3   OH263421   2.308   5.974  13.581  0.4810 -0.3174 -0.0775
13977TIP3    H163422   2.342   5.914  13.649 -1.4079  0.3979  1.6017
13977TIP3    H263423   2.355   6.056  13.596 -0.1555 -0.0685  0.5882
13978TIP3   OH263424   0.291   5.423  16.697 -0.0783 -0.5893 -0.1421
13978TIP3    H163425   0.284   5.509  16.739  1.0984 -0.0981 -0.9007
13978TIP3    H263426   0.205   5.408  16.658 -0.9657 -0.7230  1.7447
13979TIP3   OH263427   4.512   2.820   2.897 -0.6476 -0.1904  0.1858
13979TIP3    H163428   4.541   2.800   2.809  0.9927  2.0785  0.1315
13979TIP3    H263429   4.539   2.910   2.912 -2.9710  0.3004  2.1729
13980TIP3   OH263430   6.566   5.843  17.023  0.3070  0.1816  0.0586
13980TIP3    H163431   6.497   5.910  17.023 -0.3250 -0.4621  0.7942
13980TIP3    H263432   6.629   5.875  16.958 -1.0236  0.4195 -1.1671
13981TIP3   OH263433   5.094   1.181  14.099  0.1733  1.1190 -0.4172
13981TIP3    H163434   5.161   1.241  14.068  1.4444  0.7063  1.3765
13981TIP3    H263435   5.065   1.218  14.182  2.3611 -1.5833  1.7311
13982TIP3   OH263436   0.381   4.369   0.384 -0.4099  0.3646  0.5804
13982TIP3    H163437   0.409   4.280   0.406  0.1518  0.6387  0.9908
13982TIP3    H263438   0.287   4.370   0.402 -0.6601 -0.4845 -0.5301
13983TIP3   OH263439   2.118   3.667  14.537  0.4487  0.2903 -0.2583
13983TIP3    H163440   2.152   3.753  14.561  0.8781  0.4813 -1.4920
13983TIP3    H263441   2.159   3.648  14.453  1.8610 -1.9815  0.8680
13984TIP3   OH263442   4.421   1.827  16.673  0.1097 -0.3651  0.0587
13984TIP3    H163443   4.361   1.894  16.639  0.7625  0.3313  0.2422
13984TIP3    H263444   4.439   1.855  16.763  0.5694 -0.6656  0.0603
13985TIP3   OH263445   4.332   2.811  13.412 -0.6296  0.0589 -0.0945
13985TIP3    H163446   4.262   2.871  13.438 -0.0623  0.7702 -0.1609
13985TIP3    H263447   4.413   2.861  13.427 -0.1429 -0.7245 -0.0765
13986TIP3   OH263448   4.109   1.486   3.377 -0.3556 -0.3129  0.3491
13986TIP3    H163449   4.144   1.534   3.452  0.9358 -0.7246  0.0387
13986TIP3    H263450   4.020   1.520   3.366 -1.2633 -1.5510  3.1843
13987TIP3   OH263451   6.699   3.945   5.164 -0.1293  0.1676  0.5011
13987TIP3    H163452   6.659   3.910   5.244  0.5036 -1.5862  0.1011
13987TIP3    H263453   6.776   3.993   5.194 -1.7207  2.4912  1.1692
13988TIP3   OH263454   0.521   6.719   3.075 -0.2607  0.0063  0.3578
13988TIP3    H163455   0.433   6.754   3.064  0.0840  0.7043 -0.3416
13988TIP3    H263456   0.509   6.626   3.092 -1.0645 -0.4497 -2.3163
13989TIP3   OH263457   0.371   1.739  14.652  0.4230 -0.2632 -0.0426
13989TIP3    H163458   0.421   1.670  14.697  0.6706  0.4062  0.7313
13989TIP3    H263459   0.281   1.707  14.653  0.4158 -0.2572  0.9807
13990TIP3   OH263460   2.555   5.022  12.813 -0.1643  0.3688 -0.2627
13990TIP3    H163461   2.555   5.043  12.719 -2.5664 -0.2819 -0.4722
13990TIP3    H263462   2.487   4.955  12.822 -0.0158  0.4611  1.9626
13991TIP3   OH263463   6.707   1.659  13.885 -0.8830  0.3621  0.2534
13991TIP3    H163464   6.728   1.631  13.796 -1.8959  1.0417 -0.2217
13991TIP3    H263465   6.716   1.580  13.938 -0.2946 -0.0568 -0.4467
13992TIP3   OH263466   4.360   4.656  13.577 -0.2438  0.3767 -0.4536
13992TIP3    H163467   4.401   4.706  13.507  2.4497  0.9281  1.3585
13992TIP3    H263468   4.429   4.646  13.643 -3.0876  1.6034  3.0371
13993TIP3   OH263469   5.044   2.286   5.532  0.0778 -0.0487 -0.2269
13993TIP3    H163470   5.047   2.190   5.541 -1.1519 -0.2826 -1.8490
13993TIP3    H263471   5.114   2.306   5.471 -0.8563 -0.1499 -1.3558
13994TIP3   OH263472   1.581   1.589  13.959 -0.3631 -0.4216  0.7339
13994TIP3    H163473   1.639   1.611  14.032  1.7880 -1.7910 -0.4639
13994TIP3    H263474   1.607   1.649  13.889 -0.4037 -1.0386  0.1852
13995TIP3   OH263475   2.616   3.389  16.035 -0.1476 -0.3584  0.2366
13995TIP3    H163476   2.608   3.392  16.130 -1.8574  1.4349  0.1016
13995TIP3    H263477   2.699   3.433  16.016 -2.1835  4.3297  0.8023
13996TIP3   OH263478   0.513   1.013  10.456  0.1066  0.2315 -0.3141
13996TIP3    H163479   0.477   1.101  10.454  0.4861  0.4967  1.8978
13996TIP3    H263480   0.480   0.975  10.537  1.9070 -0.7842  0.0092
13997TIP3   OH263481   0.245   2.371  11.639  0.1987  0.4524 -0.3776
13997TIP3    H163482   0.319   2.377  11.698 -0.0035  0.9063 -0.1658
13997TIP3    H263483   0.246   2.454  11.591  1.9986 -0.9235 -2.9994
13998TIP3   OH263484   1.531   4.125   2.236 -0.1060  0.5193 -0.2937
13998TIP3    H163485   1.480   4.171   2.170 -0.7324 -1.8823 -1.5911
13998TIP3    H263486   1.468   4.070   2.281  0.7118  0.4264  0.7903
13999TIP3   OH263487   0.238   2.199   1.301 -0.4180  0.6632 -0.1499
13999TIP3    H163488   0.154   2.226   1.338  0.1317  0.6772  1.1559
13999TIP3    H263489   0.302   2.258   1.341  0.8244 -2.2405  2.6921
14000TIP3   OH263490   4.412   5.611  15.828 -0.2022 -0.2479  0.1015
14000TIP3    H163491   4.406   5.570  15.742  1.5233  0.7850 -0.5567
14000TIP3    H263492   4.349   5.683  15.825 -1.5269 -1.3494  0.4256
14001TIP3   OH263493   1.805   2.311   5.191  0.4650 -0.4722  0.4713
14001TIP3    H163494   1.856   2.369   5.248  1.3786 -1.3114  0.5255
14001TIP3    H263495   1.848   2.318   5.106  1.6285 -2.3249  0.8660
14002TIP3   OH263496   5.027   4.156  12.442  0.0104  0.2236  0.3213
14002TIP3    H163497   5.070   4.242  12.442 -1.0857  0.8056 -0.9025
14002TIP3    H263498   5.056   4.116  12.360 -1.0229  0.2342 -0.0552
14003TIP3   OH263499   1.411   2.348  13.578  0.5672 -0.0466 -0.2716
14003TIP3    H163500   1.420   2.419  13.514  0.4456 -0.7116 -1.0481
14003TIP3    H263501   1.411   2.268  13.525  0.9688 -0.6482  0.6028
14004TIP3   OH263502   4.824   6.167   0.344  0.0875 -0.1535 -0.5240
14004TIP3    H163503   4.835   6.108   0.270 -3.1603 -0.4065 -0.9429
14004TIP3    H263504   4.827   6.255   0.306  0.2431 -0.2184 -0.6595
14005TIP3   OH263505   1.710   3.540  10.946  0.3126 -0.3153  0.5301
14005TIP3    H163506   1.676   3.624  10.976 -1.5179 -1.5363  2.1291
14005TIP3    H263507   1.641   3.505  10.890  1.7129 -0.1337 -1.3772
14006TIP3   OH263508   3.940   2.369   3.405 -0.5711  0.2262  0.1909
14006TIP3    H163509   3.939   2.316   3.485  0.9020 -0.5253 -0.2498
14006TIP3    H263510   3.872   2.435   3.419 -1.6284 -1.0337  1.2689
14007TIP3   OH263511   4.732   5.047   3.624  0.1414  0.9818  0.5901
14007TIP3    H163512   4.747   5.026   3.716  0.5740  1.0172  0.5307
14007TIP3    H263513   4.820   5.059   3.587  0.0539 -0.5302 -0.1844
14008TIP3   OH263514   3.075   2.587  15.076  0.3410 -0.1219  0.3910
14008TIP3    H163515   3.155   2.639  15.072  2.0320 -2.5903 -0.0093
14008TIP3    H263516   3.076   2.549  15.164  0.3754 -1.2797 -0.0958
14009TIP3   OH263517   1.229   4.289   3.178  0.5492  0.6289 -0.2156
14009TIP3    H163518   1.184   4.252   3.254 -0.1361 -1.8291 -1.6905
14009TIP3    H263519   1.165   4.346   3.137 -0.7260 -1.4378 -1.2865
14010TIP3   OH263520   5.707   5.847  13.253  0.5696 -0.1915 -0.3604
14010TIP3    H163521   5.795   5.857  13.289  1.0040 -1.2756 -1.1030
14010TIP3    H263522   5.657   5.805  13.323  1.3224 -1.9744 -0.8483
14011TIP3   OH263523   2.841   2.002   6.246  0.0333 -1.0730 -0.1920
14011TIP3    H163524   2.829   2.097   6.251 -1.1460 -1.2601  1.3215
14011TIP3    H263525   2.801   1.978   6.162 -0.2707 -0.3178 -0.2761
14012TIP3   OH263526   4.244   5.541  14.060 -0.2716  0.0594  0.3091
14012TIP3    H163527   4.319   5.548  14.001  0.4084 -0.1328  1.1233
14012TIP3    H263528   4.219   5.449  14.056  1.0849 -0.4203  1.8427
14013TIP3   OH263529   5.381   0.140   1.548 -0.0576  0.1794 -0.1636
14013TIP3    H163530   5.319   0.099   1.487 -1.8525  1.5504  0.6570
14013TIP3    H263531   5.410   0.219   1.503  1.1913 -0.4806 -0.5643
14014TIP3   OH263532   4.566   2.917  11.864 -0.3933  0.4808 -0.5293
14014TIP3    H163533   4.542   3.004  11.831  0.6174  1.0582  0.1927
14014TIP3    H263534   4.662   2.915  11.858 -0.3859 -0.4661 -0.2353
14015TIP3   OH263535   1.395   5.345   3.938  0.7296  0.1955  0.4052
14015TIP3    H163536   1.385   5.253   3.965 -2.5250  0.5890  0.9833
14015TIP3    H263537   1.311   5.367   3.898  0.9626  3.2526  1.3576
14016TIP3   OH263538   1.767   4.023   2.296  0.1849 -0.6556 -0.0636
14016TIP3    H163539   1.768   3.931   2.270 -1.5030 -0.6603 -0.2111
14016TIP3    H263540   1.685   4.058   2.260  0.9938  1.0303 -0.3945
14017TIP3   OH263541   3.810   1.032   5.643  0.3526  0.2975 -0.7839
14017TIP3    H163542   3.865   0.997   5.714  1.3876  0.4656 -1.4742
14017TIP3    H263543   3.804   0.959   5.581 -1.1658 -0.0992 -0.2050
14018TIP3   OH263544   1.153   1.498   4.708 -0.1101  0.2438  0.1399
14018TIP3    H163545   1.222   1.441   4.676  0.5394  0.0605  1.7811
14018TIP3    H263546   1.095   1.510   4.633 -0.5134 -2.9199 -0.1861
14019TIP3   OH263547   3.121   0.224   3.007  0.0956  0.2187  0.3994
14019TIP3    H163548   3.052   0.262   3.061 -0.5261  1.4551 -1.1523
14019TIP3    H263549   3.081   0.147   2.966  0.0807  0.1420  0.5592
14020TIP3   OH263550   5.993   4.333   5.575 -0.0565  0.3529 -0.0525
14020TIP3    H163551   5.957   4.249   5.605 -0.2515  1.1734  2.2019
14020TIP3    H263552   5.917   4.389   5.563 -0.0191 -0.0475 -2.6604
14021TIP3   OH263553   6.731   6.658  15.733 -0.0431  0.5514  0.1262
14021TIP3    H163554   6.739   6.748  15.703 -0.1175  0.7181  0.5934
14021TIP3    H263555   6.659   6.621  15.681  1.1185  0.2253 -1.3026
14022TIP3   OH263556   6.126   0.980  15.960  0.6872  0.2390  0.6565
14022TIP3    H163557   6.061   1.004  16.025  0.2062  0.5730  0.0683
14022TIP3    H263558   6.197   1.044  15.971 -1.0494  2.7918 -1.6083
14023TIP3   OH263559   1.889   5.028   1.151 -0.3277  0.5248 -0.4285
14023TIP3    H163560   1.938   5.081   1.213 -1.4186  0.3159  0.6693
14023TIP3    H263561   1.851   5.091   1.090 -0.3522  0.8664 -0.0644
14024TIP3   OH263562   1.470   4.128   0.631  0.2786 -0.1273 -0.2522
14024TIP3    H163563   1.499   4.041   0.658  2.5541  0.5801 -0.1780
14024TIP3    H263564   1.551   4.177   0.619 -0.9135  2.6042  1.7318
14025TIP3   OH263565   4.386   3.381   5.590 -0.4861  0.3180 -0.1887
14025TIP3    H163566   4.292   3.397   5.586 -0.3818  1.0236  0.1739
14025TIP3    H263567   4.421   3.452   5.643  0.3130  0.3120 -0.6918
14026TIP3   OH263568   5.339   2.329   1.057  0.5146  0.0097  0.0209
14026TIP3    H163569   5.309   2.257   1.112  0.2336 -0.6388 -0.9671
14026TIP3    H263570   5.270   2.395   1.065 -0.4039 -0.8048 -0.9349
14027TIP3   OH263571   5.986   5.977  15.355 -0.7588 -0.2133 -0.3644
14027TIP3    H163572   6.001   5.883  15.343 -1.7536 -0.4583  0.1648
14027TIP3    H263573   6.066   6.018  15.324 -0.4456 -1.2182 -0.9414
14028TIP3   OH263574   4.731   1.697  16.738 -0.1586  0.2550 -0.3480
14028TIP3    H163575   4.753   1.691  16.645  1.6342 -0.9309  0.1126
14028TIP3    H263576   4.753   1.611  16.773 -1.1390  0.5770  1.1261
14029TIP3   OH263577   0.736   4.084   1.426  0.2520 -1.1372  0.5602
14029TIP3    H163578   0.814   4.064   1.374  1.4373 -0.5078  2.0161
14029TIP3    H263579   0.686   4.147   1.373  2.3729  0.9862  0.9317
14030TIP3   OH263580   4.281   5.637   2.236  0.2851  0.2248 -0.2979
14030TIP3    H163581   4.250   5.566   2.292 -0.4057  0.2081 -0.6939
14030TIP3    H263582   4.252   5.717   2.280  0.1285  0.2257 -0.4028
14031TIP3   OH263583   2.959   5.080   5.358  0.3938 -0.1452 -0.2354
14031TIP3    H163584   2.920   5.117   5.436  1.5809 -2.0524  1.3804
14031TIP3    H263585   2.890   5.084   5.292 -0.8051  1.0857  1.0261
14032TIP3   OH263586   3.606   3.757   1.149 -0.1094  0.6001 -0.4479
14032TIP3    H163587   3.566   3.837   1.116 -0.4844 -0.2779 -2.1930
14032TIP3    H263588   3.617   3.701   1.073  1.5701 -0.4414  0.4755
14033TIP3   OH263589   1.229   5.779   0.794  0.1102  0.5301 -0.0661
14033TIP3    H163590   1.200   5.763   0.704 -1.2706  0.9721  0.2836
14033TIP3    H263591   1.319   5.746   0.796  0.1764  0.5508 -1.6170
14034TIP3   OH263592   5.441   4.159   2.619 -0.4041  0.6830  0.2828
14034TIP3    H163593   5.394   4.220   2.563 -0.0785  0.2366 -0.4996
14034TIP3    H263594   5.516   4.131   2.566 -1.4096 -1.6164 -0.0206
14035TIP3   OH263595   3.280   0.756   6.389 -0.4428  0.0446 -0.8258
14035TIP3    H163596   3.250   0.668   6.365  2.2827 -0.8021 -1.5481
14035TIP3    H263597   3.342   0.741   6.460 -0.1543  1.4274 -0.7687
14036TIP3   OH263598   1.707   0.652  14.432 -0.0363 -0.0761  0.0284
14036TIP3    H163599   1.735   0.704  14.508  0.2589  0.6761 -0.5868
14036TIP3    H263600   1.623   0.690  14.406  0.6933  0.8215 -1.0887
14037TIP3   OH263601   5.376   3.491   4.449  0.0341  0.0642 -0.0593
14037TIP3    H163602   5.430   3.431   4.500  1.5146  1.6628  0.3341
14037TIP3    H263603   5.302   3.437   4.420  0.1941 -1.4077  2.0378
14038TIP3   OH263604   0.187   2.373  15.420 -0.0038 -0.3450  0.0967
14038TIP3    H163605   0.174   2.416  15.336  0.1605 -0.7118 -0.1189
14038TIP3    H263606   0.110   2.399  15.472  0.8456  1.4907  0.5309
14039TIP3   OH263607   5.623   6.122   0.545 -0.0688  0.3431  0.2699
14039TIP3    H163608   5.663   6.156   0.625 -2.2364 -0.1909  1.6371
14039TIP3    H263609   5.562   6.055   0.574 -0.4963 -0.2953 -1.8967
14040TIP3   OH263610   4.191   4.234   0.968 -0.1007 -0.1501  0.3656
14040TIP3    H163611   4.156   4.309   1.017 -1.6306 -0.0757 -0.7714
14040TIP3    H263612   4.136   4.160   0.995 -1.5002  0.0525 -1.7682
14041TIP3   OH263613   5.530   6.602  12.527  0.2857  0.0161 -0.0073
14041TIP3    H163614   5.542   6.507  12.528 -1.4401 -0.2433 -0.5064
14041TIP3    H263615   5.539   6.628  12.619 -0.6189 -0.8409  0.3482
14042TIP3   OH263616   2.630   2.021  14.516 -0.3302 -0.1636  0.6996
14042TIP3    H163617   2.569   1.986  14.581 -1.2218  0.3749  0.1690
14042TIP3    H263618   2.610   1.973  14.436 -0.9482  0.8830  0.1977
14043TIP3   OH263619   4.264   2.785  11.101 -0.5206  0.5360  0.2929
14043TIP3    H163620   4.336   2.839  11.134 -1.2585  1.7002  0.0804
14043TIP3    H263621   4.257   2.808  11.009 -0.6761 -0.1529  0.1263
14044TIP3   OH263622   3.875   4.637   1.971  0.1283  0.4819  0.3776
14044TIP3    H163623   3.867   4.609   1.880  0.3047 -0.7970  0.7236
14044TIP3    H263624   3.838   4.564   2.021 -0.2069  1.2807  1.3216
14045TIP3   OH263625   3.777   3.907   2.676 -0.0688  0.3371  0.1715
14045TIP3    H163626   3.854   3.851   2.669 -0.7345 -1.1866  3.3708
14045TIP3    H263627   3.703   3.847   2.670 -0.8451  1.0922  1.5827
14046TIP3   OH263628   6.503   3.249  11.078 -0.0624 -0.2931  0.6451
14046TIP3    H163629   6.430   3.294  11.036 -0.0090 -1.0331 -0.2680
14046TIP3    H263630   6.473   3.158  11.088  0.0532 -0.2162  1.9247
14047TIP3   OH263631   6.262   4.136  13.817 -0.4284  0.5373 -0.3145
14047TIP3    H163632   6.265   4.089  13.901  0.9460  0.6900 -0.2426
14047TIP3    H263633   6.254   4.066  13.752 -1.4932  0.4163 -0.0663
14048TIP3   OH263634   1.791   1.253  10.714  0.1591 -0.2876  0.1754
14048TIP3    H163635   1.856   1.189  10.686 -0.2401 -0.7427  0.2911
14048TIP3    H263636   1.791   1.246  10.810 -0.7995 -1.0272  0.1349
14049TIP3   OH263637   1.082   1.400  15.585  0.2599  0.1106  0.0865
14049TIP3    H163638   1.029   1.336  15.632  1.9694 -0.7979  0.8865
14049TIP3    H263639   1.079   1.479  15.638  0.7029 -0.3379  0.7982
14050TIP3   OH263640   4.580   4.236  15.239 -0.1955  0.0703  0.0012
14050TIP3    H163641   4.603   4.329  15.232 -0.8953  0.2645  0.2278
14050TIP3    H263642   4.494   4.236  15.280 -1.7425 -0.4991 -2.9414
14051TIP3   OH263643   2.991   4.685   0.462 -0.7877 -0.0091  0.1813
14051TIP3    H163644   3.003   4.780   0.468 -1.6359  0.0244  1.7163
14051TIP3    H263645   2.899   4.674   0.438 -0.4204 -0.4412 -1.0796
14052TIP3   OH263646   4.071   5.229  16.170 -0.4027 -0.0021 -0.4727
14052TIP3    H163647   4.159   5.218  16.133 -0.8301  1.2485 -1.9525
14052TIP3    H263648   4.030   5.143  16.158  0.3521 -0.3718 -0.4862
14053TIP3   OH263649   3.151   0.824  14.535 -0.0245  0.1886  0.1069
14053TIP3    H163650   3.149   0.743  14.483  2.9990  0.5392 -0.7630
14053TIP3    H263651   3.087   0.881  14.493 -2.3483 -1.7322  0.8401
14054TIP3   OH263652   0.266   0.136  16.575  0.3457  0.2490  0.5044
14054TIP3    H163653   0.316   0.103  16.649  1.4197  0.4333 -0.1205
14054TIP3    H263654   0.235   0.057  16.530  1.5906  0.0900 -0.1070
14055TIP3   OH263655   2.862   2.454  16.275  0.5835 -0.0083  0.3055
14055TIP3    H163656   2.822   2.373  16.308  1.9006 -0.6986  0.2541
14055TIP3    H263657   2.787   2.505  16.243 -0.2822 -1.1997  0.3350
14056TIP3   OH263658   0.472   5.219  13.945 -0.1524  0.6986 -0.2595
14056TIP3    H163659   0.557   5.185  13.974 -0.2090  0.0774 -0.7957
14056TIP3    H263660   0.492   5.302  13.902  0.1921  0.4946 -0.4909
14057TIP3   OH263661   1.263   6.122  14.351 -0.3186 -0.0649  0.1899
14057TIP3    H163662   1.274   6.148  14.442 -2.9872  0.3018  0.4820
14057TIP3    H263663   1.173   6.146  14.329 -0.4642 -2.1030 -1.8802
14058TIP3   OH263664   5.086   3.370   3.055  0.4635 -0.0494  0.4541
14058TIP3    H163665   5.092   3.465   3.056  0.2002 -0.0342  1.3198
14058TIP3    H263666   4.994   3.351   3.076  0.7141 -0.5028  1.1957
14059TIP3   OH263667   1.554   5.086  13.352 -0.0193  0.2529 -0.7601
14059TIP3    H163668   1.530   5.097  13.260 -1.0924  2.7050 -0.2612
14059TIP3    H263669   1.498   5.148  13.399  1.5309  0.1359  1.3918
14060TIP3   OH263670   5.203   4.177   5.841  0.0018 -0.0065 -0.3345
14060TIP3    H163671   5.277   4.117   5.829  0.1183  0.4263 -2.0063
14060TIP3    H263672   5.127   4.128   5.808 -0.3089 -0.1009  0.5065
14061TIP3   OH263673   0.075   0.020  11.692  0.3672  0.2630  0.6271
14061TIP3    H163674   0.079  -0.010  11.782  1.0794 -0.5706  0.3358
14061TIP3    H263675   0.020  -0.045  11.647  1.0216 -0.0210  0.2186
14062TIP3   OH263676   5.920   3.954   4.226 -0.5129  0.0476 -0.2518
14062TIP3    H163677   5.885   3.875   4.185  0.1351  1.0066 -2.8338
14062TIP3    H263678   5.987   3.923   4.287 -0.6235 -1.3935 -0.8387
14063TIP3   OH263679   1.902   2.135   5.879 -0.4362 -0.2651  0.2505
14063TIP3    H163680   1.849   2.210   5.905 -0.4350 -0.3572  0.5256
14063TIP3    H263681   1.922   2.090   5.962  1.9753  0.9975  0.4332
14064TIP3   OH263682   0.257   3.474  12.719 -0.4273 -0.2297  0.3241
14064TIP3    H163683   0.321   3.406  12.738 -0.2914 -0.2900 -0.3471
14064TIP3    H263684   0.174   3.428  12.711 -0.2729 -0.3782 -0.5258
14065TIP3   OH263685   6.069   3.496  16.492  1.1689  0.5442 -0.0789
14065TIP3    H163686   6.117   3.577  16.474  1.8218  0.0004 -0.9016
14065TIP3    H263687   6.105   3.465  16.575  0.8249  1.1500  0.3070
14066TIP3   OH263688   5.291   2.921  15.930 -0.5056  0.5013 -0.2728
14066TIP3    H163689   5.200   2.895  15.918 -0.2374 -0.2148 -0.8137
14066TIP3    H263690   5.300   3.000  15.876 -0.2619 -0.6451 -1.9743
14067TIP3   OH263691   1.546   0.187   5.980  0.6242  0.1458 -0.0109
14067TIP3    H163692   1.570   0.242   6.054 -0.4196  0.5643  0.0334
14067TIP3    H263693   1.600   0.108   5.989  0.3793  0.1119  1.2897
14068TIP3   OH263694   4.326   1.866   3.650  0.4539  0.5663 -0.2160
14068TIP3    H163695   4.254   1.919   3.685 -0.1026 -0.8849  0.9215
14068TIP3    H263696   4.401   1.887   3.706  0.8004  1.6570 -1.0527
14069TIP3   OH263697   0.250   3.567  15.583  0.4205  0.0095  0.3170
14069TIP3    H163698   0.165   3.606  15.602  0.4370 -0.0565  0.5382
14069TIP3    H263699   0.293   3.629  15.524  0.4380  0.3237  0.6515
14070TIP3   OH263700   0.427   2.219   5.092 -0.1172 -0.1453  0.4447
14070TIP3    H163701   0.496   2.256   5.147 -0.1008  0.5289 -0.0291
14070TIP3    H263702   0.465   2.216   5.004 -1.2800  1.9123 -0.1861
14071TIP3   OH263703   6.606   6.194  12.809 -0.1415 -0.7413 -0.8230
14071TIP3    H163704   6.700   6.177  12.809 -0.2037 -1.5993  2.0769
14071TIP3    H263705   6.571   6.138  12.739  1.4303 -0.6945 -1.6853
14072TIP3   OH263706   3.747   6.791   1.172  0.4675  0.3464 -0.1761
14072TIP3    H163707   3.669   6.774   1.120  0.8223 -0.4176 -0.4646
14072TIP3    H263708   3.814   6.816   1.108  1.3940 -2.2602 -0.3203
14073TIP3   OH263709   0.579   6.468   1.572  0.1765  0.0210 -0.1216
14073TIP3    H163710   0.646   6.456   1.640  0.0036  1.1692  0.2720
14073TIP3    H263711   0.500   6.431   1.611  0.2192  0.1008  0.0431
14074TIP3   OH263712   4.678   2.314   5.390 -0.0488 -0.0034 -0.5219
14074TIP3    H163713   4.623   2.392   5.382  1.1959  1.0354  0.5510
14074TIP3    H263714   4.733   2.316   5.312  0.9226  0.9987  0.1560
14075TIP3   OH263715   4.282   4.793  14.395  0.1121 -0.1656 -0.8794
14075TIP3    H163716   4.240   4.736  14.460  2.0807  0.1154  0.7324
14075TIP3    H263717   4.276   4.744  14.313 -1.6092 -0.9534 -0.3392
14076TIP3   OH263718   3.873   4.457   5.200  0.7296  0.1155  0.0055
14076TIP3    H163719   3.932   4.487   5.131  1.1139  0.5531  0.5223
14076TIP3    H263720   3.929   4.445   5.276  0.5622 -1.7487 -0.1244
14077TIP3   OH263721   5.860   6.817   5.374  0.3217  0.2603  0.2788
14077TIP3    H163722   5.775   6.859   5.385  0.6137  0.7913  0.5300
14077TIP3    H263723   5.839   6.729   5.343 -0.3122  0.4395  0.1839
14078TIP3   OH263724   4.174   5.231  12.727 -0.2024 -0.2949  0.1770
14078TIP3    H163725   4.180   5.199  12.817  4.0446  2.2531  1.1016
14078TIP3    H263726   4.214   5.162  12.674  0.3916 -0.4108  0.7674
14079TIP3   OH263727   5.006   0.451  16.851 -0.3895  0.7711  0.7031
14079TIP3    H163728   4.955   0.467  16.931 -0.8947  1.1170  0.3150
14079TIP3    H263729   4.943   0.462  16.780  0.2747  1.4339  0.2065
14080TIP3   OH263730   5.123   4.691  11.464  0.5574  0.0744 -0.1867
14080TIP3    H163731   5.089   4.763  11.411 -1.5007 -0.6557  0.0157
14080TIP3    H263732   5.210   4.674  11.429  0.1209  1.0523 -1.8790
14081TIP3   OH263733   4.282   2.537  11.259 -0.6400  0.4766  0.5649
14081TIP3    H163734   4.220   2.465  11.246  0.3865 -0.8921  2.8248
14081TIP3    H263735   4.231   2.616  11.236 -2.7208 -0.6988  0.8485
14082TIP3   OH263736   3.979   2.647   4.390  0.1721  0.3866  0.0007
14082TIP3    H163737   3.908   2.582   4.396 -0.8747  1.6262  2.0582
14082TIP3    H263738   3.955   2.701   4.315  0.3064 -0.7264 -0.8689
14083TIP3   OH263739   6.429   0.424   2.598 -0.0951 -0.1791  0.5589
14083TIP3    H163740   6.410   0.338   2.634 -0.1860 -0.1003  0.6981
14083TIP3    H263741   6.443   0.408   2.505  3.4137 -0.9256  1.0745
14084TIP3   OH263742   5.563   1.633   4.481  0.4661 -0.2796 -0.1228
14084TIP3    H163743   5.644   1.617   4.431  1.5313  0.3005  1.3453
14084TIP3    H263744   5.587   1.615   4.572 -1.1891 -0.4727  0.2998
14085TIP3   OH263745   2.498   2.087   1.681 -0.4387  0.8596 -0.3092
14085TIP3    H163746   2.568   2.137   1.638 -1.6299  1.8637 -1.1670
14085TIP3    H263747   2.523   2.086   1.773  0.8848  0.8819 -0.6462
14086TIP3   OH263748   3.704   3.818  13.279 -0.2002  0.0161 -0.3877
14086TIP3    H163749   3.659   3.877  13.339 -0.1216 -0.4857  0.1721
14086TIP3    H263750   3.666   3.837  13.193 -0.9229  0.1468 -0.0449
14087TIP3   OH263751   6.400   1.656   1.832  0.2092 -0.4130  0.0388
14087TIP3    H163752   6.451   1.733   1.858  0.5277  0.1626 -2.1216
14087TIP3    H263753   6.332   1.648   1.900 -0.1482  2.0757  0.0552
14088TIP3   OH263754   0.651   4.368   4.061 -0.3526  0.9315  0.0306
14088TIP3    H163755   0.699   4.451   4.065 -0.3562  0.9239  0.2168
14088TIP3    H263756   0.560   4.392   4.076 -0.3532  0.8939  0.0883
14089TIP3   OH263757   3.681   3.443  12.919 -0.2783 -0.0118  0.0558
14089TIP3    H163758   3.770   3.470  12.895 -0.3145 -0.6329 -0.8014
14089TIP3    H263759   3.670   3.474  13.009  1.2139 -0.8851  0.5732
14090TIP3   OH263760   3.089   1.368   0.362  0.6832 -0.1123  0.2396
14090TIP3    H163761   3.133   1.453   0.361 -2.1521  1.5269 -1.9735
14090TIP3    H263762   3.035   1.369   0.441 -1.2236  1.3575 -0.9864
14091TIP3   OH263763   4.275   0.944   4.637 -0.1897 -0.1210  0.2292
14091TIP3    H163764   4.197   0.956   4.690  0.2088  2.1184  0.4163
14091TIP3    H263765   4.348   0.951   4.699  0.2059 -0.9233 -0.1285
14092TIP3   OH263766   1.308   6.073   5.194  0.1520  0.4170 -0.4353
14092TIP3    H163767   1.250   5.998   5.206  0.7941 -0.0189  0.0226
14092TIP3    H263768   1.388   6.036   5.157  0.7891  0.7382  0.5684
14093TIP3   OH263769   1.210   1.813  16.692 -0.5217  0.4261  0.4773
14093TIP3    H163770   1.301   1.813  16.722 -0.2739  1.4797 -0.2069
14093TIP3    H263771   1.168   1.883  16.742 -0.8192  0.3121  0.3892
14094TIP3   OH263772   6.559   0.091   2.541  0.1310 -0.2574  0.1528
14094TIP3    H163773   6.497   0.027   2.575  0.4717 -0.1023  1.1085
14094TIP3    H263774   6.619   0.107   2.614 -0.3604  1.6744  0.1817
14095TIP3   OH263775   0.908   5.491  13.809  0.0266  0.3300  0.3166
14095TIP3    H163776   0.998   5.496  13.775  0.5350 -2.2015  1.0885
14095TIP3    H263777   0.915   5.519  13.900 -0.0452  0.4878  0.2739
14096TIP3   OH263778   2.288   5.276   2.094 -0.2006 -0.2480  0.3111
14096TIP3    H163779   2.214   5.334   2.074 -0.7529 -0.9003  0.4182
14096TIP3    H263780   2.257   5.223   2.168  1.0345  0.6746  1.5325
14097TIP3   OH263781   2.921   0.348  16.311 -0.0830  0.2297  0.2813
14097TIP3    H163782   2.969   0.266  16.299 -0.8964 -0.4414  1.4843
14097TIP3    H263783   2.893   0.347  16.403 -1.9155  0.8699 -0.2308
14098TIP3   OH263784   3.339   1.153  16.211 -0.3369  0.7879 -0.1611
14098TIP3    H163785   3.408   1.109  16.260 -0.4183  1.6299  0.7425
14098TIP3    H263786   3.258   1.127  16.253 -0.4338  1.2392 -0.0578
14099TIP3   OH263787   1.539   4.274  14.857 -0.7602 -0.2403  0.1366
14099TIP3    H163788   1.535   4.209  14.927 -1.1012 -0.8492 -0.4431
14099TIP3    H263789   1.596   4.342  14.892  1.6385 -1.9789 -0.1837
14100TIP3   OH263790   6.523   3.135   0.722  0.3683  0.2835 -0.5323
14100TIP3    H163791   6.520   3.097   0.810  1.0497  0.3452 -0.4807
14100TIP3    H263792   6.613   3.164   0.710  0.6861 -1.0932 -1.8194
14101TIP3   OH263793   5.949   4.342  10.898  0.5347  0.4330  0.5807
14101TIP3    H163794   5.857   4.368  10.896 -0.4657 -2.5813  1.3271
14101TIP3    H263795   5.987   4.382  10.820 -2.2087 -0.7507 -1.5516
14102TIP3   OH263796   5.151   1.134  16.374  0.3380  0.1519  0.0152
14102TIP3    H163797   5.240   1.163  16.396  0.3608 -0.2240  0.4240
14102TIP3    H263798   5.094   1.202  16.410  0.4099 -0.1185  0.6552
14103TIP3   OH263799   5.517   5.349  11.398  0.4063  0.0352 -0.0900
14103TIP3    H163800   5.590   5.410  11.384 -0.0306  0.7446  0.6081
14103TIP3    H263801   5.553   5.263  11.377  2.1035  0.0758  2.2144
14104TIP3   OH263802   6.461   1.796   5.549 -0.2405 -0.4755 -0.1560
14104TIP3    H163803   6.464   1.701   5.554  1.2414 -0.4521 -0.2142
14104TIP3    H263804   6.457   1.825   5.640 -2.1167 -0.5820 -0.1557
14105TIP3   OH263805   3.537   0.961  13.324 -0.4215 -0.2940 -0.0150
14105TIP3    H163806   3.529   0.878  13.278 -0.1865 -0.7558  0.7618
14105TIP3    H263807   3.517   0.940  13.415 -0.8862  0.6082  0.1015
14106TIP3   OH263808   0.697   3.553  14.091 -0.0195 -0.0858 -0.0625
14106TIP3    H163809   0.613   3.567  14.047 -1.4228 -0.6672  2.2595
14106TIP3    H263810   0.722   3.640  14.122 -0.1402 -0.0330 -0.1112
14107TIP3   OH263811   4.024   5.016   1.016  0.6766 -0.1801  0.1740
14107TIP3    H163812   4.050   4.926   1.033 -0.7386 -0.4371  1.1598
14107TIP3    H263813   3.940   5.026   1.061 -0.5986  0.7918 -2.1966
14108TIP3   OH263814   5.449   4.114   0.053  0.0852  0.2052 -0.1213
14108TIP3    H163815   5.512   4.062   0.002  0.3302 -0.4095  0.7946
14108TIP3    H263816   5.370   4.115  -0.001  0.1033 -1.0528 -0.2031
14109TIP3   OH263817   3.571   1.649   2.530  0.2882 -0.1304 -0.0064
14109TIP3    H163818   3.520   1.620   2.606  0.0249 -1.6839 -0.7175
14109TIP3    H263819   3.654   1.600   2.537  0.0079 -0.7988 -1.0215
14110TIP3   OH263820   5.576   3.660  14.067 -0.4734  0.4150  0.5386
14110TIP3    H163821   5.671   3.670  14.078 -0.4885  1.3199  0.0170
14110TIP3    H263822   5.546   3.748  14.046 -1.5615  0.2958  1.5334
14111TIP3   OH263823   2.366   4.004   1.582  0.1487  0.1487 -0.3379
14111TIP3    H163824   2.403   3.987   1.495  1.0036  0.1303  0.0191
14111TIP3    H263825   2.320   4.088   1.572  1.9979  1.2230 -0.3070
14112TIP3   OH263826   4.994   6.752  11.467  0.0301  0.2434  0.1546
14112TIP3    H163827   4.993   6.843  11.498 -3.1319  0.3179  0.2318
14112TIP3    H263828   4.971   6.701  11.544 -5.4218  0.2028 -1.0866
14113TIP3   OH263829   2.057   3.873  16.778 -0.1328  0.0469 -0.0366
14113TIP3    H163830   2.072   3.890  16.871 -2.3013  0.7506  0.2388
14113TIP3    H263831   2.007   3.791  16.776  0.1841 -0.1382 -0.5987
14114TIP3   OH263832   3.032   6.797   4.428  0.0803 -0.1137  0.2654
14114TIP3    H163833   3.078   6.800   4.512  0.9893  0.3199 -0.2337
14114TIP3    H263834   2.966   6.728   4.439 -0.3840  0.5114  1.6070
14115TIP3   OH263835   6.746   0.445  12.007 -0.0087 -0.3141 -0.2303
14115TIP3    H163836   6.812   0.508  12.034  1.3304 -1.8431  0.2715
14115TIP3    H263837   6.663   0.485  12.030  0.7981  1.1353  0.2913
14116TIP3   OH263838   3.826   3.479  13.689 -0.3532  0.1877 -0.6205
14116TIP3    H163839   3.897   3.540  13.671 -0.3874 -0.0320 -1.5666
14116TIP3    H263840   3.746   3.530  13.677 -0.3721  0.2853 -0.1205
14117TIP3   OH263841   6.183   3.636   2.350 -0.3307  0.4729 -0.1789
14117TIP3    H163842   6.218   3.725   2.349  2.0708 -0.3821 -1.4349
14117TIP3    H263843   6.192   3.606   2.259  0.8206 -1.6804  0.5593
14118TIP3   OH263844   1.402   2.370  16.373 -0.0181  0.1514  0.1678
14118TIP3    H163845   1.376   2.325  16.454  2.2123  1.5313  1.7694
14118TIP3    H263846   1.390   2.304  16.304 -1.1381 -1.3734  1.7281
14119TIP3   OH263847   4.085   2.851  12.629 -0.1467 -0.0143 -0.0333
14119TIP3    H163848   4.084   2.844  12.534  0.2387  1.9410 -0.2408
14119TIP3    H263849   4.063   2.764  12.661  0.3401 -0.8585 -1.9017
14120TIP3   OH263850   5.304   5.336   3.530 -0.3361 -0.1759  0.4388
14120TIP3    H163851   5.383   5.346   3.583 -1.3650  0.1502  1.9787
14120TIP3    H263852   5.254   5.416   3.546 -1.0447 -0.4296 -0.4159
14121TIP3   OH263853   6.444   1.099  11.368  0.0595 -0.1073 -0.1489
14121TIP3    H163854   6.386   1.127  11.439 -1.7415  0.4783 -1.7733
14121TIP3    H263855   6.421   1.007  11.353 -1.5315  0.5115 -1.7343
14122TIP3   OH263856   2.185   2.056  10.974  0.1584  0.2012  0.2663
14122TIP3    H163857   2.170   2.070  10.881  1.7368 -1.5912 -0.3108
14122TIP3    H263858   2.263   2.109  10.994  1.1444 -1.0980  0.0092
14123TIP3   OH263859   2.380   2.346  11.931  0.1631 -0.2559  0.5311
14123TIP3    H163860   2.435   2.307  11.999  0.2510 -0.0005  0.6090
14123TIP3    H263861   2.306   2.286  11.922  0.9859 -1.1689 -0.3462
14124TIP3   OH263862   0.727   1.209  12.927 -0.0845  0.3465 -0.1825
14124TIP3    H163863   0.712   1.115  12.920 -2.2758  0.3497  2.4982
14124TIP3    H263864   0.802   1.217  12.985 -0.2381  0.2092  0.0391
14125TIP3   OH263865   1.191   5.666   1.464  0.2800 -0.3993 -0.0762
14125TIP3    H163866   1.119   5.602   1.466 -0.3208  0.2784  0.9497
14125TIP3    H263867   1.223   5.662   1.374 -2.3371  0.6791 -1.1697
14126TIP3   OH263868   1.063   2.690   1.941  0.8005  0.2075 -0.5388
14126TIP3    H163869   0.973   2.717   1.957  0.2425 -1.4110 -0.7247
14126TIP3    H263870   1.088   2.640   2.019  0.6234 -1.4944 -1.5327
14127TIP3   OH263871   5.515   2.466  16.816 -0.4281 -0.0389 -0.0962
14127TIP3    H163872   5.516   2.460  16.721 -0.2260  0.8084 -0.1550
14127TIP3    H263873   5.423   2.479  16.839 -0.3209  1.1486 -0.2842
14128TIP3   OH263874   2.205   5.532   1.020  0.3755 -0.8280  0.5969
14128TIP3    H163875   2.193   5.538   1.114 -1.9998 -0.1395  0.3295
14128TIP3    H263876   2.206   5.623   0.990 -4.6519 -0.8210 -0.4817
14129TIP3   OH263877   0.205   5.815   5.032  0.5600  0.1191  0.3060
14129TIP3    H163878   0.178   5.762   5.108 -0.7534 -1.4365 -1.1452
14129TIP3    H263879   0.128   5.868   5.012  0.1794 -0.8795 -1.0313
14130TIP3   OH263880   0.377   3.482  14.420 -0.4548 -0.0256 -0.0667
14130TIP3    H163881   0.430   3.442  14.490 -1.4650  0.9948  1.3283
14130TIP3    H263882   0.361   3.571  14.450 -1.3207  0.2942 -1.4053
14131TIP3   OH263883   0.543   3.587  12.425 -0.6106 -0.0987  0.5791
14131TIP3    H163884   0.565   3.664  12.478  0.1359 -0.1970  0.4314
14131TIP3    H263885   0.584   3.514  12.471 -0.3988 -0.2547  0.1548
14132TIP3   OH263886   5.520   1.694  14.017  0.3078 -0.5114 -0.8001
14132TIP3    H163887   5.512   1.718  13.925  0.4251 -0.8612 -0.8996
14132TIP3    H263888   5.516   1.599  14.018  1.6535 -0.5857 -0.5759
14133TIP3   OH263889   1.008   2.620   5.660  0.2759 -0.0685 -0.0499
14133TIP3    H163890   1.022   2.675   5.583 -0.1131 -1.1528 -0.9180
14133TIP3    H263891   0.969   2.679   5.725 -0.3712  0.6141 -1.0456
14134TIP3   OH263892   1.931   3.141  17.106 -0.7186  0.6315  0.1918
14134TIP3    H163893   1.857   3.142  17.044 -0.6695  1.5767  0.1297
14134TIP3    H263894   1.957   3.049  17.111 -1.4296  0.3902 -0.3540
14135TIP3   OH263895   4.625   5.912  12.794 -0.2761  0.0024  0.0808
14135TIP3    H163896   4.656   5.908  12.704 -2.0174  0.6119 -0.5835
14135TIP3    H263897   4.686   5.970  12.838  0.0851  0.4076 -0.9353
14136TIP3   OH263898   2.220   5.731   5.127 -0.0291 -0.4451  0.1271
14136TIP3    H163899   2.182   5.676   5.058 -1.4396  1.7098 -0.9489
14136TIP3    H263900   2.151   5.736   5.194 -0.4192  0.9242 -0.3479
14137TIP3   OH263901   3.403   6.242   6.712 -0.2130  0.7024 -0.1601
14137TIP3    H163902   3.405   6.337   6.705  0.3208  0.7616  0.7228
14137TIP3    H263903   3.431   6.211   6.626 -0.7194  1.3306 -0.5613
14138TIP3   OH263904   2.786   3.129  13.242  0.1881 -0.6945  0.2283
14138TIP3    H163905   2.721   3.182  13.288  1.0451  2.4285 -1.8231
14138TIP3    H263906   2.736   3.081  13.176 -0.4767 -1.8345  1.4932
14139TIP3   OH263907   3.662   0.193   0.962  0.7718  0.5300 -0.1029
14139TIP3    H163908   3.685   0.103   0.939 -0.5658  0.8060 -2.9384
14139TIP3    H263909   3.585   0.184   1.019  1.3929 -0.1199  0.6564
14140TIP3   OH263910   3.927   3.634  12.872 -1.3198 -0.0103 -0.0000
14140TIP3    H163911   3.983   3.589  12.935 -2.7434 -0.2190  1.1571
14140TIP3    H263912   3.926   3.725  12.901 -0.9604  0.1549 -0.4900
14141TIP3   OH263913   0.898   3.553   0.752 -0.7349 -0.0269  0.2619
14141TIP3    H163914   0.930   3.582   0.837 -0.1670 -2.0051  0.7739
14141TIP3    H263915   0.885   3.459   0.762 -0.3064 -0.3821 -1.9533
14142TIP3   OH263916   3.981   4.185  12.267 -0.4136 -0.4505 -0.3259
14142TIP3    H163917   3.998   4.279  12.266 -0.1886 -0.4763  0.5769
14142TIP3    H263918   4.021   4.154  12.348 -0.5984 -1.3050 -0.5533
14143TIP3   OH263919   0.295   6.767  12.416  0.5781  0.3893 -0.3745
14143TIP3    H163920   0.333   6.689  12.457 -0.7733  0.4268  1.0509
14143TIP3    H263921   0.212   6.737  12.380  0.3544  1.0269 -0.3934
14144TIP3   OH263922   0.084   5.547   2.000  0.6925  0.5248  0.6808
14144TIP3    H163923   0.143   5.471   1.999  1.0126  0.7729  0.7303
14144TIP3    H263924   0.048   5.550   1.912  0.1654 -0.0804  0.8611
14145TIP3   OH263925   2.029   3.364  11.956 -0.6561 -0.3638  0.3924
14145TIP3    H163926   2.037   3.451  11.917  0.4535 -1.0160 -0.8955
14145TIP3    H263927   1.962   3.320  11.904 -3.0114  0.4652  2.5484
14146TIP3   OH263928   2.786   6.347   0.193 -0.6013  0.2758 -0.0294
14146TIP3    H163929   2.750   6.310   0.113  1.5311 -0.9733 -0.5109
14146TIP3    H263930   2.783   6.442   0.181 -0.3875  0.1016 -1.5754
14147TIP3   OH263931   1.947   3.328   3.399 -0.1960  0.1213 -0.1871
14147TIP3    H163932   1.908   3.297   3.481  1.2604 -0.7191  0.2210
14147TIP3    H263933   1.923   3.421   3.395  0.9737  0.5822  1.9843
14148TIP3   OH263934   3.045   4.194  14.915 -0.5136  0.6103 -0.2908
14148TIP3    H163935   3.066   4.192  15.008 -1.7533 -2.4006  0.0347
14148TIP3    H263936   3.130   4.196  14.871  0.2010 -0.7423  0.9528
14149TIP3   OH263937   6.302   5.962  14.253 -0.0938  0.1020  0.4871
14149TIP3    H163938   6.225   5.927  14.209 -0.3815  0.9846  0.2607
14149TIP3    H263939   6.369   5.895  14.241 -0.8954 -0.7946  0.9225
14150TIP3   OH263940   5.615   5.049  11.807  0.3180 -0.0198  0.3997
14150TIP3    H163941   5.574   5.131  11.835  0.0691 -0.5008  1.4733
14150TIP3    H263942   5.709   5.065  11.815  0.3086  0.4755 -0.3379
14151TIP3   OH263943   4.084   0.854  16.020 -0.7195  0.1155  0.0504
14151TIP3    H163944   4.015   0.788  16.013 -1.9112  1.3638 -0.2233
14151TIP3    H263945   4.164   0.806  15.998 -1.7124 -0.9539 -1.4738
14152TIP3   OH263946   3.268   2.509   5.866 -0.7583  0.7706  0.2958
14152TIP3    H163947   3.258   2.472   5.954 -1.6369 -0.2501 -0.2044
14152TIP3    H263948   3.303   2.436   5.814 -1.2043  1.0527 -0.4116
14153TIP3   OH263949   5.388   4.137   3.554  0.2602 -0.5138  0.0024
14153TIP3    H163950   5.394   4.089   3.636 -0.4030  1.0825  1.0391
14153TIP3    H263951   5.429   4.080   3.489  3.0144 -0.8484  1.8755
14154TIP3   OH263952   0.953   0.869  10.075 -0.1177 -0.6413  0.6854
14154TIP3    H163953   1.044   0.858  10.104  0.6417 -1.6718 -1.8212
14154TIP3    H263954   0.936   0.791  10.022 -2.4656 -0.4157  1.0077
14155TIP3   OH263955   5.206   2.444  16.420  0.6223 -0.1728 -0.0538
14155TIP3    H163956   5.174   2.388  16.350  0.0591  0.6537 -0.4722
14155TIP3    H263957   5.168   2.530  16.402  0.7139  0.1263  1.0958
14156TIP3   OH263958   2.429   2.013  13.036 -0.1622  0.8581  0.1953
14156TIP3    H163959   2.418   1.941  12.973  0.6637  1.1635 -0.3147
14156TIP3    H263960   2.341   2.049  13.047 -0.1185  1.7334 -1.9170
14157TIP3   OH263961   3.128   4.916  12.881 -0.0644 -0.3766 -0.0796
14157TIP3    H163962   3.223   4.909  12.866  0.4893  1.0996  2.2497
14157TIP3    H263963   3.111   5.010  12.889 -1.8612 -0.5779 -1.0398
14158TIP3   OH263964   2.387   5.227   4.390  0.5956 -0.0852 -0.3699
14158TIP3    H163965   2.326   5.287   4.349  0.0821 -0.7255 -0.5634
14158TIP3    H263966   2.347   5.141   4.380  0.7370 -0.3373  0.9439
14159TIP3   OH263967   6.311   0.460  13.040  0.3508  0.0770  0.1280
14159TIP3    H163968   6.319   0.377  13.088  0.3334  0.1568  0.2701
14159TIP3    H263969   6.392   0.507  13.060  0.2475  0.2023  0.2576
14160TIP3   OH263970   4.616   4.355   2.747  0.0378 -0.0684  0.0592
14160TIP3    H163971   4.695   4.301   2.754 -0.1850 -0.4667 -0.4038
14160TIP3    H263972   4.550   4.307   2.797 -0.3583 -0.6220 -0.9576
14161TIP3   OH263973   0.910   6.414  14.803 -0.6498 -0.1489 -0.2467
14161TIP3    H163974   0.901   6.466  14.723  0.1568  0.8714  0.2893
14161TIP3    H263975   0.869   6.467  14.871  0.7909  0.1504  0.4375
14162TIP3   OH263976   1.439   1.032  12.629  0.2241 -0.8326 -0.0055
14162TIP3    H163977   1.462   0.946  12.593  0.1064 -1.2369  0.8449
14162TIP3    H263978   1.343   1.032  12.632  0.1971 -0.3314 -0.7906
14163TIP3   OH263979   6.231   2.688  12.304 -0.7073 -0.1737  0.1409
14163TIP3    H163980   6.317   2.707  12.342  0.2424 -3.4490 -0.0815
14163TIP3    H263981   6.193   2.774  12.287  2.3564  1.4025  0.5989
14164TIP3   OH263982   5.993   4.341   2.742 -1.1712 -0.2145  0.7113
14164TIP3    H163983   5.959   4.408   2.683  1.8595  0.6142 -0.2490
14164TIP3    H263984   6.017   4.388   2.822  0.7871 -0.0760  0.1040
14165TIP3   OH263985   2.429   3.092  12.257  0.5778 -0.8257  0.1505
14165TIP3    H163986   2.456   3.166  12.202 -0.5855 -0.9059 -0.5579
14165TIP3    H263987   2.487   3.020  12.232 -0.8077 -1.2660 -2.0137
14166TIP3   OH263988   4.551   4.785  16.525  0.0615 -0.3649 -0.0733
14166TIP3    H163989   4.589   4.849  16.585 -0.8703  1.6017 -1.4958
14166TIP3    H263990   4.583   4.701  16.557  2.1768  0.8572  1.2575
14167TIP3   OH263991   5.361   4.251   3.967 -0.1810 -0.2652 -0.1207
14167TIP3    H163992   5.308   4.174   3.945  1.0128 -0.8768 -0.9413
14167TIP3    H263993   5.446   4.234   3.927  0.7088  0.6062  1.3137
14168TIP3   OH263994   1.706   0.320  17.013 -0.0861 -0.3775  0.1608
14168TIP3    H163995   1.794   0.356  17.000 -0.7872  1.8985  1.3785
14168TIP3    H263996   1.647   0.387  16.980 -1.4414 -1.1853  0.8604
14169TIP3   OH263997   5.695   6.174   5.900  0.2683  0.0794  0.1042
14169TIP3    H163998   5.735   6.260   5.920  2.0023 -0.4476 -0.8594
14169TIP3    H263999   5.740   6.113   5.959  0.5459 -0.4542 -0.6395
14170TIP3   OH264000   1.363   6.614  15.648 -0.1035 -0.8329 -0.6166
14170TIP3    H164001   1.436   6.675  15.634 -0.6756 -0.0986 -0.4507
14170TIP3    H264002   1.308   6.625  15.571 -0.2093 -1.1513 -0.5863
14171TIP3   OH264003   6.356   6.229  13.584  0.1831  0.4378  0.2999
14171TIP3    H164004   6.372   6.266  13.671 -0.4194  0.0502  0.5822
14171TIP3    H264005   6.331   6.305  13.530 -1.6768  0.4023  1.0356
14172TIP3   OH264006   1.621   4.901  11.665 -0.0103 -0.1258 -0.4934
14172TIP3    H164007   1.669   4.931  11.742 -0.4581 -0.4699 -0.0705
14172TIP3    H264008   1.577   4.980  11.632  0.5971  0.1257 -0.7028
14173TIP3   OH264009   0.217   6.616  11.943  0.0279 -0.6064 -0.0981
14173TIP3    H164010   0.171   6.700  11.941  1.9172  0.4780 -1.2060
14173TIP3    H264011   0.204   6.583  12.031  0.3445  1.5317  0.8042
14174TIP3   OH264012   3.630   5.951  14.584 -0.4146  0.0587 -0.0040
14174TIP3    H164013   3.632   5.980  14.493 -0.3830 -1.2165 -0.4311
14174TIP3    H264014   3.578   5.871  14.582 -1.2215  0.5239  1.2646
14175TIP3   OH264015   5.596   6.029  15.101  0.0590  0.7661  0.3663
14175TIP3    H164016   5.662   5.967  15.071 -0.5660 -0.4956  1.5160
14175TIP3    H264017   5.540   6.043  15.024 -0.8227 -1.4751  0.5276
14176TIP3   OH264018   5.497   5.337   5.871 -0.1060  0.4377 -0.1859
14176TIP3    H164019   5.426   5.384   5.917  0.2672 -0.2138  1.1031
14176TIP3    H264020   5.470   5.245   5.874  1.0739  0.1001  0.8913
14177TIP3   OH264021   3.050   6.285  12.002  0.1973  0.1084  0.6965
14177TIP3    H164022   2.981   6.220  12.000 -0.1497  0.4751 -1.2692
14177TIP3    H264023   3.081   6.285  12.092 -0.2807 -2.2348  0.9099
14178TIP3   OH264024   5.545   6.106  15.623  0.1930 -0.2890  0.5507
14178TIP3    H164025   5.580   6.029  15.577 -0.3866 -0.2220 -0.0086
14178TIP3    H264026   5.500   6.156  15.555 -1.3456 -0.5687  1.3139
14179TIP3   OH264027   5.458   6.285   6.586  0.3622 -0.1467  0.5819
14179TIP3    H164028   5.471   6.222   6.515  0.0918  1.9287 -1.4298
14179TIP3    H264029   5.373   6.325   6.568  1.2342  1.9569  0.7740
14180TIP3   OH264030   4.279   3.775   0.774  0.3587 -0.6517  0.1722
14180TIP3    H164031   4.239   3.699   0.815 -1.2509 -1.1308 -2.0620
14180TIP3    H264032   4.210   3.811   0.718  2.5209 -0.5431 -2.6697
14181TIP3   OH264033   2.517   1.120  14.569  0.0992  0.0302 -0.7164
14181TIP3    H164034   2.539   1.064  14.644 -1.6321  0.6696  0.3440
14181TIP3    H264035   2.554   1.075  14.493  1.9664 -0.6102  0.5144
14182TIP3   OH264036   5.562   5.414  15.844  0.7591  0.8127  0.0936
14182TIP3    H164037   5.505   5.417  15.767 -1.9655 -0.2621  1.9181
14182TIP3    H264038   5.529   5.482  15.902  0.3350 -0.7343  1.7784
14183TIP3   OH264039   6.744   1.204  13.555  0.1457 -0.0901  0.2095
14183TIP3    H164040   6.690   1.155  13.492 -2.6125  1.0630  1.4802
14183TIP3    H264041   6.784   1.136  13.609 -2.5228 -1.0912  1.1031
14184TIP3   OH264042   3.942   4.291  13.784  0.5117 -0.8810  0.1490
14184TIP3    H164043   3.878   4.222  13.767 -0.7796  0.2231  0.3071
14184TIP3    H264044   3.966   4.323  13.697  1.4086 -1.7628  0.0583
14185TIP3   OH264045   5.477   4.797  16.102  0.9227  0.4032 -0.4063
14185TIP3    H164046   5.393   4.813  16.060  0.0591 -0.3065  0.9989
14185TIP3    H264047   5.526   4.747  16.037 -0.2659 -0.3959 -0.7206
14186TIP3   OH264048   5.604   4.910   1.549  0.1620 -0.2946  0.4200
14186TIP3    H164049   5.697   4.889   1.537  0.5720  1.4933  0.1312
14186TIP3    H264050   5.570   4.838   1.602  1.5826 -1.2520  0.1098
14187TIP3   OH264051   1.883   3.971   0.181 -0.3308  0.0878  0.6416
14187TIP3    H164052   1.849   3.895   0.135  0.3513 -0.2262  0.6529
14187TIP3    H264053   1.814   3.994   0.243 -0.5771 -0.4687  0.5786
14188TIP3   OH264054   2.607   4.039  16.188 -0.1144  0.5001  0.6051
14188TIP3    H164055   2.547   4.056  16.115  0.1871 -2.0894 -0.3277
14188TIP3    H264056   2.644   4.125  16.208  1.3760  1.1454 -3.7252
14189TIP3   OH264057   4.998   2.496   3.399  0.8428  0.3697 -0.1642
14189TIP3    H164058   4.945   2.548   3.339  2.1316  1.4922 -0.3682
14189TIP3    H264059   4.983   2.534   3.485  0.1497 -0.2904  0.0153
14190TIP3   OH264060   6.638   0.751  16.432  0.0855 -0.9844 -0.1320
14190TIP3    H164061   6.606   0.712  16.350  1.4927  0.7221 -1.5784
14190TIP3    H264062   6.714   0.802  16.405 -0.3880  0.9535  2.0090
14191TIP3   OH264063   3.531   3.024  13.639  0.0660 -0.2585 -0.1224
14191TIP3    H164064   3.590   3.009  13.566  0.5588 -1.9126  0.5849
14191TIP3    H264065   3.505   2.937  13.669 -2.0435  0.3956  0.1648
14192TIP3   OH264066   1.294   0.687   5.416  0.1979  0.1689 -0.5536
14192TIP3    H164067   1.374   0.636   5.429 -0.7249 -1.4369 -0.8074
14192TIP3    H264068   1.259   0.655   5.333 -1.2096  0.0794  0.0415
14193TIP3   OH264069   4.051   5.018   1.811  0.8219 -0.1565 -0.2815
14193TIP3    H164070   4.053   5.046   1.902 -0.5054  0.3767 -0.3976
14193TIP3    H264071   4.067   5.098   1.761 -2.9033  0.5269 -0.6118
14194TIP3   OH264072   5.778   2.769   2.462  0.3812 -0.4349 -0.2711
14194TIP3    H164073   5.800   2.697   2.522  0.9778 -0.1594 -0.1478
14194TIP3    H264074   5.797   2.848   2.513  0.8163 -0.1983 -0.7966
14195TIP3   OH264075   4.889   3.855  13.104 -0.7116 -0.2914 -0.0720
14195TIP3    H164076   4.804   3.879  13.068 -0.1402  1.8380 -0.1557
14195TIP3    H264077   4.941   3.830  13.028 -0.4356  1.2058 -0.4126
14196TIP3   OH264078   0.889   5.904   1.074 -0.1249  0.5018 -0.0676
14196TIP3    H164079   0.797   5.877   1.082 -0.0248  0.5894  1.9457
14196TIP3    H264080   0.936   5.846   1.135  1.3222 -0.1867 -1.7707
14197TIP3   OH264081   2.053   1.333  15.763  0.4112  0.4838 -0.2745
14197TIP3    H164082   2.023   1.415  15.722  1.4291  1.0791  0.1376
14197TIP3    H264083   2.145   1.348  15.781  1.0144 -1.3117 -1.5382
14198TIP3   OH264084   6.530   5.809  15.599 -0.1099 -0.0249 -0.3126
14198TIP3    H164085   6.496   5.804  15.509 -0.9870 -0.1069  0.0175
14198TIP3    H264086   6.570   5.723  15.614 -1.1880 -0.5119 -0.1502
14199TIP3   OH264087   4.168   3.108   0.213  0.1928  0.2480 -1.1669
14199TIP3    H164088   4.237   3.131   0.275 -0.5239 -1.1663  0.2518
14199TIP3    H264089   4.088   3.107   0.266 -0.1137 -3.3406 -1.4281
14200TIP3   OH264090   2.931   1.450  12.828 -0.3700  0.2840 -0.1597
14200TIP3    H164091   2.906   1.538  12.858 -1.1584  0.3007 -0.8086
14200TIP3    H264092   3.007   1.427  12.881  0.6318  1.8769 -0.8248
14201TIP3   OH264093   5.970   6.718   1.855 -0.2703  0.2049  0.5887
14201TIP3    H164094   5.956   6.631   1.891 -0.9572 -0.4443 -1.1318
14201TIP3    H264095   5.905   6.726   1.785 -0.2545  2.1268  0.7261
14202TIP3   OH264096   1.131   6.472   6.050 -0.2729  0.6546 -0.2447
14202TIP3    H164097   1.170   6.558   6.032 -0.4251  0.7274 -0.2363
14202TIP3    H264098   1.039   6.483   6.026 -0.3243  0.5384 -0.0998
14203TIP3   OH264099   0.020   5.549  11.143 -0.3753  1.4089  0.1788
14203TIP3    H164100  -0.018   5.569  11.228  0.4243  1.2975  0.5706
14203TIP3    H264101  -0.050   5.507  11.094  0.2101 -2.2881  2.1522
14204TIP3   OH264102   3.025   5.086  13.617  0.3948  0.0820  0.3964
14204TIP3    H164103   2.950   5.027  13.620  1.6748 -1.5806  0.8070
14204TIP3    H264104   3.079   5.061  13.691  1.6126  0.9224 -0.1725
14205TIP3   OH264105   1.904   2.749  14.988 -0.4998  0.0354 -0.7987
14205TIP3    H164106   1.955   2.761  14.908  0.5116  0.5899 -0.0964
14205TIP3    H264107   1.898   2.654  15.000  1.7956 -0.0791 -0.0504
14206TIP3   OH264108   3.555   1.479  12.314  0.3244 -0.3338  0.0712
14206TIP3    H164109   3.515   1.393  12.327  0.3529 -0.3775 -0.1210
14206TIP3    H264110   3.546   1.496  12.220  0.0739 -0.0038  0.1516
14207TIP3   OH264111   0.603   2.977   3.320  0.3383 -0.0910 -0.4142
14207TIP3    H164112   0.590   2.921   3.397  3.3475  0.1233  0.3999
14207TIP3    H264113   0.675   2.934   3.273  0.3561  1.2450 -1.6501
14208TIP3   OH264114   3.513   6.377  14.120  0.0120 -0.1204 -0.0335
14208TIP3    H164115   3.443   6.377  14.185 -0.8402 -2.3268 -0.8673
14208TIP3    H264116   3.526   6.470  14.099 -0.3786  0.5792  2.4970
14209TIP3   OH264117   3.723   0.737  12.885  0.4258 -0.6793 -0.0541
14209TIP3    H164118   3.818   0.749  12.881  0.7306 -2.2816  0.9641
14209TIP3    H264119   3.687   0.825  12.878  1.9465 -0.0874 -1.0802
14210TIP3   OH264120   5.359   5.737   4.111  0.0971 -0.2273  0.6748
14210TIP3    H164121   5.356   5.802   4.181  1.7020 -1.3206  1.8079
14210TIP3    H264122   5.306   5.664   4.143  0.8496 -0.7404  0.7632
14211TIP3   OH264123   0.083   0.630  14.358 -0.3402 -0.1305 -0.1267
14211TIP3    H164124   0.154   0.574  14.330 -1.2779 -2.3909  1.7024
14211TIP3    H264125   0.005   0.593  14.316 -0.7172  1.2145 -0.6712
14212TIP3   OH264126   5.342   4.045   3.027 -0.0277  0.3561 -0.2307
14212TIP3    H164127   5.314   4.044   2.935 -0.7210  1.0587 -0.0317
14212TIP3    H264128   5.280   4.103   3.071  0.8821  0.7969  0.5017
14213TIP3   OH264129   2.596   4.468  14.071 -0.0635 -0.0409 -0.1948
14213TIP3    H164130   2.652   4.439  13.999  0.8725 -0.3783  0.6359
14213TIP3    H264131   2.656   4.511  14.132 -0.6743 -0.5436  0.7956
14214TIP3   OH264132   6.537   5.879   4.090  0.4135  0.7276  0.4360
14214TIP3    H164133   6.566   5.801   4.137  0.1540 -0.6359 -1.5387
14214TIP3    H264134   6.442   5.869   4.084  0.5417  0.2475 -1.3292
14215TIP3   OH264135   2.827   5.009  16.938 -0.2902 -0.1160 -0.5541
14215TIP3    H164136   2.850   4.936  16.995 -0.4749 -1.3767 -2.0372
14215TIP3    H264137   2.911   5.041  16.905 -0.2373  0.0446 -0.2667
14216TIP3   OH264138   3.369   3.852   5.073  0.1101  0.2412 -0.5417
14216TIP3    H164139   3.295   3.912   5.080 -0.5738 -0.5642 -0.7775
14216TIP3    H264140   3.344   3.776   5.127 -0.5319 -1.2989 -2.8587
14217TIP3   OH264141   4.376   5.256  12.175  0.8637 -0.0061  0.5389
14217TIP3    H164142   4.368   5.178  12.231  1.5490  0.1960  0.9277
14217TIP3    H264143   4.286   5.276  12.150  0.8214 -2.5161 -1.7949
14218TIP3   OH264144   0.336   3.123   1.997 -0.9540  0.4678  0.2162
14218TIP3    H164145   0.355   3.032   1.975 -0.3740  0.4149  0.9015
14218TIP3    H264146   0.310   3.163   1.914  0.8815  0.2151 -0.5338
14219TIP3   OH264147   1.695   3.594  13.769  0.2430  0.2364  0.2410
14219TIP3    H164148   1.637   3.629  13.701  1.1224 -0.1620 -0.7342
14219TIP3    H264149   1.731   3.671  13.813 -0.9070  0.4883  0.7715
14220TIP3   OH264150   6.689   2.466   5.376 -0.1078  0.0438 -0.0255
14220TIP3    H164151   6.751   2.538   5.388 -0.7846  0.6983 -0.4162
14220TIP3    H264152   6.668   2.437   5.465 -0.0057  0.4795  0.1403
14221TIP3   OH264153   1.978   1.051   3.310  0.1141  0.1740  0.3279
14221TIP3    H164154   1.986   0.972   3.256  1.4347  1.6693 -1.8285
14221TIP3    H264155   2.053   1.047   3.370 -0.6829 -0.9128  1.2908
14222TIP3   OH264156   0.890   4.751  12.821 -0.0953 -0.8047 -0.1329
14222TIP3    H164157   0.912   4.823  12.761 -1.1233 -0.2020  0.1913
14222TIP3    H264158   0.964   4.691  12.814 -0.5209 -1.1546 -2.6168
14223TIP3   OH264159   3.394   3.825  13.277 -0.2549  0.1765  0.1440
14223TIP3    H164160   3.315   3.817  13.223 -1.0853 -0.0459  1.3415
14223TIP3    H264161   3.401   3.919  13.294  0.6176  0.3748 -1.1894
14224TIP3   OH264162   5.442   2.303   5.181  0.7340 -0.4746 -0.6294
14224TIP3    H164163   5.381   2.377   5.182  0.1243 -0.9576 -0.6734
14224TIP3    H264164   5.526   2.340   5.208  0.0409 -0.0876  1.1596
14225TIP3   OH264165   3.525   2.113  10.718  1.2312 -0.5881 -0.1351
14225TIP3    H164166   3.620   2.102  10.722  1.1622 -0.9111  1.7795
14225TIP3    H264167   3.494   2.032  10.676  1.8357 -0.0171 -1.7505
14226TIP3   OH264168   1.231   1.605  10.982 -0.4035 -0.6884  0.3431
14226TIP3    H164169   1.143   1.624  11.014 -0.2377 -0.4116  0.6423
14226TIP3    H264170   1.240   1.510  10.991 -0.7453 -0.7446  0.1157
14227TIP3   OH264171   0.703   6.792  16.036 -0.0099  0.2859  0.5448
14227TIP3    H164172   0.706   6.878  15.993  0.5436  1.1009  2.1451
14227TIP3    H264173   0.615   6.787  16.072  0.5306  1.0237  2.0418
14228TIP3   OH264174   6.809   4.942   3.694  0.0961 -0.2752 -0.2991
14228TIP3    H164175   6.876   4.894   3.645  1.5446  0.4145  0.9376
14228TIP3    H264176   6.755   4.874   3.733 -0.4042 -0.8460 -1.8726
14229TIP3   OH264177   4.161   4.605  14.549 -0.1382 -0.2275 -0.2558
14229TIP3    H164178   4.239   4.565  14.588 -0.7878 -0.6892  0.6111
14229TIP3    H264179   4.107   4.530  14.521 -0.8843  0.0427  0.4136
14230TIP3   OH264180   0.787   4.222  16.036 -0.4317 -0.2475  0.5203
14230TIP3    H164181   0.840   4.274  15.976  0.9098 -2.2532 -0.1213
14230TIP3    H264182   0.775   4.279  16.112 -1.0674  1.8508 -1.0608
14231TIP3   OH264183   5.103   3.972  11.847  0.0677 -0.1585 -0.3219
14231TIP3    H164184   5.045   3.915  11.897  0.2305 -0.3678 -0.3683
14231TIP3    H264185   5.049   4.047  11.822 -0.1817 -0.3606 -0.3798
14232TIP3   OH264186   1.036   2.954  16.543  0.0449 -0.0611 -0.4614
14232TIP3    H164187   1.015   2.914  16.459 -0.1425 -1.0522  0.0518
14232TIP3    H264188   1.127   2.983  16.533  0.5762 -1.6178 -0.4899
14233TIP3   OH264189   1.392   0.718  11.346  0.3636  0.1775 -0.3922
14233TIP3    H164190   1.483   0.690  11.355  0.1971 -0.5382 -0.8012
14233TIP3    H264191   1.379   0.783  11.415  0.1954 -2.2274  2.0467
14234TIP3   OH264192   6.152   1.078   2.959 -0.0280 -0.3621  0.1460
14234TIP3    H164193   6.150   1.167   2.924  0.9254 -0.7140 -0.8433
14234TIP3    H264194   6.140   1.090   3.053 -1.1537  0.7114 -0.0971
14235TIP3   OH264195   4.015   0.263  15.887 -0.1771 -0.0343  0.2088
14235TIP3    H164196   3.935   0.210  15.884 -0.9554  0.9870  1.5192
14235TIP3    H264197   3.984   0.351  15.906  1.1602  0.7166 -0.9317
14236TIP3   OH264198   5.332   1.362  17.112 -0.2696  0.5943  0.2249
14236TIP3    H164199   5.361   1.308  17.038  0.6409 -0.4362  1.2852
14236TIP3    H264200   5.406   1.420  17.129 -0.1269  0.2353  0.8581
14237TIP3   OH264201   6.251   2.154  12.984 -0.3418 -0.6577 -0.0162
14237TIP3    H164202   6.235   2.249  12.987  0.0677 -0.3639 -3.0991
14237TIP3    H264203   6.338   2.144  13.022 -0.5609  0.1259  0.7441
14238TIP3   OH264204   2.536   2.824   5.773 -0.0352 -0.2796 -0.1750
14238TIP3    H164205   2.616   2.818   5.721  0.0065 -0.2513 -0.1146
14238TIP3    H264206   2.499   2.909   5.749 -0.9568 -1.0119 -1.5017
14239TIP3   OH264207   0.697   1.169   5.614 -0.1517 -0.1305 -0.1390
14239TIP3    H164208   0.768   1.134   5.560  1.7125  2.2026  0.6382
14239TIP3    H264209   0.618   1.130   5.577  1.4723 -2.6444 -1.2032
14240TIP3   OH264210   4.916   2.511   2.397  0.1945 -0.4819 -0.5683
14240TIP3    H164211   4.911   2.476   2.308 -1.2339 -0.3234 -0.5706
14240TIP3    H264212   4.887   2.439   2.453 -1.2462  0.1730 -0.4432
14241TIP3   OH264213   3.757   5.644   0.112  0.8343 -0.6712  0.1949
14241TIP3    H164214   3.827   5.584   0.088 -0.0594 -2.2403  1.3284
14241TIP3    H264215   3.758   5.645   0.208 -0.4855 -0.4866  0.2235
14242TIP3   OH264216   4.389   0.029   6.803 -0.0589 -0.6066 -0.3045
14242TIP3    H164217   4.324  -0.028   6.845 -1.1372  0.2113 -0.7834
14242TIP3    H264218   4.460  -0.029   6.777 -0.6673 -1.5596  0.1062
14243TIP3   OH264219   5.022   3.919   5.225 -0.2137  0.1130 -1.0258
14243TIP3    H164220   4.943   3.951   5.181 -1.4594 -0.4666  0.6882
14243TIP3    H264221   4.997   3.912   5.317  0.8682 -2.9336 -0.8392
14244TIP3   OH264222   0.653   6.365  12.781  0.5256  0.4659  0.3524
14244TIP3    H164223   0.562   6.364  12.752  0.9965 -0.8004 -1.2622
14244TIP3    H264224   0.657   6.301  12.852  0.0085  1.1730  1.0359
14245TIP3   OH264225   3.480   4.734  11.642  0.0200  0.1778  0.3281
14245TIP3    H164226   3.486   4.699  11.730 -0.4547  0.2716  0.4010
14245TIP3    H264227   3.514   4.665  11.585  2.4449  0.9419  0.7550
14246TIP3   OH264228   3.851   3.311  10.774  0.3210 -0.4326  0.3069
14246TIP3    H164229   3.815   3.395  10.802 -0.5630 -0.1499 -1.5637
14246TIP3    H264230   3.946   3.321  10.784  0.2256  0.7722  0.1541
14247TIP3   OH264231   3.280   4.173   2.285 -0.1748  0.3687 -0.1560
14247TIP3    H164232   3.361   4.139   2.247 -1.3234 -0.7201 -1.8044
14247TIP3    H264233   3.279   4.266   2.259  0.4631  0.3465 -0.2778
14248TIP3   OH264234   4.568   3.162   4.041 -0.5081 -0.3370 -1.3446
14248TIP3    H164235   4.578   3.147   4.135 -0.6097  0.3016 -1.2311
14248TIP3    H264236   4.534   3.079   4.008 -1.6552 -0.1840 -0.6184
14249TIP3   OH264237   4.320   5.860   4.600  0.1317  0.1911 -0.4388
14249TIP3    H164238   4.259   5.792   4.631  0.5753 -0.0593 -0.1057
14249TIP3    H264239   4.312   5.930   4.666  1.0401 -0.3216  0.2389
14250TIP3   OH264240   0.321   0.131  14.133  0.1608 -0.5184 -0.1488
14250TIP3    H164241   0.253   0.103  14.073 -0.3104  0.9393 -0.3427
14250TIP3    H264242   0.353   0.050  14.173 -1.3697 -1.2744 -0.3813
14251TIP3   OH264243   5.966   0.457   0.279 -0.6709  0.4067  0.0791
14251TIP3    H164244   6.016   0.530   0.244  0.6808  0.3945  1.8177
14251TIP3    H264245   5.935   0.489   0.364  0.3806 -1.1724  1.1038
14252TIP3   OH264246   3.982   3.567   1.941 -0.1585  0.0697  0.4620
14252TIP3    H164247   3.908   3.605   1.894 -0.8958  0.2792  1.7327
14252TIP3    H264248   4.059   3.597   1.894 -0.8653  0.2600 -0.5935
14253TIP3   OH264249   4.091   6.319  17.000 -0.0460  0.6468 -0.0006
14253TIP3    H164250   4.085   6.231  17.038 -0.3038 -0.2136 -1.8853
14253TIP3    H264251   4.153   6.365  17.056  0.2605 -0.8185  0.9242
14254TIP3   OH264252   3.079   1.099   2.486  0.6028  0.4261 -0.7542
14254TIP3    H164253   3.114   1.099   2.397 -0.7230  1.6798 -1.3153
14254TIP3    H264254   2.997   1.050   2.480  0.7454  0.1047 -0.1225
14255TIP3   OH264255   1.227   3.694  15.149  0.1877  0.3905  0.4036
14255TIP3    H164256   1.249   3.751  15.075 -0.1890  0.4105  0.3041
14255TIP3    H264257   1.295   3.712  15.214  1.3255 -0.6217 -0.4527
14256TIP3   OH264258   1.766   0.713  15.523 -0.6437  0.2909 -0.5250
14256TIP3    H164259   1.772   0.804  15.494 -1.7475  0.5466 -0.0092
14256TIP3    H264260   1.745   0.720  15.616  0.5988 -0.5072 -0.1626
14257TIP3   OH264261   2.125   4.279  11.366 -0.3032  0.9373 -0.5883
14257TIP3    H164262   2.145   4.279  11.273 -1.0141  0.1019 -0.7622
14257TIP3    H264263   2.030   4.296  11.370 -0.7950 -1.4712 -0.1951
14258TIP3   OH264264   6.619   2.376  10.061 -0.1577  0.6923 -0.1925
14258TIP3    H164265   6.693   2.428  10.092  0.3401 -0.2348  0.1984
14258TIP3    H264266   6.619   2.389   9.966  0.7719  0.3769 -0.2505
14259TIP3   OH264267   4.666   5.779  16.568 -0.2662  0.2184 -0.0115
14259TIP3    H164268   4.574   5.795  16.591  0.1951  1.2967  1.2193
14259TIP3    H264269   4.691   5.854  16.514 -0.0702 -0.0208 -0.2565
14260TIP3   OH264270   2.875   1.319  14.011 -0.2782  0.3130  0.7807
14260TIP3    H164271   2.960   1.336  13.970 -1.3993  1.3929 -1.2925
14260TIP3    H264272   2.853   1.230  13.985 -0.1208  0.3154  0.6362
14261TIP3   OH264273   5.249   0.402   4.491 -0.6831 -0.2847  0.3296
14261TIP3    H164274   5.206   0.331   4.538 -0.5647 -0.3352  0.3639
14261TIP3    H264275   5.178   0.457   4.459 -0.8326 -1.0284 -0.6707
14262TIP3   OH264276   5.405   1.169  16.863 -0.5498  0.9327  0.0870
14262TIP3    H164277   5.461   1.158  16.787  1.5877 -1.8685  1.8494
14262TIP3    H264278   5.334   1.107  16.850 -0.6869  1.1043  0.0028
14263TIP3   OH264279   4.968   6.715  14.776  0.3647  0.9277 -0.7962
14263TIP3    H164280   5.032   6.783  14.757  1.4061  0.6423  1.4191
14263TIP3    H264281   4.996   6.640  14.723  1.3626  1.0837 -0.5113
14264TIP3   OH264282   4.881   6.432  16.189  0.3046  0.2974  0.4479
14264TIP3    H164283   4.927   6.491  16.248 -0.1118  1.3179 -0.2088
14264TIP3    H264284   4.897   6.344  16.224  1.5206  0.7441  1.0431
14265TIP3   OH264285   4.710   0.040  15.576 -0.5592 -0.4448  0.8699
14265TIP3    H164286   4.740  -0.037  15.528 -3.8373 -0.1585 -2.1456
14265TIP3    H264287   4.768   0.110  15.548 -0.3646 -0.9719 -0.0930
14266TIP3   OH264288   4.824   6.193  12.531  0.1108  0.3829 -0.2720
14266TIP3    H164289   4.772   6.197  12.612  0.2295  1.1769 -0.2254
14266TIP3    H264290   4.828   6.284  12.502  0.9412  0.2338 -0.6222
14267TIP3   OH264291   0.703   4.212  16.800  0.7928 -0.3931  0.4280
14267TIP3    H164292   0.640   4.162  16.852  0.3194  0.3947  0.6342
14267TIP3    H264293   0.788   4.174  16.823  0.4963 -0.7468  0.9831
14268TIP3   OH264294   5.930   6.745  15.573 -0.0007 -0.4972  0.4506
14268TIP3    H164295   5.872   6.761  15.498  0.9640 -0.2700 -0.2793
14268TIP3    H264296   5.910   6.815  15.634 -0.8160 -0.6924  0.4150
14269TIP3   OH264297   2.288   6.031   1.208  0.1382  0.3603 -0.1165
14269TIP3    H164298   2.342   6.069   1.278 -0.4797  2.6927 -0.8113
14269TIP3    H264299   2.294   5.937   1.222  1.0230  0.6989  2.3280
14270TIP3   OH264300   3.476   2.698  15.011 -0.1560  0.0070 -0.2326
14270TIP3    H164301   3.391   2.741  15.026  0.2169  0.5904  0.2660
14270TIP3    H264302   3.496   2.717  14.919  0.0333  0.9810 -0.0066
14271TIP3   OH264303   6.498   3.660  16.536 -0.0897 -0.4419 -0.3321
14271TIP3    H164304   6.415   3.689  16.497 -0.8954 -0.2943  1.3880
14271TIP3    H264305   6.504   3.567  16.514 -1.8363 -1.0090  1.2838
14272TIP3   OH264306   5.081   4.703  17.006 -0.1315  0.5558 -0.3514
14272TIP3    H164307   5.130   4.785  17.005  1.4863 -0.3736 -1.3837
14272TIP3    H264308   5.134   4.643  16.954 -2.8429 -0.2559 -2.3706
14273TIP3   OH264309   3.461   0.557   2.715  0.0334  0.3560  0.0599
14273TIP3    H164310   3.499   0.482   2.762  3.0737  0.9865 -1.1643
14273TIP3    H264311   3.520   0.630   2.735 -1.5423  1.9036 -0.6613
14274TIP3   OH264312   1.627   5.462  13.233  0.6926  0.3848  0.3142
14274TIP3    H164313   1.707   5.451  13.284 -0.2960  1.3239  2.1714
14274TIP3    H264314   1.653   5.518  13.159  1.9234 -0.1269  0.3344
14275TIP3   OH264315   4.320   0.254   6.010  0.0090 -0.4680  0.3534
14275TIP3    H164316   4.379   0.323   5.981 -0.6876  0.8574  1.8513
14275TIP3    H264317   4.373   0.200   6.069 -0.4057  1.3324  2.5425
14276TIP3   OH264318   1.785   0.982   2.589 -0.3479  0.2187  0.4914
14276TIP3    H164319   1.818   1.065   2.554 -1.1785  0.2628 -0.2112
14276TIP3    H264320   1.719   0.954   2.527 -2.4710  0.7032  2.3945
14277TIP3   OH264321   4.055   5.406  12.966 -0.5533 -0.2303 -0.0879
14277TIP3    H164322   4.148   5.386  12.981 -0.8835 -1.0430  0.9740
14277TIP3    H264323   4.036   5.479  13.024 -0.9152 -0.9800  0.7571
14278TIP3   OH264324   6.207   5.055   0.123 -0.2498  0.5938  0.3852
14278TIP3    H164325   6.169   4.968   0.109  0.6178  0.0911  1.0131
14278TIP3    H264326   6.275   5.061   0.056 -0.8017  1.1075 -0.1398
14279TIP3   OH264327   5.455   6.764   5.793  0.7254  0.4532 -0.1455
14279TIP3    H164328   5.527   6.726   5.844  0.3183 -0.1009  0.0183
14279TIP3    H264329   5.379   6.759   5.850  0.4908  0.7927 -0.4202
14280TIP3   OH264330   1.574   4.642  14.729  0.3201  0.6345 -0.4066
14280TIP3    H164331   1.637   4.591  14.678 -0.0474 -0.7994  0.5256
14280TIP3    H264332   1.514   4.679  14.663 -0.8457 -2.1196 -1.0278
14281TIP3   OH264333   2.633   6.278   6.200 -0.2140 -0.0773  0.3918
14281TIP3    H164334   2.696   6.220   6.157  0.7080  0.7961  0.5284
14281TIP3    H264335   2.577   6.220   6.251  0.8252 -0.8359  0.6902
14282TIP3   OH264336   3.656   6.691   0.583  0.2964  0.1643 -0.1831
14282TIP3    H164337   3.699   6.619   0.630  0.2456  0.4338  0.2843
14282TIP3    H264338   3.716   6.765   0.594 -0.8095  0.8592  1.4587
14283TIP3   OH264339   5.530   1.834  12.076  0.2918  0.4212  0.0368
14283TIP3    H164340   5.468   1.778  12.121 -0.8591  0.4889 -1.3888
14283TIP3    H264341   5.602   1.776  12.052  0.4440  0.1817  1.0408
14284TIP3   OH264342   5.123   0.844  11.341  0.6672 -0.1023 -0.4981
14284TIP3    H164343   5.168   0.760  11.348  1.3534  0.3078  0.1493
14284TIP3    H264344   5.042   0.824  11.294 -0.7761 -1.7522  2.4004
14285TIP3   OH264345   4.441   1.552  16.610  0.1281  0.1666  0.0006
14285TIP3    H164346   4.406   1.539  16.522 -0.2484 -0.4496  0.2351
14285TIP3    H264347   4.427   1.645  16.628 -0.5510  0.1254 -0.2703
14286TIP3   OH264348   3.053   6.021   0.616 -0.1006  0.1198 -0.1221
14286TIP3    H164349   3.139   5.989   0.642  0.6980  0.8158 -1.7970
14286TIP3    H264350   2.997   6.003   0.692  1.5203 -0.2537  1.0315
14287TIP3   OH264351   2.811   4.295  17.162 -0.1111  0.6141 -0.2249
14287TIP3    H164352   2.783   4.228  17.224 -0.1696  1.3792  0.6009
14287TIP3    H264353   2.887   4.336  17.203  1.5620 -0.6727 -1.9238
14288TIP3   OH264354   4.112   3.710   5.401 -0.7703 -0.5273 -0.8330
14288TIP3    H164355   4.123   3.615   5.394  0.0049 -0.5481  0.4482
14288TIP3    H264356   4.200   3.745   5.386 -1.0433  0.0014 -1.2511
14289TIP3   OH264357   1.184   0.302  12.556  0.9529  0.5148  0.1139
14289TIP3    H164358   1.244   0.371  12.584  1.6987  0.1989 -0.6676
14289TIP3    H264359   1.234   0.250  12.493  0.9396 -1.7107  1.8360
14290TIP3   OH264360   0.692   1.263   1.463  0.4435  0.1146  0.3367
14290TIP3    H164361   0.751   1.222   1.400 -0.1371  0.4954 -0.4834
14290TIP3    H264362   0.677   1.351   1.427  0.7721  0.6512  1.4594
14291TIP3   OH264363   3.892   1.895  11.793  0.1451 -0.1553 -0.4822
14291TIP3    H164364   3.861   1.911  11.882  0.3552  1.0033 -0.5964
14291TIP3    H264365   3.985   1.875  11.803 -0.2636 -2.1400 -0.2731
14292TIP3   OH264366   5.268   1.671  13.741  0.4524 -0.0712 -0.1633
14292TIP3    H164367   5.251   1.759  13.707  0.8288 -0.1149 -0.4697
14292TIP3    H264368   5.238   1.612  13.672 -2.6573 -0.3080  1.2354
14293TIP3   OH264369   0.682   5.369   0.319 -0.9416  0.1059  0.7094
14293TIP3    H164370   0.615   5.337   0.258 -0.0774  0.2059 -0.3084
14293TIP3    H264371   0.728   5.290   0.346  1.3150  0.3755 -1.9484
14294TIP3   OH264372   0.079   0.260  13.849  0.0824  0.6599  0.6192
14294TIP3    H164373   0.064   0.166  13.860 -0.9295  0.7419  0.0491
14294TIP3    H264374   0.002   0.301  13.890  1.2402  1.3190  2.2639
14295TIP3   OH264375   5.704   1.614   3.436  0.2851 -0.1171 -0.0910
14295TIP3    H164376   5.718   1.637   3.528 -0.9949  0.5545 -0.0312
14295TIP3    H264377   5.701   1.519   3.435  1.2467 -0.1600  0.4029
14296TIP3   OH264378   3.079   1.148  11.072 -0.4332 -0.7576  0.5380
14296TIP3    H164379   3.037   1.062  11.082 -1.8452 -0.5977 -2.7605
14296TIP3    H264380   3.148   1.133  11.007  0.6563  0.2719  1.4084
14297TIP3   OH264381   5.276   0.352   2.865 -0.3853 -0.1660  0.0466
14297TIP3    H164382   5.215   0.279   2.851  0.3321 -0.7940  0.0696
14297TIP3    H264383   5.326   0.356   2.783 -2.1634  2.0586 -1.0415
14298TIP3   OH264384   3.436   2.859  14.785  0.0400  0.0705  0.8222
14298TIP3    H164385   3.455   2.836  14.694 -0.2100 -2.4442  1.3117
14298TIP3    H264386   3.489   2.936  14.803 -0.3283  0.9648 -1.5965
14299TIP3   OH264387   0.164   6.684   1.165  0.3906  0.5067 -0.0704
14299TIP3    H164388   0.215   6.608   1.137 -2.2781 -1.4453 -0.0742
14299TIP3    H264389   0.145   6.730   1.083  2.0167  1.2336 -0.0723
14300TIP3   OH264390   6.602   6.680  16.465 -0.2284  0.7036 -0.4517
14300TIP3    H164391   6.554   6.690  16.382  0.5945 -0.5445 -1.1089
14300TIP3    H264392   6.540   6.634  16.522 -0.7630  1.4688 -0.4055
14301TIP3   OH264393   2.039   5.726   2.168 -0.5038  0.0828 -0.6517
14301TIP3    H164394   2.101   5.788   2.209  1.3408 -1.7680 -0.4817
14301TIP3    H264395   2.016   5.767   2.085 -1.9811  2.5234  0.8331
14302TIP3   OH264396   4.268   2.640  12.222 -0.4010  0.4074  0.4889
14302TIP3    H164397   4.178   2.609  12.220 -0.3312  0.2280 -0.0779
14302TIP3    H264398   4.287   2.665  12.131  0.5285 -0.7580  0.3404
14303TIP3   OH264399   3.958   0.932  13.886 -0.7477  0.2638 -0.2851
14303TIP3    H164400   3.897   0.879  13.835 -2.7914  1.9947  0.2317
14303TIP3    H264401   3.944   0.905  13.977 -0.6377  0.5945 -0.1692
14304TIP3   OH264402   3.206   5.118  10.948  0.7610  0.0411  0.0119
14304TIP3    H164403   3.184   5.090  10.859  1.7558 -0.3814 -0.1057
14304TIP3    H264404   3.183   5.043  11.003 -0.5547  0.5623  0.2343
14305TIP3   OH264405   5.206   1.815   3.923 -0.2114  0.5819 -0.0950
14305TIP3    H164406   5.174   1.749   3.862 -1.9270  1.7998 -0.5995
14305TIP3    H264407   5.175   1.785   4.009  0.7582 -0.2631 -0.0173
14306TIP3   OH264408   3.209   5.920   5.969 -0.3215  0.9314  0.2599
14306TIP3    H164409   3.292   5.922   5.921 -0.2873  0.6912  0.3089
14306TIP3    H264410   3.232   5.885   6.055 -0.2889  1.8521  0.6392
14307TIP3   OH264411   4.468   0.829  13.603  0.0444 -0.1553 -0.0463
14307TIP3    H164412   4.448   0.889  13.532  0.3719 -1.9734 -1.7549
14307TIP3    H264413   4.387   0.780  13.617  0.0072  0.1232  0.8019
14308TIP3   OH264414   2.524   4.136  12.084  0.6824  0.3547  0.3345
14308TIP3    H164415   2.550   4.224  12.057 -0.6725  1.1811  1.5724
14308TIP3    H264416   2.443   4.119  12.036  0.0053  0.5182  1.3927
14309TIP3   OH264417   3.955   3.152   5.301 -0.1246  0.7055  0.2306
14309TIP3    H164418   3.876   3.121   5.257 -0.5728 -0.2302  1.6129
14309TIP3    H264419   3.957   3.246   5.283 -1.1461  0.6111 -0.4395
14310TIP3   OH264420   2.048   3.285  12.469 -0.1932 -0.3692  0.0850
14310TIP3    H164421   2.086   3.332  12.543 -0.3380 -0.6091  0.3145
14310TIP3    H264422   2.085   3.328  12.392  2.4492 -2.0444  0.2704
14311TIP3   OH264423   5.314   2.488  12.974 -0.2497 -0.1297  0.4170
14311TIP3    H164424   5.238   2.455  13.022 -1.7760  1.5848 -0.7109
14311TIP3    H264425   5.284   2.498  12.884  0.0915  3.9260  0.5587
14312TIP3   OH264426   2.360   6.380  11.806  0.3611 -0.2122 -0.0253
14312TIP3    H164427   2.335   6.446  11.871  0.4606 -0.4210  0.2298
14312TIP3    H264428   2.420   6.426  11.747 -1.8162  0.7705 -1.6255
14313TIP3   OH264429   5.770   2.235   1.490  0.2227 -0.5291  0.3241
14313TIP3    H164430   5.783   2.149   1.452  2.6701  0.0103 -0.1926
14313TIP3    H264431   5.689   2.267   1.450  0.2628 -1.8559 -0.8640
14314TIP3   OH264432   1.347   4.752  17.009 -0.3918 -0.6307  0.0667
14314TIP3    H164433   1.405   4.826  16.989 -1.9743  0.1756 -1.9506
14314TIP3    H264434   1.335   4.756  17.104  0.2116  1.2358  0.1107
14315TIP3   OH264435   4.810   5.315  16.221 -0.2352 -0.1733  0.2320
14315TIP3    H164436   4.823   5.407  16.244  0.1420 -0.3192  0.6262
14315TIP3    H264437   4.899   5.281  16.210 -0.3718 -0.5090  0.1741
14316TIP3   OH264438   4.287   2.065   4.966 -0.2100 -0.4185 -0.1442
14316TIP3    H164439   4.254   1.981   4.998 -0.1478 -0.1367  0.6928
14316TIP3    H264440   4.300   2.117   5.045  1.2014 -0.1381 -0.5343
14317TIP3   OH264441   3.619   0.733  16.299  0.0030 -0.4165 -0.2811
14317TIP3    H164442   3.651   0.644  16.290 -3.3140 -1.6502 -1.4820
14317TIP3    H264443   3.575   0.734  16.384  1.0194  0.4746  0.2545
14318TIP3   OH264444   0.897   3.478  10.128 -0.5937  0.3083  0.2534
14318TIP3    H164445   0.907   3.421  10.051  1.0104 -0.9518  1.3335
14318TIP3    H264446   0.984   3.477  10.169  0.0219  4.7389 -0.4475
14319TIP3   OH264447   3.038   2.760   0.473 -0.6130 -0.0299 -0.4039
14319TIP3    H164448   3.088   2.775   0.554 -0.6147 -0.5920 -0.2948
14319TIP3    H264449   3.023   2.666   0.471 -2.3706  0.2069 -0.0315
14320TIP3   OH264450   0.278   0.852  11.251 -0.4143 -0.1326 -0.2873
14320TIP3    H164451   0.319   0.826  11.168 -0.2221  2.1907 -1.0038
14320TIP3    H264452   0.344   0.831  11.317  0.6042  0.4640 -1.0640
14321TIP3   OH264453   2.674   6.208  15.677 -0.0724 -0.2829 -0.1015
14321TIP3    H164454   2.715   6.173  15.598  2.4469  4.2231 -1.1217
14321TIP3    H264455   2.737   6.270  15.712 -2.4214  0.3064  3.7597
14322TIP3   OH264456   2.025   3.535   1.836  0.2326 -0.2877  0.2563
14322TIP3    H164457   1.944   3.585   1.825 -0.2321 -0.7941  1.2619
14322TIP3    H264458   2.037   3.491   1.751 -0.4138 -0.0242  0.0234
14323TIP3   OH264459   0.385   0.537   2.474  0.1295 -0.2845 -0.1938
14323TIP3    H164460   0.395   0.445   2.501  0.0250 -0.1471  0.3339
14323TIP3    H264461   0.292   0.555   2.489 -0.1641 -0.4955 -1.6160
14324TIP3   OH264462   2.235   3.571  14.282  0.2129 -0.2243  0.7214
14324TIP3    H164463   2.303   3.626  14.243  0.4658 -0.1985  1.1850
14324TIP3    H264464   2.165   3.569  14.217 -0.4848  1.9371  1.3038
14325TIP3   OH264465   5.703   0.576   5.782 -0.1665 -0.1038 -0.1182
14325TIP3    H164466   5.649   0.654   5.769  0.1487  0.2053  0.4147
14325TIP3    H264467   5.707   0.563   5.876 -0.8493 -1.2247 -0.2229
14326TIP3   OH264468   4.973   3.140  11.599 -0.3944  0.3525 -0.4489
14326TIP3    H164469   4.919   3.101  11.667 -0.3521  0.2724 -0.4612
14326TIP3    H264470   4.957   3.234  11.606 -1.3328  0.2585 -1.1285
14327TIP3   OH264471   0.729   4.718   2.747  0.3344 -0.5618 -1.0247
14327TIP3    H164472   0.668   4.735   2.675  0.3601  1.3901 -0.6558
14327TIP3    H264473   0.677   4.729   2.826  0.4700 -2.0111 -0.7082
14328TIP3   OH264474   5.322   3.928   4.596 -0.0746 -0.2452 -0.1031
14328TIP3    H164475   5.398   3.981   4.572  0.8608 -1.4863 -0.0032
14328TIP3    H264476   5.247   3.978   4.564  0.8781  0.1332 -1.8996
14329TIP3   OH264477   4.427   1.031  14.901  0.0905  0.1944 -0.6517
14329TIP3    H164478   4.431   0.936  14.888 -3.2737 -0.5340  2.1660
14329TIP3    H264479   4.490   1.049  14.970 -0.5313 -0.3530  0.0767
14330TIP3   OH264480   2.184   1.428  15.147  0.1899  0.3139 -0.6648
14330TIP3    H164481   2.276   1.436  15.172  0.1103  0.7050 -0.4853
14330TIP3    H264482   2.170   1.334  15.136  0.8775  0.3171 -1.7044
14331TIP3   OH264483   3.683   3.401  12.183  0.7427  0.1281  0.1791
14331TIP3    H164484   3.748   3.344  12.141 -1.0660  0.0768 -2.8459
14331TIP3    H264485   3.722   3.424  12.267  3.1777 -2.5596 -0.0640
14332TIP3   OH264486   2.799   6.460  12.243  0.2357 -0.2598  0.4977
14332TIP3    H164487   2.704   6.462  12.232  0.3981  0.5492 -1.1061
14332TIP3    H264488   2.829   6.406  12.169  1.1410  1.2706 -0.2888
14333TIP3   OH264489   6.419   5.576  14.619  0.0616 -0.3467  0.4052
14333TIP3    H164490   6.394   5.521  14.545 -0.6967  0.7087 -0.1579
14333TIP3    H264491   6.474   5.645  14.581  0.7237 -0.5101  1.0397
14334TIP3   OH264492   5.440   2.308  17.056  0.3636  0.3771 -0.1750
14334TIP3    H164493   5.406   2.253  16.985 -1.3755  0.7250  0.3579
14334TIP3    H264494   5.531   2.326  17.030  0.9314 -2.4482 -0.5230
14335TIP3   OH264495   2.672   6.390   5.091  0.2899 -0.3098  0.0987
14335TIP3    H164496   2.609   6.322   5.069  0.1958 -0.7406  1.5682
14335TIP3    H264497   2.700   6.369   5.180  2.6490 -0.2255 -0.5504
14336TIP3   OH264498   1.673   6.077  11.673 -0.3662  0.7605 -0.1943
14336TIP3    H164499   1.759   6.050  11.703 -0.2000  2.9674  1.5681
14336TIP3    H264500   1.683   6.088  11.578  1.1203  0.4137 -0.0998
14337TIP3   OH264501   0.313   5.811   0.980 -0.0344 -0.3176 -0.0643
14337TIP3    H164502   0.394   5.777   1.017  0.8800 -1.4073 -2.7611
14337TIP3    H264503   0.328   5.905   0.970  0.5725 -0.3842  0.2263
14338TIP3   OH264504   0.071   4.290  15.262 -0.8361  0.3740  0.1559
14338TIP3    H164505   0.016   4.236  15.206  0.6131  1.4164 -2.4522
14338TIP3    H264506   0.129   4.228  15.306 -0.7592 -0.3955 -0.9758
14339TIP3   OH264507   4.332   5.609  12.262  0.0783  0.3779  0.4459
14339TIP3    H164508   4.369   5.525  12.290 -0.7109  0.0016  0.3905
14339TIP3    H264509   4.359   5.671  12.330  2.2788  0.5048 -0.4639
14340TIP3   OH264510   1.017   4.497   2.541 -0.4382 -0.3316  0.4346
14340TIP3    H164511   1.017   4.474   2.448  2.5481  1.6775 -0.2035
14340TIP3    H264512   1.052   4.586   2.544 -3.6985  1.0887  3.3109
14341TIP3   OH264513   3.198   2.701  14.731 -0.5100 -0.2012  0.2690
14341TIP3    H164514   3.223   2.619  14.687 -0.0737  0.1737 -0.1919
14341TIP3    H264515   3.250   2.702  14.811 -1.3923 -0.9435  0.8739
14342TIP3   OH264516   3.663   0.772   4.392 -0.2516 -0.1232 -0.3027
14342TIP3    H164517   3.707   0.858   4.393 -0.9552  0.2489 -0.4865
14342TIP3    H264518   3.672   0.742   4.302 -1.9474  0.8125 -0.8458
14343TIP3   OH264519   2.245   2.882  12.934 -0.1706 -0.6383  0.5895
14343TIP3    H164520   2.271   2.803  12.885 -0.9120 -2.2940  2.6998
14343TIP3    H264521   2.309   2.948  12.907 -0.4788 -1.4149 -2.5056
14344TIP3   OH264522   6.271   5.829  16.560  0.4477 -0.1495 -0.0052
14344TIP3    H164523   6.232   5.768  16.622 -1.0764  1.6034  0.8570
14344TIP3    H264524   6.212   5.829  16.484 -0.1395  0.9432  0.4205
14345TIP3   OH264525   2.572   2.596   4.407 -0.2012  0.1252 -0.0913
14345TIP3    H164526   2.585   2.597   4.312  0.3724 -0.3751 -0.0254
14345TIP3    H264527   2.608   2.512   4.435 -2.3315 -0.7331  0.3065
14346TIP3   OH264528   4.817   4.391  12.254 -0.1873  0.3700 -0.6209
14346TIP3    H164529   4.898   4.439  12.236  0.6512 -1.5782 -2.3430
14346TIP3    H264530   4.777   4.377  12.168 -1.1574 -0.7317 -0.0166
14347TIP3   OH264531   5.656   3.043  12.852  0.3074  0.6102  0.0881
14347TIP3    H164532   5.606   3.073  12.928  0.3738 -0.3792  0.5366
14347TIP3    H264533   5.591   3.033  12.783 -0.6189 -2.6720  1.2131
14348TIP3   OH264534   3.269   6.309   2.047 -0.0739 -0.1141  0.3744
14348TIP3    H164535   3.224   6.230   2.018 -0.2546  0.1122  0.0344
14348TIP3    H264536   3.230   6.379   1.995 -2.2228  0.7191  2.8549
14349TIP3   OH264537   1.270   5.207  10.873 -0.1692 -0.7880 -0.5828
14349TIP3    H164538   1.204   5.201  10.804 -1.7513  0.6131  0.7162
14349TIP3    H264539   1.307   5.294  10.863  1.4311 -1.5055 -1.1944
14350TIP3   OH264540   1.902   4.190   4.179 -0.2060 -0.1865 -0.6291
14350TIP3    H164541   1.871   4.100   4.174 -1.7066  0.1686  1.0872
14350TIP3    H264542   1.996   4.183   4.164 -0.6238 -1.6765 -3.1310
14351TIP3   OH264543   4.277   6.432   1.604 -0.1589  0.4079 -0.1713
14351TIP3    H164544   4.314   6.445   1.517 -1.3390 -2.3941 -1.2458
14351TIP3    H264545   4.312   6.347   1.632 -2.1838 -0.2176  0.6636
14352TIP3   OH264546   1.258   5.314   5.553 -0.2526  0.4371  0.0396
14352TIP3    H164547   1.255   5.286   5.462 -1.3574  1.6767 -0.3268
14352TIP3    H264548   1.180   5.368   5.565  0.1188  0.6838  1.5898
14353TIP3   OH264549   0.474   3.121  15.394  0.0910  0.5597 -0.5499
14353TIP3    H164550   0.426   3.185  15.446  0.3296  0.7076 -0.5080
14353TIP3    H264551   0.467   3.039  15.442  0.2599  0.6829 -0.3156
14354TIP3   OH264552   1.334   4.549   2.431 -0.7232  0.2458  0.0005
14354TIP3    H164553   1.283   4.628   2.414  0.9940  1.3686 -0.1410
14354TIP3    H264554   1.354   4.553   2.525 -1.6849 -0.6991  0.2646
14355TIP3   OH264555   5.032   6.680   0.808 -0.5455 -0.6192 -0.2321
14355TIP3    H164556   4.986   6.688   0.724 -2.0941 -0.0451  0.6141
14355TIP3    H264557   5.026   6.768   0.847 -1.3583 -1.2663  1.1959
14356TIP3   OH264558   3.958   2.264   5.695 -0.4274 -0.1958  0.0164
14356TIP3    H164559   3.878   2.212   5.690 -0.2747 -0.5252  0.8278
14356TIP3    H264560   3.976   2.290   5.604 -0.6302 -1.3748 -0.3787
14357TIP3   OH264561   1.832   4.893   5.407 -0.0502 -0.4025  0.9610
14357TIP3    H164562   1.906   4.898   5.346  0.0898  0.7073  1.1961
14357TIP3    H264563   1.771   4.960   5.377 -0.9446 -1.2675  0.8141
14358TIP3   OH264564   6.522   1.903   6.732 -0.3697 -0.8095  0.3444
14358TIP3    H164565   6.569   1.820   6.729 -0.1958 -0.6889 -0.9620
14358TIP3    H264566   6.473   1.900   6.814  1.8385 -0.9605  1.7369
14359TIP3   OH264567   3.096   4.490   1.072 -0.0117  0.3888  0.1139
14359TIP3    H164568   3.074   4.583   1.079  0.3702  0.4771  0.1264
14359TIP3    H264569   3.157   4.474   1.143  0.4788  0.2914 -0.3236
14360TIP3   OH264570   3.627   4.056   4.171  0.3140 -0.0823 -0.3094
14360TIP3    H164571   3.535   4.065   4.193  0.4485 -0.2575  0.3512
14360TIP3    H264572   3.669   4.132   4.213  0.3650  0.4232 -1.2540
14361TIP3   OH264573   1.486   0.904   2.651 -0.8571 -0.2050 -0.1939
14361TIP3    H164574   1.510   0.994   2.673 -0.4493 -0.4065  0.2079
14361TIP3    H264575   1.521   0.890   2.563  2.0726 -1.0277  0.9926
14362TIP3   OH264576   1.586   0.433   4.986 -0.0110 -1.1921  0.1348
14362TIP3    H164577   1.564   0.360   4.927 -0.4625 -0.8301 -0.1514
14362TIP3    H264578   1.501   0.465   5.016  0.1200 -0.0443 -0.6515
14363TIP3   OH264579   6.094   3.625   2.988  0.6080  0.5695 -0.3450
14363TIP3    H164580   6.013   3.574   2.996 -0.1324  1.5907 -1.0133
14363TIP3    H264581   6.128   3.603   2.901  0.7998  0.4963 -0.2517
14364TIP3   OH264582   3.897   6.069  15.342 -0.2101 -0.7629 -0.1052
14364TIP3    H164583   3.951   6.137  15.303  1.3139 -2.2219 -0.6400
14364TIP3    H264584   3.868   6.107  15.425  1.1925  0.2786 -0.0522
14365TIP3   OH264585   1.364   1.509  15.672 -0.6946 -0.2646 -1.1080
14365TIP3    H164586   1.376   1.499  15.766  0.5559  0.8493 -1.1260
14365TIP3    H264587   1.285   1.563  15.663 -0.9531 -0.5720 -0.7340
14366TIP3   OH264588   0.282   1.686  13.617 -0.6272  0.0894  0.1785
14366TIP3    H164589   0.372   1.658  13.602 -0.3228  0.6231  0.9228
14366TIP3    H264590   0.258   1.646  13.701 -0.8976  0.3812  0.2424
14367TIP3   OH264591   0.798   0.719   2.125 -0.0917 -0.4729  0.2851
14367TIP3    H164592   0.735   0.653   2.154 -0.2920  0.1455  1.3036
14367TIP3    H264593   0.747   0.777   2.069  0.3317 -1.7581 -1.4955
14368TIP3   OH264594   6.034   6.428   5.168  1.0867  0.0520 -0.3137
14368TIP3    H164595   6.099   6.386   5.111  1.6717  0.7968 -0.2130
14368TIP3    H264596   6.023   6.367   5.241  1.0710 -0.4508 -0.7331
14369TIP3   OH264597   0.216   1.670   5.011 -0.0437 -0.5254 -0.0746
14369TIP3    H164598   0.269   1.726   4.956 -2.1187  0.8848 -0.7487
14369TIP3    H264599   0.186   1.600   4.953 -1.5952  0.5337 -0.6097
14370TIP3   OH264600   4.421   0.618  11.095  0.1963 -0.3548 -0.2170
14370TIP3    H164601   4.345   0.655  11.049 -0.9467  0.6127  2.2654
14370TIP3    H264602   4.494   0.630  11.035 -0.9862  1.9088 -1.3085
14371TIP3   OH264603   1.841   4.736   3.297 -0.1490 -0.4588  0.6208
14371TIP3    H164604   1.916   4.795   3.311  1.3388 -1.8224 -1.1291
14371TIP3    H264605   1.791   4.778   3.226  0.5715 -0.9342 -0.1948
14372TIP3   OH264606   6.336   5.549  15.516 -0.0163 -0.2548  0.7475
14372TIP3    H164607   6.345   5.632  15.469 -1.2733 -1.4744 -1.8741
14372TIP3    H264608   6.426   5.520  15.530  0.4380  1.4917  1.6902
14373TIP3   OH264609   0.839   2.334  15.423 -0.1146 -0.3221 -0.3615
14373TIP3    H164610   0.757   2.314  15.377  1.1774 -0.4915 -2.7530
14373TIP3    H264611   0.892   2.379  15.358  1.1895  1.0637  1.5802
14374TIP3   OH264612   2.909   4.003   3.536  0.0699 -0.1536 -0.2037
14374TIP3    H164613   2.904   3.908   3.543 -1.2664 -0.2821 -2.2281
14374TIP3    H264614   3.002   4.022   3.525  0.5392 -1.0484  1.8162
14375TIP3   OH264615   0.901   5.276  14.015  0.3421  0.0763 -0.2434
14375TIP3    H164616   0.952   5.195  14.022  0.3456 -0.0223 -1.2145
14375TIP3    H264617   0.829   5.253  13.956 -1.8777 -0.3002  2.4160
14376TIP3   OH264618   5.025   6.811   3.725 -0.1645  0.6036 -0.1861
14376TIP3    H164619   4.955   6.787   3.665 -0.2079  0.1580  0.0460
14376TIP3    H264620   4.983   6.865   3.792 -0.0517  1.4036 -0.7480
14377TIP3   OH264621   5.549   4.870  13.538  0.2951 -0.0201  0.3153
14377TIP3    H164622   5.561   4.912  13.453  0.0022  0.4810  0.5168
14377TIP3    H264623   5.455   4.878  13.555  0.0359 -1.7113 -0.1260
14378TIP3   OH264624   6.608   3.437  12.004 -0.0318  0.1098 -0.0117
14378TIP3    H164625   6.596   3.531  12.013  1.1007  0.1760  1.0157
14378TIP3    H264626   6.534   3.409  11.949  0.0335  1.6877 -0.9754
14379TIP3   OH264627   4.328   6.501  12.545 -0.0475 -0.2839 -0.0229
14379TIP3    H164628   4.396   6.543  12.493 -0.1644 -0.0645  0.0002
14379TIP3    H264629   4.357   6.410  12.554  0.0874 -0.2683 -0.2780
14380TIP3   OH264630   2.261   6.573   3.313  0.2652 -0.5118  1.4303
14380TIP3    H164631   2.320   6.629   3.364 -0.0494 -0.5222  1.8099
14380TIP3    H264632   2.216   6.633   3.254 -1.2769 -0.0919  2.9583
14381TIP3   OH264633   2.840   2.695  14.093  0.0314 -0.5905  0.0624
14381TIP3    H164634   2.851   2.788  14.112  0.7246 -0.8677  1.0838
14381TIP3    H264635   2.906   2.676  14.026 -0.7220 -0.1606 -0.8196
14382TIP3   OH264636   1.471   2.935  17.204 -0.2346 -0.4069 -0.0096
14382TIP3    H164637   1.415   2.910  17.278  0.1728 -1.4969 -0.0559
14382TIP3    H264638   1.502   3.022  17.226 -1.1709 -0.1879  0.4826
14383TIP3   OH264639   3.887   5.187   4.519 -0.0749 -0.4710  0.0454
14383TIP3    H164640   3.937   5.261   4.552 -1.3118  0.2155  0.4313
14383TIP3    H264641   3.869   5.133   4.596  2.2201 -2.0922 -0.4602
14384TIP3   OH264642   1.552   1.186   4.107  0.2959 -0.4341  0.1578
14384TIP3    H164643   1.482   1.122   4.121  0.6446 -0.7643  0.4517
14384TIP3    H264644   1.551   1.240   4.187 -2.3780  2.3255 -1.5430
14385TIP3   OH264645   6.743   5.996  13.640 -0.5946  0.0053 -0.5409
14385TIP3    H164646   6.697   5.950  13.710 -1.0901 -0.6984 -1.3136
14385TIP3    H264647   6.814   6.043  13.685 -1.6700  0.6119  0.5918
14386TIP3   OH264648   5.431   2.393  12.426  0.3527  0.3763 -0.0508
14386TIP3    H164649   5.505   2.371  12.482  2.1495  1.0860 -1.9944
14386TIP3    H264650   5.358   2.341  12.460  1.5530  0.1117  2.3252
14387TIP3   OH264651   5.182   6.284  14.977  0.2510 -0.1718 -0.1286
14387TIP3    H164652   5.193   6.229  15.055  0.0318  0.3256  0.2539
14387TIP3    H264653   5.158   6.222  14.908 -2.0588 -0.3479  0.7606
14388TIP3   OH264654   6.655   5.481  12.293 -0.6042 -0.3030 -0.5054
14388TIP3    H164655   6.707   5.456  12.217 -0.8984 -0.6515 -0.5936
14388TIP3    H264656   6.650   5.402  12.347  1.1997  0.4271  0.8352
14389TIP3   OH264657   0.193   0.206   1.404 -0.0287 -0.2851 -0.8220
14389TIP3    H164658   0.210   0.297   1.380 -0.5632  0.3367  0.9751
14389TIP3    H264659   0.239   0.195   1.487 -1.9006 -0.9043  0.1927
14390TIP3   OH264660   6.122   5.531   1.873 -0.6931  0.1970  0.2043
14390TIP3    H164661   6.159   5.445   1.894 -0.8909 -0.0687 -0.4803
14390TIP3    H264662   6.077   5.517   1.789 -0.7447  0.9642  0.0982
14391TIP3   OH264663   6.754   3.697  16.485 -0.3166  0.4461 -0.0175
14391TIP3    H164664   6.660   3.693  16.503 -0.3851  1.4519 -0.0562
14391TIP3    H264665   6.781   3.606  16.476 -0.9704  0.0585  1.5902
14392TIP3   OH264666   5.620   3.098  11.426  0.6807  0.2592 -0.7625
14392TIP3    H164667   5.698   3.100  11.370 -0.2855  3.5895 -2.2640
14392TIP3    H264668   5.655   3.106  11.515  2.1100 -0.8320 -1.1890
14393TIP3   OH264669   2.132   5.783  16.597  0.4907  0.5530 -0.3190
14393TIP3    H164670   2.079   5.859  16.574  0.0822  0.3060 -0.2123
14393TIP3    H264671   2.217   5.819  16.621  0.3169  0.9716 -0.3182
14394TIP3   OH264672   4.620   0.922  13.266  0.4526  0.6009  0.0705
14394TIP3    H164673   4.635   0.923  13.172 -0.4149 -0.6117 -0.1011
14394TIP3    H264674   4.657   0.839  13.296 -0.9775  0.0783  0.4731
14395TIP3   OH264675   5.390   6.691  16.006 -0.3233  0.0663  0.6045
14395TIP3    H164676   5.427   6.610  15.972  0.9611  0.1505  1.7061
14395TIP3    H264677   5.466   6.741  16.037 -1.0381  1.9234 -0.5078
14396TIP3   OH264678   6.720   0.859  12.089 -0.1486  0.4940 -0.5578
14396TIP3    H164679   6.715   0.924  12.159  2.9754  2.4790 -1.9371
14396TIP3    H264680   6.752   0.780  12.132  1.7248  1.6820  0.3783
14397TIP3   OH264681   3.564   1.124  16.027  0.0659 -0.1174 -0.4620
14397TIP3    H164682   3.495   1.184  16.055 -0.0258 -0.4677  0.0782
14397TIP3    H264683   3.518   1.046  15.997  0.2136 -0.2088 -0.4529
14398TIP3   OH264684   3.709   3.197  10.562  0.5335  0.1693 -0.1213
14398TIP3    H164685   3.743   3.260  10.626  0.2583  0.0702  0.1199
14398TIP3    H264686   3.750   3.114  10.587 -0.2202 -0.0417  0.4376
14399TIP3   OH264687   1.366   3.398   6.027 -0.3640  0.1982  0.3379
14399TIP3    H164688   1.344   3.440   6.110 -0.5047 -1.3301  1.1077
14399TIP3    H264689   1.311   3.320   6.024 -0.4787  0.3116 -1.2809
14400TIP3   OH264690   0.212   4.227  11.342 -0.6161  0.5041  0.4530
14400TIP3    H164691   0.151   4.168  11.298  0.5586  0.3366 -1.0503
14400TIP3    H264692   0.161   4.268  11.411 -2.8253  1.3943 -1.5592
14401TIP3   OH264693   4.120   6.098  17.169 -0.1545  0.2235  0.1150
14401TIP3    H164694   4.095   6.137  17.253  1.5358  1.1668  0.2450
14401TIP3    H264695   4.071   6.016  17.165 -0.7881  0.4780  1.7100
14402TIP3   OH264696   0.292   0.149  12.609 -0.1200  0.0818 -0.3731
14402TIP3    H164697   0.296   0.099  12.691 -1.7356  0.8675  0.2277
14402TIP3    H264698   0.274   0.083  12.542  1.0902 -0.5513 -0.1136
14403TIP3   OH264699   1.570   3.073   4.064 -0.5923 -0.2013  0.0522
14403TIP3    H164700   1.598   3.000   4.118  3.6465  0.1489 -1.2735
14403TIP3    H264701   1.546   3.033   3.980  0.6173 -0.2294 -0.3020
14404TIP3   OH264702   2.519   0.022   4.332  0.0132 -0.1925  0.6282
14404TIP3    H164703   2.597   0.001   4.282 -0.0192  0.3188  0.3536
14404TIP3    H264704   2.490  -0.061   4.369  0.8770 -0.3240  1.0132
14405TIP3   OH264705   3.807   6.490  13.060  0.2546 -0.3731 -0.8599
14405TIP3    H164706   3.846   6.405  13.080  2.1956  0.5548 -0.4878
14405TIP3    H264707   3.794   6.531  13.145 -0.6030 -0.2437 -1.0440
14406TIP3   OH264708   1.226   1.962   5.168  0.0687  0.1857  0.1155
14406TIP3    H164709   1.177   2.033   5.211 -2.0862 -0.2837 -1.3692
14406TIP3    H264710   1.264   1.912   5.239  2.0643  3.0236  1.2282
14407TIP3   OH264711   6.274   4.037  14.824 -0.1355  0.0765  0.3627
14407TIP3    H164712   6.255   4.069  14.736  0.3009 -1.7740 -0.4745
14407TIP3    H264713   6.356   4.080  14.848 -1.9428  3.1954  1.3378
14408TIP3   OH264714   3.881   6.187  13.448  0.4108 -0.1071  0.1824
14408TIP3    H164715   3.870   6.245  13.524  0.1386  1.3629 -0.9271
14408TIP3    H264716   3.946   6.232  13.393  0.7082 -1.2128 -0.3943
14409TIP3   OH264717   0.465   3.812  16.697  0.0200  0.4803  0.2163
14409TIP3    H164718   0.474   3.836  16.789 -0.3513 -2.6055  1.1660
14409TIP3    H264719   0.504   3.885  16.649 -0.2395  2.4145  2.7580
14410TIP3   OH264720   5.430   0.472   1.717  0.3700 -0.5353 -0.0519
14410TIP3    H164721   5.524   0.465   1.700  0.2450  0.3250 -1.1890
14410TIP3    H264722   5.417   0.420   1.796  2.1525  1.0639  1.4022
14411TIP3   OH264723   4.910   2.733  11.173  0.8797 -0.5507 -0.2090
14411TIP3    H164724   4.869   2.738  11.259  1.3309 -2.2990  0.1421
14411TIP3    H264725   4.941   2.822  11.156 -1.8834  0.5480  0.0486
14412TIP3   OH264726   4.199   1.260  16.831 -0.1089 -0.0048 -0.0044
14412TIP3    H164727   4.164   1.272  16.920 -0.2511  1.5472 -0.2379
14412TIP3    H264728   4.135   1.204  16.788  0.4970 -1.6825  1.1582
14413TIP3   OH264729   0.712   0.864   3.090 -0.2625 -0.3199  0.0031
14413TIP3    H164730   0.675   0.827   3.171 -2.1090  0.5298 -0.4125
14413TIP3    H264731   0.741   0.952   3.115 -0.4974 -0.1910 -0.1841
14414TIP3   OH264732   2.857   6.730   6.765  0.3295  0.2188  0.1544
14414TIP3    H164733   2.766   6.710   6.740 -0.7881  3.5611  1.0524
14414TIP3    H264734   2.910   6.685   6.700 -1.9950 -1.0608 -0.9798
14415TIP3   OH264735   4.337   6.068   5.702  0.6070 -0.2991 -0.3004
14415TIP3    H164736   4.274   6.093   5.634 -1.6104  0.2978  1.8343
14415TIP3    H264737   4.402   6.015   5.656 -1.7241 -1.3939 -2.6015
14416TIP3   OH264738   5.131   5.570   3.473  0.5096  0.0026  0.4432
14416TIP3    H164739   5.137   5.649   3.526 -0.9863  0.1176  0.4642
14416TIP3    H264740   5.056   5.522   3.508 -0.7762  0.2670 -1.7864
14417TIP3   OH264741   0.396   4.027   1.058 -0.0848 -0.0058  0.2704
14417TIP3    H164742   0.443   3.944   1.061  0.1010  0.1125  1.3127
14417TIP3    H264743   0.307   4.004   1.032 -0.2383 -0.6468  1.3133
14418TIP3   OH264744   2.410   1.705   0.478  0.6443  0.7179 -0.6123
14418TIP3    H164745   2.383   1.770   0.412 -0.1211  0.8259 -0.2048
14418TIP3    H264746   2.433   1.757   0.555 -1.7369  0.4732  0.3504
14419TIP3   OH264747   5.600   2.537  14.063  0.2336 -0.6202 -0.0531
14419TIP3    H164748   5.693   2.543  14.041  0.0719  2.4300 -0.3853
14419TIP3    H264749   5.555   2.548  13.980 -0.3419  3.8313  0.6228
14420TIP3   OH264750   6.600   6.167  16.759  0.1898  0.2915 -0.5434
14420TIP3    H164751   6.574   6.132  16.674  1.2781  0.8677 -1.1463
14420TIP3    H264752   6.614   6.261  16.743  1.1662  0.2670  0.0662
14421TIP3   OH264753   4.471   3.745  15.918 -0.4637 -0.2386  0.5569
14421TIP3    H164754   4.495   3.774  15.830 -1.2015 -0.8771  0.1438
14421TIP3    H264755   4.522   3.665  15.931 -2.4942 -1.7905 -0.4525
14422TIP3   OH264756   6.374   1.704  13.646 -0.2740  0.3683 -0.1511
14422TIP3    H164757   6.312   1.775  13.627  0.4447  1.0706  0.0752
14422TIP3    H264758   6.341   1.663  13.725 -0.1621  1.0925  0.2791
14423TIP3   OH264759   5.258   5.911  14.357  0.3395 -0.9827 -0.2004
14423TIP3    H164760   5.314   5.846  14.315 -0.5046 -2.1776  0.4796
14423TIP3    H264761   5.310   5.944  14.431  0.9694 -0.4689 -0.8531
14424TIP3   OH264762   3.199   2.915   0.325  0.1466 -0.2011 -0.0642
14424TIP3    H164763   3.167   2.895   0.237  0.2165  0.6093 -0.2826
14424TIP3    H264764   3.154   2.852   0.382 -0.6495 -0.0863 -0.5551
14425TIP3   OH264765   5.253   3.680   2.817 -0.4746 -0.1488 -0.2275
14425TIP3    H164766   5.227   3.773   2.816 -1.7599 -0.4463 -2.6101
14425TIP3    H264767   5.344   3.681   2.846 -0.9729  1.6727  1.5005
14426TIP3   OH264768   4.058   1.259  15.818  0.3842  0.4673  0.4879
14426TIP3    H164769   3.974   1.226  15.850  0.0164  0.7830 -0.1395
14426TIP3    H264770   4.037   1.304  15.736  1.0146  1.4348  0.8357
14427TIP3   OH264771   3.810   6.206  11.614 -0.2398 -0.3267 -0.5457
14427TIP3    H164772   3.864   6.127  11.621  0.9929  0.2941 -2.4390
14427TIP3    H264773   3.770   6.201  11.527 -3.0189 -0.5495  0.6202
14428TIP3   OH264774   3.265   4.710   2.144 -0.6400  0.7523 -0.1633
14428TIP3    H164775   3.274   4.616   2.155  1.9976  0.4365 -3.3333
14428TIP3    H264776   3.203   4.720   2.071 -0.9380  1.4943  0.1736
14429TIP3   OH264777   2.289   5.924   1.974 -0.0361 -0.3496  0.4423
14429TIP3    H164778   2.290   5.830   1.991  1.8912 -0.2231  1.3132
14429TIP3    H264779   2.289   5.964   2.061  1.9367  0.3866  0.1707
14430TIP3   OH264780   4.632   0.323   1.124  0.1230  0.1307 -0.1116
14430TIP3    H164781   4.643   0.310   1.218 -0.7941 -0.3306 -0.0583
14430TIP3    H264782   4.613   0.417   1.115 -0.8018 -0.0048  0.2811
14431TIP3   OH264783   0.448   0.077   5.320  0.2989  0.6230  0.1255
14431TIP3    H164784   0.433   0.167   5.289  1.4567  1.0520  0.7661
14431TIP3    H264785   0.405   0.073   5.405 -0.6979  0.2239 -0.3893
14432TIP3   OH264786   1.205   3.608  14.091  0.1444 -0.0643 -0.0133
14432TIP3    H164787   1.236   3.696  14.115 -2.9072  1.3988 -0.8483
14432TIP3    H264788   1.162   3.621  14.007 -3.9310 -1.3458  1.6118
14433TIP3   OH264789   1.969   6.213  15.465 -0.7217 -0.0757  0.2970
14433TIP3    H164790   1.994   6.158  15.540 -2.1222 -0.3342  0.5928
14433TIP3    H264791   1.955   6.151  15.394  1.2535  0.2182 -0.4129
14434TIP3   OH264792   1.768   6.180  10.928  0.8870 -0.0219  0.2402
14434TIP3    H164793   1.683   6.185  10.972 -0.2391 -1.3015 -1.6362
14434TIP3    H264794   1.805   6.096  10.956 -0.2788 -1.3151 -1.8621
14435TIP3   OH264795   6.554   3.911   3.442 -0.4330 -0.2344 -0.5314
14435TIP3    H164796   6.465   3.942   3.458 -0.7153 -0.2212 -1.9656
14435TIP3    H264797   6.575   3.943   3.354  0.5292 -1.2655 -0.6970
14436TIP3   OH264798   5.519   1.169  16.092 -0.1968  0.6469  0.4339
14436TIP3    H164799   5.603   1.159  16.046  0.1219  3.3379  0.2497
14436TIP3    H264800   5.503   1.263  16.092 -3.0009  0.2616  0.9296
14437TIP3   OH264801   6.008   4.870   3.451  0.2756 -0.0959  0.4662
14437TIP3    H164802   6.056   4.848   3.530 -1.7917 -2.3034  1.2497
14437TIP3    H264803   5.916   4.873   3.478 -0.2643  2.4030 -1.2382
14438TIP3   OH264804   0.354   2.168  11.941 -0.5532  0.2043 -0.1126
14438TIP3    H164805   0.318   2.150  12.028  0.4052  2.0054  0.6951
14438TIP3    H264806   0.430   2.111  11.934 -1.8862 -1.6248 -0.7538
14439TIP3   OH264807   2.183   0.191   3.984  0.1550 -0.3587  0.3829
14439TIP3    H164808   2.274   0.172   4.003  0.3772 -0.4726 -0.7186
14439TIP3    H264809   2.151   0.238   4.061  1.4998  0.8328  0.2334
14440TIP3   OH264810   4.129   2.957   5.320 -0.6833  0.1961 -0.5205
14440TIP3    H164811   4.061   3.025   5.315 -0.8024  0.1963  0.8736
14440TIP3    H264812   4.209   3.005   5.343 -0.1421  0.2133 -2.2838
14441TIP3   OH264813   0.459   4.102  13.122 -0.2423  0.0516 -0.1708
14441TIP3    H164814   0.475   4.023  13.175  1.9686  1.2674  1.1450
14441TIP3    H264815   0.370   4.128  13.145  0.0460 -0.4166  1.7327
14442TIP3   OH264816   4.387   3.197  11.132 -0.0229 -0.2216 -0.1215
14442TIP3    H164817   4.372   3.190  11.038 -1.3063  1.7762 -0.1293
14442TIP3    H264818   4.465   3.251  11.139  0.0712 -0.3684 -0.0379
14443TIP3   OH264819   0.023   6.797   3.377 -0.0241 -0.1533  0.3970
14443TIP3    H164820   0.020   6.892   3.373 -1.2099 -0.1972 -0.2760
14443TIP3    H264821  -0.049   6.773   3.435 -0.1244 -0.6515  0.0734
14444TIP3   OH264822   3.026   4.153  12.843 -0.5109  0.6688 -0.3579
14444TIP3    H164823   2.946   4.169  12.892 -0.7432  1.3896 -0.9577
14444TIP3    H264824   3.096   4.187  12.899 -0.8983  2.9173 -1.1328
14445TIP3   OH264825   6.770   2.833   5.952  0.3997  0.0039  0.2483
14445TIP3    H164826   6.731   2.756   5.911 -0.9809 -0.0626  1.5918
14445TIP3    H264827   6.785   2.808   6.043  0.9102  0.9866  0.4550
14446TIP3   OH264828   6.726   2.673   0.677  0.0334 -0.1536 -0.1980
14446TIP3    H164829   6.699   2.584   0.695  1.4808 -0.9739 -1.7272
14446TIP3    H264830   6.813   2.681   0.717 -0.6093  1.0400  1.0626
14447TIP3   OH264831   0.735   4.358   2.451  0.4301 -0.0838 -0.3008
14447TIP3    H164832   0.703   4.305   2.524  0.4470 -1.5281 -1.3157
14447TIP3    H264833   0.813   4.402   2.486  0.6502 -1.0339  0.4435
14448TIP3   OH264834   3.793   1.783   0.481 -0.0308 -0.7543  0.1192
14448TIP3    H164835   3.730   1.855   0.477  1.4279  0.5691 -0.1170
14448TIP3    H264836   3.749   1.715   0.533 -1.1014  0.6673  1.1533
14449TIP3   OH264837   6.235   3.852  14.397 -0.4271  0.2033  0.0155
14449TIP3    H164838   6.317   3.862  14.348  0.2269 -2.1516  0.4639
14449TIP3    H264839   6.260   3.799  14.473 -2.5548 -1.4861 -0.3734
14450TIP3   OH264840   2.207   3.922   3.592  0.0247 -0.0212 -0.0356
14450TIP3    H164841   2.246   3.877   3.667  1.9243 -0.5861 -1.3061
14450TIP3    H264842   2.264   3.997   3.577  1.7687 -1.7387 -2.9470
14451TIP3   OH264843   4.315   0.094   5.688  0.2183 -0.0946 -0.4600
14451TIP3    H164844   4.375   0.031   5.728 -1.4230 -1.8386 -0.6010
14451TIP3    H264845   4.243   0.102   5.750  0.1458  1.2878 -0.6904
14452TIP3   OH264846   3.206   4.420   2.143  0.2377 -0.4174 -0.4482
14452TIP3    H164847   3.114   4.416   2.169 -0.0567  2.8092 -0.5454
14452TIP3    H264848   3.205   4.399   2.049 -0.1767 -1.6266 -0.1958
14453TIP3   OH264849   0.993   5.183   4.251 -0.5891  0.1449 -0.0957
14453TIP3    H164850   1.045   5.110   4.286 -0.2600 -0.0846 -1.0142
14453TIP3    H264851   0.905   5.148   4.244 -0.7519  0.3273  0.8665
14454TIP3   OH264852   5.098   0.561   4.201 -0.0661  0.5384 -0.1665
14454TIP3    H164853   5.009   0.571   4.166 -0.1381 -0.0239 -0.1549
14454TIP3    H264854   5.093   0.594   4.290 -0.6294 -0.8051  0.3363
14455TIP3   OH264855   5.979   0.995  14.285 -0.0414  0.5026  0.2491
14455TIP3    H164856   6.046   1.020  14.348 -0.1798  1.0537  0.1855
14455TIP3    H264857   5.898   0.989  14.336  0.0321 -0.0562  0.3068
14456TIP3   OH264858   3.903   1.859   1.998 -0.2702  0.0780 -0.2630
14456TIP3    H164859   3.885   1.948   1.968  1.3701  0.6271  0.2981
14456TIP3    H264860   3.879   1.804   1.924 -2.4031  0.8505 -0.2153
14457TIP3   OH264861   5.811   6.749  12.732  0.1971 -0.1579 -0.5340
14457TIP3    H164862   5.819   6.675  12.792 -2.2308  0.7088  1.0086
14457TIP3    H264863   5.848   6.823  12.780 -0.0356  0.1751 -0.8635
14458TIP3   OH264864   0.922   6.073   5.300  0.1415  0.0980  0.1357
14458TIP3    H164865   0.980   6.115   5.237 -0.7520 -0.8168 -1.3797
14458TIP3    H264866   0.835   6.106   5.277  0.0138  1.6627  2.5314
14459TIP3   OH264867   4.484   2.363  15.296  0.6830 -0.0103 -0.3736
14459TIP3    H164868   4.450   2.287  15.250  2.2102 -1.3654  0.6072
14459TIP3    H264869   4.446   2.358  15.384  0.8928  0.2806 -0.2614
14460TIP3   OH264870   6.690   1.337  12.773  0.4531  1.0329 -0.2193
14460TIP3    H164871   6.773   1.303  12.804  1.0661  2.9407  0.3538
14460TIP3    H264872   6.701   1.345  12.678  0.2784 -0.3211 -0.3716
14461TIP3   OH264873   0.916   1.636   3.850 -0.1270 -0.1527  0.2703
14461TIP3    H164874   0.826   1.667   3.850  0.0347  0.3422 -0.6886
14461TIP3    H264875   0.932   1.609   3.941 -1.8450 -2.0799  0.0657
14462TIP3   OH264876   4.568   4.617   2.771  0.3894  0.1461  0.2626
14462TIP3    H164877   4.599   4.527   2.768  0.9893  0.3747 -2.0794
14462TIP3    H264878   4.510   4.625   2.696  1.1050  1.9471 -0.1496
14463TIP3   OH264879   3.517   0.313   4.356 -0.4031 -0.3928 -0.3880
14463TIP3    H164880   3.520   0.362   4.274  1.8436 -0.7997 -0.6035
14463TIP3    H264881   3.482   0.227   4.332  1.5707 -1.0121 -1.2698
14464TIP3   OH264882   0.499   2.316   2.523 -0.2899 -0.1089 -0.0976
14464TIP3    H164883   0.408   2.320   2.554 -0.1061 -0.7615  0.5418
14464TIP3    H264884   0.544   2.383   2.572 -0.4056  0.1690 -0.3655
14465TIP3   OH264885   5.967   4.021   0.208 -0.2329 -0.0585  0.3634
14465TIP3    H164886   6.024   3.979   0.144 -0.9328  1.7496 -1.5438
14465TIP3    H264887   6.012   4.007   0.292  2.0058 -0.3584 -0.7948
14466TIP3   OH264888   0.538   5.424   2.666  0.5613 -0.0632  0.3749
14466TIP3    H164889   0.568   5.402   2.754  0.3646  0.5631  0.6033
14466TIP3    H264890   0.487   5.348   2.638 -1.1534  0.5547  1.6249
14467TIP3   OH264891   2.257   2.848  15.546 -0.6097  0.7763  0.3455
14467TIP3    H164892   2.329   2.900  15.582  0.6705 -0.3821 -0.4745
14467TIP3    H264893   2.266   2.857  15.451 -0.6348 -0.5568  0.1967
14468TIP3   OH264894   3.605   2.872   0.129  0.5361 -0.0399  0.2800
14468TIP3    H164895   3.672   2.846   0.066  1.9878  1.4694  1.1024
14468TIP3    H264896   3.637   2.956   0.164 -1.2624  0.1885  1.4933
14469TIP3   OH264897   4.125   6.346  16.279  0.8180 -0.0679 -0.0740
14469TIP3    H164898   4.126   6.374  16.371  1.8939 -0.5559  0.0806
14469TIP3    H264899   4.082   6.261  16.280 -0.8279  0.7196 -0.2956
14470TIP3   OH264900   3.431   5.161   1.424 -0.0340 -0.1281 -0.1472
14470TIP3    H164901   3.424   5.256   1.418  0.6831  0.0193  1.0190
14470TIP3    H264902   3.346   5.132   1.457  0.6798  0.4388  2.3878
14471TIP3   OH264903   5.006   0.221  15.801 -0.0616 -0.3681 -0.1241
14471TIP3    H164904   5.096   0.239  15.827 -0.4737  0.4020  0.7731
14471TIP3    H264905   4.992   0.274  15.722 -0.5011  1.4498  1.1345
14472TIP3   OH264906   4.663   2.583  16.952 -0.3226 -0.0136  0.3573
14472TIP3    H164907   4.673   2.599  16.858  1.8752 -0.1690  0.5063
14472TIP3    H264908   4.662   2.670  16.991 -4.5446  0.2523  0.0437
14473TIP3   OH264909   5.854   5.113   3.672 -0.3208  0.4140 -0.6726
14473TIP3    H164910   5.862   5.175   3.599 -1.7268  0.1153 -1.1132
14473TIP3    H264911   5.829   5.030   3.630 -0.9886  0.1986  0.1400
14474TIP3   OH264912   2.500   1.358  11.907 -0.1048 -0.3751  0.5351
14474TIP3    H164913   2.491   1.300  11.983  0.6807 -0.9670  0.1903
14474TIP3    H264914   2.561   1.427  11.937  1.5497 -1.5237 -0.0464
14475TIP3   OH264915   1.280   1.772  13.729 -0.5621  0.0941 -0.0765
14475TIP3    H164916   1.362   1.806  13.763 -1.1247  1.6088 -0.1562
14475TIP3    H264917   1.294   1.765  13.634 -0.4702  0.2313 -0.0740
14476TIP3   OH264918   0.081   0.792  14.916  0.0346  0.4199 -0.2283
14476TIP3    H164919   0.104   0.882  14.892 -2.7003  1.1852 -0.3660
14476TIP3    H264920   0.080   0.744  14.834 -0.2516  0.7320 -0.4093
14477TIP3   OH264921   2.229   2.465   4.164 -0.1110 -0.7087 -0.4367
14477TIP3    H164922   2.267   2.519   4.233 -0.5720 -0.9390  0.0089
14477TIP3    H264923   2.278   2.488   4.085 -1.8289  2.1388 -0.8255
14478TIP3   OH264924   5.374   0.960   0.176  0.1030  0.4122 -0.7337
14478TIP3    H164925   5.387   0.903   0.251 -0.9490  0.4800 -0.4908
14478TIP3    H264926   5.280   0.956   0.158 -0.3499  3.3846  0.3852
14479TIP3   OH264927   3.629   4.349  16.129  0.3953  0.1916  0.2920
14479TIP3    H164928   3.588   4.405  16.195 -0.8297 -0.3583  0.0214
14479TIP3    H264929   3.650   4.269  16.177  0.0809  0.0303  0.1601
14480TIP3   OH264930   1.482   0.778  12.530  0.0958 -0.7516 -0.2842
14480TIP3    H164931   1.500   0.717  12.601  0.1201 -1.2120 -0.6874
14480TIP3    H264932   1.415   0.735  12.477  1.8231 -1.5446 -1.9535
14481TIP3   OH264933   3.843   1.821  14.246 -0.8408  0.9549  0.0748
14481TIP3    H164934   3.820   1.754  14.182 -0.1641  0.4297  0.3633
14481TIP3    H264935   3.858   1.773  14.327 -2.9714  1.7487  0.9915
14482TIP3   OH264936   0.497   2.673   2.286 -0.4795  0.7147 -0.4444
14482TIP3    H164937   0.494   2.619   2.207  0.9670 -0.3769  0.1979
14482TIP3    H264938   0.408   2.667   2.322 -0.7696  0.0663 -1.2361
14483TIP3   OH264939   0.213   5.433  15.117 -0.4816 -0.0607  0.3428
14483TIP3    H164940   0.206   5.417  15.211 -0.1008  0.4189  0.4541
14483TIP3    H264941   0.300   5.470  15.105 -1.0764  1.2691  0.0054
14484TIP3   OH264942   1.259   6.600  14.496  0.3736 -0.5205 -0.3814
14484TIP3    H164943   1.184   6.622  14.441 -0.9210  0.6541  1.6940
14484TIP3    H264944   1.290   6.684  14.530  1.7392 -1.1113 -0.0759
14485TIP3   OH264945   5.804   5.066   2.245  0.0022  0.2279 -0.0778
14485TIP3    H164946   5.758   5.126   2.186 -1.7685  1.1780  2.1009
14485TIP3    H264947   5.860   5.122   2.298 -0.4522 -0.2068  0.8964
14486TIP3   OH264948   2.011   2.922  10.686  0.5251 -0.5086 -0.6804
14486TIP3    H164949   1.983   2.906  10.596  0.4326 -0.4127 -0.6692
14486TIP3    H264950   2.107   2.929  10.680  0.4611  0.3037 -0.9003
14487TIP3   OH264951   3.807   1.323  16.307  0.2784  0.6173  0.1558
14487TIP3    H164952   3.877   1.265  16.278 -0.4798 -0.0939 -0.2643
14487TIP3    H264953   3.850   1.408  16.317  0.7731  0.7043 -2.1898
14488TIP3   OH264954   3.372   5.286  12.997 -0.2950 -0.1870  0.2501
14488TIP3    H164955   3.414   5.360  13.041  1.0118 -0.4200 -0.5554
14488TIP3    H264956   3.385   5.212  13.057  0.1386 -0.1795  0.1693
14489TIP3   OH264957   1.255   5.535  12.205  0.0121  0.1116  0.2628
14489TIP3    H164958   1.316   5.591  12.252 -0.2587  0.2258  0.4787
14489TIP3    H264959   1.169   5.554  12.243 -0.5127  1.5527 -1.5079
14490TIP3   OH264960   1.875   2.160   2.365  0.0449 -0.4532 -0.0851
14490TIP3    H164961   1.812   2.223   2.331  1.0724  0.2250 -0.8248
14490TIP3    H264962   1.846   2.076   2.330 -0.5659 -0.1818 -0.2377
14491TIP3   OH264963   5.016   4.733   3.998  0.7129 -0.6462  0.0350
14491TIP3    H164964   5.067   4.708   4.075  0.5388  0.6513  0.5909
14491TIP3    H264965   5.076   4.723   3.925  0.9534 -1.6530  0.3478
14492TIP3   OH264966   1.835   1.523  11.370  0.7284  0.3656 -0.2874
14492TIP3    H164967   1.779   1.584  11.417 -1.1366 -1.8550  0.5456
14492TIP3    H264968   1.801   1.523  11.281 -0.4180 -0.6623  0.1177
14493TIP3   OH264969   3.402   3.666   2.141 -0.4145 -0.7562 -0.5801
14493TIP3    H164970   3.481   3.719   2.151 -0.4983 -0.7218 -0.0853
14493TIP3    H264971   3.334   3.728   2.117 -0.1879 -0.8534 -1.4925
14494TIP3   OH264972   1.220   5.595   5.278  1.0816  0.4976 -0.2908
14494TIP3    H164973   1.170   5.581   5.358  0.5826 -2.7760 -1.0585
14494TIP3    H264974   1.181   5.673   5.239 -1.2470 -0.0634  0.7542
14495TIP3   OH264975   5.280   2.767  14.329  0.2988  0.0486 -0.1592
14495TIP3    H164976   5.305   2.828  14.260  2.5279  0.7215  1.1592
14495TIP3    H264977   5.358   2.757  14.382 -1.5476  0.2954  2.8384
14496TIP3   OH264978   1.730   0.234   0.988  0.1072 -0.2103 -0.0834
14496TIP3    H164979   1.641   0.204   1.003 -0.5052  2.3143  2.3285
14496TIP3    H264980   1.721   0.304   0.923 -0.2738  2.0876  2.2749
14497TIP3   OH264981   1.675   4.350   3.902  0.0570  0.0761 -0.2667
14497TIP3    H164982   1.632   4.420   3.853  1.3864  0.8650 -0.3475
14497TIP3    H264983   1.610   4.325   3.968 -0.1295  2.0311  0.3676
14498TIP3   OH264984   3.717   0.644  13.384 -0.6142  0.5597  0.0748
14498TIP3    H164985   3.795   0.699  13.399  0.1424 -0.4396 -0.0788
14498TIP3    H264986   3.669   0.690  13.315 -0.0146  1.0570 -0.0272
14499TIP3   OH264987   1.325   2.284  10.327  0.2616  0.2682  0.6734
14499TIP3    H164988   1.337   2.379  10.323 -0.4338  0.3801  1.1167
14499TIP3    H264989   1.276   2.269  10.408 -0.1056 -0.4205  0.3376
14500TIP3   OH264990   2.437   0.018   2.117  0.0276 -0.0305  0.1141
14500TIP3    H164991   2.445  -0.050   2.185  0.8082 -1.1457 -1.0453
14500TIP3    H264992   2.343   0.031   2.107 -0.1411 -0.9828  0.3392
14501TIP3   OH264993   4.173   6.358   4.613  0.3296 -0.5237 -0.3394
14501TIP3    H164994   4.086   6.335   4.581  0.5490  0.2300 -1.5645
14501TIP3    H264995   4.188   6.446   4.579  0.8098  0.1493  1.4584
14502TIP3   OH264996   0.049   2.256   4.353  0.0935 -0.0678  1.0532
14502TIP3    H164997   0.018   2.175   4.313 -0.6170  0.9829 -0.6310
14502TIP3    H264998   0.080   2.309   4.280  2.2792  0.4828  2.3044
14503TIP3   OH264999   0.306   3.155   1.440 -0.0950  0.1766 -0.0678
14503TIP3    H165000   0.367   3.082   1.443 -0.1327  0.1678  1.3654
14503TIP3    H265001   0.249   3.142   1.516  0.9330  2.5405  1.2216
14504TIP3   OH265002   4.123   1.515   3.899  0.8296  0.7470 -0.7012
14504TIP3    H165003   4.207   1.508   3.945  0.5685 -0.4366 -0.3746
14504TIP3    H265004   4.091   1.426   3.894 -0.9551  1.3000  0.1732
14505TIP3   OH265005   0.033   1.470  16.535 -0.1090 -0.0976  0.2725
14505TIP3    H165006   0.092   1.395  16.532 -0.1016 -0.4489  4.0298
14505TIP3    H265007  -0.010   1.463  16.621 -2.6846  2.3223 -0.6682
14506TIP3   OH265008   5.223   0.758  13.660 -0.1857 -0.0989  0.5060
14506TIP3    H165009   5.187   0.794  13.579 -1.6933 -1.5553  0.4817
14506TIP3    H265010   5.180   0.673  13.670  2.6889 -1.6701  0.8947
14507TIP3   OH265011   4.374   1.061   2.657 -0.0263  0.0418  0.2408
14507TIP3    H165012   4.300   1.001   2.652  0.6527 -0.7748 -0.2709
14507TIP3    H265013   4.440   1.014   2.709  0.0099  0.9050  1.0060
14508TIP3   OH265014   0.116   2.754  11.081 -0.3224 -0.1870  0.7059
14508TIP3    H165015   0.028   2.777  11.112  0.8442  4.3721  1.3831
14508TIP3    H265016   0.109   2.756  10.986 -0.9195  0.5545  0.7504
14509TIP3   OH265017   2.475   4.193  14.681  0.4291 -0.1206  0.2195
14509TIP3    H165018   2.403   4.213  14.621 -0.7365 -1.2614  1.1935
14509TIP3    H265019   2.525   4.274  14.687  0.4907  0.0810 -2.1465
14510TIP3   OH265020   1.849   6.264  16.839 -0.5075 -0.4369 -0.8294
14510TIP3    H165021   1.852   6.190  16.900 -0.9147 -0.1264 -0.4200
14510TIP3    H265022   1.912   6.242  16.771 -0.6489 -1.1788 -0.7353
14511TIP3   OH265023   4.550   2.217  16.285 -0.3352 -0.1554  0.2992
14511TIP3    H165024   4.585   2.217  16.196 -1.2843  1.3800 -0.1194
14511TIP3    H265025   4.461   2.249  16.276  0.6004  3.6206  2.0865
14512TIP3   OH265026   3.556   6.142  16.309 -0.1712 -0.2560 -0.3396
14512TIP3    H165027   3.607   6.213  16.349  1.7566 -1.5196 -0.4034
14512TIP3    H265028   3.530   6.087  16.382  1.0666 -1.1426 -0.5406
14513TIP3   OH265029   5.638   4.537  16.606  0.1678  0.3016  0.1643
14513TIP3    H165030   5.685   4.558  16.525  0.3007 -0.0339  0.1527
14513TIP3    H265031   5.666   4.604  16.668  0.4077  0.3030  0.0581
14514TIP3   OH265032   2.030   6.667  11.935  0.1614  0.4245  0.3894
14514TIP3    H165033   1.950   6.629  11.971 -2.0308  3.0168 -1.3223
14514TIP3    H265034   2.038   6.628  11.848  0.4269  0.5833  0.3404
14515TIP3   OH265035   6.560   2.272   1.526 -0.0660 -0.0814 -0.3556
14515TIP3    H165036   6.538   2.339   1.461 -0.9175 -0.6100 -0.6306
14515TIP3    H265037   6.518   2.192   1.493 -1.6602 -0.0771  1.4961
14516TIP3   OH265038   5.800   4.441   5.181 -0.1563  0.1562 -0.6939
14516TIP3    H165039   5.716   4.447   5.135 -0.7794 -1.4712  0.1483
14516TIP3    H265040   5.857   4.393   5.121  1.0118  3.3262 -2.3023
14517TIP3   OH265041   4.074   1.909   2.892  0.8416  0.0702 -0.3328
14517TIP3    H165042   4.025   1.939   2.968  1.2540 -1.7012  0.6743
14517TIP3    H265043   4.165   1.905   2.922  0.6810 -3.2529  0.0158
14518TIP3   OH265044   1.701   0.415  14.303  0.1714  0.2565  0.0784
14518TIP3    H165045   1.684   0.476  14.375  1.6631 -2.4083  2.9436
14518TIP3    H265046   1.795   0.397  14.309  0.4149  0.1220 -2.8297
14519TIP3   OH265047   0.953   6.184   1.138  0.1989  0.1705  0.1501
14519TIP3    H165048   0.879   6.235   1.171  0.7643  0.6187  0.7340
14519TIP3    H265049   0.917   6.096   1.126 -0.4588  0.4086  0.3117
14520TIP3   OH265050   2.430   6.783   1.251  0.7649  0.3612 -0.0919
14520TIP3    H165051   2.360   6.775   1.316  0.7633  0.0718 -0.1249
14520TIP3    H265052   2.472   6.867   1.271 -0.0780  0.9023 -0.5731
14521TIP3   OH265053   3.755   1.243   2.445 -0.3870 -0.0702  0.1757
14521TIP3    H165054   3.767   1.219   2.353 -0.2478 -0.3254  0.2568
14521TIP3    H265055   3.661   1.232   2.461 -0.2150 -1.4400  0.4360
14522TIP3   OH265056   5.554   0.024  15.203  0.1891  0.5644  0.2440
14522TIP3    H165057   5.462   0.003  15.188 -0.1151  0.7165  1.7835
14522TIP3    H265058   5.557   0.058  15.292  1.7782  0.3402  0.3048
14523TIP3   OH265059   6.691   2.708  16.542 -0.1201  0.2113 -0.4695
14523TIP3    H165060   6.644   2.791  16.550  1.0998  0.9087 -0.2483
14523TIP3    H265061   6.735   2.697  16.626 -1.1610 -1.2552 -0.0757
14524TIP3   OH265062   5.221   0.699   4.714 -0.5153 -0.3260 -0.1405
14524TIP3    H165063   5.173   0.779   4.737 -0.9764  0.0513 -2.1630
14524TIP3    H265064   5.198   0.684   4.622  2.8148 -0.4116 -1.0925
14525TIP3   OH265065   4.018   0.835   2.112  0.2191  0.4163  0.7251
14525TIP3    H165066   4.023   0.859   2.019  0.6868 -1.0808  0.3342
14525TIP3    H265067   4.105   0.801   2.132  0.4857  1.7864  2.0491
14526TIP3   OH265068   4.641   2.709  12.623 -0.4213  0.2249  0.3456
14526TIP3    H165069   4.651   2.790  12.575 -2.6517  0.8653  0.8465
14526TIP3    H265070   4.575   2.659  12.574  0.4630 -1.0430  0.3774
14527TIP3   OH265071   6.485   5.825  16.720  0.7509 -0.2598 -0.2088
14527TIP3    H165072   6.439   5.857  16.643  0.8228  0.1496 -0.0851
14527TIP3    H265073   6.530   5.902  16.755 -2.1595  0.4684  2.3395
14528TIP3   OH265074   6.554   4.104  14.794 -0.5162 -0.1065 -0.2201
14528TIP3    H165075   6.580   4.074  14.706  0.9419  1.4473 -0.3785
14528TIP3    H265076   6.532   4.197  14.782 -1.0678 -0.0723  0.9296
14529TIP3   OH265077   0.531   0.726   6.100 -0.1771  0.1578 -0.8373
14529TIP3    H165078   0.567   0.815   6.108 -0.7525  0.2838  0.4461
14529TIP3    H265079   0.575   0.676   6.168 -4.0746  0.8928  2.5875
14530TIP3   OH265080   4.432   3.490   1.396 -0.0936  0.5097  0.4160
14530TIP3    H165081   4.473   3.404   1.385  1.8502  1.2943  0.9407
14530TIP3    H265082   4.477   3.528   1.472 -1.5992  1.6126  0.8025
14531TIP3   OH265083   2.438   0.988   5.415 -0.5006  0.2885  0.0075
14531TIP3    H165084   2.410   0.988   5.507  1.7540 -1.9307  0.8196
14531TIP3    H265085   2.475   1.075   5.401  1.4054 -0.1235  2.0484
14532TIP3   OH265086   4.662   1.579  11.093  0.3804  1.1342 -0.1296
14532TIP3    H165087   4.678   1.666  11.057  1.9682  0.8036 -0.2915
14532TIP3    H265088   4.746   1.552  11.128  0.4042 -1.1021 -1.7369
14533TIP3   OH265089   0.325   4.756  10.933 -0.2672 -0.3726  0.4306
14533TIP3    H165090   0.368   4.752  10.848  0.4115 -0.3465  0.7608
14533TIP3    H265091   0.382   4.706  10.991 -0.5593 -0.1359  0.9343
14534TIP3   OH265092   3.036   5.026   2.537  0.4068  0.1444  0.2889
14534TIP3    H165093   2.990   4.976   2.469  0.4535  1.1686 -0.5208
14534TIP3    H265094   3.083   4.960   2.588  0.9775 -0.5872 -1.1410
14535TIP3   OH265095   3.245   5.413   4.314 -0.2168  0.8819  0.0487
14535TIP3    H165096   3.319   5.430   4.256  0.4594 -0.5791  0.4151
14535TIP3    H265097   3.186   5.358   4.263  0.9468 -1.4351  1.0230
14536TIP3   OH265098   1.830   2.170   6.348  0.2020 -0.3830 -0.1186
14536TIP3    H165099   1.812   2.120   6.268  1.6306  2.0898 -2.1262
14536TIP3    H265100   1.905   2.126   6.387  1.8631  0.4262 -2.2028
14537TIP3   OH265101   3.095   0.932   3.448 -0.0301  0.2224  0.1795
14537TIP3    H165102   3.122   0.870   3.380  0.4474 -0.1998  0.7390
14537TIP3    H265103   3.043   0.998   3.402  1.2358  0.5792 -0.7856
14538TIP3   OH265104   1.640   0.379  15.428 -0.0887 -0.5406 -0.5534
14538TIP3    H165105   1.696   0.449  15.392  0.2907 -0.6420 -0.1744
14538TIP3    H265106   1.702   0.314  15.462 -0.4362 -0.6135 -0.0456
14539TIP3   OH265107   1.253   0.125   2.936 -0.1187  0.0862 -0.2306
14539TIP3    H165108   1.187   0.164   2.992  0.3452  0.0654  0.3378
14539TIP3    H265109   1.319   0.194   2.925 -0.0164 -0.0413 -0.4312
14540TIP3   OH265110   1.891   5.349   5.714  0.0461 -0.1605  0.8316
14540TIP3    H165111   1.905   5.276   5.774 -0.4488  0.7422  2.1164
14540TIP3    H265112   1.970   5.403   5.724 -0.2952  0.2907  1.1334
14541TIP3   OH265113   1.149   4.417   0.436  0.0937 -0.3010  0.6020
14541TIP3    H165114   1.228   4.455   0.473 -0.9288  0.8492  1.6919
14541TIP3    H265115   1.093   4.398   0.511 -1.4314  0.6889 -0.2093
14542TIP3   OH265116   3.976   4.739   5.778  0.1179 -0.7955 -0.1292
14542TIP3    H165117   4.008   4.673   5.839  1.2035  1.8674  2.4208
14542TIP3    H265118   3.914   4.692   5.722  1.7771 -4.1871  0.6387
14543TIP3   OH265119   6.574   1.367  11.797 -0.0266 -0.4741 -0.6326
14543TIP3    H165120   6.549   1.380  11.706 -0.3555 -0.0919 -0.4908
14543TIP3    H265121   6.494   1.335  11.839  0.0667 -0.4520 -0.4369
14544TIP3   OH265122   4.168   4.179  13.489  0.2772  0.0267 -0.3367
14544TIP3    H165123   4.159   4.247  13.556  1.7956 -0.6091  0.5747
14544TIP3    H265124   4.088   4.185  13.437 -1.2626  0.1217  1.9245
14545TIP3   OH265125   0.397   5.200   3.140 -0.2365  0.4122  0.4938
14545TIP3    H165126   0.302   5.209   3.133 -0.0539  1.6393 -0.8758
14545TIP3    H265127   0.427   5.188   3.050  0.8513 -0.8359  0.9928
14546TIP3   OH265128   1.632   3.606   2.007  0.0916  0.4782 -0.2959
14546TIP3    H165129   1.603   3.547   2.076  1.3914  1.2052  0.9260
14546TIP3    H265130   1.570   3.680   2.011 -0.6618 -0.1022 -0.8653
14547TIP3   OH265131   3.746   4.114   2.148  0.2894  0.3785  0.1026
14547TIP3    H165132   3.799   4.037   2.169 -2.4864 -1.5636  0.6966
14547TIP3    H265133   3.728   4.155   2.233 -0.8581 -0.2686  0.2004
14548TIP3   OH265134   2.861   1.881   2.721  0.2225  0.7000 -0.3734
14548TIP3    H165135   2.891   1.961   2.678 -0.1405  0.0084 -2.0059
14548TIP3    H265136   2.779   1.906   2.764 -0.0613  1.1437 -1.1495
14549TIP3   OH265137   2.515   4.336   2.230  0.6640  0.3349  0.3676
14549TIP3    H165138   2.512   4.342   2.135  1.9924  1.8406  0.3636
14549TIP3    H265139   2.427   4.360   2.259  0.6729  1.4374 -0.4603
14550TIP3   OH265140   4.056   4.850   3.060 -0.1292  0.0477 -0.6717
14550TIP3    H165141   4.130   4.907   3.041  0.6098 -0.1048  1.4310
14550TIP3    H265142   4.082   4.765   3.025  0.8421 -0.0624  0.2473
14551TIP3   OH265143   2.898   3.280   5.586 -0.3336 -0.0233 -0.3363
14551TIP3    H165144   2.893   3.302   5.679 -1.8892 -1.9525  0.1111
14551TIP3    H265145   2.819   3.317   5.548 -1.4062 -1.9784 -0.1675
14552TIP3   OH265146   0.118   4.464   3.760  0.5386 -0.1381  0.2121
14552TIP3    H165147   0.043   4.429   3.809  1.0897 -0.3720  0.9113
14552TIP3    H265148   0.170   4.387   3.737  1.2984  0.1281  0.9830
14553TIP3   OH265149   0.351   1.291   1.185  0.6266  0.0281  0.4549
14553TIP3    H165150   0.298   1.356   1.139  0.0843  0.7045  2.0100
14553TIP3    H265151   0.389   1.238   1.114  0.5805  1.6144 -0.8165
14554TIP3   OH265152   2.536   0.527  15.444 -0.0028 -0.0784  0.5812
14554TIP3    H165153   2.550   0.448  15.393  0.0898  0.6955 -0.6298
14554TIP3    H265154   2.484   0.498  15.519 -1.5779 -0.9872 -0.7951
14555TIP3   OH265155   5.517   1.931   4.170 -0.3210 -0.1947 -0.4468
14555TIP3    H165156   5.488   1.930   4.262 -1.1698  1.2804 -0.6754
14555TIP3    H265157   5.605   1.893   4.172 -0.0398  0.4796  1.0747
14556TIP3   OH265158   4.990   5.454   1.458  0.4903  0.6872  0.3820
14556TIP3    H165159   4.970   5.392   1.528 -1.7173 -0.0378 -0.7767
14556TIP3    H265160   5.011   5.536   1.502 -0.9514  0.2789  1.8996
14557TIP3   OH265161   6.809   2.304  10.927  0.2692 -0.7344 -0.3652
14557TIP3    H165162   6.729   2.343  10.891  1.3226  0.1719 -1.8056
14557TIP3    H265163   6.832   2.360  11.000  0.7490  0.2755 -1.2744
14558TIP3   OH265164   5.862   4.341  16.857  0.2434 -0.2738 -0.1086
14558TIP3    H165165   5.827   4.253  16.840  0.0640 -0.2243 -0.0036
14558TIP3    H265166   5.852   4.352  16.951  0.9366 -0.4229 -0.0124
14559TIP3   OH265167   3.563   4.204   4.484  0.2424 -0.1106 -0.1403
14559TIP3    H165168   3.490   4.259   4.512 -0.3487 -1.1238  0.3329
14559TIP3    H265169   3.622   4.265   4.438  0.5205  1.3107  1.9388
14560TIP3   OH265170   1.022   4.321   1.680  0.1267  0.4013  0.0128
14560TIP3    H165171   0.928   4.301   1.684 -0.1128  1.6082  0.9260
14560TIP3    H265172   1.034   4.356   1.592 -0.4526  0.9606  0.1423
14561TIP3   OH265173   5.334   6.079  13.690 -0.0589 -0.7437 -0.3155
14561TIP3    H165174   5.322   5.991  13.725 -0.0933 -0.8368 -0.5560
14561TIP3    H265175   5.427   6.098  13.705 -0.0982 -0.7401 -0.0809
14562TIP3   OH265176   0.675   0.094  13.625  0.1334 -0.4651  0.4443
14562TIP3    H165177   0.757   0.127  13.588  0.2781  1.1097  2.0470
14562TIP3    H265178   0.686   0.101  13.719 -1.9493  0.1031  0.7014
14563TIP3   OH265179   3.961   2.969  16.370 -0.4359 -0.2907 -0.1401
14563TIP3    H165180   4.007   3.034  16.318 -0.2017  1.6361  2.2969
14563TIP3    H265181   4.029   2.909  16.400 -0.5057 -1.1188 -1.5143
14564TIP3   OH265182   5.450   4.930  11.134 -0.2537 -0.1439  0.1242
14564TIP3    H165183   5.435   4.840  11.106 -2.5046  0.1813  0.1069
14564TIP3    H265184   5.442   4.982  11.053  0.0905  0.1697  0.2869
14565TIP3   OH265185   2.461   0.178  14.929  0.5194 -0.5425 -0.0046
14565TIP3    H165186   2.395   0.198  14.996 -0.1894  2.4243 -1.4010
14565TIP3    H265187   2.453   0.084  14.916 -1.8314 -0.6692  1.5471
14566TIP3   OH265188   5.028   4.998  11.005  0.2593  0.4434  0.3715
14566TIP3    H165189   4.994   5.053  10.934  0.3722 -0.0112 -0.0391
14566TIP3    H265190   4.952   4.984  11.062 -0.4377 -1.0984 -0.8759
14567TIP3   OH265191   3.108   0.411  16.786  0.9142 -0.7824  0.5159
14567TIP3    H165192   3.032   0.441  16.836  1.0144  0.6527 -0.1146
14567TIP3    H265193   3.170   0.379  16.851  0.0221 -1.3889  1.0812
14568TIP3   OH265194   5.474   0.702  14.059 -0.0169 -0.1595 -0.1976
14568TIP3    H165195   5.495   0.764  14.129 -1.7895  1.5137 -1.0631
14568TIP3    H265196   5.380   0.686  14.068  0.0851 -1.4017 -1.0609
14569TIP3   OH265197   2.263   4.977  13.374  0.2350 -0.1317 -0.5756
14569TIP3    H165198   2.251   4.996  13.467  0.0522 -1.1798 -0.3773
14569TIP3    H265199   2.346   4.931  13.369 -0.5060 -1.4925 -0.7224
14570TIP3   OH265200   3.828   5.002   0.804 -0.2014 -0.6256  0.3800
14570TIP3    H165201   3.916   4.972   0.826  0.8676  0.8028 -1.5445
14570TIP3    H265202   3.837   5.097   0.795 -1.4877 -0.6295 -1.6078
14571TIP3   OH265203   2.363   4.720  16.590  0.0369 -0.3223  0.3383
14571TIP3    H165204   2.397   4.668  16.517  0.2567 -0.2926  0.4183
14571TIP3    H265205   2.345   4.655  16.658  0.5012 -0.2735  0.5104
14572TIP3   OH265206   2.265   3.869   5.994  0.2453  0.8853 -0.2831
14572TIP3    H165207   2.330   3.932   6.027 -0.6492  0.5302  2.4068
14572TIP3    H265208   2.257   3.805   6.064 -0.4780 -1.0676 -2.0502
14573TIP3   OH265209   6.175   4.343  14.913  0.1628 -0.5796 -0.1532
14573TIP3    H165210   6.176   4.366  15.006 -1.6973 -4.2625  0.9570
14573TIP3    H265211   6.084   4.355  14.886  0.7463  0.7727 -1.6678
14574TIP3   OH265212   2.414   5.068  11.699  0.9269  0.2536  0.6826
14574TIP3    H165213   2.323   5.096  11.691 -0.2443 -2.8327  1.4635
14574TIP3    H265214   2.460   5.111  11.626 -1.1944  1.6619  0.0985
14575TIP3   OH265215   1.824   1.662   2.441  0.1557 -0.2869 -0.0123
14575TIP3    H165216   1.745   1.611   2.457  0.6224 -0.3248  2.7087
14575TIP3    H265217   1.794   1.743   2.401 -1.1784 -0.6061  0.3085
14576TIP3   OH265218   2.918   1.036   5.645 -0.3813 -0.0655 -0.5366
14576TIP3    H165219   2.845   1.088   5.680  0.2429 -0.2625  1.1306
14576TIP3    H265220   2.922   1.061   5.552 -1.9259  0.6886 -0.4375
14577TIP3   OH265221   3.804   3.432   3.632 -0.6339 -0.4579 -0.0507
14577TIP3    H165222   3.820   3.517   3.674  1.8370 -1.9579  2.4253
14577TIP3    H265223   3.750   3.384   3.695  1.8612 -2.2225  0.9297
14578TIP3   OH265224   5.061   4.846   1.221  0.2677  0.0331  0.7574
14578TIP3    H165225   5.028   4.815   1.136 -0.6007 -0.9787  1.4398
14578TIP3    H265226   5.156   4.841   1.213  0.1755 -1.3706  0.3058
14579TIP3   OH265227   1.208   4.841   3.016  0.2845  0.5589  0.1537
14579TIP3    H165228   1.165   4.858   3.100 -0.2181  2.5051 -0.4439
14579TIP3    H265229   1.279   4.906   3.012  0.6343  0.1414 -0.7081
14580TIP3   OH265230   2.345   5.748   4.751 -0.2333  0.2439  0.3217
14580TIP3    H165231   2.411   5.781   4.813 -0.8943  2.4557 -0.0669
14580TIP3    H265232   2.285   5.697   4.805 -0.5648  1.7871  1.4919
14581TIP3   OH265233   5.842   4.937   0.762 -0.2080 -0.0971 -0.5045
14581TIP3    H165234   5.923   4.901   0.797 -1.8862 -1.9042  1.8932
14581TIP3    H265235   5.844   5.029   0.787  0.4161 -0.4940  1.0202
14582TIP3   OH265236   5.980   4.199  16.508  0.1550 -0.2855  0.1163
14582TIP3    H165237   6.049   4.166  16.450  1.3067  0.9478  0.7167
14582TIP3    H265238   6.025   4.262  16.564 -1.1673 -0.5790  1.5711
14583TIP3   OH265239   0.497   3.996  11.830 -0.0872 -0.1857 -0.5595
14583TIP3    H165240   0.456   3.959  11.751  0.0623 -0.1773 -0.6416
14583TIP3    H265241   0.426   4.003  11.893 -0.4806  0.9942 -1.1077
14584TIP3   OH265242   3.324   4.543  13.248 -0.0325  0.0495  0.4180
14584TIP3    H165243   3.360   4.624  13.213 -0.4132 -1.1979 -3.3595
14584TIP3    H265244   3.230   4.549  13.231 -0.1798 -0.8336  0.8579
14585TIP3   OH265245   1.719   4.146   6.005  0.0267  0.0901 -0.0706
14585TIP3    H165246   1.643   4.162   6.060 -0.3588  1.3046 -0.9035
14585TIP3    H265247   1.737   4.053   6.015  1.1768  0.5457  3.5901
14586TIP3   OH265248   5.490   3.464   0.994 -1.0630  0.0528 -0.3940
14586TIP3    H165249   5.424   3.523   0.957 -0.8359  0.5604 -0.0055
14586TIP3    H265250   5.452   3.376   0.985 -0.4402 -0.0295 -3.1658
14587TIP3   OH265251   1.262   3.279  13.764 -0.0452  0.4372  0.3490
14587TIP3    H165252   1.312   3.207  13.726  0.1636  0.8288 -0.1270
14587TIP3    H265253   1.328   3.341  13.794 -0.2223  1.5163 -1.3552
14588TIP3   OH265254   6.346   4.951   6.345 -0.5642 -0.2600  0.3244
14588TIP3    H165255   6.352   5.018   6.414  1.5733  0.8695 -0.8479
14588TIP3    H265256   6.258   4.916   6.354 -1.0138  1.1717  2.4030
14589TIP3   OH265257   1.720   0.030   1.837 -0.1515 -0.2580 -0.2687
14589TIP3    H165258   1.775   0.036   1.915  0.0041 -0.1672 -0.3869
14589TIP3    H265259   1.769   0.076   1.769 -0.7862  0.6231 -0.1439
14590TIP3   OH265260   1.942   2.284   2.039 -0.6447 -0.3851  0.2226
14590TIP3    H165261   1.891   2.281   1.958 -0.3086  0.1769 -0.0161
14590TIP3    H265262   1.973   2.374   2.045  0.1971 -0.6740  0.4316
14591TIP3   OH265263   0.818   1.852  12.184 -0.1202  0.3290 -0.7051
14591TIP3    H165264   0.797   1.857  12.091 -2.1258 -0.2864 -0.3201
14591TIP3    H265265   0.862   1.768  12.195  0.9307  0.7973 -1.2231
14592TIP3   OH265266   1.929   5.207   4.481 -0.0929 -0.0494 -0.5846
14592TIP3    H165267   1.876   5.285   4.463  0.3514  0.8644  1.6972
14592TIP3    H265268   1.990   5.202   4.407  1.2314  3.0194  0.1286
14593TIP3   OH265269   2.655   5.457   3.117  0.1924 -0.3530  0.1344
14593TIP3    H165270   2.634   5.433   3.207  1.8308 -0.1976  0.5954
14593TIP3    H265271   2.722   5.395   3.090  1.6734  1.2208 -0.0031
14594TIP3   OH265272   2.697   5.863   1.555 -0.0486 -0.1605  0.2549
14594TIP3    H165273   2.763   5.804   1.592 -0.8014 -0.6731  0.7943
14594TIP3    H265274   2.735   5.950   1.566  2.2287 -0.5963 -2.7820
14595TIP3   OH265275   5.423   1.784   1.200 -0.1014  0.0799  0.3104
14595TIP3    H165276   5.347   1.822   1.245 -1.8687 -1.8079 -0.8563
14595TIP3    H265277   5.431   1.696   1.238 -0.3658 -0.8046 -1.5289
14596TIP3   OH265278   0.408   5.461   5.284  0.1026 -0.2123 -0.1923
14596TIP3    H165279   0.377   5.389   5.339 -0.3042  0.7668  0.9057
14596TIP3    H265280   0.329   5.500   5.248  0.3810 -1.3778 -2.2859
14597TIP3   OH265281   3.110   2.668  14.269  0.0573 -0.6072 -0.1224
14597TIP3    H165282   3.132   2.717  14.349 -0.9680  1.5080 -1.0733
14597TIP3    H265283   3.035   2.614  14.294  0.1954 -0.5072  0.5279
14598TIP3   OH265284   0.894   4.840  13.565 -0.1644  0.0115 -0.3700
14598TIP3    H165285   0.900   4.839  13.470  0.5979  1.9291 -0.3972
14598TIP3    H265286   0.809   4.880  13.583  0.5679  1.6101 -0.3029
14599TIP3   OH265287   5.594   6.465  14.522 -0.0931  0.3103 -0.4271
14599TIP3    H165288   5.555   6.549  14.498 -0.1932  0.6196  0.7588
14599TIP3    H265289   5.557   6.402  14.459  0.1280  1.1675 -1.4414
14600TIP3   OH265290   4.647   4.557   3.347  0.0304 -0.3651 -0.1913
14600TIP3    H165291   4.562   4.533   3.311  1.2329  1.5615 -5.1541
14600TIP3    H265292   4.628   4.618   3.418 -2.6008 -2.1763  0.8290
14601TIP3   OH265293   3.484   1.245   5.935  0.0112 -0.8359  0.0696
14601TIP3    H165294   3.557   1.239   5.997 -0.6436 -2.5940  0.7571
14601TIP3    H265295   3.505   1.181   5.866 -1.0856 -1.7988  0.5718
14602TIP3   OH265296   1.913   3.847   5.761  0.8293  0.0691 -0.0337
14602TIP3    H165297   2.003   3.878   5.753  0.7366  0.5595  0.7169
14602TIP3    H265298   1.862   3.907   5.707  1.0764 -0.8715 -1.3540
14603TIP3   OH265299   4.924   6.810   2.611  0.0050 -0.1500 -0.3845
14603TIP3    H165300   4.877   6.893   2.601 -1.1819 -0.4535  2.0549
14603TIP3    H265301   4.873   6.762   2.676  2.4046 -1.5172  0.5794
14604TIP3   OH265302   0.609   2.683   4.175 -0.6154  0.3386 -0.4577
14604TIP3    H165303   0.542   2.622   4.206  0.1830 -0.7134 -0.7636
14604TIP3    H265304   0.564   2.768   4.174 -1.8457 -0.2798 -0.3350
14605TIP3   OH265305   6.453   5.539  16.394  0.2501  0.2195 -0.0317
14605TIP3    H165306   6.541   5.503  16.407 -0.0994 -0.2775  1.0612
14605TIP3    H265307   6.414   5.539  16.481 -1.4290 -1.1193 -0.7320
14606TIP3   OH265308   0.388   4.022   2.281  0.0815 -0.0953 -0.2218
14606TIP3    H165309   0.428   3.977   2.206  0.8900 -2.1628  1.3406
14606TIP3    H265310   0.368   4.110   2.249  0.1277 -0.9849 -2.9173
14607TIP3   OH265311   2.985   2.514  12.134 -0.0197  0.0183 -0.6643
14607TIP3    H165312   2.904   2.530  12.085 -0.3181  1.6745  0.2869
14607TIP3    H265313   2.987   2.584  12.200  1.7829 -0.4732 -0.1456
14608TIP3   OH265314   1.710   1.894   1.436 -0.4651  0.0456 -0.6079
14608TIP3    H165315   1.643   1.835   1.471  0.1871 -0.0531  0.5061
14608TIP3    H265316   1.793   1.849   1.450 -0.0023  0.9788 -0.2489
14609TIP3   OH265317   5.230   1.178   3.525 -0.5228  0.5217 -0.1504
14609TIP3    H165318   5.181   1.212   3.600 -1.5949  0.1944 -0.6855
14609TIP3    H265319   5.179   1.204   3.448  0.6538  1.0139 -0.8009
14610TIP3   OH265320   4.212   5.474   3.224 -0.5367 -0.4667 -0.1027
14610TIP3    H165321   4.208   5.561   3.264 -1.5887 -1.0099  1.0928
14610TIP3    H265322   4.301   5.467   3.190  0.1166  0.4353  1.3022
14611TIP3   OH265323   3.699   1.493   0.189  1.1372  0.3781 -0.1063
14611TIP3    H165324   3.706   1.579   0.147  1.2858  0.7302  0.6105
14611TIP3    H265325   3.782   1.450   0.171  0.4215 -0.3509 -1.9735
14612TIP3   OH265326   3.999   0.634   4.336  0.3821 -0.2669 -0.0277
14612TIP3    H165327   3.926   0.597   4.286  0.6848  0.3968 -0.9656
14612TIP3    H265328   4.073   0.578   4.314  0.4868 -0.0501 -0.2265
14613TIP3   OH265329   4.319   4.412   4.597  1.1781 -0.2780  0.1485
14613TIP3    H165330   4.338   4.330   4.552 -1.4294 -0.2341 -1.2387
14613TIP3    H265331   4.325   4.479   4.529  0.5113  0.2810  0.6225
14614TIP3   OH265332   3.573   0.778  11.284  0.0364  0.0701 -0.0487
14614TIP3    H165333   3.522   0.725  11.346 -0.3579  0.8596  0.3104
14614TIP3    H265334   3.576   0.724  11.205 -1.0780 -0.1361  0.0314
14615TIP3   OH265335   6.191   1.226   0.024 -0.3867 -0.2880  0.0084
14615TIP3    H165336   6.120   1.214  -0.039  0.5812 -1.6636 -0.8944
14615TIP3    H265337   6.148   1.222   0.109 -1.3954 -1.2710 -0.5131
14616TIP3   OH265338   3.708   3.737  13.746 -0.1169 -0.7563 -0.2485
14616TIP3    H165339   3.640   3.802  13.726  1.2155  0.5125 -0.8668
14616TIP3    H265340   3.759   3.777  13.816 -0.3195 -1.9558  0.6230
14617TIP3   OH265341   4.962   4.778   1.695 -0.2555 -0.0399 -0.0724
14617TIP3    H165342   5.051   4.813   1.695  0.1230 -0.9854 -0.0565
14617TIP3    H265343   4.925   4.806   1.611 -0.8950  2.6592  1.0055
14618TIP3   OH265344   3.033   6.028  16.392  0.2342  0.4154 -0.4379
14618TIP3    H165345   3.064   6.118  16.407  0.0367  0.4708 -0.3586
14618TIP3    H265346   3.111   5.974  16.406  0.6009  0.6534 -1.5099
14619TIP3   OH265347   3.689   4.900   0.383 -0.6141  0.3623 -0.0030
14619TIP3    H165348   3.674   4.916   0.289  0.2754  1.3300  0.0002
14619TIP3    H265349   3.622   4.836   0.407 -1.6143  0.9787 -1.0271
14620TIP3   OH265350   6.748   3.979   0.202 -0.0310  0.3864  0.1097
14620TIP3    H165351   6.811   3.978   0.130 -0.4799 -0.8964 -0.2793
14620TIP3    H265352   6.669   4.018   0.165  0.1062  0.7963  0.2400
14621TIP3   OH265353   5.892   2.682  10.038  0.4671 -0.7447  0.0274
14621TIP3    H165354   5.850   2.758  10.077  0.8202  0.2417 -1.4164
14621TIP3    H265355   5.985   2.700  10.042  0.5138  0.7690 -3.6006
14622TIP3   OH265356   0.391   4.947  11.695  0.1558  0.1813 -0.0215
14622TIP3    H165357   0.372   4.991  11.778 -0.3065  1.5207 -0.8089
14622TIP3    H265358   0.437   4.867  11.720 -0.1096  0.4874  1.5276
14623TIP3   OH265359   1.944   1.463   4.438  0.4980 -0.2309 -0.3113
14623TIP3    H165360   2.018   1.517   4.411  1.1066  0.5007  2.4328
14623TIP3    H265361   1.960   1.447   4.531 -1.5155 -2.1973 -0.2327
14624TIP3   OH265362   0.622   3.374  12.568  0.0444 -0.4361 -0.0865
14624TIP3    H165363   0.545   3.322  12.588  0.1275 -1.1326 -1.5103
14624TIP3    H265364   0.692   3.310  12.553  0.9975  0.1784  1.3967
14625TIP3   OH265365   5.710   4.537  14.807  0.2696 -0.1355 -0.2270
14625TIP3    H165366   5.623   4.542  14.769  0.0183 -1.1765  0.1834
14625TIP3    H265367   5.730   4.627  14.833 -0.1905  0.3188 -1.3834
14626TIP3   OH265368   3.424   2.568   1.984 -1.2161  0.5115  0.5983
14626TIP3    H165369   3.418   2.482   1.942 -0.5007  1.1126 -0.8199
14626TIP3    H265370   3.414   2.550   2.077 -1.9256 -1.0039  0.2662
14627TIP3   OH265371   4.593   4.209  14.963  0.2946 -0.4894  0.2132
14627TIP3    H165372   4.657   4.141  14.943  0.0665 -0.6123 -0.1148
14627TIP3    H265373   4.595   4.218  15.058  2.3545  1.0202  0.0947
14628TIP3   OH265374   3.895   3.865  11.830  0.3864  0.5368 -0.1654
14628TIP3    H165375   3.910   3.946  11.783  2.9354 -0.0958 -0.6370
14628TIP3    H265376   3.800   3.856  11.835  0.0289  2.0834 -2.6146
14629TIP3   OH265377   2.837   4.121  14.706 -0.0081 -0.6221 -0.9221
14629TIP3    H165378   2.754   4.101  14.748  0.0688  1.9137  0.6359
14629TIP3    H265379   2.904   4.084  14.764  0.0434  1.7679  0.7189
14630TIP3   OH265380   5.062   4.252   2.256  0.0206 -0.1479  0.0115
14630TIP3    H165381   5.147   4.290   2.234 -0.1161  0.1413 -0.0109
14630TIP3    H265382   5.078   4.157   2.254  0.1790 -0.1121 -0.6559
14631TIP3   OH265383   6.291   4.337  16.067 -0.2988 -0.4914 -0.2639
14631TIP3    H165384   6.271   4.413  16.012 -0.9404 -0.0768  0.5194
14631TIP3    H265385   6.359   4.291  16.019  0.2839  0.7076 -0.6481
14632TIP3   OH265386   4.135   0.529  13.294  0.1240 -0.2194  0.3548
14632TIP3    H165387   4.143   0.618  13.329  0.9542 -0.2352  0.2244
14632TIP3    H265388   4.125   0.474  13.372  0.7629 -0.1267  0.5109
14633TIP3   OH265389   0.870   4.162  12.748 -0.7202  0.1249  0.0561
14633TIP3    H165390   0.774   4.162  12.745 -0.7589  0.7271  0.9031
14633TIP3    H265391   0.896   4.238  12.695 -0.7216  0.0770 -0.0127
14634TIP3   OH265392   1.373   5.439   3.653 -0.3905  0.1714 -0.2652
14634TIP3    H165393   1.408   5.352   3.671  1.3879  0.9442  0.2337
14634TIP3    H265394   1.339   5.433   3.563 -2.4240 -1.6284  0.5404
14635TIP3   OH265395   0.602   1.923   5.103  0.3622  0.7183 -0.6434
14635TIP3    H165396   0.656   1.962   5.172 -1.0131  0.3962  0.6580
14635TIP3    H265397   0.593   1.832   5.129 -0.9591  0.8146 -0.7277
14636TIP3   OH265398   6.461   5.147   1.392  0.1206 -0.3214 -0.5486
14636TIP3    H165399   6.447   5.075   1.455  0.1853 -0.1324 -0.3187
14636TIP3    H265400   6.534   5.117   1.338 -0.9334 -1.1828 -1.5555
14637TIP3   OH265401   2.003   4.546  11.044  0.0521  0.6486  0.1656
14637TIP3    H165402   2.014   4.577  10.955  0.6033  0.8279  0.2892
14637TIP3    H265403   1.968   4.458  11.035 -0.9728  1.0835 -0.2008
14638TIP3   OH265404   6.826   2.692   1.369 -0.3515 -0.5322  0.3188
14638TIP3    H165405   6.793   2.726   1.286 -0.2575  2.0335  1.2406
14638TIP3    H265406   6.911   2.656   1.348  0.1072  0.9843 -0.5853
14639TIP3   OH265407   1.813   2.403   3.078  0.4943  0.0312 -0.2321
14639TIP3    H165408   1.888   2.346   3.060 -0.7164 -1.0928 -2.0613
14639TIP3    H265409   1.849   2.491   3.077  1.6662 -0.4100 -2.1824
14640TIP3   OH265410   2.061   1.857  15.823  0.6166 -0.0772  0.0035
14640TIP3    H165411   2.083   1.903  15.904  0.7352  0.1026 -0.1278
14640TIP3    H265412   2.037   1.768  15.850 -1.7447  0.6432  0.4906
14641TIP3   OH265413   6.039   4.541   0.178 -0.9071 -0.7340  0.3016
14641TIP3    H165414   6.058   4.456   0.139 -2.4291 -0.1390 -1.9647
14641TIP3    H265415   5.971   4.523   0.243 -2.6623 -1.1005 -1.5290
14642TIP3   OH265416   5.498   4.467  12.165  0.5822  0.2227 -0.4271
14642TIP3    H165417   5.492   4.400  12.233  1.6357 -0.4701 -0.9867
14642TIP3    H265418   5.582   4.510  12.180 -0.0881  1.4543 -0.0661
14643TIP3   OH265419   1.002   3.613   3.839  0.2018  0.2827 -0.3112
14643TIP3    H165420   1.096   3.596   3.834  0.0836 -0.0387 -2.6245
14643TIP3    H265421   0.962   3.527   3.829 -0.4511 -0.0557  3.4756
14644TIP3   OH265422   5.923   1.999   5.795  0.2089 -0.3110 -0.1655
14644TIP3    H165423   6.008   1.989   5.839  1.2617 -1.3726 -2.2722
14644TIP3    H265424   5.868   1.932   5.836  0.4516  0.1828  1.0190
14645TIP3   OH265425   4.207   2.025  16.506 -0.3034 -0.0067 -0.4524
14645TIP3    H165426   4.219   2.112  16.545  1.3180  0.5591 -2.0720
14645TIP3    H265427   4.119   1.999  16.532 -1.3340  2.6741 -0.9356
14646TIP3   OH265428   1.749   5.239   2.127 -0.2069 -0.0254 -0.2036
14646TIP3    H165429   1.819   5.200   2.178 -0.0087  0.8668  0.2257
14646TIP3    H265430   1.694   5.165   2.101 -0.3941 -0.4879  1.4310
14647TIP3   OH265431   6.818   0.247   5.028  0.1725 -0.5102 -0.6360
14647TIP3    H165432   6.812   0.152   5.042  2.0661 -0.5782  0.0155
14647TIP3    H265433   6.747   0.284   5.079  0.3348 -1.4996  0.3380
14648TIP3   OH265434   3.382   3.919   1.652  0.1494  0.3767  1.0644
14648TIP3    H165435   3.400   4.000   1.606  0.5969  0.1632  0.8525
14648TIP3    H265436   3.295   3.931   1.691  0.4769  1.1947  1.5650
14649TIP3   OH265437   6.642   3.511   0.616 -0.1637 -0.2913  0.5659
14649TIP3    H165438   6.609   3.436   0.565 -0.4330  0.3848 -0.2854
14649TIP3    H265439   6.582   3.582   0.593  0.8794  0.5281  0.3196
14650TIP3   OH265440   6.123   5.440   0.615  0.5352  0.1104  0.0617
14650TIP3    H165441   6.133   5.513   0.553 -0.3800 -0.2794 -0.5687
14650TIP3    H265442   6.212   5.408   0.629  0.7613  0.2145 -1.0531
14651TIP3   OH265443   5.481   4.682   3.069 -0.3493  0.6521  0.0591
14651TIP3    H165444   5.391   4.688   3.038 -0.8275 -1.1843  0.9078
14651TIP3    H265445   5.492   4.589   3.093  1.4717  1.0095  0.8302
14652TIP3   OH265446   2.364   4.692   2.622 -0.2063 -0.7447  0.8416
14652TIP3    H165447   2.380   4.703   2.715  1.5103 -0.6552  0.5784
14652TIP3    H265448   2.334   4.778   2.592 -1.1223 -0.8790  1.3667
14653TIP3   OH265449   2.480   0.581  12.618 -0.0344  0.3782  0.4908
14653TIP3    H165450   2.391   0.545  12.621  0.0994  0.0785  1.0844
14653TIP3    H265451   2.497   0.609  12.708  0.8901 -0.6209  0.6431
14654TIP3   OH265452   2.213   0.377   2.558  0.2205 -0.0685 -0.2901
14654TIP3    H165453   2.236   0.309   2.494 -2.1948 -1.7546  0.4756
14654TIP3    H265454   2.204   0.330   2.641  0.4866  1.5717  0.7163
14655TIP3   OH265455   3.769   4.692   1.652  0.0514 -0.6508  0.2421
14655TIP3    H165456   3.798   4.783   1.649 -0.7627 -0.2943  1.7970
14655TIP3    H265457   3.845   4.641   1.626  1.0332  0.4135  0.9409
14656TIP3   OH265458   2.930   0.484  14.117  0.8799  0.0983 -0.9932
14656TIP3    H165459   2.975   0.438  14.046  3.0938  2.1469 -1.0102
14656TIP3    H265460   2.977   0.567  14.126  0.1152  0.2837  2.3052
14657TIP3   OH265461   6.695   1.272   4.528  0.3198  0.7107  0.1149
14657TIP3    H165462   6.715   1.180   4.511 -0.8297  0.3214  0.7644
14657TIP3    H265463   6.777   1.318   4.512  1.2780 -0.5860  1.1015
14658TIP3   OH265464   4.416   1.759   0.824 -0.1310  0.4079 -0.1430
14658TIP3    H165465   4.457   1.755   0.911 -0.6118  0.7492  0.1012
14658TIP3    H265466   4.478   1.713   0.767  0.7846  1.2418  0.1480
14659TIP3   OH265467   4.649   3.215   5.221 -0.1767 -0.3417  0.6759
14659TIP3    H165468   4.720   3.164   5.259 -1.9988 -1.4927  2.7704
14659TIP3    H265469   4.596   3.151   5.174  0.6390  0.6652 -1.7859
14660TIP3   OH265470   1.865   1.079  16.932 -0.2415  0.1619  0.0138
14660TIP3    H165471   1.782   1.077  16.883 -0.2778  0.1928  0.0731
14660TIP3    H265472   1.839   1.058  17.022 -0.2242  0.4632  0.0891
14661TIP3   OH265473   0.849   3.605   4.802  0.3567 -0.1472  0.0895
14661TIP3    H165474   0.927   3.579   4.752  0.4903  0.5089 -0.0491
14661TIP3    H265475   0.876   3.682   4.851  0.1487 -0.6467  1.0067
14662TIP3   OH265476   3.830   4.598  16.044 -0.1944 -0.3399  0.1679
14662TIP3    H165477   3.849   4.504  16.039 -0.5152 -0.3721 -0.5996
14662TIP3    H265478   3.857   4.632  15.959  0.8690  0.4482  0.7974
14663TIP3   OH265479   6.793   1.364  11.954 -0.5515  0.2230 -0.7715
14663TIP3    H165480   6.768   1.343  12.044  0.4888  2.2257  0.0551
14663TIP3    H265481   6.712   1.360  11.904 -1.2951 -0.0498  0.4376
14664TIP3   OH265482   0.626   3.406  13.077  0.0807 -0.5496  0.3992
14664TIP3    H165483   0.543   3.408  13.125  0.6673  0.8419  1.4443
14664TIP3    H265484   0.603   3.433  12.988 -0.5788 -0.1144  0.6933
14665TIP3   OH265485   3.752   0.546  14.607 -0.6942  0.0496  0.3635
14665TIP3    H165486   3.658   0.558  14.621 -0.4641  2.4700  0.2605
14665TIP3    H265487   3.759   0.527  14.513 -0.9491  2.8611 -0.3127
14666TIP3   OH265488   4.240   3.845   2.762 -0.5500  0.0519 -0.0671
14666TIP3    H165489   4.285   3.761   2.769  0.4897  0.6551  0.7612
14666TIP3    H265490   4.306   3.904   2.727 -0.6805  0.9538  1.1444
14667TIP3   OH265491   2.214   5.397  17.158 -0.1849 -0.2058 -0.6602
14667TIP3    H165492   2.274   5.328  17.129 -0.0804 -0.7557  0.7852
14667TIP3    H265493   2.265   5.478  17.151  0.5666 -0.6033  0.0523
14668TIP3   OH265494   5.107   2.276   2.743  0.2874 -0.0882 -0.0147
14668TIP3    H165495   5.182   2.222   2.717 -0.0575 -0.9322  0.6835
14668TIP3    H265496   5.085   2.245   2.831 -1.6454 -0.6916 -0.6750
14669TIP3   OH265497   4.363   4.708   6.159 -0.0760  0.0762 -0.7563
14669TIP3    H165498   4.268   4.700   6.167 -0.2206  1.6988 -0.4452
14669TIP3    H265499   4.396   4.619   6.174 -1.4091 -0.1198  1.5715
14670TIP3   OH265500   1.111   4.268  16.677  0.0073  0.5648  0.0061
14670TIP3    H165501   1.124   4.181  16.640  1.5963 -0.1016  1.9540
14670TIP3    H265502   1.059   4.314  16.611  0.4959 -1.3245 -1.8221
14671TIP3   OH265503   5.454   5.980  12.681  0.9775  0.4508 -0.2222
14671TIP3    H165504   5.502   5.902  12.710  1.0406  0.4699 -0.2757
14671TIP3    H265505   5.501   6.053  12.722  0.7253  0.4401  0.0936
14672TIP3   OH265506   2.301   1.955   0.446  0.2905  0.1239  0.1509
14672TIP3    H165507   2.326   1.964   0.354  1.4545  1.9591  0.6138
14672TIP3    H265508   2.214   1.995   0.451  0.9022  1.5024  0.1248
14673TIP3   OH265509   2.246   1.724  10.604  0.0325 -0.1863  0.3174
14673TIP3    H165510   2.219   1.739  10.695 -1.2792  0.5806 -0.1684
14673TIP3    H265511   2.333   1.764  10.598  0.0895 -0.1567  1.2034
14674TIP3   OH265512   0.621   4.257   1.149  0.0545 -0.2944  0.0729
14674TIP3    H165513   0.559   4.184   1.145  0.6696 -0.7709 -1.6865
14674TIP3    H265514   0.693   4.230   1.093  0.5185  1.4653 -0.2219
14675TIP3   OH265515   3.508   2.814  14.486 -0.1897 -0.7711  0.5659
14675TIP3    H165516   3.599   2.815  14.515  0.5074 -1.1574 -1.4696
14675TIP3    H265517   3.507   2.753  14.412 -1.3642  1.7285 -1.6148
14676TIP3   OH265518   3.035   0.812  16.505 -0.3007 -0.0485 -0.3488
14676TIP3    H165519   3.099   0.803  16.434 -1.8976 -1.4136 -1.7226
14676TIP3    H265520   3.082   0.786  16.584  1.1267  0.0727 -1.1171
14677TIP3   OH265521   3.039   5.754  12.558 -0.1250 -0.0345 -0.2838
14677TIP3    H165522   2.947   5.776  12.545 -0.2290 -0.4934 -0.3520
14677TIP3    H265523   3.051   5.754  12.653 -0.6614 -1.7617 -0.1751
14678TIP3   OH265524   3.517   3.264  15.854  0.1548  0.0532 -0.0428
14678TIP3    H165525   3.585   3.331  15.854  1.0851 -0.8385  0.8120
14678TIP3    H265526   3.460   3.287  15.781  1.8806  0.3435 -1.3696
14679TIP3   OH265527   6.538   6.163   6.191 -0.2788 -0.3440  0.4436
14679TIP3    H165528   6.552   6.102   6.119  3.6364 -1.8220  2.1481
14679TIP3    H265529   6.507   6.243   6.150  0.7500 -1.4270 -2.7143
14680TIP3   OH265530   6.026   5.614   0.048  0.0308  0.2680 -0.3923
14680TIP3    H165531   5.932   5.612   0.067  0.1471  1.2863  0.3478
14680TIP3    H265532   6.063   5.543   0.101  0.0074  1.5139  1.3851
14681TIP3   OH265533   5.814   6.544  13.733  0.2984 -0.3023 -0.0652
14681TIP3    H165534   5.830   6.589  13.650  0.4103 -0.6431 -0.2258
14681TIP3    H265535   5.792   6.615  13.794  0.1373 -0.0583 -0.4011
14682TIP3   OH265536   4.013   1.782   3.954  0.2566  0.5113 -0.2383
14682TIP3    H165537   4.094   1.731   3.961  1.1847  2.0637  0.6582
14682TIP3    H265538   3.968   1.768   4.037  0.9007  1.7325  0.3457
14683TIP3   OH265539   4.876   4.345   4.797 -0.1893  0.0562  0.2015
14683TIP3    H165540   4.952   4.338   4.855 -0.3125  1.3050  0.5524
14683TIP3    H265541   4.844   4.434   4.811 -0.5600  0.1979 -1.3795
14684TIP3   OH265542   0.335   4.638  13.827  0.1009  0.2699  0.4172
14684TIP3    H165543   0.409   4.635  13.887  0.6045 -1.6503 -0.2225
14684TIP3    H265544   0.371   4.672  13.745 -0.2462  1.4337  0.7292
14685TIP3   OH265545   0.559   2.894  15.562 -0.4445  0.1242 -0.2285
14685TIP3    H165546   0.484   2.840  15.538 -1.4268  0.9557  0.8196
14685TIP3    H265547   0.634   2.837  15.553 -1.1899 -0.7309 -1.3435
14686TIP3   OH265548   4.114   4.794   0.180 -0.4691  0.0489 -0.0614
14686TIP3    H165549   4.196   4.747   0.164 -0.0042  0.3361  1.2874
14686TIP3    H265550   4.100   4.846   0.101 -0.4315 -1.5220 -1.1418
14687TIP3   OH265551   0.325   0.886   3.490  0.4733  0.0159  0.2454
14687TIP3    H165552   0.326   0.803   3.538 -0.4060  0.5795  1.2831
14687TIP3    H265553   0.286   0.949   3.551 -0.4897  0.8161 -1.1337
14688TIP3   OH265554   2.911   2.808   3.000  0.0658  0.0322  0.6490
14688TIP3    H165555   2.956   2.866   2.939 -1.2389 -0.0015 -0.4014
14688TIP3    H265556   2.895   2.861   3.077 -2.0966  1.5367 -0.7068
14689TIP3   OH265557   1.924   3.833  13.322 -0.1533  0.1779 -0.2212
14689TIP3    H165558   1.973   3.914  13.304 -0.6392  0.4461 -0.3454
14689TIP3    H265559   1.935   3.819  13.416 -0.4590  0.6527 -0.1071
14690TIP3   OH265560   0.483   3.941   6.151  0.0261 -0.3233  0.0706
14690TIP3    H165561   0.390   3.963   6.144  0.0181 -0.4523 -0.2700
14690TIP3    H265562   0.523   4.018   6.191 -0.3181 -0.5057  0.7744
14691TIP3   OH265563   2.369   3.373   5.332  0.3061  0.6122  0.2328
14691TIP3    H165564   2.274   3.384   5.330  0.1642 -0.5285  0.0705
14691TIP3    H265565   2.403   3.462   5.323 -0.7410  0.9745 -0.3802
14692TIP3   OH265566   0.922   0.060   3.246  0.5484  0.3046 -0.5602
14692TIP3    H165567   0.898   0.045   3.337  0.1932 -1.5665 -0.9126
14692TIP3    H265568   0.838   0.062   3.199  0.7917 -0.8509 -1.0896
14693TIP3   OH265569   6.492   1.524   3.796  0.0298  0.3484 -0.0254
14693TIP3    H165570   6.441   1.556   3.870 -0.0856  0.3882 -0.1209
14693TIP3    H265571   6.573   1.491   3.834  0.0779  0.6007  0.0941
14694TIP3   OH265572   3.380   2.045   1.034 -0.1268  0.0716 -0.7439
14694TIP3    H165573   3.329   2.125   1.045  0.8503  0.7812 -1.2838
14694TIP3    H265574   3.471   2.072   1.046  0.3277 -0.6764 -2.2949
14695TIP3   OH265575   0.242   2.368   2.670 -0.6526  0.2710 -0.4977
14695TIP3    H165576   0.202   2.285   2.695 -1.4791  0.9170  0.4409
14695TIP3    H265577   0.218   2.428   2.741  1.1954  0.9485 -0.3984
14696TIP3   OH265578   5.227   5.994  11.938 -0.2459  0.0224  0.2017
14696TIP3    H165579   5.168   6.013  12.010 -1.1237 -2.1179  0.1415
14696TIP3    H265580   5.241   6.078  11.895 -1.7303  0.9151  1.3653
14697TIP3   OH265581   5.733   3.430   2.320  0.3190 -0.5529  0.2962
14697TIP3    H165582   5.807   3.484   2.350 -0.5049  1.0361 -0.4029
14697TIP3    H265583   5.761   3.340   2.338  1.6606  0.0837  1.7421
14698TIP3   OH265584   2.711   4.195  15.549 -0.2317  0.4397 -0.0900
14698TIP3    H165585   2.685   4.235  15.632 -2.5217 -0.1832 -0.4536
14698TIP3    H265586   2.630   4.163  15.511  1.1380 -2.3020 -1.0042
14699TIP3   OH265587   2.302   4.461   3.458  0.2289  0.1779 -0.4199
14699TIP3    H165588   2.339   4.449   3.545  1.2887  0.7440 -0.7671
14699TIP3    H265589   2.253   4.543   3.464 -0.2790 -0.1356 -0.1866
14700TIP3   OH265590   0.449   2.151   2.796  0.0306 -0.2239 -0.3122
14700TIP3    H165591   0.363   2.194   2.788  0.0039 -0.4091 -1.0955
14700TIP3    H265592   0.512   2.221   2.775  0.1379  0.1785  1.2275
14701TIP3   OH265593   1.139   0.297   2.444 -0.1213 -0.3417 -0.2006
14701TIP3    H165594   1.111   0.357   2.513 -1.3536 -0.4862 -0.5507
14701TIP3    H265595   1.156   0.215   2.490 -0.4930 -0.3086  0.0034
14702TIP3   OH265596   3.865   0.088  14.282 -0.3980  0.3751 -0.6108
14702TIP3    H165597   3.868   0.079  14.378  1.1144  0.7178 -0.6033
14702TIP3    H265598   3.773   0.073  14.260 -0.6211 -0.5938  0.8098
14703TIP3   OH265599   3.512   0.253  14.189 -0.0008 -0.3811 -0.7526
14703TIP3    H165600   3.519   0.211  14.103  0.0290  0.0444 -0.9618
14703TIP3    H265601   3.491   0.182  14.249 -1.4628 -0.4879 -1.3336
14704TIP3   OH265602   5.949   5.035  14.539  0.7088 -0.2610 -0.2465
14704TIP3    H165603   5.869   5.062  14.583  0.2596 -0.4296 -0.9525
14704TIP3    H265604   5.984   5.116  14.501  0.5638 -0.2863 -0.4343
14705TIP3   OH265605   6.296   2.963  12.259  0.5866 -0.5143  0.0497
14705TIP3    H165606   6.325   3.049  12.289 -0.4269 -0.2452  0.2866
14705TIP3    H265607   6.354   2.942  12.186  0.6705  0.4917 -0.1849
14706TIP3   OH265608   1.761   4.890  14.341  0.3448  0.4233 -0.0668
14706TIP3    H165609   1.782   4.856  14.429  0.4483  0.3645 -0.1132
14706TIP3    H265610   1.724   4.977  14.357 -1.3314 -0.2812  0.1650
14707TIP3   OH265611   5.522   0.013   6.360 -0.2207  0.1658 -0.0066
14707TIP3    H165612   5.462  -0.062   6.364 -1.6896  1.2344 -0.8078
14707TIP3    H265613   5.490   0.064   6.286  2.2588  0.3523 -1.0398
14708TIP3   OH265614   5.537   3.852   4.013  0.0194 -0.3321  0.4026
14708TIP3    H165615   5.510   3.885   3.928 -0.1314 -0.6294  0.3320
14708TIP3    H265616   5.468   3.881   4.074 -0.6926 -1.4347  0.1537
14709TIP3   OH265617   3.724   2.680  17.178  0.2499  0.0409 -0.2168
14709TIP3    H165618   3.801   2.674  17.120 -1.6373 -0.3544 -2.8836
14709TIP3    H265619   3.660   2.729  17.126 -2.2820 -2.1130  0.7238
14710TIP3   OH265620   6.271   4.500  12.554 -0.2288  0.2085  0.3544
14710TIP3    H165621   6.209   4.428  12.569 -0.0121  0.3039  1.7900
14710TIP3    H265622   6.300   4.526  12.641 -0.4717  2.2031 -0.0980
14711TIP3   OH265623   3.475   1.939   2.587 -0.2044  0.4752  0.1081
14711TIP3    H165624   3.508   1.868   2.533 -0.3955  0.4408  0.0363
14711TIP3    H265625   3.421   1.992   2.528 -0.3541  0.4776  0.2463
14712TIP3   OH265626   2.510   2.703  13.575 -0.2731  0.3125 -0.0192
14712TIP3    H165627   2.601   2.682  13.593 -0.3142 -0.5060 -0.7093
14712TIP3    H265628   2.460   2.659  13.644 -0.2212 -0.1730 -0.2919
14713TIP3   OH265629   6.706   0.796  13.546 -0.2522 -0.4803  0.1444
14713TIP3    H165630   6.707   0.818  13.452  0.5947 -1.5651 -0.1160
14713TIP3    H265631   6.771   0.855  13.584 -0.2892 -0.3357 -0.0111
14714TIP3   OH265632   0.380   5.677   3.850  0.2419  0.0963  0.2840
14714TIP3    H165633   0.332   5.599   3.822 -0.9237  0.2901  1.6503
14714TIP3    H265634   0.375   5.737   3.776  1.4557 -1.2202 -0.9292
14715TIP3   OH265635   6.109   6.217  17.160 -0.4831  0.4020  0.3447
14715TIP3    H165636   6.041   6.150  17.153 -0.2804  0.0879  1.2227
14715TIP3    H265637   6.061   6.298  17.182 -0.9123  0.9738 -2.4051
14716TIP3   OH265638   4.672   3.523  14.078  0.0523  0.5059 -0.3040
14716TIP3    H165639   4.703   3.527  14.169 -2.4126  1.5193  0.5626
14716TIP3    H265640   4.699   3.607  14.040 -0.5438  0.8683  0.0678
14717TIP3   OH265641   1.453   4.575  15.636  0.0957 -0.2865 -0.3034
14717TIP3    H165642   1.543   4.562  15.608  0.7200 -0.0216  1.4153
14717TIP3    H265643   1.440   4.670  15.632 -0.5289 -0.4155 -1.6962
14718TIP3   OH265644   2.432   0.681   2.781 -0.9187 -0.4089 -0.1833
14718TIP3    H165645   2.510   0.701   2.833 -0.5773  0.4858 -1.0161
14718TIP3    H265646   2.400   0.766   2.753 -1.4571 -0.8469 -0.9231
14719TIP3   OH265647   3.022   1.327   1.823 -0.1651  0.3805 -0.5755
14719TIP3    H165648   3.026   1.316   1.728 -3.0770  1.7187 -0.9586
14719TIP3    H265649   2.942   1.280   1.849 -0.8333  2.1896  0.8036
14720TIP3   OH265650   0.832   5.246  17.108 -0.1040  0.2092 -0.5636
14720TIP3    H165651   0.799   5.336  17.106 -0.9235 -0.0802 -0.8197
14720TIP3    H265652   0.922   5.252  17.078  0.0951  1.0396  0.1552
14721TIP3   OH265653   3.995   1.123   2.967 -0.9448 -0.1967 -0.2719
14721TIP3    H165654   4.024   1.038   3.000 -0.6621  0.7087  2.0274
14721TIP3    H265655   3.915   1.104   2.919 -0.4164 -1.8555 -0.5822
14722TIP3   OH265656   5.811   3.292  12.793 -0.1847  0.1033 -0.4450
14722TIP3    H165657   5.786   3.204  12.822  1.1603 -0.2733 -0.3945
14722TIP3    H265658   5.749   3.311  12.722  1.0714 -1.9535 -2.2279
14723TIP3   OH265659   4.808   4.923  16.496 -0.2076 -0.2231 -0.0077
14723TIP3    H165660   4.866   4.993  16.523 -0.5867  0.1626 -0.1770
14723TIP3    H265661   4.728   4.967  16.467 -0.2804 -0.6926 -0.5586
14724TIP3   OH265662   1.193   6.221   2.926  0.3122  0.2100  0.5640
14724TIP3    H165663   1.155   6.179   2.849 -2.2702  1.9882  0.7249
14724TIP3    H265664   1.214   6.310   2.896  1.4662  0.2231  1.3462
14725TIP3   OH265665   6.680   4.170  16.948  0.2493 -0.1395  0.2853
14725TIP3    H165666   6.734   4.178  17.027  1.2842  2.7025 -0.5978
14725TIP3    H265667   6.740   4.190  16.876 -0.8962 -1.7165 -1.2129
14726TIP3   OH265668   1.915   6.544   1.791 -0.0451  0.5953  0.0066
14726TIP3    H165669   1.829   6.567   1.756  0.5851  0.6655 -1.5656
14726TIP3    H265670   1.906   6.555   1.886 -1.8776  0.2087 -0.0822
14727TIP3   OH265671   2.523   1.606  13.094 -0.1867 -0.1628 -0.1232
14727TIP3    H165672   2.608   1.562  13.094 -0.2226 -0.2335 -0.0817
14727TIP3    H265673   2.489   1.592  13.005  0.6671  1.4846 -0.7405
14728TIP3   OH265674   5.353   0.982   3.291  0.2358 -0.1541 -0.6350
14728TIP3    H165675   5.442   0.950   3.277  0.2417  0.2915 -1.6531
14728TIP3    H265676   5.301   0.939   3.223 -0.5002 -1.0488  0.4527
14729TIP3   OH265677   5.592   0.786   2.174 -0.1213 -0.1435  0.8502
14729TIP3    H165678   5.688   0.787   2.172 -0.1280 -0.4058 -0.1057
14729TIP3    H265679   5.567   0.750   2.089 -1.0608 -0.8065  1.3932
14730TIP3   OH265680   0.283   3.629  12.356  0.4303  0.4185 -0.1257
14730TIP3    H165681   0.370   3.623  12.397 -0.0376  0.1395  0.8464
14730TIP3    H265682   0.255   3.538  12.347  0.3116  0.5018 -0.6196
14731TIP3   OH265683   1.508   0.211  11.855  0.4387 -0.2568  0.0157
14731TIP3    H165684   1.595   0.175  11.840  1.0245  0.4434  1.5337
14731TIP3    H265685   1.463   0.200  11.771  2.3651  0.4659 -1.1707
14732TIP3   OH265686   2.072   5.597  14.501  0.2627  0.0146  0.0274
14732TIP3    H165687   2.034   5.653  14.568  2.4358  0.9708  0.5626
14732TIP3    H265688   2.086   5.654  14.426 -1.5999 -0.9117 -1.0823
14733TIP3   OH265689   6.368   2.696  14.364  0.0270 -0.0441 -0.0917
14733TIP3    H165690   6.340   2.641  14.437  0.2633  1.0550  0.8605
14733TIP3    H265691   6.298   2.687  14.299 -1.2355  0.5442  1.1265
14734TIP3   OH265692   0.581   2.245   1.925 -0.0332  0.4874 -0.1880
14734TIP3    H165693   0.507   2.249   1.865  1.9818  0.7279 -2.8905
14734TIP3    H265694   0.602   2.337   1.944 -1.5704  0.4124  2.2526
14735TIP3   OH265695   2.874   0.553   2.183 -0.1219  0.0208 -0.6173
14735TIP3    H165696   2.839   0.518   2.265  3.2775 -1.5461  0.3636
14735TIP3    H265697   2.845   0.490   2.117  2.9340 -3.0794  0.6171
14736TIP3   OH265698   3.485   4.011  15.388 -0.1251 -0.1608 -1.0600
14736TIP3    H165699   3.498   3.989  15.296  3.3312  1.0422 -0.9988
14736TIP3    H265700   3.525   3.938  15.436 -1.3625 -0.4872 -0.4828
14737TIP3   OH265701   5.500   4.853  12.475 -0.0391  0.0084  0.0101
14737TIP3    H165702   5.529   4.807  12.554  0.8265 -1.8205 -1.3060
14737TIP3    H265703   5.450   4.788  12.427  1.2072  0.4024 -1.9198
14738TIP3   OH265704   6.099   4.698  13.480 -0.3057  0.1605  0.1140
14738TIP3    H165705   6.038   4.715  13.552  0.2490 -3.0687  1.5493
14738TIP3    H265706   6.045   4.698  13.401 -1.6966 -0.0644  1.0430
14739TIP3   OH265707   3.924   2.214   2.349 -0.3280  0.2924  0.3622
14739TIP3    H165708   3.994   2.254   2.297  1.0439  0.1514  2.0185
14739TIP3    H265709   3.961   2.132   2.381 -0.5765  0.9993  2.6584
14740TIP3   OH265710   3.539   1.028   1.543 -0.2206  0.1972 -0.3309
14740TIP3    H165711   3.548   0.997   1.453  2.4125 -1.4872  0.3967
14740TIP3    H265712   3.481   1.104   1.537 -1.0133 -0.5344 -3.2595
14741TIP3   OH265713   0.631   4.989   3.292  0.1157 -0.3352 -0.2059
14741TIP3    H165714   0.579   4.910   3.310  0.3583 -0.8059 -1.4611
14741TIP3    H265715   0.569   5.061   3.301 -0.7625 -0.8761 -1.5967
14742TIP3   OH265716   4.875   2.612  14.526 -0.3632  0.4261 -0.2703
14742TIP3    H165717   4.950   2.640  14.579 -0.4503  0.1437  0.0069
14742TIP3    H265718   4.914   2.577  14.446 -0.1464 -0.4648  0.2098
14743TIP3   OH265719   0.471   5.504  14.495 -0.2128  0.9780  0.3356
14743TIP3    H165720   0.403   5.561  14.460 -0.4037  0.5404 -0.0293
14743TIP3    H265721   0.462   5.423  14.443 -0.6922  0.1972  1.5876
14744TIP3   OH265722   6.535   1.972  16.776 -0.6255  0.2639  0.1865
14744TIP3    H165723   6.476   2.022  16.832 -0.3180  1.7126 -0.7385
14744TIP3    H265724   6.560   1.896  16.829 -2.7422 -0.0323  0.8531
14745TIP3   OH265725   0.316   4.306   1.692  0.5043  0.0005  0.3232
14745TIP3    H165726   0.340   4.233   1.749  0.5705 -0.3402 -0.1276
14745TIP3    H265727   0.289   4.263   1.610  1.3131  0.5059 -0.2260
14746TIP3   OH265728   6.559   3.048   1.580  0.1147  0.3322 -0.2931
14746TIP3    H165729   6.467   3.063   1.560 -0.8080 -2.0578  1.5533
14746TIP3    H265730   6.561   3.041   1.676  2.2768  0.6538 -0.2788
14747TIP3   OH265731   6.674   2.175  17.192 -0.2403  0.0235  0.1992
14747TIP3    H165732   6.717   2.260  17.184  1.3211 -0.8570 -1.1827
14747TIP3    H265733   6.618   2.170  17.114 -0.5083 -0.1244  0.4023
14748TIP3   OH265734   5.829   2.027   6.097  0.3969  0.0601  0.3834
14748TIP3    H165735   5.777   2.050   6.174 -1.2923  0.1006 -0.7382
14748TIP3    H265736   5.777   1.963   6.050  2.1852 -1.2814  0.1221
14749TIP3   OH265737   6.734   4.247  16.031  0.4771 -0.3959  0.0136
14749TIP3    H165738   6.750   4.338  16.056 -1.1568 -0.5075  1.6778
14749TIP3    H265739   6.807   4.226  15.972  1.2399  1.7744  0.0657
14750TIP3   OH265740   3.977   4.448  11.060  0.0975 -0.5745  0.3226
14750TIP3    H165741   4.039   4.395  11.108  0.7846 -1.4168 -1.4287
14750TIP3    H265742   4.019   4.465  10.976 -2.1144 -1.4426 -1.0582
14751TIP3   OH265743   1.249   2.970  12.254  0.4246 -0.4174  0.0369
14751TIP3    H165744   1.165   2.931  12.231  0.2529 -0.5028  0.7981
14751TIP3    H265745   1.242   2.991  12.347  1.4019 -0.8345  0.2181
14752TIP3   OH265746   4.518   3.439  12.806  0.6280  0.0180  0.2646
14752TIP3    H165747   4.536   3.391  12.725 -0.9594 -0.0698 -0.0753
14752TIP3    H265748   4.559   3.524  12.794  1.2381 -0.3379 -0.2160
14753TIP3   OH265749   5.067   4.410  13.729 -0.6302  0.1004  0.3886
14753TIP3    H165750   5.103   4.425  13.816 -0.6206 -0.6512  0.5169
14753TIP3    H265751   5.123   4.461  13.671  3.1358 -3.8404  0.0675
14754TIP3   OH265752   5.478   1.571   5.783  0.1339 -0.0122  0.4400
14754TIP3    H165753   5.507   1.559   5.874 -0.5563 -1.9304  0.4340
14754TIP3    H265754   5.416   1.644   5.788  1.1412  0.8247  1.2569
14755TIP3   OH265755   0.723   0.425   2.626  0.1158  0.1083  0.1938
14755TIP3    H165756   0.685   0.354   2.678 -0.4645  1.0346  1.0662
14755TIP3    H265757   0.812   0.395   2.606 -0.9781 -2.0948 -1.8591
14756TIP3   OH265758   2.627   5.084   0.729  0.2017 -0.7575 -0.2051
14756TIP3    H165759   2.573   5.105   0.653  1.3438  0.5464 -0.7095
14756TIP3    H265760   2.567   5.092   0.803 -0.3576  0.5321 -0.7548
14757TIP3   OH265761   5.999   4.207  11.766 -0.3264 -1.0317  0.1218
14757TIP3    H165762   5.936   4.199  11.838 -1.2179  0.0429 -0.4964
14757TIP3    H265763   6.010   4.301  11.755  1.5027 -1.1871  0.2678
14758TIP3   OH265764   0.416   0.581  15.619 -0.0597 -0.5520  0.3054
14758TIP3    H165765   0.362   0.549  15.691 -1.4835  1.8988  0.4409
14758TIP3    H265766   0.467   0.652  15.657  1.1293 -0.9311 -0.5295
14759TIP3   OH265767   3.928   4.190   3.137  0.1456 -0.4246  0.1450
14759TIP3    H165768   3.899   4.144   3.058  0.1343 -1.1296  0.5522
14759TIP3    H265769   3.852   4.241   3.164  0.3563  0.3413 -0.6632
14760TIP3   OH265770   4.437   5.916  13.327 -0.0192 -0.4715  0.1200
14760TIP3    H165771   4.440   5.985  13.260  0.2440  1.6097  2.1148
14760TIP3    H265772   4.376   5.851  13.292  0.3427  0.3499 -2.2350
14761TIP3   OH265773   1.455   3.369   1.265 -0.6036  0.1001 -0.6933
14761TIP3    H165774   1.478   3.278   1.285 -0.4367  0.7686  2.6492
14761TIP3    H265775   1.377   3.386   1.317 -0.1831  2.0876 -0.6568
14762TIP3   OH265776   3.156   1.696   0.588 -0.2437  0.7151  0.1947
14762TIP3    H165777   3.128   1.618   0.636  1.0553  0.4251  0.5077
14762TIP3    H265778   3.170   1.666   0.498  0.3987  0.5488  0.3478
14763TIP3   OH265779   6.352   5.032  11.234 -0.0859 -0.1117  0.0060
14763TIP3    H165780   6.343   5.127  11.228 -0.4393 -0.0537  1.2991
14763TIP3    H265781   6.400   5.007  11.155 -0.7169  1.0411 -0.7680
14764TIP3   OH265782   3.796   4.013   2.938 -0.0085 -1.0570 -0.3866
14764TIP3    H165783   3.836   3.932   2.970  0.2857 -0.3570  1.0891
14764TIP3    H265784   3.747   3.986   2.861  0.0127 -2.6641  0.1218
14765TIP3   OH265785   2.993   5.471   4.823 -0.0629  0.6509  0.0177
14765TIP3    H165786   3.069   5.439   4.774  0.1891 -0.5159  1.1288
14765TIP3    H265787   3.014   5.562   4.843  0.3964  0.7669 -0.9075
14766TIP3   OH265788   4.183   1.309  12.426  0.1421  0.2529 -0.1171
14766TIP3    H165789   4.270   1.336  12.397 -0.4071  0.8024 -1.2964
14766TIP3    H265790   4.198   1.227  12.472  1.5087  1.1876  1.2181
14767TIP3   OH265791   0.873   3.645   3.436 -0.2457 -0.0058 -0.3074
14767TIP3    H165792   0.929   3.577   3.397  0.4295  1.0144 -1.1924
14767TIP3    H265793   0.926   3.681   3.507 -0.7539 -0.6352  0.4068
14768TIP3   OH265794   2.413   6.549  11.102 -0.0307 -0.6838  0.3869
14768TIP3    H165795   2.502   6.579  11.120 -0.4298 -0.8658  3.1107
14768TIP3    H265796   2.425   6.467  11.054  1.1931  0.1465 -0.8098
14769TIP3   OH265797   5.751   4.692  12.729  0.1986 -0.4743 -0.0334
14769TIP3    H165798   5.838   4.656  12.744 -0.5137 -1.5228  2.0200
14769TIP3    H265799   5.700   4.618  12.695 -0.2806 -0.3284  0.3485
14770TIP3   OH265800   4.202   4.763   0.834  0.3004  0.1199  0.0367
14770TIP3    H165801   4.190   4.855   0.810  3.1522  0.1739 -1.6360
14770TIP3    H265802   4.198   4.762   0.929 -0.0540  1.9266  0.0680
14771TIP3   OH265803   0.510   2.455  11.421  0.1736 -0.3512 -0.0780
14771TIP3    H165804   0.456   2.477  11.345 -0.4305  1.2784  0.7837
14771TIP3    H265805   0.450   2.410  11.480 -0.3217  1.4699  0.8844
14772TIP3   OH265806   4.669   2.501  13.182 -0.2232 -0.2420  0.3796
14772TIP3    H165807   4.645   2.434  13.246 -0.8871  0.3012  0.7146
14772TIP3    H265808   4.742   2.548  13.222 -0.9690  0.4292  0.9850
14773TIP3   OH265809   0.853   4.537  13.536  0.2347  0.5199  0.2436
14773TIP3    H165810   0.825   4.589  13.611  0.0850  1.9030 -0.7397
14773TIP3    H265811   0.947   4.524  13.550  0.2533  0.9808  0.5662
14774TIP3   OH265812   6.738   0.159   0.277 -0.1627  0.0622 -0.3904
14774TIP3    H165813   6.654   0.138   0.237 -0.0058  1.8804 -1.8268
14774TIP3    H265814   6.781   0.217   0.213  1.1803  1.0639  1.3357
14775TIP3   OH265815   6.134   3.389  13.131  0.1896 -0.3081 -0.1728
14775TIP3    H165816   6.150   3.305  13.087  1.5520  0.7816 -1.9084
14775TIP3    H265817   6.081   3.439  13.068  0.8621  0.7338  0.0590
14776TIP3   OH265818   6.552   1.585   6.211  0.4723  0.9920  0.8965
14776TIP3    H165819   6.612   1.630   6.271 -0.1307  2.1346  0.6641
14776TIP3    H265820   6.471   1.574   6.262  0.2461  1.1750  0.5767
14777TIP3   OH265821   4.082   4.940  12.810 -0.5103 -0.0034  0.1054
14777TIP3    H165822   4.030   4.914  12.734 -0.5090 -0.0764  0.1293
14777TIP3    H265823   4.166   4.965  12.773 -0.8690  1.0277 -0.0369
14778TIP3   OH265824   0.328   2.098  13.175  0.3268 -0.6221 -0.5455
14778TIP3    H165825   0.273   2.175  13.188 -0.2188 -1.4922  3.2041
14778TIP3    H265826   0.415   2.125  13.206  0.0734 -1.5191  1.0379
14779TIP3   OH265827   3.003   1.917   2.451  0.4330  0.0052 -0.0883
14779TIP3    H165828   2.952   1.994   2.476 -1.8521 -1.6893  0.8025
14779TIP3    H265829   2.993   1.912   2.356 -0.2438  0.2694 -0.0375
14780TIP3   OH265830   4.063   4.005   1.023 -0.2386 -0.1068 -0.2937
14780TIP3    H165831   4.150   4.004   1.062 -0.2522  0.3045 -0.2460
14780TIP3    H265832   4.053   3.918   0.984  0.0534 -0.2766  0.0021
14781TIP3   OH265833   4.475   6.346  13.308  0.0307 -0.1647  0.2092
14781TIP3    H165834   4.493   6.421  13.251  0.9900 -0.9234 -0.5233
14781TIP3    H265835   4.488   6.269  13.251  0.4872 -0.9212  1.3049
14782TIP3   OH265836   1.035   0.094  10.832  0.1687 -0.2301  0.3478
14782TIP3    H165837   1.032   0.096  10.736  1.8851  0.2998  0.2660
14782TIP3    H265838   1.061   0.183  10.856  0.7747 -0.6435  1.2448
14783TIP3   OH265839   4.366   1.490   1.626  0.6369 -0.1438  0.3404
14783TIP3    H165840   4.354   1.552   1.553  4.4161  0.7905  0.2687
14783TIP3    H265841   4.304   1.519   1.693  0.6062  2.2711 -0.6134
14784TIP3   OH265842   2.489   0.475  13.617  0.0151 -0.2839 -0.2368
14784TIP3    H165843   2.424   0.406  13.608  0.9057 -1.2384  0.3947
14784TIP3    H265844   2.551   0.459  13.546  0.4618 -0.4084  0.1776
14785TIP3   OH265845   1.549   5.408   6.018  0.3184  0.0134 -0.0676
14785TIP3    H165846   1.535   5.445   5.931  1.6714 -0.7954 -0.6603
14785TIP3    H265847   1.637   5.437   6.042  1.1614 -2.1669 -0.2591
14786TIP3   OH265848   2.829   3.874  16.377 -0.7663 -0.6213  0.8376
14786TIP3    H165849   2.786   3.878  16.292 -0.2481  3.7214  0.5440
14786TIP3    H265850   2.758   3.880  16.441 -0.9802  0.1754  0.5413
14787TIP3   OH265851   2.015   5.989   1.299  0.0435 -0.5734 -0.5521
14787TIP3    H165852   2.104   6.023   1.286 -0.7533  3.0532  1.8977
14787TIP3    H265853   2.024   5.924   1.368  0.7524  0.2120  0.1173
14788TIP3   OH265854   0.879   1.879   3.641 -0.0829 -0.3177  0.1269
14788TIP3    H165855   0.957   1.908   3.689  0.8496 -0.2201 -1.3614
14788TIP3    H265856   0.818   1.851   3.709  1.6311 -1.3592  1.3249
14789TIP3   OH265857   1.363   1.632   3.037  0.1066 -0.2809 -0.1399
14789TIP3    H165858   1.413   1.708   3.007  1.3161 -1.0398 -0.0962
14789TIP3    H265859   1.421   1.588   3.099 -0.4945 -1.3741 -0.3371
14790TIP3   OH265860   0.616   0.887  14.470  0.2377  0.4327  0.0188
14790TIP3    H165861   0.532   0.888  14.424 -0.2217 -1.6100  0.7027
14790TIP3    H265862   0.677   0.930  14.410 -1.2409  1.8153 -0.5640
14791TIP3   OH265863   1.955   2.609  12.111  0.0285 -0.0865  0.2057
14791TIP3    H165864   2.048   2.632  12.111 -0.0794  0.4742 -1.3703
14791TIP3    H265865   1.928   2.617  12.203  1.4470  0.0685  0.6327
14792TIP3   OH265866   4.811   5.569  16.353  0.0603 -0.0379 -0.2935
14792TIP3    H165867   4.760   5.617  16.418  0.3988 -1.4400  1.0704
14792TIP3    H265868   4.867   5.635  16.312 -0.2429  0.8998  0.7771
14793TIP3   OH265869   2.861   1.689  13.592 -0.0589 -0.0407 -0.1995
14793TIP3    H165870   2.920   1.701  13.517 -0.8008  2.0355 -0.5016
14793TIP3    H265871   2.895   1.747  13.660 -1.3814  0.7639 -0.1853
14794TIP3   OH265872   1.874   5.967  11.476 -0.0040 -0.3059  0.3215
14794TIP3    H165873   1.919   5.899  11.526  1.3049  1.1173  1.1548
14794TIP3    H265874   1.944   6.019  11.437 -0.9512  0.7912  0.0300
14795TIP3   OH265875   0.328   2.922   1.059  0.4636 -0.3326 -0.1689
14795TIP3    H165876   0.351   2.829   1.068  1.1223 -0.1581 -0.0032
14795TIP3    H265877   0.336   2.957   1.148 -1.5483 -0.4997  0.1122
14796TIP3   OH265878   3.580   5.427   5.351 -0.4629 -0.6002  0.0806
14796TIP3    H165879   3.561   5.507   5.402  0.3460  0.5012 -1.2699
14796TIP3    H265880   3.587   5.458   5.261  2.1991 -1.7794 -0.2063
14797TIP3   OH265881   2.661   2.258  15.277 -0.1085 -0.5279  0.0551
14797TIP3    H165882   2.598   2.280  15.208  0.9856  2.2396 -0.1972
14797TIP3    H265883   2.698   2.174  15.250  0.0595  0.2991 -2.5882
14798TIP3   OH265884   4.329   3.053  14.244  0.3556  0.3462 -0.1562
14798TIP3    H165885   4.239   3.073  14.269  0.5107 -1.1907  1.8382
14798TIP3    H265886   4.349   2.971  14.288  3.1926  1.3221  0.5904
14799TIP3   OH265887   6.760   2.881  12.629  0.3320  0.0842 -0.6705
14799TIP3    H165888   6.810   2.804  12.601 -3.4440 -1.5761 -3.8437
14799TIP3    H265889   6.693   2.846  12.687 -0.8569  1.0984 -1.3868
14800TIP3   OH265890   2.129   2.769  12.578 -0.1765  0.1563  0.0466
14800TIP3    H165891   2.080   2.839  12.621  0.9259  2.2388 -1.8342
14800TIP3    H265892   2.108   2.779  12.485 -0.7165 -2.6931 -0.2422
14801TIP3   OH265893   3.412   3.738   4.808 -0.4493 -0.0082  0.2059
14801TIP3    H165894   3.508   3.732   4.804 -0.3365  0.6311  1.3000
14801TIP3    H265895   3.395   3.781   4.892 -1.7003 -0.0680 -0.0008
14802TIP3   OH265896   0.962   4.345   3.655 -0.2404 -0.6315 -0.0467
14802TIP3    H165897   0.912   4.335   3.736 -0.1504  2.1693  0.4325
14802TIP3    H265898   0.904   4.314   3.586 -0.3713 -2.9403  0.9994
14803TIP3   OH265899   6.226   2.890  13.375  0.0565  0.1073 -0.1178
14803TIP3    H165900   6.281   2.812  13.383 -1.3147 -0.8542  0.2863
14803TIP3    H265901   6.284   2.963  13.396  0.8588 -0.9815  1.6970
14804TIP3   OH265902   0.403   1.456  16.238  0.1509  0.5219  0.0760
14804TIP3    H165903   0.335   1.523  16.246 -1.7268 -1.4428  2.0413
14804TIP3    H265904   0.462   1.473  16.311 -1.5686 -1.1156  1.9851
14805TIP3   OH265905   6.624   4.503   1.332 -0.0209  0.4552 -0.2920
14805TIP3    H165906   6.530   4.491   1.318  0.0029  0.8348 -0.7871
14805TIP3    H265907   6.662   4.507   1.244  0.6493 -1.1088 -0.1119
14806TIP3   OH265908   2.031   6.310   5.945  0.5921 -0.2275 -0.3049
14806TIP3    H165909   1.980   6.327   6.024  2.8917  1.9845  0.8654
14806TIP3    H265910   2.079   6.230   5.964  1.9564  0.8585  1.1081
14807TIP3   OH265911   1.117   3.014   4.650 -0.4805 -0.1488  0.7020
14807TIP3    H165912   1.211   3.032   4.654 -0.3323 -0.7994  0.3181
14807TIP3    H265913   1.111   2.926   4.612 -1.2752  0.2123 -0.0454
14808TIP3   OH265914   2.455   4.249  10.972 -0.0554  0.3908 -0.1474
14808TIP3    H165915   2.401   4.249  11.051 -0.5608  0.5583 -0.4883
14808TIP3    H265916   2.423   4.324  10.921  2.1259  2.0432  0.7382
14809TIP3   OH265917   2.224   5.017   3.523 -0.2944  0.2395 -0.4303
14809TIP3    H165918   2.311   4.977   3.526 -0.9989 -1.3784  1.9663
14809TIP3    H265919   2.240   5.111   3.524  1.4282 -0.0265 -0.3045
14810TIP3   OH265920   3.845   1.867   2.266  0.0024 -0.0977  0.1635
14810TIP3    H165921   3.877   1.891   2.179 -1.7770 -1.4608 -0.9386
14810TIP3    H265922   3.924   1.853   2.317  1.1291 -0.4880 -1.5913
14811TIP3   OH265923   0.836   3.097   4.190 -0.8783 -0.2515 -0.0908
14811TIP3    H165924   0.904   3.034   4.164 -1.1444 -1.3470  1.6584
14811TIP3    H265925   0.769   3.090   4.123 -0.8276 -1.7455 -0.0166
14812TIP3   OH265926   5.988   1.269   0.715 -0.0049 -0.6660  0.1807
14812TIP3    H165927   5.902   1.228   0.719  0.9766 -2.8460  0.7495
14812TIP3    H265928   5.987   1.320   0.634 -2.4688  1.0329  1.1748
14813TIP3   OH265929   2.576   5.165  13.600 -0.1096 -1.1318  0.3551
14813TIP3    H165930   2.578   5.257  13.573 -0.3366 -1.0205  0.7207
14813TIP3    H265931   2.601   5.117  13.521 -1.2678 -0.8380 -0.2256
14814TIP3   OH265932   6.484   4.074  15.268 -0.8116 -0.6884 -0.2852
14814TIP3    H165933   6.405   4.104  15.312 -0.6717  0.7823 -0.9789
14814TIP3    H265934   6.462   4.075  15.174  0.1512  0.1862 -0.5194
14815TIP3   OH265935   3.433   2.457  14.368  0.9137 -0.2641 -0.0666
14815TIP3    H165936   3.501   2.444  14.301  0.2179 -0.6709 -0.7169
14815TIP3    H265937   3.358   2.407  14.336  0.1920  0.4379  0.4660
14816TIP3   OH265938   5.412   6.793  16.473  0.2278 -0.3452 -0.4584
14816TIP3    H165939   5.471   6.804  16.398 -0.5829 -1.4760 -1.2937
14816TIP3    H265940   5.334   6.843  16.449 -0.8648 -2.3938 -1.3431
14817TIP3   OH265941   0.069   0.347   0.498 -0.2304 -0.0275  0.4687
14817TIP3    H165942   0.153   0.374   0.459 -0.3519 -1.9953 -1.3592
14817TIP3    H265943   0.020   0.310   0.425 -2.2292 -0.0485  1.7564
14818TIP3   OH265944   6.648   4.770   0.499  0.0907 -0.0325 -0.7032
14818TIP3    H165945   6.629   4.682   0.530 -0.0841  0.2218 -0.0638
14818TIP3    H265946   6.687   4.758   0.412  0.5473 -0.7564 -0.4014
14819TIP3   OH265947   0.083   5.184  14.188  0.2920  0.1245  0.3446
14819TIP3    H165948   0.087   5.253  14.255 -1.2689  0.3918  0.1969
14819TIP3    H265949   0.039   5.111  14.232 -0.7432  0.3024 -0.3681
14820TIP3   OH265950   3.978   0.760  14.972 -0.1377 -0.1299  0.6296
14820TIP3    H165951   3.966   0.843  15.018  2.6607 -0.2202  1.6657
14820TIP3    H265952   4.069   0.737  14.987 -0.8979 -3.5876  0.6421
14821TIP3   OH265953   2.576   1.716  13.710 -0.8489 -0.3764  0.2872
14821TIP3    H165954   2.647   1.750  13.765 -0.0963 -1.8237  0.2615
14821TIP3    H265955   2.621   1.677  13.634 -1.5313 -2.5405  0.9161
14822TIP3   OH265956   4.199   5.097  11.938 -0.2406  0.6992  0.4607
14822TIP3    H165957   4.245   5.098  11.854  1.0330  0.6583  1.1251
14822TIP3    H265958   4.218   5.010  11.974 -3.0196 -0.3566 -0.3575
14823TIP3   OH265959   6.162   1.885   4.547  0.2190  0.4174  0.3132
14823TIP3    H165960   6.148   1.978   4.565 -0.2363  0.5795 -0.8551
14823TIP3    H265961   6.242   1.864   4.595 -0.4685  1.0411  1.8046
14824TIP3   OH265962   2.951   5.491  12.263  0.6145  0.1278  0.0179
14824TIP3    H165963   2.997   5.532  12.190  2.3393 -1.2676  0.2537
14824TIP3    H265964   3.020   5.474  12.328 -0.8413  1.2327  1.9603
14825TIP3   OH265965   3.875   5.666  15.949 -0.7363 -0.3542 -0.5041
14825TIP3    H165966   3.877   5.714  16.032  0.7599  0.3289 -0.9001
14825TIP3    H265967   3.898   5.576  15.973 -0.3987 -0.1782 -0.1458
14826TIP3   OH265968   5.227   6.615   2.879  0.2891  0.0283 -0.2701
14826TIP3    H165969   5.192   6.615   2.969 -1.5130  1.6748 -0.8970
14826TIP3    H265970   5.276   6.533   2.873  0.5615 -0.0903  2.2373
14827TIP3   OH265971   2.619   0.244  11.987 -0.2437 -0.2791  0.0454
14827TIP3    H165972   2.663   0.317  11.945  0.8921 -0.2789  1.1746
14827TIP3    H265973   2.529   0.274  12.002 -0.0330  0.5348 -0.3232
14828TIP3   OH265974   1.031   1.129   1.684 -0.0022 -0.0599  0.1700
14828TIP3    H165975   1.052   1.222   1.675 -3.5269  0.7776 -0.8297
14828TIP3    H265976   1.052   1.092   1.598  1.3335 -0.2266  0.5448
14829TIP3   OH265977   3.564   1.710   0.612 -0.1603 -0.1860  0.2890
14829TIP3    H165978   3.522   1.762   0.680 -0.6300  1.5005 -1.2052
14829TIP3    H265979   3.497   1.701   0.545  0.9909  0.2147 -0.9629
14830TIP3   OH265980   0.293   5.562   2.286 -0.0947 -0.4052 -0.7963
14830TIP3    H165981   0.199   5.555   2.271 -0.0175 -3.0674 -0.5870
14830TIP3    H265982   0.302   5.632   2.350 -2.2066 -1.7393  1.1162
14831TIP3   OH265983   1.631   2.379   1.652  0.0200  0.4955  0.0713
14831TIP3    H165984   1.574   2.317   1.605 -3.4294  1.0994  2.9659
14831TIP3    H265985   1.627   2.459   1.599 -0.2049 -0.0477 -0.7700
14832TIP3   OH265986   0.264   3.613   3.961  0.5487  0.2206  0.0693
14832TIP3    H165987   0.349   3.633   3.998  1.5404  1.1254 -2.4469
14832TIP3    H265988   0.253   3.519   3.973  2.9232 -0.3130 -1.4033
14833TIP3   OH265989   2.675   5.304  13.190  0.0905 -0.3655 -0.2919
14833TIP3    H165990   2.727   5.384  13.183 -1.3298  0.6440  0.3153
14833TIP3    H265991   2.676   5.267  13.102 -1.3040  1.6700 -1.2348
14834TIP3   OH265992   3.539   0.845   2.362 -0.0132 -0.5175  0.4752
14834TIP3    H165993   3.627   0.839   2.398  0.5875 -0.6334 -0.9679
14834TIP3    H265994   3.485   0.792   2.421  0.5108  0.9635  2.3976
14835TIP3   OH265995   2.504   1.437  10.605  0.0978  0.3371 -0.3516
14835TIP3    H165996   2.492   1.352  10.647 -0.3675  0.4803 -0.1876
14835TIP3    H265997   2.424   1.451  10.554 -0.5817  1.4250  0.9489
14836TIP3   OH265998   4.757   5.633   4.999 -0.3494  0.3609 -0.2032
14836TIP3    H165999   4.692   5.611   4.933  0.0371  0.0444 -0.4781
14836TIP3    H266000   4.841   5.630   4.953 -0.2235  1.7850 -0.0955
14837TIP3   OH266001   3.092   1.083  16.392  0.0507 -0.5820  0.2030
14837TIP3    H166002   3.085   1.007  16.450  0.6838 -0.5242  0.3667
14837TIP3    H266003   3.045   1.152  16.437  0.5274 -0.5421  0.6508
14838TIP3   OH266004   1.514   2.907   3.854 -0.3390 -0.1105 -0.3070
14838TIP3    H166005   1.428   2.882   3.823 -0.2823 -0.7738  0.0364
14838TIP3    H266006   1.557   2.824   3.874  0.8078  0.1487 -1.5779
14839TIP3   OH266007   1.875   1.700  14.305  0.4460 -0.0324  0.3454
14839TIP3    H166008   1.787   1.673  14.279 -0.5665  2.6268  0.6647
14839TIP3    H266009   1.899   1.768  14.242  1.9107 -0.1201  0.7694
14840TIP3   OH266010   4.136   1.296  17.136 -0.2445  0.2799 -0.4392
14840TIP3    H166011   4.168   1.378  17.172  2.8280  0.1999 -2.6176
14840TIP3    H266012   4.199   1.230  17.166 -1.3852 -0.9268 -0.5779
14841TIP3   OH266013   6.455   1.148   0.118  0.5076 -0.2536  0.1126
14841TIP3    H166014   6.384   1.208   0.096  1.3100  0.6420 -0.0525
14841TIP3    H266015   6.498   1.188   0.194 -0.1129 -1.5786  1.2139
14842TIP3   OH266016   6.763   5.079  16.016  0.2720 -0.2349 -0.0927
14842TIP3    H166017   6.701   5.017  15.978 -1.0376 -0.6927  2.5322
14842TIP3    H266018   6.819   5.105  15.943  0.1632 -3.5963 -1.5617
14843TIP3   OH266019   0.390   3.208  12.764  0.3601  0.0501 -1.1355
14843TIP3    H166020   0.323   3.140  12.757  0.9946 -0.5535 -1.4250
14843TIP3    H266021   0.469   3.161  12.789  0.8133  0.6822 -1.3634
14844TIP3   OH266022   1.172   4.401  13.863  0.1161  0.0352  0.1962
14844TIP3    H166023   1.111   4.367  13.797  1.1253 -0.0092 -0.7529
14844TIP3    H266024   1.228   4.326  13.884  0.1397  0.1945  0.7175
14845TIP3   OH266025   1.630   5.905  13.411 -0.1331  0.3530  0.1388
14845TIP3    H166026   1.656   5.893  13.320  1.0418  1.1292  0.3535
14845TIP3    H266027   1.591   5.993  13.413  0.4322  0.5984  0.5068
14846TIP3   OH266028   5.994   5.767   6.465  0.1839  0.2013 -0.0552
14846TIP3    H166029   5.981   5.723   6.550 -0.8838  1.1589  0.2990
14846TIP3    H266030   6.045   5.845   6.486 -1.1106  1.0904 -0.0644
14847TIP3   OH266031   4.834   2.253   5.932  0.2996  0.0171 -0.0031
14847TIP3    H166032   4.927   2.255   5.908  0.4738 -1.9536  0.3019
14847TIP3    H266033   4.791   2.213   5.857  0.3368 -2.7843  1.3194
14848TIP3   OH266034   3.432   2.923   6.119 -0.0892  0.1904  0.3576
14848TIP3    H166035   3.515   2.968   6.135  1.0348 -1.0175 -1.6515
14848TIP3    H266036   3.457   2.832   6.106 -1.7274 -0.1894 -0.3576
14849TIP3   OH266037   0.372   0.023  15.442  0.4318 -0.5506  0.1398
14849TIP3    H166038   0.331   0.090  15.387  1.2323 -0.9298 -0.9573
14849TIP3    H266039   0.447   0.067  15.483  0.7962 -0.6870 -0.3673
14850TIP3   OH266040   6.689   6.673   2.193  0.6339 -0.2867 -0.3524
14850TIP3    H166041   6.661   6.764   2.188  1.0936 -0.0599  0.8397
14850TIP3    H266042   6.761   6.666   2.131  0.2132 -0.0048 -0.8886
14851TIP3   OH266043   6.440   2.061  10.446 -0.6890 -0.6947 -0.4830
14851TIP3    H166044   6.487   2.106  10.375  0.4178 -0.8367  0.1424
14851TIP3    H266045   6.369   2.121  10.469 -1.6264 -1.0381 -2.2918
14852TIP3   OH266046   2.495   2.786  14.925  0.2190 -0.3047 -0.2295
14852TIP3    H166047   2.557   2.825  14.987 -0.1593  0.8192 -0.5266
14852TIP3    H266048   2.459   2.710  14.971  1.5543 -0.7686  0.0742
14853TIP3   OH266049   1.902   1.821  11.069 -0.7773 -0.3624 -0.1104
14853TIP3    H166050   1.987   1.844  11.108 -1.3817 -1.2703  1.8479
14853TIP3    H266051   1.898   1.875  10.990  1.7824 -0.5697 -0.4953
14854TIP3   OH266052   1.632   2.104   5.649 -0.2307 -0.5154  0.2142
14854TIP3    H166053   1.568   2.129   5.715 -0.0130  1.1300 -0.1321
14854TIP3    H266054   1.658   2.015   5.671 -1.0259 -0.4132  1.6304
14855TIP3   OH266055   2.176   0.850  17.031 -0.0387  0.2383  0.0284
14855TIP3    H166056   2.130   0.845  16.947 -0.5541 -0.5960  0.3471
14855TIP3    H266057   2.144   0.930  17.071 -1.3985 -0.4361  0.3350
14856TIP3   OH266058   5.824   3.135   3.081  0.1531 -0.0021  0.3260
14856TIP3    H166059   5.746   3.097   3.040  0.7376 -0.2642 -0.5640
14856TIP3    H266060   5.793   3.216   3.120 -0.5987 -0.1699  0.1030
14857TIP3   OH266061   2.516   2.857  10.417  0.1717 -0.3503 -0.3495
14857TIP3    H166062   2.498   2.766  10.394  0.6104 -0.6758  0.5562
14857TIP3    H266063   2.433   2.902  10.402 -0.0023 -0.8545 -0.9649
14858TIP3   OH266064   2.008   3.381  14.847  0.5041 -0.0681 -0.6628
14858TIP3    H166065   1.949   3.335  14.906 -0.9875  1.9202 -0.4840
14858TIP3    H266066   2.054   3.312  14.799 -1.8112 -1.7179 -0.6573
14859TIP3   OH266067   4.986   2.021   5.523 -0.1044  0.5655  0.3648
14859TIP3    H166068   4.974   1.958   5.452  1.6278  0.6570 -0.0637
14859TIP3    H266069   4.910   2.009   5.580 -1.8072  0.8276 -1.7357
14860TIP3   OH266070   4.602   5.184  11.804  0.3033 -0.1287  0.0758
14860TIP3    H166071   4.581   5.170  11.711  1.0695  0.3043 -0.1624
14860TIP3    H266072   4.565   5.107  11.848  0.1497 -0.4599 -0.6150
14861TIP3   OH266073   2.648   4.412   2.457  0.4490  0.4505  0.2328
14861TIP3    H166074   2.560   4.398   2.493  0.3491  1.0325  0.2246
14861TIP3    H266075   2.635   4.411   2.362  0.0754  2.6204  0.2010
14862TIP3   OH266076   2.527   1.018   4.381 -0.0288  0.2151  0.2629
14862TIP3    H166077   2.575   1.020   4.464 -0.6312  0.4638  0.6103
14862TIP3    H266078   2.593   0.993   4.316  0.3640 -0.3970  0.8764
14863TIP3   OH266079   2.142   3.329  17.060  0.3024  0.2825 -0.0812
14863TIP3    H166080   2.225   3.289  17.033  1.1535 -0.7683  3.4659
14863TIP3    H266081   2.081   3.255  17.065 -0.4682  0.8173 -1.2267
14864TIP3   OH266082   2.135   6.577  11.028 -0.3595  0.1847 -0.0185
14864TIP3    H166083   2.109   6.527  10.951  0.2570  2.5886 -1.9460
14864TIP3    H266084   2.226   6.550  11.044 -0.8675 -1.1935  0.6609
14865TIP3   OH266085   1.167   1.146  16.720 -0.6549 -0.1210 -0.1783
14865TIP3    H166086   1.202   1.189  16.798 -0.1765  1.4224 -1.1951
14865TIP3    H266087   1.075   1.172  16.717 -0.7672 -0.4884  0.0716
14866TIP3   OH266088   3.657   2.899   3.040 -0.2171 -0.5604  0.5416
14866TIP3    H166089   3.642   2.922   2.948 -1.8956 -0.9913  0.6918
14866TIP3    H266090   3.750   2.876   3.043  0.0285  0.0975 -0.9032
14867TIP3   OH266091   5.530   4.960  15.708  0.4498  0.0681 -0.1865
14867TIP3    H166092   5.615   5.003  15.706  1.5859 -1.9221  1.3870
14867TIP3    H266093   5.486   4.997  15.785 -0.2964  1.3412 -1.1908
14868TIP3   OH266094   3.864   1.741  11.477 -0.1309  0.0086  0.8720
14868TIP3    H166095   3.820   1.826  11.479  2.4464  1.4053  1.6115
14868TIP3    H266096   3.957   1.762  11.473  0.5864 -2.8014  1.0529
14869TIP3   OH266097   3.141   0.671  12.084 -0.0967 -0.1776 -0.2216
14869TIP3    H166098   3.199   0.748  12.079 -0.8413  0.5249  1.3523
14869TIP3    H266099   3.199   0.597  12.068  0.9277  0.6209 -0.3189
14870TIP3   OH266100   4.745   6.075  11.904 -0.3729 -0.0023  0.1831
14870TIP3    H166101   4.798   6.001  11.873 -0.1623  0.9961 -2.0045
14870TIP3    H266102   4.772   6.149  11.849 -3.7460  0.6600 -0.8459
14871TIP3   OH266103   0.974   2.376   5.569 -0.4871  0.2843  0.1147
14871TIP3    H166104   0.916   2.381   5.493 -0.1008 -0.4609 -0.2371
14871TIP3    H266105   0.991   2.468   5.592  1.1977  0.6159 -2.1005
14872TIP3   OH266106   6.716   6.281  13.933 -0.2612 -0.4107  0.4236
14872TIP3    H166107   6.726   6.355  13.993  0.2926 -0.5633  0.5245
14872TIP3    H266108   6.625   6.286  13.904 -0.7884 -0.8071  1.9076
14873TIP3   OH266109   5.185   2.694   3.715 -0.7395 -0.4062  0.3834
14873TIP3    H166110   5.213   2.672   3.626  2.9655  1.5788  0.8650
14873TIP3    H266111   5.107   2.749   3.702 -1.0226 -1.1600 -1.5055
14874TIP3   OH266112   3.960   3.335  12.878  0.3439  0.2913  0.5235
14874TIP3    H166113   3.956   3.322  12.783 -0.5681 -1.9728  0.7981
14874TIP3    H266114   3.966   3.246  12.914 -1.1922  0.9587  2.6500
14875TIP3   OH266115   1.011   0.270   1.401 -0.3589  0.3782  0.0405
14875TIP3    H166116   1.030   0.268   1.307 -1.1764 -1.2097 -0.1347
14875TIP3    H266117   1.097   0.277   1.442  0.3360 -2.1134 -0.8078
14876TIP3   OH266118   3.721   1.097   4.525 -0.3616 -0.1414 -0.0275
14876TIP3    H166119   3.773   1.119   4.602 -0.1098  1.9773 -0.7500
14876TIP3    H266120   3.782   1.053   4.466 -0.0769 -0.0821  0.2203
14877TIP3   OH266121   1.169   4.199  13.596  0.0053 -0.1149  0.0781
14877TIP3    H166122   1.226   4.128  13.565  2.7880  2.3485 -0.9686
14877TIP3    H266123   1.178   4.267  13.530 -1.6801  1.6336  1.5468
14878TIP3   OH266124   1.271   5.022   2.448  0.5341  0.1984  0.0905
14878TIP3    H166125   1.214   5.098   2.452  0.8021  0.3945  0.1922
14878TIP3    H266126   1.295   5.004   2.539  1.4441  0.7343 -0.0370
14879TIP3   OH266127   1.382   6.272  16.923 -1.2985 -0.3298 -0.2146
14879TIP3    H166128   1.436   6.320  16.860 -1.6487 -0.2087 -0.4233
14879TIP3    H266129   1.393   6.321  17.005 -1.9529  0.3509 -0.5138
14880TIP3   OH266130   6.736   0.350  12.720 -0.2452 -0.6866  0.7034
14880TIP3    H166131   6.691   0.434  12.720  0.5844 -0.2320  0.0058
14880TIP3    H266132   6.688   0.297  12.656  0.8208  0.1630 -0.8710
14881TIP3   OH266133   3.882   1.185   4.063  0.4564  0.0995  0.3674
14881TIP3    H166134   3.865   1.212   4.153  0.2639  0.2579  0.2824
14881TIP3    H266135   3.872   1.264   4.012  3.0500  0.6218  0.4969
14882TIP3   OH266136   4.046   6.176   0.236 -0.0895 -0.3303  0.5720
14882TIP3    H166137   4.048   6.271   0.222  1.0613 -0.2642  1.0503
14882TIP3    H266138   4.001   6.165   0.320  0.9158 -0.0934  1.1642
14883TIP3   OH266139   4.659   6.103   6.045 -0.5136  0.3767 -0.1934
14883TIP3    H166140   4.654   6.107   6.140 -1.8309  0.8255 -0.2541
14883TIP3    H266141   4.695   6.187   6.019  1.2177 -0.2774 -0.0555
14884TIP3   OH266142   1.540   2.286  14.290  0.4330  0.9691  1.1838
14884TIP3    H166143   1.446   2.287  14.274  0.1736 -0.8380  2.3705
14884TIP3    H266144   1.552   2.340  14.368  0.2871  0.6513  1.4286
14885TIP3   OH266145   3.529   2.300   6.072  0.0884  0.2563 -0.4717
14885TIP3    H166146   3.552   2.384   6.033  0.9318 -0.8265 -2.4394
14885TIP3    H266147   3.611   2.250   6.072 -0.9140 -1.5129 -1.9180
14886TIP3   OH266148   5.886   0.166   3.698 -0.4667  0.6346 -0.2615
14886TIP3    H166149   5.800   0.168   3.655  0.3028 -0.6022 -1.9537
14886TIP3    H266150   5.884   0.087   3.753  0.1524 -0.4025 -1.6603
14887TIP3   OH266151   6.501   5.429  13.016  0.2946  0.4797  0.4718
14887TIP3    H166152   6.561   5.498  13.046 -0.6524  1.9796 -0.9239
14887TIP3    H266153   6.434   5.475  12.967 -0.2711 -1.4881 -0.7133
14888TIP3   OH266154   5.891   0.567  13.198 -0.3106 -0.1203  0.3908
14888TIP3    H166155   5.887   0.480  13.240  0.8683 -0.0032  0.8087
14888TIP3    H266156   5.852   0.554  13.112  2.8268 -1.9682 -0.9475
14889TIP3   OH266157   4.042   3.813  10.593  0.2582  0.0782  0.0975
14889TIP3    H166158   4.030   3.732  10.544 -0.7805  0.3156 -0.0704
14889TIP3    H266159   3.964   3.820  10.648  1.0467  0.2093  1.2396
14890TIP3   OH266160   0.014   0.538   2.048  0.7859  0.0314  0.6387
14890TIP3    H166161  -0.032   0.570   2.126  0.9774  0.4842  0.5714
14890TIP3    H266162  -0.015   0.448   2.038  0.8596 -0.0785  1.3213
14891TIP3   OH266163   1.658   3.768  11.661 -0.7081  0.4165  0.1115
14891TIP3    H166164   1.590   3.819  11.704 -0.0882  1.2497  0.1297
14891TIP3    H266165   1.662   3.804  11.572 -1.1645 -0.4929 -0.2941
14892TIP3   OH266166   1.944   0.360  16.778  0.4028  0.2610 -0.4713
14892TIP3    H166167   2.015   0.348  16.840 -0.1575  0.2355  0.1780
14892TIP3    H266168   1.937   0.455  16.767  0.8705  0.2474 -0.9409
14893TIP3   OH266169   1.604   4.676  12.908 -0.2751 -0.7729  0.0112
14893TIP3    H166170   1.691   4.636  12.904 -0.0589 -0.8082  3.0061
14893TIP3    H266171   1.544   4.602  12.919 -0.3898 -0.5722  0.7399
14894TIP3   OH266172   6.472   2.788   2.742 -0.4724  0.2177 -0.2636
14894TIP3    H166173   6.402   2.723   2.737 -2.2828  2.0956 -0.7265
14894TIP3    H266174   6.436   2.857   2.798  2.1521  0.0092  1.9033
14895TIP3   OH266175   0.049   3.926   2.503 -0.0428  0.0848 -0.5823
14895TIP3    H166176  -0.014   3.854   2.511 -0.4588  0.5751  1.1330
14895TIP3    H266177   0.019   3.991   2.567  0.6665  1.5350 -1.6497
14896TIP3   OH266178   6.072   0.224  16.122 -0.2746  0.1612  0.5972
14896TIP3    H166179   6.109   0.136  16.116  2.2309  1.1137  0.9757
14896TIP3    H266180   6.091   0.264  16.037 -2.2442  0.0968  0.0730
14897TIP3   OH266181   3.927   4.131  12.563 -0.5854  0.2474  0.3594
14897TIP3    H166182   3.970   4.074  12.626 -1.0482 -0.6368 -0.1130
14897TIP3    H266183   3.947   4.220  12.593  2.6289 -0.0502 -0.5003
14898TIP3   OH266184   3.315   2.075   5.981  0.0888  0.4370 -0.2059
14898TIP3    H166185   3.363   2.141   6.031  0.0936 -0.4153  0.9585
14898TIP3    H266186   3.223   2.098   5.994  0.1031  0.5095 -0.2296
14899TIP3   OH266187   2.511   6.415   5.865 -0.1856  0.0447  0.6575
14899TIP3    H166188   2.480   6.503   5.887  3.2946  1.1007  1.9722
14899TIP3    H266189   2.502   6.365   5.946  0.6232  0.1035  0.7913
14900TIP3   OH266190   4.076   5.090   3.654 -0.0754 -0.0287  0.4667
14900TIP3    H166191   4.146   5.145   3.619 -0.1952 -0.2025 -0.0545
14900TIP3    H266192   4.050   5.134   3.734 -0.9899  1.3666 -0.5427
14901TIP3   OH266193   4.426   6.462   3.956 -0.3451  0.2395 -0.0420
14901TIP3    H166194   4.336   6.494   3.960 -0.1396  0.8464  3.8641
14901TIP3    H266195   4.478   6.540   3.932 -0.6085  0.7121  0.8836
14902TIP3   OH266196   5.090   6.684   6.516 -0.7581 -0.3979 -0.2859
14902TIP3    H166197   5.100   6.690   6.611 -1.6677 -0.0087 -0.2060
14902TIP3    H266198   5.164   6.733   6.480  1.0495 -2.6152  0.1511
14903TIP3   OH266199   5.368   1.365  15.321  0.3543  0.4628 -0.0668
14903TIP3    H166200   5.458   1.339  15.341  0.0203 -0.2650  0.5279
14903TIP3    H266201   5.318   1.284  15.326 -0.1062  0.6013 -1.8725
14904TIP3   OH266202   5.040   3.814  11.203  0.4695  0.3241 -0.0329
14904TIP3    H166203   5.025   3.806  11.109 -1.9195  0.2569  0.3007
14904TIP3    H266204   5.023   3.727  11.238 -1.9369  1.0411  0.7881
14905TIP3   OH266205   6.515   4.244  12.218 -0.2698 -0.0684 -0.5692
14905TIP3    H166206   6.523   4.253  12.123 -0.1540  1.2751 -0.4520
14905TIP3    H266207   6.604   4.223  12.247 -0.0989  0.4865 -0.6744
14906TIP3   OH266208   0.844   2.555  15.632  0.1259  0.2303  0.1650
14906TIP3    H166209   0.792   2.544  15.712  1.4686  0.9389  1.1587
14906TIP3    H266210   0.813   2.485  15.575 -0.6796 -0.4618  1.3873
14907TIP3   OH266211   2.104   6.552  14.921  0.4099  0.4712  0.2777
14907TIP3    H166212   2.155   6.532  14.843  0.6732  2.4871 -0.1361
14907TIP3    H266213   2.013   6.537  14.897  0.4165  1.8421 -0.7303
14908TIP3   OH266214   1.593   3.264  17.045  0.4973 -0.0688  0.2555
14908TIP3    H166215   1.619   3.181  17.005  2.4220  1.5087 -2.0706
14908TIP3    H266216   1.506   3.282  17.008  1.8187  0.8729 -2.7552
14909TIP3   OH266217   0.973   3.913  13.423  0.2962  0.0140 -0.1155
14909TIP3    H166218   0.914   3.979  13.388  1.3040  0.0847 -1.8602
14909TIP3    H266219   0.941   3.830  13.386  0.8869 -0.0228 -0.5719
14910TIP3   OH266220   0.319   3.964   3.966  0.2123 -0.3070  0.2785
14910TIP3    H166221   0.403   4.001   3.991  0.0280 -0.6269  1.3976
14910TIP3    H266222   0.341   3.877   3.932  0.1174 -1.6720  3.4117
14911TIP3   OH266223   2.547   1.089  16.735 -0.4510 -0.0446 -0.2635
14911TIP3    H166224   2.602   1.011  16.745 -0.3508 -0.0404 -0.7341
14911TIP3    H266225   2.458   1.059  16.756 -0.5803 -0.5564 -1.4268
14912TIP3   OH266226   5.380   0.721   4.374  0.3876 -0.7432 -0.2526
14912TIP3    H166227   5.331   0.659   4.429  1.2321  0.3065  1.8122
14912TIP3    H266228   5.337   0.805   4.389  1.6854 -0.1301  0.1971
14913TIP3   OH266229   3.445   5.201  16.669 -0.7087  0.4498 -0.3550
14913TIP3    H166230   3.443   5.116  16.623 -2.2656  0.5053 -0.4674
14913TIP3    H266231   3.537   5.223  16.674 -0.1943 -1.5653  0.2470
14914TIP3   OH266232   3.104   3.317   2.166  0.0765  0.2495  0.2331
14914TIP3    H166233   3.147   3.245   2.212 -1.6302 -0.4025  0.9199
14914TIP3    H266234   3.175   3.373   2.135  1.4628 -1.8231 -0.5024
14915TIP3   OH266235   1.510   3.436  12.640  0.5691 -0.2666  0.1762
14915TIP3    H166236   1.575   3.373  12.609  1.4484  0.6223  0.1814
14915TIP3    H266237   1.503   3.501  12.571 -0.6834 -0.5936 -0.0330
14916TIP3   OH266238   4.246   4.541  16.031 -0.2707 -0.4984 -0.1811
14916TIP3    H166239   4.231   4.599  15.957  0.2401  0.4109  0.4016
14916TIP3    H266240   4.208   4.457  16.005 -1.4702  0.2311 -0.8470
14917TIP3   OH266241   2.169   1.679   0.263 -0.0456 -0.2917 -0.0013
14917TIP3    H166242   2.118   1.605   0.230 -0.5358  0.1007 -0.1214
14917TIP3    H266243   2.125   1.704   0.344  0.9562 -1.0405  0.8069
14918TIP3   OH266244   3.111   5.199   3.051 -0.6862 -0.4436  0.2274
14918TIP3    H166245   3.143   5.180   3.139 -0.1021 -1.1721 -0.1344
14918TIP3    H266246   3.027   5.242   3.065  0.1993  1.0791  1.1860
14919TIP3   OH266247   0.298   6.152  14.065  0.1619 -0.1260  0.3737
14919TIP3    H166248   0.379   6.104  14.048  1.2637  1.9485 -0.6326
14919TIP3    H266249   0.328   6.240  14.090 -1.7868  0.6485  0.1225
14920TIP3   OH266250   1.119   3.783  16.446  0.3077 -0.1626 -0.6365
14920TIP3    H166251   1.176   3.765  16.371  0.9451  0.3510 -0.2909
14920TIP3    H266252   1.156   3.731  16.517 -0.1324 -0.4385 -0.6059
14921TIP3   OH266253   2.361   5.461  13.900  0.0218  0.0738  0.5234
14921TIP3    H166254   2.313   5.521  13.843 -0.3127  0.0400  0.7661
14921TIP3    H266255   2.387   5.515  13.975  1.9797  0.5634 -0.4435
14922TIP3   OH266256   6.306   5.608   3.175  0.0496 -0.0114 -0.0334
14922TIP3    H166257   6.293   5.558   3.256 -0.8147  0.2640  0.0020
14922TIP3    H266258   6.401   5.616   3.168  0.1269  1.0609  1.6369
14923TIP3   OH266259   0.734   3.403  15.235  0.6887  0.3877 -0.1718
14923TIP3    H166260   0.659   3.396  15.294 -1.4279 -0.4454 -2.7680
14923TIP3    H266261   0.738   3.495  15.210  1.1694  0.6119  0.7002
14924TIP3   OH266262   6.329   4.396  15.343  0.0669 -0.2738  0.3877
14924TIP3    H166263   6.280   4.316  15.358 -0.4294 -0.2681 -1.1144
14924TIP3    H266264   6.394   4.398  15.413 -1.2396 -0.9209  1.6610
14925TIP3   OH266265   0.211   4.722  12.179  0.2093 -0.1916 -0.2317
14925TIP3    H166266   0.154   4.759  12.112  2.2027  0.8557 -1.4389
14925TIP3    H266267   0.236   4.636  12.144  2.4693  0.9596 -1.7105
14926TIP3   OH266268   6.483   3.663  13.405 -0.1139  0.8986  0.7961
14926TIP3    H166269   6.435   3.711  13.337  0.9518  1.1002  0.1765
14926TIP3    H266270   6.414   3.625  13.460 -1.0095  0.4327 -0.6031
14927TIP3   OH266271   6.587   2.132   4.628  0.2828 -0.2137 -0.2545
14927TIP3    H166272   6.498   2.097   4.628  1.0384 -2.3410  1.3152
14927TIP3    H266273   6.577   2.224   4.604 -2.3370 -0.3699 -0.0152
14928TIP3   OH266274   2.723   5.723   3.239  0.0146 -0.7324  0.1446
14928TIP3    H166275   2.646   5.779   3.227  0.2279 -0.5640 -0.4547
14928TIP3    H266276   2.708   5.649   3.180  0.9774  0.0037 -1.0714
14929TIP3   OH266277   0.307   3.050  14.067 -0.3596 -0.3903 -0.6662
14929TIP3    H166278   0.367   3.033  14.139  0.4565 -0.6100 -1.3879
14929TIP3    H266279   0.225   3.009  14.094  0.5907 -2.5765 -0.8718
14930TIP3   OH266280   2.369   4.430   5.213  0.6834 -0.6089 -0.4496
14930TIP3    H166281   2.386   4.388   5.128  2.6225  0.5086 -0.6560
14930TIP3    H266282   2.455   4.460   5.243 -0.1591  0.1923  1.3018
14931TIP3   OH266283   2.438   5.212  11.920 -0.3254  0.1813 -0.0247
14931TIP3    H166284   2.441   5.140  11.857  0.5649 -0.8875  1.1840
14931TIP3    H266285   2.355   5.200  11.966 -1.0039  0.9970 -0.9872
14932TIP3   OH266286   5.242   0.313  15.628  0.5318  0.2260  0.2614
14932TIP3    H166287   5.268   0.361  15.550  2.2627  0.8759  1.1688
14932TIP3    H266288   5.324   0.298  15.675 -0.4456 -0.1370  1.9415
14933TIP3   OH266289   0.044   0.288  12.455 -0.0442  0.2838 -0.9714
14933TIP3    H166290   0.013   0.283  12.364 -0.6373  1.9411 -0.8965
14933TIP3    H266291  -0.020   0.239  12.505  0.1362 -0.4093 -1.3936
14934TIP3   OH266292   3.878   0.334   3.501 -0.0709  0.5938  0.0383
14934TIP3    H166293   3.955   0.312   3.449 -0.6948 -0.6742 -0.3825
14934TIP3    H266294   3.868   0.429   3.489  1.0860  0.6829 -0.3426
14935TIP3   OH266295   5.581   5.483   0.488 -0.1673 -0.1520 -0.5288
14935TIP3    H166296   5.523   5.529   0.428 -2.0727 -0.2307  1.1471
14935TIP3    H266297   5.664   5.530   0.483 -0.9506  1.1744 -1.5613
14936TIP3   OH266298   6.026   6.091   4.655  0.4595  0.6336  0.0786
14936TIP3    H166299   6.002   6.132   4.572  0.4791 -0.5969 -0.5600
14936TIP3    H266300   6.121   6.102   4.661  0.7321 -0.8535 -0.9826
14937TIP3   OH266301   5.512   2.477   3.626  0.2382  0.3362  0.2183
14937TIP3    H166302   5.539   2.410   3.563 -2.0633 -2.0356  1.5419
14937TIP3    H266303   5.435   2.518   3.586  1.3994  2.0507 -0.4042
14938TIP3   OH266304   1.250   1.918  13.049 -0.1650 -0.8563  0.3675
14938TIP3    H166305   1.225   1.967  12.971  1.2957 -0.7930 -0.1007
14938TIP3    H266306   1.234   1.826  13.026  0.8689 -0.8945 -0.2845
14939TIP3   OH266307   5.828   4.794   1.431  0.0047 -0.0505 -0.4874
14939TIP3    H166308   5.829   4.699   1.437  1.3663 -0.0824 -0.7122
14939TIP3    H266309   5.797   4.812   1.342 -1.5521 -0.2217  0.0036
14940TIP3   OH266310   5.215   1.924  13.654  0.2482 -0.4757 -0.2781
14940TIP3    H166311   5.255   2.009  13.669 -0.2094 -0.5363  1.5190
14940TIP3    H266312   5.129   1.930  13.697  0.0593 -1.7098 -0.4422
14941TIP3   OH266313   0.694   3.249  14.864 -0.4451 -0.2185  0.2893
14941TIP3    H166314   0.781   3.281  14.888 -0.1944  0.5996 -1.5161
14941TIP3    H266315   0.641   3.329  14.857 -0.9583 -0.5797 -0.0005
14942TIP3   OH266316   2.861   0.972  16.286 -0.5098 -0.3168  0.0418
14942TIP3    H166317   2.952   1.001  16.285 -0.3401 -0.8369  0.1023
14942TIP3    H266318   2.849   0.934  16.372 -0.7278 -0.4303 -0.0378
14943TIP3   OH266319   5.179   4.806   0.425  0.7933 -0.0392 -0.2293
14943TIP3    H166320   5.127   4.879   0.393  0.0263 -0.9810 -1.2357
14943TIP3    H266321   5.269   4.839   0.427  0.6093  0.6113 -1.6998
14944TIP3   OH266322   0.060   6.461  14.932 -0.2268 -0.4492 -0.0791
14944TIP3    H166323   0.122   6.461  14.859  0.4248 -1.0470  0.4700
14944TIP3    H266324   0.015   6.545  14.925  0.1055 -0.3344 -0.9351
14945TIP3   OH266325   2.196   3.619   1.451  0.4183 -0.3728 -0.3961
14945TIP3    H166326   2.225   3.566   1.377  1.7887  0.1022 -0.2227
14945TIP3    H266327   2.126   3.674   1.416  1.7575  0.6025 -1.6096
14946TIP3   OH266328   6.232   0.716  12.051 -0.3672 -0.6069 -0.2130
14946TIP3    H166329   6.151   0.759  12.024  0.6392 -0.0463 -2.6339
14946TIP3    H266330   6.279   0.698  11.969  1.0532 -2.7948  0.9556
14947TIP3   OH266331   0.607   3.649  11.391 -0.1191 -0.5494  0.0084
14947TIP3    H166332   0.677   3.605  11.343 -2.3094 -2.2187 -1.8759
14947TIP3    H266333   0.539   3.665  11.326 -1.4656  1.1542  1.7149
14948TIP3   OH266334   6.152   3.284   1.458  0.3990  0.2402 -0.2698
14948TIP3    H166335   6.220   3.326   1.405  1.5235 -0.7195  0.3529
14948TIP3    H266336   6.164   3.190   1.443  0.1311 -0.0078  0.9333
14949TIP3   OH266337   3.593   4.645  13.026 -0.1809 -0.0540 -0.3068
14949TIP3    H166338   3.679   4.606  13.009  0.5689  1.9953 -1.6907
14949TIP3    H266339   3.608   4.705  13.099 -0.6895 -0.3953  0.0869
14950TIP3   OH266340   4.543   1.074   2.456 -0.1626 -0.6286  0.2976
14950TIP3    H166341   4.469   1.084   2.515 -0.7814 -0.0664 -0.5432
14950TIP3    H266342   4.568   1.164   2.433  0.2887 -0.8285 -0.0178
14951TIP3   OH266343   0.095   2.777  14.028 -0.4225  0.3374 -0.1065
14951TIP3    H166344   0.020   2.819  14.070 -0.4225 -0.5432  0.8203
14951TIP3    H266345   0.111   2.828  13.949 -2.5964 -0.0307 -0.8218
14952TIP3   OH266346   3.284   1.872  11.838  1.0330 -0.1212  0.4830
14952TIP3    H166347   3.319   1.871  11.928  2.6504 -1.5331 -0.1070
14952TIP3    H266348   3.308   1.959  11.805  0.1964  0.5165  1.4605
14953TIP3   OH266349   6.809   6.384   1.687 -0.4276 -0.0521  0.1116
14953TIP3    H166350   6.736   6.361   1.745  0.4194 -0.1014  1.1889
14953TIP3    H266351   6.868   6.434   1.742  0.4523 -0.1898 -0.6893
14954TIP3   OH266352   5.129   5.426   0.690 -0.0965 -0.1480  0.5756
14954TIP3    H166353   5.135   5.463   0.778  0.4591  2.0373 -0.3109
14954TIP3    H266354   5.124   5.502   0.632 -0.0634 -1.5113 -1.3247
14955TIP3   OH266355   6.144   1.897   4.902 -0.1502  0.8918  0.0146
14955TIP3    H166356   6.161   1.903   4.996 -0.8055 -0.2510  0.2258
14955TIP3    H266357   6.126   1.804   4.887 -1.4226  1.2736 -0.9894
14956TIP3   OH266358   4.927   2.511   0.947 -0.3405  0.0676 -0.6103
14956TIP3    H166359   4.892   2.591   0.909 -0.9496  0.9893  1.6768
14956TIP3    H266360   4.875   2.498   1.027  0.9407 -1.6023  0.0127
14957TIP3   OH266361   6.404   6.560  16.656 -0.2832 -0.2697  0.6459
14957TIP3    H166362   6.385   6.466  16.655 -1.7542 -0.0095  1.1118
14957TIP3    H266363   6.427   6.578  16.747  2.2671 -0.5506  0.1169
14958TIP3   OH266364   2.916   2.769   1.555  0.5588  0.1589 -0.3607
14958TIP3    H166365   2.965   2.699   1.599 -1.1688 -2.0354 -1.7069
14958TIP3    H266366   2.873   2.816   1.626  1.8457 -0.0371  0.5950
14959TIP3   OH266367   1.634   1.160  16.449 -0.5121 -0.2542 -0.4600
14959TIP3    H166368   1.540   1.149  16.465 -0.4057 -0.7681 -0.1371
14959TIP3    H266369   1.640   1.198  16.362 -0.9840 -1.3692 -0.9954
14960TIP3   OH266370   2.502   2.295   3.391  0.4585  0.3332 -0.1207
14960TIP3    H166371   2.506   2.302   3.486 -1.1609 -1.9301  0.2013
14960TIP3    H266372   2.576   2.347   3.360  1.9698 -0.1205  2.4166
14961TIP3   OH266373   1.533   6.332   5.585 -0.4353  1.0087  0.0121
14961TIP3    H166374   1.443   6.332   5.620 -0.2225  2.4297  0.6092
14961TIP3    H266375   1.561   6.423   5.591  1.2099  0.5159  0.2455
14962TIP3   OH266376   5.492   1.866   5.060 -0.8301 -0.0521 -0.2869
14962TIP3    H166377   5.417   1.915   5.094 -2.1504 -0.0143 -3.0034
14962TIP3    H266378   5.484   1.780   5.100 -2.5065 -0.1213 -0.6758
14963TIP3   OH266379   2.893   0.028  14.263 -0.0847  0.1300  0.2162
14963TIP3    H166380   2.805   0.027  14.302 -1.3559  1.3839 -2.3214
14963TIP3    H266381   2.898  -0.054  14.214  0.1310  0.0786  0.3246
14964TIP3   OH266382   5.491   0.028   3.090 -0.8924  0.3705  0.3677
14964TIP3    H166383   5.499  -0.001   3.181  0.6801  1.1304  0.5135
14964TIP3    H266384   5.475  -0.052   3.041  1.0828 -0.4844  1.0232
14965TIP3   OH266385   2.254   6.368  13.952 -0.6462 -0.0815 -0.1510
14965TIP3    H166386   2.279   6.431  13.884 -1.3053  1.5738  1.0671
14965TIP3    H266387   2.165   6.343  13.929  0.0864 -1.6822 -1.3978
14966TIP3   OH266388   5.556   6.079   4.231 -0.4337  0.1514  0.0037
14966TIP3    H166389   5.513   6.093   4.147 -2.6284  2.9710  1.3989
14966TIP3    H266390   5.491   6.032   4.283  0.1244  0.1375  0.7008
14967TIP3   OH266391   4.881   1.020   6.382 -0.1834  0.1931 -0.3476
14967TIP3    H166392   4.950   0.965   6.345 -2.0765 -2.1020 -0.7296
14967TIP3    H266393   4.850   1.073   6.309 -0.4084 -0.5186 -0.7768
14968TIP3   OH266394   3.422   0.403  10.668  0.0812  0.0655 -0.3683
14968TIP3    H166395   3.349   0.353  10.632 -1.0974  1.1348  0.4448
14968TIP3    H266396   3.410   0.491  10.633  0.7621  0.3491  0.0822
14969TIP3   OH266397   6.388   1.493  16.758  0.3799 -0.7946 -0.3871
14969TIP3    H166398   6.395   1.409  16.711  1.6481 -0.3904 -0.9834
14969TIP3    H266399   6.448   1.483  16.833  1.9602  0.1820 -1.4633
14970TIP3   OH266400   0.389   4.219   3.765  0.5266 -0.2509  0.4038
14970TIP3    H166401   0.465   4.163   3.762  0.6472 -0.0582 -0.3007
14970TIP3    H266402   0.316   4.161   3.789  0.7450 -0.5872  0.2449
14971TIP3   OH266403   6.526   3.802   1.812  1.0637 -0.5716 -0.0260
14971TIP3    H166404   6.572   3.833   1.733 -1.5492  2.4822 -0.5661
14971TIP3    H266405   6.574   3.841   1.885  1.0976  0.0777 -0.3876
14972TIP3   OH266406   4.405   6.757  12.822  0.0358 -0.3738 -0.2156
14972TIP3    H166407   4.311   6.778  12.828  0.1947 -0.0115  1.6089
14972TIP3    H266408   4.438   6.815  12.754 -1.1446 -0.8408 -1.2196
14973TIP3   OH266409   4.937   2.136  12.555 -0.2271  0.0373 -0.6578
14973TIP3    H166410   4.951   2.217  12.506  1.9029 -0.8286 -1.5966
14973TIP3    H266411   4.980   2.152  12.640  2.4097 -0.8466 -1.7105
14974TIP3   OH266412   0.011   5.313   4.941 -0.1609 -0.0311 -0.6181
14974TIP3    H166413  -0.083   5.333   4.943  0.1147  1.3209 -0.1532
14974TIP3    H266414   0.052   5.390   4.981  1.0611 -1.1338  0.2960
14975TIP3   OH266415   0.069   0.815   2.945  0.7266  0.3260  0.6561
14975TIP3    H166416   0.100   0.872   2.874  2.8194  2.1662  2.8586
14975TIP3    H266417   0.123   0.737   2.937  0.8864  0.4768  0.1632
14976TIP3   OH266418   2.748   3.770  14.887  0.0725 -0.3806  0.7492
14976TIP3    H166419   2.835   3.790  14.853  0.1164  0.8588  1.5419
14976TIP3    H266420   2.707   3.855  14.900 -0.0622 -0.7684  3.4617
14977TIP3   OH266421   2.078   2.234  13.387  0.6224 -0.1275 -0.5687
14977TIP3    H166422   2.166   2.271  13.388  0.6678 -0.2511  0.4917
14977TIP3    H266423   2.070   2.186  13.470 -0.3407 -0.3587 -0.7761
14978TIP3   OH266424   2.616   3.909   1.668 -0.9230  0.0431 -0.4134
14978TIP3    H166425   2.647   3.939   1.582 -0.9698 -0.2045 -0.5174
14978TIP3    H266426   2.529   3.946   1.677 -0.9491  0.0037 -0.5070
14979TIP3   OH266427   1.591   6.389   0.755  0.0653  0.0320 -0.5002
14979TIP3    H166428   1.648   6.341   0.695  0.2665 -0.1398 -0.1687
14979TIP3    H266429   1.507   6.344   0.750 -0.2765  0.7521 -1.5851
14980TIP3   OH266430   3.402   5.320   6.599 -0.6631  0.7405  0.2868
14980TIP3    H166431   3.324   5.308   6.652 -0.6592 -2.0693 -0.1943
14980TIP3    H266432   3.453   5.240   6.612  0.4234  0.9377 -2.1462
14981TIP3   OH266433   0.066   1.673  11.782  0.1049  0.0351  0.2435
14981TIP3    H166434   0.105   1.718  11.707  1.3850 -1.2672  0.0924
14981TIP3    H266435   0.066   1.581  11.757 -0.3222 -0.3203  1.4802
14982TIP3   OH266436   1.520   4.431  12.968  0.1005  0.3955 -0.3057
14982TIP3    H166437   1.585   4.397  13.030 -0.4689  0.0491  0.1080
14982TIP3    H266438   1.552   4.401  12.882  0.2492 -0.1677 -0.0613
14983TIP3   OH266439   2.353   6.003   0.953  0.3889 -0.1726  0.4050
14983TIP3    H166440   2.348   6.091   0.915  0.1617 -0.4097 -0.1207
14983TIP3    H266441   2.301   6.009   1.034  2.9060  1.0223  2.0831
14984TIP3   OH266442   5.607   4.144   5.417  0.2453  0.9922  0.5679
14984TIP3    H166443   5.695   4.111   5.435 -0.5329 -1.3845  0.3328
14984TIP3    H266444   5.549   4.080   5.457 -1.4139  1.6201 -0.7370
14985TIP3   OH266445   6.165   0.971   4.590  0.1400 -0.4475 -0.5658
14985TIP3    H166446   6.178   0.997   4.499  0.2269 -0.0337 -0.4385
14985TIP3    H266447   6.163   0.875   4.588 -2.1799 -0.4442 -1.3402
14986TIP3   OH266448   1.737   0.584   3.754 -0.4401 -0.2092  0.6842
14986TIP3    H166449   1.661   0.581   3.695  0.6554 -0.3036 -0.8033
14986TIP3    H266450   1.812   0.579   3.695  0.7487  0.8665  2.0474
14987TIP3   OH266451   4.679   6.367   4.080 -0.5797 -0.3093  0.0725
14987TIP3    H166452   4.716   6.429   4.017  0.3961 -1.1413 -0.2066
14987TIP3    H266453   4.587   6.391   4.087 -0.3604  0.7397 -0.5343
14988TIP3   OH266454   1.175   6.064  16.691  0.2101 -0.1835 -0.2495
14988TIP3    H166455   1.097   6.020  16.723 -0.2337 -0.6986 -1.9069
14988TIP3    H266456   1.144   6.119  16.619  1.0696  1.2639  0.4515
14989TIP3   OH266457   1.180   1.399  15.331  0.3977  0.0081 -0.1227
14989TIP3    H166458   1.127   1.399  15.410  0.3303 -0.6797 -0.1607
14989TIP3    H266459   1.235   1.321  15.339 -0.7152 -0.9728 -1.4599
14990TIP3   OH266460   6.476   5.994   0.092  0.0720 -0.2478  0.2453
14990TIP3    H166461   6.515   6.078   0.117 -0.6472  0.1792 -0.0344
14990TIP3    H266462   6.547   5.946   0.050  0.3100  0.5091 -0.2355
14991TIP3   OH266463   1.295   6.692  16.086 -0.2433  0.4876  0.3694
14991TIP3    H166464   1.213   6.700  16.038  0.4345 -0.4244 -0.9966
14991TIP3    H266465   1.305   6.598  16.102  0.2204  0.6537  1.0710
14992TIP3   OH266466   2.441   6.746   3.720  0.3189 -0.8266 -0.3604
14992TIP3    H166467   2.409   6.724   3.807  1.5876 -0.2415  0.2831
14992TIP3    H266468   2.512   6.808   3.736  1.2064 -1.4410 -1.7524
14993TIP3   OH266469   0.700   2.890  16.905 -0.6954 -0.7716  0.1675
14993TIP3    H166470   0.674   2.972  16.862  0.3984  0.3701  1.5654
14993TIP3    H266471   0.627   2.830  16.888 -0.7080 -0.1323 -2.4565
14994TIP3   OH266472   6.681   4.074  16.620  0.2570 -0.3569  0.2730
14994TIP3    H166473   6.594   4.096  16.588 -0.0263 -1.0253  0.5517
14994TIP3    H266474   6.665   4.036  16.707  0.8787  0.0800  0.5829
14995TIP3   OH266475   6.826   3.472   0.169  0.1575 -0.2393 -0.2285
14995TIP3    H166476   6.905   3.517   0.139  0.4701 -0.7054 -0.1027
14995TIP3    H266477   6.754   3.526   0.135  0.3867  3.1109  3.6911
14996TIP3   OH266478   5.017   6.770  10.560 -0.0123 -0.3700 -0.0697
14996TIP3    H166479   5.031   6.676  10.550  0.4904 -0.1698 -1.4597
14996TIP3    H266480   5.089   6.810  10.512 -0.4533  0.7348  0.1578
14997TIP3   OH266481   0.002   1.863  16.268 -0.2227  0.4187 -0.0955
14997TIP3    H166482  -0.039   1.891  16.187  0.7155 -0.1083 -0.7726
14997TIP3    H266483  -0.063   1.881  16.336 -0.1247  3.1684 -0.6122
14998TIP3   OH266484   1.359   4.272  15.677 -0.2738  0.3333 -0.4587
14998TIP3    H166485   1.386   4.358  15.643  0.9137  0.2597  0.2320
14998TIP3    H266486   1.292   4.242  15.616  1.1534  0.5900 -2.2658
14999TIP3   OH266487   5.246   6.304   0.062  0.1756  0.5228 -0.6038
14999TIP3    H166488   5.179   6.278   0.125 -0.6662  1.4201 -1.1079
14999TIP3    H266489   5.197   6.343  -0.010  1.2778  1.7402 -0.7289
15000TIP3   OH266490   5.658   3.082  12.460 -0.0038  0.1244 -0.2625
15000TIP3    H166491   5.601   3.059  12.533 -0.8237 -0.2828 -1.0127
15000TIP3    H266492   5.735   3.026  12.471  1.6862  2.6802  2.4091
15001TIP3   OH266493   4.419   6.291  15.610  0.5897  0.0228  0.4317
15001TIP3    H166494   4.490   6.350  15.634  0.7393 -0.2839  0.7462
15001TIP3    H266495   4.440   6.262  15.522 -0.4906  1.9603 -0.5054
15002TIP3   OH266496   4.900   1.889   0.193 -0.0927 -0.9583  0.7194
15002TIP3    H166497   4.969   1.954   0.204 -1.9184  1.3269 -0.5531
15002TIP3    H266498   4.840   1.906   0.266 -1.8772  0.6209 -1.0119
15003TIP3   OH266499   6.130   2.440   5.258 -0.2938 -0.5518 -0.5273
15003TIP3    H166500   6.098   2.523   5.223 -0.7371  0.0261  1.1396
15003TIP3    H266501   6.220   2.459   5.284 -0.1860 -0.7730 -0.7474
15004TIP3   OH266502   2.557   0.386   3.307 -0.8591 -0.1293  0.3937
15004TIP3    H166503   2.558   0.443   3.229 -0.3344 -2.1771 -1.2001
15004TIP3    H266504   2.647   0.392   3.341 -1.4004  1.7204  1.6625
15005TIP3   OH266505   2.926   0.580   6.339  0.1061 -0.4568 -0.5576
15005TIP3    H166506   2.923   0.542   6.427 -0.2606 -0.7293 -0.6855
15005TIP3    H266507   3.012   0.554   6.305 -0.2922 -1.5163 -0.7878
15006TIP3   OH266508   3.898   1.651   3.051  0.0505 -0.0004 -0.1693
15006TIP3    H166509   3.982   1.617   3.018  0.0252 -0.3946  0.1590
15006TIP3    H266510   3.894   1.619   3.141  0.2744  1.3289  0.3441
15007TIP3   OH266511   5.054   0.696  12.181  0.2827  0.0043 -0.0053
15007TIP3    H166512   5.124   0.754  12.211 -0.0901 -0.8322  2.7906
15007TIP3    H266513   4.980   0.753  12.164  0.7903  0.6152 -0.1897
15008TIP3   OH266514   5.972   3.914  14.882 -0.0517 -0.2380 -0.0074
15008TIP3    H166515   6.006   3.951  14.963 -2.6426 -0.6818  1.4000
15008TIP3    H266516   6.036   3.847  14.857 -0.7734 -2.5383  3.6564
15009TIP3   OH266517   0.302   1.242  12.171 -0.1931 -0.2777  0.1640
15009TIP3    H166518   0.280   1.312  12.232  1.0988  0.2336  0.0660
15009TIP3    H266519   0.340   1.287  12.096  1.8517 -1.1334  0.6211
15010TIP3   OH266520   6.004   3.004   5.133 -0.2326  0.0495  0.3523
15010TIP3    H166521   5.984   3.097   5.122 -0.0400 -0.1538 -2.4370
15010TIP3    H266522   6.095   2.995   5.103  0.0778 -0.9020  1.5190
15011TIP3   OH266523   1.200   5.692   0.495 -0.1748 -0.3462 -0.6178
15011TIP3    H166524   1.106   5.686   0.478 -0.2835 -1.1190  0.1651
15011TIP3    H266525   1.241   5.644   0.423 -0.3621  0.0821 -1.0182
15012TIP3   OH266526   1.835   2.837   4.421  0.2585  0.2258  0.1348
15012TIP3    H166527   1.747   2.821   4.454  0.5296  0.8755  1.2194
15012TIP3    H266528   1.882   2.756   4.438 -0.3667 -0.4860 -1.3539
15013TIP3   OH266529   4.138   2.502   3.295  0.1999  0.1416 -0.4548
15013TIP3    H166530   4.065   2.441   3.310 -0.9773  1.9345  1.6714
15013TIP3    H266531   4.192   2.496   3.374  0.2355  1.5728 -0.3437
15014TIP3   OH266532   3.418   2.715   0.275  0.1894  0.1480 -0.7584
15014TIP3    H166533   3.362   2.793   0.279  0.6654  0.5145 -1.2045
15014TIP3    H266534   3.496   2.743   0.228  0.9226 -0.2699  0.1755
15015TIP3   OH266535   3.467   0.004  16.593 -0.1607 -0.4094  0.2206
15015TIP3    H166536   3.456  -0.076  16.644 -0.2829 -1.2975 -1.1338
15015TIP3    H266537   3.543  -0.014  16.537  2.4841  1.9838  2.6940
15016TIP3   OH266538   2.780   5.137  12.621  0.2974 -0.3417  0.1210
15016TIP3    H166539   2.749   5.153  12.532  1.3453  0.1793 -0.1770
15016TIP3    H266540   2.845   5.207  12.636 -0.3493 -0.0034  1.5415
15017TIP3   OH266541   0.886   2.757  14.009  0.0378  0.3944 -0.1383
15017TIP3    H166542   0.821   2.694  14.039 -0.7388  1.7042  1.0213
15017TIP3    H266543   0.847   2.797  13.931  0.2951 -0.1448 -0.5523
15018TIP3   OH266544   2.184   2.194   1.790 -0.2134 -0.0807  0.4494
15018TIP3    H166545   2.249   2.199   1.721 -0.4609 -0.5265  0.1767
15018TIP3    H266546   2.142   2.280   1.790  0.4018  0.2220  0.6602
15019TIP3   OH266547   2.052   2.470  10.606 -0.5252  0.3118  0.2055
15019TIP3    H166548   1.992   2.440  10.537 -1.5868  1.5159  0.5801
15019TIP3    H266549   2.100   2.542  10.566  0.1316 -0.1444  0.1619
15020TIP3   OH266550   4.648   6.585  14.748  0.0189 -0.5880 -0.3907
15020TIP3    H166551   4.650   6.583  14.652  0.4213 -0.5151 -0.3839
15020TIP3    H266552   4.739   6.598  14.774 -0.1395 -0.2432 -0.0050
15021TIP3   OH266553   1.896   0.833   4.438  0.0250  0.1347 -0.2042
15021TIP3    H166554   1.829   0.770   4.461  0.7457 -0.3954  0.5054
15021TIP3    H266555   1.903   0.890   4.514  1.3024 -0.6444  0.3061
15022TIP3   OH266556   3.050   1.691   0.134 -0.5429 -0.1362  0.7734
15022TIP3    H166557   2.981   1.632   0.101 -0.9458  0.4483  0.5514
15022TIP3    H266558   3.083   1.735   0.056 -0.8996  0.6223  1.0408
15023TIP3   OH266559   3.485   6.209  14.763 -0.0102 -0.1007 -0.2279
15023TIP3    H166560   3.558   6.151  14.783 -0.7096 -0.3045  2.0224
15023TIP3    H266561   3.520   6.297  14.778  0.4384 -0.0220 -1.5768
15024TIP3   OH266562   4.404   2.204   1.674  0.0291  0.0518 -0.8026
15024TIP3    H166563   4.377   2.290   1.706 -0.4636 -0.3476 -0.1028
15024TIP3    H266564   4.410   2.214   1.579 -0.4952  0.7260 -0.7704
15025TIP3   OH266565   1.972   3.975  13.735 -0.3069  0.1772  0.7182
15025TIP3    H166566   2.038   4.001  13.670 -0.9943 -0.5572 -0.3020
15025TIP3    H266567   2.018   3.914  13.792 -0.3663 -1.1736 -0.6386
15026TIP3   OH266568   3.562   2.969  12.222  0.0856  0.4953 -0.2134
15026TIP3    H166569   3.494   2.968  12.289  1.8073  0.2221  1.6044
15026TIP3    H266570   3.577   3.061  12.204  1.0791  0.6953  1.4111
15027TIP3   OH266571   0.013   1.993  16.715 -0.2881  0.1561  0.3205
15027TIP3    H166572   0.036   2.007  16.623 -0.1230 -0.5569  0.2503
15027TIP3    H266573  -0.077   1.962  16.713 -0.4861  0.7148  0.4449
15028TIP3   OH266574   3.740   1.335  11.009  0.2573 -0.2600  0.0501
15028TIP3    H166575   3.758   1.414  11.060 -0.7384 -0.3488  0.5682
15028TIP3    H266576   3.656   1.354  10.966  0.7142 -0.4858 -0.9581
15029TIP3   OH266577   1.619   5.781   2.634 -0.8440 -0.1581  0.4174
15029TIP3    H166578   1.606   5.720   2.706 -3.9112 -0.1806 -0.0185
15029TIP3    H266579   1.621   5.867   2.676  2.0416 -0.3712  0.8879
15030TIP3   OH266580   6.387   3.227  12.996  0.3744  0.0292 -0.3722
15030TIP3    H166581   6.305   3.178  12.990  0.7086 -0.6343  0.2840
15030TIP3    H266582   6.364   3.316  12.967 -0.2985 -0.4374 -1.3078
15031TIP3   OH266583   6.522   4.377  12.752 -0.1375 -0.4966  0.6643
15031TIP3    H166584   6.545   4.463  12.716  2.8767 -0.7610  1.6567
15031TIP3    H266585   6.564   4.315  12.694 -1.1626 -1.2533  0.7143
15032TIP3   OH266586   5.616   0.464  13.997 -0.4655 -0.2026 -0.3595
15032TIP3    H166587   5.587   0.548  14.032 -2.2174 -0.0028 -2.1326
15032TIP3    H266588   5.544   0.434  13.942  0.9239 -1.9268 -1.3647
15033TIP3   OH266589   2.300   1.076   3.707  0.1093 -0.0983 -0.8277
15033TIP3    H166590   2.293   1.171   3.710 -0.5343 -0.1558  1.6991
15033TIP3    H266591   2.391   1.057   3.728 -0.0730 -0.0332  0.0764
15034TIP3   OH266592   2.143   0.987   2.595  0.4945  0.2532  0.4800
15034TIP3    H166593   2.236   0.984   2.620  1.3281  3.3938 -1.6514
15034TIP3    H266594   2.141   1.042   2.516 -3.0907 -0.6134 -0.2151
15035TIP3   OH266595   5.669   2.104  14.521  0.0599  0.2324  0.3926
15035TIP3    H166596   5.703   2.017  14.542 -0.6348  0.1562  1.2619
15035TIP3    H266597   5.688   2.116  14.428  1.3276 -0.3119  0.5656
15036TIP3   OH266598   0.167   2.359   4.786 -0.5713  0.0775 -0.2633
15036TIP3    H166599   0.156   2.287   4.847 -1.3155  0.8070  0.4982
15036TIP3    H266600   0.078   2.394   4.774 -0.4975 -0.2562 -2.0324
15037TIP3   OH266601   0.400   4.452   3.917 -0.1018  0.3186  0.2313
15037TIP3    H166602   0.313   4.479   3.888  0.6028  0.6537 -1.6694
15037TIP3    H266603   0.408   4.361   3.890 -0.7474 -0.5142  2.6087
15038TIP3   OH266604   1.335   5.838   4.975  0.5557  0.5562 -0.7466
15038TIP3    H166605   1.416   5.872   5.013  0.1924  0.4886  0.1034
15038TIP3    H266606   1.353   5.746   4.957  1.3323  1.0131 -2.4605
15039TIP3   OH266607   5.888   0.577   5.061 -0.0137  0.0950  0.1759
15039TIP3    H166608   5.857   0.543   4.978  1.0855 -0.3625 -0.0645
15039TIP3    H266609   5.824   0.645   5.085 -1.1671 -0.8048 -0.2781
15040TIP3   OH266610   1.017   4.429   1.209 -0.1654 -0.0094 -0.2519
15040TIP3    H166611   0.983   4.495   1.149  0.3021  0.4484 -0.0092
15040TIP3    H266612   1.029   4.351   1.154 -1.8944 -0.2957 -0.2936
15041TIP3   OH266613   4.715   1.270  14.163  0.5369  0.0472 -0.2224
15041TIP3    H166614   4.804   1.284  14.194  0.5018 -1.5493  0.6841
15041TIP3    H266615   4.662   1.268  14.242  0.1128 -1.7690 -0.5144
15042TIP3   OH266616   6.006   4.403  13.946 -0.0522  0.0918 -0.0595
15042TIP3    H166617   5.930   4.355  13.912 -1.3440  1.8367  0.1760
15042TIP3    H266618   6.030   4.357  14.026  0.6300 -1.8406 -1.3201
15043TIP3   OH266619   0.435   5.252  12.958  0.4649  0.1296 -1.1645
15043TIP3    H166620   0.493   5.303  13.014 -0.0012  0.5940 -1.1004
15043TIP3    H266621   0.351   5.298  12.962  0.3018 -0.0961 -1.8780
15044TIP3   OH266622   2.386   5.423  11.172  0.3106 -0.2102  0.0469
15044TIP3    H166623   2.374   5.460  11.084  1.3074 -1.3730 -0.5964
15044TIP3    H266624   2.414   5.333  11.157 -2.1586 -1.3544  1.5796
15045TIP3   OH266625   6.341   0.581  11.406 -0.5189 -0.3624 -0.2570
15045TIP3    H166626   6.429   0.617  11.397 -1.4064  1.9452 -0.4348
15045TIP3    H266627   6.349   0.515  11.475  1.6469 -1.4511 -1.4376
15046TIP3   OH266628   5.356   3.996  17.016 -0.6428  0.6778 -0.3746
15046TIP3    H166629   5.309   3.961  16.940 -1.2731  1.8089 -0.5201
15046TIP3    H266630   5.448   3.999  16.988 -0.6969 -0.0703 -0.6453
15047TIP3   OH266631   0.889   3.976  15.746 -0.1603 -0.5406 -0.1973
15047TIP3    H166632   0.953   4.046  15.764 -1.6866  0.5666  1.2385
15047TIP3    H266633   0.932   3.921  15.682  1.0340  1.8768 -1.6269
15048TIP3   OH266634   0.997   2.359   0.729  0.4230  0.6556 -0.4003
15048TIP3    H166635   1.080   2.407   0.739  0.2427  0.9482 -0.2951
15048TIP3    H266636   0.985   2.351   0.635  1.0576 -0.2401 -0.4176
15049TIP3   OH266637   5.578   0.737   1.893 -0.1091  0.2444  0.1444
15049TIP3    H166638   5.637   0.662   1.893 -0.8575 -0.3714  1.0820
15049TIP3    H266639   5.622   0.803   1.839  0.3351 -1.0266 -1.1067
15050TIP3   OH266640   6.045   0.288   5.752  0.3036  0.0584  0.2603
15050TIP3    H166641   5.996   0.361   5.714  0.7439 -0.5629 -1.6510
15050TIP3    H266642   6.073   0.320   5.838 -1.9441  1.0368  0.7023
15051TIP3   OH266643   5.293   4.339   5.574  1.0225 -0.4904  0.0285
15051TIP3    H166644   5.279   4.245   5.566 -0.0294 -0.3010 -0.5231
15051TIP3    H266645   5.205   4.376   5.588  1.4649  0.3740  0.6585
15052TIP3   OH266646   6.494   4.108  16.371 -0.3857 -0.4078 -0.5536
15052TIP3    H166647   6.458   4.098  16.459 -3.1666  2.4976 -1.1354
15052TIP3    H266648   6.437   4.055  16.316 -0.7093  0.3105 -0.9269
15053TIP3   OH266649   2.969   5.019   6.484 -0.7531 -0.0249  0.3929
15053TIP3    H166650   3.033   5.019   6.555  0.1702 -0.0402 -0.4191
15053TIP3    H266651   2.904   5.085   6.510  0.2155  0.8333  0.6977
15054TIP3   OH266652   0.652   2.755   5.403  0.5194  0.3147 -0.0232
15054TIP3    H166653   0.677   2.804   5.325 -0.1120 -0.8794 -1.0242
15054TIP3    H266654   0.722   2.771   5.466  0.3922  2.3361 -0.3561
15055TIP3   OH266655   0.922   5.094  11.092 -0.1790 -0.5187 -0.1537
15055TIP3    H166656   0.919   5.125  11.002  1.4006 -0.1303 -0.0901
15055TIP3    H266657   0.877   5.010  11.090 -0.7282 -0.2191 -1.1587
15056TIP3   OH266658   0.627   2.565  12.147 -0.0367 -0.9477 -0.1619
15056TIP3    H166659   0.555   2.506  12.125 -1.1235  1.0484 -2.2831
15056TIP3    H266660   0.585   2.643  12.183  1.1465 -0.1629 -0.4374
15057TIP3   OH266661   2.816   6.061   4.260 -0.3946 -0.5238  0.8505
15057TIP3    H166662   2.773   6.144   4.283  0.4061 -0.5778  2.6514
15057TIP3    H266663   2.784   5.999   4.325  0.9419 -1.0123  1.0663
15058TIP3   OH266664   5.275   1.258  10.884  0.1924  0.4010 -0.0837
15058TIP3    H166665   5.359   1.303  10.881 -0.2398  1.2339  0.1217
15058TIP3    H266666   5.211   1.326  10.904 -0.3152 -0.5070  1.5937
15059TIP3   OH266667   3.337   3.755   3.453  0.5236 -0.0483  0.1705
15059TIP3    H166668   3.357   3.663   3.434 -0.7108 -0.0673 -1.2157
15059TIP3    H266669   3.420   3.800   3.440  0.8586 -0.8003 -0.3904
15060TIP3   OH266670   4.586   0.336   6.010 -0.7071 -0.2888 -0.0284
15060TIP3    H166671   4.602   0.362   6.101 -0.3379 -1.4592  0.2542
15060TIP3    H266672   4.632   0.402   5.958  2.4858 -1.7297  0.7011
15061TIP3   OH266673   6.647   3.264   2.939 -0.6483 -0.1231  0.0189
15061TIP3    H166674   6.643   3.180   2.984 -2.5643  0.8003  1.6774
15061TIP3    H266675   6.558   3.299   2.944  0.1008  2.0183 -0.6005
15062TIP3   OH266676   1.497   4.286  11.186 -0.6372  0.1040  0.1028
15062TIP3    H166677   1.559   4.214  11.188  1.1131  1.5323  0.0169
15062TIP3    H266678   1.551   4.365  11.197 -2.6556  1.3066  2.5067
15063TIP3   OH266679   2.585   3.232   1.298  0.3352 -0.1406  0.6081
15063TIP3    H166680   2.493   3.251   1.314  0.4455  0.3085  0.7162
15063TIP3    H266681   2.628   3.317   1.302  0.7269 -0.3245  0.3697
15064TIP3   OH266682   2.429   2.306  16.200  0.3892 -0.5387  0.5521
15064TIP3    H166683   2.457   2.338  16.286 -0.3046  0.0378  0.5690
15064TIP3    H266684   2.334   2.313  16.201  0.3431 -1.0055 -0.0816
15065TIP3   OH266685   5.196   2.760   0.321 -0.0444  0.5023  0.2507
15065TIP3    H166686   5.188   2.697   0.249  0.1190  0.7809 -0.0103
15065TIP3    H266687   5.114   2.749   0.370 -0.7676  1.2492 -0.7402
15066TIP3   OH266688   2.748   1.592   5.386  0.5500  1.0487 -0.1568
15066TIP3    H166689   2.722   1.675   5.346 -4.0229  0.3222  0.7227
15066TIP3    H266690   2.712   1.597   5.475  2.5038 -0.8901  0.8366
15067TIP3   OH266691   5.322   2.174  16.021 -0.0897  0.2691 -0.2905
15067TIP3    H166692   5.382   2.132  15.959 -0.0436  0.3554 -0.3054
15067TIP3    H266693   5.350   2.266  16.022  0.3612  0.1247  0.3951
15068TIP3   OH266694   4.133   4.273  14.725  0.3294 -0.0949 -0.1399
15068TIP3    H166695   4.208   4.331  14.706 -0.5959  1.2412  0.1434
15068TIP3    H266696   4.155   4.191  14.681  0.6165  1.2357 -2.7039
15069TIP3   OH266697   5.380   4.534   3.379 -0.1116 -0.2487 -0.2678
15069TIP3    H166698   5.376   4.488   3.295  0.3673 -0.0085 -0.4246
15069TIP3    H266699   5.358   4.625   3.358 -0.8302 -0.3555  0.0054
15070TIP3   OH266700   2.238   3.158  13.702 -0.0933  0.2681  0.1098
15070TIP3    H166701   2.312   3.170  13.762 -0.8074 -1.1977  1.3459
15070TIP3    H266702   2.163   3.140  13.760 -1.0154 -0.2162 -1.1865
15071TIP3   OH266703   4.452   0.789  17.001 -0.0142 -0.3066  0.3021
15071TIP3    H166704   4.468   0.872  16.957  1.0840  0.2979  1.7403
15071TIP3    H266705   4.526   0.733  16.976 -0.0964 -0.4159  0.3031
15072TIP3   OH266706   2.359   5.534  12.301 -0.2111 -0.1351 -0.1105
15072TIP3    H166707   2.295   5.491  12.244 -0.4945  1.6198 -1.2038
15072TIP3    H266708   2.367   5.476  12.376 -1.5589 -1.4058 -0.8909
15073TIP3   OH266709   1.645   4.260   1.087  0.4978  0.4084  0.4161
15073TIP3    H166710   1.653   4.318   1.163 -0.8060  0.4476  0.5432
15073TIP3    H266711   1.575   4.199   1.110  1.0414 -0.4738 -0.2042
15074TIP3   OH266712   0.188   5.962  14.579 -0.5417  0.1384 -0.5372
15074TIP3    H166713   0.190   6.025  14.651  0.7136  0.7727 -1.1071
15074TIP3    H266714   0.230   6.007  14.506 -1.8400 -0.4679 -1.7073
15075TIP3   OH266715   1.056   3.531  11.639 -0.2677 -0.7200 -0.0648
15075TIP3    H166716   1.051   3.436  11.649 -0.5358 -0.5413  1.9288
15075TIP3    H266717   1.109   3.545  11.561 -0.6316 -2.5068 -0.6617
15076TIP3   OH266718   2.911   3.791  12.722 -0.1501 -0.1939  0.5028
15076TIP3    H166719   2.855   3.866  12.741  0.7148  0.8796 -0.9519
15076TIP3    H266720   2.857   3.733  12.668  0.0041  0.7060 -0.6649
15077TIP3   OH266721   4.973   4.385   5.426  0.3352 -0.0157  0.8819
15077TIP3    H166722   4.978   4.355   5.516 -1.6278 -0.1203  0.9937
15077TIP3    H266723   4.941   4.475   5.432  0.3527  0.0370  0.2951
15078TIP3   OH266724   3.640   3.285  12.489 -0.0500  0.4638 -0.2933
15078TIP3    H166725   3.580   3.333  12.432 -0.4709 -0.1544 -0.3890
15078TIP3    H266726   3.599   3.289  12.575  0.3377  0.9831 -0.1299
15079TIP3   OH266727   2.199   1.321   1.362 -0.1018 -0.6022  0.0785
15079TIP3    H166728   2.218   1.402   1.410  1.0337 -1.6552  1.5204
15079TIP3    H266729   2.104   1.319   1.354 -0.1154  1.1116 -0.4479
15080TIP3   OH266730   3.557   2.532  10.576 -0.3781 -0.5262 -0.5557
15080TIP3    H166731   3.623   2.601  10.565 -0.4568 -0.3334  0.1687
15080TIP3    H266732   3.473   2.578  10.565 -0.5299 -0.0328  2.1280
15081TIP3   OH266733   3.538   1.845  13.163  0.3896  0.4301 -0.2264
15081TIP3    H166734   3.545   1.872  13.071  0.9401 -2.0575 -0.9995
15081TIP3    H266735   3.616   1.883  13.204  0.6096  0.8451 -0.9917
15082TIP3   OH266736   4.715   0.320   5.227  0.0521  0.0608  0.1532
15082TIP3    H166737   4.799   0.307   5.183 -0.2951  0.9362 -0.8174
15082TIP3    H266738   4.673   0.389   5.177 -1.4498 -0.6834  0.3476
15083TIP3   OH266739   6.396   1.624  14.794 -0.1776  0.3422 -0.3384
15083TIP3    H166740   6.320   1.597  14.742 -0.2249  0.2791 -0.2376
15083TIP3    H266741   6.455   1.665  14.731 -1.5396  3.0901 -0.0060
15084TIP3   OH266742   3.352   1.002   6.450 -0.1743  0.1555 -0.6250
15084TIP3    H166743   3.334   1.062   6.378  0.1777  0.1088 -0.7504
15084TIP3    H266744   3.336   0.915   6.413 -0.3977  0.1541 -0.5276
15085TIP3   OH266745   1.858   0.082  12.301  0.3898  0.3032  0.1801
15085TIP3    H166746   1.776   0.092  12.348  0.4115  1.3295  0.0182
15085TIP3    H266747   1.909   0.159  12.325  1.2618 -0.2519  0.1760
15086TIP3   OH266748   4.459   2.693   4.290 -0.0625 -1.0812 -0.2775
15086TIP3    H166749   4.395   2.652   4.348 -2.3549  1.6871 -0.6754
15086TIP3    H266750   4.412   2.707   4.208  0.0632  3.2895  0.1839
15087TIP3   OH266751   0.832   2.544   4.108  0.1775 -0.1952  0.8521
15087TIP3    H166752   0.756   2.598   4.133  0.3321 -0.3375  1.6460
15087TIP3    H266753   0.871   2.518   4.191  1.5458  0.4986  0.4472
15088TIP3   OH266754   5.134   3.633   3.038  0.2717 -0.3680  0.0998
15088TIP3    H166755   5.176   3.661   2.956 -0.7545  0.7825 -0.0644
15088TIP3    H266756   5.196   3.659   3.106  0.8279 -0.7183 -0.2617
15089TIP3   OH266757   0.999   4.801   2.147  0.1324 -0.4170 -0.3673
15089TIP3    H166758   0.968   4.741   2.215  1.3405 -1.4585 -0.7042
15089TIP3    H266759   0.986   4.888   2.185  1.6671 -0.9801  1.6462
15090TIP3   OH266760   3.576   6.232  12.167 -0.4886 -0.0683  0.0228
15090TIP3    H166761   3.670   6.218  12.178 -0.4488  0.7911  0.8674
15090TIP3    H266762   3.549   6.164  12.106  1.2219  1.4334 -2.6115
15091TIP3   OH266763   3.464   0.915   3.456  0.2252 -0.3411 -0.5879
15091TIP3    H166764   3.502   0.928   3.543 -0.4235 -1.7921 -0.0564
15091TIP3    H266765   3.397   0.982   3.448  1.2053  0.6778 -0.5437
15092TIP3   OH266766   0.340   6.089   5.090  0.2820  0.3124 -0.1840
15092TIP3    H166767   0.403   6.048   5.031  1.1129 -0.7640  1.3916
15092TIP3    H266768   0.275   6.129   5.032  0.4624 -1.6408 -1.8267
15093TIP3   OH266769   5.094   6.603  13.565 -0.3979 -0.5523  0.6107
15093TIP3    H166770   4.999   6.604  13.560 -0.3408 -0.3507 -2.7290
15093TIP3    H266771   5.117   6.510  13.556 -0.2913 -0.3807 -1.2223
15094TIP3   OH266772   1.398   4.986  16.164  0.2100  0.8895 -0.3393
15094TIP3    H166773   1.393   5.020  16.254  0.0871 -1.8385  0.7681
15094TIP3    H266774   1.328   5.031  16.117 -1.3721  0.5842  1.6006
15095TIP3   OH266775   1.207   2.675   2.577  0.0922  0.3455  0.4376
15095TIP3    H166776   1.273   2.692   2.510  0.2405  0.1410  0.5268
15095TIP3    H266777   1.132   2.728   2.552 -1.0724 -2.0914 -1.6736
15096TIP3   OH266778   5.062   0.069  13.027  0.6679 -0.1277 -0.2100
15096TIP3    H166779   5.050   0.133  13.098 -2.7462 -2.3829  1.5343
15096TIP3    H266780   5.147   0.030  13.044  0.1988 -0.2109  2.4202
15097TIP3   OH266781   2.442   6.664   5.470  0.3466 -0.3441  0.1505
15097TIP3    H166782   2.443   6.759   5.479  2.2465 -0.3946  1.1177
15097TIP3    H266783   2.520   6.644   5.419 -0.0598 -1.3857 -0.0917
15098TIP3   OH266784   4.659   0.140   2.876  0.1036  0.7401 -0.5462
15098TIP3    H166785   4.710   0.106   2.802  0.7611  1.5970 -0.4974
15098TIP3    H266786   4.649   0.065   2.935 -0.4400  0.0390 -1.5016
15099TIP3   OH266787   4.347   1.673   0.300 -0.3295 -0.0853 -0.0154
15099TIP3    H166788   4.296   1.711   0.228 -0.5158  0.9654  0.6424
15099TIP3    H266789   4.435   1.709   0.289 -0.4989  0.5367  0.5951
15100TIP3   OH266790   4.733   0.898  11.468  0.3739 -0.5863 -0.1542
15100TIP3    H166791   4.761   0.831  11.406 -1.6296 -0.9337 -0.7680
15100TIP3    H266792   4.660   0.942  11.423 -0.0357  0.2590  1.2930
15101TIP3   OH266793   3.017   6.669  15.630  0.6005 -0.3862 -0.0572
15101TIP3    H166794   2.943   6.729  15.637 -1.3468 -2.6465  0.0057
15101TIP3    H266795   3.018   6.642  15.539  0.2297 -1.6645  0.2987
15102TIP3   OH266796   5.338   1.778   1.884 -0.3994 -0.7863  1.0188
15102TIP3    H166797   5.322   1.724   1.807 -0.4086  0.3104  0.2212
15102TIP3    H266798   5.420   1.744   1.922 -0.9528 -2.0039  1.1467
15103TIP3   OH266799   4.577   0.447   0.276  0.5035 -0.1500 -0.2696
15103TIP3    H166800   4.495   0.407   0.306 -0.9458  3.6772  1.6256
15103TIP3    H266801   4.643   0.415   0.337 -0.5305  0.0759  1.0171
15104TIP3   OH266802   0.100   5.198   4.718 -0.5246  0.3141  0.0304
15104TIP3    H166803   0.136   5.123   4.765  0.4120  0.0295 -1.1049
15104TIP3    H266804   0.073   5.259   4.787  0.9169 -0.0397  0.9416
15105TIP3   OH266805   1.811   5.678  13.356  0.1154  0.5962 -0.4388
15105TIP3    H166806   1.748   5.715  13.418  0.4145  0.2475  0.0842
15105TIP3    H266807   1.802   5.731  13.277 -1.2180  0.2088 -0.5635
15106TIP3   OH266808   2.841   6.648  16.304  0.1079  0.2586  0.2265
15106TIP3    H166809   2.897   6.592  16.357  0.0833  0.7450  0.7813
15106TIP3    H266810   2.900   6.684  16.237  0.5529  1.0258  1.0076
15107TIP3   OH266811   1.632   5.082  10.839 -0.6976  0.3644  0.0971
15107TIP3    H166812   1.714   5.130  10.849 -0.0931 -0.8753  1.5232
15107TIP3    H266813   1.590   5.121  10.763  0.8169  1.5954 -0.1507
15108TIP3   OH266814   5.081   3.270   1.128  0.1731  0.5450  0.0536
15108TIP3    H166815   5.081   3.283   1.223  1.0933  1.0297 -0.0089
15108TIP3    H266816   5.004   3.215   1.112  1.0361 -1.0767  1.2777
15109TIP3   OH266817   3.537   5.680   2.692  0.1720 -0.3914  0.4288
15109TIP3    H166818   3.519   5.707   2.602 -0.1128 -1.1449  0.2541
15109TIP3    H266819   3.540   5.584   2.688 -1.7068 -0.5324  1.5698
15110TIP3   OH266820   2.093   1.750   2.857 -0.9216  0.0056 -0.1977
15110TIP3    H166821   2.118   1.659   2.874 -0.9447  0.0621  0.1492
15110TIP3    H266822   2.163   1.783   2.801 -1.4523 -0.5250 -1.1993
15111TIP3   OH266823   0.250   4.975   1.900 -0.0161 -0.5955  0.0013
15111TIP3    H166824   0.312   4.907   1.874  0.8785  0.5954 -1.1053
15111TIP3    H266825   0.236   5.026   1.821 -2.5053 -0.8581  0.1968
15112TIP3   OH266826   6.025   4.012   1.712 -0.2507  0.4381  0.1288
15112TIP3    H166827   5.931   4.020   1.731 -0.6546 -1.0760 -1.0488
15112TIP3    H266828   6.060   3.963   1.786 -0.3788  0.9740  0.5545
15113TIP3   OH266829   2.865   1.944   0.545  0.6191 -0.2181  0.0567
15113TIP3    H166830   2.929   1.887   0.503 -0.1672 -2.1793  1.4053
15113TIP3    H266831   2.787   1.938   0.491  1.0151  0.8873 -0.6781
15114TIP3   OH266832   6.259   4.413  12.806  0.0300  0.3969 -0.0202
15114TIP3    H166833   6.351   4.403  12.781 -0.2981 -1.6575 -0.5837
15114TIP3    H266834   6.260   4.482  12.872  1.5655  2.5854 -2.1591
15115TIP3   OH266835   1.058   6.501  13.224 -0.6406  0.1124 -0.4692
15115TIP3    H166836   0.987   6.540  13.274 -0.0996  1.7892 -0.9635
15115TIP3    H266837   1.031   6.509  13.132  0.9864  2.6686 -0.8422
15116TIP3   OH266838   2.759   0.786   1.072  0.2425  0.3488 -0.5224
15116TIP3    H166839   2.692   0.834   1.121  0.0124  0.1696 -0.6603
15116TIP3    H266840   2.710   0.738   1.005  0.5604  0.6650 -0.9900
15117TIP3   OH266841   6.527   3.009  12.881  0.5453  0.1480  0.2072
15117TIP3    H166842   6.464   2.967  12.823 -0.1413 -1.0652  1.7531
15117TIP3    H266843   6.514   3.103  12.867  0.2426 -0.1042 -1.3836
15118TIP3   OH266844   5.160   3.498   0.506  0.1280  0.0951 -0.2765
15118TIP3    H166845   5.254   3.500   0.522  0.0952 -0.6037  0.0245
15118TIP3    H266846   5.121   3.499   0.594 -0.0638 -3.1288 -0.1856
15119TIP3   OH266847   5.993   1.168  17.051  0.3944  0.4681  0.5952
15119TIP3    H166848   6.069   1.140  16.999  0.2947  2.8261 -0.9664
15119TIP3    H266849   5.928   1.101  17.037  0.5973  0.7039 -1.9252
15120TIP3   OH266850   5.516   1.795  15.644  0.3708 -0.2062  0.3084
15120TIP3    H166851   5.545   1.794  15.735 -0.0458 -1.2579  0.4481
15120TIP3    H266852   5.593   1.821  15.594  0.3416  1.3727  1.0308
15121TIP3   OH266853   3.669   5.139  11.553 -0.3203 -0.2470  0.3047
15121TIP3    H166854   3.637   5.206  11.493  0.9860 -0.4706 -0.6832
15121TIP3    H266855   3.646   5.056  11.511 -0.3058 -0.4085  0.6151
15122TIP3   OH266856   2.876   4.241   3.850  0.2427 -0.5911  0.3860
15122TIP3    H166857   2.831   4.196   3.780 -0.0621  0.9463 -0.4462
15122TIP3    H266858   2.809   4.257   3.916  0.3807 -1.4232  0.7460
15123TIP3   OH266859   5.750   6.735  15.868 -0.0514  0.1839  0.0380
15123TIP3    H166860   5.830   6.710  15.914 -0.7487  0.4671  1.4540
15123TIP3    H266861   5.750   6.830  15.870  0.5715  0.2583 -1.7774
15124TIP3   OH266862   4.525   1.175  14.369 -0.0120 -0.5645  0.5038
15124TIP3    H166863   4.497   1.160  14.278  0.2707  1.6584 -0.0009
15124TIP3    H266864   4.470   1.116  14.421 -0.0447 -2.0438 -1.0990
15125TIP3   OH266865   0.490   1.162   3.135  0.2163  0.3820  0.0986
15125TIP3    H166866   0.406   1.144   3.093  0.7184  0.1397 -0.8368
15125TIP3    H266867   0.468   1.189   3.224 -0.8787  0.9225 -0.3331
15126TIP3   OH266868   1.909   3.185   3.056 -0.1310  0.7936 -0.0655
15126TIP3    H166869   1.865   3.176   2.971  0.5778 -0.3316 -0.3439
15126TIP3    H266870   1.902   3.278   3.077  1.8354  1.6294 -2.5549
15127TIP3   OH266871   1.005   4.187   2.497 -0.0646 -0.3112 -0.3257
15127TIP3    H166872   0.943   4.180   2.424 -1.7697  0.4121  1.0013
15127TIP3    H266873   1.083   4.228   2.458  0.7705 -3.6934 -2.6688
15128TIP3   OH266874   3.303   6.485  10.875  0.3044  0.1530  0.1200
15128TIP3    H166875   3.341   6.398  10.865  1.7024  0.8291 -0.7963
15128TIP3    H266876   3.321   6.529  10.791 -0.5881  1.2362  0.4687
15129TIP3   OH266877   3.949   6.343   2.394 -0.2317 -0.3046  0.3513
15129TIP3    H166878   3.874   6.388   2.432  0.4805  0.0692  1.3735
15129TIP3    H266879   3.937   6.251   2.418 -0.4358 -0.2693  0.3846
15130TIP3   OH266880   3.918   1.991   3.790  0.3165 -0.4161  0.5023
15130TIP3    H166881   3.971   1.953   3.720 -0.5741 -1.2811  0.2704
15130TIP3    H266882   3.885   1.915   3.838 -1.6450  0.0203 -0.0666
15131TIP3   OH266883   5.351   6.806  15.765  0.2745 -0.2401  0.4604
15131TIP3    H166884   5.369   6.774  15.854  2.1738 -1.0651 -0.1834
15131TIP3    H266885   5.362   6.729  15.709  5.0405  1.2922 -1.1744
15132TIP3   OH266886   0.487   0.641  14.650 -0.4182 -0.3608  0.0952
15132TIP3    H166887   0.426   0.584  14.603 -0.9281 -1.0589  1.5351
15132TIP3    H266888   0.478   0.615  14.742  1.1238  0.4061  0.4966
15133TIP3   OH266889   4.212   3.794  16.759 -0.2580 -0.2248 -0.2325
15133TIP3    H166890   4.157   3.728  16.801  0.6183  0.1688  1.6340
15133TIP3    H266891   4.161   3.875  16.765  0.5920  0.2240  1.8546
15134TIP3   OH266892   2.497   6.466  13.005 -0.7060  0.1331 -0.2089
15134TIP3    H166893   2.584   6.445  12.971 -0.7562  0.9720 -0.8845
15134TIP3    H266894   2.491   6.561  12.998 -1.1547  0.2187  1.1288
15135TIP3   OH266895   1.715   5.486  15.639  0.1151  0.2012  0.5624
15135TIP3    H166896   1.712   5.414  15.702  1.2399  0.2094  0.6445
15135TIP3    H266897   1.634   5.535  15.654 -1.1468 -1.5445 -0.1136
15136TIP3   OH266898   0.202   3.158   4.673 -0.2033  0.4714 -0.1657
15136TIP3    H166899   0.229   3.142   4.582 -2.5641  0.0463 -0.8405
15136TIP3    H266900   0.263   3.106   4.725 -0.5456 -1.5818 -1.6941
15137TIP3   OH266901   6.187   6.702  12.046 -0.2564 -0.1702 -0.9073
15137TIP3    H166902   6.206   6.794  12.024 -0.5438  0.5778  1.7317
15137TIP3    H266903   6.093   6.694  12.036 -0.2525 -0.1506 -0.9642
15138TIP3   OH266904   2.945   0.306   3.725  0.5664  0.2551 -0.4379
15138TIP3    H166905   2.899   0.390   3.733 -0.3047 -0.3078  0.7000
15138TIP3    H266906   2.876   0.243   3.707  0.8067 -0.6399  1.4865
15139TIP3   OH266907   5.490   2.579  13.790  0.0839 -0.1078  0.3559
15139TIP3    H166908   5.523   2.623  13.711  1.0378  0.2734  0.9448
15139TIP3    H266909   5.415   2.528  13.760 -0.5442  1.2780 -0.5074
15140TIP3   OH266910   5.784   0.143   2.498  0.1914  0.1183  0.7330
15140TIP3    H166911   5.759   0.052   2.483  1.2660 -0.0497 -0.1664
15140TIP3    H266912   5.717   0.195   2.453  1.8225 -0.3326 -2.5365
15141TIP3   OH266913   6.755   0.140  14.375  0.0891  0.1892  0.4695
15141TIP3    H166914   6.698   0.145  14.451 -0.2581 -3.0718  0.5987
15141TIP3    H266915   6.840   0.114  14.410  0.2111 -0.2478 -0.1228
15142TIP3   OH266916   3.729   2.391   2.396  0.1713  0.1166  0.1023
15142TIP3    H166917   3.787   2.315   2.390 -0.4678 -0.2983 -1.1316
15142TIP3    H266918   3.651   2.359   2.442 -0.0990  0.0130 -0.4195
15143TIP3   OH266919   0.100   0.298  14.696 -0.1230 -0.0611  0.4081
15143TIP3    H166920   0.078   0.389  14.674  2.1553  0.6944  0.8852
15143TIP3    H266921   0.067   0.286  14.784 -0.7397  0.1879  0.2143
15144TIP3   OH266922   2.852   5.499  13.056  0.1661 -0.1641  0.1425
15144TIP3    H166923   2.848   5.532  12.966  0.3947 -0.8064 -0.1069
15144TIP3    H266924   2.896   5.569  13.105  0.0156  0.2008 -0.2339
15145TIP3   OH266925   1.420   3.827   2.008  0.6555 -0.1917 -0.1575
15145TIP3    H166926   1.386   3.799   2.092  1.3450 -1.0753 -0.1554
15145TIP3    H266927   1.343   3.833   1.951  0.2912 -0.4148  0.3090
15146TIP3   OH266928   3.171   6.786   4.657 -0.3499 -0.1941 -0.0411
15146TIP3    H166929   3.120   6.803   4.736  1.2212  1.3550  0.7288
15146TIP3    H266930   3.239   6.724   4.684  1.1252  1.4768  0.3163
15147TIP3   OH266931   1.823   0.089  16.189  0.9052 -0.4991  0.1691
15147TIP3    H166932   1.809   0.169  16.139  0.2508  0.2161  1.4362
15147TIP3    H266933   1.744   0.036  16.174  1.6360 -1.2427 -1.2173
15148TIP3   OH266934   6.291   0.550  13.803 -0.3194  0.4669  0.7376
15148TIP3    H166935   6.254   0.481  13.858  0.4771 -0.5200  0.0911
15148TIP3    H266936   6.384   0.550  13.825 -0.1485  0.6563  0.0315
15149TIP3   OH266937   5.997   3.426  14.030  0.4631 -0.7041  0.0573
15149TIP3    H166938   5.978   3.352  14.088  0.8086  0.1449  1.3082
15149TIP3    H266939   6.080   3.461  14.062  0.4408  0.0641 -0.6815
15150TIP3   OH266940   3.004   5.340   4.141 -0.2744 -0.3308  0.1799
15150TIP3    H166941   3.022   5.248   4.161 -1.2745 -0.6523 -0.3570
15150TIP3    H266942   2.942   5.368   4.209 -0.5058 -0.2508 -0.0624
15151TIP3   OH266943   3.915   0.577   1.095 -0.3638  0.1418  0.2490
15151TIP3    H166944   3.890   0.613   1.180  0.1142  1.6328 -0.2074
15151TIP3    H266945   3.968   0.646   1.054 -1.4506 -0.1073 -1.7007
15152TIP3   OH266946   6.030   5.235  12.591  0.9917  0.1250  0.5041
15152TIP3    H166947   5.972   5.160  12.577  1.0210 -0.0958  1.4711
15152TIP3    H266948   6.115   5.196  12.613  1.5615  0.4418 -0.9881
15153TIP3   OH266949   3.514   3.468  16.346 -0.3734 -0.1224 -0.4389
15153TIP3    H166950   3.592   3.413  16.338 -0.1910  0.2149 -1.1203
15153TIP3    H266951   3.548   3.554  16.371 -0.4879  0.1058 -1.0450
15154TIP3   OH266952   1.052   3.185   6.393  0.3759 -0.4244  0.2973
15154TIP3    H166953   1.124   3.212   6.337  0.0404  0.6428  0.3415
15154TIP3    H266954   1.084   3.108   6.440  1.5375  0.1240  0.4330
15155TIP3   OH266955   1.123   1.919   0.955  0.0685 -0.3635  0.2126
15155TIP3    H166956   1.179   1.996   0.964  0.0571 -0.5668  2.4170
15155TIP3    H266957   1.054   1.932   1.019 -0.9463 -1.3781 -0.6414
15156TIP3   OH266958   4.038   3.428   3.870  0.7508  0.5798  0.5811
15156TIP3    H166959   4.051   3.516   3.835 -2.0789  0.8652 -0.0052
15156TIP3    H266960   3.983   3.440   3.948 -1.8089 -0.7124 -0.8714
15157TIP3   OH266961   5.179   1.882  12.301 -0.3885  0.4094  0.0507
15157TIP3    H166962   5.271   1.878  12.327 -0.3697 -0.3448 -0.1322
15157TIP3    H266963   5.166   1.973  12.273  0.0422  0.7709  0.9972
15158TIP3   OH266964   5.468   0.719  11.955  0.5845 -0.3673  0.1558
15158TIP3    H166965   5.383   0.694  11.991 -0.8622  2.2285 -1.1554
15158TIP3    H266966   5.450   0.796  11.901  3.6830 -0.1176 -0.7517
15159TIP3   OH266967   3.321   1.121  14.855  0.2206  0.5976  0.6398
15159TIP3    H166968   3.294   1.100  14.765 -0.9546  0.1797  1.0723
15159TIP3    H266969   3.316   1.216  14.859  0.3370  0.6252  0.2486
15160TIP3   OH266970   3.856   1.064   3.289 -0.1106 -0.7355  0.1776
15160TIP3    H166971   3.846   0.971   3.308  1.0842 -1.0245 -0.4965
15160TIP3    H266972   3.909   1.098   3.362 -1.5125 -0.3070  1.0402
15161TIP3   OH266973   4.849   1.565   4.318 -0.1817 -0.0356  0.3632
15161TIP3    H166974   4.941   1.541   4.331 -0.2610  0.1411  1.3020
15161TIP3    H266975   4.801   1.483   4.325 -0.2861  0.1296  1.9144
15162TIP3   OH266976   0.803   2.165  10.720  0.2423  0.3637 -0.4539
15162TIP3    H166977   0.751   2.090  10.748  0.8685 -0.5399 -1.6107
15162TIP3    H266978   0.743   2.218  10.668 -0.4346  1.1429  1.0501
15163TIP3   OH266979   2.374   4.348   0.934 -0.1029  0.3904 -0.0437
15163TIP3    H166980   2.297   4.314   0.888 -1.6145  2.2416  0.9336
15163TIP3    H266981   2.363   4.443   0.931  1.6350  0.6698  1.0360
15164TIP3   OH266982   5.982   6.370  16.531 -0.1667  0.0695 -0.4026
15164TIP3    H166983   6.050   6.417  16.483 -0.1059 -1.0673 -1.4830
15164TIP3    H266984   5.972   6.287  16.484 -2.0002  0.0236 -0.0315
15165TIP3   OH266985   5.283   0.346  14.225 -0.0054  0.1208 -0.0883
15165TIP3    H166986   5.251   0.256  14.222  0.2216 -0.0368  1.6054
15165TIP3    H266987   5.230   0.389  14.291  1.4264  0.5974  0.7933
15166TIP3   OH266988   2.695   4.282  13.318 -0.3997 -0.5601 -0.5067
15166TIP3    H166989   2.644   4.273  13.398  0.1470 -0.0836 -0.0929
15166TIP3    H266990   2.738   4.198  13.306  0.0555 -0.4173  0.0860
15167TIP3   OH266991   2.300   3.307  15.190 -0.1662  0.2817  0.0994
15167TIP3    H166992   2.310   3.223  15.145 -0.2971 -0.6678  1.7741
15167TIP3    H266993   2.365   3.305  15.260 -0.5678  1.3348  0.5209
15168TIP3   OH266994   5.696   4.175   2.207 -0.3421 -0.7320  0.1663
15168TIP3    H166995   5.779   4.157   2.253  0.0769 -0.5546 -0.5037
15168TIP3    H266996   5.634   4.114   2.246 -0.3811  0.4063  2.0068
15169TIP3   OH266997   4.281   6.731  14.187 -0.6212 -0.0632 -0.2500
15169TIP3    H166998   4.238   6.655  14.149 -1.1984 -0.3519  0.9345
15169TIP3    H266999   4.225   6.805  14.163 -0.5851 -0.1399 -0.5754
15170TIP3   OH267000   1.632   2.338   4.130 -0.0203 -0.2104  0.4005
15170TIP3    H167001   1.671   2.250   4.137  0.5011  0.0294  0.5339
15170TIP3    H267002   1.633   2.357   4.037  0.6145 -0.0128  0.4454
15171TIP3   OH267003   0.173   5.772  16.069  0.1867  0.6689 -0.1094
15171TIP3    H167004   0.095   5.718  16.054 -0.0121 -0.2055  3.1485
15171TIP3    H267005   0.246   5.717  16.043 -0.1786  1.2904 -2.6837
15172TIP3   OH267006   1.022   3.465  12.630  0.2491  0.9221 -0.3641
15172TIP3    H167007   1.088   3.526  12.597  1.5704  0.5900  1.5039
15172TIP3    H267008   0.943   3.518  12.642  1.2170  2.1844  0.7188
15173TIP3   OH267009   4.133   5.976  10.435 -0.1024  0.3935 -0.3376
15173TIP3    H167010   4.221   6.001  10.403 -0.4904  1.5076 -0.6092
15173TIP3    H267011   4.132   6.006  10.526  0.3746 -1.1584  0.2005
15174TIP3   OH267012   5.822   0.830  13.985 -0.0329  0.4179 -0.3450
15174TIP3    H167013   5.766   0.770  13.934  1.3929 -1.0070 -0.3184
15174TIP3    H267014   5.835   0.905  13.927  1.8394 -1.3119 -2.3230
15175TIP3   OH267015   4.660   5.106  14.715 -0.1356  0.0635 -0.1094
15175TIP3    H167016   4.751   5.089  14.694  0.0082 -0.4731  0.8624
15175TIP3    H267017   4.633   5.175  14.654  1.2935  1.1541  0.4403
15176TIP3   OH267018   4.273   3.468  11.626 -0.3199 -0.3913 -0.2188
15176TIP3    H167019   4.213   3.407  11.669  0.7463 -1.3995 -0.1120
15176TIP3    H267020   4.302   3.421  11.548  0.6602 -0.0977 -0.0419
15177TIP3   OH267021   1.802   0.295  12.897 -0.2401 -0.2595 -0.5473
15177TIP3    H167022   1.884   0.247  12.909 -0.2106  0.4037  3.1599
15177TIP3    H267023   1.826   0.387  12.910 -1.2929  0.1353 -1.2489
15178TIP3   OH267024   2.253   1.895  16.281  0.5491 -0.1004  0.0033
15178TIP3    H167025   2.178   1.950  16.303  0.8570  1.4092 -2.4427
15178TIP3    H267026   2.328   1.955  16.280  1.5039 -1.2340  0.5329
15179TIP3   OH267027   6.085   1.540  12.666  0.1997 -0.0540  0.1094
15179TIP3    H167028   6.021   1.579  12.726  0.5091  0.6022  0.0277
15179TIP3    H267029   6.170   1.567  12.702  0.3922  0.1283 -0.4822
15180TIP3   OH267030   5.615   3.804  16.947 -0.6479  0.1460 -0.1562
15180TIP3    H167031   5.566   3.853  16.881 -1.3916  1.7029  1.4662
15180TIP3    H267032   5.592   3.712  16.931 -2.4988  0.6657 -0.7210
15181TIP3   OH267033   6.319   1.303  14.722 -0.3989  0.5566 -0.5265
15181TIP3    H167034   6.292   1.393  14.704 -0.6627  0.7381  0.6867
15181TIP3    H267035   6.243   1.263  14.765 -0.2312 -0.2106 -0.9098
15182TIP3   OH267036   6.370   3.447  15.198 -0.3683  0.6245  0.7207
15182TIP3    H167037   6.288   3.405  15.224 -1.0004  1.5092  0.1862
15182TIP3    H267038   6.398   3.400  15.119  0.9914 -1.3498  2.2658
15183TIP3   OH267039   6.061   6.271   5.390 -0.1674 -0.2385 -0.7432
15183TIP3    H167040   6.040   6.330   5.463  0.2788  0.4600 -1.1646
15183TIP3    H267041   6.017   6.189   5.413  0.4788 -0.2404  0.6124
15184TIP3   OH267042   1.895   4.936   4.233  0.4722  0.5914  0.2968
15184TIP3    H167043   1.856   4.911   4.317  0.5967 -2.1176 -0.3626
15184TIP3    H267044   1.906   5.031   4.240 -2.5636  0.9678  2.0345
15185TIP3   OH267045   6.376   0.537   1.207  0.2661  0.7812  0.0106
15185TIP3    H167046   6.456   0.563   1.253  0.2684  0.6070  0.1073
15185TIP3    H267047   6.386   0.574   1.120 -0.1001  1.7878  0.3884
15186TIP3   OH267048   6.083   3.684  11.891 -0.0295  0.0710  0.0100
15186TIP3    H167049   6.149   3.750  11.869 -0.4522  0.4875 -0.0227
15186TIP3    H267050   6.118   3.603  11.855  0.7789  0.1603  0.5680
15187TIP3   OH267051   2.429   2.939   5.211  0.3386 -0.2041 -0.1043
15187TIP3    H167052   2.483   2.860   5.211 -1.6550 -1.6540  1.0094
15187TIP3    H267053   2.397   2.946   5.121  1.4500  0.0202 -0.4909
15188TIP3   OH267054   4.580   5.340   1.175 -0.4258 -0.1292 -0.6327
15188TIP3    H167055   4.581   5.429   1.210 -0.4930 -0.3910  0.0426
15188TIP3    H267056   4.672   5.312   1.178 -0.3185  0.1161 -1.3787
15189TIP3   OH267057   6.059   6.178   0.914  0.2498 -0.3196 -0.0552
15189TIP3    H167058   6.048   6.125   0.993 -0.9411 -0.6080 -0.3915
15189TIP3    H267059   6.086   6.116   0.847 -1.2248 -0.5672 -0.4696
15190TIP3   OH267060   2.536   3.665   5.969  0.0849  0.7070 -0.1279
15190TIP3    H167061   2.586   3.738   6.006  1.1759 -0.3672  0.5786
15190TIP3    H267062   2.453   3.665   6.017 -0.8283  2.7361 -1.5624
15191TIP3   OH267063   4.757   4.100   3.132 -0.2363 -0.4263 -1.3603
15191TIP3    H167064   4.739   4.006   3.123  0.6112 -1.0293  1.8547
15191TIP3    H267065   4.679   4.136   3.174  0.5271 -0.2996 -0.0032
15192TIP3   OH267066   2.540   4.750  14.937  0.5038  0.1496 -0.5813
15192TIP3    H167067   2.595   4.719  14.865  0.1415 -0.5761 -0.5509
15192TIP3    H267068   2.479   4.811  14.896  0.0205 -0.5852 -0.9681
15193TIP3   OH267069   4.836   4.457  14.019 -0.1797  0.6550 -0.0416
15193TIP3    H167070   4.770   4.506  14.067 -1.1081 -1.6807  1.2397
15193TIP3    H267071   4.804   4.367  14.020  2.6872 -0.4616  0.0057
15194TIP3   OH267072   0.035   4.474   5.509  0.1443 -0.2501  0.1694
15194TIP3    H167073   0.037   4.379   5.493 -0.6432 -0.0347 -1.3346
15194TIP3    H267074   0.078   4.484   5.595 -0.1428 -1.9972  0.5645
15195TIP3   OH267075   0.363   6.648   3.975  0.7832  0.0917 -0.1134
15195TIP3    H167076   0.355   6.675   3.884 -0.0577 -0.5365 -0.2387
15195TIP3    H267077   0.275   6.619   4.000  1.5757 -2.5448 -0.0288
15196TIP3   OH267078   3.150   1.641  13.461  0.2784  0.1330 -0.2529
15196TIP3    H167079   3.167   1.579  13.390  0.1311  0.1662 -0.3169
15196TIP3    H267080   3.226   1.700  13.460 -0.6434  1.3534 -1.6742
15197TIP3   OH267081   0.970   5.951   3.166  0.4979  0.0589  0.2133
15197TIP3    H167082   0.969   5.891   3.240 -1.6789  0.2268  0.3690
15197TIP3    H267083   1.059   5.987   3.166  0.9953 -1.0642  1.8045
15198TIP3   OH267084   6.099   5.163   0.424  0.4444 -0.1009  0.3766
15198TIP3    H167085   6.042   5.088   0.438  0.1874  0.1239  0.5444
15198TIP3    H267086   6.047   5.238   0.453  1.1636  0.0161  1.4036
15199TIP3   OH267087   4.054   5.515  12.359  0.1270 -0.1195  1.0835
15199TIP3    H167088   4.043   5.538  12.266 -0.7111  1.3997  1.5354
15199TIP3    H267089   4.149   5.513  12.371  0.3010  2.8614  0.8885
15200TIP3   OH267090   2.806   6.437   5.943  0.0135 -0.2271 -0.1390
15200TIP3    H167091   2.858   6.372   5.990  0.8903  1.3471  1.1645
15200TIP3    H267092   2.717   6.401   5.941  0.1410 -0.7626  1.9575
15201TIP3   OH267093   4.458   5.793   0.459 -0.0244 -0.3140 -0.2952
15201TIP3    H167094   4.503   5.868   0.420  0.3854 -0.8406 -0.8468
15201TIP3    H267095   4.523   5.754   0.517 -0.3560 -0.0363  0.2716
15202TIP3   OH267096   6.682   5.565   5.430 -0.1799  0.2247 -0.3138
15202TIP3    H167097   6.685   5.660   5.444  0.2647  0.3907 -1.4074
15202TIP3    H267098   6.729   5.552   5.348 -0.0998 -0.9675 -0.0936
15203TIP3   OH267099   2.392   6.400  11.370 -0.0648  0.2813 -0.1546
15203TIP3    H167100   2.395   6.306  11.389 -0.3438  0.2383 -0.3230
15203TIP3    H267101   2.378   6.404  11.275  1.5208  0.4897 -0.4094
15204TIP3   OH267102   2.143   5.539   3.662 -0.5479  0.0676  0.3071
15204TIP3    H167103   2.064   5.528   3.715 -0.0334  0.6933  1.2291
15204TIP3    H267104   2.111   5.535   3.571 -1.7640  1.0483  0.6570
15205TIP3   OH267105   4.024   4.991   5.220  0.2764  0.0773  0.2058
15205TIP3    H167106   3.970   5.029   5.289  1.1538  0.2938  0.7928
15205TIP3    H267107   4.103   5.045   5.219  1.1485 -1.1509  0.4294
15206TIP3   OH267108   2.893   0.349   3.092  0.3097 -0.6131  0.1526
15206TIP3    H167109   2.889   0.401   3.172 -1.6680 -0.5977  0.1008
15206TIP3    H267110   2.913   0.413   3.023  0.0185 -0.2779  0.3737
15207TIP3   OH267111   4.688   3.594  17.083  0.8518  0.0421 -0.6489
15207TIP3    H167112   4.746   3.618  17.156  0.6108  1.5551 -0.9291
15207TIP3    H267113   4.722   3.644  17.008  0.3383 -0.5361 -1.2778
15208TIP3   OH267114   0.788   5.317  16.313  0.4248  0.1044 -0.2848
15208TIP3    H167115   0.769   5.253  16.381  0.8526  0.8056  0.5351
15208TIP3    H267116   0.704   5.357  16.293  0.4685  0.7752  0.7802
15209TIP3   OH267117   5.569   6.532   0.923  0.0716 -0.1504  0.1516
15209TIP3    H167118   5.616   6.462   0.879 -0.6297 -1.4270  1.3636
15209TIP3    H267119   5.495   6.489   0.966 -1.3790  1.5734 -0.4708
15210TIP3   OH267120   5.104   5.588   0.905 -0.2021  0.3993 -0.1839
15210TIP3    H167121   5.117   5.682   0.891  0.1751  0.0130 -2.9377
15210TIP3    H267122   5.094   5.579   1.000  1.1017  3.0379  0.2888
15211TIP3   OH267123   3.776   5.655   5.158 -0.2789  0.2187 -0.2705
15211TIP3    H167124   3.705   5.591   5.163 -0.6049  0.5764 -0.3761
15211TIP3    H267125   3.733   5.739   5.142  0.2862  0.1778 -2.2058
15212TIP3   OH267126   1.736   3.343  10.205  0.0845 -0.4641  0.4181
15212TIP3    H167127   1.811   3.378  10.253 -1.6013  3.2369  0.6322
15212TIP3    H267128   1.659   3.370  10.257 -1.6314  0.7716 -2.5291
15213TIP3   OH267129   1.958   3.364   6.340  0.1807  0.5421  0.2000
15213TIP3    H167130   1.871   3.375   6.301  0.5776 -0.8817 -1.1912
15213TIP3    H267131   1.953   3.282   6.388  0.8685  0.1888 -0.3055
15214TIP3   OH267132   1.019   0.364  16.518 -0.2286 -0.8286 -0.6145
15214TIP3    H167133   1.037   0.448  16.477 -1.9110 -1.0486 -1.9006
15214TIP3    H267134   1.026   0.300  16.447  0.4766 -1.7184  0.2285
15215TIP3   OH267135   5.119   3.209   0.050 -0.1347 -0.2570  0.6335
15215TIP3    H167136   5.176   3.175   0.118  1.6728 -2.0898 -1.6053
15215TIP3    H267137   5.067   3.133   0.023 -0.1949  0.1871 -0.5697
15216TIP3   OH267138   5.654   1.248  12.111  0.1047 -0.0517  0.3738
15216TIP3    H167139   5.593   1.304  12.063  1.1880  1.2050  0.4070
15216TIP3    H267140   5.675   1.297  12.190  2.0642  0.1297 -0.2055
15217TIP3   OH267141   3.003   1.352  11.897  0.1130 -0.3199 -0.1864
15217TIP3    H167142   3.080   1.408  11.908 -0.0409 -0.1639  0.1157
15217TIP3    H267143   2.996   1.340  11.802  0.2684  0.0056 -0.2431
15218TIP3   OH267144   3.495   3.173  16.398  0.0378  0.2692  0.5507
15218TIP3    H167145   3.535   3.088  16.415  0.2656  0.1977 -0.2811
15218TIP3    H267146   3.524   3.229  16.470 -1.4081 -0.7556  2.0168
15219TIP3   OH267147   2.377   2.150  14.248 -0.4934 -0.5307 -0.3316
15219TIP3    H167148   2.342   2.224  14.297  2.3229  1.5611 -1.1752
15219TIP3    H267149   2.366   2.075  14.306 -2.7268  0.6713  0.9106
15220TIP3   OH267150   4.061   5.400  14.349 -0.1486  0.2929 -0.1180
15220TIP3    H167151   4.137   5.384  14.294 -0.2570 -1.5845  0.2076
15220TIP3    H267152   4.022   5.480  14.314  0.5821 -0.0776 -1.8788
15221TIP3   OH267153   4.440   6.334  14.119  0.7577 -0.1891 -0.1939
15221TIP3    H167154   4.471   6.421  14.095 -0.8628  0.6808  0.6548
15221TIP3    H267155   4.431   6.288  14.035  3.1194 -0.1252 -0.5462
15222TIP3   OH267156   5.425   6.518  15.120  0.3732  0.3752  0.4153
15222TIP3    H167157   5.469   6.597  15.088 -0.4762  1.3260  1.5419
15222TIP3    H267158   5.337   6.546  15.143 -0.0458 -0.9700  0.5736
15223TIP3   OH267159   6.742   2.189  14.484  0.3178 -0.3009 -0.0585
15223TIP3    H167160   6.727   2.106  14.530 -0.6079 -0.1423 -0.0512
15223TIP3    H267161   6.816   2.171  14.426 -2.0559 -2.2817 -2.7681
15224TIP3   OH267162   1.792   2.722   0.464  0.1060 -1.2300 -0.5266
15224TIP3    H167163   1.792   2.629   0.486 -1.3208 -1.0801  0.2129
15224TIP3    H267164   1.806   2.766   0.548 -1.0417 -0.7411 -0.5831
15225TIP3   OH267165   3.904   3.962  13.620  0.1834  0.0904 -0.0801
15225TIP3    H167166   3.837   3.996  13.679  0.9439  1.8362 -0.1493
15225TIP3    H267167   3.965   3.915  13.676  0.1374  0.4978  0.3119
15226TIP3   OH267168   1.651   3.892  15.839  0.3915 -0.2005 -0.0155
15226TIP3    H167169   1.628   3.983  15.855 -0.1774 -0.1523 -1.0217
15226TIP3    H267170   1.746   3.888  15.855  0.1567  0.1725  1.6518
15227TIP3   OH267171   0.643   0.307  13.132  0.4169  0.0616 -0.0457
15227TIP3    H167172   0.560   0.311  13.083 -0.1005 -0.5621  0.7450
15227TIP3    H267173   0.688   0.231  13.094 -0.3642 -0.9554  0.9759
15228TIP3   OH267174   1.112   6.171   6.020  0.1828  0.3489  0.0208
15228TIP3    H167175   1.075   6.163   5.933  1.8874  0.2751 -0.7475
15228TIP3    H267176   1.162   6.252   6.018  0.9391 -0.0801  0.6238
15229TIP3   OH267177   3.074   2.853   0.924  0.5256  0.6825 -0.7457
15229TIP3    H167178   3.127   2.929   0.900  0.1998  0.3023 -2.8256
15229TIP3    H267179   3.137   2.780   0.927  0.5751  0.7396 -0.3702
15230TIP3   OH267180   5.154   6.672  12.790 -0.1629 -0.0962 -0.5946
15230TIP3    H167181   5.169   6.656  12.883 -0.4355  1.6723 -0.2093
15230TIP3    H267182   5.240   6.698  12.756 -0.3487  0.6626 -0.5032
15231TIP3   OH267183   5.470   4.693   2.122  0.6412 -1.1141 -0.3666
15231TIP3    H167184   5.506   4.611   2.155  0.1701 -0.9400  0.6189
15231TIP3    H267185   5.430   4.671   2.039  1.5820 -1.6328 -0.6984
15232TIP3   OH267186   1.745   2.922  16.275  1.1114  0.0674  0.3681
15232TIP3    H167187   1.764   2.862  16.203 -0.4193  0.0991 -0.1073
15232TIP3    H267188   1.720   3.004  16.233  0.3354  0.1285  0.9191
15233TIP3   OH267189   3.498   3.208   2.985 -0.0731 -0.1323  0.2307
15233TIP3    H167190   3.499   3.286   3.041 -1.4381 -0.7401  1.1631
15233TIP3    H267191   3.579   3.162   3.007 -0.8422 -0.6516  2.2046
15234TIP3   OH267192   5.853   3.593   2.156  0.1536  0.3859 -0.3642
15234TIP3    H167193   5.923   3.543   2.114  0.1436  1.2744 -1.4783
15234TIP3    H267194   5.789   3.527   2.183  0.3712 -0.2533 -1.3498
15235TIP3   OH267195   3.123   4.075  17.117 -0.1118 -0.9089  0.2803
15235TIP3    H167196   3.186   4.147  17.108 -1.2968  0.1005 -0.1433
15235TIP3    H267197   3.118   4.060  17.212  1.6208 -1.8105  0.2695
15236TIP3   OH267198   3.958   1.068  12.395 -0.5384 -0.2273 -0.1030
15236TIP3    H167199   4.040   1.056  12.346 -1.2965 -3.3123 -0.8297
15236TIP3    H267200   3.899   1.002  12.359 -3.8466  2.6360 -0.4536
15237TIP3   OH267201   4.349   6.480  11.105  0.0227 -0.5628 -0.0154
15237TIP3    H167202   4.420   6.517  11.156  1.1476 -1.0108 -1.1960
15237TIP3    H267203   4.309   6.555  11.061 -1.5361 -0.0526  2.1388
15238TIP3   OH267204   4.450   2.132  12.352  0.0771 -0.3777 -0.3838
15238TIP3    H167205   4.366   2.177  12.338 -0.0667  0.7040  3.0463
15238TIP3    H267206   4.513   2.184  12.303 -1.0995 -0.9592 -2.6801
15239TIP3   OH267207   2.676   3.357   0.708 -0.2129  0.4085 -0.4507
15239TIP3    H167208   2.731   3.328   0.780 -2.3556 -1.1228  0.6372
15239TIP3    H267209   2.601   3.398   0.749 -1.2303 -0.0063 -1.8128
15240TIP3   OH267210   1.472   0.620   1.628  0.3558 -0.0795  0.4669
15240TIP3    H167211   1.548   0.568   1.655 -0.4129 -1.5020 -0.0318
15240TIP3    H267212   1.510   0.699   1.590  1.6083 -0.8425  0.0495
15241TIP3   OH267213   1.629   5.529   2.754  0.2960 -0.3133  0.3104
15241TIP3    H167214   1.658   5.464   2.690 -0.0131 -1.4334  1.2807
15241TIP3    H267215   1.537   5.510   2.768  0.5530 -0.6429  1.7194
15242TIP3   OH267216   2.940   0.568   2.929  0.3022 -0.2203  0.5795
15242TIP3    H167217   2.986   0.533   2.852 -0.0827  0.2738  0.1224
15242TIP3    H267218   3.003   0.627   2.969  1.7478 -2.8476  2.5085
15243TIP3   OH267219   5.906   4.412  15.831 -0.0646 -0.3947 -0.4523
15243TIP3    H167220   5.855   4.457  15.898  1.8847  1.4536 -0.1033
15243TIP3    H267221   5.860   4.433  15.749 -0.6902 -0.0198 -0.0196
15244TIP3   OH267222   5.892   4.429  13.365 -0.4273  0.2842 -0.2012
15244TIP3    H167223   5.827   4.467  13.424 -0.8859  1.0292 -1.1744
15244TIP3    H267224   5.854   4.437  13.278  0.8018  0.3852 -0.7479
15245TIP3   OH267225   3.232   3.147  11.450 -0.0940 -0.0258  0.7220
15245TIP3    H167226   3.304   3.179  11.504 -0.4031  1.5432  0.2410
15245TIP3    H267227   3.276   3.100  11.378  0.4587  0.8513  0.4717
15246TIP3   OH267228   4.402   6.769   0.748  0.2607 -0.4654  0.1008
15246TIP3    H167229   4.465   6.797   0.814 -0.1930  1.8051 -0.3635
15246TIP3    H267230   4.418   6.826   0.673  0.0762 -2.3091 -1.4174
15247TIP3   OH267231   5.961   0.459   5.285 -0.2697 -0.2803 -0.7570
15247TIP3    H167232   6.031   0.397   5.265  2.1056  1.9302  0.0595
15247TIP3    H267233   5.933   0.492   5.199 -0.4056 -1.2481 -1.0956
15248TIP3   OH267234   1.145   3.550  16.863 -0.2456 -0.2439 -0.1615
15248TIP3    H167235   1.106   3.638  16.866  1.4377  0.5098  0.5262
15248TIP3    H267236   1.071   3.493  16.841 -2.0519  0.9517  2.2246
15249TIP3   OH267237   3.596   1.941   4.044 -0.1487 -0.3163 -0.2814
15249TIP3    H167238   3.558   1.908   4.125 -1.0072 -1.3084 -1.0677
15249TIP3    H267239   3.523   1.945   3.983  0.2452  1.5347 -0.6927
15250TIP3   OH267240   6.515   0.091  14.519 -0.0528 -0.3452  0.2948
15250TIP3    H167241   6.508   0.176  14.562 -0.0521 -0.3855  0.3745
15250TIP3    H267242   6.512   0.028  14.590 -2.3508 -0.5294  0.1266
15251TIP3   OH267243   2.077   6.570   2.100 -0.2624  0.4122 -0.8009
15251TIP3    H167244   2.078   6.555   2.195  0.6108  0.6695 -0.7642
15251TIP3    H267245   1.986   6.553   2.075 -0.1354 -1.3992 -0.2032
15252TIP3   OH267246   1.706   4.848  16.370  0.0333  0.3410  0.1975
15252TIP3    H167247   1.729   4.888  16.286 -0.5816  0.8294  0.2591
15252TIP3    H267248   1.786   4.803  16.397  0.6829  1.3454  0.0176
15253TIP3   OH267249   1.738   1.346  17.094  0.2789  0.2113  0.2856
15253TIP3    H167250   1.729   1.401  17.172  1.5254 -0.3109  0.8317
15253TIP3    H267251   1.831   1.350  17.073 -0.0375  0.3164 -1.1758
15254TIP3   OH267252   1.374   3.451   2.074 -0.7311 -1.2561 -0.1914
15254TIP3    H167253   1.304   3.504   2.035  0.7827  1.4886  0.5697
15254TIP3    H267254   1.332   3.410   2.150 -1.3790  1.0658  0.7882
15255TIP3   OH267255   5.614   3.608   1.718  0.2272 -0.2717 -0.2708
15255TIP3    H167256   5.643   3.634   1.806 -2.0397 -1.6075  0.9684
15255TIP3    H267257   5.694   3.578   1.675  1.1170 -1.8567  2.2229
15256TIP3   OH267258   2.480   0.426  13.968 -0.1064  0.2938  0.4512
15256TIP3    H167259   2.515   0.362  13.906 -1.7297  0.5409 -0.7883
15256TIP3    H267260   2.553   0.485  13.986  1.0234 -1.0996  0.5436
15257TIP3   OH267261   1.286   3.590   3.827 -0.3983 -0.5440 -0.0519
15257TIP3    H167262   1.353   3.530   3.859 -0.9640  0.3749  3.3001
15257TIP3    H267263   1.319   3.677   3.850 -1.7245  0.0850 -0.3918
15258TIP3   OH267264   3.119   3.378  12.736  0.0796 -0.2700  0.3883
15258TIP3    H167265   3.106   3.320  12.661 -0.4853 -0.6460  0.7630
15258TIP3    H267266   3.165   3.454  12.701  1.4370 -1.2261  0.0124
15259TIP3   OH267267   0.676   5.943   3.846 -0.5443  0.3407 -0.8052
15259TIP3    H167268   0.613   5.923   3.777 -2.3398  1.1952  0.5056
15259TIP3    H267269   0.691   5.859   3.890 -0.0506 -0.0398 -1.6773
15260TIP3   OH267270   6.508   2.547  16.806  0.5933 -0.1732  0.3402
15260TIP3    H167271   6.454   2.616  16.767  0.3751 -0.4697  0.1167
15260TIP3    H267272   6.555   2.591  16.876 -1.8672 -0.4320  2.2867
15261TIP3   OH267273   6.230   0.327  15.921 -0.1419 -0.4696 -0.1179
15261TIP3    H167274   6.301   0.266  15.901 -0.4791 -0.8237 -0.2534
15261TIP3    H267275   6.247   0.354  16.011  0.6218  0.0883 -0.4268
15262TIP3   OH267276   5.433   6.770  10.347  0.1319 -0.1472  0.0492
15262TIP3    H167277   5.464   6.838  10.407  0.9954 -1.1134  0.7340
15262TIP3    H267278   5.464   6.688  10.386 -1.2273 -0.9709 -0.5508
15263TIP3   OH267279   4.864   4.835   1.441 -0.2678  0.4326  0.0583
15263TIP3    H167280   4.923   4.830   1.365 -0.1116  0.6217  0.1648
15263TIP3    H267281   4.781   4.801   1.409  0.0290 -0.2860  0.0379
15264TIP3   OH267282   1.522   5.220  15.560 -0.0637  0.7567  0.5028
15264TIP3    H167283   1.492   5.311  15.556  0.5518  0.9390  0.0165
15264TIP3    H267284   1.595   5.221  15.621  1.2052  0.9562 -0.9660
15265TIP3   OH267285   5.633   3.734  15.182  0.1968 -0.4967 -0.0537
15265TIP3    H167286   5.692   3.787  15.235  1.6590 -2.8221  0.8089
15265TIP3    H267287   5.687   3.705  15.108 -0.7583 -0.3054 -0.8571
15266TIP3   OH267288   0.005   0.500   6.119 -0.1055 -0.0613  0.0102
15266TIP3    H167289   0.083   0.542   6.155 -0.2190 -0.6240  0.9357
15266TIP3    H267290  -0.014   0.428   6.179 -1.4773  0.2099 -0.0704
15267TIP3   OH267291   5.945   3.783  13.727 -0.1443 -0.2993 -0.3585
15267TIP3    H167292   5.959   3.834  13.807 -3.0441  1.5254 -0.8727
15267TIP3    H267293   5.940   3.848  13.657  0.0164 -1.6727 -1.7091
15268TIP3   OH267294   0.326   3.094  16.190 -0.4727 -0.2344 -0.4529
15268TIP3    H167295   0.263   3.159  16.160 -0.3905 -0.2154 -0.5872
15268TIP3    H267296   0.282   3.049  16.262  0.1135  1.1547  0.8532
15269TIP3   OH267297   4.562   6.654   1.613 -0.6727  0.2568  0.2536
15269TIP3    H167298   4.545   6.593   1.542 -1.2949  0.5061  0.1761
15269TIP3    H267299   4.512   6.732   1.590 -0.5848  0.4752  0.7800
15270TIP3   OH267300   4.691   5.522  17.199 -0.1448 -0.5279 -0.6234
15270TIP3    H167301   4.662   5.542  17.288 -0.2635 -0.2210 -0.7278
15270TIP3    H267302   4.611   5.523  17.147  0.2103  2.4929 -1.3179
15271TIP3   OH267303   6.179   0.594   5.623  0.1616 -0.1546 -0.8836
15271TIP3    H167304   6.090   0.562   5.638 -0.3651  1.2944 -0.8305
15271TIP3    H267305   6.207   0.627   5.708 -0.2919  1.8883 -1.4909
15272TIP3   OH267306   0.258   2.350  16.225  0.1830  0.2251  0.7121
15272TIP3    H167307   0.187   2.410  16.201 -1.3294 -2.1399 -1.2165
15272TIP3    H267308   0.225   2.304  16.302 -1.7184 -2.6204 -1.5677
15273TIP3   OH267309   6.695   5.461  14.322 -0.3241  0.4952 -0.5044
15273TIP3    H167310   6.603   5.487  14.334  0.1627  1.9257  0.5225
15273TIP3    H267311   6.704   5.382  14.374 -0.7332  0.9724  0.3260
15274TIP3   OH267312   6.611   1.495  14.524  0.4924 -0.3792  0.2179
15274TIP3    H167313   6.538   1.438  14.499  2.0397 -2.3227 -0.1192
15274TIP3    H267314   6.646   1.527  14.441  0.5841 -0.1804  0.3313
15275TIP3   OH267315   3.788   2.714   0.514 -0.3666  0.0116 -0.8535
15275TIP3    H167316   3.810   2.624   0.540  0.2151  0.2513 -0.4940
15275TIP3    H267317   3.845   2.769   0.568  0.4872  0.5414 -2.2545
15276TIP3   OH267318   0.086   2.694   3.022 -0.0671 -0.3020 -0.1252
15276TIP3    H167319   0.036   2.774   3.004  0.1216 -0.3157 -0.7285
15276TIP3    H267320   0.050   2.662   3.105 -0.2055  0.3582  0.0760
15277TIP3   OH267321   3.065   4.658   1.929 -0.6394  0.2664 -0.2549
15277TIP3    H167322   3.033   4.747   1.915 -1.4932 -0.2512 -1.8931
15277TIP3    H267323   3.117   4.638   1.851 -0.5456 -0.7043  0.0323
15278TIP3   OH267324   3.122   5.188   5.000  0.2058  0.0702  0.4861
15278TIP3    H167325   3.045   5.234   5.033 -0.1638 -0.2472  0.0746
15278TIP3    H267326   3.122   5.105   5.047  1.2538  0.7413  1.7332
15279TIP3   OH267327   2.047   5.228   3.734  0.5276  0.1643 -0.3040
15279TIP3    H167328   1.977   5.193   3.680  0.7694  1.0462 -1.2191
15279TIP3    H267329   2.005   5.253   3.816 -0.4711  1.7095 -1.2391
15280TIP3   OH267330   2.147   6.546   2.856  1.0210 -0.1288  0.5655
15280TIP3    H167331   2.099   6.517   2.778  1.4813 -0.0617  0.2515
15280TIP3    H267332   2.234   6.567   2.824  1.0877  0.3173  1.0308
15281TIP3   OH267333   1.457   0.106   1.277  0.2206  0.2343  0.0571
15281TIP3    H167334   1.452   0.105   1.181  0.3616  1.9534  0.0130
15281TIP3    H267335   1.367   0.091   1.306  0.4221 -1.9715 -0.2860
15282TIP3   OH267336   0.412   0.357  16.370  0.0520 -0.3902 -0.4942
15282TIP3    H167337   0.342   0.292  16.381 -1.8751  1.7072  0.4348
15282TIP3    H267338   0.410   0.378  16.276  0.2602 -1.1635 -0.6823
15283TIP3   OH267339   6.790   2.952  15.895 -0.5969  0.3945 -0.5863
15283TIP3    H167340   6.773   2.887  15.963 -0.5173  0.1601 -0.7871
15283TIP3    H267341   6.710   2.953  15.843  0.5692 -2.0477 -2.6399
15284TIP3   OH267342   3.031   3.181  15.150  0.4536 -0.7557 -0.0241
15284TIP3    H167343   3.122   3.194  15.123  0.4699  1.2623  0.8278
15284TIP3    H267344   3.036   3.113  15.217  1.7584  1.0036  1.8041
15285TIP3   OH267345   6.738   1.384  15.967  0.4220 -0.5264  1.0431
15285TIP3    H167346   6.777   1.471  15.955 -0.7825  0.0328  1.0942
15285TIP3    H267347   6.698   1.363  15.883 -1.0895 -0.1018  1.6210
15286TIP3   OH267348   3.996   2.977   5.601 -0.5410 -0.1214  0.3579
15286TIP3    H167349   4.042   2.946   5.523 -1.0474  0.0852 -0.0265
15286TIP3    H267350   3.974   3.068   5.581 -4.2367 -1.1086 -0.9727
15287TIP3   OH267351   0.629   2.946   5.920  0.0268 -0.3139 -0.0106
15287TIP3    H167352   0.559   2.967   5.982 -0.8404 -0.2022 -0.9940
15287TIP3    H267353   0.699   2.910   5.975 -0.8258 -0.5128  0.9998
15288TIP3   OH267354   0.311   2.862  16.875  0.0364 -0.8336 -0.0530
15288TIP3    H167355   0.375   2.791  16.861 -0.2819 -1.8426  3.0187
15288TIP3    H267356   0.252   2.829  16.942 -2.3347  1.0344 -1.0559
15289TIP3   OH267357   0.072   5.491   4.302 -0.2976 -0.3356  0.2497
15289TIP3    H167358   0.154   5.540   4.314 -0.6470 -0.0958  1.8522
15289TIP3    H267359   0.080   5.416   4.361 -0.7599 -0.9500 -0.4515
15290TIP3   OH267360   1.205   1.668   3.933  0.2763  0.3513 -0.0379
15290TIP3    H167361   1.118   1.660   3.893 -1.3303 -0.5231  3.2238
15290TIP3    H267362   1.217   1.762   3.945 -1.4047  0.4174  1.6126
15291TIP3   OH267363   6.614   5.853  11.795 -0.4788  0.2321 -0.5564
15291TIP3    H167364   6.665   5.846  11.714 -0.0932 -0.7744 -0.2547
15291TIP3    H267365   6.623   5.766  11.836  1.2854  1.3787  1.7271
15292TIP3   OH267366   3.760   5.398  15.107  0.1818  0.1710 -0.5306
15292TIP3    H167367   3.672   5.429  15.127  0.6195  1.2548 -0.2215
15292TIP3    H267368   3.754   5.303  15.112 -1.2604  0.1691 -1.7379
15293TIP3   OH267369   6.716   6.465  12.305 -0.4149  0.0256  0.4515
15293TIP3    H167370   6.687   6.374  12.317 -0.0711  0.1640  2.7906
15293TIP3    H267371   6.648   6.506  12.252 -0.2017 -1.7477 -1.3305
15294TIP3   OH267372   0.728   2.805   5.668 -0.0811 -0.0177 -0.4642
15294TIP3    H167373   0.799   2.770   5.722  1.1051 -0.0681 -1.9845
15294TIP3    H267374   0.698   2.883   5.715  1.1698  0.1576  0.0729
15295TIP3   OH267375   5.145   5.580   5.314 -0.6661 -0.3414 -0.0728
15295TIP3    H167376   5.199   5.639   5.261 -0.1471  0.5715  1.4204
15295TIP3    H267377   5.056   5.597   5.286 -0.3881 -0.0187 -0.7847
15296TIP3   OH267378   2.950   4.457  12.625 -0.2264  0.6666 -0.0890
15296TIP3    H167379   2.871   4.511  12.628 -0.9025 -0.2995  0.2369
15296TIP3    H267380   2.994   4.475  12.708 -1.0209 -0.0819  0.5176
15297TIP3   OH267381   4.792   0.627  11.928 -0.6927  0.6879  0.0759
15297TIP3    H167382   4.816   0.672  11.847 -1.8286  1.3837  0.1152
15297TIP3    H267383   4.812   0.689  11.998 -2.3441  1.1995  0.1237
15298TIP3   OH267384   5.981   5.185  10.993 -0.2844 -0.0022 -0.1608
15298TIP3    H167385   6.005   5.277  11.006  1.5156 -0.7542  2.8512
15298TIP3    H267386   6.061   5.143  10.962 -0.5241 -0.8561  0.3416
15299TIP3   OH267387   3.973   1.518   1.227 -0.1219 -0.4931 -0.1536
15299TIP3    H167388   3.990   1.576   1.153  0.7482 -1.0533 -0.4075
15299TIP3    H267389   3.969   1.431   1.189  0.3216 -0.7847  0.4474
15300TIP3   OH267390   3.185   5.186  14.452 -0.1817  0.0147  0.4460
15300TIP3    H167391   3.189   5.094  14.480  1.3543  0.2842  1.2146
15300TIP3    H267392   3.277   5.212  14.442 -0.5418  1.8556  1.5304
15301TIP3   OH267393   2.339   1.397   3.289 -0.5093  0.0271 -0.0003
15301TIP3    H167394   2.303   1.426   3.372 -1.0019 -2.2020  0.6117
15301TIP3    H267395   2.267   1.407   3.226 -0.8909 -0.5170  0.3470
15302TIP3   OH267396   2.327   4.771   0.028 -0.2562 -0.4230 -0.1641
15302TIP3    H167397   2.370   4.755  -0.055 -3.3595 -1.1792 -1.7948
15302TIP3    H267398   2.268   4.845   0.011 -1.0356 -0.6634  1.3115
15303TIP3   OH267399   5.318   5.643  11.213 -0.2687 -0.1461  0.2095
15303TIP3    H167400   5.291   5.589  11.287  2.6007 -1.1749  0.6518
15303TIP3    H267401   5.269   5.607  11.138 -0.4541 -1.5844  0.9734
15304TIP3   OH267402   0.874   0.424   3.440 -0.1404  0.1406  0.0534
15304TIP3    H167403   0.796   0.368   3.440 -1.7902  2.3013 -0.1887
15304TIP3    H267404   0.859   0.485   3.368  1.6193  0.8429  0.2409
15305TIP3   OH267405   5.593   2.417   3.217  0.3895 -0.8588 -0.0790
15305TIP3    H167406   5.598   2.391   3.309 -0.3082 -2.2265 -0.3967
15305TIP3    H267407   5.683   2.435   3.193  0.6622 -1.0966  0.7187
15306TIP3   OH267408   2.937   5.805   0.802  0.3824 -0.2211 -0.0539
15306TIP3    H167409   2.888   5.831   0.724 -0.5956 -0.9336  0.3025
15306TIP3    H267410   2.892   5.726   0.833  1.4689 -0.6097  0.5658
15307TIP3   OH267411   1.510   1.704   1.421  0.4081 -0.0946  1.1838
15307TIP3    H167412   1.488   1.781   1.369 -0.3650 -0.3504  1.1215
15307TIP3    H267413   1.463   1.632   1.378  1.4718 -0.6802  0.9801
15308TIP3   OH267414   2.327   6.259  17.025  0.2008 -0.6540 -0.5352
15308TIP3    H167415   2.377   6.198  17.078 -0.5908 -1.1024 -0.2872
15308TIP3    H267416   2.324   6.219  16.938  1.2473 -0.0608 -0.8668
15309TIP3   OH267417   3.445   2.100   2.810 -0.2103 -0.1784  0.1047
15309TIP3    H167418   3.425   2.170   2.748  0.3046  0.0134  0.1462
15309TIP3    H267419   3.489   2.033   2.757  0.8298  0.2717  0.3717
15310TIP3   OH267420   1.804   0.336   6.150  0.1402 -0.3475 -0.3357
15310TIP3    H167421   1.722   0.384   6.138 -0.2072 -0.8612 -0.0683
15310TIP3    H267422   1.866   0.379   6.092 -0.1998  0.3360 -0.2019
15311TIP3   OH267423   6.498   2.578  16.401 -0.7258  0.4142  0.1014
15311TIP3    H167424   6.564   2.621  16.456 -0.8300  0.4228  0.2190
15311TIP3    H267425   6.538   2.577  16.314 -0.6198  0.5271  0.1477
15312TIP3   OH267426   4.516   4.351  15.757  0.8507 -0.3145  0.3286
15312TIP3    H167427   4.611   4.338  15.766  1.1097  0.9246 -0.3136
15312TIP3    H267428   4.487   4.379  15.843  1.5535  1.8026 -0.0609
15313TIP3   OH267429   5.950   0.178  13.871 -0.0250 -0.6578 -0.0646
15313TIP3    H167430   5.904   0.144  13.949  0.8669  0.7312  1.1224
15313TIP3    H267431   5.910   0.263  13.855 -1.5465 -1.7041 -2.3934
15314TIP3   OH267432   5.116   1.346   2.319 -0.2846 -0.0349 -0.1626
15314TIP3    H167433   5.183   1.294   2.363 -0.1479  1.0144  0.9146
15314TIP3    H267434   5.165   1.399   2.256 -0.3262 -0.5597 -0.6469
15315TIP3   OH267435   0.820   4.890  13.926  0.1384 -0.0930 -0.1557
15315TIP3    H167436   0.765   4.824  13.884  2.7341 -3.7790  1.6710
15315TIP3    H267437   0.881   4.918  13.857 -0.3570 -0.3592 -0.7088
15316TIP3   OH267438   1.337   2.069   2.296 -0.0322 -0.0076 -0.7155
15316TIP3    H167439   1.284   2.148   2.303 -0.1906 -0.0357 -1.4474
15316TIP3    H267440   1.274   1.999   2.282  0.0942 -0.3028  0.1414
15317TIP3   OH267441   2.424   0.937   6.297  0.4483 -0.3840  0.2637
15317TIP3    H167442   2.361   0.965   6.363  0.4091 -1.5306  0.7375
15317TIP3    H267443   2.507   0.978   6.322  0.2475 -0.1529  0.5450
15318TIP3   OH267444   0.041   0.343   3.003  0.2266 -0.5600 -0.1186
15318TIP3    H167445   0.012   0.425   3.045  0.9880  0.1452 -0.9386
15318TIP3    H267446   0.117   0.315   3.054  0.3531 -0.4096 -0.2237
15319TIP3   OH267447   4.068   2.889   1.703  0.3103  0.5551 -0.1050
15319TIP3    H167448   3.990   2.872   1.650  0.8973  0.3626 -0.9344
15319TIP3    H267449   4.054   2.837   1.783 -1.1571  1.8217  0.5253
15320TIP3   OH267450   1.945   1.947  12.450 -0.0666  0.1644  0.1741
15320TIP3    H167451   1.905   1.960  12.364 -0.5083 -0.6593  0.2442
15320TIP3    H267452   1.882   1.893  12.498  0.6021 -0.1706  0.6890
15321TIP3   OH267453   0.786   5.690  14.991 -0.7355 -0.0496  0.4140
15321TIP3    H167454   0.778   5.724  14.902 -0.8570  0.7799  0.7301
15321TIP3    H267455   0.740   5.607  14.990 -1.3095  0.2715 -0.1319
15322TIP3   OH267456   3.311   3.034   3.795  0.5372 -0.4114  0.2459
15322TIP3    H167457   3.339   3.068   3.711 -1.5481  0.1060 -0.2873
15322TIP3    H267458   3.327   2.939   3.789  2.7303 -0.0998  0.2764
15323TIP3   OH267459   0.956   4.001  13.073  0.1885 -0.2910  0.4225
15323TIP3    H167460   0.892   3.984  13.142 -0.4248  0.3490  0.0206
15323TIP3    H267461   0.989   4.089  13.093  1.5506 -0.9159  1.0901
15324TIP3   OH267462   2.244   6.317  13.584  0.4555  0.1656 -0.0385
15324TIP3    H167463   2.318   6.363  13.624  0.7195 -0.6878  0.4850
15324TIP3    H267464   2.176   6.317  13.652  0.1940  0.4176 -0.2991
15325TIP3   OH267465   3.603   6.439   4.794 -0.4114 -0.0451  0.2053
15325TIP3    H167466   3.620   6.517   4.846  0.2458 -0.4802  0.6559
15325TIP3    H267467   3.637   6.367   4.846 -0.6357 -0.5952 -0.3896
15326TIP3   OH267468   4.322   5.516  13.658 -0.9363  0.1348 -0.6079
15326TIP3    H167469   4.347   5.608  13.651 -0.0427 -0.0479 -0.0601
15326TIP3    H267470   4.231   5.518  13.688 -0.5396  0.8570  0.6169
15327TIP3   OH267471   1.118   6.406   0.906 -0.7086 -0.2165  0.4403
15327TIP3    H167472   1.168   6.386   0.985 -0.9914 -0.4534  0.5627
15327TIP3    H267473   1.032   6.367   0.922 -0.5774 -0.8084 -0.2456
15328TIP3   OH267474   1.070   4.755  13.794  0.1403 -0.5692 -0.4480
15328TIP3    H167475   1.158   4.724  13.773 -0.6366 -2.3707 -1.1636
15328TIP3    H267476   1.024   4.757  13.710 -0.6824 -0.1738 -0.0034
15329TIP3   OH267477   1.993   0.239   0.853  0.2337  0.6465 -0.3710
15329TIP3    H167478   1.917   0.270   0.902 -0.4923 -1.5828  0.0365
15329TIP3    H267479   1.956   0.183   0.784  1.4592  0.1823 -0.6727
15330TIP3   OH267480   1.579   6.699  15.308  0.3070  0.0866 -0.1536
15330TIP3    H167481   1.494   6.671  15.341  0.3768  0.3159  0.2289
15330TIP3    H267482   1.563   6.787  15.273  0.4052  0.1717  0.0118
15331TIP3   OH267483   2.643   3.788  12.027  0.0523 -0.0746 -0.2191
15331TIP3    H167484   2.698   3.788  12.106  0.9866 -2.3648 -0.7978
15331TIP3    H267485   2.678   3.860  11.975  0.2683  0.6490  0.8803
15332TIP3   OH267486   5.770   5.840  12.955  0.7450  0.2620  0.5951
15332TIP3    H167487   5.722   5.886  13.024  2.4868 -0.3741  2.3054
15332TIP3    H267488   5.706   5.831  12.884 -1.7002 -0.5637  2.7450
15333TIP3   OH267489   5.478   3.817   4.326 -0.0514  0.1113  0.1862
15333TIP3    H167490   5.458   3.911   4.318  0.4178  0.1646 -0.4981
15333TIP3    H267491   5.398   3.774   4.297  0.2881  0.3201 -1.1348
15334TIP3   OH267492   3.199   3.841  14.558  0.1987 -0.4309 -0.1679
15334TIP3    H167493   3.232   3.753  14.539  2.4699  0.2489  0.3317
15334TIP3    H267494   3.227   3.858  14.648 -0.5358  0.6701 -0.1298
15335TIP3   OH267495   1.016   2.090  12.108 -0.3887  0.3261  0.1210
15335TIP3    H167496   0.938   2.145  12.113 -0.6234  0.0338 -0.2395
15335TIP3    H267497   1.017   2.042  12.190 -0.3359  0.6630  0.3197
15336TIP3   OH267498   4.052   3.245  13.304 -0.1192  0.0329  0.3193
15336TIP3    H167499   4.044   3.283  13.391 -0.5962  1.2648 -0.2481
15336TIP3    H267500   3.968   3.263  13.261 -0.8897 -2.7922  0.4265
15337TIP3   OH267501   3.984   2.854  10.954  0.0492 -0.1989 -0.4909
15337TIP3    H167502   3.932   2.799  10.896 -0.5203  0.9774 -1.1365
15337TIP3    H267503   4.052   2.892  10.897  0.6745 -0.5162  0.0217
15338TIP3   OH267504   2.463   4.943   4.090 -0.5581  0.2037  0.2286
15338TIP3    H167505   2.386   4.892   4.113 -1.3890  0.6700 -1.3572
15338TIP3    H267506   2.517   4.884   4.038 -0.6764  0.3982 -0.1181
15339TIP3   OH267507   0.066   6.639  17.184 -0.3972  0.1014  0.1244
15339TIP3    H167508   0.084   6.545  17.176  2.5652  0.7653 -3.6804
15339TIP3    H267509   0.112   6.665  17.264  0.8343 -1.3092 -0.0784
15340TIP3   OH267510   6.810   3.470   3.882  0.1278  0.0846 -0.6556
15340TIP3    H167511   6.739   3.497   3.941 -0.3987  1.1001 -1.7039
15340TIP3    H267512   6.848   3.552   3.852  1.3139 -0.4453 -0.6556
15341TIP3   OH267513   6.313   6.651   1.262 -0.3636  0.2863  0.9431
15341TIP3    H167514   6.245   6.584   1.254 -0.4555  0.5249 -0.5782
15341TIP3    H267515   6.266   6.734   1.252  0.1439  0.4495 -0.2003
15342TIP3   OH267516   2.308   2.528   0.226  0.0772  0.3018  0.1900
15342TIP3    H167517   2.260   2.607   0.201  0.0869 -0.5667 -3.0115
15342TIP3    H267518   2.400   2.556   0.229 -0.0073  0.6030 -0.0025
15343TIP3   OH267519   4.569   5.869  14.195 -0.4515 -0.1960 -0.4028
15343TIP3    H167520   4.516   5.881  14.274  0.1444 -1.5671  0.2518
15343TIP3    H267521   4.622   5.948  14.188  0.6084 -0.6729  1.4935
15344TIP3   OH267522   3.409   0.130   1.048  0.1199  0.0116  0.4439
15344TIP3    H167523   3.361   0.138   1.131 -0.5868 -2.3426  0.3413
15344TIP3    H267524   3.394   0.213   1.004  2.2691  2.2290  3.5060
15345TIP3   OH267525   0.146   5.964  15.776  0.3244  0.0863  0.4718
15345TIP3    H167526   0.206   5.906  15.823 -0.2265 -0.7922  0.1173
15345TIP3    H267527   0.118   5.913  15.700  0.2031  1.0051 -0.1191
15346TIP3   OH267528   6.593   5.528  13.781  0.6615 -0.3039 -0.1190
15346TIP3    H167529   6.621   5.618  13.769 -1.3294  0.1524 -2.1931
15346TIP3    H267530   6.542   5.529  13.862 -1.9878  1.2573 -1.6727
15347TIP3   OH267531   4.768   3.313   4.438  0.6813 -0.1150 -0.0045
15347TIP3    H167532   4.802   3.239   4.389 -0.9346 -1.1372  0.3556
15347TIP3    H267533   4.676   3.319   4.412 -0.3692 -0.9251  3.0670
15348TIP3   OH267534   3.136   3.430  16.202 -0.1427 -0.0522 -0.0989
15348TIP3    H167535   3.183   3.406  16.282  0.6319 -1.7026 -1.0071
15348TIP3    H267536   3.195   3.489  16.155 -0.1869  0.1332  0.0749
15349TIP3   OH267537   2.037   1.356  11.126  0.2868  0.1735 -0.0943
15349TIP3    H167538   2.005   1.281  11.077  1.5004  0.3394 -1.1934
15349TIP3    H267539   1.962   1.416  11.130 -0.7439 -1.1305  0.9476
15350TIP3   OH267540   6.794   5.371  15.627  0.2195 -0.7681 -0.0585
15350TIP3    H167541   6.805   5.291  15.575  0.4643  0.6123 -2.2928
15350TIP3    H267542   6.863   5.429  15.595  0.4920  0.1170  2.0117
15351TIP3   OH267543   2.159   0.860   1.407  0.4042  0.5032 -0.3318
15351TIP3    H167544   2.150   0.835   1.499  0.8175  1.7443  0.0654
15351TIP3    H267545   2.125   0.950   1.403  2.0152  1.1239 -1.0198
15352TIP3   OH267546   2.136   1.527   5.724 -0.2506  0.0199  0.2451
15352TIP3    H167547   2.051   1.562   5.697  0.5643  1.6939 -0.3078
15352TIP3    H267548   2.198   1.596   5.702  1.3521 -1.4234  0.0491
15353TIP3   OH267549   4.554   1.867   1.038 -0.0005 -0.4431  0.0772
15353TIP3    H167550   4.610   1.897   0.967  1.5667 -1.3356  0.8748
15353TIP3    H267551   4.512   1.946   1.071 -0.4955  0.0244 -1.5920
15354TIP3   OH267552   3.209   2.959  14.960 -0.1374  0.2056  0.8851
15354TIP3    H167553   3.183   3.034  14.907  1.6604  0.6313  0.5223
15354TIP3    H267554   3.274   2.914  14.907 -0.1006 -0.7680  1.7198
15355TIP3   OH267555   5.852   2.009  13.031  0.0315  0.3342  0.3389
15355TIP3    H167556   5.792   1.945  12.993 -0.1717  1.6896 -1.7658
15355TIP3    H267557   5.800   2.090  13.037  0.8046  0.7848  1.2757
15356TIP3   OH267558   0.041   3.030   3.715  0.3071  0.0473 -0.5282
15356TIP3    H167559   0.016   2.991   3.631  0.2355 -1.2041  0.0509
15356TIP3    H267560   0.083   2.958   3.763 -0.5118  0.4793  0.8820
15357TIP3   OH267561   1.250   1.991   1.606  0.4905 -0.0367  0.0818
15357TIP3    H167562   1.198   2.005   1.685  0.4146  0.7036 -0.0943
15357TIP3    H267563   1.289   1.904   1.618  0.3915  0.0231  0.8820
15358TIP3   OH267564   4.305   0.752   2.130 -0.3698 -0.1898  0.0867
15358TIP3    H167565   4.361   0.708   2.066 -0.0395  2.4850 -1.6292
15358TIP3    H267566   4.356   0.828   2.158 -1.4326 -0.0800  1.8801
15359TIP3   OH267567   6.063   6.455  16.823 -0.4593 -1.0697  0.3198
15359TIP3    H167568   6.002   6.516  16.782 -0.1245 -0.9052  0.0611
15359TIP3    H267569   6.009   6.381  16.849 -0.6747 -1.2127 -0.4912
15360TIP3   OH267570   1.441   4.078   5.773  0.8538  0.4170 -0.1837
15360TIP3    H167571   1.430   4.044   5.862  0.3936  1.4893  0.1794
15360TIP3    H267572   1.362   4.049   5.727  0.8405  0.3112 -0.0949
15361TIP3   OH267573   1.497   5.833  15.717  0.0234  0.2824 -0.5335
15361TIP3    H167574   1.490   5.836  15.621  0.6873 -0.4645 -0.6159
15361TIP3    H267575   1.409   5.811  15.747 -0.4982  1.8133 -0.8908
15362TIP3   OH267576   3.468   4.013  10.881 -0.1504 -0.2557 -1.1165
15362TIP3    H167577   3.383   3.977  10.859  0.9919 -2.0883 -2.8532
15362TIP3    H267578   3.527   3.938  10.884  1.1028  0.6420  2.1910
15363TIP3   OH267579   4.176   6.729  16.798 -0.5275 -0.2167  0.5458
15363TIP3    H167580   4.179   6.732  16.893  0.8932 -1.8014  0.5883
15363TIP3    H267581   4.176   6.636  16.776 -1.9547  0.0871 -1.0076
15364TIP3   OH267582   2.385   4.744   0.610 -0.2567  0.5939  0.1070
15364TIP3    H167583   2.378   4.678   0.679  0.8928  0.3275 -0.0148
15364TIP3    H267584   2.407   4.693   0.531 -0.3282  1.0223 -0.1929
15365TIP3   OH267585   6.350   5.624   1.108  0.0274  0.0361  0.0320
15365TIP3    H167586   6.385   5.586   1.028 -0.8526 -1.4074  0.2948
15365TIP3    H267587   6.255   5.613   1.101 -0.0429 -0.5423  1.4563
15366TIP3   OH267588   3.164   1.369  15.278 -0.1368 -0.0796  0.4270
15366TIP3    H167589   3.241   1.355  15.332  0.3733 -1.1773 -0.5402
15366TIP3    H267590   3.115   1.438  15.323  1.2072  0.3615  1.2614
15367TIP3   OH267591   5.863   0.446   1.091  0.0542 -0.0877 -0.2314
15367TIP3    H167592   5.923   0.518   1.077  0.3016  0.3169  2.4492
15367TIP3    H267593   5.790   0.484   1.140 -0.4374 -1.3904  0.1037
15368TIP3   OH267594   0.424   5.950   1.643  0.0654 -0.1328 -0.2390
15368TIP3    H167595   0.390   5.993   1.721 -1.7056 -1.0931 -0.4276
15368TIP3    H267596   0.346   5.933   1.590  1.0816 -0.7675 -1.5719
15369TIP3   OH267597   1.233   5.105   3.346  0.0356  0.5855 -0.2702
15369TIP3    H167598   1.244   5.013   3.368  1.1255  0.7446 -0.0958
15369TIP3    H267599   1.223   5.150   3.430 -1.5898  0.5236 -0.3918
15370TIP3   OH267600   0.757   2.033  16.322  0.3818  0.5458 -0.1326
15370TIP3    H167601   0.702   2.103  16.359  0.3890  0.6207 -0.2623
15370TIP3    H267602   0.824   2.018  16.389 -0.2198 -0.0536  0.3460
15371TIP3   OH267603   4.139   2.205  13.521  0.5621  0.2456 -0.2331
15371TIP3    H167604   4.192   2.145  13.468  0.2189  0.3609 -0.7130
15371TIP3    H267605   4.110   2.152  13.595  0.8423  0.0155 -0.2859
15372TIP3   OH267606   3.773   3.026  12.412 -0.2567  0.2181 -0.7550
15372TIP3    H167607   3.693   2.992  12.371  0.8452  0.3356 -3.1917
15372TIP3    H267608   3.744   3.102  12.461 -2.0844 -1.5102  1.0587
15373TIP3   OH267609   0.707   3.969  16.167  0.2528 -0.7904 -0.4606
15373TIP3    H167610   0.712   3.886  16.120 -2.7674 -0.5782 -1.3566
15373TIP3    H267611   0.736   4.035  16.104 -0.5082 -0.8407 -0.8617
15374TIP3   OH267612   2.895   5.105   1.537 -0.3290 -0.2931  0.0568
15374TIP3    H167613   2.851   5.044   1.596 -2.5081  0.6253 -0.5186
15374TIP3    H267614   2.824   5.145   1.487  1.2756  0.5093 -1.7001
15375TIP3   OH267615   1.210   5.844  15.033  0.1745 -0.5852 -0.2480
15375TIP3    H167616   1.124   5.864  15.068  0.4846 -0.1219  0.2669
15375TIP3    H267617   1.223   5.751  15.053 -0.5302 -0.8730 -1.0522
15376TIP3   OH267618   3.029   5.457   3.916  0.2992 -0.5886  0.6386
15376TIP3    H167619   3.018   5.427   4.007 -2.4080  1.8500  1.2852
15376TIP3    H267620   2.952   5.512   3.900  3.2687  3.6086 -1.2400
15377TIP3   OH267621   5.652   3.370  11.546  0.3245 -0.5765  0.0274
15377TIP3    H167622   5.710   3.297  11.569 -1.2194 -1.5898  0.8791
15377TIP3    H267623   5.644   3.421  11.626  1.4024  0.5830 -0.5677
15378TIP3   OH267624   3.559   1.068  12.092  0.3807 -0.3824 -0.1802
15378TIP3    H167625   3.620   0.995  12.109  0.5094 -0.3054 -0.3046
15378TIP3    H267626   3.494   1.062  12.162  0.4578 -0.5460 -0.1210
15379TIP3   OH267627   5.835   1.192  11.501  0.5262 -0.2157 -0.1570
15379TIP3    H167628   5.880   1.145  11.431  1.3012  0.4006 -0.0852
15379TIP3    H267629   5.877   1.163  11.581 -0.7389 -1.3496  0.1308
15380TIP3   OH267630   2.439   4.619   2.316 -0.5022  0.0961  0.5582
15380TIP3    H167631   2.358   4.569   2.303  0.0275 -0.7967  0.6279
15380TIP3    H267632   2.436   4.645   2.409 -0.4134 -0.4587  0.7161
15381TIP3   OH267633   0.013   3.218   4.058  0.0941 -0.1186  0.4566
15381TIP3    H167634   0.004   3.123   4.070 -2.6301  0.0875  0.6780
15381TIP3    H267635  -0.015   3.255   4.142  0.5180  0.8956  0.1596
15382TIP3   OH267636   1.891   0.650   0.401 -0.0241 -0.3737  0.0996
15382TIP3    H167637   1.977   0.655   0.359  1.3502  0.8307  2.8061
15382TIP3    H267638   1.830   0.681   0.334  2.0286  1.5440 -1.0140
15383TIP3   OH267639   6.373   4.520   4.287 -0.2283  0.0516  0.0493
15383TIP3    H167640   6.365   4.558   4.374 -2.1170 -1.0016  0.3869
15383TIP3    H267641   6.462   4.483   4.285  0.1345  0.8172  1.2037
15384TIP3   OH267642   6.446   5.387  13.386  1.0748 -0.4605 -0.2233
15384TIP3    H167643   6.354   5.410  13.370  1.4682  1.0160 -0.5475
15384TIP3    H267644   6.449   5.360  13.478  0.1970 -1.2914 -0.4188
15385TIP3   OH267645   1.326   3.588   1.108 -0.0595  0.0611  0.1874
15385TIP3    H167646   1.346   3.574   1.016  1.6954  1.3564  0.3404
15385TIP3    H267647   1.347   3.504   1.150 -0.4638 -0.3989 -0.5110
15386TIP3   OH267648   3.409   4.602   4.542 -0.6095 -0.8520 -0.7322
15386TIP3    H167649   3.379   4.512   4.528  0.2163 -0.8950 -2.4984
15386TIP3    H267650   3.503   4.594   4.560 -0.3477 -0.3032 -1.7744
15387TIP3   OH267651   5.833   1.904   0.231  0.2911  0.0221 -0.6137
15387TIP3    H167652   5.813   1.998   0.236 -1.4826 -0.3406 -0.3397
15387TIP3    H267653   5.759   1.866   0.183  0.2561 -1.4344  0.5290
15388TIP3   OH267654   4.884   0.817  11.189 -0.1232 -0.3634 -0.2825
15388TIP3    H167655   4.854   0.887  11.131 -0.3149 -0.6387 -0.5206
15388TIP3    H267656   4.815   0.751  11.184 -0.4644 -0.1071  0.7725
15389TIP3   OH267657   4.943   0.393   4.484  0.0585 -0.1624  0.5738
15389TIP3    H167658   4.850   0.369   4.482 -0.0921  0.4145 -0.0931
15389TIP3    H267659   4.984   0.328   4.540 -1.2288  1.2616  3.4170
15390TIP3   OH267660   6.735   4.048   3.247  0.0769 -0.5452 -0.0085
15390TIP3    H167661   6.812   4.014   3.202  0.2621 -2.7899  1.8547
15390TIP3    H267662   6.754   4.037   3.340 -1.2723  1.7131  0.6399
15391TIP3   OH267663   6.655   6.592  15.993 -0.0318  0.7542  0.2392
15391TIP3    H167664   6.734   6.621  16.038  0.2566  0.4505 -0.0584
15391TIP3    H267665   6.668   6.620  15.902 -1.2171  2.5952  0.5778
15392TIP3   OH267666   3.026   1.267  11.296  0.3665 -0.5319  0.0195
15392TIP3    H167667   3.073   1.347  11.274 -0.5803 -0.5138 -2.1317
15392TIP3    H267668   3.027   1.215  11.216 -0.8184 -1.7783  0.7686
15393TIP3   OH267669   0.193   5.661  16.825  0.4059 -0.0467 -0.1790
15393TIP3    H167670   0.139   5.587  16.851  0.9325 -0.3016  0.2115
15393TIP3    H267671   0.165   5.733  16.882 -1.3942  0.6067 -1.7830
15394TIP3   OH267672   3.377   2.876  13.310 -0.1837  0.3117 -0.2087
15394TIP3    H167673   3.383   2.830  13.393 -0.2812  1.6866  0.6026
15394TIP3    H267674   3.461   2.921  13.300  0.7916 -1.6959 -2.0786
15395TIP3   OH267675   5.018   4.561  16.650 -0.3223 -0.4317  0.1558
15395TIP3    H167676   5.088   4.561  16.715 -0.5836  0.6118  0.4594
15395TIP3    H267677   5.041   4.632  16.590 -1.5466  0.5193  0.7618
15396TIP3   OH267678   2.040   5.179   4.202  0.0132 -0.0868 -0.6194
15396TIP3    H167679   2.117   5.136   4.167 -1.1197 -0.6463 -2.5451
15396TIP3    H267680   1.989   5.205   4.125 -0.4733  2.6617  0.5052
15397TIP3   OH267681   5.104   3.073  14.044 -0.1206  0.2695  0.1479
15397TIP3    H167682   5.098   3.169  14.042 -0.2121  0.2651  0.2085
15397TIP3    H267683   5.177   3.053  13.985 -1.0866  0.2989 -1.1186
15398TIP3   OH267684   4.934   2.728  17.101 -0.4308 -0.2821  0.1706
15398TIP3    H167685   5.024   2.739  17.071 -0.0098 -0.3587  1.3498
15398TIP3    H267686   4.933   2.768  17.188 -1.4136 -0.6839  0.3514
15399TIP3   OH267687   0.432   0.696   5.203  0.0425  0.2303 -0.0206
15399TIP3    H167688   0.366   0.652   5.256  0.2746 -0.8713 -0.6007
15399TIP3    H267689   0.382   0.739   5.134 -0.0490 -1.8848 -1.3803
15400TIP3   OH267690   6.501   0.602  12.132  0.8351 -0.3122 -0.2946
15400TIP3    H167691   6.492   0.577  12.224  1.2062  0.3379 -0.0766
15400TIP3    H267692   6.413   0.589  12.095  0.2775  0.9083  0.5277
15401TIP3   OH267693   5.180   6.056   0.661 -0.0977  0.1969  0.4710
15401TIP3    H167694   5.247   6.103   0.710  1.1314 -0.8617 -0.1434
15401TIP3    H267695   5.190   6.086   0.571 -0.9075  0.5127  0.4741
15402TIP3   OH267696   1.739   3.984  16.683 -0.2414  0.3156 -0.1479
15402TIP3    H167697   1.735   4.076  16.656  2.7076  0.8207  0.7487
15402TIP3    H267698   1.792   3.985  16.763 -1.0842 -2.0843  0.5419
15403TIP3   OH267699   3.629   0.207  11.914 -0.3106 -0.1172 -0.0213
15403TIP3    H167700   3.569   0.133  11.930 -0.8433  0.2142 -0.4547
15403TIP3    H267701   3.704   0.189  11.971 -2.2155  1.1530  3.1204
15404TIP3   OH267702   0.263   4.724   2.548 -0.2405  0.4656  0.4962
15404TIP3    H167703   0.246   4.779   2.624  1.1542 -1.0874  2.0283
15404TIP3    H267704   0.177   4.700   2.516 -0.8646  2.3931  0.5991
15405TIP3   OH267705   1.822   6.512   1.373  0.3189 -0.1863  0.3912
15405TIP3    H167706   1.903   6.466   1.349  0.4581  1.4720 -2.8612
15405TIP3    H267707   1.846   6.604   1.371 -1.4423  0.2943  0.2891
15406TIP3   OH267708   3.069   4.974  10.762 -0.1369 -0.1642  0.2683
15406TIP3    H167709   3.059   4.879  10.768 -1.0833 -0.1209 -0.4977
15406TIP3    H267710   2.986   5.006  10.726 -0.8683  1.2434  2.9218
15407TIP3   OH267711   6.560   2.431  12.309  0.4410  0.0685  0.2893
15407TIP3    H167712   6.485   2.403  12.257  0.8564 -0.0576 -0.2440
15407TIP3    H267713   6.546   2.391  12.395  0.6491 -1.1926 -0.2466
15408TIP3   OH267714   5.531   3.547   0.101  0.4471 -0.4070 -0.3446
15408TIP3    H167715   5.543   3.493   0.023 -3.5335 -0.7201 -0.9918
15408TIP3    H267716   5.562   3.494   0.173 -3.1745 -3.7985 -0.9548
15409TIP3   OH267717   1.037   5.638   3.122  0.3038 -0.3575  0.1377
15409TIP3    H167718   0.969   5.704   3.135 -0.1134 -0.5657 -0.9050
15409TIP3    H267719   1.115   5.688   3.098 -0.4686 -0.2791 -2.5175
15410TIP3   OH267720   0.763   1.470   4.520 -0.0104  0.4147  0.5166
15410TIP3    H167721   0.750   1.385   4.561 -1.8330  1.3153  1.9602
15410TIP3    H267722   0.857   1.477   4.508  0.2214 -1.5514  0.9118
15411TIP3   OH267723   3.249   5.852  16.454  0.0868 -0.0670  0.3526
15411TIP3    H167724   3.296   5.823  16.375 -1.3024 -2.0461  0.1803
15411TIP3    H267725   3.238   5.773  16.505 -1.0843  0.7732  1.4461
15412TIP3   OH267726   5.191   6.344  13.725 -0.2221 -0.8760  0.1668
15412TIP3    H167727   5.228   6.259  13.748 -1.2643 -1.1099  1.0231
15412TIP3    H267728   5.104   6.344  13.763 -0.3593  0.4572 -0.0948
15413TIP3   OH267729   6.463   1.993  15.461 -0.0886 -0.2364 -0.3564
15413TIP3    H167730   6.422   2.057  15.520  0.9772  1.4770 -1.4022
15413TIP3    H267731   6.492   1.922  15.519  1.4259  1.6390  1.3298
15414TIP3   OH267732   4.963   2.148  13.442 -0.8774 -0.1895  0.9170
15414TIP3    H167733   4.983   2.090  13.515  1.9885  0.2781  0.6328
15414TIP3    H267734   4.911   2.095  13.382  3.3703 -3.4334 -0.3788
15415TIP3   OH267735   3.502   5.555   0.767 -0.0388  0.2245  0.6155
15415TIP3    H167736   3.409   5.579   0.765 -0.2595 -0.6205 -1.2114
15415TIP3    H267737   3.502   5.459   0.771  0.7991  0.2530  2.1421
15416TIP3   OH267738   3.924   2.075  14.182  0.1445  0.1758 -0.1487
15416TIP3    H167739   3.916   1.984  14.211 -1.1046 -0.1258 -1.3416
15416TIP3    H267740   3.842   2.093  14.137  0.3210  1.9586  0.1864
15417TIP3   OH267741   3.061   1.636  16.157 -0.1868 -0.2201 -0.3220
15417TIP3    H167742   3.066   1.547  16.122 -1.0609 -0.8384  1.0444
15417TIP3    H267743   3.127   1.639  16.226  1.0259  0.7668 -1.4669
15418TIP3   OH267744   3.610   2.761   3.563  0.2909  0.2635 -0.5269
15418TIP3    H167745   3.598   2.823   3.490 -0.8263  0.8529  0.1180
15418TIP3    H267746   3.634   2.817   3.637 -0.9415 -0.0215  0.1163
15419TIP3   OH267747   2.184   4.184  14.694 -0.1328 -0.1546  0.5971
15419TIP3    H167748   2.225   4.221  14.773  0.6189 -1.5347  0.8817
15419TIP3    H267749   2.095   4.220  14.695  1.0388  3.2015 -0.2201
15420TIP3   OH267750   4.255   0.935  16.651  0.3135 -0.1480 -0.1671
15420TIP3    H167751   4.234   0.966  16.739 -1.0418 -0.7524 -0.2604
15420TIP3    H267752   4.171   0.927  16.607  1.0351  2.3496 -2.3213
15421TIP3   OH267753   3.519   3.345  13.964  0.3296  0.0005 -0.4219
15421TIP3    H167754   3.598   3.316  13.918 -0.0255 -0.9200 -0.4779
15421TIP3    H267755   3.535   3.323  14.056  0.5217  0.6823 -0.2896
15422TIP3   OH267756   2.786   6.727  11.432 -0.6521  0.2912 -0.2898
15422TIP3    H167757   2.758   6.794  11.370  0.3636  0.4295 -0.6221
15422TIP3    H267758   2.714   6.664  11.433 -1.3328  1.0467 -0.4669
15423TIP3   OH267759   0.183   3.374  12.451  0.8658 -0.3988 -0.1481
15423TIP3    H167760   0.183   3.281  12.427 -1.6276 -0.9397  1.5054
15423TIP3    H267761   0.221   3.376  12.539 -1.2720 -0.2813  0.8370
15424TIP3   OH267762   0.099   4.206   0.739 -0.1658  0.0810 -0.3912
15424TIP3    H167763   0.058   4.205   0.825 -1.1814 -0.5587 -0.8529
15424TIP3    H267764   0.185   4.245   0.753 -0.5677  0.5945  0.7877
15425TIP3   OH267765   3.669   1.517   5.415  0.0536  0.1211  0.0488
15425TIP3    H167766   3.589   1.465   5.427 -0.9082  1.5667  0.0685
15425TIP3    H267767   3.674   1.533   5.321 -0.8242  1.7437  0.2469
15426TIP3   OH267768   2.914   5.654   6.442 -0.3465 -0.5708  0.3938
15426TIP3    H167769   2.828   5.622   6.469 -0.2696 -1.0420  0.0912
15426TIP3    H267770   2.967   5.575   6.430 -0.9501 -0.6231 -3.0684
15427TIP3   OH267771   2.550   4.968   2.106 -0.2002  0.3162  0.3069
15427TIP3    H167772   2.580   5.042   2.159 -0.3628  0.8394 -0.3175
15427TIP3    H267773   2.579   4.891   2.154  2.4480  0.7734 -0.3884
15428TIP3   OH267774   2.533   3.905  16.857  0.1995  0.3787  0.2067
15428TIP3    H167775   2.518   4.000  16.849 -3.6951  0.1135  1.7985
15428TIP3    H267776   2.501   3.869  16.774 -0.2816  0.3660  0.3922
15429TIP3   OH267777   6.265   4.161   1.921 -0.2188 -0.0215 -0.0267
15429TIP3    H167778   6.188   4.159   1.865 -0.0389 -0.2293 -0.2687
15429TIP3    H267779   6.234   4.129   2.005 -0.1168 -1.3444 -0.4768
15430TIP3   OH267780   2.985   4.663  14.384  0.5970  0.0736  0.3066
15430TIP3    H167781   2.949   4.581  14.351  0.9140 -0.0286  0.2207
15430TIP3    H267782   3.015   4.709  14.305  0.5690  0.2020  0.3712
15431TIP3   OH267783   1.538   5.067   0.581  0.2857  0.3304 -0.2412
15431TIP3    H167784   1.502   5.112   0.657 -1.3763 -1.0939 -0.1291
15431TIP3    H267785   1.572   5.138   0.526 -1.5354  1.6842  0.2780
15432TIP3   OH267786   6.766   6.070   6.671 -0.2904 -0.1911 -0.2511
15432TIP3    H167787   6.712   6.103   6.599  1.6673  1.0910 -1.2245
15432TIP3    H267788   6.831   6.139   6.686  0.5339 -1.2622  1.4699
15433TIP3   OH267789   6.315   3.607   1.476  0.2531  0.0106 -0.0028
15433TIP3    H167790   6.245   3.610   1.410 -0.3996 -1.8382  0.5494
15433TIP3    H267791   6.396   3.619   1.425 -0.3488  0.6942 -0.8434
15434TIP3   OH267792   5.759   2.609   5.242  0.5759 -0.4433  0.0616
15434TIP3    H167793   5.846   2.634   5.209  0.6601 -0.2043  0.4630
15434TIP3    H267794   5.771   2.597   5.336  0.0405  0.2116  0.2211
15435TIP3   OH267795   0.259   5.640  17.176  0.3128 -0.0756  0.1549
15435TIP3    H167796   0.318   5.567  17.161  0.0363 -0.4172  0.6771
15435TIP3    H267797   0.309   5.701  17.230  0.5176  0.0843 -0.2172
15436TIP3   OH267798   2.273   3.459   1.947 -0.6240  0.0559  0.3409
15436TIP3    H167799   2.202   3.501   1.900 -0.8809 -0.7440 -0.0000
15436TIP3    H267800   2.254   3.365   1.941  0.4400 -0.1645  0.2711
15437TIP3   OH267801   0.592   6.180   2.186  0.0963  0.4034  0.9078
15437TIP3    H167802   0.587   6.206   2.094 -0.6597 -3.1150 -0.1958
15437TIP3    H267803   0.526   6.234   2.230  0.4857  2.1701 -0.5583
15438TIP3   OH267804   5.945   1.553  13.787 -0.3564  0.0307 -0.3983
15438TIP3    H167805   5.992   1.596  13.858 -0.7499  0.6399 -0.4989
15438TIP3    H267806   5.951   1.459  13.807 -0.1503  0.1771  0.2328
15439TIP3   OH267807   2.970   1.925  10.081  0.3153  0.1668 -0.2925
15439TIP3    H167808   2.933   1.856  10.026  1.1967  0.3616 -1.1727
15439TIP3    H267809   3.049   1.886  10.119 -1.2677 -0.6311  2.4677
15440TIP3   OH267810   1.949   5.397  12.873  0.3434  0.5658  0.4113
15440TIP3    H167811   1.879   5.333  12.887  1.9446 -1.4300 -0.1573
15440TIP3    H267812   2.027   5.355  12.909  1.8216  1.3807 -1.6327
15441TIP3   OH267813   0.046   3.380  12.944 -0.1136 -0.4617  0.0398
15441TIP3    H167814   0.070   3.406  13.033  3.4833  1.1199 -1.2165
15441TIP3    H267815  -0.013   3.450  12.914  0.8669  0.4967  0.2906
15442TIP3   OH267816   0.304   6.064   4.126  0.1337  0.7799  0.4381
15442TIP3    H167817   0.279   5.977   4.094  2.2611  0.4781 -0.5540
15442TIP3    H267818   0.341   6.108   4.050  1.8722  1.4269  1.6071
15443TIP3   OH267819   0.525   6.056   0.274  0.1592  0.2460  0.4183
15443TIP3    H167820   0.513   6.021   0.362 -1.8533  0.4374  0.2604
15443TIP3    H267821   0.497   6.148   0.280 -2.2995 -0.3429 -0.8809
15444TIP3   OH267822   4.899   2.964   5.294  0.2402 -1.0317  1.1656
15444TIP3    H167823   4.840   2.912   5.239 -0.1212  0.2971  0.2561
15444TIP3    H267824   4.850   2.975   5.376 -0.4846 -0.5281  0.6709
15445TIP3   OH267825   0.546   5.719   2.004 -0.1394 -0.4939  0.4441
15445TIP3    H167826   0.543   5.813   1.987 -1.0537 -0.7457 -0.9994
15445TIP3    H267827   0.469   5.701   2.058 -0.4378 -0.5249  0.0145
15446TIP3   OH267828   4.556   2.836  12.169 -0.4808 -0.0022 -0.0896
15446TIP3    H167829   4.482   2.780  12.146 -0.3182 -1.4967  2.6046
15446TIP3    H267830   4.630   2.797  12.124 -0.6975 -0.8674  0.2866
15447TIP3   OH267831   4.418   0.503   1.590 -0.0079  0.1468 -0.1538
15447TIP3    H167832   4.373   0.418   1.590  0.7916 -0.3156 -1.5815
15447TIP3    H267833   4.486   0.494   1.523  0.0363  1.9437 -0.3965
15448TIP3   OH267834   2.631   2.563   4.152  0.1895  0.0246  0.5716
15448TIP3    H167835   2.640   2.640   4.096 -0.0442  0.0439  0.5582
15448TIP3    H267836   2.598   2.495   4.094 -0.8670  0.2696  0.8503
15449TIP3   OH267837   4.879   6.278  13.777  0.5735  0.2398  0.2648
15449TIP3    H167838   4.891   6.220  13.852  1.9227  2.6086  1.9832
15449TIP3    H267839   4.806   6.334  13.801  1.8422  1.8873  0.4446
15450TIP3   OH267840   0.919   5.028  14.444 -0.8280  0.4867  0.2774
15450TIP3    H167841   0.956   4.949  14.405  1.8073 -0.0603  3.4666
15450TIP3    H267842   0.992   5.090  14.448 -2.9557  3.5323 -2.7208
15451TIP3   OH267843   3.489   3.862  14.467 -0.0044 -0.3303 -0.3271
15451TIP3    H167844   3.397   3.858  14.495  0.0014 -1.1587 -0.4257
15451TIP3    H267845   3.497   3.795  14.400  0.8628 -0.7754  0.2133
15452TIP3   OH267846   5.466   3.376   3.078 -0.0258  0.1659  0.0217
15452TIP3    H167847   5.551   3.390   3.121  0.3661 -1.4525 -0.1661
15452TIP3    H267848   5.404   3.427   3.131  0.5575 -1.1525  2.0924
15453TIP3   OH267849   0.156   0.018   1.734  0.0024  0.2880  0.2648
15453TIP3    H167850   0.086   0.069   1.694  0.4454 -0.2506 -1.2994
15453TIP3    H267851   0.176  -0.049   1.669  1.8956  0.3570  0.7240
15454TIP3   OH267852   1.738   4.684   0.856 -0.4196 -0.5860 -0.1943
15454TIP3    H167853   1.827   4.714   0.838  0.0381 -1.4343  0.5845
15454TIP3    H267854   1.725   4.610   0.796  0.5993 -2.5175  1.8451
15455TIP3   OH267855   1.280   3.169  17.137 -0.3488  0.2406  0.5383
15455TIP3    H167856   1.301   3.075  17.138  0.5813  0.4450  1.6146
15455TIP3    H267857   1.279   3.194  17.230 -2.1369  0.9790  0.3671
15456TIP3   OH267858   5.557   2.969   4.076  0.1037  0.3346  0.1673
15456TIP3    H167859   5.545   2.880   4.042  0.8010  0.0133  0.7323
15456TIP3    H267860   5.499   3.023   4.023  0.4573 -0.2963 -0.8915
15457TIP3   OH267861   1.992   2.226  12.432 -0.0357  0.5876  0.0753
15457TIP3    H167862   1.932   2.152  12.441  1.4466 -0.7208 -0.3928
15457TIP3    H267863   1.944   2.300  12.469 -1.5087 -0.6265  0.7067
15458TIP3   OH267864   1.840   0.589  12.894  0.0324 -0.3004  0.1805
15458TIP3    H167865   1.931   0.618  12.882  0.7004 -2.4181 -0.2152
15458TIP3    H267866   1.788   0.660  12.857  1.5816  0.1299 -1.3316
15459TIP3   OH267867   5.319   2.964   0.168  0.5293  0.0627  0.1559
15459TIP3    H167868   5.288   2.881   0.206 -2.8585  1.5230  0.9883
15459TIP3    H267869   5.336   3.020   0.244  0.5568  0.8220 -0.4040
15460TIP3   OH267870   3.370   2.442  10.868 -0.7052 -0.4056 -0.1051
15460TIP3    H167871   3.386   2.374  10.802  2.2965  0.7986 -0.7692
15460TIP3    H267872   3.410   2.408  10.948 -2.4562 -0.9332  0.5940
15461TIP3   OH267873   1.704   3.854   6.021  0.4100 -0.5341  0.3904
15461TIP3    H167874   1.631   3.792   6.020  0.0648 -0.1949  1.8627
15461TIP3    H267875   1.752   3.836   5.941 -0.2204 -2.0532  0.3222
15462TIP3   OH267876   3.469   6.466  12.159  0.8871  0.2006 -0.2156
15462TIP3    H167877   3.461   6.504  12.247 -0.8933 -1.3442  0.3428
15462TIP3    H267878   3.493   6.375  12.175  0.8852 -0.0091 -1.3520
15463TIP3   OH267879   6.408   0.606   3.109 -0.0772 -0.0600 -0.1040
15463TIP3    H167880   6.375   0.580   3.195  0.6114  0.8415  0.4508
15463TIP3    H267881   6.503   0.611   3.120  0.1385 -1.1058 -1.2565
15464TIP3   OH267882   4.512   2.313   0.245 -0.2855  0.0720 -0.5787
15464TIP3    H167883   4.492   2.281   0.157 -0.0555 -0.4555 -0.4416
15464TIP3    H267884   4.437   2.285   0.299 -1.0438  1.4848 -0.8455
15465TIP3   OH267885   6.772   3.613   3.629  0.6394 -0.2415 -0.5268
15465TIP3    H167886   6.727   3.630   3.546  0.3829  1.8278 -0.0320
15465TIP3    H267887   6.865   3.619   3.608  0.5958  2.6660 -0.3479
15466TIP3   OH267888   2.576   4.256  12.368  0.3153  0.2818  0.1432
15466TIP3    H167889   2.549   4.183  12.312  1.0283 -0.5992  0.9006
15466TIP3    H267890   2.665   4.277  12.340  1.1944 -1.0512  1.7515
15467TIP3   OH267891   2.333   6.227   3.564  0.0613 -0.0549 -0.3524
15467TIP3    H167892   2.343   6.319   3.590  0.2389 -0.0619 -0.3982
15467TIP3    H267893   2.403   6.181   3.610  0.2653 -0.0955 -0.7033
15468TIP3   OH267894   0.918   6.179   6.533  0.8159 -0.0548  0.3838
15468TIP3    H167895   0.856   6.151   6.600  0.6732 -2.8221 -0.7406
15468TIP3    H267896   0.882   6.260   6.499 -1.9616 -1.2645  0.1408
15469TIP3   OH267897   1.161   5.445  15.433  0.0674 -0.7273 -0.2767
15469TIP3    H167898   1.130   5.531  15.460  1.9356  0.4753 -1.7595
15469TIP3    H267899   1.096   5.415  15.370  1.2279  1.2990 -2.5761
15470TIP3   OH267900   1.068   0.008  16.894  0.0325  0.3629 -0.0449
15470TIP3    H167901   1.026   0.082  16.850  1.3526 -0.0100 -2.0837
15470TIP3    H267902   1.003  -0.062  16.892 -0.8579  1.1180  0.9915
15471TIP3   OH267903   3.374   5.269   6.318 -0.1168 -0.2374 -0.4658
15471TIP3    H167904   3.384   5.281   6.412  1.7028 -0.6537 -0.5671
15471TIP3    H267905   3.364   5.357   6.282  1.2750  0.1045 -0.0652
15472TIP3   OH267906   4.824   1.580   2.032 -0.5550  0.3766 -0.3090
15472TIP3    H167907   4.875   1.543   1.961 -0.6470  0.5645 -0.4738
15472TIP3    H267908   4.740   1.535   2.027 -0.2779 -0.2231  0.2119
15473TIP3   OH267909   4.769   2.134  13.873 -0.3015  0.3553 -0.4900
15473TIP3    H167910   4.761   2.219  13.915  2.6713  0.1931  0.6528
15473TIP3    H267911   4.860   2.109  13.887 -1.1457 -3.2223 -0.4355
15474TIP3   OH267912   1.459   3.558   0.861 -0.3532  0.3017  0.0352
15474TIP3    H167913   1.373   3.566   0.820 -0.2411  0.4954 -0.1613
15474TIP3    H267914   1.515   3.523   0.792  0.2270  2.1837 -0.4967
15475TIP3   OH267915   3.097   4.839  16.928 -0.0395 -0.0875 -0.1759
15475TIP3    H167916   3.009   4.829  16.892 -0.4326 -1.3535  1.0483
15475TIP3    H267917   3.129   4.750  16.939  1.5512  0.3483 -0.8835
15476TIP3   OH267918   1.057   4.974  17.184  0.1161  0.3140 -0.4040
15476TIP3    H167919   0.970   4.972  17.223  0.6959 -1.0715  0.8779
15476TIP3    H267920   1.044   5.021  17.101 -1.5902  1.2305  0.3221
15477TIP3   OH267921   3.825   5.757  11.828 -0.0292 -0.4418 -0.0371
15477TIP3    H167922   3.892   5.816  11.862 -0.0207 -1.5030  1.9242
15477TIP3    H267923   3.822   5.776  11.734  1.1430  1.4671  0.2528
15478TIP3   OH267924   6.679   3.539  10.373 -0.4306  0.3533 -0.5378
15478TIP3    H167925   6.648   3.451  10.349  0.6428 -0.5701  1.2298
15478TIP3    H267926   6.628   3.562  10.451 -0.3814  1.1048 -0.7251
15479TIP3   OH267927   3.792   1.854  15.018  0.2937 -0.0608  0.5466
15479TIP3    H167928   3.701   1.874  14.996  0.8004  0.8955 -0.8310
15479TIP3    H267929   3.822   1.930  15.068  0.3045 -0.4598  1.1665
15480TIP3   OH267930   0.349   2.681  15.171 -0.6662 -0.2465  0.4971
15480TIP3    H167931   0.385   2.660  15.085 -0.6962 -1.9054  0.8584
15480TIP3    H267932   0.353   2.777  15.176 -0.8162 -0.0987 -1.4016
15481TIP3   OH267933   4.926   3.441  11.490 -0.2395  0.3552 -0.4412
15481TIP3    H167934   4.999   3.478  11.441 -0.2521 -0.3999 -1.0409
15481TIP3    H267935   4.881   3.385  11.428  1.1442 -2.5605  0.9874
15482TIP3   OH267936   6.626   3.540   4.059 -0.0288 -0.4342 -0.5204
15482TIP3    H167937   6.564   3.480   4.101 -0.4750 -0.9597 -1.8498
15482TIP3    H267938   6.585   3.626   4.067  0.3987 -0.3505  1.0071
15483TIP3   OH267939   2.829   0.010  15.766 -0.3501  0.2423  0.3551
15483TIP3    H167940   2.804   0.091  15.721  0.6813  0.7672  0.6792
15483TIP3    H267941   2.914   0.031  15.806  0.3733 -1.2723 -0.3046
15484TIP3   OH267942   5.223   0.672   2.218 -0.0638 -0.8170  0.5401
15484TIP3    H167943   5.269   0.747   2.255 -0.5461 -0.0528 -0.3660
15484TIP3    H267944   5.230   0.685   2.123 -1.0466 -1.3645  0.3814
15485TIP3   OH267945   0.525   4.736   5.248 -0.5847  0.7957 -0.0385
15485TIP3    H167946   0.580   4.737   5.327  2.2235 -1.7953 -1.7405
15485TIP3    H267947   0.546   4.818   5.203  1.2666  0.3162 -0.1574
15486TIP3   OH267948   0.771   4.238   3.831  0.2638  0.6588 -0.0641
15486TIP3    H167949   0.721   4.298   3.887  0.4454  1.2679 -0.5518
15486TIP3    H267950   0.717   4.226   3.754 -0.2537 -0.6449  0.4730
15487TIP3   OH267951   1.733   6.057   1.272 -0.2807  0.7225 -0.0177
15487TIP3    H167952   1.828   6.042   1.277 -0.2805  0.5374 -0.5314
15487TIP3    H267953   1.719   6.136   1.325  0.1494  0.7150  0.1154
15488TIP3   OH267954   6.778   0.491   5.857  0.0335 -0.1108 -0.1302
15488TIP3    H167955   6.803   0.477   5.948  2.3417 -0.4085 -0.7356
15488TIP3    H267956   6.686   0.517   5.860  0.0299 -0.2422  2.2522
15489TIP3   OH267957   0.012   0.395   5.450  0.6025  0.3443  0.4154
15489TIP3    H167958  -0.083   0.401   5.445  0.6996  1.8931 -0.2462
15489TIP3    H267959   0.029   0.321   5.508 -1.0396  1.6049  2.6529
15490TIP3   OH267960   6.164   0.409  14.350 -0.8277  0.1697 -0.3091
15490TIP3    H167961   6.149   0.443  14.438  0.3313  2.4240 -0.9106
15490TIP3    H267962   6.081   0.422  14.305 -0.8991  0.6264 -0.0464
15491TIP3   OH267963   3.989   1.016   2.390  0.1337 -0.0405 -0.0595
15491TIP3    H167964   4.017   1.089   2.445  1.7388 -0.7544  0.1272
15491TIP3    H267965   4.037   1.029   2.308 -0.4079 -0.2951 -0.4183
15492TIP3   OH267966   5.848   3.963  13.200 -0.1692  0.2970  0.4663
15492TIP3    H167967   5.928   4.015  13.192 -1.0732  1.4883 -1.9102
15492TIP3    H267968   5.876   3.873  13.187  0.6275  0.8572 -2.3930
15493TIP3   OH267969   0.527   1.174  15.152  0.2538 -0.1177  0.4875
15493TIP3    H167970   0.461   1.230  15.193 -1.0047 -1.8913  1.0659
15493TIP3    H267971   0.491   1.155  15.065  0.7751  0.1451  0.2126
15494TIP3   OH267972   5.518   1.690  15.008  0.3867  0.1784  0.8570
15494TIP3    H167973   5.562   1.764  14.966  0.1066  0.4028  0.9582
15494TIP3    H267974   5.496   1.631  14.935  0.5185  0.2399  0.7655
15495TIP3   OH267975   1.644   4.242   0.823 -0.1766 -0.2109 -0.2763
15495TIP3    H167976   1.704   4.170   0.802 -1.4731 -2.0429  1.8295
15495TIP3    H267977   1.651   4.252   0.918 -3.1164 -0.4996  0.0516
15496TIP3   OH267978   5.775   6.748  13.921 -0.4702  0.3292  0.1916
15496TIP3    H167979   5.827   6.703  13.988  0.5629  0.8985 -0.2177
15496TIP3    H267980   5.731   6.819  13.968  1.5400  1.7729  0.0327
15497TIP3   OH267981   2.295   5.982  14.916 -0.1365 -0.2248 -0.0983
15497TIP3    H167982   2.243   6.063  14.917  0.3322  0.0757  0.8276
15497TIP3    H267983   2.285   5.947  15.005  0.2784 -0.7898 -0.2749
15498TIP3   OH267984   0.233   0.197  13.446 -0.2736  0.4867  0.4541
15498TIP3    H167985   0.309   0.242  13.482 -0.2498 -0.3149  1.4767
15498TIP3    H267986   0.262   0.106  13.435 -0.8259  0.3476  0.0879
15499TIP3   OH267987   4.645   3.673   2.424 -0.0087 -0.0076  0.0497
15499TIP3    H167988   4.659   3.741   2.491 -2.7467  0.1019  0.6616
15499TIP3    H267989   4.706   3.604   2.446 -0.9389 -0.0521  2.8616
15500TIP3   OH267990   5.780   2.658  15.309  0.7330 -0.0700  0.0018
15500TIP3    H167991   5.764   2.734  15.253  0.2850  1.2640  1.8583
15500TIP3    H267992   5.704   2.654  15.367  0.5143 -2.2384 -0.3310
15501TIP3   OH267993   3.117   2.760   2.602 -0.0901  0.1825  0.0724
15501TIP3    H167994   3.082   2.809   2.528  0.7933 -0.6265 -0.9175
15501TIP3    H267995   3.174   2.823   2.647 -2.3077  1.3545  1.4126
15502TIP3   OH267996   4.151   6.613  12.932  0.0539  0.2575 -0.2260
15502TIP3    H167997   4.110   6.582  12.852 -0.7763  0.0482  0.2679
15502TIP3    H267998   4.228   6.662  12.903 -1.0805  1.5226 -1.2334
15503TIP3   OH267999   6.187   3.146  11.069 -0.1551  0.1600  0.1710
15503TIP3    H168000   6.268   3.094  11.064  0.5483  1.2153  0.2664
15503TIP3    H268001   6.206   3.224  11.017 -1.9951 -0.6618 -1.8969
15504TIP3   OH268002   0.762   2.835  10.727  0.0690 -0.0040 -0.0240
15504TIP3    H168003   0.716   2.906  10.770  0.7601  1.0568 -0.9882
15504TIP3    H268004   0.694   2.791  10.674 -0.2256  0.3459  0.0660
15505TIP3   OH268005   4.205   5.448   1.263  0.0187 -0.0986 -0.5093
15505TIP3    H168006   4.178   5.376   1.207 -1.8060 -1.3401  1.8182
15505TIP3    H268007   4.256   5.407   1.332 -1.8434  0.5944  1.3822
15506TIP3   OH268008   3.927   4.275  16.434  0.1898 -0.1374  0.4260
15506TIP3    H168009   3.837   4.300  16.456  0.4151 -0.1346  1.4076
15506TIP3    H268010   3.945   4.319  16.351 -0.6399  0.0331  0.3318
15507TIP3   OH268011   3.389   4.054  15.086  0.1194 -0.0250 -0.1432
15507TIP3    H168012   3.297   4.031  15.080 -0.0884  0.9025 -0.7418
15507TIP3    H268013   3.436   3.976  15.055 -0.3131 -1.4953  2.5870
15508TIP3   OH268014   0.002   2.507  14.095 -0.1623 -0.2534 -0.1748
15508TIP3    H168015   0.085   2.463  14.072 -0.5790 -0.4989 -1.3037
15508TIP3    H268016   0.020   2.600  14.080  0.6106 -0.0404  1.8673
15509TIP3   OH268017   5.814   6.203   1.746  0.1283 -0.1133 -0.2975
15509TIP3    H168018   5.764   6.224   1.667  1.2541  1.7552 -0.5641
15509TIP3    H268019   5.777   6.260   1.814  0.1636 -0.6256  0.1588
15510TIP3   OH268020   6.435   0.728   5.032 -0.0148  0.0103 -0.1183
15510TIP3    H168021   6.371   0.722   4.961 -1.1356  0.3381  0.8372
15510TIP3    H268022   6.384   0.757   5.108  0.9510 -1.2842  1.0852
15511TIP3   OH268023   1.169   5.655  13.173 -0.1353 -0.3432 -0.1482
15511TIP3    H168024   1.192   5.731  13.227 -0.3145 -1.6479  1.8614
15511TIP3    H268025   1.251   5.630  13.131  0.9317 -1.4432  2.3919
15512TIP3   OH268026   3.651   5.408  15.863  0.5318 -0.6382  0.3744
15512TIP3    H168027   3.625   5.464  15.936 -0.2477 -0.3631 -0.1004
15512TIP3    H268028   3.703   5.338  15.903  2.4693  0.9844  0.8840
15513TIP3   OH268029   4.292   2.611  14.249 -0.1569  0.4257 -0.3924
15513TIP3    H168030   4.342   2.693  14.246 -0.2479  0.7153  2.7352
15513TIP3    H268031   4.243   2.609  14.167  1.1378  2.6362 -1.2974
15514TIP3   OH268032   3.771   0.164  13.906  0.5040 -0.5625 -0.0301
15514TIP3    H168033   3.807   0.227  13.968 -1.2737 -0.0532  0.5542
15514TIP3    H268034   3.834   0.163  13.833  0.7999  1.5977  0.1189
15515TIP3   OH268035   1.700   0.289  11.034 -0.4431 -0.3711  0.5526
15515TIP3    H168036   1.687   0.254  10.946 -0.1348 -4.6262  1.9834
15515TIP3    H268037   1.794   0.279  11.050 -0.3697  1.0224  1.1903
15516TIP3   OH268038   5.555   3.511   3.695  0.8508 -0.2384 -0.2031
15516TIP3    H168039   5.640   3.518   3.653  0.1197  1.0480 -1.5950
15516TIP3    H268040   5.565   3.440   3.759  2.4718 -1.2448 -1.4830
15517TIP3   OH268041   5.453   5.261   5.486 -0.1833 -0.0563  0.1322
15517TIP3    H168042   5.480   5.262   5.395  1.6925 -1.5287  0.6055
15517TIP3    H268043   5.361   5.235   5.484 -0.9522  2.4986 -1.4223
15518TIP3   OH268044   4.250   4.346   4.203  0.0299 -0.1157 -0.4140
15518TIP3    H168045   4.230   4.277   4.139  0.7253  0.2738 -1.0702
15518TIP3    H268046   4.296   4.300   4.274 -0.6465 -0.5318 -0.2376
15519TIP3   OH268047   2.253   5.565   4.099 -0.0945  0.0459  0.0894
15519TIP3    H168048   2.325   5.594   4.154 -0.9054  0.5736  0.8991
15519TIP3    H268049   2.290   5.496   4.045  2.1604  3.0090 -2.5142
15520TIP3   OH268050   0.343   5.925   6.317 -0.2228  0.2755  0.3015
15520TIP3    H168051   0.290   5.930   6.237  0.3633  1.7958 -0.0201
15520TIP3    H268052   0.361   6.016   6.339  0.8435 -0.1781  1.3586
15521TIP3   OH268053   4.830   0.224  13.292 -0.0603 -0.5574 -0.3281
15521TIP3    H168054   4.919   0.201  13.267 -0.3982 -1.5320 -0.6854
15521TIP3    H268055   4.840   0.276  13.372  0.7992 -1.2828  0.0489
15522TIP3   OH268056   0.054   3.588   5.219  0.4389 -0.3727  0.0330
15522TIP3    H168057   0.043   3.509   5.167  2.1282 -0.8327  0.3274
15522TIP3    H268058   0.106   3.647   5.163 -1.4877  0.9012 -0.5186
15523TIP3   OH268059   5.377   3.636   0.791 -0.2979  0.6550 -0.4575
15523TIP3    H168060   5.413   3.587   0.718  0.1146  0.9382 -0.4491
15523TIP3    H268061   5.446   3.698   0.815 -0.1053  0.0248  0.6948
15524TIP3   OH268062   0.408   6.137   3.842 -0.3857 -0.6218  0.2491
15524TIP3    H168063   0.418   6.227   3.811 -1.6696 -1.2174 -2.1112
15524TIP3    H268064   0.483   6.090   3.804 -1.4701 -1.1686 -1.3103
15525TIP3   OH268065   1.535   6.335   0.452 -0.1094  0.3945 -0.0202
15525TIP3    H168066   1.488   6.261   0.412 -1.0270  1.7929 -1.6854
15525TIP3    H268067   1.627   6.311   0.444 -0.3152  0.0101 -1.9026
15526TIP3   OH268068   5.697   2.720   4.500 -0.0837 -0.2327  0.0707
15526TIP3    H168069   5.719   2.802   4.454  0.4127 -0.6108 -0.3849
15526TIP3    H268070   5.614   2.693   4.462 -1.4610  1.2518  1.8590
15527TIP3   OH268071   1.244   2.833  15.932 -0.5444 -0.6182 -0.2521
15527TIP3    H168072   1.150   2.846  15.937 -0.4750 -0.2187  0.1080
15527TIP3    H268073   1.260   2.804  15.843 -0.8946  0.3061 -0.6270
15528TIP3   OH268074   1.544   3.336   4.112 -0.0719 -0.5023 -0.0984
15528TIP3    H168075   1.502   3.327   4.198  0.2842  1.6509  0.3607
15528TIP3    H268076   1.581   3.249   4.094 -0.7247 -1.1796  1.6101
15529TIP3   OH268077   4.182   4.747  13.851 -0.1225  0.8347 -0.1873
15529TIP3    H168078   4.228   4.721  13.771  0.3317  0.9862  0.0263
15529TIP3    H268079   4.228   4.824  13.882  0.4550  0.0806  0.8826
15530TIP3   OH268080   4.293   0.219   0.983 -0.2867 -0.2924 -0.3948
15530TIP3    H168081   4.257   0.243   0.898 -1.3702 -1.0435 -0.1578
15530TIP3    H268082   4.366   0.160   0.962 -0.8724 -0.8897 -0.7967
15531TIP3   OH268083   2.034   4.409   3.586 -0.7576 -0.1403  0.4488
15531TIP3    H168084   1.940   4.413   3.569 -0.6902  1.7675  0.3262
15531TIP3    H268085   2.048   4.470   3.659  0.4995  0.3092 -0.1332
15532TIP3   OH268086   1.617   2.370  15.686 -0.4038  0.3853  0.5559
15532TIP3    H168087   1.571   2.322  15.756 -1.3298  0.1423 -0.1985
15532TIP3    H268088   1.693   2.315  15.667 -0.5188  0.0968  0.8931
15533TIP3   OH268089   0.851   3.826   3.740  0.8062 -0.6250  0.4004
15533TIP3    H168090   0.903   3.773   3.800 -0.1969 -0.0654  1.8234
15533TIP3    H268091   0.774   3.773   3.722  1.3542 -1.0332 -0.9089
15534TIP3   OH268092   2.760   0.550  11.126  0.3668 -0.3548  0.2633
15534TIP3    H168093   2.760   0.579  11.034  1.7557  0.0090  0.3537
15534TIP3    H268094   2.670   0.566  11.156 -0.2066 -0.7941 -1.1201
15535TIP3   OH268095   2.233   0.136  12.824  0.1265 -0.5667  0.1631
15535TIP3    H168096   2.325   0.132  12.799 -0.0838  0.6841 -0.9274
15535TIP3    H268097   2.187   0.158  12.743 -0.9405  0.4106  1.0003
15536TIP3   OH268098   1.069   1.054  14.241 -0.1913  0.2993  0.4252
15536TIP3    H168099   1.032   1.073  14.327  0.4258 -1.3262  1.1099
15536TIP3    H268100   1.139   1.119  14.230  0.3614 -0.0525  1.6169
15537TIP3   OH268101   5.640   0.948   4.502 -0.0003  0.2712  0.2994
15537TIP3    H168102   5.689   1.020   4.543 -0.1963  1.1073 -0.9017
15537TIP3    H268103   5.548   0.970   4.517 -0.1636  1.5849 -2.0946
15538TIP3   OH268104   3.592   1.104  16.342  1.1790  0.1145  0.8607
15538TIP3    H168105   3.626   1.042  16.407 -0.3313  0.8693  2.4696
15538TIP3    H268106   3.652   1.178  16.345  1.1204  0.1480  1.4351
15539TIP3   OH268107   1.713   1.326  16.190 -0.1244  0.8897  0.5272
15539TIP3    H168108   1.688   1.415  16.168  0.1002  0.3424 -2.4461
15539TIP3    H268109   1.779   1.303  16.124 -0.2325 -1.4729  1.1532
15540TIP3   OH268110   6.465   3.910  14.251 -0.4007 -0.1113 -0.3453
15540TIP3    H168111   6.514   3.989  14.233 -1.4584  0.6946  0.1955
15540TIP3    H268112   6.497   3.846  14.187  1.2657  0.3927 -0.0437
15541TIP3   OH268113   1.712   4.306   4.743 -0.1220 -0.0712 -0.1125
15541TIP3    H168114   1.767   4.374   4.782 -0.4991  0.5876 -0.6917
15541TIP3    H268115   1.696   4.337   4.654 -2.4191  0.3887  0.3934
15542TIP3   OH268116   4.680   1.687  14.298  0.9274 -0.3568 -0.5136
15542TIP3    H168117   4.709   1.778  14.291  1.6770 -0.6365 -1.2354
15542TIP3    H268118   4.592   1.687  14.258  0.7907  0.1052 -0.2192
15543TIP3   OH268119   1.526   4.562  12.397 -0.3484 -0.4579  0.1405
15543TIP3    H168120   1.495   4.501  12.331 -0.0240  0.3733 -0.7949
15543TIP3    H268121   1.560   4.636  12.348  1.0910 -0.3702  1.1761
15544TIP3   OH268122   1.379   2.504  12.597 -0.0016  0.5146 -0.2559
15544TIP3    H168123   1.420   2.498  12.683 -1.1463 -0.5188  0.2494
15544TIP3    H268124   1.326   2.584  12.601  1.7175  1.7514 -0.8472
15545TIP3   OH268125   2.776   1.380   4.282  0.1579 -0.2679 -0.1228
15545TIP3    H168126   2.770   1.472   4.255 -1.2189 -0.2812  0.0697
15545TIP3    H268127   2.702   1.368   4.341 -0.6796 -1.9133 -1.4322
15546TIP3   OH268128   2.347   3.758   4.465 -0.0844  0.1660  0.4869
15546TIP3    H168129   2.386   3.777   4.551 -0.1996 -0.8361  0.7650
15546TIP3    H268130   2.321   3.666   4.470 -2.2155  0.6954  0.2159
15547TIP3   OH268131   4.829   0.471  11.650  0.2033  0.0702 -0.0328
15547TIP3    H168132   4.816   0.494  11.742  0.3916 -0.4956  0.1403
15547TIP3    H268133   4.869   0.384  11.652 -1.0772 -0.5733 -0.6643
15548TIP3   OH268134   4.469   6.591   2.908 -0.0519  0.1504 -0.1608
15548TIP3    H168135   4.488   6.659   2.973  1.2064 -0.8274  0.5709
15548TIP3    H268136   4.407   6.533   2.952  0.8078 -0.5175  0.2215
15549TIP3   OH268137   6.731   4.578   0.276  0.1461  0.3825 -0.1205
15549TIP3    H168138   6.701   4.487   0.276  1.3667 -0.1041  2.0897
15549TIP3    H268139   6.810   4.577   0.330  0.6856  2.6312 -0.7599
15550TIP3   OH268140   6.757   2.870   0.967 -0.0449  0.0097  0.2678
15550TIP3    H168141   6.741   2.964   0.958 -0.0898 -0.0940 -0.9116
15550TIP3    H268142   6.756   2.837   0.877  0.1032 -1.1001  0.6595
15551TIP3   OH268143   1.138   2.039  15.914 -0.0316  0.2514  0.5316
15551TIP3    H168144   1.208   1.979  15.939  0.1778  0.1170 -0.3582
15551TIP3    H268145   1.160   2.066  15.825 -0.4068  1.2437  0.7318
15552TIP3   OH268146   1.428   6.389   4.756  0.8597 -0.1622  0.3538
15552TIP3    H168147   1.477   6.469   4.738  0.7909  0.1280  1.4002
15552TIP3    H268148   1.438   6.336   4.677  2.9591 -0.1578  0.5782
15553TIP3   OH268149   3.957   1.142  16.130 -0.4507  0.1670  0.5388
15553TIP3    H168150   3.911   1.194  16.064 -0.5056 -0.4717  0.0631
15553TIP3    H268151   3.898   1.069  16.148 -0.5384  0.4477  1.4746
15554TIP3   OH268152   3.604   5.023   2.640 -0.2451  0.5284 -0.3451
15554TIP3    H168153   3.626   4.940   2.597 -0.2841 -0.5033  1.4786
15554TIP3    H268154   3.678   5.039   2.699 -0.7530  1.2118  0.1265
15555TIP3   OH268155   2.555   2.180  12.073 -0.5756 -0.2082 -0.2359
15555TIP3    H168156   2.606   2.157  12.151 -0.3672  0.0722 -0.2883
15555TIP3    H268157   2.516   2.097  12.045  1.6823 -0.9109 -1.5246
15556TIP3   OH268158   3.800   1.110   2.696  0.0139  0.0326  0.2702
15556TIP3    H168159   3.717   1.092   2.653 -1.2283  1.2547  2.0005
15556TIP3    H268160   3.857   1.144   2.627 -0.8540 -0.9463 -0.9642
15557TIP3   OH268161   3.007   0.632  11.297 -0.1071 -0.7020 -0.8144
15557TIP3    H168162   3.058   0.708  11.270  0.2958 -0.6061  0.1632
15557TIP3    H268163   3.063   0.557  11.276 -0.0320 -0.6626 -0.7532
15558TIP3   OH268164   2.647   4.743  16.252 -0.1709  0.9259 -0.4594
15558TIP3    H168165   2.740   4.749  16.274 -0.2098 -0.0038  0.0179
15558TIP3    H268166   2.619   4.659  16.289 -1.9255  2.4974  2.1089
15559TIP3   OH268167   0.879   0.621   0.954 -0.2733 -0.5212 -0.0195
15559TIP3    H168168   0.941   0.593   1.022 -0.2419 -1.4428 -0.4021
15559TIP3    H268169   0.797   0.577   0.976 -0.8100  0.6901  0.4784
15560TIP3   OH268170   2.411   3.651   3.441 -0.2573  0.0403  0.2273
15560TIP3    H168171   2.438   3.676   3.353  1.5909 -0.0354  0.7330
15560TIP3    H268172   2.348   3.718   3.468  0.3031  0.9017 -0.5859
15561TIP3   OH268173   3.958   3.169  14.442 -0.5442  0.2471 -0.1224
15561TIP3    H168174   4.022   3.217  14.390  1.4863 -0.6179  1.4683
15561TIP3    H268175   3.912   3.237  14.492  0.5098  0.7490  0.1886
15562TIP3   OH268176   4.589   5.711   4.567  0.3572 -0.4707  0.6917
15562TIP3    H168177   4.552   5.669   4.645  1.4955 -0.7211  1.1308
15562TIP3    H268178   4.637   5.640   4.523 -0.6654 -0.4390 -0.5030
15563TIP3   OH268179   3.537   6.231  15.490 -0.3009 -0.0559 -0.0727
15563TIP3    H168180   3.450   6.268  15.473 -1.3941 -2.9428 -1.3739
15563TIP3    H268181   3.520   6.143  15.524  2.1323 -0.3910  0.4829
15564TIP3   OH268182   6.152   1.094   4.980  0.2958 -0.3477 -0.0358
15564TIP3    H168183   6.148   1.183   5.015  0.5511  0.2853 -1.5204
15564TIP3    H268184   6.090   1.044   5.033 -0.6016  0.9500  0.1965
15565TIP3   OH268185   3.862   1.392   0.927 -0.4896 -0.0949  0.0475
15565TIP3    H168186   3.934   1.453   0.910 -1.6783  1.6437  0.8796
15565TIP3    H268187   3.812   1.390   0.846 -2.3117  2.7960  0.9216
15566TIP3   OH268188   1.538   1.377  11.511  0.0175  0.5234 -0.7614
15566TIP3    H168189   1.613   1.358  11.567  1.4061  3.7547 -1.3158
15566TIP3    H268190   1.560   1.336  11.427 -0.8545 -2.0520  0.1627
15567TIP3   OH268191   0.207   1.007  12.010 -0.0443 -0.1048  0.3048
15567TIP3    H168192   0.129   0.960  12.039 -0.3845  0.6698  0.6931
15567TIP3    H268193   0.218   1.078  12.074  1.1285 -0.3465  0.4006
15568TIP3   OH268194   5.394   3.074   4.406  0.3397 -0.1541 -0.1374
15568TIP3    H168195   5.418   3.139   4.339 -0.4796  1.5145  1.1149
15568TIP3    H268196   5.363   2.999   4.356 -1.5069  1.5237 -1.7002
15569TIP3   OH268197   1.123   2.601  12.377  0.1305 -0.1680  0.6428
15569TIP3    H168198   1.044   2.637  12.335  0.5355  1.6235  1.3478
15569TIP3    H268199   1.149   2.528  12.320 -1.1267  0.2078 -0.4664
15570TIP3   OH268200   1.703   2.964  13.033  0.0231  0.6586 -0.2124
15570TIP3    H168201   1.697   3.045  13.084  0.7747  0.2927  0.4870
15570TIP3    H268202   1.759   2.907  13.086 -0.2565 -0.2128 -0.8351
15571TIP3   OH268203   4.107   5.829   1.858 -0.3364 -0.1658  0.2460
15571TIP3    H168204   4.109   5.753   1.799  1.4835 -0.5833  0.7934
15571TIP3    H268205   4.156   5.896   1.811 -0.1892 -0.0035  0.6316
15572TIP3   OH268206   1.584   3.447  10.400  0.8412 -0.8084 -0.7374
15572TIP3    H168207   1.611   3.536  10.421 -0.0147 -0.4664 -1.0651
15572TIP3    H268208   1.520   3.424  10.467  0.2021 -0.7530 -1.3250
15573TIP3   OH268209   0.650   3.311   1.189 -0.0357  0.1862 -0.1962
15573TIP3    H168210   0.608   3.229   1.214 -0.0272 -0.0906 -1.0375
15573TIP3    H268211   0.740   3.304   1.220 -0.4113  0.4826  0.9917
15574TIP3   OH268212   3.894   0.696   4.766 -0.7381  0.5690  0.2544
15574TIP3    H168213   3.921   0.750   4.692  0.7618 -0.0119  0.3333
15574TIP3    H268214   3.902   0.754   4.842 -1.1341  0.8223  0.1056
15575TIP3   OH268215   0.169   2.654  14.345 -0.0333  0.1784  0.1149
15575TIP3    H168216   0.125   2.698  14.273 -1.4531  0.0968  0.9015
15575TIP3    H268217   0.125   2.685  14.424  0.1151 -1.2704  0.8157
15576TIP3   OH268218   1.304   6.626   1.385 -0.2015  0.0013  0.1663
15576TIP3    H168219   1.231   6.683   1.409 -0.0206  0.5645 -0.5750
15576TIP3    H268220   1.279   6.587   1.302  0.4937  0.4965 -0.2850
15577TIP3   OH268221   1.972   1.798   4.168 -0.0604  0.0035  0.3518
15577TIP3    H168222   1.896   1.847   4.198  0.3776  0.3084  1.0039
15577TIP3    H268223   1.942   1.707   4.162  0.0432 -0.2363  2.6377
15578TIP3   OH268224   4.739   2.248  11.546  0.2227 -0.0807 -0.7316
15578TIP3    H168225   4.667   2.185  11.542  0.4425 -0.5193  1.0227
15578TIP3    H268226   4.798   2.212  11.613  0.9253  1.4078 -0.5062
15579TIP3   OH268227   0.238   3.024  15.847 -0.2571 -0.2571  0.3125
15579TIP3    H168228   0.203   3.110  15.873  0.4853 -0.4094  1.9122
15579TIP3    H268229   0.175   2.961  15.881 -0.0981 -0.3956  0.3527
15580TIP3   OH268230   3.437   4.098   1.466  0.3524  0.1999  0.0181
15580TIP3    H168231   3.521   4.090   1.421  0.9179  0.0895  1.0686
15580TIP3    H268232   3.437   4.188   1.498  0.1387  0.1432  0.1738
15581TIP3   OH268233   1.882   6.275   1.751  0.1995  0.3935 -0.5189
15581TIP3    H168234   1.925   6.361   1.752 -0.6993  0.8585  0.1489
15581TIP3    H268235   1.947   6.216   1.712  0.9568  1.3065 -0.6892
15582TIP3   OH268236   1.118   4.521  13.576  0.0912  0.2033  0.1521
15582TIP3    H168237   1.176   4.487  13.508  1.7456  1.4735  0.8543
15582TIP3    H268238   1.177   4.562  13.639 -1.4727  0.0615  1.7855
15583TIP3   OH268239   4.277   0.996   0.495 -0.2591  0.0290  0.4453
15583TIP3    H168240   4.187   0.965   0.488 -0.6149  1.1238 -0.0335
15583TIP3    H268241   4.274   1.087   0.466  0.7015  0.6128  2.0442
15584TIP3   OH268242   1.209   0.440   3.837 -0.2061 -0.1624 -0.2402
15584TIP3    H168243   1.119   0.409   3.825  0.3182 -1.4017 -1.1924
15584TIP3    H268244   1.230   0.484   3.755  1.3407 -3.3136 -1.6594
15585TIP3   OH268245   6.264   2.510  14.556  0.3273 -0.4330  0.3285
15585TIP3    H168246   6.212   2.573  14.605  0.1451 -1.5031  1.5868
15585TIP3    H268247   6.201   2.462  14.503 -0.0073 -1.6616  1.7769
15586TIP3   OH268248   1.479   2.432  12.859 -0.5721  0.3143  0.1871
15586TIP3    H168249   1.560   2.459  12.903 -0.3506  0.3192 -0.2118
15586TIP3    H268250   1.502   2.347  12.820 -0.7138  0.3847 -0.0489
15587TIP3   OH268251   1.085   2.018   1.833 -0.2398 -0.0718  0.0980
15587TIP3    H168252   1.048   1.935   1.864 -0.2727 -0.1373 -0.1146
15587TIP3    H268253   1.009   2.073   1.814 -0.2167  0.0632  0.3820
15588TIP3   OH268254   5.380   0.888  17.044 -0.5073 -0.2581  0.2767
15588TIP3    H168255   5.465   0.919  17.073  0.2918 -2.0077 -0.0280
15588TIP3    H268256   5.380   0.903  16.949 -0.8511  0.4056  0.3757
15589TIP3   OH268257   3.983   2.474   3.716  0.4080  0.0313 -0.1996
15589TIP3    H168258   4.012   2.384   3.732 -0.4315 -0.0806  0.8063
15589TIP3    H268259   3.887   2.469   3.713  0.1812  1.1789  2.1770
15590TIP3   OH268260   2.743   3.604   3.535 -0.6558  0.3254 -0.0439
15590TIP3    H168261   2.699   3.547   3.598  0.7243 -0.6645  0.0826
15590TIP3    H268262   2.714   3.573   3.449 -0.1117 -0.4392  0.0324
15591TIP3   OH268263   2.924   4.526   6.068 -0.1886 -0.1883  0.2276
15591TIP3    H168264   2.978   4.487   6.137  1.9824 -0.3420 -1.4628
15591TIP3    H268265   2.968   4.503   5.987 -1.3774  1.9484 -1.1160
15592TIP3   OH268266   3.898   0.137   5.723 -0.2748 -0.0646 -0.4173
15592TIP3    H168267   3.974   0.120   5.778  0.1500  0.9335 -0.6713
15592TIP3    H268268   3.864   0.221   5.753 -0.8258 -0.1427 -0.8020
15593TIP3   OH268269   1.653   3.055   3.677  0.6288 -0.0168 -0.9134
15593TIP3    H168270   1.656   2.986   3.744  0.4406 -0.4133 -1.3111
15593TIP3    H268271   1.577   3.108   3.700  0.9659  0.2661 -0.4116
15594TIP3   OH268272   0.705   0.314  15.478 -0.6644  0.2307 -0.1889
15594TIP3    H168273   0.797   0.287  15.478 -0.4878  0.6731  2.3419
15594TIP3    H268274   0.656   0.234  15.498 -0.8188  0.1327 -0.9042
15595TIP3   OH268275   5.610   2.857  17.057 -0.9192  0.6337 -0.4980
15595TIP3    H168276   5.677   2.807  17.011  0.8139  1.7578  0.6861
15595TIP3    H268277   5.598   2.810  17.140  0.8943  2.1697  0.7274
15596TIP3   OH268278   1.661   2.754   2.489  0.7205  0.3367  0.4724
15596TIP3    H168279   1.650   2.670   2.533  1.1577  0.0366  0.0087
15596TIP3    H268280   1.750   2.752   2.454  0.3652  0.5430 -0.4856
15597TIP3   OH268281   4.173   3.453   0.382 -0.2201 -0.3831  0.3149
15597TIP3    H168282   4.171   3.548   0.397  2.1569 -0.1142 -0.6947
15597TIP3    H268283   4.203   3.416   0.465  1.1042 -0.0199  0.0131
15598TIP3   OH268284   2.453   4.026   3.184 -0.3038 -0.2085 -0.0395
15598TIP3    H168285   2.408   4.074   3.254  1.6782 -1.2419  2.1098
15598TIP3    H268286   2.529   4.081   3.163 -0.1214 -0.5716 -0.3392
15599TIP3   OH268287   2.117   0.798   1.673  0.2652  0.7369  0.1642
15599TIP3    H168288   2.120   0.890   1.697  1.6644  0.7631 -0.0246
15599TIP3    H268289   2.161   0.753   1.746  0.4916  0.3378 -0.2148
15600TIP3   OH268290   6.469   3.308   1.445  0.0722  0.0542 -0.3793
15600TIP3    H168291   6.452   3.369   1.374 -1.7598  0.7801  0.6061
15600TIP3    H268292   6.526   3.241   1.406  0.3339  1.2027 -2.0863
15601TIP3   OH268293   4.623   1.996   4.536  0.4525  0.1689  0.0116
15601TIP3    H168294   4.687   1.935   4.499 -0.0804 -1.0837  1.0504
15601TIP3    H268295   4.539   1.968   4.499  0.2007  0.2402  0.5192
15602TIP3   OH268296   3.235   5.239   5.332 -0.3758  0.4787  0.0438
15602TIP3    H168297   3.243   5.316   5.388 -1.0210 -0.0865  0.9383
15602TIP3    H268298   3.143   5.213   5.339 -0.5807  0.6450 -1.6364
15603TIP3   OH268299   1.751   2.536  15.074 -0.2884 -0.3906  0.5748
15603TIP3    H168300   1.703   2.519  14.993 -1.1890 -0.0341  1.0219
15603TIP3    H268301   1.699   2.494  15.142  0.7683 -1.1901  0.9167
15604TIP3   OH268302   6.141   0.083  15.239  0.2058  0.2162  0.0315
15604TIP3    H168303   6.222   0.055  15.197  0.0690  1.6109 -1.2561
15604TIP3    H268304   6.075   0.021  15.207  0.3506  0.4947 -0.8646
15605TIP3   OH268305   5.200   1.141  10.665  0.6459 -0.1293  0.1667
15605TIP3    H168306   5.234   1.182  10.745  0.1974 -0.1472  0.3704
15605TIP3    H268307   5.224   1.049  10.673  1.1741 -0.0120 -0.0315
15606TIP3   OH268308   6.077   1.603  15.954 -0.2423 -0.2189 -0.0116
15606TIP3    H168309   6.066   1.648  16.038  1.6012 -0.4990  0.4232
15606TIP3    H268310   6.092   1.673  15.891 -3.5057  0.1365 -0.5337
15607TIP3   OH268311   0.760   4.140  16.418  0.8972 -0.0716 -0.2843
15607TIP3    H168312   0.784   4.104  16.332 -0.0996 -0.3700 -0.4452
15607TIP3    H268313   0.835   4.119  16.473  1.6479  0.3186 -1.1269
15608TIP3   OH268314   0.473   3.560   2.596 -0.0738  0.5181 -0.6033
15608TIP3    H168315   0.466   3.645   2.639  0.5495  0.5424 -0.5511
15608TIP3    H268316   0.505   3.580   2.508 -0.7530  0.4112 -0.8854
15609TIP3   OH268317   2.881   2.707  16.663 -0.0318  0.5327 -0.6008
15609TIP3    H168318   2.837   2.737  16.584  0.3351  1.4504 -0.4718
15609TIP3    H268319   2.948   2.774  16.680  1.6346 -0.9694 -0.9803
15610TIP3   OH268320   3.493   3.901   2.871 -0.8145 -0.2446  0.1084
15610TIP3    H168321   3.514   3.878   2.961 -2.1421 -2.0162  0.0283
15610TIP3    H268322   3.520   3.825   2.820  0.1140  0.8167 -1.0492
15611TIP3   OH268323   6.807   1.499  15.255  0.1100 -0.5111 -0.0305
15611TIP3    H168324   6.763   1.517  15.339 -0.6303  2.7110 -0.9759
15611TIP3    H268325   6.898   1.523  15.270  0.3093 -1.3785  0.2241
15612TIP3   OH268326   3.930   4.774   6.614  0.1949 -0.0687  0.3903
15612TIP3    H168327   3.926   4.679   6.626 -2.0728 -0.4107 -2.0647
15612TIP3    H268328   3.863   4.808   6.673  0.3622 -0.0835  0.5894
15613TIP3   OH268329   5.988   4.082  14.669  0.0843  0.5400  0.1555
15613TIP3    H168330   5.985   4.022  14.743 -3.2249 -0.2134 -0.4289
15613TIP3    H268331   5.955   4.165  14.704  2.5834  1.4744  0.4476
15614TIP3   OH268332   5.756   2.793   3.149 -0.0043  0.2843 -0.0262
15614TIP3    H168333   5.776   2.726   3.084  0.0019  0.7162 -0.4738
15614TIP3    H268334   5.701   2.856   3.102 -0.9461  0.0236  0.6972
15615TIP3   OH268335   5.400   3.373   5.619 -0.4681  0.3510  0.1868
15615TIP3    H168336   5.353   3.330   5.548 -0.9918  2.1253 -0.5871
15615TIP3    H268337   5.492   3.353   5.603 -0.4393  1.8704 -1.8430
15616TIP3   OH268338   1.039   0.189   5.542 -0.0939  0.0216 -0.3594
15616TIP3    H168339   1.104   0.119   5.542 -0.4281 -0.3995 -3.3588
15616TIP3    H268340   0.955   0.144   5.531 -0.3512  0.8126 -1.8641
15617TIP3   OH268341   6.411   3.939   5.106  0.1807  0.1656  0.3364
15617TIP3    H168342   6.487   3.899   5.149 -1.1343 -1.5833  1.1475
15617TIP3    H268343   6.342   3.873   5.112 -0.9305  1.0104 -1.9454
15618TIP3   OH268344   1.284   3.160   0.666  0.2129 -0.0815  0.3704
15618TIP3    H168345   1.338   3.115   0.600  0.6629 -0.3252  0.9014
15618TIP3    H268346   1.211   3.100   0.681 -0.2570  0.2816 -0.4040
15619TIP3   OH268347   4.693   4.611  10.664  0.3092  0.1959 -0.5056
15619TIP3    H168348   4.702   4.569  10.578  0.5879 -0.0787 -0.3445
15619TIP3    H268349   4.599   4.616  10.679  0.2699 -1.0129 -0.2240
15620TIP3   OH268350   4.965   0.853  17.162  0.0083  0.2602 -0.3408
15620TIP3    H168351   5.023   0.806  17.101 -0.1688  0.9333 -1.0360
15620TIP3    H268352   4.919   0.916  17.108 -0.6622  0.4043  0.3846
15621TIP3   OH268353   2.674   0.072  14.705 -0.2238  0.2729 -0.1679
15621TIP3    H168354   2.635   0.140  14.649 -2.5120  0.3701  1.4482
15621TIP3    H268355   2.615   0.065  14.779  1.1840 -1.9359  0.8277
15622TIP3   OH268356   3.014   4.794  14.150 -0.2364  0.0169  0.0268
15622TIP3    H168357   3.009   4.885  14.118 -1.1174  0.3561  1.0588
15622TIP3    H268358   3.075   4.751  14.090  1.9900  1.8342  0.8417
15623TIP3   OH268359   0.941   0.870   5.070 -0.0548  0.6009 -0.1079
15623TIP3    H168360   0.871   0.815   5.106 -0.3622  1.8411  1.3090
15623TIP3    H268361   0.898   0.921   5.002 -0.2152  0.3925 -0.1630
15624TIP3   OH268362   5.143   3.051   5.329 -0.1179  0.5521 -0.7110
15624TIP3    H168363   5.063   3.014   5.294 -0.2222  0.1952 -0.1037
15624TIP3    H268364   5.162   2.999   5.407  1.1771  0.0664 -1.3225
15625TIP3   OH268365   3.155   0.185  14.882  0.2841  0.1454 -0.6096
15625TIP3    H168366   3.203   0.122  14.936 -0.4655 -0.3780 -0.5362
15625TIP3    H268367   3.073   0.140  14.859  0.3908  0.5353 -1.8131
15626TIP3   OH268368   5.790   5.240   4.668  0.2788 -0.0563 -0.0873
15626TIP3    H168369   5.879   5.217   4.695  0.4045 -0.4774 -0.8212
15626TIP3    H268370   5.743   5.157   4.664 -0.4803  0.2685  1.3799
15627TIP3   OH268371   1.870   5.212   5.168  0.7708 -0.1975  0.1875
15627TIP3    H168372   1.830   5.192   5.252  0.4509 -2.5031 -0.4436
15627TIP3    H268373   1.961   5.233   5.188  0.0332  2.3438  1.3470
15628TIP3   OH268374   4.286   1.553   2.089  0.5379 -0.2763 -0.2386
15628TIP3    H168375   4.192   1.572   2.092  0.7758  0.9321  0.1535
15628TIP3    H268376   4.328   1.639   2.080  1.5310 -0.9465 -3.1742
15629TIP3   OH268377   3.771   1.579   0.700  0.0402  0.8583 -0.3132
15629TIP3    H168378   3.699   1.583   0.637 -0.1531 -1.1564 -0.2909
15629TIP3    H268379   3.760   1.656   0.754 -4.6040 -1.2057  2.2578
15630TIP3   OH268380   6.574   2.673   0.171 -0.6446 -0.0711  0.2531
15630TIP3    H168381   6.510   2.603   0.183 -1.9574  1.4001  2.6517
15630TIP3    H268382   6.606   2.692   0.260  1.2888  0.9179 -0.5946
15631TIP3   OH268383   5.277   1.669   3.381 -0.2402  0.2122  0.5613
15631TIP3    H168384   5.368   1.681   3.353 -0.2981  0.1439  0.3397
15631TIP3    H268385   5.225   1.696   3.305 -0.3851 -0.7250  0.3181
15632TIP3   OH268386   0.428   1.744   0.579 -0.0811  0.4525 -1.2727
15632TIP3    H168387   0.334   1.740   0.565 -0.0343 -0.2249 -1.4493
15632TIP3    H268388   0.455   1.826   0.539 -0.7515  1.1870 -0.2479
15633TIP3   OH268389   0.171   4.466   5.757  0.2598 -0.1591  0.1312
15633TIP3    H168390   0.148   4.553   5.791 -0.5515 -0.2998 -0.0462
15633TIP3    H268391   0.263   4.455   5.780 -0.1039 -0.0064  1.7821
15634TIP3   OH268392   5.470   0.556  17.017 -0.2071  0.2168  0.0738
15634TIP3    H168393   5.520   0.611  16.957 -1.4096  0.6947 -0.5336
15634TIP3    H268394   5.396   0.525  16.965 -0.4283 -0.6532  0.8760
15635TIP3   OH268395   2.191   2.835   5.631 -0.3308  0.4200 -0.0466
15635TIP3    H168396   2.181   2.744   5.602 -0.4679  0.4486 -0.0922
15635TIP3    H268397   2.264   2.869   5.579 -1.8453  1.0706 -1.8857
15636TIP3   OH268398   4.159   3.075  11.287  0.1535  0.4728  0.8236
15636TIP3    H168399   4.114   3.098  11.368 -1.9291  1.2119 -0.4707
15636TIP3    H268400   4.246   3.048  11.315 -1.3614 -2.1704  3.6256
15637TIP3   OH268401   5.920   4.532  11.396 -0.2882  0.5480  0.0737
15637TIP3    H168402   5.950   4.556  11.308 -1.0008 -1.6223 -0.8274
15637TIP3    H268403   5.957   4.446  11.412 -2.4997 -0.3858  0.6366
15638TIP3   OH268404   3.971   5.372   3.180 -0.3560 -0.7125 -0.2701
15638TIP3    H168405   4.051   5.420   3.203 -0.4929 -0.3544 -0.5299
15638TIP3    H268406   3.998   5.280   3.181  0.2396 -0.5604 -1.0004
15639TIP3   OH268407   1.227   5.640  16.722 -0.3420 -0.4868  0.2598
15639TIP3    H168408   1.239   5.546  16.707 -0.9499 -0.5362  0.0505
15639TIP3    H268409   1.235   5.650  16.817  0.6605 -0.6053  0.1942
15640TIP3   OH268410   6.694   2.083   5.343 -0.0193 -0.2152  0.1388
15640TIP3    H168411   6.736   2.153   5.292 -1.1567  0.6167  0.2997
15640TIP3    H268412   6.671   2.016   5.278  2.4910 -1.2136  0.1866
15641TIP3   OH268413   3.641   3.777   2.165 -0.2179 -0.9132 -0.4562
15641TIP3    H168414   3.698   3.736   2.230  1.1907  1.6616  0.0626
15641TIP3    H268415   3.699   3.799   2.092 -1.2983 -1.5305 -1.5330
15642TIP3   OH268416   3.612   1.127   4.080 -0.0049 -0.0289  0.5623
15642TIP3    H168417   3.571   1.052   4.037 -0.8744  0.0492  1.2284
15642TIP3    H268418   3.706   1.110   4.072 -0.1691 -0.6979 -0.1457
15643TIP3   OH268419   4.197   4.920   5.981 -0.3725  0.1757  0.4173
15643TIP3    H168420   4.154   4.847   6.025 -0.6644  0.4573  0.6013
15643TIP3    H268421   4.204   4.987   6.049 -1.7231  0.9898 -0.2191
15644TIP3   OH268422   3.449   6.184   5.997  0.2929 -0.6248 -0.5235
15644TIP3    H168423   3.498   6.160   6.075  1.8282 -0.4204 -1.3869
15644TIP3    H268424   3.510   6.171   5.925 -0.4485  0.9925 -1.5131
15645TIP3   OH268425   1.811   6.746  14.743 -0.3056  0.0178  0.2128
15645TIP3    H168426   1.841   6.823  14.694 -2.1404  1.1310  0.7513
15645TIP3    H268427   1.852   6.672  14.698  1.5340  1.2847 -0.3020
15646TIP3   OH268428   6.023   2.505   0.342  0.5306  0.1997 -0.5531
15646TIP3    H168429   5.962   2.510   0.416  1.6774  2.4965  0.3370
15646TIP3    H268430   6.109   2.499   0.382  1.1110  0.4114 -1.7225
15647TIP3   OH268431   1.388   4.300  10.812 -0.0505 -0.1155  0.0969
15647TIP3    H168432   1.310   4.297  10.756  0.1169  0.1266 -0.1585
15647TIP3    H268433   1.458   4.328  10.752  0.1355  0.1236  0.4243
15648TIP3   OH268434   4.706   2.077  15.392 -0.1746  0.3481 -0.1747
15648TIP3    H168435   4.668   1.999  15.431  0.6541  0.6032  1.2118
15648TIP3    H268436   4.728   2.051  15.302 -2.5826 -0.0975 -0.7013
15649TIP3   OH268437   5.557   4.619   1.804 -1.2213  0.6364  0.1722
15649TIP3    H168438   5.473   4.643   1.844 -0.9088  1.1036  0.5595
15649TIP3    H268439   5.534   4.593   1.714 -1.7534  0.9473  0.2134
15650TIP3   OH268440   1.616   1.779   2.141  0.0664 -0.6620 -0.0327
15650TIP3    H168441   1.598   1.685   2.144 -1.9449 -0.2995  1.1271
15650TIP3    H268442   1.552   1.813   2.078 -0.8233  0.2022  1.2903
15651TIP3   OH268443   6.395   5.645  13.510  0.1205  0.2230  0.3295
15651TIP3    H168444   6.436   5.699  13.443 -0.2337  1.1585  0.8463
15651TIP3    H268445   6.456   5.573  13.524  1.0626  0.9994  0.3039
15652TIP3   OH268446   2.924   2.693  15.492  0.0090 -0.3754 -0.1347
15652TIP3    H168447   2.893   2.762  15.551  0.7134  0.8725 -1.1452
15652TIP3    H268448   2.869   2.617  15.511  0.2619 -0.0364  2.1331
15653TIP3   OH268449   0.819   1.643  15.181  0.0568 -0.3768  0.1601
15653TIP3    H168450   0.877   1.696  15.235  0.0375 -0.6539  0.4624
15653TIP3    H268451   0.852   1.653  15.092  0.5723 -0.5359  0.3311
15654TIP3   OH268452   3.312   5.684  11.653 -0.1858  0.3471  0.3547
15654TIP3    H168453   3.375   5.739  11.699 -0.0441 -0.6939  1.4612
15654TIP3    H268454   3.321   5.598  11.694  0.4985 -0.8648 -2.1509
15655TIP3   OH268455   2.899   1.467   0.606 -0.2599 -0.3985  0.4811
15655TIP3    H168456   2.848   1.530   0.555 -0.1594 -0.4959  0.2593
15655TIP3    H268457   2.833   1.408   0.644 -0.2766 -1.0374 -0.4869
15656TIP3   OH268458   2.573   0.048  14.084 -0.1266  0.0331  0.6179
15656TIP3    H168459   2.586   0.034  14.178  0.2883  0.2524  0.5960
15656TIP3    H268460   2.596   0.139  14.069 -0.4112  0.0621  0.3383
15657TIP3   OH268461   4.432   5.560  10.922 -0.4075 -0.2755 -0.4409
15657TIP3    H168462   4.348   5.592  10.889 -0.3038 -0.9259 -1.3744
15657TIP3    H268463   4.492   5.570  10.848  1.1016  2.8541  1.0253
15658TIP3   OH268464   4.836   0.786   2.177  0.2566 -0.1788  0.4423
15658TIP3    H168465   4.845   0.875   2.144  0.4330 -0.4722 -0.3223
15658TIP3    H268466   4.839   0.731   2.099  0.9368 -0.9115  0.9701
15659TIP3   OH268467   0.746   0.517  13.441  0.1638  0.1627 -0.1032
15659TIP3    H168468   0.756   0.602  13.398  0.8261  0.6813  1.0388
15659TIP3    H268469   0.817   0.513  13.504  0.1004 -1.2233 -0.0874
15660TIP3   OH268470   1.248   0.650  12.417 -0.1610 -0.3440  0.1282
15660TIP3    H168471   1.259   0.601  12.335 -0.2647  0.8620 -0.6318
15660TIP3    H268472   1.160   0.628  12.447  0.2432 -1.5781  0.4705
15661TIP3   OH268473   5.185   6.689   0.500 -0.4257  0.4553  0.0406
15661TIP3    H168474   5.099   6.715   0.532  0.4216  1.1932  1.8670
15661TIP3    H268475   5.196   6.736   0.417 -1.8875  0.0986 -0.3740
15662TIP3   OH268476   5.531   3.662   2.964  0.4192 -0.3754  0.1209
15662TIP3    H168477   5.596   3.705   2.909  1.0716 -0.5896  0.7144
15662TIP3    H268478   5.521   3.575   2.927  0.8935 -0.5362  0.3644
15663TIP3   OH268479   4.897   6.822   3.987 -0.6872  0.8038 -0.5752
15663TIP3    H168480   4.822   6.853   3.936 -2.4255  0.2015  1.4275
15663TIP3    H268481   4.883   6.859   4.075  0.7067 -0.3114  0.1631
15664TIP3   OH268482   1.698   4.824   0.208  0.8634 -0.2695  0.4872
15664TIP3    H168483   1.661   4.736   0.218 -0.1198 -0.3122 -2.5717
15664TIP3    H268484   1.763   4.815   0.139 -0.5596  1.6695 -1.2323
15665TIP3   OH268485   0.374   4.511  16.736  0.4214 -0.3130  0.4719
15665TIP3    H168486   0.291   4.557  16.724  1.4252  1.6913  0.7409
15665TIP3    H268487   0.378   4.449  16.663 -0.6727  0.5375 -0.3545
15666TIP3   OH268488   4.485   0.638  16.248  0.4470  0.2049  0.4709
15666TIP3    H168489   4.489   0.577  16.174  1.4968 -0.8619  1.3656
15666TIP3    H268490   4.571   0.680  16.248 -0.1265  1.4051  0.1184
15667TIP3   OH268491   1.695   3.493  11.638  0.3634 -0.3825 -0.3106
15667TIP3    H168492   1.709   3.468  11.546  1.7364  0.9805 -0.5196
15667TIP3    H268493   1.667   3.585  11.633  0.8034 -0.1924  0.6561
15668TIP3   OH268494   2.770   4.882  15.375 -0.1704 -0.1095  0.4593
15668TIP3    H168495   2.801   4.970  15.394 -0.0949 -0.0016 -0.1351
15668TIP3    H268496   2.833   4.848  15.311 -0.7062 -0.2583  0.0048
15669TIP3   OH268497   0.077   2.234  14.287  0.5471 -0.3422 -0.4979
15669TIP3    H168498   0.081   2.161  14.225  3.1607  0.1314 -1.0312
15669TIP3    H268499   0.167   2.269  14.288 -0.5736  2.8490 -0.2540
15670TIP3   OH268500   2.619   2.106  12.333  0.0366 -0.3883 -0.2275
15670TIP3    H168501   2.685   2.136  12.395  0.3627 -2.5929  0.5697
15670TIP3    H268502   2.538   2.103  12.384  0.2518 -1.9537  0.0605
15671TIP3   OH268503   1.018   5.966   6.178  0.1051  0.0387  0.5380
15671TIP3    H168504   0.982   5.904   6.114 -1.0369  1.9756 -0.8127
15671TIP3    H268505   1.056   6.036   6.125  0.8920  0.7661  2.0051
15672TIP3   OH268506   4.248   4.354   5.884  0.2142  0.0409  0.6483
15672TIP3    H168507   4.160   4.390   5.892 -0.1693 -1.0814  1.9910
15672TIP3    H268508   4.254   4.291   5.956  2.3430  0.5348  0.9628
15673TIP3   OH268509   4.509   0.879   1.206 -1.3566  0.1828 -0.1096
15673TIP3    H168510   4.472   0.904   1.121 -0.0158  0.3268 -0.6721
15673TIP3    H268511   4.444   0.910   1.270 -0.6958  3.5325 -0.8610
15674TIP3   OH268512   0.837   6.232   0.870  0.2195  0.3106 -0.1840
15674TIP3    H168513   0.840   6.137   0.876  0.3536  0.3624  0.5948
15674TIP3    H268514   0.782   6.260   0.943  1.0241  0.8908  0.2228
15675TIP3   OH268515   2.059   1.343   3.480 -0.1782  0.8870 -0.0317
15675TIP3    H168516   2.129   1.391   3.525 -0.6063  0.3133  1.3006
15675TIP3    H268517   2.035   1.273   3.541 -2.1504  1.2711 -0.3067
15676TIP3   OH268518   5.442   3.481   2.365  0.0162  0.1687  0.0428
15676TIP3    H168519   5.417   3.466   2.274 -0.5258  0.0576  0.2075
15676TIP3    H268520   5.536   3.462   2.367 -0.1972 -0.9997 -0.2372
15677TIP3   OH268521   5.924   5.458  10.724 -0.8037 -0.2223  0.0602
15677TIP3    H168522   5.838   5.442  10.684 -0.7131  1.4634 -0.9153
15677TIP3    H268523   5.920   5.549  10.752  0.0523 -0.6551  1.6701
15678TIP3   OH268524   1.455   1.867   2.495  0.4851  0.0951 -0.5196
15678TIP3    H168525   1.440   1.923   2.419  0.0223  1.8090  0.7782
15678TIP3    H268526   1.412   1.912   2.567 -0.5589 -2.3369  0.4776
15679TIP3   OH268527   1.492   5.064  15.879  0.8398  0.3547  0.0977
15679TIP3    H168528   1.529   5.003  15.815 -0.5771 -0.7212  0.2577
15679TIP3    H268529   1.431   5.012  15.930 -0.4939  1.9169  0.1961
15680TIP3   OH268530   4.031   1.851   4.857 -0.3505 -0.4630  0.0178
15680TIP3    H168531   4.075   1.772   4.888 -0.2490 -0.1913  0.5715
15680TIP3    H268532   3.943   1.846   4.893  0.3937  0.8966  2.1942
15681TIP3   OH268533   1.949   3.275  12.198  0.0693 -0.3232  0.3753
15681TIP3    H168534   1.949   3.179  12.206  0.7792 -0.2304  1.7913
15681TIP3    H268535   1.971   3.291  12.106 -0.3403 -1.5150  0.0437
15682TIP3   OH268536   6.814   4.483   2.015  0.1845 -1.0505  0.0238
15682TIP3    H168537   6.902   4.488   2.053 -0.0295 -1.7880  0.6487
15682TIP3    H268538   6.802   4.391   1.993 -0.9806 -1.2636  1.3433
15683TIP3   OH268539   1.085   2.277  16.383  0.1480 -0.8635  0.0271
15683TIP3    H168540   1.174   2.267  16.418  1.2804  0.1831 -2.3056
15683TIP3    H268541   1.042   2.338  16.443  1.8861  0.6225 -0.1599
15684TIP3   OH268542   5.264   4.342   0.608 -0.0660  0.1799  0.5939
15684TIP3    H168543   5.261   4.415   0.547  1.9187  0.1081  0.3371
15684TIP3    H268544   5.190   4.287   0.583 -0.9375  1.5276  0.0860
15685TIP3   OH268545   4.762   6.313  14.688 -0.2229  0.7273 -0.4746
15685TIP3    H168546   4.853   6.337  14.701 -0.3243  1.1863 -0.5875
15685TIP3    H268547   4.748   6.323  14.594 -0.2564  0.1753 -0.5304
15686TIP3   OH268548   6.309   6.338   5.874 -0.1426 -0.6763  0.1646
15686TIP3    H168549   6.229   6.306   5.916 -1.0101  0.7872 -0.3123
15686TIP3    H268550   6.364   6.366   5.947  0.2273 -2.2720  0.5319
15687TIP3   OH268551   0.734   4.203  12.051  0.6219 -0.3687 -0.4085
15687TIP3    H168552   0.824   4.219  12.079  1.8230 -2.4546 -2.7158
15687TIP3    H268553   0.735   4.221  11.957 -1.3933 -0.4235 -0.4717
15688TIP3   OH268554   4.215   3.085  12.717 -0.3313  0.4263 -0.3415
15688TIP3    H168555   4.184   2.996  12.700  0.4547 -0.0277  0.5594
15688TIP3    H268556   4.309   3.082  12.697 -0.4695  1.2994 -1.1982
15689TIP3   OH268557   3.428   1.258   4.246 -0.1157 -0.2784 -0.9211
15689TIP3    H168558   3.429   1.192   4.315 -0.3023  0.1992 -0.4514
15689TIP3    H268559   3.508   1.242   4.196  0.0792 -0.5581 -0.5234
15690TIP3   OH268560   1.395   6.342  12.175  0.0358 -0.2841 -0.3313
15690TIP3    H168561   1.392   6.263  12.121  0.8605 -2.1464  2.1849
15690TIP3    H268562   1.304   6.367  12.187 -0.2348 -0.8348 -1.1388
15691TIP3   OH268563   2.374   4.030   1.303 -0.2431 -0.0688  0.1594
15691TIP3    H168564   2.281   4.049   1.313  0.2012  2.5604 -0.0001
15691TIP3    H268565   2.395   4.056   1.214  0.7492 -0.2178  0.3354
15692TIP3   OH268566   5.035   6.469   2.037 -0.3281  0.4241  0.5862
15692TIP3    H168567   5.126   6.469   2.009 -0.3806 -0.3997  0.3585
15692TIP3    H268568   5.025   6.548   2.089  0.1384  1.2808 -0.5753
15693TIP3   OH268569   5.573   3.415  14.597  0.4151 -0.5949  0.0862
15693TIP3    H168570   5.614   3.412  14.511  0.7858  2.5345  0.0341
15693TIP3    H268571   5.646   3.434  14.657 -0.2577  0.4318  0.6173
15694TIP3   OH268572   0.223   3.627   3.206  0.0046  0.5222 -0.1987
15694TIP3    H168573   0.178   3.670   3.279 -0.2505 -1.0134  0.5773
15694TIP3    H268574   0.154   3.604   3.145 -0.7335 -3.4404  1.7887
15695TIP3   OH268575   5.794   5.228  17.176 -0.4562  0.7143  0.9604
15695TIP3    H168576   5.802   5.166  17.104 -1.0796  2.4259 -0.6437
15695TIP3    H268577   5.828   5.180  17.252 -1.2492 -1.6984 -0.1122
15696TIP3   OH268578   4.618   4.846   3.397  0.2319  0.0556  0.6203
15696TIP3    H168579   4.707   4.876   3.376 -0.4786  1.7873 -0.0646
15696TIP3    H268580   4.625   4.811   3.485  1.5250  0.5381  0.7325
15697TIP3   OH268581   3.348   5.613   2.199  0.1871  0.5442  0.1439
15697TIP3    H168582   3.264   5.639   2.237  0.6073  0.2419  1.3094
15697TIP3    H268583   3.362   5.675   2.127 -0.9041  0.7634  0.1131
15698TIP3   OH268584   4.635   1.812   4.256  0.0658 -0.2428  0.1616
15698TIP3    H168585   4.556   1.792   4.307 -0.4220  3.7529  1.2932
15698TIP3    H268586   4.706   1.771   4.306 -0.8916 -0.4743  1.3981
15699TIP3   OH268587   6.248   0.673   5.877 -0.0305  0.5765 -0.4327
15699TIP3    H168588   6.249   0.682   5.972 -0.4223  0.5696 -0.4282
15699TIP3    H268589   6.254   0.763   5.845  0.0428  0.5827 -0.4022
15700TIP3   OH268590   3.967   4.586  13.711 -0.4083 -0.1223  0.3612
15700TIP3    H168591   4.042   4.537  13.679  0.3756 -0.1751  2.1346
15700TIP3    H268592   4.005   4.658  13.761 -1.5269  2.2210 -1.9264
15701TIP3   OH268593   3.173   0.627  14.354 -0.0739 -0.7759  0.0490
15701TIP3    H168594   3.163   0.670  14.269  0.2636  0.3215  0.5450
15701TIP3    H268595   3.170   0.533  14.334 -0.9995 -0.5350 -1.0429
15702TIP3   OH268596   0.747   6.635   2.891  0.1732  0.5759 -0.0566
15702TIP3    H168597   0.689   6.698   2.934  0.7690  1.0146  0.1127
15702TIP3    H268598   0.796   6.687   2.827  0.6178  0.2693  0.0321
15703TIP3   OH268599   0.164   4.745   5.407  0.3730  0.4026 -0.2461
15703TIP3    H168600   0.111   4.669   5.429  0.3349  0.2232 -0.9420
15703TIP3    H268601   0.254   4.718   5.428  0.1852  0.8251  1.2544
15704TIP3   OH268602   6.571   4.531   3.160 -0.6547 -0.0723 -0.2507
15704TIP3    H168603   6.567   4.437   3.181  0.3740 -0.4155 -1.5275
15704TIP3    H268604   6.480   4.554   3.140 -0.9456 -0.7501  0.2446
15705TIP3   OH268605   4.472   2.823   2.109  0.4449 -0.2008 -0.6589
15705TIP3    H168606   4.410   2.855   2.043 -0.5319  1.0472  0.7757
15705TIP3    H268607   4.416   2.782   2.175  1.3041 -0.5527 -0.1436
15706TIP3   OH268608   2.149   0.356   5.773 -0.3154  0.2121 -0.1383
15706TIP3    H168609   2.131   0.400   5.856 -2.2807  4.2578 -2.4202
15706TIP3    H268610   2.219   0.407   5.733 -1.5249  0.3372 -2.2440
15707TIP3   OH268611   4.704   5.303   3.848  0.1220 -0.3414  0.3321
15707TIP3    H168612   4.645   5.363   3.895 -0.6595 -1.8201  1.3012
15707TIP3    H268613   4.662   5.290   3.763 -0.5735 -0.8035  0.7397
15708TIP3   OH268614   5.072   3.550   1.062  0.4732 -0.0189 -0.9165
15708TIP3    H168615   5.090   3.457   1.075  0.9103  0.1122 -0.5421
15708TIP3    H268616   5.084   3.589   1.149 -3.0561 -0.1146 -0.2255
15709TIP3   OH268617   0.529   1.179   5.015 -0.1890  0.1228 -0.0456
15709TIP3    H168618   0.604   1.131   5.048 -0.0225  0.9012  0.7708
15709TIP3    H268619   0.558   1.271   5.014 -0.8601  0.3393 -0.4868
15710TIP3   OH268620   2.795   6.077  16.231 -0.0658 -0.2280  0.1361
15710TIP3    H168621   2.888   6.072  16.254  0.3377 -3.0643 -1.6052
15710TIP3    H268622   2.757   5.996  16.267 -1.4587  0.0261 -0.6879
15711TIP3   OH268623   5.540   6.652  16.962  0.2670 -0.0658  0.5667
15711TIP3    H168624   5.460   6.703  16.974  0.4352  1.0908 -2.3709
15711TIP3    H268625   5.611   6.710  16.991  0.2899  0.5493 -0.6592
15712TIP3   OH268626   4.040   6.340  12.819 -1.1190  0.4071 -0.4977
15712TIP3    H168627   4.004   6.350  12.907  0.5705 -0.8057  0.4080
15712TIP3    H268628   4.072   6.249  12.816 -1.7301  0.2026 -2.6144
15713TIP3   OH268629   6.684   5.274  14.018  0.0640 -0.1470 -0.1218
15713TIP3    H168630   6.678   5.266  13.923  2.1365  1.1950 -0.4305
15713TIP3    H268631   6.768   5.233  14.040 -0.7260 -1.0952  1.2432
15714TIP3   OH268632   5.938   0.731   3.450  0.0081  0.1330 -0.0291
15714TIP3    H168633   5.894   0.653   3.416 -1.3503  1.2943 -1.0493
15714TIP3    H268634   5.986   0.766   3.374 -0.7598  1.1955 -0.0468
15715TIP3   OH268635   2.331   4.211  12.551 -0.1304  0.1887  0.2605
15715TIP3    H168636   2.298   4.136  12.502 -2.3419  1.8139 -0.8921
15715TIP3    H268637   2.423   4.218  12.525 -0.5519 -0.6222 -1.6290
15716TIP3   OH268638   4.985   1.696   0.478  0.3549  0.0891  0.3018
15716TIP3    H168639   5.019   1.782   0.505 -0.9578  0.4301  0.9153
15716TIP3    H268640   5.014   1.687   0.387  0.6565  1.1027  0.2826
15717TIP3   OH268641   4.731   0.565  11.148  0.0805  0.0515 -0.2754
15717TIP3    H168642   4.765   0.477  11.136 -0.9478 -0.2475 -1.1466
15717TIP3    H268643   4.636   0.555  11.144 -0.0712  1.0862  0.4308
15718TIP3   OH268644   3.865   2.532  16.324 -0.2339  0.1994  0.0340
15718TIP3    H168645   3.832   2.489  16.403  1.4880 -0.7023  0.3215
15718TIP3    H268646   3.928   2.470  16.287 -1.1627  0.5001 -2.2145
15719TIP3   OH268647   4.857   5.770  16.994  0.9529  0.1373  0.2954
15719TIP3    H168648   4.771   5.752  17.033  0.5408  2.9873  0.9264
15719TIP3    H268649   4.838   5.826  16.918  2.1478 -0.9257 -0.8344
15720TIP3   OH268650   6.680   2.060  11.755 -0.0757 -0.3349  0.1908
15720TIP3    H168651   6.645   2.070  11.844 -0.9531  0.6969 -0.2477
15720TIP3    H268652   6.602   2.058  11.699  0.5234  0.9640 -0.7195
15721TIP3   OH268653   2.101   5.456   2.013 -0.2591 -0.0713  0.3074
15721TIP3    H168654   2.030   5.407   1.971 -0.6419  0.3201  0.5067
15721TIP3    H268655   2.061   5.497   2.090  0.2913 -0.2478  0.6951
15722TIP3   OH268656   3.133   3.928  15.218 -0.0303 -0.0768  0.2925
15722TIP3    H168657   3.040   3.911  15.227 -0.2306  0.5893 -0.3901
15722TIP3    H268658   3.138   4.020  15.192  0.7565 -0.4079 -0.7924
15723TIP3   OH268659   0.279   2.456  14.647 -0.2158  0.0877  0.8669
15723TIP3    H168660   0.368   2.479  14.623 -0.3024  0.6817  1.1214
15723TIP3    H268661   0.281   2.360  14.656  0.4106  0.1058  0.9602
15724TIP3   OH268662   2.168   4.666   2.172  0.0940 -0.6020 -0.2632
15724TIP3    H168663   2.135   4.593   2.120  1.3568 -0.2675 -1.6253
15724TIP3    H268664   2.249   4.691   2.128  1.7759 -0.9109  2.4641
15725TIP3   OH268665   2.783   4.230   5.997  0.5835 -0.5545  0.0877
15725TIP3    H168666   2.856   4.291   6.003 -0.6934  0.9959  0.4951
15725TIP3    H268667   2.789   4.177   6.076  2.8345 -2.3622 -1.1824
15726TIP3   OH268668   2.606   2.694  13.310 -0.5715 -0.3339  0.1271
15726TIP3    H168669   2.518   2.697  13.346 -1.1662  2.8169 -1.1943
15726TIP3    H268670   2.606   2.619  13.250 -1.5482 -1.7813  1.8672
15727TIP3   OH268671   4.961   1.303  14.285  0.3646 -0.2590 -0.0693
15727TIP3    H168672   5.007   1.385  14.306 -0.8232  0.8048 -1.4224
15727TIP3    H268673   4.932   1.270  14.370  2.2132 -0.1448  0.6731
15728TIP3   OH268674   3.338   4.872  12.086 -0.3147  0.4676  0.0047
15728TIP3    H168675   3.257   4.907  12.123 -0.6011 -0.5368  0.3513
15728TIP3    H268676   3.346   4.915  12.001 -1.8565 -0.2942 -0.5695
15729TIP3   OH268677   1.210   4.432  16.165  0.3564  0.2009 -0.4216
15729TIP3    H168678   1.219   4.442  16.070  3.9940  1.2327 -0.1332
15729TIP3    H268679   1.213   4.522  16.198  0.8113 -0.2183  0.7270
15730TIP3   OH268680   2.168   6.553  16.749  0.2199  0.4057 -0.0265
15730TIP3    H168681   2.088   6.546  16.696  1.2598 -0.5930 -1.5215
15730TIP3    H268682   2.205   6.465  16.749  1.2509  0.8246  0.7891
15731TIP3   OH268683   1.381   1.572  13.236 -0.2178 -0.1273 -0.6660
15731TIP3    H168684   1.378   1.480  13.210 -1.1474 -0.1773 -0.4000
15731TIP3    H268685   1.419   1.617  13.160  0.6028 -0.7715 -0.6497
15732TIP3   OH268686   6.083   4.251  16.210 -0.0743 -0.2766 -0.1978
15732TIP3    H168687   6.151   4.285  16.151 -0.3293  0.3922 -0.1118
15732TIP3    H268688   6.001   4.276  16.168 -0.2634  1.2026  0.9932
15733TIP3   OH268689   6.432   1.488   3.105 -0.1541 -0.3097 -0.3401
15733TIP3    H168690   6.396   1.452   3.185 -1.0647 -1.3733 -1.2069
15733TIP3    H268691   6.496   1.423   3.075 -2.7798 -2.0244 -2.6352
15734TIP3   OH268692   6.223   4.432  13.430 -0.1268  0.8879 -0.2186
15734TIP3    H168693   6.273   4.437  13.512 -2.5186  1.7052  1.2859
15734TIP3    H268694   6.141   4.477  13.449 -1.2828  0.0067 -2.7023
15735TIP3   OH268695   6.190   1.875   5.475  0.0074  0.4914  0.2693
15735TIP3    H168696   6.165   1.802   5.419 -0.5275 -0.4837  1.7199
15735TIP3    H268697   6.194   1.838   5.563  1.2635  1.8699  0.8376
15736TIP3   OH268698   6.454   4.646  12.145  0.5037 -0.4027 -0.6017
15736TIP3    H168699   6.476   4.591  12.221  0.9242 -0.8769 -1.0564
15736TIP3    H268700   6.531   4.701  12.132  0.3966 -0.2588 -0.6300
15737TIP3   OH268701   6.406   5.260  16.579  0.4014 -0.3025 -0.3796
15737TIP3    H168702   6.372   5.268  16.669  0.3084 -0.9613 -0.3529
15737TIP3    H268703   6.433   5.349  16.556  0.7828 -0.1909  0.4438
15738TIP3   OH268704   2.523   5.588   6.152 -0.1434  0.1976  0.3892
15738TIP3    H168705   2.464   5.516   6.174  0.4261 -1.0790 -1.9365
15738TIP3    H268706   2.607   5.563   6.189 -0.0981 -0.0200  0.1397
15739TIP3   OH268707   1.467   0.679  12.854  0.0311  0.0170  0.0880
15739TIP3    H168708   1.521   0.746  12.895  0.4017  0.6805 -1.4231
15739TIP3    H268709   1.379   0.694  12.888  0.0399  1.5439 -0.5090
15740TIP3   OH268710   6.404   0.458  16.782  0.3440  0.1391  0.1049
15740TIP3    H168711   6.482   0.476  16.835 -0.2582  0.0467  1.0325
15740TIP3    H268712   6.370   0.376  16.816 -1.7422  1.5362  1.6083
15741TIP3   OH268713   4.626   5.372  10.438  0.4258  0.3256  0.2363
15741TIP3    H168714   4.711   5.333  10.459  0.7584 -1.2680 -3.2379
15741TIP3    H268715   4.649   5.453  10.391  0.2637 -0.9678 -2.2721
15742TIP3   OH268716   1.362   3.904  15.800 -0.2956 -0.2494  0.1201
15742TIP3    H168717   1.452   3.908  15.830  0.3269 -1.0111 -1.5299
15742TIP3    H268718   1.322   3.834  15.852  0.1586 -0.1407  0.6172
15743TIP3   OH268719   1.806   4.414   3.392  0.2201  0.5967 -0.3352
15743TIP3    H168720   1.714   4.390   3.400  1.1644 -3.5242  0.2940
15743TIP3    H268721   1.831   4.385   3.305  1.2600  0.2929  0.0552
15744TIP3   OH268722   0.867   6.303   2.649  0.5009 -0.2730  0.1157
15744TIP3    H168723   0.893   6.253   2.572  2.5125 -0.3377  0.7593
15744TIP3    H268724   0.907   6.389   2.636 -2.9310  1.3170 -0.9969
15745TIP3   OH268725   6.034   6.066  12.933  0.8239  0.4781 -0.2695
15745TIP3    H168726   6.084   6.147  12.923  1.0412  0.3553 -0.1899
15745TIP3    H268727   5.947   6.087  12.898  0.9943  0.6303 -0.6053
15746TIP3   OH268728   3.635   3.735  16.401 -0.6504  0.0047  0.2093
15746TIP3    H168729   3.702   3.752  16.335  0.1810 -1.9292  0.4800
15746TIP3    H268730   3.553   3.760  16.358  0.1118  1.3238 -0.5498
15747TIP3   OH268731   5.478   1.969   3.295  0.3088 -0.1270  0.2421
15747TIP3    H168732   5.405   2.031   3.289 -0.8927 -1.5243  0.0017
15747TIP3    H268733   5.473   1.934   3.384  0.9686  0.0877  0.3691
15748TIP3   OH268734   2.778   1.225  15.746 -0.1929  0.4682  0.0396
15748TIP3    H168735   2.688   1.246  15.722 -0.4316 -1.0886 -0.5345
15748TIP3    H268736   2.825   1.221  15.662 -0.0271 -0.5629  0.1637
15749TIP3   OH268737   1.642   1.130   3.373  0.0122 -0.6577 -0.0829
15749TIP3    H168738   1.678   1.121   3.462 -1.1226  2.4398  0.8440
15749TIP3    H268739   1.572   1.064   3.369 -1.6791  0.7855  2.4339
15750TIP3   OH268740   5.027   0.798  16.674  0.1988  0.3945 -0.6107
15750TIP3    H168741   4.968   0.743  16.624  0.5651 -1.1141  0.5359
15750TIP3    H268742   5.109   0.799  16.624 -0.0053  0.4287 -0.9439
15751TIP3   OH268743   1.753   2.460  17.124 -0.1828  0.0707  0.2027
15751TIP3    H168744   1.801   2.410  17.190  0.2542 -0.2788 -0.3650
15751TIP3    H268745   1.687   2.507  17.173 -0.3425 -0.7517  0.8034
15752TIP3   OH268746   4.339   1.295   2.231  0.1283  0.4474  0.4829
15752TIP3    H168747   4.327   1.388   2.210 -0.0111  0.3012 -0.0869
15752TIP3    H268748   4.337   1.292   2.327 -1.1398  0.8770  0.4897
15753TIP3   OH268749   5.189   3.266  15.495  0.2719 -0.2595  0.4377
15753TIP3    H168750   5.260   3.229  15.443  0.7701 -1.1357  1.6970
15753TIP3    H268751   5.223   3.350  15.526 -0.0523  0.2952 -0.6793
15754TIP3   OH268752   5.864   5.508   3.676 -0.1128  0.6114 -0.2395
15754TIP3    H168753   5.923   5.572   3.715 -1.1338  0.1198  2.2988
15754TIP3    H268754   5.779   5.550   3.675 -0.4539 -0.0661 -0.2376
15755TIP3   OH268755   3.053   0.043   5.092  0.7650  0.1042  0.2131
15755TIP3    H168756   3.001   0.122   5.072 -2.8091 -1.7727  1.1689
15755TIP3    H268757   3.072   0.006   5.006 -0.6248  0.2518 -0.1982
15756TIP3   OH268758   0.079   1.036  10.672 -0.6215  0.0089 -0.1427
15756TIP3    H168759   0.058   1.099  10.742  0.1072 -0.1834  0.2631
15756TIP3    H268760   0.115   1.090  10.602 -0.0586  0.0571  0.1793
15757TIP3   OH268761   0.490   0.881   5.851 -0.2336 -0.6927 -0.1100
15757TIP3    H168762   0.541   0.838   5.920  0.8163 -0.2402 -0.5903
15757TIP3    H268763   0.415   0.919   5.898  0.3587 -0.5540  0.7621
15758TIP3   OH268764   2.411   1.151  15.715  0.1602 -0.5488  0.3913
15758TIP3    H168765   2.424   1.141  15.810  1.5795 -1.3008  0.1434
15758TIP3    H268766   2.441   1.240  15.696 -0.8137 -0.1291  0.7342
15759TIP3   OH268767   5.298   3.286   0.944  0.5054  0.2523  0.3100
15759TIP3    H168768   5.272   3.299   0.853  1.6266  2.7822  0.2728
15759TIP3    H268769   5.218   3.260   0.989 -0.4194  0.6034 -1.0813
15760TIP3   OH268770   4.296   0.542   4.348  0.0824  0.2483 -0.2973
15760TIP3    H168771   4.360   0.473   4.365 -0.6750  0.1592  2.6558
15760TIP3    H268772   4.323   0.615   4.404 -1.9983  0.4440  0.5450
15761TIP3   OH268773   6.563   4.797  11.644 -0.4167  0.6789  0.5468
15761TIP3    H168774   6.601   4.884  11.632  0.5613  0.0385 -1.5217
15761TIP3    H268775   6.513   4.781  11.564  0.5150 -1.1471  0.2731
15762TIP3   OH268776   2.351   1.662  14.259  0.1204  0.5242  0.2266
15762TIP3    H168777   2.283   1.609  14.216  0.8040  0.7387 -1.1611
15762TIP3    H268778   2.383   1.606  14.330 -1.3318  0.3324  0.7638
15763TIP3   OH268779   5.278   4.793   3.346  0.6863 -0.2148 -0.2991
15763TIP3    H168780   5.317   4.866   3.298  2.3683 -0.5204  0.5450
15763TIP3    H268781   5.254   4.830   3.431 -1.0227 -0.0108 -0.8252
15764TIP3   OH268782   6.466   2.995   5.555 -0.4865  0.4227 -0.1397
15764TIP3    H168783   6.429   2.949   5.631  0.8580 -0.3311  0.0895
15764TIP3    H268784   6.552   3.024   5.584 -0.0797  0.4027 -1.2782
15765TIP3   OH268785   1.331   1.546   1.247  0.0323  0.6953  0.6980
15765TIP3    H168786   1.277   1.503   1.180  0.8710 -1.7990  1.4869
15765TIP3    H268787   1.353   1.475   1.309  2.3002  2.0937  1.6325
15766TIP3   OH268788   0.267   0.425  10.608  0.1168 -0.2392 -0.1729
15766TIP3    H168789   0.227   0.463  10.530 -0.2651  1.0824  0.6476
15766TIP3    H268790   0.193   0.389  10.657  0.2659 -0.3512 -0.0318
15767TIP3   OH268791   6.661   2.510  13.276 -0.4179 -0.0942 -0.1966
15767TIP3    H168792   6.626   2.452  13.343  1.9147 -1.2366  0.1510
15767TIP3    H268793   6.713   2.574  13.325 -0.9155  0.7627 -0.7578
15768TIP3   OH268794   2.383   6.674  14.368  0.0371 -0.1056  0.3296
15768TIP3    H168795   2.336   6.712  14.442  0.5089  3.6429 -1.0840
15768TIP3    H268796   2.318   6.668  14.299  0.1990 -1.1396  0.2467
15769TIP3   OH268797   4.595   3.286   1.313 -0.0274  0.0157 -0.6364
15769TIP3    H168798   4.683   3.311   1.343  0.1787 -2.4524  1.1692
15769TIP3    H268799   4.599   3.295   1.218  1.7660  1.1363 -0.5150
15770TIP3   OH268800   2.814   3.530  13.589  0.1393  0.1898  0.0612
15770TIP3    H168801   2.872   3.603  13.609  0.1578  0.0836  0.3967
15770TIP3    H268802   2.866   3.452  13.610 -0.2801  0.1001  0.8067
15771TIP3   OH268803   6.296   2.827  16.919  0.2868  0.2606  0.3958
15771TIP3    H168804   6.249   2.910  16.925  1.2430  1.0157 -1.5687
15771TIP3    H268805   6.287   2.787  17.006 -1.9691  1.4238  0.7728
15772TIP3   OH268806   4.767   2.995  15.655 -0.2818 -0.4452  0.2289
15772TIP3    H168807   4.797   3.085  15.640  3.0147 -0.6939  3.7013
15772TIP3    H268808   4.782   2.950  15.572 -0.3802  1.8084 -1.0824
15773TIP3   OH268809   2.948   0.418  11.582  0.6894 -0.2780 -0.1471
15773TIP3    H168810   2.927   0.451  11.670  0.5381 -1.0976  0.1377
15773TIP3    H268811   2.973   0.327  11.596  1.7655 -0.1053 -0.8307
15774TIP3   OH268812   1.165   2.223   4.324 -0.5990 -0.8590 -0.5474
15774TIP3    H168813   1.260   2.222   4.310 -0.3843  1.5937  0.3571
15774TIP3    H268814   1.129   2.227   4.235  0.2123 -0.4256 -0.8773
15775TIP3   OH268815   6.656   0.382   3.516  0.4348  0.0273 -0.2010
15775TIP3    H168816   6.563   0.404   3.504 -0.3741 -2.3422  0.9180
15775TIP3    H268817   6.666   0.375   3.611  0.8897 -2.6953 -0.3477
15776TIP3   OH268818   4.953   5.793  11.480  0.0349  0.3037  0.3526
15776TIP3    H168819   5.031   5.815  11.429 -0.1034  0.8214  0.3603
15776TIP3    H268820   4.927   5.706  11.448  1.2110 -0.3377  1.0771
15777TIP3   OH268821   2.379   5.036   6.216 -0.8317 -0.2507 -0.0332
15777TIP3    H168822   2.380   4.943   6.193  2.1670 -0.5277  0.7621
15777TIP3    H268823   2.320   5.076   6.153 -1.8010 -2.6001 -0.7196
15778TIP3   OH268824   5.800   4.232   4.450 -0.0442 -0.1957  0.3495
15778TIP3    H168825   5.841   4.261   4.531  2.5758  1.5225 -1.4085
15778TIP3    H268826   5.780   4.314   4.403 -3.1804 -1.0713 -0.0445
15779TIP3   OH268827   5.015   4.431  13.410  0.1096  0.2970 -0.0558
15779TIP3    H168828   5.059   4.346  13.404  1.6044  1.0652 -0.7495
15779TIP3    H268829   4.973   4.431  13.496  0.3915 -0.9932  0.1029
15780TIP3   OH268830   3.572   3.693  16.021  0.4858 -0.2775  0.4425
15780TIP3    H168831   3.513   3.658  15.954  3.1296 -1.6069 -1.4119
15780TIP3    H268832   3.647   3.633  16.020  2.2957  1.7971  1.9580
15781TIP3   OH268833   1.509   3.287   4.744 -0.1962 -0.7312 -0.2614
15781TIP3    H168834   1.536   3.379   4.742  0.0384 -0.8044 -0.5376
15781TIP3    H268835   1.547   3.249   4.664 -0.4912 -1.0107 -0.2707
15782TIP3   OH268836   0.290   2.583  17.028  0.0871  0.3278  1.0062
15782TIP3    H168837   0.355   2.617  16.966 -0.1286 -1.8456 -0.5231
15782TIP3    H268838   0.284   2.651  17.096  1.5168  2.0775 -0.5022
15783TIP3   OH268839   1.613   6.750   3.027  0.7696  0.2900 -0.1990
15783TIP3    H168840   1.681   6.689   3.056  0.0280  0.9185  3.3995
15783TIP3    H268841   1.538   6.694   3.005  0.9536 -0.2226  0.4354
15784TIP3   OH268842   4.385   4.629   0.692 -0.2133 -0.0185  0.5021
15784TIP3    H168843   4.305   4.650   0.741 -1.1370 -0.9537 -0.5656
15784TIP3    H268844   4.410   4.711   0.650  0.2086  0.6278  1.9457
15785TIP3   OH268845   0.872   1.240   3.532  0.5003 -0.3834  0.4375
15785TIP3    H168846   0.853   1.289   3.452 -1.7631  0.0898  1.1829
15785TIP3    H268847   0.914   1.303   3.590  0.2577 -0.1354  0.3469
15786TIP3   OH268848   3.937   1.669  11.040 -0.0903 -0.6611 -0.2344
15786TIP3    H168849   4.017   1.714  11.067  1.1244 -0.2521 -3.8453
15786TIP3    H268850   3.876   1.740  11.020 -1.2284 -0.9607  1.9275
15787TIP3   OH268851   2.501   6.131  15.329  0.0241  0.0199  0.1571
15787TIP3    H168852   2.447   6.189  15.277  0.6996 -1.1097 -1.9165
15787TIP3    H268853   2.446   6.108  15.404 -2.0779 -0.4366 -1.4259
15788TIP3   OH268854   5.242   0.931  12.456 -1.1219  0.6952  0.2520
15788TIP3    H168855   5.150   0.957  12.461 -2.1536 -2.6709  1.5448
15788TIP3    H268856   5.284   0.971  12.532 -1.7589  1.3828  0.2465
15789TIP3   OH268857   6.158   4.397   4.575  0.0220  1.0828 -0.4433
15789TIP3    H168858   6.184   4.441   4.656 -0.1296 -1.3290  1.0111
15789TIP3    H268859   6.082   4.343   4.600 -1.1645  1.5911 -2.6254
15790TIP3   OH268860   2.787   6.176   5.727 -0.2001 -0.0737  0.3892
15790TIP3    H168861   2.829   6.149   5.645  0.8708 -0.6518  1.0982
15790TIP3    H268862   2.832   6.125   5.794 -0.5488  0.9298  1.4123
15791TIP3   OH268863   1.895   0.960  13.793  0.3209  0.3799 -0.2174
15791TIP3    H168864   1.969   1.019  13.788  0.0444  0.9020  1.4129
15791TIP3    H268865   1.835   0.991  13.725  0.2938  1.8255  0.4339
15792TIP3   OH268866   6.827   5.796   4.172  0.6195 -0.0905 -0.2979
15792TIP3    H168867   6.773   5.771   4.247 -1.1436  1.1310 -1.0910
15792TIP3    H268868   6.916   5.799   4.206 -0.1100  0.2530  1.7113
15793TIP3   OH268869   3.143   2.157  12.382 -0.2283  0.0336 -0.3279
15793TIP3    H168870   3.124   2.114  12.466 -0.0115 -0.4585 -0.5254
15793TIP3    H268871   3.069   2.134  12.326  0.8487 -1.7979 -1.0644
15794TIP3   OH268872   6.558   2.869  15.117  0.0777  0.4904  0.7832
15794TIP3    H168873   6.649   2.842  15.131  0.3419  1.3328  0.7268
15794TIP3    H268874   6.513   2.788  15.093  1.1371  0.3075 -0.7173
15795TIP3   OH268875   3.037   0.308   1.149 -0.0444 -0.0255 -0.7060
15795TIP3    H168876   3.099   0.370   1.188  1.5669 -0.9144 -1.7067
15795TIP3    H268877   3.090   0.230   1.133 -1.1963 -0.4948 -2.4931
15796TIP3   OH268878   3.189   4.739  11.475 -0.1553 -0.4680  0.2730
15796TIP3    H168879   3.155   4.653  11.452 -1.6247  0.2084 -0.2322
15796TIP3    H268880   3.225   4.728  11.564 -1.0943 -1.3905  0.5588
15797TIP3   OH268881   1.545   3.918  16.452 -0.1659 -0.3953 -0.3422
15797TIP3    H168882   1.587   3.850  16.399  0.4724 -1.0268  0.9237
15797TIP3    H268883   1.525   3.988  16.390  0.4331 -1.1576 -1.4299
15798TIP3   OH268884   2.234   1.860   1.767 -0.1520  0.3590 -0.1511
15798TIP3    H168885   2.212   1.943   1.810 -0.5734  0.5005 -0.6189
15798TIP3    H268886   2.276   1.808   1.835 -0.8831  0.5403  0.4572
15799TIP3   OH268887   5.684   0.347   3.228  0.6813 -0.0522  0.4238
15799TIP3    H168888   5.706   0.300   3.147  0.8242  0.5082  0.1370
15799TIP3    H268889   5.594   0.376   3.216  0.3932 -0.7310  0.8376
15800TIP3   OH268890   3.288   4.504   4.142 -0.2160  0.3589  0.1760
15800TIP3    H168891   3.326   4.484   4.057  0.8337 -3.2106  1.2954
15800TIP3    H268892   3.313   4.595   4.160  0.1324  0.9724 -2.9215
15801TIP3   OH268893   1.241   4.807  14.778  0.6811 -0.2006  0.3241
15801TIP3    H168894   1.290   4.799  14.697 -1.4877 -3.5492 -0.9148
15801TIP3    H268895   1.178   4.877  14.762  1.7408  0.7053  0.0343
15802TIP3   OH268896   2.635   2.966  15.076 -0.6481 -0.2295  0.5701
15802TIP3    H168897   2.668   3.054  15.056 -0.7010 -0.1837  0.6799
15802TIP3    H268898   2.587   2.977  15.158  1.3761 -0.8106  1.9299
15803TIP3   OH268899   3.315   6.338   0.957  0.0038  0.2773 -0.2362
15803TIP3    H168900   3.238   6.389   0.980  0.1954 -0.5092  2.4953
15803TIP3    H268901   3.285   6.248   0.956  0.1345  0.1706 -2.9663
15804TIP3   OH268902   1.658   3.165  12.658  0.1259  0.1855 -0.4552
15804TIP3    H168903   1.747   3.192  12.679  0.4044 -0.2419 -1.0735
15804TIP3    H268904   1.603   3.225  12.708  0.7571  0.4830 -0.1057
15805TIP3   OH268905   3.302   6.363   4.014  0.1666 -0.0129 -0.2561
15805TIP3    H168906   3.270   6.279   3.981  0.9302 -0.6810  0.6432
15805TIP3    H268907   3.315   6.349   4.108  1.3035  0.7773 -0.2693
15806TIP3   OH268908   0.963   1.416   3.300 -0.2690  0.7523  0.0272
15806TIP3    H168909   0.976   1.505   3.333  0.1814  0.8908 -0.5127
15806TIP3    H268910   0.925   1.428   3.213 -0.6407  0.4083  0.1428
15807TIP3   OH268911   4.049   1.233   3.438 -0.6314 -0.2595 -0.1012
15807TIP3    H168912   4.043   1.320   3.397 -1.2278  1.5538  3.4833
15807TIP3    H268913   4.142   1.210   3.434 -0.6272 -0.0738 -2.1084
15808TIP3   OH268914   5.448   3.479   0.568 -0.2049 -0.0474 -0.8579
15808TIP3    H168915   5.490   3.546   0.514  0.3376  0.3259  0.0208
15808TIP3    H268916   5.508   3.404   0.564  0.2015  0.2367 -0.1844
15809TIP3   OH268917   0.171   4.105  11.689  0.2326 -0.2443 -0.0934
15809TIP3    H168918   0.188   4.042  11.759  0.1575 -1.3480 -1.0423
15809TIP3    H268919   0.147   4.052  11.614  1.6701  0.8397 -1.3762
15810TIP3   OH268920   2.295   2.204  14.502 -0.2969 -0.7269  0.1641
15810TIP3    H168921   2.300   2.295  14.474  2.0670 -0.9296 -0.2146
15810TIP3    H268922   2.314   2.206  14.595 -0.0047 -0.8463  0.1088
15811TIP3   OH268923   4.960   2.655   6.548  0.0439  0.1183  0.1685
15811TIP3    H168924   4.950   2.742   6.510 -0.4336  0.1282  0.3119
15811TIP3    H268925   4.925   2.662   6.637 -0.0092 -0.2201  0.1783
15812TIP3   OH268926   5.651   2.891   1.667  0.7779  0.2204 -0.2480
15812TIP3    H168927   5.682   2.815   1.617  0.8038  1.2669 -1.9131
15812TIP3    H268928   5.562   2.868   1.693  1.6219 -1.3636  1.4703
15813TIP3   OH268929   5.740   5.527   0.845 -0.2099  0.2729  0.3332
15813TIP3    H168930   5.784   5.477   0.777  2.3936  1.0967  1.2769
15813TIP3    H268931   5.648   5.528   0.819  0.2126 -1.9220 -1.5564
15814TIP3   OH268932   6.494   6.381  11.986 -0.2792  0.3350  0.3136
15814TIP3    H168933   6.536   6.467  11.985  0.9701 -0.2294  1.0237
15814TIP3    H268934   6.403   6.398  11.961 -0.8665  2.2971  3.2728
15815TIP3   OH268935   3.582   0.994   2.606  0.1845  0.1359  0.4798
15815TIP3    H168936   3.525   0.967   2.533  1.0339  0.9362 -0.5180
15815TIP3    H268937   3.530   0.979   2.684 -1.2227  0.4078 -0.3707
15816TIP3   OH268938   5.859   6.052   5.085  0.0883  0.0481 -0.2631
15816TIP3    H168939   5.904   6.081   5.164 -1.4448 -1.6864  1.3497
15816TIP3    H268940   5.890   5.963   5.070 -0.1113  0.1327 -1.2660
15817TIP3   OH268941   1.635   4.388   1.324 -0.3728 -0.0917 -0.3567
15817TIP3    H168942   1.699   4.374   1.394  0.0954  1.7515 -0.3698
15817TIP3    H268943   1.551   4.369   1.365 -0.1324  1.1972  0.8365
15818TIP3   OH268944   6.367   4.473  11.908 -0.1875 -0.7829  0.2034
15818TIP3    H168945   6.421   4.535  11.957 -0.6174 -0.7427  0.6274
15818TIP3    H268946   6.431   4.418  11.862  0.2052 -0.3797  0.2546
15819TIP3   OH268947   6.380   6.218  16.413  0.1667 -0.4376  0.2445
15819TIP3    H168948   6.437   6.291  16.387  0.2262 -1.2561 -2.1427
15819TIP3    H268949   6.316   6.258  16.472 -0.3309  1.7796 -1.6409
15820TIP3   OH268950   2.807   2.801  17.013 -0.2202 -0.4794  0.4142
15820TIP3    H168951   2.754   2.808  16.933  2.3394 -0.6064 -1.4000
15820TIP3    H268952   2.850   2.716  17.006  1.4351  0.2787  1.0221
15821TIP3   OH268953   3.516   5.549   5.119  0.2143 -0.1856  0.1161
15821TIP3    H168954   3.443   5.488   5.133  0.2189 -0.2840 -0.2861
15821TIP3    H268955   3.523   5.557   5.024 -0.3660  1.1524  0.1769
15822TIP3   OH268956   2.475   5.110   3.230  0.7241  0.8536 -0.8396
15822TIP3    H168957   2.531   5.134   3.156 -0.7636  0.1599 -2.2355
15822TIP3    H268958   2.526   5.046   3.279  0.7644 -0.6665 -2.7358
15823TIP3   OH268959   6.518   1.950   1.832  0.0308  0.3721 -0.0211
15823TIP3    H168960   6.455   2.016   1.803 -0.8174 -0.5939 -0.4512
15823TIP3    H268961   6.494   1.930   1.922 -0.1852  0.1038 -0.1391
15824TIP3   OH268962   4.534   6.332   4.957 -0.1810 -0.8432 -0.3074
15824TIP3    H168963   4.550   6.261   4.895  0.6402 -1.0986  0.1820
15824TIP3    H268964   4.598   6.319   5.026  1.4711  1.5634 -1.2325
15825TIP3   OH268965   1.186   6.307   0.195  0.2748  0.8031  0.3546
15825TIP3    H168966   1.094   6.299   0.221 -0.3897 -0.2478 -2.0348
15825TIP3    H268967   1.210   6.396   0.220 -0.6566  0.3638  3.0853
15826TIP3   OH268968   1.072   0.405  11.271  0.2460  0.2042  0.1345
15826TIP3    H168969   1.013   0.448  11.208 -2.0980 -1.6011  0.9239
15826TIP3    H268970   1.040   0.434  11.356  1.1679 -0.0327  0.5669
15827TIP3   OH268971   2.264   1.282   0.900 -0.1714 -0.5068  0.6692
15827TIP3    H168972   2.289   1.216   0.836  2.7947 -0.4723  1.6626
15827TIP3    H268973   2.278   1.366   0.857  0.0882 -0.4954  0.7762
15828TIP3   OH268974   3.918   1.149  13.207  0.0893 -0.6444  0.1077
15828TIP3    H168975   3.991   1.181  13.260  1.3634  0.6104 -2.2408
15828TIP3    H268976   3.842   1.154  13.265  1.3862  0.6541  1.8039
15829TIP3   OH268977   4.672   0.878  15.305  0.1928  0.2475 -0.1135
15829TIP3    H168978   4.706   0.968  15.313 -1.0387  0.7824 -0.6142
15829TIP3    H268979   4.694   0.837  15.389  2.2114  0.4709 -0.4725
15830TIP3   OH268980   6.279   2.930   5.800  0.3723 -0.1809  0.0055
15830TIP3    H168981   6.224   2.857   5.827  1.9681 -1.5522 -0.2812
15830TIP3    H268982   6.322   2.958   5.880 -0.0940  0.3475  0.0799
15831TIP3   OH268983   5.889   3.475  12.998 -0.2187 -0.3764  0.5394
15831TIP3    H168984   5.860   3.424  12.923 -0.1350  0.1258  0.1617
15831TIP3    H268985   5.810   3.487  13.051 -0.2985 -0.6468  0.4819
15832TIP3   OH268986   1.557   6.557  12.206  1.1690  0.1516 -0.7051
15832TIP3    H168987   1.512   6.476  12.232  0.7050  0.5091 -0.3763
15832TIP3    H268988   1.522   6.578  12.120  0.3333  0.6866 -0.2502
15833TIP3   OH268989   0.691   5.798  11.490  0.1194 -0.2275  0.5873
15833TIP3    H168990   0.714   5.708  11.512  2.9263  0.8811  2.7741
15833TIP3    H268991   0.747   5.819  11.415 -0.9899 -0.4444 -0.3264
15834TIP3   OH268992   1.431   6.748   3.313 -0.5674 -0.0434  0.0269
15834TIP3    H168993   1.423   6.828   3.261 -0.8840 -0.7331 -1.0273
15834TIP3    H268994   1.406   6.774   3.401 -1.6200  0.8182 -0.4983
15835TIP3   OH268995   3.508   3.011  11.034  0.0745  0.4758  0.0545
15835TIP3    H168996   3.453   2.995  10.958  0.8916  2.5926 -1.0695
15835TIP3    H268997   3.594   3.034  10.998  0.5036  1.5137  1.5849
15836TIP3   OH268998   1.678   6.195  13.219 -0.3459  0.1386  0.5299
15836TIP3    H168999   1.771   6.211  13.234 -0.6327  1.6445  0.8358
15836TIP3    H269000   1.637   6.281  13.225 -1.5528 -0.2518 -1.2582
15837TIP3   OH269001   2.404   6.620  16.881 -0.2714 -0.5702  0.3145
15837TIP3    H169002   2.389   6.591  16.971  0.5938 -0.8539  0.3831
15837TIP3    H269003   2.319   6.612  16.838 -0.8417  0.1506  1.2644
15838TIP3   OH269004   2.809   4.181  16.919 -0.0711  0.5383 -0.7963
15838TIP3    H169005   2.835   4.210  17.006  1.7661  1.5870 -1.6446
15838TIP3    H269006   2.713   4.178  16.923 -0.0353  0.2716  1.3220
15839TIP3   OH269007   2.243   6.400  13.163  0.2214 -0.1083 -0.2046
15839TIP3    H169008   2.303   6.469  13.191  1.5403 -0.5043 -1.8679
15839TIP3    H269009   2.259   6.391  13.069 -1.5945 -1.0877 -0.4785
15840TIP3   OH269010   4.390   5.328   5.367 -0.4340 -0.3098  0.2961
15840TIP3    H169011   4.300   5.362   5.372 -0.4709 -0.2178 -0.7555
15840TIP3    H269012   4.412   5.305   5.457 -0.1369  3.1813  1.2729
15841TIP3   OH269013   4.825   1.585   3.627 -0.0964  0.1856  0.3401
15841TIP3    H169014   4.863   1.572   3.540  0.5553 -2.1422  0.8831
15841TIP3    H269015   4.733   1.564   3.616  0.0864 -0.6299  0.2847
15842TIP3   OH269016   1.479   1.616  15.424  0.0357 -0.0759  0.3520
15842TIP3    H169017   1.546   1.548  15.426 -1.2032 -1.4495 -1.4087
15842TIP3    H269018   1.406   1.580  15.475 -1.0761 -0.6747 -1.5489
15843TIP3   OH269019   2.725   6.671   1.770 -0.4414 -0.8537 -0.5540
15843TIP3    H169020   2.644   6.635   1.806  0.6235 -3.5887 -0.6333
15843TIP3    H269021   2.696   6.728   1.699 -2.3438  0.3452  1.0776
15844TIP3   OH269022   3.857   0.629  17.066 -0.4603  0.7373 -0.0858
15844TIP3    H169023   3.918   0.703  17.060  0.1377  0.2080 -0.6066
15844TIP3    H269024   3.885   0.581  17.144 -0.1555  0.4448 -0.3752
15845TIP3   OH269025   1.712   1.567  12.316  0.5399  0.2041  0.6445
15845TIP3    H169026   1.619   1.585  12.299  1.1187  2.3679 -0.7292
15845TIP3    H269027   1.747   1.541  12.230  1.0740 -1.4030  1.3182
15846TIP3   OH269028   6.094   1.663  11.959  0.0823  0.2209  0.7686
15846TIP3    H169029   6.079   1.737  11.901 -1.0331 -1.1957 -0.8550
15846TIP3    H269030   6.007   1.636  11.987  0.5560  0.4230  2.5714
15847TIP3   OH269031   2.219   5.971   3.513 -0.0287 -0.1172 -0.2599
15847TIP3    H169032   2.131   5.963   3.551  0.6335 -2.6920  0.9167
15847TIP3    H269033   2.243   6.062   3.528 -1.7587  0.1762  1.0888
15848TIP3   OH269034   3.673   2.648  16.150  0.5995  0.1269  0.4510
15848TIP3    H169035   3.757   2.649  16.196  1.3833 -1.0935 -0.8808
15848TIP3    H269036   3.654   2.740  16.133  1.5596  0.4334  0.9592
15849TIP3   OH269037   2.517   1.423  11.634  0.4285 -0.4197 -0.0854
15849TIP3    H169038   2.435   1.471  11.631  1.5169  1.4510 -1.7800
15849TIP3    H269039   2.516   1.380  11.720 -1.1842  1.5733  0.9782
15850TIP3   OH269040   4.113   4.800  13.513  0.7435 -0.0584 -0.1865
15850TIP3    H169041   4.162   4.724  13.543  1.1538  0.3664  0.2339
15850TIP3    H269042   4.025   4.789  13.549  0.2267 -1.3018 -1.7186
15851TIP3   OH269043   3.282   6.269  11.785  0.1695 -0.4207  0.0706
15851TIP3    H169044   3.255   6.331  11.852 -1.9937  1.4382 -2.3526
15851TIP3    H269045   3.378   6.266  11.792  0.0318 -1.0976  3.7544
15852TIP3   OH269046   0.299   4.631  14.499 -0.9897 -0.1458 -0.0064
15852TIP3    H169047   0.320   4.621  14.407 -1.1983 -0.1279 -0.0576
15852TIP3    H269048   0.354   4.568  14.544 -2.1869 -1.4609 -0.3053
15853TIP3   OH269049   3.192   3.777   3.924  0.2608 -1.0013  0.0307
15853TIP3    H169050   3.105   3.736   3.929 -0.7639  1.0690  0.2686
15853TIP3    H269051   3.185   3.839   3.851  1.6386 -1.0092 -0.1231
15854TIP3   OH269052   1.054   6.653  14.954 -0.0159 -0.8116 -0.3178
15854TIP3    H169053   0.969   6.625  14.988 -0.8662  0.5091 -1.2673
15854TIP3    H269054   1.114   6.643  15.028 -1.1951 -0.8010  0.6725
15855TIP3   OH269055   0.082   4.658   2.323 -0.9736 -0.1150  0.3042
15855TIP3    H169056   0.042   4.717   2.258 -1.1500 -1.1457 -0.5595
15855TIP3    H269057   0.033   4.576   2.313  1.6345 -1.6096 -1.1385
15856TIP3   OH269058   5.715   2.667  16.903 -0.3422  0.7794 -0.1592
15856TIP3    H169059   5.640   2.617  16.872 -1.0962  0.4633  1.9775
15856TIP3    H269060   5.782   2.601  16.920 -0.0624  0.9083 -0.7526
15857TIP3   OH269061   2.474   5.390  10.537  0.5218  0.2209  0.0745
15857TIP3    H169062   2.450   5.482  10.544 -1.7285 -0.2616 -0.4880
15857TIP3    H269063   2.545   5.387  10.474  1.0551  1.6140  0.5818
15858TIP3   OH269064   0.609   3.550  15.812  0.3172 -1.1421  0.1308
15858TIP3    H169065   0.620   3.601  15.732 -0.6572 -0.2029  0.5790
15858TIP3    H269066   0.658   3.470  15.796  2.8385  0.3539 -0.1926
15859TIP3   OH269067   5.255   1.980   1.586  0.5175 -0.1632 -0.1093
15859TIP3    H169068   5.254   2.041   1.660 -1.0705 -1.7854  1.3083
15859TIP3    H269069   5.165   1.982   1.552  0.9327 -0.3214 -1.2349
15860TIP3   OH269070   5.964   2.920   0.409 -0.2685 -0.2684  0.0620
15860TIP3    H169071   5.904   2.921   0.484  0.1481 -0.5804  0.4045
15860TIP3    H269072   5.908   2.897   0.335 -0.9484  1.3580  0.0232
15861TIP3   OH269073   3.568   5.007   2.084  0.0028 -0.5338 -0.1558
15861TIP3    H169074   3.500   4.958   2.132 -0.3747 -0.4976 -0.6510
15861TIP3    H269075   3.572   4.965   1.999  1.8165 -1.6325  0.4278
15862TIP3   OH269076   1.780   4.171  14.624 -0.4181  0.1097 -0.6490
15862TIP3    H169077   1.783   4.156  14.718  1.5090  0.5934 -0.5800
15862TIP3    H269078   1.830   4.098  14.586 -1.3048 -0.1673 -1.3198
15863TIP3   OH269079   3.398   2.081   3.396  0.0200 -0.3922  0.1286
15863TIP3    H169080   3.365   2.050   3.311  1.6770  0.5045 -0.8967
15863TIP3    H269081   3.348   2.160   3.414 -2.3136 -2.0489  1.4287
15864TIP3   OH269082   6.502   1.700  10.783  0.1073  0.0192  0.0098
15864TIP3    H169083   6.480   1.788  10.754  0.4649 -0.8026 -3.0261
15864TIP3    H269084   6.597   1.696  10.778  0.0924 -0.5499  0.0990
15865TIP3   OH269085   6.277   5.159  12.289 -0.0821  0.4753 -0.1760
15865TIP3    H169086   6.318   5.175  12.375 -1.6954 -0.9812  0.9302
15865TIP3    H269087   6.293   5.066  12.272 -0.2578  0.6287 -1.2058
15866TIP3   OH269088   5.824   0.602   1.880  0.9812  0.2989 -0.0516
15866TIP3    H169089   5.866   0.532   1.829  0.1918 -0.1217 -0.1574
15866TIP3    H269090   5.847   0.584   1.971 -0.1563 -0.8140  0.0512
15867TIP3   OH269091   4.739   0.185   2.232  0.1379 -0.2318  0.6919
15867TIP3    H169092   4.677   0.156   2.165  0.1040 -0.2015  0.7096
15867TIP3    H269093   4.813   0.220   2.183 -0.6100  1.3779  0.6394
15868TIP3   OH269094   1.955   6.818   1.419  0.5922 -0.1676 -0.0127
15868TIP3    H169095   1.965   6.855   1.507  0.4068  0.7785 -0.3766
15868TIP3    H269096   1.862   6.825   1.400  0.4398 -1.4645  0.1691
15869TIP3   OH269097   2.395   0.595   5.794  0.5463 -0.3307 -0.6332
15869TIP3    H169098   2.365   0.632   5.877 -1.7698  0.1891 -1.6167
15869TIP3    H269099   2.479   0.554   5.815 -0.9446 -2.1869  2.4802
15870TIP3   OH269100   0.270   3.443  10.833 -0.0321  0.7981  0.3305
15870TIP3    H169101   0.177   3.464  10.841 -0.6187 -1.0553 -1.0150
15870TIP3    H269102   0.302   3.500  10.763 -0.4726  0.5237 -0.0962
15871TIP3   OH269103   6.517   1.159   6.772  0.0957  0.5464 -0.1108
15871TIP3    H169104   6.534   1.248   6.741  0.5070  0.4037 -0.3100
15871TIP3    H269105   6.542   1.103   6.698 -0.5547  0.2835 -0.1382
15872TIP3   OH269106   4.363   2.540  13.592 -0.4649  0.2303  0.5566
15872TIP3    H169107   4.321   2.464  13.632 -0.9724 -0.7434 -1.6447
15872TIP3    H269108   4.456   2.518  13.593 -0.5973 -0.3992  0.0293
15873TIP3   OH269109   4.209   0.709  16.841 -0.0629  0.3092 -0.5412
15873TIP3    H169110   4.252   0.705  16.927  0.1863 -2.3971 -0.7113
15873TIP3    H269111   4.280   0.726  16.779  0.3264 -1.0687 -0.5062
15874TIP3   OH269112   4.960   3.784   6.009 -0.5234  0.1997  0.3736
15874TIP3    H169113   4.885   3.769   6.067 -0.7687  1.8200  0.5037
15874TIP3    H269114   5.036   3.768   6.064 -0.7471  2.1900  1.3246
15875TIP3   OH269115   6.499   4.988   0.313  0.1465  0.6696  0.0887
15875TIP3    H169116   6.467   4.929   0.244  1.7727  0.0792 -0.2058
15875TIP3    H269117   6.548   5.054   0.265  1.5238  0.0997  0.6754
15876TIP3   OH269118   3.209   6.431  11.542  0.2426 -0.1162 -0.6135
15876TIP3    H169119   3.136   6.487  11.569 -0.9536 -1.7626 -0.2272
15876TIP3    H269120   3.246   6.399  11.624 -0.1120 -1.1157 -0.8315
15877TIP3   OH269121   3.450   1.590   0.199  0.3834 -0.9758  0.2803
15877TIP3    H169122   3.491   1.670   0.166  0.9449 -1.8668 -1.2811
15877TIP3    H269123   3.511   1.520   0.177 -0.1348 -1.8721  1.5489
15878TIP3   OH269124   1.939   5.378   4.003 -0.0721 -0.2167 -0.1868
15878TIP3    H169125   1.923   5.399   3.911  0.2771  0.0584 -0.1828
15878TIP3    H269126   1.944   5.463   4.047  0.1259 -0.3383  0.0276
15879TIP3   OH269127   6.294   4.435   1.810  0.1996 -0.1890 -0.1273
15879TIP3    H169128   6.325   4.433   1.719  0.2004  0.6750 -0.1598
15879TIP3    H269129   6.312   4.348   1.844  0.9763 -0.2610 -0.7023
15880TIP3   OH269130   5.841   5.240   0.377 -0.4900 -0.0430  0.6441
15880TIP3    H169131   5.844   5.243   0.282 -0.9790 -1.4492  0.5693
15880TIP3    H269132   5.829   5.148   0.399 -0.8930  0.3107  2.0539
15881TIP3   OH269133   5.378   6.228   5.598 -0.2312  0.4254  0.5440
15881TIP3    H169134   5.473   6.239   5.604 -0.3206  1.7088 -0.0605
15881TIP3    H269135   5.342   6.290   5.661 -0.6697 -0.1538  0.8692
15882TIP3   OH269136   0.687   5.605  14.298  0.4550  0.3167  0.4081
15882TIP3    H169137   0.753   5.539  14.277  0.2849  0.1259  0.4792
15882TIP3    H269138   0.613   5.556  14.333 -0.4788  0.3473 -1.3900
15883TIP3   OH269139   1.802   0.169  15.510  0.3650  0.7926  0.1917
15883TIP3    H169140   1.823   0.103  15.576  3.0015 -0.5891 -1.8026
15883TIP3    H269141   1.822   0.126  15.426  0.6093  3.5688 -1.2915
15884TIP3   OH269142   2.090   2.519   2.069  0.3397  0.5935  0.6966
15884TIP3    H169143   2.133   2.587   2.122  4.1659  0.2844 -1.6487
15884TIP3    H269144   2.161   2.459   2.045 -1.7204 -0.8560 -2.3851
15885TIP3   OH269145   1.053   6.811  13.227 -0.7408  0.1851  0.3598
15885TIP3    H169146   1.148   6.818  13.234 -0.9128  1.2160  2.2546
15885TIP3    H269147   1.038   6.783  13.136  1.3088  0.6827 -0.1900
15886TIP3   OH269148   2.207   2.683  12.162  0.5072  0.0229  0.0238
15886TIP3    H169149   2.262   2.663  12.087  3.4980  3.4571  1.0251
15886TIP3    H269150   2.257   2.652  12.237 -0.2343  0.7360  0.8363
15887TIP3   OH269151   6.147   0.223  14.788 -0.5916 -0.2438 -0.1811
15887TIP3    H169152   6.171   0.143  14.835  1.3772  0.9385  1.0015
15887TIP3    H269153   6.069   0.255  14.833 -1.6486 -1.6750 -0.9373
15888TIP3   OH269154   3.360   1.325   2.849 -0.3844  0.4866 -0.4461
15888TIP3    H169155   3.364   1.229   2.840 -0.3260  0.4132  0.2481
15888TIP3    H269156   3.282   1.340   2.903 -0.4217  0.8320 -0.5974
15889TIP3   OH269157   3.505   6.429   5.138 -0.0985 -0.0459 -0.2316
15889TIP3    H169158   3.558   6.508   5.121 -0.6496  0.2184 -0.7443
15889TIP3    H269159   3.563   6.356   5.115  0.5343  0.1869  0.5628
15890TIP3   OH269160   1.856   5.398   3.320  0.0262  0.3326  0.5116
15890TIP3    H169161   1.905   5.352   3.388 -0.2349  0.2205  0.6238
15890TIP3    H269162   1.921   5.415   3.252  0.7040  2.0074  1.5164
15891TIP3   OH269163   3.027   1.219  13.578  0.0459  0.4837  0.3048
15891TIP3    H169164   3.025   1.123  13.574  0.4934  0.5031 -0.5710
15891TIP3    H269165   3.088   1.238  13.650 -1.1913  0.1192  1.4829
15892TIP3   OH269166   0.866   0.659   0.509 -0.2798  0.0582 -0.2657
15892TIP3    H169167   0.917   0.582   0.483  0.0001 -1.0970  3.1239
15892TIP3    H269168   0.775   0.629   0.507 -0.7053  1.2117 -3.4474
15893TIP3   OH269169   5.887   0.946   5.857  0.0302  0.2921  0.1863
15893TIP3    H169170   5.807   0.892   5.855 -0.7649  1.4431  0.1366
15893TIP3    H269171   5.856   1.034   5.878  1.3218  0.7245  0.3641
15894TIP3   OH269172   3.667   4.802  14.875 -0.9039 -0.0112  0.1886
15894TIP3    H169173   3.622   4.736  14.822 -1.7934  0.0971  0.8026
15894TIP3    H269174   3.739   4.754  14.916  1.2637  0.3343 -2.8158
15895TIP3   OH269175   2.950   4.422  12.975 -0.3610 -0.0763 -0.9774
15895TIP3    H169176   3.011   4.480  12.929 -1.8180  1.4466 -1.0765
15895TIP3    H269177   2.977   4.429  13.067 -1.4572  2.0760 -0.7483
15896TIP3   OH269178   3.918   4.413   2.452 -0.6533 -0.5225 -0.6033
15896TIP3    H169179   3.906   4.328   2.495 -0.9713  0.2023  0.7904
15896TIP3    H269180   4.010   4.434   2.466 -1.2027  0.7237  1.7874
15897TIP3   OH269181   4.141   6.016   3.107 -0.6441 -0.5748  0.0318
15897TIP3    H169182   4.112   6.107   3.113 -0.4815 -0.4109 -1.4668
15897TIP3    H269183   4.065   5.969   3.073 -1.2686 -1.3225  2.2800
15898TIP3   OH269184   1.936   4.699   5.190  0.0302 -0.0913  0.5919
15898TIP3    H169185   2.011   4.747   5.225  1.8096 -0.6355 -2.2081
15898TIP3    H269186   1.937   4.615   5.235  2.5051 -0.9319 -0.8667
15899TIP3   OH269187   0.778   6.827   6.068  0.4879  0.6323  0.0113
15899TIP3    H169188   0.701   6.880   6.087 -0.3330 -0.1882 -0.9150
15899TIP3    H269189   0.845   6.861   6.127 -0.0414  2.5801 -0.4060
15900TIP3   OH269190   3.594   5.676  16.401 -0.6774 -0.1806  0.9219
15900TIP3    H169191   3.592   5.747  16.465  1.3268 -1.0677  2.0796
15900TIP3    H269192   3.560   5.600  16.448 -0.5459 -0.5326  0.4589
15901TIP3   OH269193   0.504   4.342  16.508  0.6052 -0.2287  0.1219
15901TIP3    H169194   0.520   4.419  16.452  1.1976  0.6517  1.4406
15901TIP3    H269195   0.589   4.298  16.512  0.6846 -0.0400  0.6534
15902TIP3   OH269196   1.659   1.820   4.319 -0.5999  0.3073  0.0968
15902TIP3    H169197   1.712   1.852   4.392 -1.9626  1.6524  0.5439
15902TIP3    H269198   1.659   1.725   4.330 -0.0831  0.4309  1.3426
15903TIP3   OH269199   6.328   3.803  15.269 -0.0243  0.1049 -0.4733
15903TIP3    H169200   6.362   3.893  15.265 -1.0504  0.8026  2.8987
15903TIP3    H269201   6.233   3.814  15.274 -0.1933 -1.2238 -0.5159
15904TIP3   OH269202   2.380   0.596  14.696 -0.1144  0.1507 -0.0934
15904TIP3    H169203   2.447   0.529  14.712 -0.8844 -0.4439  0.7235
15904TIP3    H269204   2.343   0.574  14.611 -1.2462 -1.2707  0.7155
15905TIP3   OH269205   1.703   4.008  12.282  0.1395 -0.3836  0.0400
15905TIP3    H169206   1.633   4.066  12.312  1.1236  0.2192  1.2635
15905TIP3    H269207   1.676   3.921  12.312 -1.5622 -0.7173 -2.1862
15906TIP3   OH269208   3.414   4.752   2.536 -0.0145 -0.4035 -0.1880
15906TIP3    H169209   3.489   4.741   2.595  1.0947  0.9789 -1.2670
15906TIP3    H269210   3.400   4.665   2.498  0.2306 -0.9574  0.9333
15907TIP3   OH269211   5.743   1.181  12.670  0.1154  0.5207  0.0799
15907TIP3    H169212   5.782   1.104  12.630  0.2844  0.7622 -0.2206
15907TIP3    H269213   5.649   1.162  12.673  0.0010  0.7985 -1.1130
15908TIP3   OH269214   5.866   3.091   1.056 -0.4190  0.3204  0.7232
15908TIP3    H169215   5.830   3.106   1.143 -1.5802  4.2527 -0.2451
15908TIP3    H269216   5.790   3.087   0.998  0.4083  1.3411 -0.4942
15909TIP3   OH269217   5.455   6.560  13.702 -0.6125 -0.4531 -0.2443
15909TIP3    H169218   5.515   6.608  13.645  0.9301 -1.1595  0.6979
15909TIP3    H269219   5.396   6.626  13.738  0.7597  0.5889  0.1751
15910TIP3   OH269220   1.286   1.699  11.754  0.6580  0.0600  0.0679
15910TIP3    H169221   1.221   1.664  11.693  1.4756 -3.7335  1.1330
15910TIP3    H269222   1.281   1.794  11.742 -3.0119 -0.2060 -1.9047
15911TIP3   OH269223   3.622   0.770   5.289  0.0627 -0.1229 -0.1313
15911TIP3    H169224   3.614   0.675   5.287  1.2677 -0.2288 -1.1823
15911TIP3    H269225   3.643   0.795   5.199 -2.4348  1.3822 -0.3803
15912TIP3   OH269226   5.403   6.203   4.731 -0.5318  0.4526  0.4770
15912TIP3    H169227   5.400   6.119   4.685 -0.3764  0.6895  0.0293
15912TIP3    H269228   5.458   6.185   4.808  0.6074  0.4639 -0.3060
15913TIP3   OH269229   0.917   1.781   1.572  0.1691  0.4509 -0.1848
15913TIP3    H169230   0.891   1.777   1.664 -0.9595  1.2441 -0.4502
15913TIP3    H269231   1.012   1.769   1.574  0.3478  1.7062  1.2041
15914TIP3   OH269232   5.448   5.592  16.723 -0.4524  0.5554 -0.2186
15914TIP3    H169233   5.458   5.637  16.639 -2.2446 -1.3202 -1.5398
15914TIP3    H269234   5.412   5.507  16.700 -0.6337 -0.1788  2.4622
15915TIP3   OH269235   6.599   4.719  14.859  0.0432 -0.5214 -0.4472
15915TIP3    H169236   6.550   4.647  14.898  1.0859 -0.2194  1.5435
15915TIP3    H269237   6.541   4.794  14.866 -0.9088 -1.0277 -2.2079
15916TIP3   OH269238   4.889   5.086   1.570  0.4773 -0.2862  0.0527
15916TIP3    H169239   4.969   5.136   1.552  0.6516  0.6077  2.7839
15916TIP3    H269240   4.877   5.032   1.493  3.5739 -0.2477 -0.6114
15917TIP3   OH269241   4.331   2.470   1.135  0.5678  0.0889 -0.3322
15917TIP3    H169242   4.241   2.498   1.119 -0.0257  1.0019  3.5823
15917TIP3    H269243   4.380   2.552   1.147  1.6689 -0.4153 -1.2401
15918TIP3   OH269244   0.433   6.552   5.325  0.1614 -0.0890  0.0824
15918TIP3    H169245   0.437   6.469   5.373  0.1896 -0.4589 -0.5527
15918TIP3    H269246   0.505   6.603   5.362 -1.7328  0.9147  2.7268
15919TIP3   OH269247   4.768   6.425   0.247 -0.3954 -0.1377  0.1118
15919TIP3    H169248   4.762   6.520   0.250  1.6249  0.1719 -2.2543
15919TIP3    H269249   4.730   6.401   0.162 -1.8011 -1.5910  1.0921
15920TIP3   OH269250   3.475   1.081  12.824 -0.3785  0.3046 -0.1135
15920TIP3    H169251   3.520   1.052  12.903 -0.7510 -0.3085 -0.1209
15920TIP3    H269252   3.408   1.142  12.856 -1.2508 -0.7650  0.1774
15921TIP3   OH269253   2.759   0.958  11.702 -0.0185 -0.0390 -0.1162
15921TIP3    H169254   2.820   0.887  11.683  0.2150 -0.1663  1.0466
15921TIP3    H269255   2.781   1.026  11.638 -0.3657 -1.0582 -1.3634
15922TIP3   OH269256   5.469   0.058   4.760  0.5208  0.3174 -0.0693
15922TIP3    H169257   5.437   0.113   4.688  0.7229 -0.6768 -0.9324
15922TIP3    H269258   5.389   0.030   4.805  0.4228  1.5270  0.5662
15923TIP3   OH269259   1.059   4.103   4.249  0.4332 -0.0390 -0.7410
15923TIP3    H169260   1.061   4.198   4.237  0.8225  0.6804  3.5194
15923TIP3    H269261   0.971   4.085   4.283  0.0399 -1.4379 -2.3457
15924TIP3   OH269262   6.357   2.459  13.258  0.0935  0.0503  0.0935
15924TIP3    H169263   6.382   2.541  13.299  1.5013  0.2399 -1.0777
15924TIP3    H269264   6.287   2.425  13.314  1.0085  0.9358  1.8619
15925TIP3   OH269265   2.103   0.958  12.350 -0.0766 -0.1056  0.4268
15925TIP3    H169266   2.013   0.941  12.323  0.3466 -1.0188 -0.5189
15925TIP3    H269267   2.133   0.875  12.388  0.1424  0.4116  1.3965
15926TIP3   OH269268   5.896   6.216   4.084 -0.4617 -0.8547 -0.2945
15926TIP3    H169269   5.801   6.227   4.095 -0.5750  1.3910 -2.7956
15926TIP3    H269270   5.934   6.293   4.126  0.3514 -1.9696  1.0966
15927TIP3   OH269271   3.625   3.922   0.511 -0.1463  0.2425  0.3060
15927TIP3    H169272   3.571   3.992   0.475  0.1632  0.4889  0.3083
15927TIP3    H269273   3.671   3.963   0.584  0.0718  0.0506  0.2784
15928TIP3   OH269274   2.420   6.810  11.713  0.6558  0.0340  0.1577
15928TIP3    H169275   2.503   6.857  11.725  0.3169  0.3468  1.4929
15928TIP3    H269276   2.352   6.877  11.725  0.1864 -0.5656  0.9405
15929TIP3   OH269277   5.308   2.163  13.744  0.1327  0.2537  0.0162
15929TIP3    H169278   5.266   2.247  13.763 -0.5922 -0.6030  2.5214
15929TIP3    H269279   5.394   2.187  13.709 -0.1573  2.0387  0.4184
15930TIP3   OH269280   5.264   0.197  16.640  0.2463  0.0211  0.3335
15930TIP3    H169281   5.253   0.169  16.549  0.6231  0.5472  0.1263
15930TIP3    H269282   5.176   0.195  16.676  0.2082 -1.1126  0.2361
15931TIP3   OH269283   3.919   3.262  12.206 -0.4102  0.4504 -0.0967
15931TIP3    H169284   3.999   3.261  12.259  2.1297  1.6034 -3.5686
15931TIP3    H269285   3.919   3.178  12.160 -0.7246  0.7790 -0.7121
15932TIP3   OH269286   3.142   4.228  15.172  0.1060  0.0143 -0.6752
15932TIP3    H169287   3.076   4.276  15.221  0.4934 -1.8499  1.8769
15932TIP3    H269288   3.217   4.287  15.168 -0.7952  1.1660 -1.3717
15933TIP3   OH269289   2.645   4.357   5.532  0.0053 -0.0169 -0.1298
15933TIP3    H169290   2.594   4.290   5.487  0.4450  1.0246 -2.3368
15933TIP3    H269291   2.582   4.400   5.590 -0.7603 -1.0178 -0.1935
15934TIP3   OH269292   5.782   0.576   2.495  0.4308  0.1905 -0.2624
15934TIP3    H169293   5.803   0.664   2.526  0.7287 -0.4231  1.3539
15934TIP3    H269294   5.699   0.587   2.447  0.2389  1.2732  0.2753
15935TIP3   OH269295   2.509   3.966   6.592  0.0913  0.1739 -0.0096
15935TIP3    H169296   2.517   4.039   6.531  0.4400 -0.0652 -0.2509
15935TIP3    H269297   2.451   3.999   6.661  0.8632  0.9574  0.2871
15936TIP3   OH269298   6.127   3.230   5.584  0.0540 -0.0544  0.7530
15936TIP3    H169299   6.204   3.210   5.530 -0.3740 -2.4238  0.8824
15936TIP3    H269300   6.140   3.178   5.664 -0.3696  1.7129  2.0335
15937TIP3   OH269301   2.479   5.360  15.476  0.5332  0.1095 -0.3468
15937TIP3    H169302   2.540   5.369  15.549 -0.8749  1.1104  0.7772
15937TIP3    H269303   2.534   5.357  15.398  2.0085  1.8539  0.5527
15938TIP3   OH269304   1.080   3.382  13.081 -0.2602  0.5903 -0.5744
15938TIP3    H169305   1.014   3.451  13.090  1.0555  1.7769  0.5754
15938TIP3    H269306   1.146   3.404  13.147 -0.4444 -2.5665  0.8520
15939TIP3   OH269307   6.215   5.172  10.564  0.0025  0.0112  0.0319
15939TIP3    H169308   6.178   5.146  10.480 -1.7438 -2.4611  1.4218
15939TIP3    H269309   6.291   5.114  10.576 -0.3007 -0.2993  0.5167
15940TIP3   OH269310   0.257   1.758  12.220  0.0736 -0.4163  0.0698
15940TIP3    H169311   0.345   1.795  12.223  0.3898 -1.1305 -0.1293
15940TIP3    H269312   0.261   1.693  12.150 -0.6119 -0.4647  0.0683
15941TIP3   OH269313   5.155   2.258  16.230 -0.8806 -0.0001 -0.8823
15941TIP3    H169314   5.218   2.217  16.170 -0.4891 -1.2480  0.3305
15941TIP3    H269315   5.098   2.186  16.257 -1.3464  0.6458 -0.1270
15942TIP3   OH269316   4.289   4.788  12.949  0.3585 -0.6667 -0.3629
15942TIP3    H169317   4.261   4.745  12.868 -2.3317 -2.4469  1.3425
15942TIP3    H269318   4.237   4.868  12.953  2.9832  1.2718 -1.9231
15943TIP3   OH269319   0.327   5.243  15.334  0.0528  0.1166  0.3550
15943TIP3    H169320   0.316   5.166  15.278 -0.8008  0.9980 -0.7199
15943TIP3    H269321   0.409   5.226  15.381  0.1060 -1.2429 -0.1802
15944TIP3   OH269322   6.563   6.244  12.227 -0.1843 -0.4082 -0.1377
15944TIP3    H169323   6.535   6.298  12.153  0.3920 -0.7949 -0.6457
15944TIP3    H269324   6.506   6.167  12.223 -0.9345  0.0887  0.5243
15945TIP3   OH269325   6.317   4.874   2.446  0.4335  0.2750 -0.5923
15945TIP3    H169326   6.356   4.853   2.361  1.3793 -2.5384  0.4380
15945TIP3    H269327   6.351   4.961   2.467  0.8536  0.6724 -2.6668
15946TIP3   OH269328   4.840   2.627   3.609 -0.4334  0.2259 -0.0460
15946TIP3    H169329   4.787   2.601   3.684  0.4822  1.7515  1.2126
15946TIP3    H269330   4.863   2.718   3.628 -1.4326  1.1751 -2.9399
15947TIP3   OH269331   0.070   6.721   1.952  0.0346 -0.1425 -0.3227
15947TIP3    H169332   0.104   6.750   1.867 -1.5477  0.7390 -0.7025
15947TIP3    H269333   0.071   6.801   2.006 -1.2066 -0.1262 -0.2970
15948TIP3   OH269334   5.717   0.921   1.732  0.2723 -0.3282  0.2500
15948TIP3    H169335   5.710   0.978   1.655 -0.7462 -0.0120  0.5647
15948TIP3    H269336   5.811   0.900   1.738  0.3541 -0.4672 -1.1529
15949TIP3   OH269337   6.051   4.575   1.745 -0.0421  0.0977  0.2969
15949TIP3    H169338   6.127   4.522   1.722 -0.4497 -0.6912  0.7213
15949TIP3    H269339   5.977   4.531   1.702 -0.1359  1.4964 -1.0806
15950TIP3   OH269340   2.060   6.448   4.208  0.4971 -0.1029 -0.0241
15950TIP3    H169341   2.074   6.506   4.283 -0.8872  0.2790 -0.0317
15950TIP3    H269342   2.029   6.366   4.247 -1.4423  0.4985 -0.1996
15951TIP3   OH269343   2.030   4.167   3.427 -0.3467 -0.0661  0.2905
15951TIP3    H169344   1.968   4.122   3.483 -0.4476 -0.3876 -0.0743
15951TIP3    H269345   2.010   4.260   3.438  1.2349  0.0650  2.6775
15952TIP3   OH269346   0.215   6.426  13.682 -0.6682 -0.5036 -0.1608
15952TIP3    H169347   0.241   6.488  13.750  1.1287 -0.5198 -0.7815
15952TIP3    H269348   0.254   6.461  13.602 -0.7437 -1.7352 -0.7571
15953TIP3   OH269349   5.593   0.881  16.487 -0.1587 -0.1450 -0.1863
15953TIP3    H169350   5.595   0.798  16.534  1.0631 -0.5555 -0.9332
15953TIP3    H269351   5.579   0.947  16.555  0.5140 -0.8218  0.6259
15954TIP3   OH269352   1.466   0.281  13.805  0.4474  0.0998 -0.0993
15954TIP3    H169353   1.411   0.358  13.817  0.5576 -0.0236  1.3661
15954TIP3    H269354   1.530   0.286  13.877  1.2343 -0.6914 -0.7234
15955TIP3   OH269355   2.084   2.748   1.278 -0.0806  0.4323  0.5060
15955TIP3    H169356   2.131   2.742   1.361 -1.3506 -0.2087  1.2008
15955TIP3    H269357   2.106   2.667   1.232 -1.3420 -0.3815  1.3003
15956TIP3   OH269358   0.986   1.601  13.337 -0.7378  0.2314  0.3094
15956TIP3    H169359   1.024   1.522  13.297 -0.6567  0.8114 -0.7842
15956TIP3    H269360   0.991   1.667  13.268  0.4188  1.5897  1.6504
15957TIP3   OH269361   1.515   1.080  14.787  0.3330  0.6925  0.2731
15957TIP3    H169362   1.567   1.011  14.746 -0.2389  2.0793 -3.0896
15957TIP3    H269363   1.448   1.033  14.836  1.5841 -1.1130  0.3634
15958TIP3   OH269364   1.003   2.427  11.276 -0.8741 -0.2693 -0.1427
15958TIP3    H169365   0.929   2.483  11.299 -0.4568 -0.1888  1.0606
15958TIP3    H269366   1.028   2.455  11.188  0.1417  2.3489  0.8905
15959TIP3   OH269367   5.495   5.224   2.552  0.5248  0.0678 -0.2297
15959TIP3    H169368   5.475   5.154   2.490  3.0059 -0.6388 -0.3349
15959TIP3    H269369   5.432   5.212   2.623 -0.2275 -1.1626 -1.0710
15960TIP3   OH269370   4.412   6.694   0.156  0.6517  0.0415  0.1721
15960TIP3    H169371   4.344   6.707   0.222  1.2128  2.0752  0.4063
15960TIP3    H269372   4.390   6.609   0.117 -0.8349 -0.3058  1.5973
15961TIP3   OH269373   1.204   2.476  13.715 -0.2079  0.2308  0.1095
15961TIP3    H169374   1.253   2.480  13.633 -2.2495  1.6119 -1.1458
15961TIP3    H269375   1.262   2.517  13.779  0.0331  2.5999 -1.4995
15962TIP3   OH269376   2.282   0.752   3.093 -0.0887 -0.2999  0.0434
15962TIP3    H169377   2.349   0.817   3.072 -1.9748  2.0646  0.9190
15962TIP3    H269378   2.326   0.668   3.080  2.1990  1.0781 -2.0611
15963TIP3   OH269379   2.247   3.637   6.172 -0.3054 -0.2961 -0.3792
15963TIP3    H169380   2.226   3.592   6.253  1.0579  1.2118  0.8786
15963TIP3    H269381   2.196   3.591   6.105 -0.1902 -2.6490  1.0378
15964TIP3   OH269382   2.096   5.365   0.852 -0.8994 -0.0856  0.2533
15964TIP3    H169383   2.048   5.303   0.906 -1.2458 -0.1980 -0.1742
15964TIP3    H269384   2.124   5.434   0.913 -0.6689 -0.5635  0.6951
15965TIP3   OH269385   3.401   5.668  16.937  0.1406  0.2539 -0.0958
15965TIP3    H169386   3.409   5.671  17.033  1.0381 -0.0952 -0.1501
15965TIP3    H269387   3.307   5.674  16.921  0.0354  1.3395  0.7716
15966TIP3   OH269388   1.063   4.492  11.766  0.2589  0.6342 -0.1141
15966TIP3    H169389   1.093   4.511  11.677 -0.4893  0.9127 -0.3077
15966TIP3    H269390   1.134   4.524  11.822  1.0788 -0.2325 -0.6339
15967TIP3   OH269391   1.699   2.785  11.233 -0.1526  0.1128  0.1258
15967TIP3    H169392   1.659   2.712  11.281 -2.0241  0.6548 -0.5155
15967TIP3    H269393   1.760   2.744  11.172 -2.0574 -1.0558 -1.0740
15968TIP3   OH269394   6.153   1.598   3.696  0.3447  0.3875  0.3366
15968TIP3    H169395   6.115   1.518   3.732  0.5623  0.3504  0.4798
15968TIP3    H269396   6.247   1.588   3.708  0.2783  1.5256  2.1648
15969TIP3   OH269397   6.156   4.348   4.299 -0.3944  1.1758  0.3504
15969TIP3    H169398   6.235   4.399   4.281  0.8187 -0.6090  0.3078
15969TIP3    H269399   6.178   4.298   4.378 -0.6987 -0.8197 -0.7702
15970TIP3   OH269400   6.602   2.350  10.760 -0.0618  0.5974  0.3961
15970TIP3    H169401   6.519   2.305  10.775 -0.2276  0.3369 -1.1171
15970TIP3    H269402   6.636   2.312  10.679  0.1512  2.6658 -0.5586
15971TIP3   OH269403   2.877   0.243  17.150  0.1665 -0.4495 -0.3007
15971TIP3    H169404   2.843   0.253  17.239 -0.6523  0.0972 -0.6639
15971TIP3    H269405   2.947   0.179  17.159  1.0883  0.6591  1.0030
15972TIP3   OH269406   6.443   3.269  16.829 -0.2415 -0.0612 -0.0496
15972TIP3    H169407   6.479   3.187  16.795  0.5006  0.2495 -0.0444
15972TIP3    H269408   6.489   3.283  16.912 -1.3222 -0.3063  0.6092
15973TIP3   OH269409   2.676   4.386  11.058 -0.3466  0.0588 -0.1509
15973TIP3    H169410   2.602   4.342  11.018 -0.6141 -0.6035  1.0156
15973TIP3    H269411   2.645   4.475  11.075 -0.6612 -0.0403 -0.2156
15974TIP3   OH269412   3.592   2.182   3.718  0.5496 -0.0438  0.3238
15974TIP3    H169413   3.625   2.253   3.775 -0.1472  1.1671 -0.7224
15974TIP3    H269414   3.498   2.181   3.734  0.3346  0.3448 -0.7985
15975TIP3   OH269415   2.148   1.163  15.156  0.8733  0.1411  0.6582
15975TIP3    H169416   2.202   1.093  15.194 -0.4209 -1.8325 -0.8981
15975TIP3    H269417   2.134   1.135  15.065 -2.5252  0.6550  0.9051
15976TIP3   OH269418   2.107   1.982   3.347  0.1834  0.0213 -0.2239
15976TIP3    H169419   2.027   1.944   3.312  0.3613  0.5246 -1.2336
15976TIP3    H269420   2.110   1.955   3.438 -1.9473  1.2865  0.2842
15977TIP3   OH269421   4.274   5.588   5.744  0.5756 -0.3092 -0.5151
15977TIP3    H169422   4.321   5.656   5.695 -0.2574 -0.2839 -1.3237
15977TIP3    H269423   4.274   5.512   5.685 -1.7455  0.1830 -1.2526
15978TIP3   OH269424   6.021   2.195   6.023  0.3138 -0.1602  0.4272
15978TIP3    H169425   5.944   2.148   6.053  0.5656  0.7338  2.7425
15978TIP3    H269426   6.009   2.284   6.056  0.0217  1.4267 -3.4513
15979TIP3   OH269427   5.114   2.448   3.862  0.4075 -0.0248 -0.0996
15979TIP3    H169428   5.187   2.389   3.841  0.5642  0.2646 -0.3884
15979TIP3    H269429   5.133   2.528   3.812  0.6773  0.6195  0.9947
15980TIP3   OH269430   3.172   2.167   4.864  1.0828 -0.1172 -0.4677
15980TIP3    H169431   3.165   2.260   4.886 -1.6107 -0.0101 -1.4533
15980TIP3    H269432   3.148   2.163   4.771 -3.1152 -2.1701  0.5036
15981TIP3   OH269433   1.366   0.465   1.284 -0.2047  0.8296  0.3908
15981TIP3    H169434   1.432   0.528   1.312  0.1070  0.7711 -0.1978
15981TIP3    H269435   1.385   0.450   1.191 -0.7091  0.4007  0.3532
15982TIP3   OH269436   4.287   3.858  13.017  0.2702  0.4783  0.7724
15982TIP3    H169437   4.262   3.818  12.934  2.0944  1.2650 -0.2362
15982TIP3    H269438   4.366   3.811  13.044  1.2906  2.0128  0.5882
15983TIP3   OH269439   5.889   2.443  14.400  0.3939 -0.2473 -0.0327
15983TIP3    H169440   5.877   2.424  14.493  1.4567  1.2092  0.4468
15983TIP3    H269441   5.802   2.435  14.362 -0.2216  0.0226  1.2664
15984TIP3   OH269442   3.643   1.172  15.386 -0.0622  0.2936 -0.0439
15984TIP3    H169443   3.548   1.169  15.374 -0.4422  1.6487  2.1578
15984TIP3    H269444   3.668   1.260  15.357 -0.1487  1.4361  3.0518
15985TIP3   OH269445   1.765   6.033  14.266 -0.2606  0.1301  0.2844
15985TIP3    H169446   1.754   5.954  14.320 -0.3549 -0.3005 -0.3496
15985TIP3    H269447   1.794   6.100  14.328 -0.5690 -0.2947  0.9101
15986TIP3   OH269448   0.991   6.729  12.961  0.2757 -0.6939 -0.1446
15986TIP3    H169449   0.941   6.648  12.968  1.4376 -1.2990  1.3987
15986TIP3    H269450   1.025   6.728  12.871 -0.9278 -1.1534 -0.6219
15987TIP3   OH269451   0.327   0.803   4.216  0.1210 -0.0230  0.2047
15987TIP3    H169452   0.390   0.838   4.152 -1.7022  0.1695 -1.5844
15987TIP3    H269453   0.381   0.776   4.290  2.2288  0.8075 -0.9370
15988TIP3   OH269454   0.422   5.865   2.210  0.5033  0.5974 -0.3934
15988TIP3    H169455   0.516   5.883   2.210  0.8036 -0.3315  2.7079
15988TIP3    H269456   0.401   5.847   2.302 -3.0568  2.4058 -0.6662
15989TIP3   OH269457   4.312   5.269  14.260 -0.4502  0.2024  0.1865
15989TIP3    H169458   4.401   5.233  14.258 -0.4926  0.0704  0.5644
15989TIP3    H269459   4.280   5.249  14.348 -1.5759 -1.4418 -0.5652
15990TIP3   OH269460   0.447   4.477   2.572  0.2050  0.5536  0.1503
15990TIP3    H169461   0.385   4.434   2.632  0.4133  0.5351  0.3539
15990TIP3    H269462   0.508   4.407   2.547 -0.5731  0.2767 -1.0126
15991TIP3   OH269463   5.960   1.491   2.587 -0.2897 -0.2840  0.1313
15991TIP3    H169464   5.936   1.399   2.594 -0.5538 -0.1669  0.8846
15991TIP3    H269465   6.027   1.494   2.519  0.4936 -1.1733  0.8456
15992TIP3   OH269466   5.452   0.954  11.482  0.2959  0.1153  0.4289
15992TIP3    H169467   5.451   0.880  11.422  2.2634 -0.8751  1.5383
15992TIP3    H269468   5.538   0.951  11.524 -0.8178  1.0057  2.9990
15993TIP3   OH269469   3.517   4.941   5.370 -0.1167  0.3650 -0.3043
15993TIP3    H169470   3.521   4.956   5.275 -0.2344 -0.2656 -0.4152
15993TIP3    H269471   3.481   4.852   5.378 -0.4598  0.5602  0.3405
15994TIP3   OH269472   0.354   3.904   4.293  0.5560 -0.2345  0.4890
15994TIP3    H169473   0.290   3.893   4.363  0.5222 -0.0120  0.4925
15994TIP3    H269474   0.313   3.967   4.233  0.2409 -1.0064 -0.1318
15995TIP3   OH269475   6.646   4.621  16.495 -0.0753 -0.2645  0.4692
15995TIP3    H169476   6.590   4.577  16.430 -1.6518 -0.8390  2.1324
15995TIP3    H269477   6.666   4.554  16.559 -0.4629  0.8156  1.7726
15996TIP3   OH269478   4.697   5.633  10.370 -0.0115  0.0114 -0.5935
15996TIP3    H169479   4.642   5.707  10.397 -1.1480 -0.4387 -1.5795
15996TIP3    H269480   4.780   5.646  10.416 -0.1068  2.0183 -0.9085
15997TIP3   OH269481   5.156   0.032   1.401  0.1088 -0.2949 -0.2553
15997TIP3    H169482   5.082  -0.023   1.426  1.0768 -0.7838  1.7842
15997TIP3    H269483   5.182  -0.001   1.315 -0.7785 -1.4856 -0.0960
15998TIP3   OH269484   4.141   4.809   3.324 -0.0162 -0.2352 -0.3863
15998TIP3    H169485   4.233   4.805   3.298 -0.0419  0.2306 -0.5743
15998TIP3    H269486   4.100   4.862   3.255 -0.5365 -0.9243 -0.6159
15999TIP3   OH269487   6.818   0.551  14.622 -0.3810 -0.4076 -0.0012
15999TIP3    H169488   6.726   0.559  14.645 -0.5576 -2.4387  0.1864
15999TIP3    H269489   6.820   0.560  14.527 -0.6770  0.2564  0.0494
16000TIP3   OH269490   2.461   2.524  10.928 -0.2932 -0.0257  0.0635
16000TIP3    H169491   2.544   2.506  10.884  0.5454  0.7413  1.2760
16000TIP3    H269492   2.396   2.479  10.874  0.7116  0.5652 -1.7464
16001TIP3   OH269493   5.120   5.524  16.145  0.0030 -0.5341  0.1913
16001TIP3    H169494   5.150   5.573  16.221 -0.5054  0.5288 -0.2759
16001TIP3    H269495   5.092   5.439  16.181 -0.5700  0.0806  1.2562
16002TIP3   OH269496   4.418   1.619  14.584 -0.1280 -0.1403  0.0051
16002TIP3    H169497   4.453   1.554  14.645  2.3967  0.7817 -0.3337
16002TIP3    H269498   4.351   1.572  14.534 -0.2939 -1.6780  1.5835
16003TIP3   OH269499   2.106   2.363  11.066  0.0064  0.4401 -1.0988
16003TIP3    H169500   2.148   2.344  10.982  1.4104  0.6857 -0.4764
16003TIP3    H269501   2.111   2.458  11.074 -0.6401  0.4708 -0.9764
16004TIP3   OH269502   1.889   4.992  11.217 -0.5450  0.3215  1.0040
16004TIP3    H169503   1.806   5.003  11.264 -0.6408  0.4053  0.8141
16004TIP3    H269504   1.873   4.919  11.156 -0.8831  1.1662  0.0586
16005TIP3   OH269505   2.170   6.251  14.644  0.1378 -0.5547  0.1052
16005TIP3    H169506   2.082   6.256  14.608  0.2869 -3.2661 -0.8494
16005TIP3    H269507   2.220   6.199  14.581  3.1269  2.6660 -0.5285
16006TIP3   OH269508   4.230   2.725  15.169 -0.1161 -0.7120 -0.5244
16006TIP3    H169509   4.295   2.655  15.174 -1.2094 -1.7422 -0.4036
16006TIP3    H269510   4.188   2.713  15.084 -0.8635 -0.6985 -0.1615
16007TIP3   OH269511   2.082   3.336  14.138  0.1467  0.1758  0.2551
16007TIP3    H169512   1.998   3.300  14.166  0.5722 -0.4134  0.7997
16007TIP3    H269513   2.100   3.407  14.200  0.2177  0.0663  0.3611
16008TIP3   OH269514   5.075   1.991   4.313 -0.4276  0.2712  0.3256
16008TIP3    H169515   5.082   2.041   4.394 -0.6211  0.4426  0.2350
16008TIP3    H269516   4.984   1.999   4.287 -0.8011 -1.2744  1.0525
16009TIP3   OH269517   6.332   4.896  12.257  0.4059  0.9255 -0.0955
16009TIP3    H169518   6.286   4.854  12.330  1.4981  2.7077  1.7423
16009TIP3    H269519   6.417   4.853  12.255 -0.6126 -1.2133 -2.4012
16010TIP3   OH269520   2.818   6.706   5.947 -0.4651 -0.3326 -0.2634
16010TIP3    H169521   2.760   6.630   5.951 -0.7544 -0.1125 -0.2377
16010TIP3    H269522   2.902   6.674   5.980 -0.8251 -0.4126  0.5836
16011TIP3   OH269523   4.095   5.253  13.513 -0.2349 -0.4238 -0.1108
16011TIP3    H169524   4.005   5.285  13.516 -1.2771 -3.1531  1.2878
16011TIP3    H269525   4.123   5.249  13.604  0.9581 -0.5223 -0.4650
16012TIP3   OH269526   1.225   3.271  11.364  0.0993  0.3038  0.4529
16012TIP3    H169527   1.177   3.339  11.317  1.2771 -0.0631 -1.3788
16012TIP3    H269528   1.314   3.306  11.372 -0.0029  0.2324  2.2164
16013TIP3   OH269529   3.143   0.246   4.335  0.1327 -0.3092 -0.1843
16013TIP3    H169530   3.053   0.235   4.303  1.0030 -2.1152 -2.3549
16013TIP3    H269531   3.197   0.202   4.269  2.5934  0.3205  1.2722
16014TIP3   OH269532   0.447   4.596   3.511  0.5142 -0.1386 -0.2258
16014TIP3    H169533   0.534   4.574   3.545 -0.1018  0.1849  1.7391
16014TIP3    H269534   0.404   4.511   3.499  0.4904 -0.2661  0.6381
16015TIP3   OH269535   0.255   0.196  15.250  0.0631 -0.1719  0.2247
16015TIP3    H169536   0.321   0.254  15.288  0.7757 -1.3992  0.9207
16015TIP3    H269537   0.175   0.249  15.249  0.1748  0.1781  2.7911
16016TIP3   OH269538   6.641   6.040  16.132  0.1419 -0.2667  0.4846
16016TIP3    H169539   6.600   5.990  16.203 -0.2621 -1.6483 -0.6545
16016TIP3    H269540   6.628   5.985  16.055  2.2955  0.2639 -0.3182
16017TIP3   OH269541   0.887   5.043   1.570 -1.1464  0.4242 -0.2581
16017TIP3    H169542   0.882   4.966   1.513 -0.9397 -0.4812  0.9336
16017TIP3    H269543   0.972   5.035   1.614 -1.2412  1.2046  0.0767
16018TIP3   OH269544   1.559   2.374  15.278  0.0285 -0.3361 -0.0281
16018TIP3    H169545   1.506   2.448  15.310  0.7938  0.5331 -0.7466
16018TIP3    H269546   1.504   2.333  15.211  0.3645  0.7325 -0.9714
16019TIP3   OH269547   0.316   6.605  13.064 -0.1743 -0.2277 -0.0439
16019TIP3    H169548   0.301   6.539  12.996  0.0289 -0.8165  0.4774
16019TIP3    H269549   0.349   6.555  13.138 -1.6058  0.2120  0.9346
16020TIP3   OH269550   2.442   3.264   0.982  0.5636 -0.4283  0.1125
16020TIP3    H169551   2.415   3.342   1.030 -0.4883  1.6919 -3.5739
16020TIP3    H269552   2.534   3.280   0.960  0.1813  0.1190 -1.1597
16021TIP3   OH269553   1.409   2.721  15.025 -0.0827  0.1514 -0.1814
16021TIP3    H169554   1.436   2.773  15.101  1.2579  0.1585 -0.6240
16021TIP3    H269555   1.428   2.778  14.950  0.2346 -0.5049 -0.6043
16022TIP3   OH269556   5.172   2.122   6.128 -0.2577 -0.3958  0.6350
16022TIP3    H169557   5.193   2.073   6.207 -0.5036 -1.5395  0.0093
16022TIP3    H269558   5.243   2.185   6.119 -0.5452  0.1827  2.0965
16023TIP3   OH269559   2.095   0.236  13.045 -0.2823 -0.2345 -0.1281
16023TIP3    H169560   2.165   0.237  13.111 -0.3026 -0.9361 -0.0839
16023TIP3    H269561   2.135   0.196  12.968 -0.2210  0.7172 -0.5910
16024TIP3   OH269562   3.388   1.913  11.222 -0.5861 -0.6472  0.3246
16024TIP3    H169563   3.436   1.890  11.142 -0.0569  0.8563  0.1635
16024TIP3    H269564   3.381   1.831  11.270 -2.3020 -1.9465 -1.9435
16025TIP3   OH269565   1.691   5.094  14.046  0.7243  0.5526  0.0617
16025TIP3    H169566   1.735   5.144  13.976  1.6525  0.2370  0.4060
16025TIP3    H269567   1.622   5.153  14.077  0.8585  1.0407 -0.5311
16026TIP3   OH269568   4.072   6.025   2.521  0.2633  0.1683  0.2318
16026TIP3    H169569   3.987   6.015   2.564 -0.1813 -1.2420 -0.9196
16026TIP3    H269570   4.131   6.051   2.592 -0.8236 -0.3077  1.3513
16027TIP3   OH269571   1.401   5.355  12.383 -0.5676  0.8106 -0.8093
16027TIP3    H169572   1.323   5.388  12.427 -0.3723  0.7341 -0.4036
16027TIP3    H269573   1.474   5.394  12.430 -0.3387  0.0572 -0.5260
16028TIP3   OH269574   2.933   4.704   4.439 -0.1477 -0.6656 -0.2911
16028TIP3    H169575   2.937   4.699   4.343  0.2944 -0.9589 -0.2615
16028TIP3    H269576   2.906   4.617   4.466  0.5922 -0.8458 -0.1087
16029TIP3   OH269577   3.579   1.843  16.832  0.2350  0.4549 -0.0712
16029TIP3    H169578   3.660   1.832  16.783  0.0128  0.1720 -0.3811
16029TIP3    H269579   3.533   1.914  16.787 -0.0633  0.0563 -0.4088
16030TIP3   OH269580   0.368   3.750  10.863 -0.1371 -0.2756 -0.6848
16030TIP3    H169581   0.312   3.736  10.939  1.3248 -2.3208  0.0793
16030TIP3    H269582   0.308   3.785  10.796 -1.6121  0.8240  1.1065
16031TIP3   OH269583   4.224   3.097  13.173 -0.4463  0.1860 -0.4489
16031TIP3    H169584   4.175   3.176  13.195 -0.3195 -0.1638  1.2619
16031TIP3    H269585   4.205   3.037  13.245  1.5581 -0.3813 -0.3563
16032TIP3   OH269586   5.209   3.780  13.098 -0.0489 -0.0924 -0.1262
16032TIP3    H169587   5.213   3.868  13.061 -1.4684 -0.4433 -1.1903
16032TIP3    H269588   5.291   3.771  13.146  0.5876  1.4349 -0.8496
16033TIP3   OH269589   6.329   3.511  12.650 -0.3321 -0.2192 -0.1457
16033TIP3    H169590   6.328   3.584  12.589 -0.6805 -0.7283 -0.7669
16033TIP3    H269591   6.265   3.449  12.615 -0.8739 -0.3355  0.9795
16034TIP3   OH269592   1.438   2.751  12.376 -0.0473  0.1534  0.4320
16034TIP3    H169593   1.389   2.716  12.450  1.5693  1.7109  2.3572
16034TIP3    H269594   1.451   2.843  12.397  0.9064  0.5354 -1.5731
16035TIP3   OH269595   5.842   3.625   1.536  0.1177 -0.9031  0.5945
16035TIP3    H169596   5.863   3.549   1.482 -2.1735 -0.8443 -0.4831
16035TIP3    H269597   5.792   3.683   1.479 -2.1926 -0.7096  2.6533
16036TIP3   OH269598   3.305   1.049  14.586  0.4385  0.5410 -0.3221
16036TIP3    H169599   3.267   0.965  14.562  2.0004 -0.5422  0.8362
16036TIP3    H269600   3.270   1.110  14.520 -2.4750 -0.5073  0.0741
16037TIP3   OH269601   5.768   6.825   1.676 -0.4122  0.0710  0.4081
16037TIP3    H169602   5.736   6.736   1.664 -0.4643  0.0399  0.7449
16037TIP3    H269603   5.693   6.872   1.713 -0.7687  0.5575 -0.8732
16038TIP3   OH269604   3.102   5.958  12.224  0.0192 -0.2883  0.4724
16038TIP3    H169605   3.040   5.896  12.263  0.6848 -0.8728  0.6159
16038TIP3    H269606   3.048   6.032  12.196 -1.2993 -2.1036 -2.3234
16039TIP3   OH269607   6.565   1.146   3.841 -0.0533 -0.1864 -0.0127
16039TIP3    H169608   6.510   1.071   3.864  0.5717 -0.8762 -0.7132
16039TIP3    H269609   6.652   1.124   3.875  0.1086  0.2749 -0.1171
16040TIP3   OH269610   1.460   0.365  14.786 -0.9245  0.5052  0.0781
16040TIP3    H169611   1.542   0.368  14.833 -0.7124  0.3302 -0.2740
16040TIP3    H269612   1.435   0.457  14.774  0.5240  0.6984 -2.0455
16041TIP3   OH269613   3.912   1.478  11.491 -0.3609  0.2631  0.4603
16041TIP3    H169614   3.969   1.486  11.568  1.0386  1.2119 -0.6240
16041TIP3    H269615   3.852   1.552  11.498  0.3995  0.9269  0.1646
16042TIP3   OH269616   3.030   5.922  11.283  0.0751  0.3900 -0.0898
16042TIP3    H169617   3.096   5.990  11.294  0.7811 -0.2906 -0.0321
16042TIP3    H269618   2.965   5.960  11.223  0.4878  1.0787 -0.1070
16043TIP3   OH269619   4.238   6.183   0.995 -0.0869  0.5413 -0.3421
16043TIP3    H169620   4.324   6.220   0.972  0.4797  0.7357  1.8608
16043TIP3    H269621   4.259   6.101   1.040 -1.0203  0.8357  0.6667
16044TIP3   OH269622   4.090   2.144   6.894 -0.1978 -0.2385  0.4004
16044TIP3    H169623   4.184   2.158   6.905 -0.1018 -0.4258 -0.1643
16044TIP3    H269624   4.065   2.091   6.969 -0.1892  1.2401  1.5031
16045TIP3   OH269625   4.206   3.796  15.152  0.4785  0.7584 -0.3012
16045TIP3    H169626   4.201   3.846  15.234 -1.6530  0.7678 -0.3849
16045TIP3    H269627   4.164   3.853  15.087 -1.4990 -0.8471 -0.5245
16046TIP3   OH269628   2.891   0.154  12.719 -0.5918 -0.5544  0.5789
16046TIP3    H169629   2.829   0.227  12.721 -0.3176 -0.0952 -2.4037
16046TIP3    H269630   2.847   0.087  12.667  1.7236  0.3159 -2.8564
16047TIP3   OH269631   2.068   1.550  12.874 -0.3328  0.3299  0.2366
16047TIP3    H169632   2.078   1.616  12.942  2.4793 -0.2668  0.5066
16047TIP3    H269633   2.052   1.600  12.794  2.8852  1.5255  0.2112
16048TIP3   OH269634   5.513   0.145  15.441 -0.5078  0.3400  0.2657
16048TIP3    H169635   5.503   0.210  15.510 -1.3392  1.7960 -1.1704
16048TIP3    H269636   5.424   0.111  15.427 -0.6343  1.1700 -1.1043
16049TIP3   OH269637   3.515   2.977   4.558  0.5394 -0.3607 -0.5269
16049TIP3    H169638   3.519   3.050   4.620  2.2208 -0.1683 -0.8127
16049TIP3    H269639   3.489   2.902   4.612 -1.1530  0.3959 -0.2216
16050TIP3   OH269640   5.712   5.044  16.967  0.6820 -0.0711  0.7274
16050TIP3    H169641   5.710   5.061  16.873 -0.1037  1.1352  0.9285
16050TIP3    H269642   5.643   4.979  16.981  0.4196  0.1630  0.5337
16051TIP3   OH269643   0.030   3.162   6.365 -0.1386  0.0509  0.3306
16051TIP3    H169644   0.091   3.202   6.427  0.3509  0.2263 -0.2446
16051TIP3    H269645   0.080   3.155   6.283 -0.9759  0.4746 -0.2406
16052TIP3   OH269646   6.426   2.710   0.862 -0.1912  0.4565  0.0732
16052TIP3    H169647   6.464   2.749   0.783  0.5638 -1.0309 -0.3347
16052TIP3    H269648   6.343   2.672   0.833  0.2177 -0.3344 -0.0862
16053TIP3   OH269649   1.366   4.196  13.050 -0.8794  0.5941  0.0680
16053TIP3    H169650   1.359   4.131  13.119 -1.4724  1.1415  0.5396
16053TIP3    H269651   1.438   4.253  13.078  0.3841 -0.4564 -0.8826
16054TIP3   OH269652   2.416   0.343  11.114  0.5196 -0.1908 -0.3154
16054TIP3    H169653   2.475   0.351  11.039 -0.3819 -0.3874 -1.0690
16054TIP3    H269654   2.403   0.248  11.124  1.1486 -0.2024  0.5188
16055TIP3   OH269655   1.934   1.227  12.369  0.3758  0.3421  0.3625
16055TIP3    H169656   1.841   1.228  12.389  0.4714 -1.5908  1.1021
16055TIP3    H269657   1.976   1.258  12.450  0.3719  2.0670 -0.2622
16056TIP3   OH269658   3.513   1.503  12.032  0.8038 -0.3696 -0.4027
16056TIP3    H169659   3.503   1.416  11.995  1.4768 -0.6752  0.0925
16056TIP3    H269660   3.443   1.555  11.993 -1.8370 -1.9669  1.8453
16057TIP3   OH269661   2.311   2.026   4.965  0.4408 -0.1396 -0.1659
16057TIP3    H169662   2.229   2.069   4.991  0.9600  1.3547 -0.8996
16057TIP3    H269663   2.334   1.971   5.040  0.2944  1.6828  1.2871
16058TIP3   OH269664   4.609   6.172   4.749 -0.2454  0.0745 -0.5120
16058TIP3    H169665   4.616   6.248   4.691  0.4852  0.4906  0.0995
16058TIP3    H269666   4.652   6.101   4.702  2.0077  0.8504  0.2156
16059TIP3   OH269667   3.846   0.502   5.478 -0.3940  0.1041  0.0425
16059TIP3    H169668   3.752   0.516   5.475 -0.7728 -1.8580  1.2355
16059TIP3    H269669   3.862   0.428   5.419 -0.0631 -1.4635  1.9928
16060TIP3   OH269670   1.442   2.197   4.348 -0.1039 -0.7455 -0.2409
16060TIP3    H169671   1.494   2.265   4.307 -2.2580  0.7461 -0.6390
16060TIP3    H269672   1.452   2.121   4.290  0.6819 -0.1384 -0.9236
16061TIP3   OH269673   5.259   4.897   0.150  0.8796 -0.2327 -0.2405
16061TIP3    H169674   5.293   4.916   0.237  1.6793  0.7429 -0.7479
16061TIP3    H269675   5.206   4.818   0.162  3.1360 -1.7146  0.6228
16062TIP3   OH269676   5.123   4.699  14.294  0.3788  0.0695  0.1250
16062TIP3    H169677   5.137   4.647  14.372  0.5213 -0.8713 -0.5151
16062TIP3    H269678   5.191   4.671  14.233 -0.7455 -0.4633 -0.9570
16063TIP3   OH269679   2.577   3.386   2.967 -0.3174 -0.0920  0.2103
16063TIP3    H169680   2.532   3.304   2.952 -1.3091 -0.0514  2.5469
16063TIP3    H269681   2.514   3.454   2.942  0.5569  0.0099 -1.8709
16064TIP3   OH269682   0.253   3.816   2.932  0.1123  0.0790  0.1710
16064TIP3    H169683   0.314   3.742   2.934 -0.0828 -0.0977 -0.4375
16064TIP3    H269684   0.206   3.807   2.850  0.9273  1.5571 -0.5009
16065TIP3   OH269685   6.037   1.178  13.121 -0.5210  0.7011  0.0222
16065TIP3    H169686   6.080   1.094  13.105  1.6651  1.7442  0.0695
16065TIP3    H269687   5.987   1.195  13.041 -0.1095 -0.1455 -0.4290
16066TIP3   OH269688   1.889   2.041  12.994 -0.2431  0.1781 -0.8436
16066TIP3    H169689   1.851   1.953  12.983 -0.8112  0.4235 -0.8846
16066TIP3    H269690   1.886   2.080  12.907 -0.5281  0.4472 -0.7172
16067TIP3   OH269691   1.386   6.768   6.249 -0.1977  0.1495  0.2249
16067TIP3    H169692   1.419   6.847   6.292  1.1044 -0.9990  1.4411
16067TIP3    H269693   1.306   6.747   6.296 -1.6001  1.7532 -1.3359
16068TIP3   OH269694   0.325   0.439   1.961  0.2292  0.0184 -0.2682
16068TIP3    H169695   0.268   0.487   1.901 -0.7858 -1.4821 -0.5620
16068TIP3    H269696   0.394   0.501   1.984 -1.1568  1.6982 -0.4127
16069TIP3   OH269697   2.153   3.232  12.798 -0.3219 -0.3990 -0.1032
16069TIP3    H169698   2.169   3.143  12.828  1.0227 -0.0323  0.3533
16069TIP3    H269699   2.228   3.253  12.743  0.2760  1.0309  1.1793
16070TIP3   OH269700   6.280   6.758  17.205 -0.5480 -0.1113  0.5209
16070TIP3    H169701   6.234   6.677  17.180 -1.6336  0.9140 -1.0035
16070TIP3    H269702   6.372   6.734  17.205 -0.7841 -1.1841 -0.7347
16071TIP3   OH269703   5.666   3.184  17.188 -0.3414 -0.6537 -0.0140
16071TIP3    H169704   5.751   3.224  17.205 -1.1580  1.2909 -0.3174
16071TIP3    H269705   5.650   3.128  17.265  1.4231 -1.4868 -0.2183
16072TIP3   OH269706   5.729   1.073   1.049  0.3248  0.1089  0.8494
16072TIP3    H169707   5.650   1.033   1.012  0.8308  0.6014 -0.8696
16072TIP3    H269708   5.697   1.147   1.101 -0.4977 -1.3714  2.5554
16073TIP3   OH269709   2.104   1.959  13.269  0.1766 -0.7671 -0.0225
16073TIP3    H169710   2.108   2.006  13.352  0.1583  0.5088 -0.7310
16073TIP3    H269711   2.187   1.911  13.265 -0.9803 -3.2127  2.0491
16074TIP3   OH269712   3.301   3.378   1.126  0.2290  0.6162  0.1659
16074TIP3    H169713   3.219   3.330   1.135 -0.0958  0.6073 -2.1032
16074TIP3    H269714   3.275   3.463   1.091  1.1508  0.5924 -0.6544
16075TIP3   OH269715   6.671   3.899  14.996 -0.3194  0.7185  0.2278
16075TIP3    H169716   6.644   3.966  14.934 -0.2379  0.8771  0.3620
16075TIP3    H269717   6.652   3.816  14.952 -1.1889  0.8265  0.3859
16076TIP3   OH269718   1.853   5.230   5.434 -0.6710  0.4002  0.1225
16076TIP3    H169719   1.900   5.306   5.399 -1.1901  0.7410  0.1439
16076TIP3    H269720   1.897   5.210   5.517  0.1771 -0.0282 -0.4171
16077TIP3   OH269721   1.000   4.809  11.328 -0.4500  0.1119 -0.2859
16077TIP3    H169722   1.057   4.884  11.308  0.1120  0.0996  1.1408
16077TIP3    H269723   1.027   4.742  11.265  1.0780  0.1405  0.2783
16078TIP3   OH269724   1.031   2.475   5.203  0.2374  0.1195  0.2756
16078TIP3    H169725   1.107   2.495   5.148 -0.7895  0.2820 -1.1330
16078TIP3    H269726   0.959   2.462   5.141 -1.1048  0.9114  1.6047
16079TIP3   OH269727   2.897   6.051  14.146  0.2415 -0.5418  0.2294
16079TIP3    H169728   2.912   5.969  14.193  0.3926 -0.2383  0.7227
16079TIP3    H269729   2.901   6.027  14.053 -1.7481 -1.4658  0.3445
16080TIP3   OH269730   1.788   0.982  16.626 -0.2821 -0.5025 -0.1827
16080TIP3    H169731   1.869   1.034  16.623 -0.7177  0.1694 -0.7174
16080TIP3    H269732   1.728   1.028  16.567 -0.1424 -2.5367 -2.0536
16081TIP3   OH269733   3.806   3.261  11.430 -0.1611  0.1349  0.1525
16081TIP3    H169734   3.860   3.308  11.493  0.2987  1.2030 -1.0020
16081TIP3    H269735   3.865   3.239  11.358 -1.2011  1.3804 -1.1658
16082TIP3   OH269736   4.537   6.597   2.638 -0.3965 -0.3656 -0.3299
16082TIP3    H169737   4.496   6.594   2.725  0.5760  2.1647  0.3043
16082TIP3    H269738   4.501   6.522   2.592 -4.0757  0.4457  0.9001
16083TIP3   OH269739   1.776   2.015   0.406 -0.1004  0.4736  0.2194
16083TIP3    H169740   1.779   1.928   0.366 -0.9137 -0.0108  1.1624
16083TIP3    H269741   1.710   2.062   0.355  0.6507  0.6959 -0.5680
16084TIP3   OH269742   0.120   5.878   4.401 -0.1233  0.4685 -0.1805
16084TIP3    H169743   0.211   5.902   4.386 -0.2280  2.7336  2.1200
16084TIP3    H269744   0.124   5.801   4.457  0.3857  0.6672  0.0605
16085TIP3   OH269745   4.409   0.974  16.374 -0.3554 -0.0208  0.5475
16085TIP3    H169746   4.445   1.002  16.289 -0.4903 -0.9656  0.1685
16085TIP3    H269747   4.315   0.986  16.365 -0.3729 -0.1564  0.5548
16086TIP3   OH269748   0.146   3.552  10.444  0.2608  0.2305  0.4801
16086TIP3    H169749   0.052   3.534  10.448  0.4002 -0.3886  1.1124
16086TIP3    H269750   0.156   3.614  10.371 -0.6554  0.4407  0.5298
16087TIP3   OH269751   6.813   5.336  11.531 -0.2253 -0.6144 -0.4362
16087TIP3    H169752   6.899   5.352  11.570  0.1917 -0.4301 -1.3827
16087TIP3    H269753   6.763   5.291  11.599  0.8293 -1.2989 -0.0862
16088TIP3   OH269754   6.112   2.196  15.725 -0.6549  0.2824 -0.3869
16088TIP3    H169755   6.067   2.112  15.727 -0.3907  0.1440  0.3964
16088TIP3    H269756   6.069   2.246  15.657 -2.3361  0.3342  0.6634
16089TIP3   OH269757   4.623   1.617   0.675 -0.3772 -0.6333 -0.0038
16089TIP3    H169758   4.637   1.632   0.582 -0.4895  0.9118  0.2057
16089TIP3    H269759   4.636   1.523   0.686  0.1571 -0.7591 -1.4804
16090TIP3   OH269760   4.532   3.983  11.813  0.4898  0.0615  0.0584
16090TIP3    H169761   4.521   4.074  11.785 -0.3788 -0.1457 -0.3277
16090TIP3    H269762   4.509   3.931  11.735  0.2790 -0.4942  0.4809
16091TIP3   OH269763   1.031   0.107   4.068  0.4536 -0.3063 -0.0287
16091TIP3    H169764   1.125   0.127   4.079  0.6815 -1.1301 -0.4253
16091TIP3    H269765   1.017   0.031   4.125 -0.2678  0.5715  1.0027
16092TIP3   OH269766   6.239   3.790  13.292  0.6600 -0.5602 -0.5851
16092TIP3    H169767   6.191   3.754  13.366  0.1148 -0.3832 -0.8462
16092TIP3    H269768   6.175   3.791  13.220  0.9414  0.0396 -0.8322
16093TIP3   OH269769   1.632   2.913   1.031 -0.1263 -0.3549 -0.2447
16093TIP3    H169770   1.725   2.908   1.054 -0.4545 -0.3176  1.1352
16093TIP3    H269771   1.630   2.972   0.955  0.9046  0.2157  0.1442
16094TIP3   OH269772   5.680   5.511   4.634 -0.2274 -0.1368 -0.9958
16094TIP3    H169773   5.756   5.551   4.592  0.1689  0.8487  0.5999
16094TIP3    H269774   5.700   5.418   4.636  0.8070  0.0790 -0.8554
16095TIP3   OH269775   4.076   4.698  12.173  0.3720  0.2651 -0.4932
16095TIP3    H169776   3.994   4.748  12.173 -1.2311 -2.1861 -0.7865
16095TIP3    H269777   4.102   4.694  12.265 -1.5171 -1.3738  0.0432
16096TIP3   OH269778   2.551   4.187  13.538 -0.3982 -0.4623  0.1414
16096TIP3    H169779   2.536   4.134  13.460 -2.1791 -0.7830  0.6628
16096TIP3    H269780   2.554   4.125  13.610  3.1430 -0.3797  0.2288
16097TIP3   OH269781   6.635   4.518  13.852 -0.0682 -0.1257  0.2328
16097TIP3    H169782   6.724   4.482  13.847 -0.4781 -1.3417  1.0192
16097TIP3    H269783   6.628   4.549  13.943  0.0449  1.3750 -0.2502
16098TIP3   OH269784   0.072   2.245   3.738  0.2322  0.2968 -0.0146
16098TIP3    H169785  -0.008   2.295   3.750 -0.1881 -0.7723  2.2161
16098TIP3    H269786   0.143   2.309   3.750 -0.2945  0.6649  1.2814
16099TIP3   OH269787   0.384   2.646  10.362 -0.0270  0.7239  0.2578
16099TIP3    H169788   0.468   2.690  10.351 -0.7277  2.6515  1.8700
16099TIP3    H269789   0.399   2.583  10.432  0.6415 -0.6958 -1.1216
16100TIP3   OH269790   2.346   3.467   4.536  0.1326 -0.6756 -0.0831
16100TIP3    H169791   2.405   3.445   4.464 -0.0517 -0.5858 -0.2620
16100TIP3    H269792   2.402   3.467   4.613 -0.0477 -2.8765  0.1184
16101TIP3   OH269793   4.139   4.447   3.425 -0.3663 -0.0046  0.0206
16101TIP3    H169794   4.134   4.504   3.502 -0.9768  0.1759 -0.1546
16101TIP3    H269795   4.189   4.371   3.455 -0.6865  0.0219  0.6246
16102TIP3   OH269796   6.531   3.801   2.745 -0.1569  0.1269  0.0468
16102TIP3    H169797   6.446   3.781   2.705 -0.1751 -1.7648  0.8943
16102TIP3    H269798   6.594   3.788   2.674 -0.4445 -0.2582 -0.1451
16103TIP3   OH269799   3.078   4.381   4.289  1.1033 -0.5731 -0.4422
16103TIP3    H169800   3.151   4.432   4.255  0.9968  0.8748  1.3741
16103TIP3    H269801   3.116   4.295   4.308  1.6887 -0.6697 -1.9317
16104TIP3   OH269802   6.529   0.326   6.228  0.4392 -0.3322  0.8717
16104TIP3    H169803   6.498   0.236   6.226 -0.2948 -0.1448  2.2570
16104TIP3    H269804   6.489   0.367   6.151 -1.0943 -0.6350  1.4688
16105TIP3   OH269805   5.514   2.028  12.557  0.5044  0.1589 -0.3244
16105TIP3    H169806   5.542   2.119  12.562 -0.1187  0.3272  0.1807
16105TIP3    H269807   5.580   1.985  12.502  1.0312  0.8184 -0.2077
16106TIP3   OH269808   0.849   4.783  11.555 -0.3138  0.5338  0.3007
16106TIP3    H169809   0.911   4.819  11.618 -0.2745 -1.5909  1.5521
16106TIP3    H269810   0.896   4.785  11.471  0.7872  0.5678  0.9044
16107TIP3   OH269811   0.964   5.610   0.416 -0.1405 -0.0132 -0.6252
16107TIP3    H169812   0.952   5.528   0.368 -1.3216  0.6853 -1.6135
16107TIP3    H269813   0.939   5.589   0.506  2.0036 -1.3257 -0.2627
16108TIP3   OH269814   0.071   6.339  13.181  0.3039  0.0578  0.2779
16108TIP3    H169815   0.156   6.339  13.226  0.6833 -0.6984 -0.4196
16108TIP3    H269816   0.017   6.278  13.232 -0.6862  2.4056  2.2362
16109TIP3   OH269817   2.517   2.166   1.333 -0.7907  0.2455  0.2398
16109TIP3    H169818   2.431   2.128   1.355 -0.8935  1.4178  2.0077
16109TIP3    H269819   2.575   2.090   1.326 -1.5274 -0.4235  1.1381
16110TIP3   OH269820   3.776   6.127   2.033 -0.7205 -0.2999 -0.6637
16110TIP3    H169821   3.793   6.070   2.109 -1.5963 -0.2293 -0.3975
16110TIP3    H269822   3.801   6.074   1.958 -1.5268 -1.0563 -0.4164
16111TIP3   OH269823   3.205   3.215  15.989  0.2792 -0.2976  0.0295
16111TIP3    H169824   3.168   3.258  16.066  0.0494  0.4824 -0.5126
16111TIP3    H269825   3.203   3.281  15.920  1.8279 -0.5301 -0.2699
16112TIP3   OH269826   4.435   1.196   1.775 -0.2869  0.0009 -0.1263
16112TIP3    H169827   4.378   1.242   1.836  2.2745  0.1800  2.3604
16112TIP3    H269828   4.460   1.262   1.711  0.1853  1.0161  1.0670
16113TIP3   OH269829   2.057   3.452   4.525 -0.1718 -0.5112 -0.4640
16113TIP3    H169830   2.151   3.463   4.538 -0.2185  1.9655 -1.6393
16113TIP3    H269831   2.048   3.423   4.434 -0.5815  0.4218 -0.7282
16114TIP3   OH269832   2.888   5.308   4.562 -0.4798  0.1150 -0.5989
16114TIP3    H169833   2.850   5.220   4.557  0.8275 -0.5104  0.0606
16114TIP3    H269834   2.875   5.335   4.653  1.7144 -0.6362 -0.0168
16115TIP3   OH269835   1.367   2.456  12.293 -0.3058  0.2407 -0.1555
16115TIP3    H169836   1.440   2.509  12.261  0.2996 -0.9155 -0.7871
16115TIP3    H269837   1.380   2.453  12.388 -0.1725  0.9392 -0.1451
16116TIP3   OH269838   4.368   3.874   0.133  0.3437 -0.1579 -0.0986
16116TIP3    H169839   4.396   3.898   0.045 -1.4592  1.7126 -0.2570
16116TIP3    H269840   4.442   3.899   0.189  0.0929  2.3231 -0.7302
16117TIP3   OH269841   6.161   0.310   6.252 -0.8109  0.9891 -0.1763
16117TIP3    H169842   6.149   0.380   6.317 -1.0393  1.0070 -0.2350
16117TIP3    H269843   6.178   0.232   6.304  0.8276  1.3439 -0.1482
16118TIP3   OH269844   0.202   3.695   1.891  0.2317 -0.2278 -0.3759
16118TIP3    H169845   0.118   3.675   1.849  1.0090 -2.3623 -1.0205
16118TIP3    H269846   0.204   3.638   1.968  0.8669  0.2083 -0.0627
16119TIP3   OH269847   3.695   3.473  15.845  0.0347  0.0492  0.0175
16119TIP3    H169848   3.757   3.497  15.776 -0.6070 -0.6552 -0.8183
16119TIP3    H269849   3.747   3.476  15.925  0.8700  0.5791 -0.5212
16120TIP3   OH269850   6.514   4.253  15.869  0.5589 -0.5958 -0.0213
16120TIP3    H169851   6.569   4.314  15.821  0.7389 -1.4835 -0.9833
16120TIP3    H269852   6.569   4.223  15.942 -0.1343  1.6764  1.5377
16121TIP3   OH269853   5.888   2.393   3.310 -0.1980  0.4089 -0.1126
16121TIP3    H169854   5.870   2.384   3.404  0.7111  1.7988  0.2118
16121TIP3    H269855   5.889   2.303   3.278 -2.7159 -0.0337  0.7603
16122TIP3   OH269856   6.242   4.277   5.809  0.1378  0.3492 -0.5232
16122TIP3    H169857   6.147   4.269   5.813  0.1148  0.4860 -0.7895
16122TIP3    H269858   6.264   4.257   5.718  0.5763 -1.9131  0.0139
16123TIP3   OH269859   4.882   1.301  13.543  0.4338  0.5100  0.3608
16123TIP3    H169860   4.894   1.395  13.558 -1.1978  1.0420 -1.3095
16123TIP3    H269861   4.796   1.294  13.502  0.6336 -1.7047  0.2107
16124TIP3   OH269862   3.682   1.169  13.410 -0.2563  0.3975  0.2524
16124TIP3    H169863   3.604   1.222  13.428  0.2062  0.2827  3.0314
16124TIP3    H269864   3.647   1.086  13.379 -1.1389  1.0155 -0.4647
16125TIP3   OH269865   3.521   3.917   6.243  0.0650  0.1259  0.3358
16125TIP3    H169866   3.554   3.994   6.198 -0.7531  0.3773  0.1424
16125TIP3    H269867   3.597   3.880   6.287  0.6680  0.4617 -0.4064
16126TIP3   OH269868   3.177   1.297   4.881  0.2578  0.5624 -0.4717
16126TIP3    H169869   3.208   1.207   4.868  0.7065  1.0174 -2.8937
16126TIP3    H269870   3.193   1.314   4.974  2.4658 -1.0069 -0.4821
16127TIP3   OH269871   5.533   5.755  15.572  0.4238  0.1536  0.2159
16127TIP3    H169872   5.540   5.818  15.500 -0.0528 -0.3196 -0.2564
16127TIP3    H269873   5.559   5.671  15.533 -0.6246 -0.2583  0.3714
16128TIP3   OH269874   3.720   0.218   1.286 -0.1929 -0.1156 -0.0261
16128TIP3    H169875   3.694   0.137   1.243  2.2303 -0.7264 -0.4989
16128TIP3    H269876   3.713   0.200   1.380  0.5958 -1.0061 -0.1258
16129TIP3   OH269877   6.628   4.450   2.220  0.2969  0.5212 -0.0597
16129TIP3    H169878   6.654   4.461   2.129  3.1025  0.1622  0.5876
16129TIP3    H269879   6.635   4.356   2.236 -4.7443 -0.1844 -0.5534
16130TIP3   OH269880   6.669   0.599   4.051 -0.2165 -0.2163  0.0035
16130TIP3    H169881   6.643   0.517   4.093  0.1349 -0.2913  0.0825
16130TIP3    H269882   6.606   0.611   3.979 -0.5260 -0.3340  0.2533
16131TIP3   OH269883   3.501   6.658   4.512  0.0963  0.2506 -0.2425
16131TIP3    H169884   3.440   6.668   4.439  0.0651  1.4098 -0.0777
16131TIP3    H269885   3.445   6.649   4.589  0.1301 -0.9099 -0.3298
16132TIP3   OH269886   4.382   5.984  14.409 -0.6749 -0.1490 -0.0192
16132TIP3    H169887   4.404   6.015  14.497  0.1812 -0.1384 -0.2212
16132TIP3    H269888   4.295   5.946  14.417 -0.3986 -0.6060  0.9478
16133TIP3   OH269889   0.314   0.584   0.062 -0.0011 -0.0701  0.1880
16133TIP3    H169890   0.315   0.618  -0.028 -0.5428  1.1888  0.6341
16133TIP3    H269891   0.363   0.648   0.113 -0.2457 -0.4413  0.9025
16134TIP3   OH269892   2.025   1.045  12.860 -0.2370 -0.1151  0.4000
16134TIP3    H169893   1.960   1.112  12.881 -1.9434 -1.2724 -0.9181
16134TIP3    H269894   2.092   1.055  12.927 -0.7938  2.3893  0.6960
16135TIP3   OH269895   2.513   6.643   0.809 -0.5751  0.5519  0.6795
16135TIP3    H169896   2.533   6.728   0.772 -1.7780  0.2502 -0.7474
16135TIP3    H269897   2.447   6.661   0.876 -0.8394  0.7351  0.3687
16136TIP3   OH269898   2.749   2.418  15.500 -0.0755  0.4249  0.4430
16136TIP3    H169899   2.725   2.359  15.428  1.5350 -1.7188  1.5270
16136TIP3    H269900   2.674   2.415  15.559  0.1788 -1.0216  0.7283
16137TIP3   OH269901   6.580   6.397   5.700 -0.6535  0.1893 -0.2492
16137TIP3    H169902   6.490   6.386   5.668 -1.3699 -0.9263  1.9983
16137TIP3    H269903   6.609   6.308   5.721  0.2576  0.7257  0.8467
16138TIP3   OH269904   4.799   3.086  14.204 -0.4911  0.7542  0.2894
16138TIP3    H169905   4.890   3.089  14.235 -1.0520  0.3847  2.0579
16138TIP3    H269906   4.783   2.994  14.185 -1.6356  0.1295  3.7447
16139TIP3   OH269907   0.417   4.618   5.540  0.0058  0.2773 -0.1910
16139TIP3    H169908   0.500   4.630   5.493  1.2858 -3.4304  0.8099
16139TIP3    H269909   0.416   4.688   5.605  1.8828  0.9576 -0.8304
16140TIP3   OH269910   2.495   0.716  11.255 -0.2056 -0.1142  0.3359
16140TIP3    H169911   2.419   0.758  11.293  0.8884  1.0117  1.3565
16140TIP3    H269912   2.493   0.627  11.289 -1.7983 -0.5473 -0.7653
16141TIP3   OH269913   0.050   4.212   5.449  0.1422 -0.7546  0.3289
16141TIP3    H169914  -0.046   4.212   5.445  0.0660 -0.9049  1.6503
16141TIP3    H269915   0.075   4.123   5.423  0.1298  0.0960 -2.9312
16142TIP3   OH269916   5.731   6.800   0.934 -0.6675  0.4109  0.0060
16142TIP3    H169917   5.826   6.806   0.920 -0.7635  0.4897 -0.6379
16142TIP3    H269918   5.694   6.790   0.846 -1.0775 -2.2737  0.4144
16143TIP3   OH269919   5.608   2.162   6.602  0.0738  0.6823  0.0992
16143TIP3    H169920   5.639   2.074   6.621 -0.3907  0.0793 -1.7101
16143TIP3    H269921   5.677   2.220   6.632 -0.4509 -0.1228  3.1595
16144TIP3   OH269922   6.084   2.531  13.470  0.3267 -0.0700  0.6583
16144TIP3    H169923   6.105   2.438  13.459  1.0028  0.0658  0.7616
16144TIP3    H269924   6.061   2.539  13.563 -2.2479 -0.6023  0.1547
16145TIP3   OH269925   4.671   3.255   5.977  0.3624  0.2558  0.0610
16145TIP3    H169926   4.585   3.295   5.988  0.1095 -0.1370 -0.4345
16145TIP3    H269927   4.695   3.272   5.886  0.4142 -0.3785 -0.0519
16146TIP3   OH269928   5.803   5.445  16.058  0.3845  0.0247  0.1924
16146TIP3    H169929   5.753   5.368  16.087 -0.4792  1.3565  2.5288
16146TIP3    H269930   5.773   5.516  16.115  1.7658  1.9277 -1.3091
16147TIP3   OH269931   0.690   1.740  16.266 -0.2351  0.5259  0.0435
16147TIP3    H169932   0.736   1.823  16.277  2.9931 -1.2092  0.9791
16147TIP3    H269933   0.713   1.689  16.344 -0.2598 -2.0185 -1.5030
16148TIP3   OH269934   3.616   5.918   6.039 -0.3786 -0.1539 -0.1583
16148TIP3    H169935   3.636   5.975   6.113  0.0421 -0.4071 -0.0766
16148TIP3    H269936   3.550   5.858   6.072 -0.9800  0.4118 -0.3054
16149TIP3   OH269937   6.705   2.830   5.479 -0.0169 -0.4308  0.6057
16149TIP3    H169938   6.678   2.911   5.435 -2.4863 -1.4646  0.0778
16149TIP3    H269939   6.801   2.832   5.475 -0.0520  1.4994 -1.1645
16150TIP3   OH269940   1.866   3.928   4.046  0.0907 -0.1441 -0.0717
16150TIP3    H169941   1.834   3.983   3.975 -0.9832  1.0349  1.2580
16150TIP3    H269942   1.954   3.902   4.019 -0.8303 -0.9744 -2.4657
16151TIP3   OH269943   0.983   0.209   2.256  0.5503 -0.1430  0.5021
16151TIP3    H169944   0.974   0.262   2.177 -1.6568  0.2998  0.9881
16151TIP3    H269945   1.041   0.260   2.313  0.2220  0.6861  0.1082
16152TIP3   OH269946   2.834   5.345   2.088  0.3196 -0.5346 -0.1593
16152TIP3    H169947   2.818   5.334   2.181 -1.7587 -0.2895 -0.4285
16152TIP3    H269948   2.926   5.323   2.076  0.4616 -1.2060  1.8341
16153TIP3   OH269949   6.171   2.876   2.545 -0.2664 -0.2777  0.3522
16153TIP3    H169950   6.189   2.860   2.638 -0.4081  1.6358  0.7450
16153TIP3    H269951   6.244   2.835   2.499 -0.3419 -1.5045  1.2727
16154TIP3   OH269952   6.387   3.796  11.381 -0.2417  0.0084  0.2205
16154TIP3    H169953   6.348   3.721  11.427  0.9585 -0.2789  0.8336
16154TIP3    H269954   6.368   3.871  11.437 -0.1937 -0.0760  0.3510
16155TIP3   OH269955   4.743   6.228   1.113  0.2819  0.0685  0.6310
16155TIP3    H169956   4.690   6.235   1.192 -0.7925  0.2584 -0.0832
16155TIP3    H269957   4.714   6.147   1.071  0.2722  0.3850  0.0222
16156TIP3   OH269958   5.024   3.872  15.541 -0.4730 -0.0231 -0.5533
16156TIP3    H169959   5.083   3.888  15.615  0.2213  0.5937 -1.2238
16156TIP3    H269960   5.033   3.950  15.486 -1.2400 -0.3235 -1.1267
16157TIP3   OH269961   5.000   6.055  15.128  0.9022  0.0460 -0.1974
16157TIP3    H169962   5.060   5.981  15.117 -0.4990 -1.1745  0.0454
16157TIP3    H269963   4.994   6.067  15.223  0.0798 -0.4526 -0.1749
16158TIP3   OH269964   2.308   4.953   2.569  0.1831  0.4138 -0.5701
16158TIP3    H169965   2.359   5.006   2.630 -0.6227  1.8658 -1.1041
16158TIP3    H269966   2.219   4.987   2.575 -0.4508 -1.1066 -0.7233
16159TIP3   OH269967   2.690   2.109  14.840  0.4426 -0.2458 -0.4855
16159TIP3    H169968   2.607   2.095  14.794  0.3574  2.1698 -1.2391
16159TIP3    H269969   2.735   2.025  14.836 -0.7083 -0.8247 -2.6725
16160TIP3   OH269970   1.428   0.337  12.905  0.6406 -0.8137  0.1302
16160TIP3    H169971   1.465   0.253  12.878  2.5818 -0.5356  1.6723
16160TIP3    H269972   1.408   0.382  12.823  3.1875 -1.2833 -0.8482
16161TIP3   OH269973   3.998   4.716   2.600 -0.5014 -0.5612 -0.5674
16161TIP3    H169974   3.975   4.624   2.612  2.0206 -1.1513  0.4956
16161TIP3    H269975   3.968   4.759   2.679  0.8482 -1.0976  0.2839
16162TIP3   OH269976   6.736   2.174  15.951  0.1137  0.1408 -0.0177
16162TIP3    H169977   6.642   2.188  15.944 -0.0125 -0.3090  0.6015
16162TIP3    H269978   6.775   2.261  15.941 -0.2723  0.1449 -1.6020
16163TIP3   OH269979   3.054   6.721   1.263  0.3823 -0.1081  0.0084
16163TIP3    H169980   3.092   6.639   1.232  0.3734 -0.7001  1.4880
16163TIP3    H269981   3.129   6.777   1.282  0.4376 -0.2628  0.2553
16164TIP3   OH269982   5.160   3.182  16.682 -0.4927 -0.0875  0.0216
16164TIP3    H169983   5.205   3.255  16.641 -0.3881 -0.2924 -0.2264
16164TIP3    H269984   5.094   3.223  16.738 -0.2037  0.2023  0.1514
16165TIP3   OH269985   4.450   3.255  10.849 -0.2500  0.2569 -0.0149
16165TIP3    H169986   4.533   3.270  10.803  0.0730 -1.0442  0.1165
16165TIP3    H269987   4.405   3.190  10.796 -0.0553 -0.9526  1.2719
16166TIP3   OH269988   1.734   2.992  14.373  0.2110 -0.3655  0.1347
16166TIP3    H169989   1.658   3.029  14.329 -0.0225 -0.9311  0.0620
16166TIP3    H269990   1.733   3.033  14.460 -0.1101 -0.2908  0.0974
16167TIP3   OH269991   6.692   0.686   4.405  1.0185 -0.2441  0.2065
16167TIP3    H169992   6.690   0.655   4.495 -1.2815 -2.6591 -0.5417
16167TIP3    H269993   6.779   0.661   4.373  0.2431 -3.7424  0.4840
16168TIP3   OH269994   3.930   2.459  13.939  0.4466 -0.3558  0.3763
16168TIP3    H169995   3.897   2.375  13.909  1.2982 -1.3444  2.0214
16168TIP3    H269996   3.901   2.465  14.030 -2.0595  2.4981 -0.4355
16169TIP3   OH269997   5.760   0.887  16.885  0.4771 -0.2673  0.5863
16169TIP3    H169998   5.718   0.967  16.915 -0.5786  0.0549 -1.5612
16169TIP3    H269999   5.723   0.818  16.939  0.1065  0.4927  1.3144
16170TIP3   OH270000   5.432   6.559   0.025 -0.2687  0.3033 -0.5545
16170TIP3    H170001   5.346   6.583  -0.010 -0.4721  1.2938  0.5723
16170TIP3    H270002   5.413   6.515   0.108  0.2034 -2.1531 -1.6597
16171TIP3   OH270003   4.079   1.531  13.389  0.3133  0.0879 -0.7278
16171TIP3    H170004   4.057   1.438  13.394  0.0188  0.1192 -1.3947
16171TIP3    H270005   3.996   1.576  13.402  0.1979  0.2282 -1.8367
16172TIP3   OH270006   5.723   3.495  13.254  0.5267 -0.0788 -0.5035
16172TIP3    H170007   5.810   3.478  13.290  0.2073 -1.2961 -0.2675
16172TIP3    H270008   5.691   3.572  13.303  0.8103 -0.6338  0.5915
16173TIP3   OH270009   6.548   3.349   0.263  0.4996 -0.3317 -0.3341
16173TIP3    H170010   6.624   3.303   0.229  0.7078  0.2150 -0.6361
16173TIP3    H270011   6.476   3.286   0.257  0.9568 -0.8935  0.0814
16174TIP3   OH270012   0.213   0.188  11.007 -0.0595  0.0179  0.6604
16174TIP3    H170013   0.191   0.107  10.962  0.5638 -1.1665  2.4052
16174TIP3    H270014   0.142   0.248  10.986 -0.4889 -0.9498 -0.7120
16175TIP3   OH270015   5.592   2.571   5.910 -0.4734  0.0274 -0.5898
16175TIP3    H170016   5.684   2.593   5.896 -0.3196 -1.0886 -1.4319
16175TIP3    H270017   5.593   2.502   5.977 -0.7249  0.2444 -0.3587
16176TIP3   OH270018   6.793   2.728  11.898 -0.1133 -0.2219  0.1613
16176TIP3    H170019   6.882   2.737  11.932  0.3707  0.0358 -1.1161
16176TIP3    H270020   6.755   2.656  11.949  0.0292  1.1483  2.2966
16177TIP3   OH270021   3.382   0.669  11.769  0.7784 -0.4832  0.4435
16177TIP3    H170022   3.371   0.713  11.853  1.7279 -0.0282  0.3439
16177TIP3    H270023   3.421   0.584  11.792 -1.5257 -1.5501  0.6804
16178TIP3   OH270024   6.005   0.189  11.178  0.1290 -0.2951  0.0815
16178TIP3    H170025   5.970   0.107  11.213  1.2726 -1.3228 -1.0773
16178TIP3    H270026   5.972   0.193  11.088 -0.6101  0.9668  0.3881
16179TIP3   OH270027   2.519   4.713   3.739  0.3206  0.4265  0.1102
16179TIP3    H170028   2.568   4.776   3.793  1.2369 -0.4001  0.2805
16179TIP3    H270029   2.458   4.672   3.800  1.5236 -0.6810  0.6287
16180TIP3   OH270030   4.139   3.157  15.871 -0.1705 -0.2181  0.4766
16180TIP3    H170031   4.206   3.218  15.842 -0.0694 -0.2909  0.5559
16180TIP3    H270032   4.058   3.191  15.834 -0.3810  0.8986  1.8657
16181TIP3   OH270033   2.746   1.564  12.180 -0.4115  0.4754  0.6441
16181TIP3    H170034   2.717   1.509  12.254 -0.0470 -0.9777 -0.2512
16181TIP3    H270035   2.816   1.617  12.217 -0.4272 -0.0156  1.4261
16182TIP3   OH270036   1.713   2.367   6.193  0.2426  0.1659  0.5015
16182TIP3    H170037   1.753   2.311   6.260  0.4337 -1.2694 -0.7594
16182TIP3    H270038   1.627   2.388   6.228  1.0006  0.9532  1.9965
16183TIP3   OH270039   5.655   2.163   2.835 -0.3880  0.6545 -0.3876
16183TIP3    H170040   5.745   2.173   2.803 -0.5981  0.8638 -0.9333
16183TIP3    H270041   5.664   2.152   2.929  0.2031  0.7907 -0.4235
16184TIP3   OH270042   1.590   1.778   0.684  0.4744 -0.3099  0.6491
16184TIP3    H170043   1.516   1.816   0.730  0.9968  0.1085  1.1596
16184TIP3    H270044   1.551   1.717   0.621 -0.4925  1.9895 -1.1603
16185TIP3   OH270045   5.673   1.388   2.524  0.2168  0.2094  0.3714
16185TIP3    H170046   5.748   1.333   2.548 -0.5967 -0.6749  0.9434
16185TIP3    H270047   5.697   1.424   2.439  0.0903 -2.3971 -0.8818
16186TIP3   OH270048   1.998   4.645   4.318  0.5914  0.0799 -0.2208
16186TIP3    H170049   1.964   4.702   4.249  2.4825  0.9151 -0.5374
16186TIP3    H270050   2.091   4.666   4.322  1.6080 -3.5198 -0.8623
16187TIP3   OH270051   4.460   0.860   5.793 -0.2664 -0.1610  0.3388
16187TIP3    H170052   4.477   0.814   5.875  1.2857 -0.0217  0.1204
16187TIP3    H270053   4.371   0.835   5.769  0.1873 -2.2980  0.7152
16188TIP3   OH270054   4.605   3.627   2.989  0.1016 -0.6108 -0.2704
16188TIP3    H170055   4.619   3.574   3.067  1.1504  1.2724  0.8907
16188TIP3    H270056   4.619   3.566   2.916  1.6504 -1.8680  0.9868
16189TIP3   OH270057   1.345   0.261   0.743 -0.0263 -0.4191  0.2056
16189TIP3    H170058   1.410   0.305   0.689 -0.5106 -0.0804 -0.1052
16189TIP3    H270059   1.315   0.188   0.689  1.7691 -2.0320  1.2271
16190TIP3   OH270060   2.824   4.900  11.928 -0.3528  0.1885 -0.9696
16190TIP3    H170061   2.851   4.991  11.930 -0.7841  0.4108 -3.1101
16190TIP3    H270062   2.904   4.851  11.949 -0.4626  1.0384  1.7389
16191TIP3   OH270063   2.276   0.192  15.338 -0.1180  0.5312  0.5213
16191TIP3    H170064   2.278   0.204  15.433  1.0918 -2.5966  1.0173
16191TIP3    H270065   2.358   0.230  15.307  0.7993 -0.8951  1.1472
16192TIP3   OH270066   2.848   4.230   5.335  0.3335  0.1604 -0.2730
16192TIP3    H170067   2.874   4.274   5.416 -0.8064  0.2627  0.0470
16192TIP3    H270068   2.827   4.302   5.275  0.7144  0.0772 -0.5075
16193TIP3   OH270069   1.196   2.358   0.092  0.1408 -0.4939  0.5065
16193TIP3    H170070   1.203   2.269   0.058  1.5315 -0.1581 -0.1732
16193TIP3    H270071   1.103   2.370   0.111 -0.1999 -1.7625 -0.2598
16194TIP3   OH270072   0.167   2.702   0.773 -0.0312  0.3203  0.2892
16194TIP3    H170073   0.175   2.741   0.860 -0.7207 -0.2728  0.6245
16194TIP3    H270074   0.237   2.744   0.722  2.6624 -1.7173  2.0102
16195TIP3   OH270075   0.034   3.422   3.017 -0.0213  0.1868 -0.2239
16195TIP3    H170076   0.128   3.407   3.013  0.0987  0.8289  0.1132
16195TIP3    H270077  -0.003   3.359   2.954  0.5799 -0.4255  0.0275
16196TIP3   OH270078   6.084   1.869  13.164 -0.5565  0.0250  0.0534
16196TIP3    H170079   6.075   1.946  13.221 -4.0712  1.4045 -2.0380
16196TIP3    H270080   6.032   1.891  13.087  2.9449 -2.2151 -3.2390
16197TIP3   OH270081   5.107   3.706  15.100  0.5855 -0.4761 -0.1786
16197TIP3    H170082   5.192   3.674  15.132  1.0622  0.5769 -0.3356
16197TIP3    H270083   5.114   3.801  15.105 -0.5856 -0.3739 -0.2359
16198TIP3   OH270084   3.629   2.708   6.288 -0.1411  0.3327  0.1810
16198TIP3    H170085   3.685   2.786   6.283 -2.7490  2.3823  0.4408
16198TIP3    H270086   3.672   2.652   6.353  2.6603  0.7431 -1.1495
16199TIP3   OH270087   2.008   2.742   4.188 -0.2130 -0.2075  0.0331
16199TIP3    H170088   1.961   2.824   4.206  0.0281 -0.1947  0.6092
16199TIP3    H270089   2.091   2.752   4.235 -0.8919 -1.5241  1.5837
16200TIP3   OH270090   1.173   5.213  12.878  0.2590  0.5083  0.1230
16200TIP3    H170091   1.109   5.194  12.810  0.8298  1.8682 -0.8379
16200TIP3    H270092   1.123   5.212  12.960 -1.0611  1.8377 -0.6347
16201TIP3   OH270093   3.594   4.841  12.719  0.1490  0.2331 -0.3949
16201TIP3    H170094   3.623   4.751  12.736 -1.3194  0.3005  3.4175
16201TIP3    H270095   3.670   4.895  12.740  0.3822  0.0057 -0.6354
16202TIP3   OH270096   2.406   5.615  15.038  0.0189  0.9200  0.0931
16202TIP3    H170097   2.324   5.578  15.005 -0.2569  0.6501  1.0427
16202TIP3    H270098   2.468   5.603  14.967 -0.7467  1.0545 -0.6116
16203TIP3   OH270099   3.371   5.545  11.413  0.4634  0.1461  0.2226
16203TIP3    H170100   3.342   5.594  11.490 -1.9760  0.4773 -0.8033
16203TIP3    H270101   3.425   5.608  11.365  0.2487  0.6557  0.6236
16204TIP3   OH270102   6.806   6.167   1.535  0.0571  0.0089  1.0158
16204TIP3    H170103   6.729   6.168   1.477  0.5283 -0.7250  0.3507
16204TIP3    H270104   6.793   6.241   1.594 -0.7136  0.4410  0.3234
16205TIP3   OH270105   3.958   5.917  13.529 -0.0491  0.3250  0.4118
16205TIP3    H170106   3.943   5.998  13.481 -1.4569  0.5639  1.2069
16205TIP3    H270107   3.884   5.910  13.589  0.1622 -1.4464  0.5187
16206TIP3   OH270108   2.028   2.512  15.199  0.4132 -0.0026  0.2611
16206TIP3    H170109   2.039   2.417  15.204  0.7251  0.0814  3.0685
16206TIP3    H270110   1.943   2.525  15.157  0.0790 -1.5636  0.4154
16207TIP3   OH270111   0.948   0.598  11.088 -0.8656 -0.1002 -0.6416
16207TIP3    H170112   0.938   0.608  10.994  1.1972  0.9745 -0.7962
16207TIP3    H270113   1.031   0.640  11.108 -1.3930 -0.0369  1.7110
16208TIP3   OH270114   1.889   2.531   2.355 -0.2125 -0.9269  0.3459
16208TIP3    H170115   1.975   2.551   2.320 -0.4261  2.5856  1.4335
16208TIP3    H270116   1.828   2.572   2.294 -0.7402  1.8500  2.5406
16209TIP3   OH270117   1.844   4.765  12.582 -0.1521 -0.3878  0.1749
16209TIP3    H170118   1.827   4.676  12.553  0.2110 -0.6606  0.7739
16209TIP3    H270119   1.815   4.821  12.509 -1.3281 -0.9345  0.1994
16210TIP3   OH270120   2.767   5.127  15.989 -0.3071  0.0389 -0.0241
16210TIP3    H170121   2.700   5.190  16.016 -0.6639 -0.3631  0.0299
16210TIP3    H270122   2.749   5.049  16.041  0.0966 -0.1303 -0.1387
16211TIP3   OH270123   0.804   1.640  10.844 -0.0208  0.1492 -0.1994
16211TIP3    H170124   0.847   1.616  10.762 -1.2612 -0.7685 -0.5979
16211TIP3    H270125   0.713   1.658  10.820 -0.4172 -0.1872  0.9680
16212TIP3   OH270126   0.256   1.178   1.419  0.1053 -0.2660 -0.5479
16212TIP3    H170127   0.291   1.176   1.331 -1.2088 -0.5597 -1.0936
16212TIP3    H270128   0.177   1.123   1.415  0.7512 -1.4134  1.1416
16213TIP3   OH270129   0.516   6.111   4.271 -0.4134  0.6056  0.3010
16213TIP3    H170130   0.504   6.202   4.243  2.5535  0.5584 -1.5995
16213TIP3    H270131   0.438   6.065   4.239 -0.9749  2.0899 -0.5550
16214TIP3   OH270132   6.104   2.791   3.083  0.1344 -0.3795  0.2193
16214TIP3    H170133   6.058   2.711   3.109 -3.4315  1.4641  0.1438
16214TIP3    H270134   6.132   2.831   3.165  0.9921 -1.1030  0.3055
16215TIP3   OH270135   2.755   2.123   4.601 -0.3012 -0.8535 -0.5082
16215TIP3    H170136   2.838   2.106   4.555 -0.0047  0.9929 -0.7196
16215TIP3    H270137   2.689   2.084   4.544  0.3479 -1.7057 -0.7086
16216TIP3   OH270138   0.317   4.029  11.057  0.9984  0.6279 -0.3786
16216TIP3    H170139   0.326   4.124  11.051  0.6714  0.6415 -0.7096
16216TIP3    H270140   0.245   4.008  10.998 -0.4174  0.4109  1.3291
16217TIP3   OH270141   5.997   3.054   3.575  0.2744  0.0824  0.3478
16217TIP3    H170142   5.977   3.056   3.481  0.2367  0.4955  0.3625
16217TIP3    H270143   6.066   2.989   3.583  0.1999 -0.0400  0.0486
16218TIP3   OH270144   0.994   0.640   2.613  0.9848  0.3400  0.4085
16218TIP3    H170145   0.929   0.590   2.662  1.3539 -0.8737 -0.2975
16218TIP3    H270146   0.944   0.685   2.544  0.8817 -0.6157 -0.1539
16219TIP3   OH270147   6.350   1.672   0.579  0.0963  0.1500 -0.0995
16219TIP3    H170148   6.310   1.595   0.538  2.2783 -0.4683 -1.2039
16219TIP3    H270149   6.349   1.652   0.672 -0.0696 -0.8584 -0.3014
16220TIP3   OH270150   5.011   1.653  13.579  0.4254 -0.1121 -0.5977
16220TIP3    H170151   4.969   1.652  13.665 -0.7115 -1.2493 -1.1209
16220TIP3    H270152   4.953   1.706  13.524  0.2395 -0.7846 -1.0640
16221TIP3   OH270153   2.960   5.853   3.848 -0.5526  0.1236  0.1338
16221TIP3    H170154   2.944   5.941   3.814 -1.6116 -0.4968 -1.0356
16221TIP3    H270155   3.048   5.831   3.816 -0.4835  0.5552  0.0166
16222TIP3   OH270156   1.513   1.805   6.038  0.4120  0.6822  0.5579
16222TIP3    H170157   1.560   1.726   6.063 -1.0531  0.0324  1.3882
16222TIP3    H270158   1.549   1.874   6.092  2.8827  1.0080 -1.3346
16223TIP3   OH270159   3.586   6.277  13.834 -0.6063 -0.0557  0.4282
16223TIP3    H170160   3.527   6.319  13.897 -0.4898  0.6671  0.0642
16223TIP3    H270161   3.634   6.212  13.886 -0.8567  0.1931  0.9793
16224TIP3   OH270162   3.011   3.764   1.370  0.3885  0.1051 -0.5215
16224TIP3    H170163   2.940   3.762   1.434  0.8949  0.2982  0.0564
16224TIP3    H270164   3.091   3.767   1.423  0.7895  1.5157 -1.1677
16225TIP3   OH270165   3.297   1.470  16.189  0.2857 -0.0244  0.2459
16225TIP3    H170166   3.305   1.379  16.161 -1.4205 -0.3918  0.8507
16225TIP3    H270167   3.373   1.484  16.246  0.9385 -0.8461 -0.3962
16226TIP3   OH270168   3.814   5.929   4.205  0.2053  0.4241  0.6842
16226TIP3    H170169   3.768   5.978   4.273 -1.5519 -1.0711  0.6321
16226TIP3    H270170   3.745   5.885   4.155  1.5113  0.5264 -1.3556
16227TIP3   OH270171   3.596   2.922  12.589 -0.1167 -0.2230  0.2105
16227TIP3    H170172   3.676   2.960  12.554  0.0313 -2.7191 -2.5609
16227TIP3    H270173   3.625   2.848  12.641 -0.5923  0.3560  1.3490
16228TIP3   OH270174   2.247   0.219   5.264  0.0782 -0.3358  0.1210
16228TIP3    H170175   2.339   0.232   5.239 -0.7517  0.7585 -2.8368
16228TIP3    H270176   2.224   0.299   5.311  0.5255 -0.4407  0.5246
16229TIP3   OH270177   4.207   2.605   4.716  0.3854 -0.9388 -0.2194
16229TIP3    H170178   4.134   2.627   4.774 -0.5225 -0.8973 -1.3512
16229TIP3    H270179   4.284   2.637   4.762 -0.4033 -0.0677  0.5334
16230TIP3   OH270180   2.147   6.803   5.222  0.2977  0.5123 -0.0875
16230TIP3    H170181   2.176   6.894   5.233 -1.8444  1.4095 -1.2328
16230TIP3    H270182   2.099   6.803   5.139 -0.0716 -1.5925  0.0785
16231TIP3   OH270183   0.930   6.297  12.699  0.6249  0.8911 -0.5037
16231TIP3    H170184   0.834   6.299  12.692  0.6602 -0.7270 -1.8777
16231TIP3    H270185   0.950   6.207  12.724  1.7756  1.4337  0.6658
16232TIP3   OH270186   4.965   2.569  16.814  0.4140  0.6023 -0.2421
16232TIP3    H170187   4.978   2.661  16.790  1.9919  0.3838 -0.3592
16232TIP3    H270188   4.914   2.532  16.742 -1.0436  1.5699  0.2446
16233TIP3   OH270189   4.626   4.504  15.152  0.0060  0.4122 -0.9313
16233TIP3    H170190   4.709   4.528  15.111  0.9181  0.6742  0.9325
16233TIP3    H270191   4.583   4.588  15.171  0.2113  0.3620 -0.2004
16234TIP3   OH270192   4.935   1.038   0.169  0.2426  0.2194  0.2676
16234TIP3    H170193   4.949   0.976   0.097 -0.0024  0.0001  0.4104
16234TIP3    H270194   4.966   1.122   0.134  0.6681  0.0005  0.1087
16235TIP3   OH270195   6.627   0.680   0.708 -0.1747 -0.3980  0.4037
16235TIP3    H170196   6.667   0.766   0.721 -0.3331 -0.1650 -0.5347
16235TIP3    H270197   6.698   0.617   0.720 -0.1915 -0.1910  1.7225
16236TIP3   OH270198   0.053   4.825  17.113  0.2215  0.4498 -0.3386
16236TIP3    H170199   0.026   4.878  17.188  0.5018 -1.6455  1.3275
16236TIP3    H270200   0.144   4.802  17.131  0.4753  0.3855 -1.6214
16237TIP3   OH270201   3.419   5.332  14.406  0.1326 -0.7051  0.1047
16237TIP3    H170202   3.369   5.382  14.342  0.3028  0.2486  0.6964
16237TIP3    H270203   3.409   5.380  14.488  0.5162 -1.5038  0.6355
16238TIP3   OH270204   4.008   4.563   1.588  0.7228 -0.2239 -0.1054
16238TIP3    H170205   4.037   4.499   1.653 -0.6240 -1.6350 -0.8160
16238TIP3    H270206   4.055   4.643   1.611  0.3266 -0.6568  2.5696
16239TIP3   OH270207   4.651   3.941  11.000  0.0821  0.2180  0.0236
16239TIP3    H170208   4.664   3.983  10.915  0.7598 -0.5351 -0.2503
16239TIP3    H270209   4.587   3.873  10.983  1.5247 -1.1061 -0.2896
16240TIP3   OH270210   6.436   6.512  14.023 -0.0607 -0.7196  0.3736
16240TIP3    H170211   6.357   6.564  14.033 -0.8367 -1.7789  0.0055
16240TIP3    H270212   6.493   6.540  14.094 -0.2256  0.9875 -0.1269
16241TIP3   OH270213   1.646   4.524  11.157  0.0295 -0.2114 -0.0476
16241TIP3    H170214   1.724   4.508  11.103  0.8537 -1.1101  1.3347
16241TIP3    H270215   1.674   4.590  11.220  0.4478 -2.1230  1.8809
16242TIP3   OH270216   5.274   5.839  16.044 -0.3387 -0.1075  0.4907
16242TIP3    H170217   5.283   5.751  16.082 -2.6977 -0.0037  1.4658
16242TIP3    H270218   5.312   5.831  15.956  0.7471 -1.7150  1.0660
16243TIP3   OH270219   4.676   6.400   0.893 -0.1024  0.1307 -0.4338
16243TIP3    H170220   4.727   6.363   0.966  0.4616  2.2286  0.3004
16243TIP3    H270221   4.695   6.341   0.819  2.6356  0.2418  0.0563
16244TIP3   OH270222   2.045   3.263   3.837 -0.0492 -0.2196  0.1428
16244TIP3    H170223   2.085   3.207   3.904  0.7694  0.7318  0.4703
16244TIP3    H270224   1.965   3.296   3.879  0.1854 -0.0482  0.4597
16245TIP3   OH270225   3.265   3.647  11.705  0.7756 -0.3983  0.4364
16245TIP3    H170226   3.173   3.662  11.728  0.9725  1.2599  0.2341
16245TIP3    H270227   3.262   3.625  11.612  0.4196 -2.4653  0.8914
16246TIP3   OH270228   5.886   4.024   1.351 -0.7129 -0.5815  0.0391
16246TIP3    H170229   5.909   3.958   1.416 -1.6886 -1.3934 -0.4219
16246TIP3    H270230   5.792   4.017   1.342 -0.7122  0.2265 -0.7304
16247TIP3   OH270231   5.490   5.185  15.212 -0.2029 -0.0424 -0.2020
16247TIP3    H170232   5.456   5.273  15.196 -1.5085 -0.5722 -0.3753
16247TIP3    H270233   5.428   5.145  15.273  0.4453 -0.8091 -0.0210
16248TIP3   OH270234   1.318   2.927   3.007  0.4311 -0.7244 -0.6523
16248TIP3    H170235   1.278   2.981   3.075 -0.2227  0.0875 -1.6354
16248TIP3    H270236   1.410   2.951   3.009  0.5551 -1.2612  0.4336
16249TIP3   OH270237   4.123   0.082  11.277 -0.0737 -0.0999 -0.1755
16249TIP3    H170238   4.057   0.013  11.274 -0.1569 -0.0298  0.0272
16249TIP3    H270239   4.179   0.066  11.201  0.3552 -0.8362  0.2915
16250TIP3   OH270240   4.687   4.720  13.860 -0.0068 -0.1980  0.6321
16250TIP3    H170241   4.710   4.810  13.886  2.0121 -0.7966  1.0913
16250TIP3    H270242   4.637   4.686  13.935  0.3152  0.1340  1.0024
16251TIP3   OH270243   0.530   2.928  12.845 -0.1719 -0.1635 -0.0742
16251TIP3    H170244   0.446   2.886  12.828 -0.2111 -0.0750 -0.0995
16251TIP3    H270245   0.577   2.921  12.762 -0.8858  1.4877 -0.6663
16252TIP3   OH270246   0.557   4.899  16.393 -0.1867  0.1839  0.1450
16252TIP3    H170247   0.567   4.879  16.486  1.7853 -1.2625 -0.3068
16252TIP3    H270248   0.539   4.814  16.352 -0.2815  0.6831 -0.8801
16253TIP3   OH270249   0.012   6.241   5.249 -0.0929 -0.0146  0.1976
16253TIP3    H170250   0.003   6.314   5.188 -1.4410  0.6780  1.1640
16253TIP3    H270251   0.052   6.280   5.327 -1.2987 -0.1741  0.9119
16254TIP3   OH270252   5.637   4.879   0.491 -0.5046  0.6367 -0.0181
16254TIP3    H170253   5.689   4.809   0.451  0.6670  0.5407  1.5702
16254TIP3    H270254   5.677   4.892   0.577 -2.0728  1.7668  0.5799
16255TIP3   OH270255   3.049   6.769  12.860 -0.2810  0.3825 -0.0171
16255TIP3    H170256   3.004   6.693  12.896  1.7875 -0.6339  0.5090
16255TIP3    H270257   3.135   6.737  12.833 -0.0216  2.1352 -1.5353
16256TIP3   OH270258   1.036   1.898   3.892  0.5782  0.5074 -0.5582
16256TIP3    H170259   0.946   1.916   3.919 -0.1025 -1.5965 -1.2028
16256TIP3    H270260   1.089   1.922   3.968 -0.6277  0.8515  0.2085
16257TIP3   OH270261   6.045   4.232   3.373  0.5888  0.2867  0.3799
16257TIP3    H170262   5.997   4.151   3.354 -1.1502  1.4447 -0.4514
16257TIP3    H270263   6.104   4.243   3.298  1.2284 -0.4586  0.7568
16258TIP3   OH270264   4.833   5.441  12.989  0.0310 -0.1585 -0.3458
16258TIP3    H170265   4.830   5.510  12.924  1.1387 -1.3341 -1.7030
16258TIP3    H270266   4.746   5.441  13.028 -0.2328  1.4442 -0.8615
16259TIP3   OH270267   5.939   4.855  16.559  0.3496  0.4006 -0.2847
16259TIP3    H170268   5.984   4.802  16.626 -1.2306 -1.2289 -0.4276
16259TIP3    H270269   5.847   4.853  16.586  0.1096  2.3345 -0.8496
16260TIP3   OH270270   1.825   5.509   0.062  0.3585 -0.2494 -0.4149
16260TIP3    H170271   1.819   5.543   0.152  0.7890 -2.4064  0.5159
16260TIP3    H270272   1.743   5.463   0.048  1.6201 -2.9603  0.3256
16261TIP3   OH270273   4.832   5.664  14.684  0.6139 -0.1995 -0.3983
16261TIP3    H170274   4.819   5.693  14.594 -0.0105  0.6860 -0.0308
16261TIP3    H270275   4.760   5.704  14.733  1.0636 -0.5044  0.5278
16262TIP3   OH270276   2.356   0.799   4.947 -0.2356 -0.0915 -0.4669
16262TIP3    H170277   2.401   0.817   4.864 -0.0156 -0.0600 -0.3410
16262TIP3    H270278   2.298   0.726   4.928 -0.2717 -0.0079 -0.6804
16263TIP3   OH270279   3.131   4.847   5.524 -0.5207  0.3885  0.3451
16263TIP3    H170280   3.209   4.815   5.479 -1.1369  1.1272 -1.3340
16263TIP3    H270281   3.095   4.913   5.465 -1.8084  0.8476  1.6001
16264TIP3   OH270282   3.759   2.839  11.530 -0.2560  0.4694 -0.5748
16264TIP3    H170283   3.808   2.865  11.608  0.4821 -2.1378 -0.0736
16264TIP3    H270284   3.668   2.861  11.549  0.1692  1.6583  0.1710
16265TIP3   OH270285   6.589   0.620  12.739  0.2071  0.4152  0.2570
16265TIP3    H170286   6.556   0.672  12.667 -1.2109  0.3200  0.8049
16265TIP3    H270287   6.577   0.675  12.817  1.2065  0.3083  0.5008
16266TIP3   OH270288   1.239   6.012  15.923  0.2862  0.0858  0.2198
16266TIP3    H170289   1.297   6.027  15.848  0.3879  0.3213  0.3446
16266TIP3    H270290   1.184   5.939  15.896  1.9993 -1.5266  0.8893
16267TIP3   OH270291   2.815   3.828  11.535  0.3707  0.5140 -0.3027
16267TIP3    H170292   2.801   3.795  11.446 -1.1307 -0.0161  0.1105
16267TIP3    H270293   2.728   3.853  11.565  0.7287 -0.1677  1.3630
16268TIP3   OH270294   3.413   3.619  12.877 -0.4388 -0.6693  0.6872
16268TIP3    H170295   3.339   3.673  12.902  0.7757  1.1849  0.4571
16268TIP3    H270296   3.423   3.556  12.949 -1.2910  0.0392  1.4392
16269TIP3   OH270297   1.806   4.437  15.924 -0.6919 -0.1732 -0.3999
16269TIP3    H170298   1.741   4.442  15.994 -0.0802  0.1895  0.1462
16269TIP3    H270299   1.831   4.528  15.908 -0.9943 -0.2328 -1.2562
16270TIP3   OH270300   0.746   5.698  16.393 -0.0589  0.2679 -1.4193
16270TIP3    H170301   0.792   5.771  16.435 -0.9267  0.5710 -0.9637
16270TIP3    H270302   0.656   5.729  16.386 -0.1775 -0.2720 -2.3868
16271TIP3   OH270303   1.840   5.830  11.823 -0.5135 -0.2055 -0.1819
16271TIP3    H170304   1.929   5.823  11.787 -0.4457  0.1248 -0.0813
16271TIP3    H270305   1.783   5.794  11.755 -0.5392  1.6610 -1.2271
16272TIP3   OH270306   4.129   3.026   4.581 -0.3325  0.0796 -0.2118
16272TIP3    H170307   4.205   3.031   4.639 -0.7503  0.2845  0.3161
16272TIP3    H270308   4.142   3.099   4.520  0.5977 -0.7024 -0.9959
16273TIP3   OH270309   4.009   0.377   1.621  0.1120  0.1462 -1.0288
16273TIP3    H170310   4.023   0.469   1.598 -0.4854 -0.2751 -3.4147
16273TIP3    H270311   3.931   0.379   1.677  0.7219  1.1688 -0.1827
16274TIP3   OH270312   4.498   3.487   2.135  0.2684 -0.0666  0.6463
16274TIP3    H170313   4.405   3.477   2.157  0.3368 -2.3512  0.1127
16274TIP3    H270314   4.544   3.440   2.205  1.0417  0.9608  0.8515
16275TIP3   OH270315   2.287   3.407   5.846  0.1766 -0.1251  0.6059
16275TIP3    H170316   2.240   3.483   5.812  0.6070  0.7236  1.8390
16275TIP3    H270317   2.263   3.336   5.787  2.2357  1.5687 -2.5910
16276TIP3   OH270318   4.658   6.109   3.725 -0.3166  0.4036 -0.3957
16276TIP3    H170319   4.665   6.196   3.685  0.9686  0.6469  0.3092
16276TIP3    H270320   4.580   6.114   3.780  0.1289  1.3452  0.1661
16277TIP3   OH270321   3.884   4.502  13.101 -0.0343 -0.3387 -0.0036
16277TIP3    H170322   3.904   4.585  13.057 -1.1315 -0.2219 -0.3150
16277TIP3    H270323   3.905   4.518  13.193 -0.8006  0.4902  0.0387
16278TIP3   OH270324   0.792   4.333   3.119  0.1457 -0.2595  0.2181
16278TIP3    H170325   0.880   4.368   3.118  0.5428 -0.8826  3.1825
16278TIP3    H270326   0.799   4.251   3.168 -1.9585 -0.7286 -0.1418
16279TIP3   OH270327   2.397   6.625   0.363  0.5726 -0.2837 -0.0814
16279TIP3    H170328   2.415   6.540   0.323 -0.6829 -1.9540  2.6159
16279TIP3    H270329   2.360   6.604   0.449  1.5545  3.0233  1.3185
16280TIP3   OH270330   0.954   2.853   2.587 -0.5724  0.0081  0.1608
16280TIP3    H170331   0.979   2.924   2.646  0.5538 -1.4889  1.5923
16280TIP3    H270332   0.867   2.827   2.615 -0.7713  0.4783 -0.0212
16281TIP3   OH270333   5.710   1.483  11.747  1.2252  0.3091  0.1016
16281TIP3    H170334   5.715   1.561  11.802  0.7845  0.7681 -0.4946
16281TIP3    H270335   5.797   1.443  11.754  0.9682 -0.0421  1.6831
16282TIP3   OH270336   2.079   2.711  14.750  0.3718  0.0854  0.0211
16282TIP3    H170337   2.055   2.779  14.688  4.4928  0.1619 -1.8413
16282TIP3    H270338   2.143   2.753  14.808  2.3275 -1.8657 -0.5970
16283TIP3   OH270339   5.354   0.734   4.961 -0.1347  0.5006 -0.3111
16283TIP3    H170340   5.334   0.721   4.868 -0.2660  0.8775 -0.3366
16283TIP3    H270341   5.435   0.786   4.960 -0.4057  0.9252 -0.2176
16284TIP3   OH270342   5.509   4.841  14.082  0.7695 -0.4633 -0.4105
16284TIP3    H170343   5.470   4.884  14.006  1.5724 -1.8920 -1.6899
16284TIP3    H270344   5.440   4.783  14.115  0.6576 -0.3776 -0.4921
16285TIP3   OH270345   4.314   4.973   2.999  1.1926  0.3757  0.0597
16285TIP3    H170346   4.280   5.063   2.999  0.6203  0.1687 -0.5574
16285TIP3    H270347   4.337   4.956   2.907  1.0735 -0.1888  0.1311
16286TIP3   OH270348   5.181   1.098   5.521 -0.3847 -0.1872  0.5178
16286TIP3    H170349   5.253   1.042   5.491 -0.5839 -0.2981  0.2479
16286TIP3    H270350   5.102   1.048   5.501 -0.5988  0.4641 -0.3315
16287TIP3   OH270351   5.442   1.069   5.724 -0.0824 -0.1435 -0.1315
16287TIP3    H170352   5.489   1.152   5.732  1.5748 -0.9645 -0.9078
16287TIP3    H270353   5.414   1.066   5.633  2.1997 -1.5472 -0.8922
16288TIP3   OH270354   5.579   3.875  16.498  0.5799 -0.5242  0.0298
16288TIP3    H170355   5.513   3.809  16.520  1.6465 -1.1539  1.5009
16288TIP3    H270356   5.651   3.858  16.559  1.8193  0.5841 -1.0688
16289TIP3   OH270357   0.208   2.986  10.881 -0.2849  0.1093  0.4156
16289TIP3    H170358   0.158   2.996  10.962 -0.3984 -1.0942  0.5000
16289TIP3    H270359   0.296   3.018  10.904 -0.4179  0.1267  0.9085
16290TIP3   OH270360   4.333   1.061  14.547 -0.0844 -0.6745 -0.2316
16290TIP3    H170361   4.246   1.044  14.510 -0.1157  0.5943 -0.7975
16290TIP3    H270362   4.342   0.996  14.617  0.1005 -3.3859 -2.5869
16291TIP3   OH270363   1.846   0.317  13.310  0.2676 -0.4019 -0.6471
16291TIP3    H170364   1.876   0.408  13.319 -0.9112  0.0102 -0.7236
16291TIP3    H270365   1.899   0.269  13.374  0.7958  0.3628 -0.4859
16292TIP3   OH270366   5.959   5.992  13.671 -0.1728 -0.5849  0.0602
16292TIP3    H170367   6.033   5.950  13.627  0.8518  0.2853  0.8944
16292TIP3    H270368   5.944   6.072  13.620 -0.7280 -0.8874 -0.2627
16293TIP3   OH270369   1.449   1.605  12.230  0.1535  0.0068 -0.2376
16293TIP3    H170370   1.421   1.584  12.141 -1.8909  0.0093  0.3398
16293TIP3    H270371   1.389   1.555  12.286  1.2839  0.1362  1.1332
16294TIP3   OH270372   6.455   0.034   6.195 -0.2531  0.4900  0.6234
16294TIP3    H170373   6.391  -0.009   6.252 -2.0734  0.0376 -1.6178
16294TIP3    H270374   6.518  -0.036   6.173 -1.3435 -0.2123 -0.3862
16295TIP3   OH270375   2.902   0.417  14.557  0.2256  0.0187  0.4082
16295TIP3    H170376   2.965   0.361  14.511 -1.2523  0.3057 -2.1646
16295TIP3    H270377   2.956   0.480  14.605  1.9551  0.8336 -2.3908
16296TIP3   OH270378   4.740   5.668   0.336  0.3387 -0.1353  0.4532
16296TIP3    H170379   4.776   5.649   0.423 -1.0200 -1.1817  0.8283
16296TIP3    H270380   4.811   5.711   0.289  1.5650 -0.8163  1.6239
16297TIP3   OH270381   5.940   5.489   3.180 -0.3048 -0.1460 -0.2848
16297TIP3    H170382   5.948   5.519   3.271 -0.0650 -0.0436 -0.3400
16297TIP3    H270383   6.023   5.444   3.163 -0.4525 -0.3876 -0.3712
16298TIP3   OH270384   4.019   1.488   2.749 -0.7348 -0.2919 -0.7407
16298TIP3    H170385   4.086   1.487   2.817 -0.4770  0.2930 -0.9771
16298TIP3    H270386   3.943   1.445   2.789 -0.4450 -0.3298 -0.2314
16299TIP3   OH270387   4.196   4.178   3.087 -0.0029 -0.3277 -0.2630
16299TIP3    H170388   4.178   4.090   3.119  1.0496  0.0973  1.6230
16299TIP3    H270389   4.131   4.233   3.130  1.0721  0.1780  0.7595
16300TIP3   OH270390   4.982   3.929  14.025  0.3365 -0.0661  0.3769
16300TIP3    H170391   5.008   4.015  13.994  0.2500 -0.5551 -1.1131
16300TIP3    H270392   5.063   3.889  14.056  0.9085 -0.4755 -1.5263
16301TIP3   OH270393   3.561   1.899   2.227 -0.0496 -0.2346  0.5128
16301TIP3    H170394   3.648   1.888   2.265 -1.2294  1.1093  4.0058
16301TIP3    H270395   3.509   1.827   2.263 -0.6268 -0.6165 -0.9707
16302TIP3   OH270396   5.933   2.737  12.723  0.2219 -0.1700 -0.6346
16302TIP3    H170397   5.877   2.670  12.763 -0.6384  0.2740 -1.0759
16302TIP3    H270398   6.020   2.697  12.720 -0.0516 -0.8481  0.1174
16303TIP3   OH270399   6.137   0.347  12.758  0.6867 -0.1831  0.2868
16303TIP3    H170400   6.079   0.416  12.726 -0.2743 -0.7220  0.8398
16303TIP3    H270401   6.225   0.376  12.732  0.1636  0.5462 -0.7301
16304TIP3   OH270402   5.650   6.243   5.617  0.1081 -0.4106  0.1815
16304TIP3    H170403   5.656   6.191   5.698 -1.9810  1.2189  1.5137
16304TIP3    H270404   5.694   6.325   5.638  0.7407 -0.4792 -0.8323
16305TIP3   OH270405   1.250   4.951  12.493  0.1068  0.2382 -0.1475
16305TIP3    H170406   1.273   4.893  12.567 -2.0424  0.0838  0.4628
16305TIP3    H270407   1.335   4.982  12.461  1.1737 -0.5152  1.7157
16306TIP3   OH270408   4.624   6.559  10.903  0.0816  0.4317 -0.0996
16306TIP3    H170409   4.609   6.653  10.897  0.0329  0.6066  1.8551
16306TIP3    H270410   4.662   6.534  10.819  2.6760  2.7032  0.2614
16307TIP3   OH270411   5.297   1.109   2.895 -0.3824  0.2992 -0.4351
16307TIP3    H170412   5.387   1.142   2.889  0.0536 -1.0066 -1.8808
16307TIP3    H270413   5.306   1.026   2.942 -0.9382  0.4402 -0.0703
16308TIP3   OH270414   5.369   0.614  11.517 -0.4890  0.3289 -0.0817
16308TIP3    H170415   5.443   0.629  11.577 -1.6755 -0.2341  1.6167
16308TIP3    H270416   5.298   0.584  11.574 -1.8753  0.3156 -1.7305
16309TIP3   OH270417   2.398   4.460   6.253 -0.5127  0.3131 -0.0290
16309TIP3    H170418   2.472   4.505   6.212 -1.4783  1.3904 -0.6620
16309TIP3    H270419   2.343   4.433   6.180 -0.0431 -1.8390  0.3495
16310TIP3   OH270420   2.313   0.144   1.798  0.2340  0.3369 -0.8640
16310TIP3    H170421   2.286   0.159   1.707  0.2293  0.6345 -0.8156
16310TIP3    H270422   2.266   0.066   1.825 -0.8093  1.0019 -0.6937
16311TIP3   OH270423   4.403   5.580   5.233  0.1930 -0.2012  0.0231
16311TIP3    H170424   4.339   5.593   5.162  1.3048  0.8286 -0.8282
16311TIP3    H270425   4.389   5.490   5.262 -1.3715 -0.1323 -0.4026
16312TIP3   OH270426   5.110   0.536   3.830 -0.3515 -0.4411  0.3339
16312TIP3    H170427   5.102   0.599   3.758  0.2590 -1.4363 -0.6367
16312TIP3    H270428   5.196   0.552   3.868  1.0470 -2.4085 -1.6916
16313TIP3   OH270429   3.822   5.260  12.997  0.4050 -0.4668 -0.0479
16313TIP3    H170430   3.741   5.272  12.949  0.1895  1.7149  0.7418
16313TIP3    H270431   3.888   5.304  12.944 -0.3067  4.7312  2.6775
16314TIP3   OH270432   5.503   6.175   0.040 -0.0088 -0.1474 -0.3186
16314TIP3    H170433   5.570   6.226  -0.006  0.6445 -0.6130  0.1008
16314TIP3    H270434   5.434   6.238   0.059  1.5817  1.0511  1.8469
16315TIP3   OH270435   2.810   1.283  12.076  0.3672 -0.1869  0.3556
16315TIP3    H170436   2.882   1.302  12.016  0.3014  0.0748  0.3567
16315TIP3    H270437   2.763   1.366  12.084 -0.3726 -0.5427 -0.2214
16316TIP3   OH270438   5.140   5.172   1.533  0.6137 -0.1678 -0.0143
16316TIP3    H170439   5.218   5.116   1.536 -0.7649 -2.2138 -0.3894
16316TIP3    H270440   5.173   5.257   1.503  2.4971 -1.3563 -1.5772
16317TIP3   OH270441   5.761   4.189   5.743  0.0169 -0.1132  0.2753
16317TIP3    H170442   5.674   4.228   5.747 -0.6369 -1.5405  0.9609
16317TIP3    H270443   5.745   4.094   5.747  1.6360 -0.3912  2.0974
16318TIP3   OH270444   3.947   3.808   3.442 -0.4384  0.1545 -0.0010
16318TIP3    H170445   3.878   3.780   3.503 -0.6040  0.7478  0.0911
16318TIP3    H270446   3.943   3.904   3.444  0.6907  0.2105  0.3519
16319TIP3   OH270447   3.776   3.896  14.464  0.5071 -0.3398  0.2840
16319TIP3    H170448   3.765   3.987  14.436  1.7983 -0.2426  0.0541
16319TIP3    H270449   3.689   3.869  14.493 -0.1322  0.6249 -0.6765
16320TIP3   OH270450   3.295   0.652   4.692  0.0527  0.3986 -0.6575
16320TIP3    H170451   3.357   0.718   4.662 -1.1845  1.2663 -1.3944
16320TIP3    H270452   3.300   0.583   4.627 -0.3717  0.8586 -1.1833
16321TIP3   OH270453   4.505   0.407  11.261 -0.2325  0.6590 -0.1104
16321TIP3    H170454   4.433   0.462  11.232 -0.7632  0.0456  0.0048
16321TIP3    H270455   4.500   0.329  11.204 -0.9381 -0.3056  1.2239
16322TIP3   OH270456   2.297   3.643   0.718  0.0055 -0.0103  0.2267
16322TIP3    H170457   2.257   3.714   0.769 -2.4437 -0.6229 -0.7036
16322TIP3    H270458   2.375   3.683   0.680 -1.0311  2.0885  0.1148
16323TIP3   OH270459   6.270   4.793   1.824  0.4955 -0.0649  0.0255
16323TIP3    H170460   6.208   4.740   1.774  0.3959  0.3490 -0.2997
16323TIP3    H270461   6.247   4.777   1.916 -0.8833  0.9921 -0.0995
16324TIP3   OH270462   5.623   6.517   2.221  0.0110 -0.7045  0.3873
16324TIP3    H170463   5.646   6.426   2.206 -1.9463 -1.1239 -0.4551
16324TIP3    H270464   5.660   6.564   2.146 -0.0717 -1.0206  0.1454
16325TIP3   OH270465   4.574   1.251   1.196 -0.2077 -0.2925  0.3636
16325TIP3    H170466   4.648   1.307   1.173 -0.7056  0.2897  0.1373
16325TIP3    H270467   4.544   1.215   1.112 -1.2337  0.8303  0.2170
16326TIP3   OH270468   1.475   5.147   5.975 -0.0720  0.4977 -0.0795
16326TIP3    H170469   1.499   5.240   5.984  0.2696  0.3783  0.3139
16326TIP3    H270470   1.549   5.100   6.014 -2.3184  0.1656  4.4778
16327TIP3   OH270471   4.413   2.020  14.820 -0.7196  0.5348 -0.2110
16327TIP3    H170472   4.426   2.035  14.726  1.7872 -0.6683 -0.1563
16327TIP3    H270473   4.442   2.102  14.861  0.3135  0.2929 -0.4269
16328TIP3   OH270474   2.363   1.304   4.790  0.3581  0.0201  0.1791
16328TIP3    H170475   2.458   1.297   4.800  0.1221 -1.3507  1.8203
16328TIP3    H270476   2.327   1.271   4.872 -1.5278  3.4716  0.9469
16329TIP3   OH270477   4.055   0.021   5.355  1.0832  0.2981  0.3050
16329TIP3    H170478   3.967  -0.005   5.380  0.5817  0.0174 -1.5671
16329TIP3    H270479   4.052   0.024   5.259  2.5563  2.2443  0.2699
16330TIP3   OH270480   3.649   6.532  13.276 -0.2529  0.1905  0.3582
16330TIP3    H170481   3.705   6.516  13.353 -2.3098  0.4687  2.0036
16330TIP3    H270482   3.611   6.446  13.256  0.5924  0.0323 -0.6601
16331TIP3   OH270483   6.253   1.225   5.907  0.0412 -0.1614 -0.3695
16331TIP3    H170484   6.298   1.171   5.972 -0.8218 -0.1338  0.2801
16331TIP3    H270485   6.322   1.253   5.846  1.0035  0.3164  0.8848
16332TIP3   OH270486   3.619   3.406  14.958 -0.0269  0.4339  0.3822
16332TIP3    H170487   3.610   3.460  14.880 -0.9022  0.6249  0.6129
16332TIP3    H270488   3.541   3.350  14.958  0.8095 -0.7952  0.1858
16333TIP3   OH270489   0.526   1.002   2.359 -0.5373 -0.3393 -0.2446
16333TIP3    H170490   0.447   1.015   2.307  0.8932  1.0255 -2.2632
16333TIP3    H270491   0.506   0.929   2.417 -2.6472 -1.2294 -1.9586
16334TIP3   OH270492   4.474   5.735  11.934 -0.2095  0.1369  0.0653
16334TIP3    H170493   4.492   5.641  11.940 -0.3788  0.0636 -0.5449
16334TIP3    H270494   4.557   5.773  11.904 -0.0695  0.2189  0.5371
16335TIP3   OH270495   1.241   1.325   2.756 -0.6240 -0.3041 -0.0014
16335TIP3    H170496   1.271   1.266   2.826 -0.2062  0.9333  0.8986
16335TIP3    H270497   1.208   1.266   2.688  1.0195 -1.6434  0.2761
16336TIP3   OH270498   2.936   1.878   1.337  0.3930 -0.5718  0.9535
16336TIP3    H170499   3.007   1.918   1.287  1.6137 -1.2627  2.0473
16336TIP3    H270500   2.904   1.807   1.282 -1.9873  1.9131 -1.1363
16337TIP3   OH270501   4.824   1.380   4.947 -0.2170 -0.4181 -0.2590
16337TIP3    H170502   4.733   1.406   4.956  0.2704  1.6672 -0.7401
16337TIP3    H270503   4.839   1.319   5.019 -2.1182 -1.2891 -0.5368
16338TIP3   OH270504   3.912   6.154   4.712  0.0019 -0.2885  0.3368
16338TIP3    H170505   3.987   6.098   4.732 -0.3619 -0.9679 -0.1354
16338TIP3    H270506   3.856   6.146   4.789 -1.0486 -2.3135 -0.5488
16339TIP3   OH270507   3.375   0.006  10.972  0.0517  0.7180  0.0195
16339TIP3    H170508   3.297  -0.012  11.024  1.2244 -1.1709  1.2626
16339TIP3    H270509   3.431  -0.071  10.986 -0.0922 -0.7074 -5.2073
16340TIP3   OH270510   3.696   4.116   6.139  0.3945 -0.2234 -0.0901
16340TIP3    H170511   3.695   4.212   6.145 -1.4783 -0.2444  0.5219
16340TIP3    H270512   3.788   4.092   6.152  0.7693  1.4483  0.5805
16341TIP3   OH270513   2.957   5.163  13.107 -0.7384  0.0978 -0.2654
16341TIP3    H170514   2.943   5.194  13.196 -1.0778 -0.8330  0.0183
16341TIP3    H270515   2.879   5.191  13.059 -0.0955  1.5033 -0.5435
16342TIP3   OH270516   6.083   2.636   0.669  0.2960  0.3717  0.2126
16342TIP3    H170517   6.002   2.595   0.640  1.1422 -1.9820  0.9747
16342TIP3    H270518   6.096   2.605   0.758  2.7189 -0.4935 -0.3507
16343TIP3   OH270519   3.621   6.263  13.261 -0.1058  0.2708  0.1082
16343TIP3    H170520   3.642   6.187  13.206 -2.2782  0.4114 -1.0517
16343TIP3    H270521   3.593   6.225  13.344  0.5410 -0.1050  0.1594
16344TIP3   OH270522   5.357   3.685  16.151  0.4073 -0.5168 -0.2416
16344TIP3    H170523   5.291   3.693  16.082 -0.6830  0.1236  0.8335
16344TIP3    H270524   5.359   3.772  16.192 -0.8460 -1.4921  2.1427
16345TIP3   OH270525   5.173   0.790  15.101 -0.3195 -0.4075  0.3856
16345TIP3    H170526   5.226   0.741  15.038  1.2282 -0.7956  1.9141
16345TIP3    H270527   5.095   0.814  15.052  1.4028  0.5513 -2.1467
16346TIP3   OH270528   5.419   2.830   0.568 -0.3606 -0.1302 -0.3819
16346TIP3    H170529   5.409   2.896   0.637 -1.8780 -1.7963  1.0895
16346TIP3    H270530   5.357   2.762   0.591  1.8295 -2.5874 -1.3057
16347TIP3   OH270531   6.505   6.250  15.466  0.4097 -0.0926  0.0444
16347TIP3    H170532   6.541   6.203  15.541 -0.6540  0.6175  1.0441
16347TIP3    H270533   6.573   6.312  15.441  0.8669 -0.4957  0.2920
16348TIP3   OH270534   1.505   4.083  12.772  0.2263 -0.4252  0.2643
16348TIP3    H170535   1.504   4.074  12.677 -1.4575 -1.9309  0.3601
16348TIP3    H270536   1.455   4.163  12.789  1.8105  0.6942 -0.1219
16349TIP3   OH270537   5.694   3.713   1.986  0.0458 -0.4862 -0.0786
16349TIP3    H170538   5.613   3.731   2.034 -0.3662 -1.8928 -0.1962
16349TIP3    H270539   5.745   3.658   2.046  0.9001  0.3410 -0.0283
16350TIP3   OH270540   6.203   5.635   3.610 -0.6050  0.6561 -0.1270
16350TIP3    H170541   6.256   5.588   3.546 -0.6648  0.1221  0.2161
16350TIP3    H270542   6.199   5.577   3.686 -0.4753  1.3154  0.3936
16351TIP3   OH270543   6.356   4.716  13.247 -0.4150  0.2459 -0.7417
16351TIP3    H170544   6.261   4.727  13.255 -0.6384 -1.8262 -0.1283
16351TIP3    H270545   6.376   4.639  13.300  1.6890  0.8753 -0.5414
16352TIP3   OH270546   3.213   6.097  13.475 -0.0462 -0.0681 -0.3701
16352TIP3    H170547   3.211   6.047  13.393 -1.1051 -0.1236 -0.3265
16352TIP3    H270548   3.305   6.123  13.485 -0.1629  1.4098 -2.4735
16353TIP3   OH270549   2.503   1.660   3.876  0.0757  0.3466 -0.0924
16353TIP3    H170550   2.488   1.622   3.963  0.6420 -0.3033 -0.2682
16353TIP3    H270551   2.576   1.610   3.840 -0.5199  0.2187 -1.1772
16354TIP3   OH270552   0.591   3.870  10.248 -0.0482 -0.2094  0.0213
16354TIP3    H170553   0.498   3.887  10.237 -0.1699  0.9126  2.1751
16354TIP3    H270554   0.605   3.784  10.209 -1.7314  0.0688 -1.3219
16355TIP3   OH270555   2.205   0.122  11.815 -0.4273 -0.5749 -0.3940
16355TIP3    H170556   2.141   0.067  11.769 -1.8478 -0.3552  1.2176
16355TIP3    H270557   2.158   0.152  11.893  1.5536 -0.1292  0.6766
16356TIP3   OH270558   0.795   0.848  15.804 -0.0971 -0.3525  0.5204
16356TIP3    H170559   0.852   0.776  15.830  1.5071  1.1931  1.5632
16356TIP3    H270560   0.822   0.870  15.714  0.9378  0.2946  0.9671
16357TIP3   OH270561   2.655   1.951  13.175  0.3174 -0.2393 -0.3682
16357TIP3    H170562   2.634   1.925  13.265 -1.4447  1.8794 -0.0794
16357TIP3    H270563   2.571   1.972  13.135  1.0599 -1.1696 -2.5680
16358TIP3   OH270564   3.413   1.663  16.035  0.1990  0.6400 -0.3591
16358TIP3    H170565   3.373   1.593  16.086  0.6124 -0.3106 -1.3004
16358TIP3    H270566   3.434   1.622  15.951  3.1465  1.0804  0.0626
16359TIP3   OH270567   4.061   4.327  16.668 -0.0774 -0.0130  0.2159
16359TIP3    H170568   4.021   4.328  16.582 -0.0477  1.6601  0.1735
16359TIP3    H270569   3.991   4.355  16.728  0.0112 -0.7665  0.6892
16360TIP3   OH270570   6.408   2.696  13.670  0.4643 -0.0589 -0.5078
16360TIP3    H170571   6.490   2.711  13.716  1.5870 -1.4645 -1.9722
16360TIP3    H270572   6.378   2.784  13.646  1.9250  0.4270 -0.6258
16361TIP3   OH270573   1.433   2.556   3.996 -0.2587  0.1415  0.4249
16361TIP3    H170574   1.464   2.480   4.044 -1.4566  0.4370  1.7146
16361TIP3    H270575   1.447   2.533   3.904  1.9309 -0.4986  0.8507
16362TIP3   OH270576   1.453   6.174  15.780 -0.0359 -0.4814  0.2594
16362TIP3    H170577   1.497   6.248  15.739  0.1302 -0.0891  1.1197
16362TIP3    H270578   1.367   6.208  15.805 -0.5882 -1.0525 -0.8070
16363TIP3   OH270579   2.680   0.537  14.287 -0.0901 -0.0437 -0.1825
16363TIP3    H170580   2.592   0.523  14.322 -0.4667  0.4885 -0.8768
16363TIP3    H270581   2.717   0.449  14.281 -1.1029 -0.4359 -1.1786
16364TIP3   OH270582   4.462   0.402   5.566 -0.3499 -0.2436 -0.0922
16364TIP3    H170583   4.413   0.450   5.499 -1.6698 -0.3237  0.7796
16364TIP3    H270584   4.416   0.319   5.575 -0.8256  0.1664  1.6174
16365TIP3   OH270585   5.012   3.034   2.564  0.4360  0.8173  0.5850
16365TIP3    H170586   5.086   2.975   2.549  0.2511  0.6857  0.1824
16365TIP3    H270587   4.935   2.984   2.537  0.2521  1.1472  0.4846
16366TIP3   OH270588   0.540   2.844   1.305  0.0108 -0.3725 -0.1255
16366TIP3    H170589   0.472   2.849   1.372  1.2903 -0.0691  1.1898
16366TIP3    H270590   0.553   2.750   1.292 -0.7052 -0.4369 -0.4663
16367TIP3   OH270591   0.076   6.762   4.305  0.3867  0.2868 -0.3085
16367TIP3    H170592   0.058   6.696   4.239  0.5985  0.9587 -1.0527
16367TIP3    H270593  -0.009   6.783   4.343 -0.0861  1.5574 -1.9836
16368TIP3   OH270594   3.859   2.470  14.209  0.3724  0.3070 -0.3183
16368TIP3    H170595   3.898   2.544  14.256 -0.6424  1.0071 -0.5591
16368TIP3    H270596   3.897   2.393  14.251  1.2307  0.9525  0.1254
16369TIP3   OH270597   5.206   2.321   0.295  0.0396  0.1596 -0.5443
16369TIP3    H170598   5.251   2.355   0.217 -1.2582  0.5077 -1.1656
16369TIP3    H270599   5.238   2.377   0.366 -1.0653  1.9057 -1.3464
16370TIP3   OH270600   5.234   3.963   6.635 -0.9015 -0.1333 -0.3650
16370TIP3    H170601   5.235   3.877   6.676  0.2663 -0.0237 -0.1333
16370TIP3    H270602   5.185   4.018   6.696 -2.1115 -0.7313 -0.7621
16371TIP3   OH270603   4.242   5.022   4.215 -0.2412  0.0650  0.2346
16371TIP3    H170604   4.164   5.077   4.212  0.7101  1.5361  1.0716
16371TIP3    H270605   4.287   5.040   4.133 -1.1822 -1.4843 -0.6734
16372TIP3   OH270606   5.880   5.852  11.545 -0.2725 -0.5015  0.4383
16372TIP3    H170607   5.836   5.880  11.625 -1.9308 -1.4092 -0.1145
16372TIP3    H270608   5.919   5.767  11.568  1.2045  0.2678  0.9059
16373TIP3   OH270609   4.708   1.139  15.416  0.2859 -0.1628 -0.7149
16373TIP3    H170610   4.656   1.216  15.395 -1.0410 -0.8768 -0.2105
16373TIP3    H270611   4.798   1.163  15.395 -0.1983  1.2566 -1.2406
16374TIP3   OH270612   3.711   1.954  13.351 -0.4915  0.1864 -0.7913
16374TIP3    H170613   3.777   2.017  13.325 -1.3840  2.3020  1.6181
16374TIP3    H270614   3.632   2.006  13.366 -1.0889 -1.2912  1.9560
16375TIP3   OH270615   2.033   2.025  16.361 -0.6202  0.0047 -0.3625
16375TIP3    H170616   1.952   2.077  16.363 -0.0073  0.9762 -0.5462
16375TIP3    H270617   2.076   2.045  16.444  0.0938  0.5728 -0.8588
16376TIP3   OH270618   5.827   4.024   5.124 -0.1223  0.2383 -0.2268
16376TIP3    H170619   5.862   3.944   5.085  0.8713 -0.0174  1.1249
16376TIP3    H270620   5.780   4.067   5.052  0.0608 -1.1180 -1.1965
16377TIP3   OH270621   2.310   3.799  13.593  0.4620 -0.3413  0.0514
16377TIP3    H170622   2.246   3.859  13.555  0.6654  0.9742  1.6881
16377TIP3    H270623   2.291   3.715  13.552 -1.1922  0.3748 -0.7586
16378TIP3   OH270624   4.175   3.376   3.186  0.4623 -0.5362 -0.7252
16378TIP3    H170625   4.172   3.290   3.229  1.2156 -1.1654 -1.8835
16378TIP3    H270626   4.215   3.434   3.251 -1.1220 -0.7540  0.5169
16379TIP3   OH270627   2.042   1.436   2.618 -0.2546  0.5012 -0.0480
16379TIP3    H170628   1.999   1.518   2.641  0.8743  0.8149  1.0325
16379TIP3    H270629   1.971   1.381   2.584 -1.1700  1.6252 -0.0373
16380TIP3   OH270630   0.192   5.015   1.341  0.3521  0.4215 -0.6420
16380TIP3    H170631   0.220   4.999   1.250 -0.8718  1.6660 -1.2714
16380TIP3    H270632   0.097   5.007   1.338  0.2864  0.6585  0.5109
16381TIP3   OH270633   3.998   1.111  16.730  0.2053  0.6222  1.0926
16381TIP3    H170634   3.933   1.166  16.686  2.3378  0.8762 -2.0708
16381TIP3    H270635   3.958   1.024  16.734 -0.1719  0.6405 -1.3064
16382TIP3   OH270636   0.475   5.496  13.995  0.0920 -0.3295 -0.5868
16382TIP3    H170637   0.557   5.545  13.983  0.6595 -1.0541  0.2478
16382TIP3    H270638   0.455   5.506  14.088  0.9453 -2.7563 -0.0766
16383TIP3   OH270639   1.200   5.211  10.600  0.1488  0.0312  0.0674
16383TIP3    H170640   1.267   5.147  10.575 -0.2187  0.0261 -0.9655
16383TIP3    H270641   1.235   5.295  10.572  0.9841  0.4359  2.1342
16384TIP3   OH270642   3.507   6.386   0.747  0.3324  0.2540 -0.0226
16384TIP3    H170643   3.464   6.336   0.817  0.5252 -0.3350 -0.3169
16384TIP3    H270644   3.437   6.437   0.707 -0.2560 -1.2693 -0.9931
16385TIP3   OH270645   0.506   3.141  12.134 -0.8234 -0.1101  0.0930
16385TIP3    H170646   0.411   3.144  12.148 -0.7676  0.2798  0.3885
16385TIP3    H270647   0.536   3.229  12.154 -0.2330 -0.5352  1.1957
16386TIP3   OH270648   4.231   5.951   1.654  0.0878 -0.1910  0.0001
16386TIP3    H170649   4.248   6.043   1.677 -3.5065  0.4209  0.8304
16386TIP3    H270650   4.295   5.932   1.585  0.3373  3.2590 -0.9329
16387TIP3   OH270651   5.849   0.311  12.390  0.1355 -0.0053 -0.1803
16387TIP3    H170652   5.849   0.317  12.294 -1.5368 -0.4623 -0.2506
16387TIP3    H270653   5.792   0.236  12.409 -0.7062  0.9392  1.1976
16388TIP3   OH270654   0.940   6.361   1.848  0.2256 -0.0876 -0.4260
16388TIP3    H170655   0.930   6.303   1.924  1.9929 -1.0474 -0.8701
16388TIP3    H270656   0.961   6.446   1.886  1.2800 -0.5991  0.2043
16389TIP3   OH270657   4.068   3.806  14.774 -0.4162  0.0234 -0.0925
16389TIP3    H170658   3.985   3.808  14.823 -0.0366 -0.2777  0.5717
16389TIP3    H270659   4.066   3.723  14.727  0.3030 -0.8530  1.3558
16390TIP3   OH270660   2.516   0.349   5.212  0.1471 -0.6370 -0.6701
16390TIP3    H170661   2.590   0.371   5.154  0.8040 -0.8262  0.0850
16390TIP3    H270662   2.476   0.433   5.232  1.0279 -0.3717  0.0559
16391TIP3   OH270663   6.087   0.638  14.837 -0.0396  0.1281 -0.6418
16391TIP3    H170664   6.117   0.704  14.900 -2.3064  1.4876 -0.8749
16391TIP3    H270665   6.038   0.575  14.890 -0.2418  0.1789 -0.7654
16392TIP3   OH270666   5.354   6.290  15.248  0.2386  0.1830  0.2746
16392TIP3    H170667   5.432   6.234  15.249  0.7883  0.9501  1.1442
16392TIP3    H270668   5.378   6.362  15.190 -0.1571 -0.0362 -0.1647
16393TIP3   OH270669   6.545   1.990   3.393  0.9236  0.0831 -0.5829
16393TIP3    H170670   6.478   2.057   3.405  0.7859  0.1328 -1.6012
16393TIP3    H270671   6.576   1.972   3.482 -0.5772 -0.0847 -0.0657
16394TIP3   OH270672   6.364   5.647   2.235 -0.1366  0.5699  0.6305
16394TIP3    H170673   6.389   5.597   2.157  0.8491  2.3098 -0.2445
16394TIP3    H270674   6.296   5.595   2.277 -1.3589  0.0106 -1.8888
16395TIP3   OH270675   1.790   6.504   3.860  0.0369 -0.1000 -0.6258
16395TIP3    H170676   1.769   6.418   3.822 -1.2892 -0.4440  0.7856
16395TIP3    H270677   1.853   6.542   3.799 -2.1503 -0.4926 -3.3745
16396TIP3   OH270678   0.945   3.976  16.613 -0.7335  0.4346  0.0948
16396TIP3    H170679   0.983   3.915  16.551  0.3749  0.7219  0.4750
16396TIP3    H270680   0.864   3.933  16.643 -0.4935 -0.3755 -0.3924
16397TIP3   OH270681   2.789   6.788  12.571  0.3172 -0.3876 -0.1647
16397TIP3    H170682   2.743   6.706  12.556 -3.0318  1.5630 -1.5835
16397TIP3    H270683   2.836   6.806  12.489 -1.5654  0.5638 -1.0894
16398TIP3   OH270684   6.519   2.335   5.613 -0.4865 -0.0775  0.2683
16398TIP3    H170685   6.501   2.400   5.682 -0.5965 -1.1969  1.3231
16398TIP3    H270686   6.586   2.278   5.651 -0.0731 -0.3358 -0.8104
16399TIP3   OH270687   5.689   5.295  12.701 -0.1108 -0.3172  0.2000
16399TIP3    H170688   5.685   5.240  12.779 -1.5850  1.0269  1.1306
16399TIP3    H270689   5.602   5.288  12.662 -0.1446  0.8853  0.0265
16400TIP3   OH270690   0.873   5.942  16.471  0.1378 -0.3442 -0.1450
16400TIP3    H170691   0.844   5.983  16.389  1.1737 -1.0209 -0.8728
16400TIP3    H270692   0.917   6.013  16.518  0.1808 -0.1316 -0.4993
16401TIP3   OH270693   5.402   1.932   2.842 -0.5868 -0.5696 -0.0624
16401TIP3    H170694   5.488   1.903   2.871  0.0117  0.5580 -0.6254
16401TIP3    H270695   5.402   2.026   2.858 -1.7027 -0.5473 -0.1225
16402TIP3   OH270696   4.545   0.691  11.552 -0.6835 -0.5457 -0.2950
16402TIP3    H170697   4.479   0.723  11.491 -0.8577  0.6557  0.4910
16402TIP3    H270698   4.613   0.758  11.551 -0.4816 -0.7325  0.4944
16403TIP3   OH270699   3.159   4.168  12.357  0.8999  0.0976 -0.0618
16403TIP3    H170700   3.193   4.257  12.344 -0.5078  0.6742 -0.0157
16403TIP3    H270701   3.113   4.173  12.441  1.5095 -0.9256  0.3593
16404TIP3   OH270702   3.507   4.966   5.676  0.3405 -0.6669  0.4339
16404TIP3    H170703   3.534   4.937   5.588  1.3160 -1.7285  1.0544
16404TIP3    H270704   3.432   5.022   5.660  0.0049 -1.4648 -1.0401
16405TIP3   OH270705   5.006   0.304   3.937 -0.0455  0.2070  0.1515
16405TIP3    H170706   5.028   0.384   3.889 -0.4864  0.4838  0.4045
16405TIP3    H270707   4.933   0.266   3.888  0.7812 -0.5584 -0.5233
16406TIP3   OH270708   3.670   4.291   5.332 -0.2716  0.8442 -0.0727
16406TIP3    H170709   3.650   4.372   5.379  2.9199  1.2386  0.8568
16406TIP3    H270710   3.749   4.312   5.282  0.4321 -1.5703 -0.0778
16407TIP3   OH270711   1.339   3.863  11.778  0.3101  0.3745  0.1662
16407TIP3    H170712   1.350   3.772  11.749  0.6617  0.2043  0.7959
16407TIP3    H270713   1.245   3.872  11.792  0.1692  0.3750 -0.7231
16408TIP3   OH270714   0.540   1.839  12.266 -0.1351  0.2062 -0.4570
16408TIP3    H170715   0.631   1.816  12.245 -0.2382 -0.1580 -0.5270
16408TIP3    H270716   0.543   1.871  12.355  0.3097  1.7527 -1.0058
16409TIP3   OH270717   3.248   4.229   2.641  0.0410  0.3624  0.4838
16409TIP3    H170718   3.308   4.155   2.629 -0.0071  0.0523  2.0085
16409TIP3    H270719   3.170   4.191   2.681 -0.2529  1.1250  0.6542
16410TIP3   OH270720   5.688   2.372   6.429 -0.3692  0.0636 -0.3772
16410TIP3    H170721   5.654   2.435   6.365 -0.1347  1.0710  0.4704
16410TIP3    H270722   5.614   2.312   6.444 -1.0548  0.9238 -0.2112
16411TIP3   OH270723   0.906   6.413  15.302 -0.5991  0.5489 -0.3499
16411TIP3    H170724   0.985   6.440  15.255 -0.6970  1.5032  0.0063
16411TIP3    H270725   0.935   6.403  15.393 -0.8313  0.6405 -0.2669
16412TIP3   OH270726   6.679   2.699  11.369 -0.8907  0.4632 -0.1355
16412TIP3    H170727   6.619   2.633  11.404 -1.1409  1.3030  1.0861
16412TIP3    H270728   6.724   2.733  11.446 -0.3714  1.3413 -0.8089
16413TIP3   OH270729   5.757   1.175   1.886 -0.4213  0.5225  0.0812
16413TIP3    H170730   5.821   1.105   1.896 -1.2678 -0.2707  0.0259
16413TIP3    H270731   5.675   1.131   1.868 -0.6908  1.5811 -1.4730
16414TIP3   OH270732   3.934   4.916  11.864  0.0550 -0.3216  0.4659
16414TIP3    H170733   3.863   4.962  11.911 -0.7372 -0.3824 -0.6288
16414TIP3    H270734   3.998   4.985  11.846 -1.3928  0.5823 -1.6871
16415TIP3   OH270735   2.291   5.044  13.946 -0.1816 -0.2325 -0.1229
16415TIP3    H170736   2.245   4.961  13.929 -0.7196 -0.1667  0.9229
16415TIP3    H270737   2.226   5.111  13.924 -0.9058 -0.1449  2.0758
16416TIP3   OH270738   6.784   5.752  11.586 -0.2631 -0.4474 -0.0820
16416TIP3    H170739   6.863   5.795  11.617 -1.1982  1.1932  0.1502
16416TIP3    H270740   6.745   5.814  11.524 -0.9652 -1.5630 -0.8021
16417TIP3   OH270741   3.150   5.878  14.358 -0.1116 -0.3568  0.6439
16417TIP3    H170742   3.218   5.944  14.347 -0.5312  0.0376  0.4214
16417TIP3    H270743   3.071   5.928  14.380 -0.2032 -0.8464  1.4662
16418TIP3   OH270744   6.144   5.535  12.952 -0.3419 -0.3261 -0.5321
16418TIP3    H170745   6.095   5.454  12.960 -1.9593  0.7458  1.0783
16418TIP3    H270746   6.082   5.604  12.977  0.9793  1.4290 -1.7916
16419TIP3   OH270747   6.062   3.978  12.401 -0.4281 -0.2051 -0.0804
16419TIP3    H170748   6.082   3.891  12.436  1.2197 -0.7688 -2.2287
16419TIP3    H270749   5.979   3.967  12.355  0.4519 -1.0519 -1.5286
16420TIP3   OH270750   3.536   2.774   6.896 -0.4845  0.1089 -0.0473
16420TIP3    H170751   3.535   2.774   6.801  0.6812 -1.7677 -0.0943
16420TIP3    H270752   3.563   2.686   6.921 -0.5826  0.5975  2.0330
16421TIP3   OH270753   4.722   3.244   0.339 -0.4559 -0.2570 -0.2283
16421TIP3    H170754   4.754   3.279   0.256 -0.6608  1.3730  0.3448
16421TIP3    H270755   4.627   3.245   0.331 -0.4625 -0.8985 -0.2778
16422TIP3   OH270756   0.504   5.499  11.761  0.3965 -0.3514  0.0930
16422TIP3    H170757   0.497   5.503  11.665  2.5209  0.7433 -0.0890
16422TIP3    H270758   0.570   5.431  11.776  0.7642  0.1301  0.7028
16423TIP3   OH270759   4.590   2.341   2.379  0.1177  0.0413  0.0274
16423TIP3    H170760   4.615   2.404   2.447 -2.0183  0.8175  0.1867
16423TIP3    H270761   4.498   2.359   2.363  0.1456 -1.2357 -1.9305
16424TIP3   OH270762   5.441   5.918  11.219 -0.5492  0.9910  0.3364
16424TIP3    H170763   5.409   5.828  11.226  1.3064  0.3714  1.5345
16424TIP3    H270764   5.453   5.932  11.126 -0.3386 -0.2036  0.1725
16425TIP3   OH270765   6.096   3.865   0.001 -0.2121  0.0385 -0.1107
16425TIP3    H170766   6.169   3.829  -0.048 -1.2189 -1.8799 -0.2822
16425TIP3    H270767   6.058   3.931  -0.058  0.3707 -0.1231 -0.6777
16426TIP3   OH270768   4.122   3.419  15.533 -0.0715 -0.0784  0.5292
16426TIP3    H170769   4.202   3.464  15.559 -0.0215 -0.3738  0.8993
16426TIP3    H270770   4.150   3.359  15.464  0.1827 -0.7645  1.2192
16427TIP3   OH270771   5.258   3.657   4.272 -0.2222  0.8142 -0.0421
16427TIP3    H170772   5.309   3.605   4.335 -1.1068  0.0047  0.0364
16427TIP3    H270773   5.168   3.628   4.286 -0.3190 -0.2140 -2.4516
16428TIP3   OH270774   5.496   0.012   5.368 -0.5501  0.6519  0.7862
16428TIP3    H170775   5.483  -0.022   5.279  0.9055 -1.3737  1.2698
16428TIP3    H270776   5.542   0.095   5.356  0.0042  0.1939 -0.3513
16429TIP3   OH270777   3.823   0.794  11.581 -0.4343  0.5892  0.3792
16429TIP3    H170778   3.919   0.791  11.580 -0.4426 -0.1400  0.8355
16429TIP3    H270779   3.797   0.716  11.631 -1.2746  0.5873 -0.0392
16430TIP3   OH270780   3.978   3.995   5.534  0.3526 -0.0939  0.0304
16430TIP3    H170781   3.943   4.072   5.578  2.2111  0.7494  0.1225
16430TIP3    H270782   4.072   3.998   5.552  0.3970 -2.8499  0.7502
16431TIP3   OH270783   4.187   0.840  13.747  0.1284  0.1989 -0.0837
16431TIP3    H170784   4.191   0.745  13.739 -0.4979  0.2890 -2.1129
16431TIP3    H270785   4.099   0.858  13.779 -0.9140  0.1424 -2.6425
16432TIP3   OH270786   0.104   3.772  10.285  0.1960  0.3105 -0.2661
16432TIP3    H170787   0.016   3.765  10.247 -0.2107  0.2375  0.6689
16432TIP3    H270788   0.095   3.839  10.353  0.4894 -0.7610  0.8580
16433TIP3   OH270789   1.641   5.328   4.135 -0.1263 -0.4410  0.2856
16433TIP3    H170790   1.580   5.301   4.066 -1.3798 -0.3822  1.3465
16433TIP3    H270791   1.700   5.389   4.091 -0.7275 -0.6192 -0.8069
16434TIP3   OH270792   2.893   1.943  14.580 -0.5969 -0.0182 -0.1661
16434TIP3    H170793   2.818   1.966  14.524  0.1810  2.0458 -0.4199
16434TIP3    H270794   2.957   2.012  14.563  1.1353 -1.4114  0.5191
16435TIP3   OH270795   5.329   6.682  15.524 -0.6526 -0.0804  0.0203
16435TIP3    H170796   5.412   6.641  15.550  0.5282  1.8824 -0.4613
16435TIP3    H270797   5.277   6.610  15.489  1.5230 -1.1399 -1.2678
16436TIP3   OH270798   3.989   0.527   0.097 -0.6958 -0.1028  0.1037
16436TIP3    H170799   3.921   0.572   0.148 -0.5367  2.0753 -1.4525
16436TIP3    H270800   4.070   0.543   0.145 -0.9175 -0.4112  0.5808
16437TIP3   OH270801   1.055   2.198  16.113 -0.7315  0.1553 -0.7016
16437TIP3    H170802   1.096   2.217  16.198 -1.2894  0.7599 -0.5585
16437TIP3    H270803   1.108   2.128  16.076 -0.8959 -0.6097  0.4555
16438TIP3   OH270804   4.155   2.792  11.412  0.5568 -0.2221  0.8838
16438TIP3    H170805   4.120   2.812  11.499 -0.1114  0.3477  0.4978
16438TIP3    H270806   4.245   2.824  11.414  1.1374 -1.7929  1.9305
16439TIP3   OH270807   6.761   2.933  14.851 -0.1981 -0.2677 -0.4384
16439TIP3    H170808   6.761   2.880  14.931 -0.0315 -0.4550 -0.5605
16439TIP3    H270809   6.669   2.949  14.833 -0.2139  0.7476  0.4251
16440TIP3   OH270810   0.661   4.093  15.698  0.4213 -0.2287  0.1729
16440TIP3    H170811   0.610   4.029  15.747  1.1091  0.5565  1.9868
16440TIP3    H270812   0.750   4.058  15.698  0.7865  0.6416  1.1084
16441TIP3   OH270813   6.729   5.563  11.402 -0.2998 -0.5069  0.0093
16441TIP3    H170814   6.748   5.631  11.466  0.6527  0.0929 -0.8755
16441TIP3    H270815   6.772   5.485  11.436  0.0067 -0.2499  0.2144
16442TIP3   OH270816   1.631   2.944   4.942 -0.6029  0.0807 -0.3271
16442TIP3    H170817   1.541   2.913   4.951 -0.1038 -0.8758  1.8211
16442TIP3    H270818   1.673   2.923   5.025  1.0415  2.4497 -0.4440
16443TIP3   OH270819   4.306   4.879   5.739 -0.6616 -0.0695  0.1568
16443TIP3    H170820   4.268   4.879   5.827  1.6913 -2.8592  1.3221
16443TIP3    H270821   4.235   4.850   5.683 -1.3221 -1.5550  1.6784
16444TIP3   OH270822   4.214   2.208   3.765 -0.4628 -0.8105 -0.2758
16444TIP3    H170823   4.194   2.193   3.672 -1.0780 -1.5913 -0.0290
16444TIP3    H270824   4.302   2.243   3.765 -0.8089  0.1098 -1.2250
16445TIP3   OH270825   3.380   4.829  13.179  0.1575 -0.6455  0.0525
16445TIP3    H170826   3.293   4.846  13.216  0.5368 -1.1606  1.2288
16445TIP3    H270827   3.370   4.846  13.086 -0.3172  2.7876  0.6206
16446TIP3   OH270828   0.672   3.549  16.245 -0.0878  0.5699  0.2733
16446TIP3    H170829   0.607   3.556  16.315 -1.3460  1.8281 -0.9648
16446TIP3    H270830   0.741   3.611  16.269 -0.3468  0.7495  0.5493
16447TIP3   OH270831   1.145   3.612  11.965 -0.0721  0.1001 -0.1545
16447TIP3    H170832   1.122   3.680  11.902  1.2333  0.4392 -0.3063
16447TIP3    H270833   1.091   3.631  12.042  0.2248  1.2871 -0.2203
16448TIP3   OH270834   5.347   1.193  12.377  0.0532  0.5584  0.0645
16448TIP3    H170835   5.345   1.255  12.303  2.7309  0.0066 -0.5851
16448TIP3    H270836   5.317   1.110  12.340 -0.8370  0.7944  0.2268
16449TIP3   OH270837   3.528   6.257   5.486  0.0700 -1.0196 -0.6585
16449TIP3    H170838   3.590   6.328   5.474 -0.7180 -0.3230 -0.7119
16449TIP3    H270839   3.450   6.299   5.522 -0.8728 -1.6319 -1.8933
16450TIP3   OH270840   0.031   5.425  16.622  0.1848  0.0052  0.4391
16450TIP3    H170841  -0.011   5.480  16.687  0.1743  1.2138 -0.5569
16450TIP3    H270842  -0.037   5.409  16.556  0.6791  0.2287 -0.1366
16451TIP3   OH270843   3.377   3.119  13.848  0.0450 -0.5030 -0.3591
16451TIP3    H170844   3.416   3.200  13.881 -0.8276 -0.5966  0.9362
16451TIP3    H270845   3.433   3.094  13.774  1.3600  0.3308  0.3246
16452TIP3   OH270846   3.657   1.593   1.813  0.5565  0.1638 -0.4168
16452TIP3    H170847   3.609   1.671   1.843 -0.9023 -0.4387 -1.0778
16452TIP3    H270848   3.716   1.572   1.885 -0.0974  1.0067  0.3921
16453TIP3   OH270849   4.815   6.160   2.340  0.0253  0.2805  0.1728
16453TIP3    H170850   4.895   6.121   2.374 -0.5234 -1.9772 -0.9193
16453TIP3    H270851   4.817   6.139   2.246 -1.3624  1.0497 -0.0514
16454TIP3   OH270852   5.346   3.275  12.825 -0.3715  0.0062 -0.0379
16454TIP3    H170853   5.349   3.369  12.846  0.9641 -0.1616  0.6576
16454TIP3    H270854   5.254   3.259  12.802 -0.4233  1.6855 -1.2224
16455TIP3   OH270855   1.879   4.793  11.033  0.2081 -0.5421  0.9099
16455TIP3    H170856   1.940   4.721  11.048  1.0774  0.0025  0.1565
16455TIP3    H270857   1.826   4.764  10.959  1.1036 -0.1060  0.0710
16456TIP3   OH270858   3.540   4.361   1.257 -0.2079 -0.8495  0.4079
16456TIP3    H170859   3.621   4.310   1.258  1.2109  1.0365 -2.8641
16456TIP3    H270860   3.537   4.399   1.169 -3.7245  0.6770  1.0337
16457TIP3   OH270861   5.413   0.660   3.535  0.2381  0.1130 -0.1918
16457TIP3    H170862   5.372   0.746   3.533 -0.2822 -0.0887  0.7986
16457TIP3    H270863   5.498   0.674   3.576 -0.3552 -0.0099  1.1445
16458TIP3   OH270864   4.412   6.033  12.417  0.3183 -0.2439  0.2488
16458TIP3    H170865   4.420   5.942  12.446 -0.7321 -1.1256 -1.9809
16458TIP3    H270866   4.473   6.040  12.344  0.1914  0.7817  0.2245
16459TIP3   OH270867   1.566   0.465   6.114 -0.6672 -0.1039 -0.6583
16459TIP3    H170868   1.502   0.506   6.056  0.3094  0.9429 -1.0209
16459TIP3    H270869   1.561   0.515   6.195  0.0595  0.3368 -0.8747
16460TIP3   OH270870   0.511   1.539   1.338  0.1218 -0.4972  0.2540
16460TIP3    H170871   0.449   1.603   1.373 -0.7613 -0.4099 -1.3612
16460TIP3    H270872   0.467   1.454   1.351  1.8965 -1.0531  3.7083
16461TIP3   OH270873   0.077   2.747  15.406 -0.0767  0.2424  0.0101
16461TIP3    H170874   0.041   2.743  15.494  2.1726 -3.7745  1.0136
16461TIP3    H270875   0.037   2.672  15.360  3.5959 -1.9722 -0.0275
16462TIP3   OH270876   6.593   0.208  13.185 -0.4888 -0.4493  0.0484
16462TIP3    H170877   6.642   0.257  13.120 -1.6952  1.0849  0.2456
16462TIP3    H270878   6.658   0.181  13.250  0.2779  0.4481 -0.3348
16463TIP3   OH270879   0.517   2.251   6.320 -0.3181  0.5478 -0.3350
16463TIP3    H170880   0.607   2.260   6.288  0.2819  1.1895  1.4102
16463TIP3    H270881   0.493   2.339   6.351 -0.7422 -0.0422  1.1330
16464TIP3   OH270882   5.249   2.473  16.840 -0.4094  0.3976  0.3358
16464TIP3    H170883   5.175   2.531  16.819 -0.3922  0.9899  1.7482
16464TIP3    H270884   5.226   2.389  16.801 -1.7840  0.6092  0.6309
16465TIP3   OH270885   4.262   4.369   4.856 -0.3681  0.2605  0.0740
16465TIP3    H170886   4.257   4.375   4.761  0.4808  2.2079  0.0906
16465TIP3    H270887   4.354   4.387   4.876 -0.5742  0.0544  1.2718
16466TIP3   OH270888   5.407   6.635  14.171 -0.2344 -0.0921  0.1081
16466TIP3    H170889   5.475   6.577  14.136  0.6961  0.8191  0.3628
16466TIP3    H270890   5.400   6.612  14.263 -0.1330 -0.0642  0.1233
16467TIP3   OH270891   0.369   2.882  12.470  0.0910  0.1747  0.2534
16467TIP3    H170892   0.364   2.788  12.486  1.1988 -0.0213 -0.3957
16467TIP3    H270893   0.454   2.908  12.506  1.1363  0.3380 -2.1357
16468TIP3   OH270894   4.124   6.431   5.753  0.1555 -0.6104 -0.1878
16468TIP3    H170895   4.078   6.515   5.764  1.8496  0.3832 -0.2604
16468TIP3    H270896   4.165   6.438   5.667  1.0982 -1.0977  0.2058
16469TIP3   OH270897   4.415   1.121   3.660  0.5824 -0.2091  0.3166
16469TIP3    H170898   4.405   1.059   3.731  0.4983  1.0613  1.4556
16469TIP3    H270899   4.329   1.162   3.651  0.4491 -0.7089 -0.8765
16470TIP3   OH270900   3.135   0.120   0.554 -0.1010 -0.8959  0.2385
16470TIP3    H170901   3.191   0.043   0.567  0.0357 -0.8927 -0.2750
16470TIP3    H270902   3.059   0.086   0.508  0.4460 -0.5660 -0.9661
16471TIP3   OH270903   2.192   1.059   5.816 -0.1525 -0.3322  0.1257
16471TIP3    H170904   2.151   1.127   5.763  0.7403 -0.1440 -0.3447
16471TIP3    H270905   2.200   0.984   5.758 -1.7945 -1.1096  0.8523
16472TIP3   OH270906   3.866   3.780   4.974  0.0314 -0.3877 -0.4593
16472TIP3    H170907   3.844   3.847   5.039  0.1187 -1.6910  0.9930
16472TIP3    H270908   3.826   3.811   4.893 -0.2721  1.2038  0.2588
16473TIP3   OH270909   4.109   2.336  15.879  0.3429 -0.1466 -0.0536
16473TIP3    H170910   4.167   2.411  15.885 -0.1491  0.3924 -1.6371
16473TIP3    H270911   4.031   2.362  15.928  0.5669 -0.0245  0.2418
16474TIP3   OH270912   4.563   1.195  12.055  0.1208 -0.6599  0.2120
16474TIP3    H170913   4.474   1.202  12.020 -0.5225  0.3126  1.9318
16474TIP3    H270914   4.576   1.101  12.068 -0.4715 -0.8491 -0.4632
16475TIP3   OH270915   0.611   4.992   5.145 -0.0382  0.3353  0.6673
16475TIP3    H170916   0.671   4.983   5.072  1.4117  1.3861  1.6817
16475TIP3    H270917   0.570   5.078   5.132 -2.0416 -0.7130 -0.4794
16476TIP3   OH270918   5.591   2.252  12.846 -0.4515  0.5848  0.0889
16476TIP3    H170919   5.546   2.173  12.875  1.3910  0.3838  2.7060
16476TIP3    H270920   5.569   2.318  12.911 -0.0296  1.5433 -0.7184
16477TIP3   OH270921   2.298   6.500   4.874 -0.9152  0.2810 -0.2508
16477TIP3    H170922   2.214   6.453   4.873  0.0610 -1.8644  3.1263
16477TIP3    H270923   2.292   6.559   4.948  0.5023  0.2028 -0.0498
16478TIP3   OH270924   5.918   3.376  15.725  0.2246 -0.7320  0.3081
16478TIP3    H170925   5.824   3.383  15.743  0.2105  0.6190 -0.1623
16478TIP3    H270926   5.958   3.368  15.811 -0.2345  0.0325  0.6001
16479TIP3   OH270927   4.667   0.829   6.362  0.7259 -0.4418 -0.0439
16479TIP3    H170928   4.597   0.852   6.423  1.8874 -0.6149  1.4003
16479TIP3    H270929   4.742   0.880   6.391  1.3558 -0.6510 -1.2477
16480TIP3   OH270930   1.217   6.359   4.046  0.1463 -0.3604 -0.4411
16480TIP3    H170931   1.238   6.430   4.107  0.5526  0.2470 -1.2653
16480TIP3    H270932   1.275   6.374   3.972 -1.0641 -0.4845 -1.4366
16481TIP3   OH270933   0.683   5.073  14.356  0.5837  0.0681 -0.2343
16481TIP3    H170934   0.761   5.051  14.408  0.3261 -0.6676 -0.1481
16481TIP3    H270935   0.689   5.168  14.344  2.8643 -0.2473 -2.4467
16482TIP3   OH270936   1.074   4.687   4.125  0.7763 -0.3526  0.1884
16482TIP3    H170937   1.052   4.682   4.031  0.2203 -0.6069  0.3266
16482TIP3    H270938   1.119   4.604   4.143  1.7775  0.1197 -0.0695
16483TIP3   OH270939   0.454   5.162   2.890  0.0026 -0.0926  0.5452
16483TIP3    H170940   0.479   5.070   2.884  0.4283 -0.0045  0.9409
16483TIP3    H270941   0.412   5.181   2.806 -2.6384 -1.3889  1.4394
16484TIP3   OH270942   1.048   6.539  10.896  0.1451 -0.2625  0.6148
16484TIP3    H170943   1.060   6.581  10.811  0.6186 -0.6369  0.4896
16484TIP3    H270944   0.958   6.559  10.921  0.3161  0.7053  0.4982
16485TIP3   OH270945   6.136   1.834  15.609  0.3432 -0.2974  0.2355
16485TIP3    H170946   6.135   1.895  15.535  1.4786  1.1011  1.3083
16485TIP3    H270947   6.220   1.788  15.602  1.3911  1.2474  1.6567
16486TIP3   OH270948   1.542   1.325   4.944  0.0728  0.1165 -0.1237
16486TIP3    H170949   1.510   1.238   4.919  1.5385 -0.9063  1.3254
16486TIP3    H270950   1.575   1.363   4.863 -1.0011 -0.4743 -0.8649
16487TIP3   OH270951   4.448   6.420   1.368  0.0862  0.5642 -0.1936
16487TIP3    H170952   4.430   6.428   1.274 -0.7866 -0.5960 -0.1481
16487TIP3    H270953   4.531   6.373   1.373 -1.4074 -2.3381 -0.4447
16488TIP3   OH270954   3.615   2.637   5.917 -0.4447  0.0869 -0.1037
16488TIP3    H170955   3.638   2.551   5.881  1.3165  0.3810  0.1871
16488TIP3    H270956   3.646   2.699   5.851  1.2261  0.5636  1.0457
16489TIP3   OH270957   3.085   4.448  15.419 -0.3627 -0.4799 -0.9049
16489TIP3    H170958   3.160   4.390  15.435  0.9938  0.7292 -2.5295
16489TIP3    H270959   3.101   4.524  15.474 -0.4124 -0.2331 -1.2303
16490TIP3   OH270960   0.161   1.751  16.753  0.2756 -0.3480  0.3036
16490TIP3    H170961   0.216   1.707  16.689  2.4326  2.8043 -0.2347
16490TIP3    H270962   0.113   1.817  16.702 -0.4105  0.0963  1.4781
16491TIP3   OH270963   6.520   1.012   1.918  0.1110 -0.0471  0.0317
16491TIP3    H170964   6.508   1.095   1.873 -1.2762 -1.0986 -1.6409
16491TIP3    H270965   6.614   0.995   1.911  0.3323  1.1192 -0.0433
16492TIP3   OH270966   1.305   6.770  15.114  0.7345 -0.3059 -0.7333
16492TIP3    H170967   1.283   6.861  15.093 -1.0144 -0.5035  0.1107
16492TIP3    H270968   1.371   6.746  15.049  1.5411  1.6808 -0.7254
16493TIP3   OH270969   3.284   2.830  16.285  0.5258 -0.5114 -0.4001
16493TIP3    H170970   3.190   2.847  16.288  0.7609  0.8131  1.8993
16493TIP3    H270971   3.293   2.740  16.316  0.1643  0.8199  4.3134
16494TIP3   OH270972   4.040   3.524   2.536  0.2939  0.1024  0.4083
16494TIP3    H170973   3.985   3.470   2.480 -0.2477 -2.6112  3.2795
16494TIP3    H270974   4.129   3.499   2.514  0.1236 -0.2888  0.1564
16495TIP3   OH270975   5.681   0.936  11.630  0.1439 -0.2081 -0.2148
16495TIP3    H170976   5.718   1.019  11.660  0.4960 -0.6362  0.5507
16495TIP3    H270977   5.757   0.879  11.618 -0.2582 -1.3027  1.9699
16496TIP3   OH270978   0.093   2.127   2.078  0.8002 -0.1304 -0.4141
16496TIP3    H170979   0.143   2.151   2.000  1.0120 -0.6844 -0.4562
16496TIP3    H270980   0.070   2.210   2.119 -1.2718  0.3191 -2.2644
16497TIP3   OH270981   0.391   4.974   4.750  0.0467 -0.1714 -0.0976
16497TIP3    H170982   0.330   4.932   4.811 -0.5093 -0.3383 -0.7527
16497TIP3    H270983   0.422   4.902   4.694 -1.1913  0.3022 -1.4668
16498TIP3   OH270984   0.532   0.885  16.478  0.2715  0.2220  0.1593
16498TIP3    H170985   0.499   0.823  16.544 -2.4958  1.7203  0.3699
16498TIP3    H270986   0.504   0.848  16.395  0.5330  0.1077  0.1241
16499TIP3   OH270987   1.940   4.299   0.924 -0.5503  0.0681 -0.0602
16499TIP3    H170988   1.890   4.221   0.900 -0.1917  0.6058 -2.8235
16499TIP3    H270989   2.030   4.266   0.935 -0.4852  0.0064 -0.7484
16500TIP3   OH270990   2.774   0.324   0.964 -0.0421  0.4168 -0.3563
16500TIP3    H170991   2.727   0.353   1.042  0.5081 -0.3320  0.2803
16500TIP3    H270992   2.718   0.257   0.925  0.3384 -0.2592  0.2322
16501TIP3   OH270993   5.137   4.313   2.546 -0.6186 -0.0226  0.3575
16501TIP3    H170994   5.097   4.373   2.483  1.2486 -0.8744 -1.7626
16501TIP3    H270995   5.122   4.226   2.508  0.3282 -0.5866  1.2290
16502TIP3   OH270996   2.487   1.198  12.622 -0.1531  0.2032  0.0317
16502TIP3    H170997   2.478   1.116  12.670 -0.3475  0.0537 -0.2570
16502TIP3    H270998   2.564   1.240  12.661  1.2484 -1.0913 -1.1957
16503TIP3   OH270999   0.682   0.655  12.191  0.2251  0.2368  0.3706
16503TIP3    H171000   0.663   0.711  12.117  2.3727 -1.5399 -1.7159
16503TIP3    H271001   0.775   0.671  12.210  1.1101 -2.7803 -0.6931
16504TIP3   OH271002   3.846   1.898  17.144 -0.0886  0.1566  0.5746
16504TIP3    H171003   3.928   1.930  17.183  2.3420 -0.0229 -3.7929
16504TIP3    H271004   3.784   1.970  17.156  2.3339  2.5838 -0.5215
16505TIP3   OH271005   4.779   2.490   0.033  0.1094 -0.4998  0.3260
16505TIP3    H171006   4.831   2.469   0.111 -1.1481  1.2078  1.6928
16505TIP3    H271007   4.704   2.430   0.038  0.2719 -0.7157  0.1696
16506TIP3   OH271008   6.800   0.575  10.874 -0.3313 -0.0263 -0.5140
16506TIP3    H171009   6.716   0.558  10.917 -0.6707 -0.4482 -1.3141
16506TIP3    H271010   6.809   0.503  10.811  0.0931  0.6386 -1.2280
16507TIP3   OH271011   2.867   1.597   2.579 -0.0423  0.1577  0.2353
16507TIP3    H171012   2.921   1.519   2.568  0.7115  0.5749  0.9247
16507TIP3    H271013   2.808   1.596   2.503  0.2572 -0.8344  0.0035
16508TIP3   OH271014   2.358   4.653  14.027 -0.7019 -0.3025 -0.4846
16508TIP3    H171015   2.424   4.723  14.030  0.5458 -1.4536  0.1939
16508TIP3    H271016   2.409   4.573  14.023 -1.9038 -1.4651  3.0473
16509TIP3   OH271017   1.497   5.912  11.784  0.2575 -0.0362 -0.1836
16509TIP3    H171018   1.519   5.949  11.870 -1.5919 -0.1853  0.3983
16509TIP3    H271019   1.568   5.940  11.727  1.4639  0.1941  1.3516
16510TIP3   OH271020   1.688   3.681  11.910 -0.3186 -0.1118 -0.4356
16510TIP3    H171021   1.669   3.762  11.957  0.1961 -0.2170 -0.0396
16510TIP3    H271022   1.683   3.706  11.818  0.6198  0.5611 -0.3146
16511TIP3   OH271023   3.453   1.120  10.490 -0.0890  1.0237  0.1819
16511TIP3    H171024   3.393   1.048  10.470  0.4464  0.5650  0.2018
16511TIP3    H271025   3.485   1.150  10.404 -0.2577  1.1920  0.1774
16512TIP3   OH271026   1.237   2.493   0.773  0.4827 -0.1248  0.1122
16512TIP3    H171027   1.254   2.587   0.764 -0.0065 -0.1380 -1.0133
16512TIP3    H271028   1.322   2.452   0.759  0.5204  0.0959 -0.2892
16513TIP3   OH271029   3.001   4.746   2.422  0.1488  0.6178  0.1229
16513TIP3    H171030   3.046   4.670   2.384 -1.2164 -0.3226  0.3243
16513TIP3    H271031   2.977   4.717   2.510  2.3323  2.3834  1.4116
16514TIP3   OH271032   5.874   6.702  12.088  0.1930 -0.0510 -0.5047
16514TIP3    H171033   5.840   6.735  12.005  0.6461  0.7756 -0.3671
16514TIP3    H271034   5.795   6.681  12.139 -0.1479  1.5771 -0.2975
16515TIP3   OH271035   3.466   0.199   2.604 -0.0905  0.1306  0.2144
16515TIP3    H171036   3.554   0.236   2.595  0.9684 -1.2810  3.3406
16515TIP3    H271037   3.431   0.239   2.684 -1.1827 -1.3752  0.5417
16516TIP3   OH271038   2.662   2.846   3.391  0.2609 -0.1841 -0.3765
16516TIP3    H171039   2.624   2.874   3.307 -0.1307  2.2536  0.5213
16516TIP3    H271040   2.591   2.800   3.435  0.0252 -0.2768 -0.8519
16517TIP3   OH271041   4.179   3.712  14.439  0.1218 -0.8769  0.2558
16517TIP3    H171042   4.241   3.710  14.367  0.9879  0.6036  0.9200
16517TIP3    H271043   4.110   3.772  14.410  0.4329 -0.3394  0.6062
16518TIP3   OH271044   6.592   1.990  13.321 -0.7590 -0.0133  0.0318
16518TIP3    H171045   6.529   1.954  13.258 -0.9990  2.3679 -1.1913
16518TIP3    H271046   6.567   2.082  13.330  0.7762  0.2882  1.7846
16519TIP3   OH271047   3.074   5.570   3.554 -0.2671 -0.3260 -0.0458
16519TIP3    H171048   3.009   5.640   3.549 -0.0699 -0.0445  1.0637
16519TIP3    H271049   3.028   5.498   3.596  0.1534 -0.0853  0.8520
16520TIP3   OH271050   3.656   5.994   4.639  0.0292  0.0093 -0.4982
16520TIP3    H171051   3.651   5.915   4.693  0.1069  0.2960 -0.0732
16520TIP3    H271052   3.747   5.999   4.611  1.0106  1.9867  2.5666
16521TIP3   OH271053   4.377   4.010   4.994  0.2494  0.1220 -0.4156
16521TIP3    H171054   4.438   4.073   5.032 -1.6781  0.3310  2.7145
16521TIP3    H271055   4.291   4.041   5.022 -1.0005 -2.1059 -1.5837
16522TIP3   OH271056   6.245   3.871  16.703  0.1375 -0.6715 -0.3398
16522TIP3    H171057   6.180   3.801  16.697 -1.8030  0.9268  1.0349
16522TIP3    H271058   6.328   3.825  16.718 -1.0643 -2.6717  0.5062
16523TIP3   OH271059   0.177   5.119  13.867 -0.3168  0.0259  0.6317
16523TIP3    H171060   0.246   5.120  13.800  1.0488 -0.0481  1.9889
16523TIP3    H271061   0.097   5.101  13.818  0.7046 -0.5109 -0.9266
16524TIP3   OH271062   6.542   5.007   2.914 -0.7214 -0.0701 -0.5763
16524TIP3    H171063   6.469   5.046   2.962 -1.2751  0.4365 -1.7924
16524TIP3    H271064   6.587   4.953   2.979 -1.3895  0.6595  0.5269
16525TIP3   OH271065   3.049   6.364  16.819  0.0523 -0.5990  0.6905
16525TIP3    H171066   3.023   6.277  16.789 -0.3334 -0.3439  0.2593
16525TIP3    H271067   2.976   6.394  16.873  0.3827 -0.7217  1.2061
16526TIP3   OH271068   2.853   5.284  14.756  0.2853 -0.4787  0.0944
16526TIP3    H171069   2.913   5.245  14.820  0.1121 -0.8925  0.0081
16526TIP3    H271070   2.841   5.216  14.690  1.6113  0.4466 -1.1532
16527TIP3   OH271071   4.567   4.232  14.657  0.2528  0.4335 -0.3321
16527TIP3    H171072   4.530   4.206  14.741 -1.1962 -0.6615 -1.2906
16527TIP3    H271073   4.652   4.188  14.654  1.1922  1.9714  1.3280
16528TIP3   OH271074   0.653   2.036   5.815 -0.2765  0.7385 -0.8471
16528TIP3    H171075   0.713   2.082   5.757 -1.5200  0.5292 -2.3523
16528TIP3    H271076   0.611   1.970   5.759 -0.5928 -0.3427  0.5891
16529TIP3   OH271077   4.950   3.448  13.524 -0.5574  0.3603 -0.0694
16529TIP3    H171078   5.023   3.388  13.537  0.2713  1.3715  0.0358
16529TIP3    H271079   4.914   3.424  13.438  0.9815  0.9542 -0.9182
16530TIP3   OH271080   4.610   3.811  14.667  0.2071 -1.0004 -0.0897
16530TIP3    H171081   4.539   3.749  14.649 -0.4323  0.0812 -1.4377
16530TIP3    H271082   4.690   3.762  14.646 -0.3402 -1.0598 -2.1934
16531TIP3   OH271083   1.531   5.219  14.434 -0.5439 -0.0382  0.2727
16531TIP3    H171084   1.518   5.303  14.479 -1.6015 -0.5178  0.8973
16531TIP3    H271085   1.528   5.154  14.504  1.2924 -0.5545 -0.0644
16532TIP3   OH271086   0.377   4.196   0.106 -0.2213  0.1878 -0.3859
16532TIP3    H171087   0.397   4.242   0.188  0.5744  0.2054 -0.5866
16532TIP3    H271088   0.441   4.125   0.102 -0.7745 -0.3001 -0.5996
16533TIP3   OH271089   5.477   2.383   5.510  0.2342 -0.2618 -0.3495
16533TIP3    H171090   5.495   2.476   5.518  0.6178 -0.2648 -1.0379
16533TIP3    H271091   5.564   2.343   5.503  0.0958 -0.7411  0.6219
16534TIP3   OH271092   0.995   3.776  15.272 -0.3908 -0.2968  0.4032
16534TIP3    H171093   0.973   3.862  15.236 -1.7682 -0.7082  0.2094
16534TIP3    H271094   1.071   3.748  15.223 -1.7134 -0.4790 -1.6586
16535TIP3   OH271095   2.769   0.337  16.549 -0.0705 -0.0281 -0.6645
16535TIP3    H171096   2.691   0.324  16.603  0.3015 -0.1883 -0.1446
16535TIP3    H271097   2.812   0.251  16.550  0.3018  0.1588 -0.6369
16536TIP3   OH271098   3.460   4.441  11.803 -0.3787  0.3688 -0.4689
16536TIP3    H171099   3.416   4.360  11.778  2.4880 -1.9373  1.2590
16536TIP3    H271100   3.425   4.461  11.890 -0.1590  0.2282 -0.3470
16537TIP3   OH271101   6.075   5.183   2.911  0.0541  0.5892 -0.4236
16537TIP3    H171102   6.001   5.244   2.913 -0.8325 -0.4636 -0.2714
16537TIP3    H271103   6.109   5.190   2.822 -0.9837  0.2200 -0.8598
16538TIP3   OH271104   5.605   0.508  12.636  0.3066  0.2260  0.1744
16538TIP3    H171105   5.642   0.420  12.643 -0.0413  0.1406  1.0993
16538TIP3    H271106   5.556   0.520  12.717  0.5804  1.3798  0.1930
16539TIP3   OH271107   5.117   4.524  16.370 -0.3012 -0.0732 -0.6512
16539TIP3    H171108   5.211   4.541  16.373 -0.2453 -0.3456 -0.8019
16539TIP3    H271109   5.076   4.610  16.372  0.0045  0.1702 -2.9135
16540TIP3   OH271110   4.509   4.201   3.175  0.1702 -0.0144  0.2023
16540TIP3    H171111   4.433   4.172   3.227  0.8756 -3.8267 -0.6122
16540TIP3    H271112   4.477   4.204   3.085  0.8199 -1.1616 -0.0827
16541TIP3   OH271113   4.315   3.912  13.281  0.1294 -0.0291 -0.0791
16541TIP3    H171114   4.400   3.957  13.278  0.1600 -0.1370 -1.4738
16541TIP3    H271115   4.286   3.910  13.190 -1.3424 -0.0796  0.3777
16542TIP3   OH271116   6.409   6.601  11.646  0.1680  0.5548 -0.3817
16542TIP3    H171117   6.393   6.568  11.734 -1.1630  0.7109 -0.5547
16542TIP3    H271118   6.458   6.682  11.660  0.0463  0.5310  0.2038
16543TIP3   OH271119   5.672   6.236   4.634 -0.3194  0.3558 -0.2180
16543TIP3    H171120   5.690   6.150   4.672  0.6345  1.7664  2.8820
16543TIP3    H271121   5.590   6.264   4.676 -0.7528  0.8758 -1.3730
16544TIP3   OH271122   5.688   3.143   5.701 -0.4356 -0.4371 -0.2814
16544TIP3    H171123   5.744   3.206   5.748 -0.2836 -0.8582  0.1038
16544TIP3    H271124   5.733   3.129   5.618  1.4195 -2.6994  0.9918
16545TIP3   OH271125   4.302   3.330  14.195  0.3280 -0.2407  0.5043
16545TIP3    H171126   4.344   3.415  14.187 -0.1212 -0.1387 -0.9386
16545TIP3    H271127   4.375   3.268  14.197  0.6186  0.0493 -0.3816
16546TIP3   OH271128   1.115   0.543   5.002 -0.0048 -0.2256  0.1357
16546TIP3    H171129   1.184   0.566   4.939  0.8089  1.3763  1.5060
16546TIP3    H271130   1.115   0.616   5.064 -2.8697 -0.2575  0.2894
16547TIP3   OH271131   0.181   6.175   0.761  0.4023  0.6215 -0.4377
16547TIP3    H171132   0.191   6.215   0.675 -0.5834 -0.0083 -0.8688
16547TIP3    H271133   0.110   6.224   0.802 -1.2869 -1.0230 -1.2319
16548TIP3   OH271134   0.655   0.384  11.470 -0.5262  0.6241 -0.0991
16548TIP3    H171135   0.657   0.473  11.506  2.5437  0.0123  1.5553
16548TIP3    H271136   0.693   0.392  11.383  2.7676  0.6341  1.2086
16549TIP3   OH271137   2.661   3.084  16.986 -0.0640 -0.0253 -0.4115
16549TIP3    H171138   2.669   3.175  16.956  2.1276  0.1649  0.5256
16549TIP3    H271139   2.668   3.032  16.906  0.7102  0.6021 -0.7661
16550TIP3   OH271140   5.068   3.068  12.676 -0.2980  0.2624  0.0700
16550TIP3    H171141   5.093   3.061  12.584  0.4363  0.9090  0.2116
16550TIP3    H271142   5.064   3.162  12.692 -0.2832  0.1497  0.7399
16551TIP3   OH271143   6.483   5.509   1.299  0.5008  0.2788  0.6241
16551TIP3    H171144   6.527   5.580   1.347 -1.4699  0.7502  1.8380
16551TIP3    H271145   6.437   5.553   1.228  2.3206 -0.2789 -1.0031
16552TIP3   OH271146   4.268   1.572   0.541  0.4346 -0.1213 -0.0223
16552TIP3    H171147   4.310   1.613   0.465  2.6401 -1.5664  0.3143
16552TIP3    H271148   4.339   1.523   0.583 -0.7755  0.4140  2.8357
16553TIP3   OH271149   0.345   6.765   0.868  0.3987  0.5103  0.2047
16553TIP3    H171150   0.252   6.751   0.849  0.5618 -1.0263  0.3815
16553TIP3    H271151   0.361   6.713   0.947  1.5333  0.2622 -0.1655
16554TIP3   OH271152   3.098   2.583   1.712 -0.3151  0.3179 -0.2821
16554TIP3    H171153   3.132   2.632   1.787  1.6012  0.4301 -1.1516
16554TIP3    H271154   3.138   2.497   1.720 -1.8018 -0.3844 -0.0490
16555TIP3   OH271155   0.662   2.755  13.052  0.1107  0.1642  0.1849
16555TIP3    H171156   0.602   2.822  13.018 -1.4348 -0.7373  1.0248
16555TIP3    H271157   0.734   2.805  13.090 -1.2035  1.4278  1.1606
16556TIP3   OH271158   5.457   5.755   1.604 -0.1854  0.1071  0.3443
16556TIP3    H171159   5.408   5.680   1.639  1.1221 -0.3811  1.1741
16556TIP3    H271160   5.466   5.815   1.678 -0.8286  0.9104 -0.1995
16557TIP3   OH271161   3.154   0.548   2.145  0.5034  0.0679 -0.3655
16557TIP3    H171162   3.143   0.640   2.172  0.3453  0.0988 -0.5335
16557TIP3    H271163   3.068   0.509   2.160  0.0241  0.4005 -2.0424
16558TIP3   OH271164   3.433   6.500   1.257  0.2582  0.4026 -0.3041
16558TIP3    H171165   3.358   6.509   1.316  0.4758 -0.3452  0.0936
16558TIP3    H271166   3.509   6.520   1.311  0.5242 -1.0213 -0.1103
16559TIP3   OH271167   1.971   0.299  17.150  0.1778 -0.0570  0.2782
16559TIP3    H171168   1.996   0.226  17.207  0.4830 -0.7372 -0.7041
16559TIP3    H271169   2.039   0.302  17.082  0.0651  1.0216  0.1875
16560TIP3   OH271170   3.644   2.943  16.400 -0.1117  0.6733  0.2551
16560TIP3    H171171   3.717   2.908  16.451  1.3270  2.6170 -0.3196
16560TIP3    H271172   3.657   2.907  16.312 -2.6623 -2.7785  1.1013
16561TIP3   OH271173   2.083   6.611   6.020 -0.5548  0.3476  0.0199
16561TIP3    H171174   2.025   6.536   6.016 -0.8228  0.5962 -2.4620
16561TIP3    H271175   2.166   6.576   6.052 -1.0254 -0.7516  0.0726
16562TIP3   OH271176   5.091   0.575  14.906 -0.2993  0.0536 -0.4923
16562TIP3    H171177   5.001   0.568  14.938 -0.2620  0.7822 -0.2138
16562TIP3    H271178   5.113   0.486  14.877 -0.4932 -0.5439  1.0842
16563TIP3   OH271179   5.236   2.405   2.444 -0.0991  0.1513 -0.2640
16563TIP3    H171180   5.221   2.376   2.354  0.3052 -1.2904  0.1066
16563TIP3    H271181   5.148   2.418   2.480 -0.4188 -2.2996  0.0403
16564TIP3   OH271182   6.364   0.451  16.217  0.0419  0.4247  0.6853
16564TIP3    H171183   6.430   0.518  16.236  0.4127 -0.0796  1.2106
16564TIP3    H271184   6.387   0.378  16.275  0.6157 -0.8050 -1.0043
16565TIP3   OH271185   1.805   5.308  10.920  0.0567  0.2774  0.4354
16565TIP3    H171186   1.832   5.373  10.856 -0.2980 -0.2299 -0.2453
16565TIP3    H271187   1.722   5.341  10.955 -0.6237 -0.2581 -0.6119
16566TIP3   OH271188   0.815   1.983  11.018  0.8833 -0.0133 -0.5278
16566TIP3    H171189   0.881   2.050  11.002  2.6884 -0.8651  2.4433
16566TIP3    H271190   0.762   1.981  10.938  3.1100  2.2179 -2.2133
16567TIP3   OH271191   1.202   2.980   0.995  0.7067  0.4322  0.1842
16567TIP3    H171192   1.258   2.974   0.917 -0.4550  0.9598 -0.7211
16567TIP3    H271193   1.147   2.901   0.990  0.3940  0.6439  0.2810
16568TIP3   OH271194   4.935   6.458   6.908 -0.3580  0.3083 -0.1575
16568TIP3    H171195   4.855   6.496   6.944 -0.6370 -0.5455  0.1399
16568TIP3    H271196   4.912   6.432   6.819 -0.7969 -1.0673  0.3297
16569TIP3   OH271197   3.805   6.266  16.447  0.0479 -0.1513 -0.3364
16569TIP3    H171198   3.890   6.286  16.484 -0.1166 -1.3399  0.7332
16569TIP3    H271199   3.824   6.223  16.364  0.5451 -1.3646  0.3759
16570TIP3   OH271200   6.511   4.786   4.185 -0.0657 -0.2342  0.4187
16570TIP3    H171201   6.593   4.779   4.235 -0.4219 -2.5766  0.7722
16570TIP3    H271202   6.536   4.833   4.105  1.9989 -2.1935 -0.1892
16571TIP3   OH271203   2.709   4.541  15.198  0.7890 -0.5521 -1.1431
16571TIP3    H171204   2.768   4.569  15.128  1.4490 -1.1116 -0.8245
16571TIP3    H271205   2.763   4.485  15.254 -0.2239 -1.6557 -1.2330
16572TIP3   OH271206   2.474   4.470   3.242 -0.2119  0.6403  0.1713
16572TIP3    H171207   2.426   4.510   3.314 -0.1272  0.3755  0.3786
16572TIP3    H271208   2.526   4.402   3.283  2.4339  2.6432  0.3638
16573TIP3   OH271209   0.221   1.891  12.845  0.0621  0.2266  0.0785
16573TIP3    H171210   0.158   1.910  12.915  0.9004  2.4852  0.2825
16573TIP3    H271211   0.305   1.881  12.890  0.8903  3.1776 -0.6368
16574TIP3   OH271212   4.579   3.816   5.080  0.5277 -0.1796  0.5057
16574TIP3    H171213   4.666   3.856   5.073  0.4899 -0.2139 -0.3656
16574TIP3    H271214   4.525   3.865   5.018  0.3349 -1.1731 -0.1497
16575TIP3   OH271215   1.907   4.179  16.255  0.2353 -0.4668  0.1926
16575TIP3    H171216   1.822   4.221  16.239  0.6027  1.4516  2.6911
16575TIP3    H271217   1.889   4.113  16.322  0.4860 -1.0411 -0.2984
16576TIP3   OH271218   0.900   6.487   3.066 -0.1319 -0.0723  0.2699
16576TIP3    H171219   0.845   6.518   2.994 -0.9174 -1.4180  0.2366
16576TIP3    H271220   0.901   6.392   3.055 -1.0477 -0.4205  2.5328
16577TIP3   OH271221   0.468   4.513  11.002 -0.2766  0.1571 -0.0816
16577TIP3    H171222   0.547   4.458  11.006 -0.4156 -0.0849 -0.6152
16577TIP3    H271223   0.395   4.451  11.003 -0.4593  0.3788  0.3490
16578TIP3   OH271224   3.858   1.605  12.668  0.1604  0.0269 -0.3945
16578TIP3    H171225   3.806   1.600  12.588  1.4038  2.1896 -1.4297
16578TIP3    H271226   3.916   1.529  12.664 -0.1606 -0.1842 -1.2776
16579TIP3   OH271227   6.590   3.636   0.291 -0.0258  0.2055 -0.3738
16579TIP3    H171228   6.586   3.540   0.293  1.4077  0.1281  0.7897
16579TIP3    H271229   6.564   3.659   0.202 -1.1902 -1.1973 -0.4477
16580TIP3   OH271230   4.438   3.254   3.445 -0.1327 -0.0448 -0.2980
16580TIP3    H171231   4.493   3.230   3.371 -0.0792 -0.3137 -0.1733
16580TIP3    H271232   4.351   3.221   3.421  0.2266 -1.7033  0.5010
16581TIP3   OH271233   4.940   3.989   4.829 -0.2898  0.4167 -0.2623
16581TIP3    H171234   4.915   4.012   4.739  0.5456  1.0534 -0.3408
16581TIP3    H271235   4.976   3.901   4.821 -1.4622 -0.0707 -0.3249
16582TIP3   OH271236   3.651   3.722   0.187 -0.0830 -0.1010  0.2864
16582TIP3    H171237   3.740   3.688   0.199 -0.1461 -0.3433  0.1006
16582TIP3    H271238   3.599   3.678   0.254  0.1764  1.0247  1.2488
16583TIP3   OH271239   4.543   4.559  12.527  0.1943  0.4678 -0.3187
16583TIP3    H171240   4.618   4.595  12.479  1.4697 -1.7630 -0.1261
16583TIP3    H271241   4.536   4.613  12.605 -0.6210  2.8625 -1.9249
16584TIP3   OH271242   5.469   3.946  16.756 -0.7529  0.4908  0.6339
16584TIP3    H171243   5.471   3.935  16.661 -0.8575  0.1210  0.6731
16584TIP3    H271244   5.455   4.040  16.769 -1.5152  0.4397  0.2729
16585TIP3   OH271245   5.229   2.324   1.383 -0.2131 -0.2832  0.5689
16585TIP3    H171246   5.189   2.380   1.316  0.3704  0.2466  0.6527
16585TIP3    H271247   5.253   2.245   1.336  1.8949  0.8041 -0.3105
16586TIP3   OH271248   5.023   0.232  13.843  0.0056  0.2424  1.0931
16586TIP3    H171249   5.053   0.231  13.752 -0.8675  1.8212  0.7487
16586TIP3    H271250   4.939   0.186  13.841  0.9038 -1.5057  1.5088
16587TIP3   OH271251   2.769   0.046  16.482  0.0406  0.2295 -0.1337
16587TIP3    H171252   2.732  -0.003  16.408 -1.8993  1.7484 -0.2595
16587TIP3    H271253   2.716   0.018  16.557 -0.1835  1.1037  0.0391
16588TIP3   OH271254   6.256   2.009  13.383 -0.0413 -0.6077 -0.2370
16588TIP3    H171255   6.252   1.977  13.473  0.6258  0.2568  0.1099
16588TIP3    H271256   6.290   1.935  13.333 -0.8374 -1.2439  0.1313
16589TIP3   OH271257   3.455   5.103   0.390 -0.1656  0.1481  0.0410
16589TIP3    H171258   3.369   5.066   0.371  0.2124 -0.2339 -1.0332
16589TIP3    H271259   3.484   5.056   0.469 -0.3853 -0.6879 -0.3647
16590TIP3   OH271260   1.643   4.187  15.870  0.0830  0.0346 -0.4359
16590TIP3    H171261   1.578   4.249  15.837  0.5831 -0.3105 -2.1805
16590TIP3    H271262   1.680   4.229  15.947 -0.7229  1.1814 -0.6574
16591TIP3   OH271263   6.542   0.686  15.653  0.2882  0.5852  0.1784
16591TIP3    H171264   6.501   0.763  15.692  1.1019  1.5292 -0.7441
16591TIP3    H271265   6.533   0.700  15.559  1.2586  0.0150 -0.0096
16592TIP3   OH271266   6.193   4.831   4.339  0.1994 -0.4167  0.0006
16592TIP3    H171267   6.186   4.906   4.398  0.4885  0.0224 -0.5224
16592TIP3    H271268   6.156   4.758   4.389  0.5977 -0.0863  0.7979
16593TIP3   OH271269   5.341   5.586   0.314 -0.0725 -1.1512  0.1650
16593TIP3    H171270   5.402   5.618   0.248  0.8979  1.7913  2.3216
16593TIP3    H271271   5.261   5.567   0.265  0.1584  2.1612 -1.7491
16594TIP3   OH271272   4.957   4.987  16.855 -0.1020 -0.5678  0.3336
16594TIP3    H171273   4.880   4.957  16.904 -1.0560  0.1904 -0.6396
16594TIP3    H271274   5.022   4.918  16.868 -1.2878 -1.7212  0.3918
16595TIP3   OH271275   1.250   0.681   3.061 -0.0792  0.3410  0.9090
16595TIP3    H171276   1.224   0.759   3.109  0.6551  2.2660 -1.5859
16595TIP3    H271277   1.218   0.696   2.972 -1.8737 -3.2671  0.7493
16596TIP3   OH271278   0.048   6.441   4.733 -0.6228 -0.2577 -0.1292
16596TIP3    H171279   0.137   6.406   4.742  0.1661  1.7154  0.3764
16596TIP3    H271280  -0.000   6.404   4.807  0.6227  0.9383  1.3556
16597TIP3   OH271281   5.571   6.106  12.887  0.5411  0.4014 -0.4255
16597TIP3    H171282   5.547   6.185  12.936  0.6268 -1.1568  2.3238
16597TIP3    H271283   5.662   6.121  12.860  1.5432  0.2378  2.4987
16598TIP3   OH271284   6.388   1.328  11.195  0.2593 -0.3565 -0.2465
16598TIP3    H171285   6.395   1.234  11.180  2.2811 -0.1282 -0.9782
16598TIP3    H271286   6.452   1.346  11.265 -1.5092  0.2168  1.3259
16599TIP3   OH271287   2.908   4.159   0.809 -0.1740 -0.7898 -0.4755
16599TIP3    H171288   2.912   4.209   0.890 -2.3417  3.1342 -2.4988
16599TIP3    H271289   2.981   4.191   0.756 -2.3149  1.5154 -2.2849
16600TIP3   OH271290   3.646   3.054  16.735 -0.0122 -0.4199  0.6414
16600TIP3    H171291   3.663   2.960  16.722 -0.7000 -0.4314 -0.2624
16600TIP3    H271292   3.662   3.069  16.828  0.2087 -1.4133  0.7727
16601TIP3   OH271293   3.564   0.174   5.541 -0.0366 -0.0452  0.0519
16601TIP3    H171294   3.582   0.248   5.484 -1.7330 -0.1378 -0.6730
16601TIP3    H271295   3.638   0.115   5.529  0.4302  0.6913 -0.7894
16602TIP3   OH271296   0.962   6.204  13.134 -0.7667 -0.3411  0.1218
16602TIP3    H171297   1.019   6.188  13.059 -0.3499 -1.2107  0.6088
16602TIP3    H271298   0.931   6.118  13.160  0.6593 -0.3273  2.1469
16603TIP3   OH271299   6.725   4.129  15.527  0.1143  0.0859 -0.3347
16603TIP3    H171300   6.715   4.089  15.440 -1.5097 -0.6645  0.1558
16603TIP3    H271301   6.688   4.217  15.517  0.1005  0.0689 -0.4427
16604TIP3   OH271302   3.425   2.624   6.121 -0.5002  0.5814  0.2293
16604TIP3    H171303   3.492   2.624   6.190  0.1959 -2.9079 -0.2156
16604TIP3    H271304   3.474   2.606   6.041 -1.7084  0.6687 -0.5573
16605TIP3   OH271305   4.752   0.277  12.700 -0.4879 -0.1434  0.2323
16605TIP3    H171306   4.773   0.224  12.623 -0.7616 -1.7929  1.2460
16605TIP3    H271307   4.829   0.270  12.756 -0.1082  1.4229 -0.0427
16606TIP3   OH271308   6.141   4.204   4.816  0.1840  0.2514 -0.5364
16606TIP3    H171309   6.086   4.283   4.817 -1.3838 -0.7850 -1.0754
16606TIP3    H271310   6.108   4.151   4.888  0.6330 -0.2815 -0.7185
16607TIP3   OH271311   5.515   4.134  15.954  0.4938  0.6861 -0.0680
16607TIP3    H171312   5.545   4.176  15.874  0.9993  2.6634  1.0831
16607TIP3    H271313   5.595   4.100  15.995  0.1160 -1.3349 -0.8804
16608TIP3   OH271314   3.525   3.982  12.646 -0.2926 -0.5465 -0.3450
16608TIP3    H171315   3.591   4.046  12.669 -0.7633 -0.2310  0.1487
16608TIP3    H271316   3.543   3.907  12.704 -0.2307 -0.5484 -0.3671
16609TIP3   OH271317   2.230   0.197  12.156 -0.2713 -0.3775 -0.3963
16609TIP3    H171318   2.167   0.133  12.124 -0.5721 -0.0341 -0.5037
16609TIP3    H271319   2.231   0.266  12.088 -0.3417 -0.0155 -0.0342
16610TIP3   OH271320   3.372   2.314  10.608 -0.1741 -0.0845  0.7385
16610TIP3    H171321   3.431   2.389  10.604 -1.3225  0.7767 -0.7781
16610TIP3    H271322   3.422   2.247  10.655  2.0575  0.5492 -0.6094
16611TIP3   OH271323   5.964   5.258  15.059  0.2149  0.6431 -0.2853
16611TIP3    H171324   5.983   5.221  14.972 -0.6888  0.2336 -0.3168
16611TIP3    H271325   5.991   5.190  15.120  0.1318  0.6262 -0.2693
16612TIP3   OH271326   2.459   1.896   0.213 -0.2137 -0.1983  0.6131
16612TIP3    H171327   2.441   1.929   0.125  1.1609  1.2058  0.8261
16612TIP3    H271328   2.456   1.801   0.204  2.0052 -0.1478 -1.4501
16613TIP3   OH271329   3.640   1.352   3.401  0.2582 -1.1129  0.3391
16613TIP3    H171330   3.660   1.333   3.309 -0.6486 -0.3432 -0.0333
16613TIP3    H271331   3.554   1.313   3.416 -0.8160  1.0182  0.0714
16614TIP3   OH271332   3.584   5.869   5.082 -0.6014  0.0400  0.1244
16614TIP3    H171333   3.496   5.835   5.093 -1.8916  2.5223 -1.6718
16614TIP3    H271334   3.592   5.936   5.150 -0.2689  0.1545 -0.0256
16615TIP3   OH271335   4.190   2.318   5.804 -0.3971 -0.6410  0.1226
16615TIP3    H171336   4.239   2.236   5.810  0.3349 -0.2161  0.0015
16615TIP3    H271337   4.106   2.292   5.764  0.1635 -1.1992 -0.7306
16616TIP3   OH271338   6.080   0.543  11.618 -0.2906 -0.3581  0.5347
16616TIP3    H171339   6.155   0.484  11.614 -0.1532 -0.1783  0.4469
16616TIP3    H271340   6.089   0.599  11.541 -0.2298 -0.0006  0.7979
16617TIP3   OH271341   5.286   2.271   4.437  0.3889  0.3813 -0.0654
16617TIP3    H171342   5.237   2.192   4.462 -0.6241  1.0962  0.2396
16617TIP3    H271343   5.367   2.265   4.489 -0.0855 -0.0038  0.6583
16618TIP3   OH271344   1.398   6.170  16.123 -0.9500 -0.1855 -0.3326
16618TIP3    H171345   1.382   6.118  16.202  2.3340 -0.2246  0.4246
16618TIP3    H271346   1.375   6.111  16.051  0.1344 -1.7694  0.5628
16619TIP3   OH271347   3.179   0.016   6.458  0.2309  0.4143  0.0517
16619TIP3    H171348   3.171   0.111   6.447  2.6124  0.6306 -0.3728
16619TIP3    H271349   3.258  -0.007   6.409  1.8558 -1.2286  3.1403
16620TIP3   OH271350   0.605   2.889   0.377  0.3886 -0.0333  0.5071
16620TIP3    H171351   0.555   2.943   0.437  0.4358 -0.9160  1.3704
16620TIP3    H271352   0.625   2.946   0.303  0.1723  1.0189  1.2493
16621TIP3   OH271353   1.232   1.652  12.979 -0.0526 -0.0331  0.3562
16621TIP3    H171354   1.179   1.581  13.015  1.0220  0.4057  3.0234
16621TIP3    H271355   1.299   1.608  12.927 -0.3141 -0.8710  0.7109
16622TIP3   OH271356   2.174   5.345  11.340 -0.4102  0.4176  0.2467
16622TIP3    H171357   2.249   5.394  11.307  0.1326 -1.5762 -1.6815
16622TIP3    H271358   2.127   5.317  11.261 -1.8561 -0.3887  1.3503
16623TIP3   OH271359   1.819   1.289   3.257  0.4065  0.0541  0.0329
16623TIP3    H171360   1.737   1.259   3.297  0.6869  0.7524  1.1739
16623TIP3    H271361   1.876   1.213   3.258  0.2266 -0.0736  0.4803
16624TIP3   OH271362   5.786   4.197   1.789 -0.4436  0.1997  0.1386
16624TIP3    H171363   5.800   4.151   1.872  1.4081  0.1437 -0.1620
16624TIP3    H271364   5.721   4.144   1.743 -0.7176 -0.3402  1.1208
16625TIP3   OH271365   1.386   2.838   2.409  0.1593  0.0853 -0.2203
16625TIP3    H171366   1.473   2.810   2.438  0.2199  1.3482  0.9137
16625TIP3    H271367   1.403   2.913   2.353 -0.2413  1.0009  0.8661
16626TIP3   OH271368   6.343   4.447   5.413  0.0346  0.5181  0.6341
16626TIP3    H171369   6.297   4.491   5.485  0.2697 -0.3260  1.3170
16626TIP3    H271370   6.380   4.519   5.361 -0.4131  1.1475  1.1719
16627TIP3   OH271371   2.232   5.889   2.304  0.1130  0.1015 -0.0510
16627TIP3    H171372   2.324   5.896   2.330 -0.3517  0.7374  1.5632
16627TIP3    H271373   2.185   5.877   2.386 -1.3096  0.4839 -0.7785
16628TIP3   OH271374   4.147   3.486  17.013  0.0965 -0.1407  0.3434
16628TIP3    H171375   4.199   3.441  17.080  2.1358 -0.5518 -1.3816
16628TIP3    H271376   4.158   3.579  17.032 -0.0561 -0.2682  1.0673
16629TIP3   OH271377   4.166   1.858  12.225 -0.5236 -0.2418  0.2722
16629TIP3    H171378   4.109   1.814  12.162 -2.0325  0.6300  0.9629
16629TIP3    H271379   4.109   1.879  12.299  0.4757  1.4462  0.6391
16630TIP3   OH271380   4.832   1.789  13.318  0.5786 -0.0085 -0.4337
16630TIP3    H171381   4.788   1.715  13.279  2.1044 -1.0245 -0.3148
16630TIP3    H271382   4.923   1.780  13.291  0.7851  1.8813 -0.4975
16631TIP3   OH271383   4.035   3.141   1.540 -0.1486  0.5621 -0.5941
16631TIP3    H171384   4.071   3.065   1.585  1.6780  2.0471  0.6116
16631TIP3    H271385   3.970   3.177   1.601 -2.4683 -1.0251 -1.9692
16632TIP3   OH271386   6.761   6.078   4.222 -0.6269  0.2093 -0.6690
16632TIP3    H171387   6.779   6.055   4.131 -1.7125 -1.5231 -0.4881
16632TIP3    H271388   6.786   6.000   4.272  1.4494  1.6737  0.7493
16633TIP3   OH271389   2.032   4.139   2.494  0.4419  0.2940  0.3603
16633TIP3    H171390   2.098   4.123   2.427 -0.1600  2.7557 -0.9668
16633TIP3    H271391   1.954   4.093   2.463  0.6078  0.1422  0.1691
16634TIP3   OH271392   5.722   4.823   1.188 -0.4939 -0.1927  0.1271
16634TIP3    H171393   5.742   4.832   1.095 -0.6841  1.1427  0.1892
16634TIP3    H271394   5.626   4.829   1.192 -0.5118 -0.6479  0.3725
16635TIP3   OH271395   1.328   4.187   2.078  0.1797  0.0773 -0.6033
16635TIP3    H171396   1.252   4.129   2.070  0.9810 -0.7735 -2.8292
16635TIP3    H271397   1.291   4.275   2.074 -0.8114 -0.3118 -0.2947
16636TIP3   OH271398   5.405   0.992   5.352  0.0702  0.4265 -0.3910
16636TIP3    H171399   5.491   0.953   5.340  0.3431  0.3941  1.3512
16636TIP3    H271400   5.345   0.934   5.306  0.7143 -0.9226  0.4044
16637TIP3   OH271401   0.235   2.167  11.003  0.3752  0.2436  0.0774
16637TIP3    H171402   0.281   2.249  11.019  0.9158 -0.0656  0.1552
16637TIP3    H271403   0.147   2.193  10.978  1.0068  0.9152 -1.5597
16638TIP3   OH271404   6.238   1.460  11.694 -0.2580 -0.3752  0.2816
16638TIP3    H171405   6.234   1.535  11.635  0.3040 -1.2102 -0.8561
16638TIP3    H271406   6.275   1.389  11.641 -1.0953 -1.5579  1.2130
16639TIP3   OH271407   4.528   3.911  14.015 -0.6698  0.0881 -0.7157
16639TIP3    H171408   4.533   3.860  14.096 -1.4375 -1.1983 -1.4530
16639TIP3    H271409   4.483   3.992  14.041  0.5004  0.3856  0.4535
16640TIP3   OH271410   6.795   3.467  13.460 -0.2691  0.2213  0.1612
16640TIP3    H171411   6.791   3.558  13.433  1.4912 -0.0717 -1.2929
16640TIP3    H271412   6.865   3.464  13.525  0.7687 -0.3263 -0.9587
16641TIP3   OH271413   4.127   4.335  12.987 -0.6044 -0.0066 -0.0651
16641TIP3    H171414   4.115   4.416  13.037  0.2003 -0.2326  0.5105
16641TIP3    H271415   4.221   4.330  12.971 -0.6513 -0.7918 -0.1546
16642TIP3   OH271416   4.957   5.606  17.205 -0.6455 -0.2538  0.2432
16642TIP3    H171417   4.942   5.678  17.143 -0.7323  0.9408  1.5865
16642TIP3    H271418   4.875   5.556  17.203 -1.2540  0.6859  0.5141
16643TIP3   OH271419   5.290   4.413   6.450  0.5137  0.5985  0.0067
16643TIP3    H171420   5.379   4.423   6.483  0.2609 -0.2372  0.9838
16643TIP3    H271421   5.283   4.320   6.429  0.1919  0.8429 -1.0625
16644TIP3   OH271422   1.167   3.000  11.944  0.4586  0.2566 -0.1636
16644TIP3    H171423   1.160   2.957  11.859 -1.4534  0.0044  0.0857
16644TIP3    H271424   1.196   3.089  11.924  0.3592  0.0955 -1.0363
16645TIP3   OH271425   1.440   5.261  12.819 -0.6842 -0.6242  0.1836
16645TIP3    H171426   1.347   5.254  12.840 -0.6616 -2.2901 -0.1280
16645TIP3    H271427   1.485   5.253  12.903 -0.7738 -1.8426  0.1302
16646TIP3   OH271428   5.881   3.115  14.958  0.4637  0.0551 -0.9827
16646TIP3    H171429   5.958   3.171  14.963  0.0013  0.5720  0.9661
16646TIP3    H271430   5.886   3.076  14.870  1.1123  2.6351 -2.1743
16647TIP3   OH271431   3.846   3.721  14.644  0.6632 -0.3191  0.1927
16647TIP3    H171432   3.863   3.760  14.558  1.6222 -1.6791 -0.2738
16647TIP3    H271433   3.811   3.634  14.623 -0.6776 -0.0623  1.1986
16648TIP3   OH271434   1.794   2.180  16.351 -0.1239 -0.1739  0.1141
16648TIP3    H171435   1.772   2.236  16.277  0.1799 -1.4563 -0.9795
16648TIP3    H271436   1.712   2.136  16.373  0.0871 -0.8112 -0.3560
16649TIP3   OH271437   3.892   2.189  12.093  0.7334  0.1834  0.1029
16649TIP3    H171438   3.901   2.225  12.182  2.6067  2.7341 -0.9836
16649TIP3    H271439   3.813   2.231  12.059  0.6118  0.0517  0.2242
16650TIP3   OH271440   0.602   4.492   0.202  0.1258  0.1324 -0.6712
16650TIP3    H171441   0.534   4.504   0.268  0.7402 -0.0778  0.0135
16650TIP3    H271442   0.658   4.423   0.238  1.7105  1.5142 -0.3907
16651TIP3   OH271443   4.407   2.949  12.548  0.1990 -0.3534 -0.8938
16651TIP3    H171444   4.495   2.982  12.563 -0.2741  0.6935 -0.3035
16651TIP3    H271445   4.372   3.002  12.477 -0.6221  0.5661  0.1635
16652TIP3   OH271446   6.189   0.739  12.669 -0.2400  0.1333  0.1234
16652TIP3    H171447   6.117   0.710  12.612 -0.0709  0.6416 -0.3618
16652TIP3    H271448   6.191   0.834  12.657  1.5460 -0.0074 -1.1460
16653TIP3   OH271449   4.828   3.431  12.719  0.0533  0.2874 -0.2008
16653TIP3    H171450   4.755   3.371  12.702  1.7996 -2.0769  0.1253
16653TIP3    H271451   4.822   3.449  12.813 -0.6774  0.9484 -0.3617
16654TIP3   OH271452   3.220   0.255  10.562  0.4074  0.6183 -0.3729
16654TIP3    H171453   3.163   0.204  10.505 -0.8504  0.6781  0.7719
16654TIP3    H271454   3.227   0.202  10.642  1.2180  1.0523 -0.1445
16655TIP3   OH271455   1.023   6.726  14.329  0.0435 -0.4514 -0.3452
16655TIP3    H171456   1.081   6.794  14.294 -0.1828 -0.8122 -1.4624
16655TIP3    H271457   1.021   6.659  14.260  0.0013 -1.4388  0.6015
16656TIP3   OH271458   6.595   0.471   5.517 -0.2809 -0.8874 -0.1514
16656TIP3    H171459   6.552   0.441   5.598 -0.1985  2.0145  1.0950
16656TIP3    H271460   6.522   0.499   5.461 -0.2282  1.5772  0.9123
16657TIP3   OH271461   3.428   4.490  10.882  0.1352 -0.6467 -0.1360
16657TIP3    H171462   3.473   4.509  10.964 -1.3347 -1.0021  0.7881
16657TIP3    H271463   3.407   4.397  10.888 -2.9942  0.0108  0.6952
16658TIP3   OH271464   1.031   1.264   0.848  0.8348 -0.8485 -0.6883
16658TIP3    H171465   1.031   1.234   0.757  0.7205 -0.6712 -0.7475
16658TIP3    H271466   0.974   1.341   0.847 -0.7859 -1.9746 -0.0958
16659TIP3   OH271467   4.773   3.351   0.597  0.0159  0.2847 -1.0218
16659TIP3    H171468   4.866   3.335   0.613  0.0663  0.5917 -1.0061
16659TIP3    H271469   4.758   3.319   0.508  0.3694  1.1816 -1.4113
16660TIP3   OH271470   4.992   3.214   2.756 -0.0576 -0.1762 -0.0548
16660TIP3    H171471   5.002   3.168   2.673 -4.4999  0.7194 -1.3478
16660TIP3    H271472   5.036   3.298   2.742  0.6065 -0.6462 -0.9059
16661TIP3   OH271473   5.567   0.014  13.725  0.5399  0.2894 -0.1229
16661TIP3    H171474   5.622  -0.013  13.799  1.6120  1.6807 -0.3751
16661TIP3    H271475   5.523   0.093  13.755 -2.7937 -1.6758  0.7070
16662TIP3   OH271476   6.133   4.161   2.581 -0.1959  0.2497  0.1696
16662TIP3    H171477   6.080   4.220   2.635 -0.6524  3.4165 -3.3403
16662TIP3    H271478   6.222   4.170   2.616 -0.8307  0.0949  1.9432
16663TIP3   OH271479   1.215   5.569  15.085  0.3091  0.1907 -0.3949
16663TIP3    H171480   1.254   5.516  15.015 -0.1953  1.8130 -1.9770
16663TIP3    H271481   1.126   5.535  15.093  0.8480 -1.0685  0.6426
16664TIP3   OH271482   3.088   5.001  12.182  0.3157  0.1605  0.6076
16664TIP3    H171483   3.007   4.998  12.233  1.0481  1.9984  1.9943
16664TIP3    H271484   3.070   5.066  12.114 -0.0074 -0.8914 -0.3446
16665TIP3   OH271485   0.246   3.980  11.934 -0.2522 -0.2428  0.1177
16665TIP3    H171486   0.265   3.896  11.976  2.0052  0.4735  0.6256
16665TIP3    H271487   0.172   4.015  11.984 -1.2861 -1.9131 -0.1531
16666TIP3   OH271488   0.154   5.657   4.601  0.2978 -0.1514  0.6302
16666TIP3    H171489   0.203   5.672   4.682  0.0412 -2.3225  1.2533
16666TIP3    H271490   0.192   5.577   4.565  0.1383  0.5640 -1.2109
16667TIP3   OH271491   1.718   3.149   2.312 -0.5109  0.0749  0.0809
16667TIP3    H171492   1.691   3.086   2.379  0.0923 -1.5488 -1.1398
16667TIP3    H271493   1.667   3.124   2.234  1.0231 -0.0642 -0.9246
16668TIP3   OH271494   2.329   2.096   3.737  0.0893 -0.4556  0.2198
16668TIP3    H171495   2.414   2.052   3.733  0.1889 -0.3193  0.8572
16668TIP3    H271496   2.292   2.069   3.821 -0.4216 -0.3671  0.0267
16669TIP3   OH271497   3.257   4.988   3.983  0.9567  0.3744  0.1697
16669TIP3    H171498   3.207   4.909   3.968 -1.5878  1.9661 -0.3202
16669TIP3    H271499   3.296   5.008   3.898 -0.2944  0.8402 -0.3147
16670TIP3   OH271500   0.709   1.819  15.906  0.2091 -0.0505 -0.0202
16670TIP3    H171501   0.720   1.903  15.950  0.3820 -0.9583  1.7376
16670TIP3    H271502   0.763   1.826  15.827  1.6998  0.8374  1.0239
16671TIP3   OH271503   0.408   5.037  12.807 -0.4302 -0.5139  0.4802
16671TIP3    H171504   0.383   5.121  12.846 -1.9700 -0.4281 -0.5857
16671TIP3    H271505   0.471   4.999  12.869 -0.9244  0.7014  1.7801
16672TIP3   OH271506   0.557   1.166  16.816 -0.3500 -0.2564 -0.6842
16672TIP3    H171507   0.474   1.205  16.844 -1.3308 -2.2701 -0.5655
16672TIP3    H271508   0.556   1.175  16.720 -0.5526  0.0197 -0.6560
16673TIP3   OH271509   3.140   4.628  15.604 -0.2344 -0.5990 -0.7476
16673TIP3    H171510   3.057   4.605  15.646 -1.0419  1.3381 -1.1523
16673TIP3    H271511   3.207   4.602  15.667 -1.1713 -1.6578 -0.1553
16674TIP3   OH271512   4.673   5.748  13.270 -0.2832 -0.0334  0.0860
16674TIP3    H171513   4.633   5.776  13.352 -1.2905  0.3837 -0.5289
16674TIP3    H271514   4.707   5.661  13.288 -0.0363  0.2652  1.0870
16675TIP3   OH271515   4.047   0.890   0.605  0.0149 -0.3327 -0.6116
16675TIP3    H171516   4.068   0.839   0.683 -0.3275 -0.0432 -0.3258
16675TIP3    H271517   3.998   0.965   0.638 -2.6890 -1.6395 -1.3713
16676TIP3   OH271518   2.528   3.232  16.518  0.2632 -0.5341  0.4657
16676TIP3    H171519   2.607   3.244  16.571  0.7521  0.1595 -0.3790
16676TIP3    H271520   2.560   3.191  16.437 -0.0648  0.7082 -0.3202
16677TIP3   OH271521   6.455   1.850  12.327 -0.1158  0.1344 -0.2716
16677TIP3    H171522   6.499   1.778  12.283 -0.7653  0.2323 -1.1135
16677TIP3    H271523   6.525   1.912  12.348  0.2330  0.0581 -1.1393
16678TIP3   OH271524   1.464   5.972  11.053  0.2717  0.4251  0.3394
16678TIP3    H171525   1.369   5.974  11.066  0.1158  1.3156 -0.7710
16678TIP3    H271526   1.493   6.058  11.084  0.2785  1.3873 -2.1216
16679TIP3   OH271527   6.364   2.125  15.197 -0.2410  0.1474  0.8581
16679TIP3    H171528   6.311   2.093  15.124  1.7733  0.2787 -0.7771
16679TIP3    H271529   6.334   2.077  15.273 -0.0682 -2.6604 -0.7302
16680TIP3   OH271530   2.765   5.617   0.915  0.0955  0.4137 -0.1570
16680TIP3    H171531   2.731   5.535   0.879  2.5510 -1.8181  2.1262
16680TIP3    H271532   2.703   5.640   0.984 -0.0153 -0.1765 -0.0532
16681TIP3   OH271533   0.736   5.394   5.939  0.2802 -0.3515 -0.1469
16681TIP3    H171534   0.659   5.431   5.982 -0.9274 -0.6899 -1.9397
16681TIP3    H271535   0.768   5.327   6.000 -2.2327 -1.8315 -0.3276
16682TIP3   OH271536   3.123   5.968   2.631 -0.4413  0.1871  0.3999
16682TIP3    H171537   3.194   5.913   2.666  0.0188  1.3855  1.4261
16682TIP3    H271538   3.043   5.928   2.665 -0.2401 -0.8933 -0.3601
16683TIP3   OH271539   2.348   6.291   5.294 -0.0970 -0.1397 -0.1875
16683TIP3    H171540   2.351   6.287   5.390  1.0275  1.0292 -0.1448
16683TIP3    H271541   2.311   6.377   5.275 -2.2729 -1.1473 -0.8492
16684TIP3   OH271542   2.803   6.709   0.214  0.5780  0.0178  0.2896
16684TIP3    H171543   2.845   6.745   0.292  0.3303  0.3424  0.2803
16684TIP3    H271544   2.713   6.742   0.219  1.0272  1.6367 -1.0945
16685TIP3   OH271545   0.175   6.326  16.673  0.5242  0.0564  0.5447
16685TIP3    H171546   0.147   6.340  16.763 -2.6668  2.3691 -0.6052
16685TIP3    H271547   0.161   6.411  16.631  0.5364 -1.3096 -2.4330
16686TIP3   OH271548   6.409   4.735  11.138 -0.2309  0.2502 -0.5037
16686TIP3    H171549   6.397   4.663  11.075  0.0964  0.1494 -0.4552
16686TIP3    H271550   6.406   4.814  11.084  1.9426  0.0958 -0.9699
16687TIP3   OH271551   4.899   4.574   1.254 -0.3506  0.2142  0.1408
16687TIP3    H171552   4.962   4.510   1.221 -1.7649 -1.2674  0.2133
16687TIP3    H271553   4.917   4.653   1.204 -0.1913 -0.9710 -1.7612
16688TIP3   OH271554   0.831   3.914   2.129  0.5273 -0.1931 -0.1448
16688TIP3    H171555   0.765   3.924   2.197  0.0922  0.5002 -0.6626
16688TIP3    H271556   0.787   3.941   2.048  0.8323 -1.6059 -0.8159
16689TIP3   OH271557   1.719   1.333   2.910  0.3442 -0.2041  0.0694
16689TIP3    H171558   1.708   1.385   2.990 -0.3304 -0.6676  0.2854
16689TIP3    H271559   1.800   1.284   2.925 -0.0326 -0.6558  0.6830
16690TIP3   OH271560   6.000   1.098   4.746 -0.5677 -0.0923  0.2402
16690TIP3    H171561   6.050   1.072   4.824  1.2470  1.0421 -0.4805
16690TIP3    H271562   6.059   1.080   4.673 -1.8297 -0.1308 -0.8056
16691TIP3   OH271563   6.170   2.290   2.365  0.4788 -0.6370 -0.3214
16691TIP3    H171564   6.189   2.308   2.273  0.6298 -1.2766 -0.4193
16691TIP3    H271565   6.229   2.348   2.414  0.0230  0.0908 -0.6217
16692TIP3   OH271566   2.552   4.635   1.848  0.6033  0.3300  0.4362
16692TIP3    H171567   2.625   4.590   1.805  0.9644  0.0495  1.3046
16692TIP3    H271568   2.587   4.720   1.872  0.6790  0.1649  0.9266
16693TIP3   OH271569   0.266   1.286  14.672 -0.7034  0.2107 -0.3994
16693TIP3    H171570   0.219   1.234  14.607 -0.6085  2.2386 -2.1901
16693TIP3    H271571   0.218   1.368  14.677  2.5991  2.4995 -2.4820
16694TIP3   OH271572   0.599   3.660   4.687  0.4469  0.6429  0.5545
16694TIP3    H171573   0.685   3.650   4.727  0.6302  1.0493  0.2648
16694TIP3    H271574   0.562   3.738   4.729 -0.6385 -0.6721  2.1974
16695TIP3   OH271575   1.800   2.135   3.338 -0.2189  0.1926 -0.1923
16695TIP3    H171576   1.717   2.129   3.291 -0.4986 -0.2376  0.3422
16695TIP3    H271577   1.861   2.173   3.275 -0.8413  0.5895 -0.5684
16696TIP3   OH271578   1.537   3.820  15.578 -0.1559  0.1812 -0.7833
16696TIP3    H171579   1.607   3.759  15.601 -1.6136 -0.9630  0.9847
16696TIP3    H271580   1.506   3.853  15.663 -0.4895  2.1484 -1.6240
16697TIP3   OH271581   0.823   4.065   3.244 -0.3911 -0.2383 -0.0953
16697TIP3    H171582   0.845   4.032   3.158  1.9550 -1.0723  0.7606
16697TIP3    H271583   0.760   4.001   3.279 -0.4688 -0.5106 -0.7191
16698TIP3   OH271584   4.595   0.005  13.018 -0.1059  0.1874 -0.2014
16698TIP3    H171585   4.667   0.001  12.955 -0.4483  2.0893 -0.7963
16698TIP3    H271586   4.516  -0.008  12.966 -0.3967  1.8479 -0.2437
16699TIP3   OH271587   5.548   1.593  13.194 -0.1940  0.5340  0.1183
16699TIP3    H171588   5.635   1.631  13.182 -0.5406  1.4881  0.5528
16699TIP3    H271589   5.557   1.538  13.272  0.6174 -1.2825 -1.1858
16700TIP3   OH271590   3.164   6.240  16.516  0.2919  0.0687  0.6657
16700TIP3    H171591   3.077   6.273  16.537 -0.3084 -0.3210 -1.0852
16700TIP3    H271592   3.221   6.317  16.522 -0.2325  0.4120  1.3606
16701TIP3   OH271593   0.002   5.113  15.542  0.6181 -0.4239 -0.3243
16701TIP3    H171594   0.054   5.064  15.605 -2.5087 -1.7935  1.4160
16701TIP3    H271595   0.020   5.070  15.458  1.0038 -1.9635  0.5052
16702TIP3   OH271596   5.714   3.985  11.462 -0.6296 -0.2507 -0.1247
16702TIP3    H171597   5.694   3.919  11.529 -0.2525 -0.4310 -0.1839
16702TIP3    H271598   5.685   4.067  11.501  0.3328 -0.2371  0.6224
16703TIP3   OH271599   1.092   0.605   0.091 -0.2305  0.4115 -0.1885
16703TIP3    H171600   1.144   0.589   0.012  1.4323  0.3968  0.8605
16703TIP3    H271601   1.094   0.522   0.138 -1.0418  0.4827 -0.0090
16704TIP3   OH271602   1.407   1.812   5.336  0.6058  0.2443  0.4336
16704TIP3    H171603   1.332   1.754   5.328 -0.7522  2.0106 -0.5303
16704TIP3    H271604   1.420   1.822   5.430  1.8529 -2.7096  0.6693
16705TIP3   OH271605   5.927   5.752  10.977 -0.7992  0.1107 -0.3150
16705TIP3    H171606   5.937   5.734  11.071  0.9840  0.3852 -0.4326
16705TIP3    H271607   5.850   5.810  10.972 -0.9960 -0.0104  0.9534
16706TIP3   OH271608   6.265   2.982   4.090 -0.8490  0.4097  0.4439
16706TIP3    H171609   6.268   2.935   4.007 -0.8351 -0.3222  0.8496
16706TIP3    H271610   6.296   3.070   4.069 -1.3104  0.3813 -0.4199
16707TIP3   OH271611   3.344   3.940  16.743  0.6849 -0.3065  0.2057
16707TIP3    H171612   3.357   3.970  16.653  0.1552  0.7463  0.4660
16707TIP3    H271613   3.413   3.875  16.757  0.2285 -1.1503 -1.2519
16708TIP3   OH271614   0.662   2.009   5.366 -0.4932 -0.2323 -0.0022
16708TIP3    H171615   0.736   1.953   5.388  0.1026 -0.1259 -1.6410
16708TIP3    H271616   0.691   2.097   5.393 -0.0139 -0.1918 -0.6239
16709TIP3   OH271617   0.078   4.455  13.860  0.0994 -0.2364 -0.0850
16709TIP3    H171618   0.086   4.450  13.765 -0.3303 -0.2611 -0.1204
16709TIP3    H271619   0.168   4.469  13.891  0.4202 -1.4716 -0.4091
16710TIP3   OH271620   5.670   6.056  12.224  0.2132 -0.4319 -0.6224
16710TIP3    H171621   5.707   6.005  12.152  0.3685  0.1187 -0.9411
16710TIP3    H271622   5.589   6.010  12.247 -0.2915 -0.1310 -1.7342
16711TIP3   OH271623   0.954   0.809   0.154  0.1381 -0.5159  0.0047
16711TIP3    H171624   0.874   0.793   0.103  1.3089 -2.0223 -1.4908
16711TIP3    H271625   1.000   0.725   0.154  1.9118  0.3909  0.4804
16712TIP3   OH271626   5.189   1.532  16.111  0.0948 -0.1452 -0.1807
16712TIP3    H171627   5.237   1.585  16.174  0.8104  0.0344 -0.8646
16712TIP3    H271628   5.191   1.443  16.148  0.3793 -0.0144  0.1233
16713TIP3   OH271629   2.749   6.125   3.857 -0.6098 -0.4297  0.0263
16713TIP3    H171630   2.823   6.135   3.918  0.3837 -0.4970 -1.1240
16713TIP3    H271631   2.686   6.190   3.886 -0.6404 -1.1635  1.7715
16714TIP3   OH271632   0.942   1.944  10.218  0.1356 -0.4323 -0.0338
16714TIP3    H171633   0.889   1.941  10.297 -0.9969 -0.0781 -0.7482
16714TIP3    H271634   0.953   2.037  10.199  1.9961 -0.4550  0.7052
16715TIP3   OH271635   3.914   5.265  13.271 -0.2541 -0.5666  0.1422
16715TIP3    H171636   3.973   5.193  13.290 -2.2065 -2.0098  1.1190
16715TIP3    H271637   3.879   5.245  13.184 -0.6389 -0.6956  0.3247
16716TIP3   OH271638   3.105   5.339   2.124 -0.8066 -0.2474 -0.2758
16716TIP3    H171639   3.093   5.433   2.130  0.9569 -0.0364  0.5714
16716TIP3    H271640   3.105   5.308   2.214  2.4957 -0.4332 -0.1939
16717TIP3   OH271641   6.211   3.606  13.532 -0.2019 -0.3193 -0.3441
16717TIP3    H171642   6.268   3.545  13.579 -1.2907 -1.4164 -0.3862
16717TIP3    H271643   6.124   3.593  13.572 -0.5884  0.7549 -0.7900
16718TIP3   OH271644   5.740   4.913   5.023  0.4239 -0.4476  0.0344
16718TIP3    H171645   5.788   4.860   5.086 -2.2903 -0.7718  2.0203
16718TIP3    H271646   5.678   4.852   4.982 -2.7757  0.8945  2.3704
16719TIP3   OH271647   3.577   2.479   3.004  0.4762  0.9954 -0.1766
16719TIP3    H171648   3.589   2.553   3.063  1.0460  1.6150 -1.0362
16719TIP3    H271649   3.486   2.485   2.976 -0.0587  0.1674  1.3029
16720TIP3   OH271650   4.634   0.280   4.541  0.2279 -0.3585  0.1349
16720TIP3    H171651   4.622   0.223   4.617 -1.3722  0.9249  0.9149
16720TIP3    H271652   4.588   0.361   4.565  2.9955  1.5920 -0.5747
16721TIP3   OH271653   5.318   5.541   1.687 -0.0455 -0.5312 -0.0290
16721TIP3    H171654   5.379   5.468   1.679 -1.6232 -1.9453  0.2406
16721TIP3    H271655   5.239   5.511   1.641 -0.4951  1.3132 -0.5597
16722TIP3   OH271656   4.940   5.435  16.566  0.4093 -0.2443  0.6996
16722TIP3    H171657   4.894   5.471  16.490 -0.1206 -0.6052  0.8482
16722TIP3    H271658   4.949   5.509  16.626 -1.0318 -0.4397  1.1785
16723TIP3   OH271659   6.140   4.694  12.394  0.2764  0.1814  0.3225
16723TIP3    H171660   6.106   4.743  12.470  2.7561  0.9364  1.0370
16723TIP3    H271661   6.183   4.618  12.432 -0.9075 -0.9895 -0.5902
16724TIP3   OH271662   2.589   6.400  16.832 -0.5243  0.5254 -0.0201
16724TIP3    H171663   2.635   6.453  16.767 -0.0446 -0.2838 -0.3485
16724TIP3    H271664   2.507   6.448  16.848 -0.0711  1.3958 -0.2596
16725TIP3   OH271665   2.374   0.771  15.552  0.3766  0.0877 -0.1779
16725TIP3    H171666   2.323   0.851  15.540 -0.3925 -0.5711 -1.4359
16725TIP3    H271667   2.414   0.755  15.467  0.1517 -1.1264 -0.0672
16726TIP3   OH271668   5.024   2.461   0.678 -0.4161 -0.5920  0.1875
16726TIP3    H171669   5.033   2.553   0.654 -1.9314 -0.7792 -1.2572
16726TIP3    H271670   5.005   2.463   0.772  1.8880  0.3877  0.6918
16727TIP3   OH271671   4.474   5.486  17.040  0.1265  0.0882 -0.5482
16727TIP3    H171672   4.454   5.484  16.946 -2.0687  1.2118 -0.1763
16727TIP3    H271673   4.460   5.396  17.069 -2.9347  0.3751 -0.7145
16728TIP3   OH271674   0.732   4.239  15.448 -1.0792  0.1464 -0.2705
16728TIP3    H171675   0.685   4.189  15.514 -2.6611  1.2781 -0.4846
16728TIP3    H271676   0.724   4.188  15.367 -2.0307  0.3691 -0.3198
16729TIP3   OH271677   1.104   6.768   2.220  0.5214  0.2418 -0.2104
16729TIP3    H171678   1.152   6.774   2.138 -0.0001 -1.2993 -0.6677
16729TIP3    H271679   1.066   6.855   2.232  2.4423  1.1505 -0.4074
16730TIP3   OH271680   0.714   2.079  15.487 -0.0302  0.0636  1.2647
16730TIP3    H171681   0.661   2.148  15.525 -0.5635 -0.6667  1.8928
16730TIP3    H271682   0.654   2.004  15.480  0.2269 -0.0151 -0.4388
16731TIP3   OH271683   5.688   4.671  12.128  0.0601  0.1365  0.4124
16731TIP3    H171684   5.773   4.670  12.172  0.6599 -2.0111 -0.6346
16731TIP3    H271685   5.706   4.708  12.041  0.2527 -1.4774 -0.2764
16732TIP3   OH271686   1.139   5.318   3.828 -0.0986  0.0047  0.0271
16732TIP3    H171687   1.108   5.229   3.809 -1.1019  0.7117 -1.9007
16732TIP3    H271688   1.156   5.356   3.742 -1.6549  2.3508  0.6557
16733TIP3   OH271689   2.649   5.364  16.577  0.0792  0.1217  0.2903
16733TIP3    H171690   2.710   5.307  16.531 -1.0625 -0.4839 -0.5263
16733TIP3    H271691   2.646   5.329  16.666 -0.0388 -0.6375 -0.0067
16734TIP3   OH271692   2.454   3.703  10.934  0.3739  0.0053 -0.1895
16734TIP3    H171693   2.383   3.675  10.876 -0.0027 -1.0924  0.7639
16734TIP3    H271694   2.532   3.661  10.898  0.0812 -0.9730  0.2833
16735TIP3   OH271695   3.231   2.860  15.468 -0.0387  0.0378 -0.3807
16735TIP3    H171696   3.230   2.831  15.560  0.8973  1.2738  0.0344
16735TIP3    H271697   3.138   2.871  15.446 -0.2502  1.5581  1.0408
16736TIP3   OH271698   3.841   0.763   2.377  0.0161  0.0458 -0.2568
16736TIP3    H171699   3.901   0.834   2.399 -0.2730  0.6172 -1.2759
16736TIP3    H271700   3.898   0.687   2.365  0.4950  0.4689 -0.7236
16737TIP3   OH271701   6.005   3.997  16.701  0.5283  0.3292 -0.1452
16737TIP3    H171702   5.990   4.083  16.660 -2.0473  0.4369  0.8305
16737TIP3    H271703   6.100   3.986  16.700  0.7939  2.0996 -2.4739
16738TIP3   OH271704   2.895   2.627   4.999 -0.0549 -0.2009 -0.1171
16738TIP3    H171705   2.802   2.630   5.020  0.1942 -0.7397  1.1200
16738TIP3    H271706   2.937   2.681   5.066  0.6614 -1.1116  0.1797
16739TIP3   OH271707   6.800   1.246   1.730  0.2838  0.2626 -0.1680
16739TIP3    H171708   6.835   1.303   1.662  0.7571  1.1247  0.7673
16739TIP3    H271709   6.869   1.182   1.747 -0.0555 -0.3010 -0.8766
16740TIP3   OH271710   4.112   0.302   4.934  0.4600 -0.3434 -0.2121
16740TIP3    H171711   4.096   0.300   4.839  0.7524  0.8808 -0.3025
16740TIP3    H271712   4.038   0.350   4.970 -0.1344 -1.5954  0.3190
16741TIP3   OH271713   0.598   0.846   3.808 -0.1808  0.2744  0.3283
16741TIP3    H171714   0.666   0.785   3.781  0.4246  0.9294  0.3434
16741TIP3    H271715   0.615   0.926   3.758 -2.2219 -0.2203 -1.2823
16742TIP3   OH271716   5.464   3.413  13.142 -0.3886  0.4658  0.5531
16742TIP3    H171717   5.543   3.453  13.176  0.8696 -0.0452 -1.5966
16742TIP3    H271718   5.455   3.447  13.053 -1.7459 -0.6165  0.2276
16743TIP3   OH271719   1.433   5.618   0.840 -0.0250  0.7010 -0.0085
16743TIP3    H171720   1.402   5.598   0.928 -1.7050 -0.1285 -0.7377
16743TIP3    H271721   1.523   5.650   0.853  0.7432 -1.8386  1.7906
16744TIP3   OH271722   6.606   5.579  14.823 -0.1207  0.7639  0.3044
16744TIP3    H171723   6.573   5.516  14.759 -1.7647  2.5229 -0.6633
16744TIP3    H271724   6.693   5.546  14.845 -0.3091 -1.0030 -1.3012
16745TIP3   OH271725   5.572   6.746   6.067  0.1246  0.1207 -0.2616
16745TIP3    H171726   5.528   6.830   6.076  1.2132  0.5113  2.2867
16745TIP3    H271727   5.558   6.702   6.151 -0.0056 -2.0583 -1.3613
16746TIP3   OH271728   2.757   0.812  16.486 -0.8694 -0.1694 -0.1620
16746TIP3    H171729   2.850   0.811  16.506 -1.0342 -0.5684  0.6168
16746TIP3    H271730   2.717   0.857  16.560 -1.2426  0.5070 -0.7580
16747TIP3   OH271731   1.929   5.886  12.696  0.3832 -0.0195 -0.4702
16747TIP3    H171732   1.863   5.956  12.695 -1.3646 -1.6129 -1.2568
16747TIP3    H271733   1.983   5.903  12.619 -0.3786  0.1596 -0.9763
16748TIP3   OH271734   2.419   1.954  15.793 -0.0651  0.3759  0.5813
16748TIP3    H171735   2.356   1.886  15.768 -2.3404  1.0445  3.7822
16748TIP3    H271736   2.421   2.014  15.719  0.3258 -1.9869 -1.4310
16749TIP3   OH271737   3.107   1.782   0.899 -0.1561 -0.3362 -0.2191
16749TIP3    H171738   3.016   1.763   0.876 -0.6566 -0.4428  1.6538
16749TIP3    H271739   3.134   1.849   0.837 -1.2014 -0.9405 -1.3806
16750TIP3   OH271740   5.013   5.693  13.412  0.0449  0.3881  0.1340
16750TIP3    H171741   4.957   5.753  13.461 -0.6211  0.4275 -0.6713
16750TIP3    H271742   5.058   5.748  13.348  0.6015  0.2670  0.4086
16751TIP3   OH271743   2.804   6.240  10.928 -0.1398 -0.4721 -0.2767
16751TIP3    H171744   2.869   6.198  10.984  1.6316 -0.8992 -2.4754
16751TIP3    H271745   2.843   6.324  10.903 -1.0776 -0.0865 -0.5105
16752TIP3   OH271746   1.895   5.587   0.325  0.1437  0.8713  0.3455
16752TIP3    H171747   1.811   5.585   0.370  0.3447  1.0307  0.7313
16752TIP3    H271748   1.950   5.525   0.373  0.2935  0.8875  0.1963
16753TIP3   OH271749   2.842   6.378   6.772 -0.1073  0.0066 -0.0011
16753TIP3    H171750   2.921   6.428   6.790  1.4401 -2.3970  0.3575
16753TIP3    H271751   2.826   6.390   6.678  2.4723 -1.7689 -0.7625
16754TIP3   OH271752   0.756   1.950   3.988  0.1119  0.1302  0.0463
16754TIP3    H171753   0.726   2.041   3.991  3.7291  1.4814  0.3077
16754TIP3    H271754   0.705   1.905   4.055 -0.6003  2.3839  1.1062
16755TIP3   OH271755   3.220   0.443  15.290  0.6722 -0.4171  0.6184
16755TIP3    H171756   3.275   0.492  15.229  0.0267  0.0994  0.4357
16755TIP3    H271757   3.156   0.507  15.321  0.2788 -0.9645  0.9548
16756TIP3   OH271758   5.460   4.688  15.794  0.4896 -0.1755 -0.1471
16756TIP3    H171759   5.537   4.696  15.737  0.8134  0.2883  0.3466
16756TIP3    H271760   5.410   4.768  15.778 -0.0560 -0.6100 -0.6888
16757TIP3   OH271761   4.109   4.803   5.534  0.2849  0.3716 -0.0308
16757TIP3    H171762   4.037   4.848   5.491  0.0363  0.6244  0.6387
16757TIP3    H271763   4.069   4.759   5.609  0.2197 -2.2760 -1.4761
16758TIP3   OH271764   3.111   1.802  15.948  0.1049  0.3441  0.5571
16758TIP3    H171765   3.136   1.752  15.870 -0.1960  0.1096  0.6091
16758TIP3    H271766   3.121   1.739  16.020 -1.3717  0.0018  0.4975
16759TIP3   OH271767   5.588   6.517  14.843 -0.1805 -0.3125  0.2115
16759TIP3    H171768   5.507   6.468  14.857  0.5621 -1.2899  1.2927
16759TIP3    H271769   5.602   6.512  14.748 -1.5635  0.1914 -0.0356
16760TIP3   OH271770   2.915   5.763   4.980 -0.3596 -0.0476  0.1754
16760TIP3    H171771   2.993   5.763   5.036  0.0655 -1.0478 -0.3951
16760TIP3    H271772   2.870   5.681   5.000 -1.6009  0.7796  0.9176
16761TIP3   OH271773   4.532   1.688   3.261  0.4046 -0.3972 -0.0194
16761TIP3    H171774   4.532   1.624   3.333  2.3225 -0.2507  0.1627
16761TIP3    H271775   4.624   1.714   3.252 -0.1286  1.3226 -1.0022
16762TIP3   OH271776   5.558   5.423   1.370  0.4890  0.1822 -0.4228
16762TIP3    H171777   5.631   5.369   1.341  0.3431 -0.8620  1.0495
16762TIP3    H271778   5.559   5.498   1.311  1.5489 -0.7455 -1.6493
16763TIP3   OH271779   4.805   0.059  13.781  0.7891  0.2357 -0.4451
16763TIP3    H171780   4.849  -0.009  13.832 -1.8883 -1.4093 -0.1414
16763TIP3    H271781   4.838   0.047  13.692  1.4899 -0.4219 -0.1100
16764TIP3   OH271782   3.909   4.012  16.206 -0.1818  0.2231 -0.4759
16764TIP3    H171783   3.944   4.044  16.289  0.3495  0.2762 -0.7159
16764TIP3    H271784   3.982   3.966  16.165 -0.7869 -0.8683 -0.3644
16765TIP3   OH271785   1.741   6.819  13.583 -0.1067  0.4152  0.1206
16765TIP3    H171786   1.832   6.848  13.571 -0.6753  2.2544 -0.0026
16765TIP3    H271787   1.694   6.897  13.612 -1.5089 -0.7002  1.0231
16766TIP3   OH271788   2.459   1.972  14.728  0.3079 -0.1770  0.0592
16766TIP3    H171789   2.519   1.910  14.769 -0.5163 -0.2757  1.1275
16766TIP3    H271790   2.404   1.918  14.671  0.2325 -0.2898  0.2393
16767TIP3   OH271791   5.093   4.602  15.732 -0.4142  0.0052  0.4591
16767TIP3    H171792   5.031   4.644  15.672 -0.4854  1.2575  1.3681
16767TIP3    H271793   5.147   4.546  15.675 -0.8282  0.7310 -0.6865
16768TIP3   OH271794   6.531   0.138  12.143  0.2723  0.1714  0.2795
16768TIP3    H171795   6.446   0.156  12.183 -0.3089 -0.9716 -0.3668
16768TIP3    H271796   6.553   0.050  12.174  0.5102 -0.1320 -0.7372
16769TIP3   OH271797   5.219   3.338  14.080 -0.0688  0.4645  0.0578
16769TIP3    H171798   5.281   3.383  14.024  2.0598 -0.0902  1.8275
16769TIP3    H271799   5.273   3.282  14.136 -2.3225 -1.6719  0.2856
16770TIP3   OH271800   2.948   0.090   0.937 -0.6583  0.1883 -0.0881
16770TIP3    H171801   2.902   0.152   0.993 -1.7458 -0.8939  0.2544
16770TIP3    H271802   3.003   0.145   0.881 -0.5266  1.3719  1.1425
16771TIP3   OH271803   1.790   2.480  10.391 -0.0378  0.3161  0.4195
16771TIP3    H171804   1.771   2.568  10.357 -0.3697  0.4848  1.0152
16771TIP3    H271805   1.711   2.430  10.371 -0.2754  0.4425  1.0083
16772TIP3   OH271806   2.214   2.835   0.761  0.4985  0.4167  0.3175
16772TIP3    H171807   2.158   2.903   0.723  0.2733  0.8582  1.4067
16772TIP3    H271808   2.302   2.872   0.756  0.2936  1.1065  1.5513
16773TIP3   OH271809   3.201   5.129   3.584 -0.3359  0.3450  0.1229
16773TIP3    H171810   3.166   5.041   3.571 -2.0851  1.2662 -1.9547
16773TIP3    H271811   3.131   5.177   3.629  0.3860  0.8459  0.7540
16774TIP3   OH271812   3.340   3.868   5.508 -0.3581  0.0064  0.4844
16774TIP3    H171813   3.370   3.858   5.599 -1.9727  0.9639  1.1625
16774TIP3    H271814   3.352   3.961   5.490 -4.8600  1.0608  1.6378
16775TIP3   OH271815   1.524   4.013  17.042  0.0994 -0.2613  0.0307
16775TIP3    H171816   1.513   3.930  16.997 -0.4523 -0.5218  0.6241
16775TIP3    H271817   1.486   4.078  16.982 -0.3578 -0.5659 -0.0155
16776TIP3   OH271818   1.774   2.678  13.583  0.5926  0.0275 -0.0463
16776TIP3    H171819   1.792   2.598  13.634  0.1246  0.5598  0.9905
16776TIP3    H271820   1.685   2.702  13.609 -0.8539 -1.2470 -3.2625
16777TIP3   OH271821   3.829   3.472   1.172 -0.3396 -0.3969  0.0235
16777TIP3    H171822   3.877   3.448   1.093 -0.8876 -0.4076 -0.3108
16777TIP3    H271823   3.740   3.440   1.157 -1.2178  2.1097 -0.5821
16778TIP3   OH271824   1.747   6.254   1.482  0.2368 -0.1515 -0.4600
16778TIP3    H171825   1.791   6.338   1.473 -0.6965  0.4492  0.2967
16778TIP3    H271826   1.793   6.210   1.554  0.4075 -0.0816 -0.5269
16779TIP3   OH271827   6.139   4.026   2.128 -0.6590  0.2209  0.3953
16779TIP3    H171828   6.064   4.012   2.185 -0.1056 -1.3124  0.7788
16779TIP3    H271829   6.134   3.956   2.064 -1.5449  2.1732 -1.8328
16780TIP3   OH271830   5.658   1.325   3.125 -0.4234  0.1559  0.1732
16780TIP3    H171831   5.749   1.295   3.128 -1.1337 -2.2498  0.0438
16780TIP3    H271832   5.618   1.287   3.203 -1.5138  0.4643 -0.2154
16781TIP3   OH271833   5.840   4.530   1.538 -0.4733  0.1418  0.2753
16781TIP3    H171834   5.759   4.479   1.540  0.4219 -1.3042  1.1865
16781TIP3    H271835   5.892   4.491   1.467  0.3008 -0.3952  1.1111
16782TIP3   OH271836   0.907   6.379   5.571  0.1545  0.3981  0.5569
16782TIP3    H171837   0.844   6.419   5.511 -1.4693  1.0658  2.6024
16782TIP3    H271838   0.985   6.435   5.564 -0.1410  0.6874 -0.6093
16783TIP3   OH271839   0.752   5.582  11.268 -0.3621  0.1611  0.2768
16783TIP3    H171840   0.668   5.571  11.312 -0.8091 -1.0830 -0.8067
16783TIP3    H271841   0.803   5.505  11.293 -0.5990 -0.5364 -1.2556
16784TIP3   OH271842   2.032   4.279   5.640  0.4608  0.3367 -0.0510
16784TIP3    H171843   2.026   4.227   5.720  0.4950  0.3694 -0.0266
16784TIP3    H271844   1.957   4.338   5.644 -0.7343 -1.0535 -1.0418
16785TIP3   OH271845   1.199   4.011   0.387  0.1233  0.5000  0.6286
16785TIP3    H171846   1.114   3.987   0.425 -0.1244 -0.6318 -0.5791
16785TIP3    H271847   1.256   3.937   0.409  0.1924  0.2191 -0.4774
16786TIP3   OH271848   4.791   3.349  13.745 -0.0586 -0.5704  0.2041
16786TIP3    H171849   4.819   3.402  13.669  0.8199  0.0997  0.9734
16786TIP3    H271850   4.867   3.349  13.803 -1.6764  1.5881  2.5452
16787TIP3   OH271851   3.492   5.482  15.164  0.3390  0.2548  0.6252
16787TIP3    H171852   3.441   5.401  15.173 -0.4549  0.7214  0.3897
16787TIP3    H271853   3.493   5.519  15.252  0.7801 -0.0448  0.7531
16788TIP3   OH271854   6.092   1.614   1.775  0.6739  0.0568 -0.3033
16788TIP3    H171855   6.083   1.709   1.773 -0.3178 -0.0376 -0.7477
16788TIP3    H271856   6.073   1.589   1.865  1.2795  0.2973 -0.1000
16789TIP3   OH271857   2.453   0.095   0.464  0.3516  0.7707  0.4036
16789TIP3    H171858   2.474   0.143   0.384 -2.1941 -1.8180 -2.0433
16789TIP3    H271859   2.358   0.095   0.469  0.1938 -2.9550  0.7610
16790TIP3   OH271860   2.222   1.848   5.188  0.7610  0.2384  0.0727
16790TIP3    H171861   2.279   1.771   5.182  1.4062  0.6401  0.8630
16790TIP3    H271862   2.134   1.813   5.181  1.0881 -0.2936 -2.2371
16791TIP3   OH271863   0.457   3.405   1.513 -0.1586  0.1032 -0.1380
16791TIP3    H171864   0.451   3.319   1.471  1.3659 -0.9500  1.6325
16791TIP3    H271865   0.545   3.408   1.549 -0.0769  2.5593 -0.3690
16792TIP3   OH271866   0.302   6.069  14.821 -0.5656 -0.0549  0.0776
16792TIP3    H171867   0.348   5.985  14.820 -0.4904 -0.0520  1.3742
16792TIP3    H271868   0.366   6.132  14.786 -0.9108 -0.6372 -1.7269
16793TIP3   OH271869   1.812   2.056  13.324  0.5232  0.1603 -0.2196
16793TIP3    H171870   1.717   2.055  13.313  0.6717 -0.3488 -1.7267
16793TIP3    H271871   1.830   1.984  13.385 -0.1200  0.9385  0.9272
16794TIP3   OH271872   4.187   4.265   0.694 -0.3478  0.3828  0.0833
16794TIP3    H171873   4.206   4.243   0.785  2.3266 -0.4293 -0.5960
16794TIP3    H271874   4.092   4.264   0.689 -0.5396 -1.4746  2.4048
16795TIP3   OH271875   1.081   4.037  10.526 -0.0557 -0.2725  0.2795
16795TIP3    H171876   1.042   4.042  10.438  0.7519  2.4708 -0.0388
16795TIP3    H271877   1.176   4.036  10.510  0.0874 -1.6859  1.1143
16796TIP3   OH271878   3.318   1.328  16.452 -0.0455  0.2028 -0.3561
16796TIP3    H171879   3.297   1.306  16.361  0.8117  1.9237 -1.0249
16796TIP3    H271880   3.242   1.376  16.484 -0.1341  0.0586 -0.3541
16797TIP3   OH271881   0.747   5.511  17.087  0.6406  0.4374  0.5582
16797TIP3    H171882   0.724   5.562  17.010  0.9169 -1.3232 -0.7567
16797TIP3    H271883   0.796   5.572  17.142  1.5608  1.4191 -1.2418
16798TIP3   OH271884   6.051   1.528  14.125  0.1379 -0.2990  0.3166
16798TIP3    H171885   5.958   1.513  14.141 -0.0501  0.3348 -0.1214
16798TIP3    H271886   6.095   1.453  14.163 -0.5983 -0.8863  0.0258
16799TIP3   OH271887   5.058   3.686  11.598  0.8093  0.2539 -0.0692
16799TIP3    H171888   5.008   3.610  11.629  0.5280  0.2117 -0.6225
16799TIP3    H271889   5.075   3.667  11.505  2.3504 -0.0076  0.2354
16800TIP3   OH271890   5.272   2.611   0.072 -0.0333  0.6010 -0.4096
16800TIP3    H171891   5.314   2.527   0.090  1.7087  1.3703 -0.6426
16800TIP3    H271892   5.345   2.673   0.068 -1.2121  1.9912 -1.0082
16801TIP3   OH271893   0.438   0.910   2.008 -0.2712  0.0100 -0.5970
16801TIP3    H171894   0.450   1.003   1.986  1.9420 -0.3265 -1.0517
16801TIP3    H271895   0.382   0.911   2.086  1.8301  1.9329  1.0552
16802TIP3   OH271896   5.833   6.812   3.127  0.0017  0.2016  0.1643
16802TIP3    H171897   5.912   6.758   3.124 -0.5463 -0.5946 -1.0044
16802TIP3    H271898   5.764   6.751   3.153 -0.2030  0.9485  1.4537
16803TIP3   OH271899   3.221   0.594  13.804  0.5947 -0.6814  0.3594
16803TIP3    H171900   3.294   0.543  13.770 -0.1110 -1.2374 -0.3761
16803TIP3    H271901   3.180   0.537  13.870 -1.2464 -1.8790 -1.6830
16804TIP3   OH271902   0.564   5.565   6.055 -0.0306  1.2218 -0.4138
16804TIP3    H171903   0.574   5.603   5.968 -1.7174  0.7631 -0.8621
16804TIP3    H271904   0.477   5.594   6.084  0.1861  0.7412  0.7816
16805TIP3   OH271905   5.051   3.341   1.400  0.2110  0.4104  0.5082
16805TIP3    H171906   5.097   3.411   1.446 -0.4901  0.9189  0.4527
16805TIP3    H271907   5.048   3.269   1.462 -0.7307  1.0912  1.2702
16806TIP3   OH271908   2.311   1.127  16.511  0.2280 -0.0774  0.8252
16806TIP3    H171909   2.391   1.177  16.526  0.0215  0.5673 -0.1548
16806TIP3    H271910   2.339   1.050  16.461 -0.0538  1.4131 -1.8096
16807TIP3   OH271911   6.158   4.362   6.076  0.1991  0.3559  0.2773
16807TIP3    H171912   6.110   4.309   6.012  1.8065 -1.0383  0.1473
16807TIP3    H271913   6.109   4.444   6.081 -0.8215 -0.0769 -1.6076
16808TIP3   OH271914   4.505   2.593   0.517 -0.2980 -0.0337  0.5773
16808TIP3    H171915   4.426   2.542   0.537 -0.2921 -0.1501  0.3082
16808TIP3    H271916   4.512   2.589   0.421  0.0429 -0.0356  0.6030
16809TIP3   OH271917   0.407   3.451  13.267 -0.7066  0.1272 -0.0200
16809TIP3    H171918   0.349   3.431  13.194 -1.7474  1.6797  0.3448
16809TIP3    H271919   0.364   3.413  13.343 -1.8644  2.2003  0.4223
16810TIP3   OH271920   5.854   6.642  13.472 -0.0978  0.0281 -0.4311
16810TIP3    H171921   5.929   6.625  13.415 -0.3202 -0.2086 -0.6570
16810TIP3    H271922   5.879   6.719  13.522  1.5360 -1.7539  1.6672
16811TIP3   OH271923   0.428   4.188   5.771 -0.1734  1.1903 -0.2700
16811TIP3    H171924   0.414   4.282   5.778  0.1106  1.3727 -1.7957
16811TIP3    H271925   0.522   4.177   5.786 -0.2413  1.1190  0.1133
16812TIP3   OH271926   2.245   1.404  12.356 -0.5214  0.1010  0.5556
16812TIP3    H171927   2.165   1.456  12.348 -0.2266  0.4855  0.0782
16812TIP3    H271928   2.295   1.447  12.425  0.2688  1.1923 -0.6581
16813TIP3   OH271929   2.807   3.158  13.596 -0.2587  0.2419 -0.3306
16813TIP3    H171930   2.739   3.109  13.551  0.7151 -1.1289 -0.3466
16813TIP3    H271931   2.859   3.198  13.526 -0.7620  0.9359 -0.3240
16814TIP3   OH271932   5.898   5.108   1.777 -0.8094  0.6889  0.0953
16814TIP3    H171933   5.926   5.026   1.817  2.0184  2.5818  2.3852
16814TIP3    H271934   5.977   5.142   1.735 -1.7641  2.5163 -0.3122
16815TIP3   OH271935   4.234   0.717   6.664  0.3264  0.0300 -0.1104
16815TIP3    H171936   4.168   0.777   6.700  0.8136  1.5654 -1.5961
16815TIP3    H271937   4.243   0.648   6.729 -0.5415  1.3946  1.5339
16816TIP3   OH271938   6.693   1.081   0.022  0.1996 -0.3211  0.2442
16816TIP3    H171939   6.610   1.084   0.069 -0.2466 -0.6443 -0.5086
16816TIP3    H271940   6.757   1.052   0.087 -0.0963  0.8187  1.0635
16817TIP3   OH271941   2.685   5.681  17.140 -0.0383  0.1132 -0.2070
16817TIP3    H171942   2.671   5.755  17.081  0.7221  1.3425  1.0958
16817TIP3    H271943   2.778   5.660  17.131  0.9162  2.3797  2.7343
16818TIP3   OH271944   4.440   4.527  14.301  0.2679  0.1067 -0.2836
16818TIP3    H171945   4.373   4.467  14.334  0.0751  0.4461 -0.0599
16818TIP3    H271946   4.391   4.596  14.256  0.4839  0.1787 -0.4122
16819TIP3   OH271947   2.583   4.958   0.091  0.3657 -0.1276  0.0750
16819TIP3    H171948   2.587   5.010   0.011 -0.4374  0.2244  0.2536
16819TIP3    H271949   2.555   4.871   0.062  0.6547 -0.1688 -0.0901
16820TIP3   OH271950   0.061   3.233   5.765 -0.0643  0.3568  0.0211
16820TIP3    H171951   0.024   3.158   5.812  1.4968  0.8048  2.1230
16820TIP3    H271952   0.156   3.224   5.777  0.3311  1.2253 -2.0233
16821TIP3   OH271953   3.649   4.235  12.798  0.3865  0.3305  0.2472
16821TIP3    H171954   3.640   4.201  12.887  3.4592  0.9916  0.9093
16821TIP3    H271955   3.718   4.301  12.804  0.0658  1.0435 -2.4845
16822TIP3   OH271956   4.596   1.272  12.555 -0.3552 -0.0347 -0.2065
16822TIP3    H171957   4.598   1.222  12.474 -1.2541  0.6263 -0.6532
16822TIP3    H271958   4.687   1.294  12.572 -0.3254  1.7711 -2.2771
16823TIP3   OH271959   1.592   0.854  13.376  0.5974  0.3991 -0.3255
16823TIP3    H171960   1.652   0.786  13.346  0.8321  0.2488  0.4518
16823TIP3    H271961   1.647   0.932  13.385  0.9801 -0.0377  1.5698
16824TIP3   OH271962   4.947   4.978  16.252  0.0411 -0.2392  0.2676
16824TIP3    H171963   4.909   4.993  16.165  1.6081  2.7961 -0.0407
16824TIP3    H271964   4.872   4.973  16.311 -0.9900  0.6900 -0.9147
16825TIP3   OH271965   3.576   1.090   5.743  0.0644 -0.2884 -0.0434
16825TIP3    H171966   3.539   1.102   5.656  0.0773 -0.1792 -0.0349
16825TIP3    H271967   3.670   1.081   5.729  0.1000  0.0212 -0.0185
16826TIP3   OH271968   3.865   0.385   0.918  0.9233 -0.1097 -0.4633
16826TIP3    H171969   3.868   0.437   0.998  0.0558  0.3978 -0.7524
16826TIP3    H271970   3.794   0.323   0.932  1.5197 -0.7919 -0.3899
16827TIP3   OH271971   5.579   5.368   1.782  0.1771 -1.0671  0.1602
16827TIP3    H171972   5.633   5.437   1.822 -1.3461 -0.0261  0.5083
16827TIP3    H271973   5.612   5.362   1.692  0.3170  0.1704  0.0982
16828TIP3   OH271974   0.431   5.736  16.966 -0.2336  0.0328  0.1025
16828TIP3    H171975   0.367   5.690  16.911  0.4270 -0.3949 -0.3250
16828TIP3    H271976   0.449   5.674  17.037 -0.3567  0.1830  0.2639
16829TIP3   OH271977   1.076   5.279  15.901  0.0510 -0.7849  0.8093
16829TIP3    H171978   1.000   5.335  15.915  1.6088  1.8919 -0.7747
16829TIP3    H271979   1.077   5.262  15.807  1.0885 -1.2853  0.8968
16830TIP3   OH271980   2.545   0.828   1.548  0.1746 -0.7260 -0.3895
16830TIP3    H171981   2.641   0.820   1.545  0.4571 -2.5469  4.3897
16830TIP3    H271982   2.514   0.753   1.497  1.2324 -0.2974 -1.7419
16831TIP3   OH271983   1.622   1.972  12.927  0.2364 -0.4887 -0.0106
16831TIP3    H171984   1.585   2.042  12.874 -2.2639 -0.7690  1.2350
16831TIP3    H271985   1.666   1.915  12.864 -1.5872 -0.1870 -1.6507
16832TIP3   OH271986   2.070   1.966   5.741 -0.1647  0.2548 -0.7521
16832TIP3    H171987   2.148   1.975   5.795 -1.2448  1.9408  0.6170
16832TIP3    H271988   2.016   2.042   5.763 -1.6850 -0.2325 -2.5252
16833TIP3   OH271989   3.981   0.455  12.142  0.0154 -0.2901 -0.6490
16833TIP3    H171990   3.901   0.441  12.092 -0.5121 -1.4132  0.4443
16833TIP3    H271991   4.041   0.387  12.112 -0.5979 -1.5286  0.7460
16834TIP3   OH271992   5.741   1.520  15.234 -0.4594 -0.6676  0.8604
16834TIP3    H171993   5.712   1.609  15.252  1.8631  0.1399  0.8847
16834TIP3    H271994   5.795   1.496  15.309  0.2504 -1.5008  0.1099
16835TIP3   OH271995   4.515   6.716   0.479 -0.3252  0.7343 -0.2316
16835TIP3    H171996   4.478   6.631   0.459 -0.7614  1.1805 -1.4236
16835TIP3    H271997   4.562   6.704   0.562 -0.2453 -0.6867 -0.4715
16836TIP3   OH271998   4.207   4.241   5.300  0.0367 -0.3309 -0.6524
16836TIP3    H171999   4.204   4.229   5.205  1.3530  0.5248 -0.8267
16836TIP3    H272000   4.264   4.172   5.331 -0.0577 -0.3535 -0.5268
16837TIP3   OH272001   0.811   3.376   3.839 -0.5360  0.0489 -1.1580
16837TIP3    H172002   0.884   3.320   3.866 -1.0621 -0.6857 -1.2465
16837TIP3    H272003   0.734   3.320   3.844 -1.3957  1.2675  0.6245
16838TIP3   OH272004   5.052   4.968  13.899 -0.0431 -0.3678  0.2700
16838TIP3    H172005   5.007   5.011  13.826 -0.7272  0.8237  1.3557
16838TIP3    H272006   4.982   4.943  13.959  0.6577  1.3087  1.8885
16839TIP3   OH272007   1.732   0.954   0.384 -0.1634 -0.1951 -0.2843
16839TIP3    H172008   1.771   0.901   0.454 -0.8982 -0.2774  0.0727
16839TIP3    H272009   1.640   0.961   0.408 -0.5169 -0.5701 -1.4648
16840TIP3   OH272010   5.937   6.204  16.740  0.1675  0.7103  0.2204
16840TIP3    H172011   5.951   6.270  16.671 -1.4773  1.1357  0.2486
16840TIP3    H272012   5.962   6.121  16.699 -1.2629  0.8823 -1.0965
16841TIP3   OH272013   0.906   2.935   1.384 -0.0944  0.3664  0.2544
16841TIP3    H172014   0.999   2.910   1.386  0.4148  2.1672  1.1701
16841TIP3    H272015   0.864   2.878   1.448  0.0895 -1.3491 -1.0708
16842TIP3   OH272016   5.900   6.265  14.653 -0.6845 -0.4058 -0.3939
16842TIP3    H172017   5.983   6.308  14.673  0.4026 -2.1716 -0.9036
16842TIP3    H272018   5.861   6.247  14.739 -0.4412  0.2121 -0.1484
16843TIP3   OH272019   3.879   4.983  16.606 -0.1434 -0.4337 -0.1760
16843TIP3    H172020   3.798   4.994  16.556  0.0653  1.3722 -0.1649
16843TIP3    H272021   3.936   5.054  16.576  0.1732  0.4414  2.2628
16844TIP3   OH272022   4.582   4.238   5.975  0.1041  0.2099  0.3385
16844TIP3    H172023   4.627   4.170   5.925  0.9260  0.6911  0.4215
16844TIP3    H272024   4.566   4.199   6.061  0.6781  0.1607  0.4245
16845TIP3   OH272025   4.741   4.341  11.588 -0.3942 -0.0368 -0.3801
16845TIP3    H172026   4.758   4.389  11.508 -0.7352  0.0865 -0.3808
16845TIP3    H272027   4.659   4.294  11.572 -0.7136  0.3575  0.0587
16846TIP3   OH272028   0.217   3.683  11.090 -0.1353 -0.1616 -0.3237
16846TIP3    H172029   0.211   3.604  11.143  2.6017 -0.3730 -0.1865
16846TIP3    H272030   0.127   3.710  11.076 -1.0255 -1.3438  2.5381
16847TIP3   OH272031   2.031   3.390   2.095 -0.0021 -0.0737 -0.7912
16847TIP3    H172032   2.013   3.463   2.035 -0.1836  0.2558 -0.3439
16847TIP3    H272033   2.041   3.314   2.038 -2.2334 -0.1666 -1.1466
16848TIP3   OH272034   2.680   5.860   4.418  0.1100 -0.3102 -0.9930
16848TIP3    H172035   2.644   5.808   4.490  0.9947  0.9909  0.4509
16848TIP3    H272036   2.706   5.795   4.352  0.8326 -1.6840  0.5724
16849TIP3   OH272037   0.615   6.473  13.073  0.4679 -0.0109 -0.1726
16849TIP3    H172038   0.529   6.432  13.076  0.7349 -0.8970 -2.4268
16849TIP3    H272039   0.657   6.449  13.156 -0.9436 -0.7195  0.3627
16850TIP3   OH272040   0.837   0.090  14.952 -0.5834  0.3314 -0.1263
16850TIP3    H172041   0.778   0.015  14.946 -0.5402  0.3319 -0.5981
16850TIP3    H272042   0.841   0.110  15.046  0.9404 -1.4607  0.2427
16851TIP3   OH272043   1.294   3.380   4.931  0.2381  0.2272 -0.0500
16851TIP3    H172044   1.352   3.338   4.867  0.8584  0.5333  0.3012
16851TIP3    H272045   1.229   3.426   4.878  0.8095  0.5623 -0.4709
16852TIP3   OH272046   0.201   5.768  11.292 -0.2763  0.1934 -0.1189
16852TIP3    H172047   0.283   5.741  11.250 -0.7978  0.6109 -1.4563
16852TIP3    H272048   0.141   5.694  11.278 -0.2599  0.0511  0.5144
16853TIP3   OH272049   5.606   4.434   2.189  0.2354  0.4067 -0.1051
16853TIP3    H172050   5.638   4.470   2.272  1.1468  3.5714 -1.6734
16853TIP3    H272051   5.675   4.373   2.161  0.4972  0.2400  0.8619
16854TIP3   OH272052   0.317   3.919   2.035  0.3185  0.7303  0.5333
16854TIP3    H172053   0.324   3.833   1.994 -0.2446  0.6616  0.5782
16854TIP3    H272054   0.335   3.981   1.965  2.0542  0.5560  0.7867
16855TIP3   OH272055   5.503   2.175   2.360  0.6483  0.1091  0.0250
16855TIP3    H172056   5.438   2.118   2.318 -1.1542  0.6772  1.9132
16855TIP3    H272057   5.575   2.115   2.383  0.3080 -0.7523 -1.0316
16856TIP3   OH272058   0.767   5.682  13.139 -0.2668  0.3453  0.4043
16856TIP3    H172059   0.772   5.628  13.217 -1.5943 -0.3660  0.0393
16856TIP3    H272060   0.765   5.619  13.066  1.4614  1.0018 -0.2514
16857TIP3   OH272061   0.560   0.386   0.415  0.1887 -1.0070 -0.5684
16857TIP3    H172062   0.633   0.323   0.413 -0.2471 -1.6279  1.2922
16857TIP3    H272063   0.582   0.444   0.487 -0.2169  0.0255 -1.2590
16858TIP3   OH272064   2.546   0.236  11.550  0.6763 -0.1899 -0.1999
16858TIP3    H172065   2.570   0.300  11.616 -0.4221  0.5716 -0.5161
16858TIP3    H272066   2.450   0.238  11.547  0.6732 -0.7622 -1.2617
16859TIP3   OH272067   1.226   6.124  11.712 -0.5623 -0.1860  0.0759
16859TIP3    H172068   1.179   6.194  11.758  1.3194  1.0724  0.1851
16859TIP3    H272069   1.177   6.044  11.734 -1.8766  0.8695  1.2030
16860TIP3   OH272070   2.066   6.716   5.484  0.5041 -0.5922 -0.3472
16860TIP3    H172071   2.093   6.771   5.557  0.9353 -1.4113  0.1235
16860TIP3    H272072   2.085   6.769   5.406  0.0187  0.2974  0.1204
16861TIP3   OH272073   2.346   2.338  15.807  0.7625  0.2305 -0.3253
16861TIP3    H172074   2.277   2.276  15.829 -1.9935  3.4366  0.9207
16861TIP3    H272075   2.418   2.316  15.866 -0.4123 -1.2311  0.6328
16862TIP3   OH272076   1.220   6.480   2.835 -0.1979  0.5700  0.1393
16862TIP3    H172077   1.292   6.473   2.773  1.7166  1.2013  2.1906
16862TIP3    H272078   1.241   6.557   2.889 -1.0270 -0.7197  2.4504
16863TIP3   OH272079   4.331   0.583  13.953 -0.1089 -0.1558 -0.1488
16863TIP3    H172080   4.409   0.621  13.995 -0.1762 -1.5046  1.2697
16863TIP3    H272081   4.363   0.547  13.871  0.7551 -0.6212  0.3815
16864TIP3   OH272082   4.537   0.155  15.136  0.2075 -0.4557 -0.1171
16864TIP3    H172083   4.589   0.186  15.210  0.8748 -2.4864  0.3331
16864TIP3    H272084   4.448   0.187  15.155  0.7300  0.7008  0.5313
16865TIP3   OH272085   6.535   4.857  13.083  1.2158 -0.8761 -0.2264
16865TIP3    H172086   6.463   4.827  13.138  1.2613 -3.4321 -1.4300
16865TIP3    H272087   6.494   4.916  13.020  0.6988 -0.1493  0.7496
16866TIP3   OH272088   3.617   2.671   0.792  0.2294  0.1154 -0.1674
16866TIP3    H172089   3.649   2.583   0.770  0.9973  0.7608 -1.7482
16866TIP3    H272090   3.610   2.716   0.708 -2.8766  0.7222  0.2709
16867TIP3   OH272091   2.851   3.918  14.218  0.0604 -0.4831 -0.0394
16867TIP3    H172092   2.924   3.939  14.160 -0.2153 -0.6998 -0.4700
16867TIP3    H272093   2.861   3.978  14.292  0.1386  0.1199 -0.5344
16868TIP3   OH272094   3.627   5.048  15.445  0.4254 -0.4488 -0.2658
16868TIP3    H172095   3.686   5.062  15.370 -1.1471 -0.9332 -1.6626
16868TIP3    H272096   3.623   5.134  15.488  3.8154 -0.8690  1.2653
16869TIP3   OH272097   2.492   1.414   2.739 -0.3419  0.0383  0.5662
16869TIP3    H172098   2.546   1.476   2.788  1.9280 -1.4867  0.1431
16869TIP3    H272099   2.498   1.444   2.648  0.4726 -0.5660  0.4103
16870TIP3   OH272100   5.008   1.034   4.134 -0.3893 -0.3613 -0.2008
16870TIP3    H172101   4.965   1.034   4.049 -1.1415  0.7246  0.1561
16870TIP3    H272102   4.980   1.116   4.175 -1.3253 -1.5995  1.7363
16871TIP3   OH272103   4.043   0.542  13.893  0.3370  0.2104 -0.2698
16871TIP3    H172104   4.129   0.583  13.898  0.5197 -0.3063  2.2659
16871TIP3    H272105   3.983   0.613  13.872  1.1867  0.8846 -0.4445
16872TIP3   OH272106   3.907   1.654   3.739 -0.5870  0.0509  0.4839
16872TIP3    H172107   3.985   1.666   3.792 -0.1738 -1.3022  0.2289
16872TIP3    H272108   3.845   1.719   3.771  0.9187  1.7544  0.1181
16873TIP3   OH272109   6.829   0.806   4.725 -0.0281 -0.0034  0.0436
16873TIP3    H172110   6.750   0.754   4.713  0.3419 -0.4862 -0.3497
16873TIP3    H272111   6.886   0.751   4.779  0.1616  0.2104  0.0613
16874TIP3   OH272112   6.230   5.167   2.234 -0.4196  0.9785 -0.6314
16874TIP3    H172113   6.210   5.196   2.145 -0.7680 -0.5336 -1.0877
16874TIP3    H272114   6.231   5.071   2.228 -0.7509  0.8332  1.0618
16875TIP3   OH272115   3.018   0.644  13.579 -0.3764  0.3781  0.0385
16875TIP3    H172116   3.114   0.636  13.578 -0.3660  0.3257 -1.2391
16875TIP3    H272117   2.990   0.590  13.505 -1.4240  0.1498  0.5882
16876TIP3   OH272118   1.440   6.374   5.028  0.2409  0.5775  0.0448
16876TIP3    H172119   1.426   6.371   4.933 -1.6766  0.9048  0.2803
16876TIP3    H272120   1.355   6.353   5.065  1.3722 -1.3835  1.7418
16877TIP3   OH272121   6.023   3.475   1.939 -0.6401  0.2991  0.7740
16877TIP3    H172122   6.107   3.496   1.981  0.0285  0.8965 -0.7737
16877TIP3    H272123   6.042   3.397   1.886 -0.8058  0.9221 -0.2390
16878TIP3   OH272124   6.088   2.786   3.513  0.0323  0.0761  0.3995
16878TIP3    H172125   6.148   2.808   3.442 -0.5898  1.8977  0.3834
16878TIP3    H272126   6.008   2.758   3.469 -0.1104  0.4965  0.3925
16879TIP3   OH272127   1.185   1.663   1.917 -0.4264 -0.3115  0.4066
16879TIP3    H172128   1.164   1.682   2.008 -1.3945 -2.0195  0.5921
16879TIP3    H272129   1.124   1.593   1.892  1.8422 -2.1100 -0.5581
16880TIP3   OH272130   5.857   5.717   0.991  0.6989  0.7051  0.7219
16880TIP3    H172131   5.772   5.690   0.954 -0.2417  2.9277  1.0645
16880TIP3    H272132   5.921   5.693   0.924 -0.5245  1.2002 -0.6925
16881TIP3   OH272133   4.200   3.898  15.396  0.2359 -0.0878  0.1472
16881TIP3    H172134   4.182   3.821  15.449 -0.7137  0.5245  0.7335
16881TIP3    H272135   4.296   3.906  15.398  0.2175  0.7497  3.0375
16882TIP3   OH272136   4.278   4.994  12.583  0.4702 -0.1538 -0.4575
16882TIP3    H172137   4.268   4.998  12.488  0.7651  2.1377 -0.4485
16882TIP3    H272138   4.366   5.029  12.599  0.7245 -1.2345  0.6252
16883TIP3   OH272139   2.611   5.141   2.305  0.0408 -0.1182 -0.4291
16883TIP3    H172140   2.610   5.072   2.371  0.1880  0.2259 -0.0678
16883TIP3    H272141   2.703   5.167   2.298  0.0893 -0.4216 -1.0561
16884TIP3   OH272142   4.969   1.804  14.141  0.7338  0.0878 -0.7023
16884TIP3    H172143   5.064   1.804  14.131  0.8190 -0.5798 -0.0101
16884TIP3    H272144   4.945   1.711  14.135  0.4374 -0.0533  1.7157
16885TIP3   OH272145   4.546   1.641  16.097  0.1469 -0.4862 -0.5235
16885TIP3    H172146   4.548   1.701  16.022  1.5318 -0.9296 -0.8719
16885TIP3    H272147   4.637   1.634  16.124  0.0518 -2.5159 -0.5638
16886TIP3   OH272148   0.175   2.633  16.098  0.6317 -0.3267  0.2940
16886TIP3    H172149   0.082   2.654  16.095  0.4985 -0.6872  1.2981
16886TIP3    H272150   0.207   2.649  16.009 -0.6792 -1.5750 -0.4360
16887TIP3   OH272151   3.172   0.693   0.234 -0.6803  0.3869  0.2789
16887TIP3    H172152   3.116   0.617   0.216 -2.0332  0.6627  2.9295
16887TIP3    H272153   3.112   0.762   0.261  0.7910  1.1412  1.8463
16888TIP3   OH272154   6.529   6.480   4.660  0.4928 -0.6031  0.1366
16888TIP3    H172155   6.570   6.564   4.641 -0.2037 -0.5926 -1.5743
16888TIP3    H272156   6.602   6.420   4.674  1.0255  0.0506  0.1859
16889TIP3   OH272157   0.612   4.462  12.317 -0.2906  0.1311 -0.4858
16889TIP3    H172158   0.544   4.510  12.271 -2.0745 -1.9778 -0.2384
16889TIP3    H272159   0.564   4.406  12.379  1.2714 -3.9942 -2.6254
16890TIP3   OH272160   5.067   2.978   2.146 -0.1277  0.1869 -0.4441
16890TIP3    H172161   5.115   3.034   2.206  0.6750 -0.1112 -0.7882
16890TIP3    H272162   4.990   3.029   2.122  1.5702  2.0745 -2.3395
16891TIP3   OH272163   4.080   1.559  12.354 -0.6768  0.9150  0.2294
16891TIP3    H172164   4.086   1.470  12.388 -1.1408  0.6493 -0.3729
16891TIP3    H272165   4.144   1.562  12.283 -1.5831  0.6541 -0.6147
16892TIP3   OH272166   2.171   0.664  12.391 -0.4614  0.1513 -0.3190
16892TIP3    H172167   2.113   0.615  12.333 -0.8105 -0.0026  0.1528
16892TIP3    H272168   2.191   0.603  12.463 -0.2546  0.4282 -0.1374
16893TIP3   OH272169   3.869   5.732  12.377 -0.0420  0.3378  0.0381
16893TIP3    H172170   3.875   5.779  12.294 -0.0535  0.0641 -0.1194
16893TIP3    H272171   3.945   5.674  12.377 -0.3449 -0.0706 -0.0415
16894TIP3   OH272172   0.234   4.961   1.067  0.3745 -0.9333  0.0911
16894TIP3    H172173   0.195   5.045   1.043  1.8804  0.2457  1.4882
16894TIP3    H272174   0.270   4.927   0.985  0.8672  0.4302 -0.2928
16895TIP3   OH272175   3.606   4.676  15.807 -0.1168 -0.1430 -0.1703
16895TIP3    H172176   3.685   4.622  15.813 -0.0140 -0.0320 -0.5268
16895TIP3    H272177   3.538   4.621  15.846  0.1768 -0.1498  0.3519
16896TIP3   OH272178   2.365   3.267  12.647 -0.1906 -0.3973 -0.1876
16896TIP3    H172179   2.405   3.278  12.560 -0.6728 -0.0824 -0.3721
16896TIP3    H272180   2.429   3.304  12.708 -0.2979  0.3336 -0.5053
16897TIP3   OH272181   0.181   0.787  12.578  0.6621  0.2637 -0.3642
16897TIP3    H172182   0.186   0.698  12.543  0.1626 -1.0024  2.5027
16897TIP3    H272183   0.088   0.800  12.596  1.0570  0.1214  2.0571
16898TIP3   OH272184   5.053   4.343   1.215 -0.1706 -0.4883 -0.0770
16898TIP3    H172185   5.147   4.326   1.206  0.7309  2.3820  2.4249
16898TIP3    H272186   5.021   4.273   1.271  0.6092 -1.0422 -0.3049
16899TIP3   OH272187   0.896   6.344   0.614 -0.0296  0.1956 -0.5176
16899TIP3    H172188   0.863   6.311   0.698  1.6412 -0.8062 -0.2208
16899TIP3    H272189   0.978   6.388   0.637  0.0302  0.6285 -1.5288
16900TIP3   OH272190   2.327   0.861  14.312  0.2118  0.0215 -0.3970
16900TIP3    H172191   2.287   0.946  14.297 -1.9856 -1.2583 -2.6079
16900TIP3    H272192   2.406   0.861  14.259 -0.2707  0.4046 -1.1331
16901TIP3   OH272193   1.172   1.387   5.185 -0.3803 -0.0249  0.4047
16901TIP3    H172194   1.143   1.397   5.094 -3.1223 -1.4134  1.0428
16901TIP3    H272195   1.171   1.292   5.201 -0.4544  0.2197  2.0502
16902TIP3   OH272196   3.608   1.983   3.550 -0.3366  0.8441 -0.1004
16902TIP3    H172197   3.546   2.014   3.484 -0.4220 -0.3778 -0.6325
16902TIP3    H272198   3.590   2.037   3.627 -1.9222  0.6879 -0.3167
16903TIP3   OH272199   0.044   2.622   3.294  0.9202 -0.2709 -0.3173
16903TIP3    H172200   0.055   2.654   3.384  1.4782 -0.1274 -0.4342
16903TIP3    H272201  -0.033   2.565   3.298 -1.0177  2.1428 -0.3761
16904TIP3   OH272202   6.441   0.669   0.977 -0.5452 -0.1894 -0.1423
16904TIP3    H172203   6.383   0.745   0.969 -1.4531 -1.0362 -2.3955
16904TIP3    H272204   6.505   0.681   0.907  0.5320 -0.5327  0.7601
16905TIP3   OH272205   4.455   2.679  12.421 -0.2855  0.0423 -0.0135
16905TIP3    H172206   4.396   2.637  12.358 -0.7655 -1.0382  1.1005
16905TIP3    H272207   4.449   2.772  12.401 -1.8394 -0.1055 -0.4162
16906TIP3   OH272208   2.112   2.905   1.659  0.5330  0.0502 -0.0780
16906TIP3    H172209   2.147   2.881   1.573  1.1469 -2.4572  0.7999
16906TIP3    H272210   2.182   2.881   1.721  0.5523  2.7761  1.1028
16907TIP3   OH272211   2.658   5.091  13.365  1.0609  0.0285  0.1574
16907TIP3    H172212   2.662   5.176  13.321  2.3476 -0.5828 -1.0071
16907TIP3    H272213   2.646   5.027  13.294 -0.2636 -0.7555  1.0407
16908TIP3   OH272214   6.148   4.935   3.213  0.1529 -0.0212 -0.1737
16908TIP3    H172215   6.097   4.878   3.155 -3.1541  0.4420  2.0282
16908TIP3    H272216   6.122   4.909   3.301  0.7805  2.9089  0.9832
16909TIP3   OH272217   4.704   5.525   4.160 -0.4203  0.1467 -0.0341
16909TIP3    H172218   4.791   5.544   4.126 -0.8289 -0.9062 -1.8121
16909TIP3    H272219   4.659   5.610   4.160 -0.1203  0.3187 -1.3251
16910TIP3   OH272220   0.206   1.655   3.490 -0.0262  0.0990  0.2363
16910TIP3    H172221   0.263   1.602   3.435  1.3846  0.3668  1.3907
16910TIP3    H272222   0.156   1.592   3.542 -0.4833 -0.1295 -0.4736
16911TIP3   OH272223   4.052   6.313   3.061 -0.5878 -0.3142  0.6423
16911TIP3    H172224   3.978   6.372   3.078 -1.4251 -1.3647  0.7259
16911TIP3    H272225   4.057   6.308   2.965 -0.2419  0.2000  0.6244
16912TIP3   OH272226   5.171   2.897   5.612  0.1744 -0.0422 -0.1051
16912TIP3    H172227   5.118   2.942   5.678  1.0108 -0.0536  0.5967
16912TIP3    H272228   5.159   2.804   5.631  0.9912 -0.0329  0.5171
16913TIP3   OH272229   6.802   5.399   3.274  0.9038 -0.4243  0.3230
16913TIP3    H172230   6.739   5.364   3.211  1.8586 -0.5805 -0.5685
16913TIP3    H272231   6.861   5.326   3.292  1.5703  0.0746  0.1820
16914TIP3   OH272232   3.709   4.341   4.974 -0.2395  0.2035 -0.4749
16914TIP3    H172233   3.800   4.366   4.958 -0.0233  0.3121  0.8091
16914TIP3    H272234   3.681   4.395   5.047 -0.4065 -1.7755  1.0286
16915TIP3   OH272235   0.401   2.237   0.563 -0.3215 -0.2866 -0.3470
16915TIP3    H172236   0.424   2.302   0.630 -2.9966  2.3292 -1.7230
16915TIP3    H272237   0.325   2.191   0.600  1.3120 -2.5320  0.4468
16916TIP3   OH272238   1.736   5.656  14.570 -0.0814  0.0898  0.2542
16916TIP3    H172239   1.705   5.742  14.599  0.8978  0.2792  0.7889
16916TIP3    H272240   1.756   5.610  14.652 -0.7933 -0.7276 -0.0252
16917TIP3   OH272241   0.102   4.038   0.395  0.5737  0.4062  0.2310
16917TIP3    H172242   0.111   4.132   0.409  0.8472  0.5032 -0.5684
16917TIP3    H272243   0.038   4.030   0.325  0.4410 -0.0092  0.3966
16918TIP3   OH272244   5.280   6.033   2.177 -0.0733  0.1416  0.2616
16918TIP3    H172245   5.224   5.981   2.235 -2.8321  0.8016 -1.5956
16918TIP3    H272246   5.236   6.117   2.171 -0.3618 -0.1181 -3.2494
16919TIP3   OH272247   5.732   4.490  15.629 -0.5001  0.1831 -0.0092
16919TIP3    H172248   5.700   4.577  15.605  0.0567  0.0237 -1.4419
16919TIP3    H272249   5.711   4.435  15.553  2.3817 -0.1064 -0.7386
16920TIP3   OH272250   4.881   5.597   5.238 -0.1177 -0.2172  0.4785
16920TIP3    H172251   4.826   5.622   5.163  0.6489 -0.4129 -0.1666
16920TIP3    H272252   4.821   5.553   5.298 -0.6544 -0.4989 -0.2458
16921TIP3   OH272253   4.718   4.118  15.533 -0.3837 -0.2741 -0.3550
16921TIP3    H172254   4.744   4.029  15.510  0.1323 -0.5658  1.2432
16921TIP3    H272255   4.628   4.109  15.566  0.5165 -0.6733  2.2131
16922TIP3   OH272256   5.221   1.041   0.664  0.2557 -0.5132 -0.2032
16922TIP3    H172257   5.167   1.120   0.657  1.7342  0.6080  0.4888
16922TIP3    H272258   5.301   1.070   0.707  1.2877 -2.1958 -0.8758
16923TIP3   OH272259   5.189   0.843   4.120 -0.7157 -0.2846 -0.1635
16923TIP3    H172260   5.133   0.920   4.112 -1.6231 -0.5456  2.5698
16923TIP3    H272261   5.130   0.774   4.151  0.5083 -1.4928 -0.4380
16924TIP3   OH272262   3.046   2.816   5.198 -0.5313 -0.4031 -0.4008
16924TIP3    H172263   3.050   2.745   5.263  1.1490 -0.1456 -0.1916
16924TIP3    H272264   2.977   2.874   5.231 -1.6129 -1.6798 -0.3285
16925TIP3   OH272265   1.503   0.430   4.061  0.2721 -0.2650  0.3896
16925TIP3    H172266   1.540   0.518   4.064 -2.0986  0.8462 -0.5323
16925TIP3    H272267   1.451   0.423   4.140  1.0908 -1.1850  0.8682
16926TIP3   OH272268   2.208   2.719   2.210  0.1979 -0.0413  0.1810
16926TIP3    H172269   2.295   2.681   2.216  1.5641  2.8877  1.1337
16926TIP3    H272270   2.185   2.742   2.300 -0.7355  0.8812 -0.2608
16927TIP3   OH272271   1.951   5.872   1.865 -0.3298 -0.0925 -0.3261
16927TIP3    H172272   1.990   5.955   1.893  0.3499 -1.2277  2.4398
16927TIP3    H272273   1.863   5.896   1.836  0.3812  1.7680 -1.1577
16928TIP3   OH272274   1.964   4.992  13.726  0.1939 -0.1119 -0.3514
16928TIP3    H172275   1.975   5.032  13.813  0.5854  0.9225 -0.8531
16928TIP3    H272276   1.886   5.034  13.690 -1.0855 -1.9050  0.2085
16929TIP3   OH272277   0.145   0.776  10.727  0.7137  0.6721 -0.0763
16929TIP3    H172278   0.126   0.866  10.702 -1.3199 -0.2539 -2.2621
16929TIP3    H272279   0.100   0.763  10.810  0.5329  1.4740 -0.0424
16930TIP3   OH272280   0.607   4.148  14.908  0.1180 -0.1507 -0.2727
16930TIP3    H172281   0.667   4.074  14.920 -0.7621 -0.7464  0.6727
16930TIP3    H272282   0.540   4.114  14.849  0.5641  0.4390 -1.1419
16931TIP3   OH272283   1.136   6.652   3.475 -0.2524 -0.1612 -0.1538
16931TIP3    H172284   1.078   6.595   3.424  0.7405 -0.6313 -0.7949
16931TIP3    H272285   1.177   6.709   3.411  0.3531 -0.1633  0.2190
16932TIP3   OH272286   1.189   3.606   0.853 -0.0060  0.7872 -0.4433
16932TIP3    H172287   1.157   3.556   0.928  0.6658 -0.3942 -0.9158
16932TIP3    H272288   1.157   3.557   0.776  1.2062  0.6929 -0.9143
16933TIP3   OH272289   1.544   3.292  12.982  0.4494 -0.3310  0.2687
16933TIP3    H172290   1.547   3.385  12.959 -0.6693 -0.0765  1.0646
16933TIP3    H272291   1.635   3.266  12.994  0.7485  0.7560  0.3809
16934TIP3   OH272292   0.488   1.433  12.951 -0.0030  0.1312 -0.6715
16934TIP3    H172293   0.567   1.402  12.906 -0.2377  0.3432 -1.2416
16934TIP3    H272294   0.445   1.353  12.981  0.4495  0.0168 -0.3148
16935TIP3   OH272295   2.525   5.837   0.137  0.6631 -0.7908 -0.4055
16935TIP3    H172296   2.521   5.804   0.047  0.0632 -2.8699  0.3122
16935TIP3    H272297   2.615   5.823   0.163  0.9927  0.3875 -0.8493
16936TIP3   OH272298   5.447   4.330   5.259 -0.3086 -0.1870 -0.2823
16936TIP3    H172299   5.519   4.294   5.311 -0.1604 -0.4287 -0.6512
16936TIP3    H272300   5.392   4.376   5.323 -0.3273 -0.7943  0.1429
16937TIP3   OH272301   0.710   3.610   2.379  0.0124 -0.5131 -0.2247
16937TIP3    H172302   0.681   3.656   2.300  0.9353  0.2038 -0.1604
16937TIP3    H272303   0.786   3.660   2.410 -0.6928 -0.4296  1.4598
16938TIP3   OH272304   1.090   5.925  11.845  0.6581 -0.6053  0.3694
16938TIP3    H172305   1.047   5.892  11.923  0.5593  0.0741  0.6082
16938TIP3    H272306   1.041   5.887  11.772  1.0596 -1.6477  0.6223
16939TIP3   OH272307   2.275   4.244   3.643  0.3661 -0.7094  0.0049
16939TIP3    H172308   2.211   4.295   3.594  0.3176  0.2153  0.9968
16939TIP3    H272309   2.233   4.225   3.726  1.1066 -0.7061  0.3921
16940TIP3   OH272310   5.784   2.493  13.703 -0.1489 -0.7085  0.4620
16940TIP3    H172311   5.742   2.453  13.778  1.7278 -2.3867  0.7036
16940TIP3    H272312   5.870   2.522  13.736 -0.7808  2.1544 -0.1089
16941TIP3   OH272313   4.049   3.441  14.438  0.0076  0.2123  0.7190
16941TIP3    H172314   4.119   3.505  14.426 -0.8362  1.1213  0.5030
16941TIP3    H272315   4.026   3.414  14.349 -0.9424  1.0746  0.6873
16942TIP3   OH272316   2.838   5.615   5.248 -0.3030  0.0455  0.7671
16942TIP3    H172317   2.777   5.606   5.175  1.0967  2.2736 -0.8253
16942TIP3    H272318   2.794   5.573   5.322 -1.0913 -3.8828 -1.6467
16943TIP3   OH272319   5.941   5.664   4.203 -0.2086  0.0216  0.0098
16943TIP3    H172320   5.929   5.602   4.132 -0.3921  2.6918 -2.4486
16943TIP3    H272321   5.855   5.704   4.215  0.0237  0.2226  1.1889
16944TIP3   OH272322   1.592   4.985  16.569 -0.0923 -0.1493  0.6858
16944TIP3    H172323   1.619   4.948  16.485 -2.6932 -0.4197 -0.1233
16944TIP3    H272324   1.671   4.983  16.622  1.3041 -1.2862 -1.2895
16945TIP3   OH272325   4.845   0.962  14.710  0.0980  0.2979  0.1568
16945TIP3    H172326   4.810   0.934  14.625 -0.0441  0.1256  0.2699
16945TIP3    H272327   4.829   0.887  14.768  2.3566 -0.5510 -0.2262
16946TIP3   OH272328   1.511   3.525   3.431  0.4414 -0.2441 -0.4461
16946TIP3    H172329   1.456   3.580   3.375  1.4745 -0.1330 -1.3659
16946TIP3    H272330   1.575   3.487   3.372 -0.1586 -2.3621  0.1768
16947TIP3   OH272331   6.286   3.549   4.505  0.4348  0.3098  0.4023
16947TIP3    H172332   6.197   3.583   4.504 -0.2298 -1.3271 -0.1083
16947TIP3    H272333   6.342   3.626   4.505 -0.9771  1.3646  0.0056
16948TIP3   OH272334   0.497   2.384  11.730  0.6215  0.2621 -0.2247
16948TIP3    H172335   0.502   2.406  11.823 -1.0529 -1.5613  0.3741
16948TIP3    H272336   0.585   2.352  11.708  1.2571  1.4544  0.4876
16949TIP3   OH272337   6.178   5.663  16.776 -0.7572 -0.1771  0.1296
16949TIP3    H172338   6.093   5.626  16.799 -0.5613 -1.1905 -0.6588
16949TIP3    H272339   6.176   5.753  16.809 -1.4380 -0.7434  1.6948
16950TIP3   OH272340   6.748   2.209   2.731  0.0252  0.6108  0.7686
16950TIP3    H172341   6.708   2.165   2.806  0.8701 -0.2071  0.7424
16950TIP3    H272342   6.681   2.205   2.663 -0.6141  1.0467  1.3455
16951TIP3   OH272343   6.396   3.747   2.126  0.2593 -0.1542 -0.0598
16951TIP3    H172344   6.465   3.802   2.089 -0.6764  1.3570  0.3293
16951TIP3    H272345   6.396   3.769   2.219 -1.3878  0.6750 -0.2058
16952TIP3   OH272346   6.693   3.301   3.619  0.3740  0.9028  0.1034
16952TIP3    H172347   6.741   3.374   3.580  0.3978  1.4918  1.1826
16952TIP3    H272348   6.603   3.334   3.628  0.1426  0.4112 -0.3770
16953TIP3   OH272349   6.353   2.037   4.115  0.0338  0.1905 -0.2692
16953TIP3    H172350   6.429   2.086   4.083 -0.3849  1.1550  0.1625
16953TIP3    H272351   6.277   2.086   4.082 -0.4221  1.2682  2.1225
16954TIP3   OH272352   3.278   1.599  13.736 -0.2319  0.2714  0.0159
16954TIP3    H172353   3.225   1.558  13.804 -1.0448  1.2396 -0.0115
16954TIP3    H272354   3.229   1.585  13.655 -0.8661  1.8267  0.0982
16955TIP3   OH272355   4.506   5.098  12.695 -0.6383  0.6238 -0.4735
16955TIP3    H172356   4.600   5.086  12.681 -0.9621 -0.4264 -2.0212
16955TIP3    H272357   4.498   5.118  12.788  1.0505  0.1351 -0.1842
16956TIP3   OH272358   4.743   4.154  13.518  0.5064 -0.5416  0.5452
16956TIP3    H172359   4.805   4.090  13.555  0.1069 -0.7220  0.9094
16956TIP3    H272360   4.757   4.233  13.570 -1.1088 -1.2295  2.1628
16957TIP3   OH272361   2.770   4.626  12.365 -0.1262  0.1561  0.2450
16957TIP3    H172362   2.751   4.643  12.458  0.0789 -1.5789  0.6249
16957TIP3    H272363   2.766   4.531  12.357 -0.4536  0.3013 -1.6121
16958TIP3   OH272364   3.683   3.219  14.507 -0.0246  0.4196  0.6516
16958TIP3    H172365   3.725   3.161  14.444  0.1586  0.3672  0.8218
16958TIP3    H272366   3.590   3.216  14.484 -0.2926 -1.3115  1.7258
16959TIP3   OH272367   4.286   5.100  11.677 -0.1425 -0.3824 -0.5569
16959TIP3    H172368   4.299   5.192  11.656  1.4334 -0.7051 -1.0740
16959TIP3    H272369   4.257   5.061  11.595 -2.5991 -0.0692  0.0765
16960TIP3   OH272370   0.728   6.277   1.717 -0.0997  0.2303  0.6208
16960TIP3    H172371   0.815   6.290   1.754 -0.5231 -0.9020  2.1317
16960TIP3    H272372   0.727   6.184   1.692 -0.4101  0.5724 -0.7184
16961TIP3   OH272373   3.892   3.585   2.200  0.2455 -0.0504 -0.4106
16961TIP3    H172374   3.881   3.673   2.166  0.6635  0.5921  1.0411
16961TIP3    H272375   3.952   3.543   2.138 -1.7674 -0.1316 -2.4221
16962TIP3   OH272376   0.573   4.219   2.639 -0.2648 -0.4640  0.2879
16962TIP3    H172377   0.496   4.187   2.686 -0.4711  0.0829  0.3268
16962TIP3    H272378   0.642   4.156   2.661 -0.0455  0.4339  2.2940
16963TIP3   OH272379   6.741   4.647   1.689  0.1781 -0.3984 -0.8902
16963TIP3    H172380   6.825   4.604   1.682  1.2008  0.6998  2.5841
16963TIP3    H272381   6.676   4.577   1.679  1.6559 -2.1066  0.8469
16964TIP3   OH272382   1.642   1.100  11.645 -0.2067 -0.7897  0.5098
16964TIP3    H172383   1.629   1.104  11.550 -1.7694 -2.8987  0.5491
16964TIP3    H272384   1.707   1.167  11.663 -1.4993  1.2637 -1.7383
16965TIP3   OH272385   1.835   5.947  13.678  0.4540  0.4858  0.5947
16965TIP3    H172386   1.749   5.949  13.636  0.2618  0.8236  0.9959
16965TIP3    H272387   1.828   6.011  13.749  0.9318  0.2745  0.8336
16966TIP3   OH272388   0.981   3.805   4.047 -0.4175 -0.0666  0.2134
16966TIP3    H172389   1.004   3.801   4.140 -1.7563 -0.7544  0.5315
16966TIP3    H272390   0.989   3.714   4.016  0.4729  0.2248 -0.4803
16967TIP3   OH272391   5.867   5.789   3.143 -0.1697  0.2503 -0.1636
16967TIP3    H172392   5.947   5.798   3.195 -0.1442 -1.1179  0.0485
16967TIP3    H272393   5.869   5.700   3.108 -1.4410  0.2912 -0.4200
16968TIP3   OH272394   1.774   0.670   4.885 -0.1996  0.2421 -0.1574
16968TIP3    H172395   1.808   0.605   4.947 -0.0489 -0.8806 -1.3569
16968TIP3    H272396   1.838   0.741   4.887  0.2317 -0.1510  0.3671
16969TIP3   OH272397   2.052   4.813   1.085 -0.2167 -0.4548 -0.1077
16969TIP3    H172398   2.015   4.901   1.092 -0.2511 -0.5032  0.3674
16969TIP3    H272399   2.046   4.791   0.992 -1.7690 -0.6308  0.0099
16970TIP3   OH272400   1.709   5.372  11.278  0.4153  0.8001  0.2322
16970TIP3    H172401   1.723   5.424  11.357 -1.3677  1.5404  0.1043
16970TIP3    H272402   1.702   5.436  11.208 -2.8927  0.6398  0.2191
16971TIP3   OH272403   5.907   6.725   0.069  0.8423  0.0410 -0.0512
16971TIP3    H172404   5.867   6.808   0.096  0.6323  0.1289 -0.6262
16971TIP3    H272405   5.906   6.728  -0.026  1.5195 -0.2946 -0.0779
16972TIP3   OH272406   4.491   0.640   2.714  0.2886  0.4967 -0.0492
16972TIP3    H172407   4.492   0.589   2.795 -0.2851  0.2984 -0.1636
16972TIP3    H272408   4.550   0.593   2.655 -0.7003 -0.3875 -0.3606
16973TIP3   OH272409   5.548   3.722  13.741  0.1137 -0.5272  0.4490
16973TIP3    H172410   5.639   3.696  13.726  0.3160 -1.5002  2.9045
16973TIP3    H272411   5.554   3.795  13.802 -0.7423  0.0444 -0.1429
16974TIP3   OH272412   0.611   6.141  12.925 -0.3359 -0.2752  0.2634
16974TIP3    H172413   0.522   6.111  12.941 -0.0787 -0.8586  0.6599
16974TIP3    H272414   0.661   6.061  12.912 -0.0407  0.0870 -0.9097
16975TIP3   OH272415   4.889   5.361   1.697  0.0213  0.2171  0.1692
16975TIP3    H172416   4.858   5.396   1.781  0.0678 -0.7062  0.5869
16975TIP3    H272417   4.877   5.267   1.705  2.4336 -0.1431  0.1522
16976TIP3   OH272418   1.197   3.019  12.573 -0.3407  0.4071  0.3959
16976TIP3    H172419   1.217   3.050  12.662  0.2151 -1.6447  1.0583
16976TIP3    H272420   1.106   3.046  12.558 -0.3453  1.0487  1.4773
16977TIP3   OH272421   5.395   4.130   6.454  0.4927  0.3369 -0.9439
16977TIP3    H172422   5.449   4.060   6.419  1.5017  0.3573  0.5025
16977TIP3    H272423   5.355   4.092   6.533  0.6352  1.2083 -0.4402
16978TIP3   OH272424   4.040   1.548  12.970  0.2343  0.1141 -0.2354
16978TIP3    H172425   3.953   1.583  12.951 -0.2384 -0.7705  0.2651
16978TIP3    H272426   4.034   1.455  12.949  1.2416  0.1632 -0.7735
16979TIP3   OH272427   5.267   1.122  15.980 -0.0698 -0.5442 -0.0372
16979TIP3    H172428   5.321   1.124  15.901 -0.7465 -2.7489 -0.6301
16979TIP3    H272429   5.325   1.153  16.050  0.9594  0.1317 -1.1478
16980TIP3   OH272430   6.548   0.023  11.597  0.4718  0.1712 -0.1218
16980TIP3    H172431   6.503   0.084  11.539  0.2129 -0.1335 -0.2440
16980TIP3    H272432   6.639   0.051  11.595  0.8074 -0.8956 -2.0519
16981TIP3   OH272433   0.752   1.076  12.588  0.3427  0.1073  0.5262
16981TIP3    H172434   0.756   1.009  12.656 -2.1535  1.4265  2.1350
16981TIP3    H272435   0.696   1.038  12.521 -0.7595  0.3765  1.2638
16982TIP3   OH272436   3.735   3.248   2.089  0.3968 -0.1359 -0.3321
16982TIP3    H172437   3.690   3.304   2.152 -1.3059 -0.9271 -0.7764
16982TIP3    H272438   3.664   3.204   2.041  1.6565 -1.0152 -1.4707
16983TIP3   OH272439   0.500   5.899  11.099 -0.1484 -0.0568  0.3130
16983TIP3    H172440   0.466   5.942  11.178 -0.2112 -0.4371  0.4946
16983TIP3    H272441   0.497   5.806  11.119  3.3789 -0.0664  1.3406
16984TIP3   OH272442   6.130   5.668   5.000 -0.9168  0.1267 -0.3508
16984TIP3    H172443   6.118   5.575   5.020 -1.5815  0.4466  0.8855
16984TIP3    H272444   6.059   5.689   4.940 -1.0306 -0.0703 -0.2869
16985TIP3   OH272445   2.642   5.100  16.726  0.2825 -0.2468  0.8573
16985TIP3    H172446   2.708   5.082  16.794  0.6595 -1.0143  0.2977
16985TIP3    H272447   2.568   5.044  16.749 -0.1450  0.5261  1.4151
16986TIP3   OH272448   3.943   1.790   1.701  0.0835 -0.3918 -0.0836
16986TIP3    H172449   3.975   1.875   1.731  2.1719 -1.8262  2.0361
16986TIP3    H272450   3.869   1.812   1.644 -0.5243  2.7730  1.6746
16987TIP3   OH272451   1.341   5.092   5.735  0.0543 -0.4276  0.0689
16987TIP3    H172452   1.319   5.167   5.679  0.7823  1.0164  1.6452
16987TIP3    H272453   1.397   5.128   5.803 -2.3689 -1.6234  2.9439
16988TIP3   OH272454   0.091   6.140   3.460  0.3055  0.3154 -0.4005
16988TIP3    H172455   0.112   6.229   3.432 -1.6396  0.9208 -0.0921
16988TIP3    H272456  -0.002   6.142   3.480 -0.2977 -2.3385 -2.3889
16989TIP3   OH272457   2.761   2.761  11.434 -0.0960 -0.0162 -0.4032
16989TIP3    H172458   2.796   2.850  11.442  1.0832 -0.4143 -0.8195
16989TIP3    H272459   2.689   2.769  11.371 -0.3283  0.7258 -0.0473
16990TIP3   OH272460   0.637   1.556  11.443 -0.1308  0.6574 -0.7132
16990TIP3    H172461   0.554   1.556  11.491 -0.4685  1.0049 -1.2825
16990TIP3    H272462   0.646   1.646  11.411 -1.1592 -0.0867 -3.3877
16991TIP3   OH272463   1.654   6.686   0.552  0.4719  0.3024  0.6381
16991TIP3    H172464   1.698   6.659   0.633  2.9438  0.3276 -0.6078
16991TIP3    H272465   1.699   6.638   0.483 -2.7150 -1.0908 -0.6786
16992TIP3   OH272466   0.652   0.931  15.091  0.1711  0.4402  0.1348
16992TIP3    H172467   0.564   0.918  15.056  1.0937  1.1575 -2.6897
16992TIP3    H272468   0.647   1.012  15.141 -0.4923  1.2052 -1.1405
16993TIP3   OH272469   6.429   6.054   1.168  0.0653 -0.1482  0.1461
16993TIP3    H172470   6.381   6.069   1.087 -0.5179  1.5409  0.7487
16993TIP3    H272471   6.399   5.968   1.198 -3.5095  1.2255  1.0208
16994TIP3   OH272472   3.319   6.671  14.835 -0.1814 -0.1298  0.5962
16994TIP3    H172473   3.352   6.713  14.914 -2.1407 -0.8402  1.8615
16994TIP3    H272474   3.251   6.611  14.866 -0.2309 -1.2790 -1.5258
16995TIP3   OH272475   6.114   5.395  12.331 -0.1478  0.2407 -0.6766
16995TIP3    H172476   6.152   5.308  12.318 -0.8533 -0.1596 -0.0708
16995TIP3    H272477   6.077   5.393  12.419 -0.3153  1.1022 -0.7170
16996TIP3   OH272478   0.900   4.880   4.488 -0.5300  0.2457 -0.1165
16996TIP3    H172479   0.971   4.872   4.425 -1.6044 -2.0242 -1.1427
16996TIP3    H272480   0.933   4.836   4.567 -0.6622 -0.5425 -0.4925
16997TIP3   OH272481   2.307   6.353  16.596 -0.3053  0.4547 -0.7992
16997TIP3    H172482   2.391   6.393  16.573 -0.1174  1.3667  1.2150
16997TIP3    H272483   2.250   6.370  16.521  0.7049  1.6837 -1.3159
16998TIP3   OH272484   3.202   1.137   4.552 -0.6303  0.6591 -0.2479
16998TIP3    H172485   3.148   1.215   4.538 -1.9660 -0.5301 -1.9978
16998TIP3    H272486   3.290   1.172   4.570 -1.0064  2.5648 -1.7953
16999TIP3   OH272487   1.154   2.493  16.678 -0.0632  0.3959  0.1846
16999TIP3    H172488   1.175   2.572  16.728  0.0015  0.5424 -0.0711
16999TIP3    H272489   1.179   2.514  16.588  2.4631 -0.8222  0.5192
17000TIP3   OH272490   6.727   1.011   0.289 -0.1249 -0.1321 -0.1570
17000TIP3    H172491   6.802   0.965   0.249  0.3148  0.6594 -0.2727
17000TIP3    H272492   6.669   0.942   0.319  0.1767 -0.7627 -0.9828
17001TIP3   OH272493   2.281   6.418   1.985  0.0197 -0.1612 -0.0042
17001TIP3    H172494   2.305   6.330   2.014  0.4601  0.5825  2.0800
17001TIP3    H272495   2.203   6.440   2.035  0.6014  1.0639  0.4123
17002TIP3   OH272496   4.148   4.371  13.963  0.3970 -0.8490 -0.5665
17002TIP3    H172497   4.065   4.352  13.919 -1.2009 -1.1482  2.3075
17002TIP3    H272498   4.179   4.285  13.992  0.2547 -0.4773  0.7309
17003TIP3   OH272499   2.554   5.482   4.408  0.2487  0.2460 -1.3250
17003TIP3    H172500   2.477   5.529   4.440 -0.4130 -1.4789 -0.2673
17003TIP3    H272501   2.519   5.406   4.362  1.2887 -0.7457 -0.5438
17004TIP3   OH272502   3.158   5.288   0.530  0.9941 -0.4480  0.0398
17004TIP3    H172503   3.066   5.309   0.547  0.8362 -1.4731  0.5541
17004TIP3    H272504   3.163   5.280   0.435  0.7316  0.3816 -0.0501
17005TIP3   OH272505   2.159   4.121   4.122 -0.0498 -0.3366  0.2574
17005TIP3    H172506   2.176   4.168   4.040 -1.4085 -0.0027  0.1373
17005TIP3    H272507   2.172   4.029   4.100  1.1353 -0.1467  0.0940
17006TIP3   OH272508   3.855   3.145   3.713  0.8629 -0.0503 -0.5921
17006TIP3    H172509   3.816   3.184   3.790  0.2630 -1.8265  0.0601
17006TIP3    H272510   3.871   3.218   3.654  0.4157  1.2190  0.8082
17007TIP3   OH272511   5.303   0.070   2.115  0.0606 -0.3011 -0.0021
17007TIP3    H172512   5.293   0.139   2.179  0.6702  0.3492 -0.5964
17007TIP3    H272513   5.378   0.019   2.144 -0.6252 -0.9710  0.6497
17008TIP3   OH272514   3.863   5.411  13.492 -0.0651 -0.2805  0.6568
17008TIP3    H172515   3.890   5.371  13.409  0.1797 -3.0784  1.9764
17008TIP3    H272516   3.905   5.497  13.492 -2.0125  0.8837 -3.1207
17009TIP3   OH272517   0.841   1.194   4.989  0.4147 -0.1401  0.1812
17009TIP3    H172518   0.814   1.175   5.079  1.4834 -1.3225  0.2769
17009TIP3    H272519   0.905   1.266   4.998 -0.1144  0.3266  0.2720
17010TIP3   OH272520   4.676   5.317  13.904  0.0359 -0.5849 -0.1227
17010TIP3    H172521   4.770   5.333  13.914 -0.0437 -0.1867 -0.0230
17010TIP3    H272522   4.667   5.279  13.817  0.2781 -0.5352 -0.1705
17011TIP3   OH272523   3.287   4.912   0.987 -0.5888  0.7543  0.2682
17011TIP3    H172524   3.341   4.976   1.033  0.6163  1.2661 -1.7704
17011TIP3    H272525   3.279   4.945   0.898 -0.1227 -1.7768 -0.8154
17012TIP3   OH272526   0.710   5.698  15.479 -0.3192 -0.0726 -0.0097
17012TIP3    H172527   0.711   5.779  15.427  0.8184 -1.2063 -1.8717
17012TIP3    H272528   0.649   5.641  15.433  0.0180 -0.7976  0.4248
17013TIP3   OH272529   1.653   2.146  15.393  0.0712 -0.4485 -0.7043
17013TIP3    H172530   1.631   2.238  15.374  0.4478 -0.2187 -0.0770
17013TIP3    H272531   1.693   2.114  15.312  0.1023 -0.0034 -0.8706
17014TIP3   OH272532   1.751   4.488  12.530 -0.2394 -0.0747 -0.0176
17014TIP3    H172533   1.797   4.449  12.456  0.9100  0.2776  0.4910
17014TIP3    H272534   1.664   4.509  12.496  0.1591 -0.2355 -1.1676
17015TIP3   OH272535   4.172   2.769  16.360 -0.2769 -0.0103 -0.3692
17015TIP3    H172536   4.228   2.774  16.438 -0.1373  0.9457 -0.5203
17015TIP3    H272537   4.165   2.675  16.342 -0.1920 -0.2398  0.7041
17016TIP3   OH272538   5.263   2.082   0.467  0.3144 -0.0078  0.3766
17016TIP3    H172539   5.214   2.155   0.431  0.5725 -0.2871 -0.5716
17016TIP3    H272540   5.199   2.010   0.471  0.2374  0.0731  0.6770
17017TIP3   OH272541   5.749   3.506  13.614 -0.7160  0.1286 -0.2219
17017TIP3    H172542   5.833   3.510  13.659  0.1274  0.9454 -1.7759
17017TIP3    H272543   5.735   3.413  13.597  0.0557  0.0191 -0.2796
17018TIP3   OH272544   2.159   4.889  11.984  0.1149 -0.2508  0.2957
17018TIP3    H172545   2.234   4.871  11.928  0.9419 -0.4038  1.4030
17018TIP3    H272546   2.179   4.973  12.025 -0.4755 -0.1379  0.3645
17019TIP3   OH272547   1.190   4.627   6.005 -0.0604 -0.0241  0.1066
17019TIP3    H172548   1.107   4.581   6.017  0.2847 -1.2942 -1.9204
17019TIP3    H272549   1.257   4.562   6.028  0.4032 -0.1316 -1.4104
17020TIP3   OH272550   0.558   1.360  10.822  0.0014 -0.0484 -0.0943
17020TIP3    H172551   0.648   1.385  10.842 -0.6014  1.5632  0.7605
17020TIP3    H272552   0.560   1.339  10.728  0.4712  4.2375 -1.2757
17021TIP3   OH272553   1.920   2.800  11.690 -0.5072 -0.6771  0.0830
17021TIP3    H172554   1.920   2.783  11.596  2.1051  2.8945 -0.7797
17021TIP3    H272555   1.994   2.750  11.724  0.3654  0.2648 -0.3766
17022TIP3   OH272556   0.974   1.836  12.585  0.0256  0.3808 -0.0760
17022TIP3    H172557   1.024   1.775  12.531  0.9909 -1.6173  2.8371
17022TIP3    H272558   0.888   1.795  12.594  0.4298 -0.1982  1.2740
17023TIP3   OH272559   3.278   3.917   2.017  0.4575 -0.6746  0.5862
17023TIP3    H172560   3.266   3.889   1.926  0.0025  0.2160  0.3701
17023TIP3    H272561   3.364   3.959   2.018  0.3374 -0.4243  0.4989
17024TIP3   OH272562   0.797   0.104   3.687 -0.2542 -0.3342 -0.5825
17024TIP3    H172563   0.812   0.028   3.631  0.8585 -0.1488 -0.5465
17024TIP3    H272564   0.762   0.170   3.628  0.2514 -0.3698 -0.9300
17025TIP3   OH272565   4.187   4.243  11.746  0.2775 -0.1803 -0.2953
17025TIP3    H172566   4.137   4.165  11.723 -2.8269  1.3665  0.6129
17025TIP3    H272567   4.190   4.242  11.842 -0.2297  1.0271 -0.2524
17026TIP3   OH272568   4.231   5.373  16.444  0.0246 -0.4936 -0.5367
17026TIP3    H172569   4.318   5.407  16.426 -0.6568  0.8186 -1.4904
17026TIP3    H272570   4.245   5.280  16.461  1.7383 -0.0901  0.5240
17027TIP3   OH272571   4.044   5.734   2.680  0.0235  0.0274  0.2128
17027TIP3    H172572   4.134   5.726   2.712  0.1820  0.8806  0.0103
17027TIP3    H272573   3.995   5.769   2.754 -0.1383 -0.3940  0.3079
17028TIP3   OH272574   6.818   2.060  13.666  0.6012 -1.0353 -0.1313
17028TIP3    H172575   6.894   2.115  13.646 -0.8660  0.2442 -2.7333
17028TIP3    H272576   6.820   1.991  13.599  0.3488 -1.9541  0.7911
17029TIP3   OH272577   0.299   3.995  13.799 -0.4727  0.2742  0.5213
17029TIP3    H172578   0.377   3.961  13.842  0.6637  1.2038 -0.7361
17029TIP3    H272579   0.246   4.032  13.871  0.9283  0.9519  1.2447
17030TIP3   OH272580   1.207   4.959  11.459 -0.2112 -0.1989 -0.0682
17030TIP3    H172581   1.220   5.018  11.385  1.7156  1.0652  1.1842
17030TIP3    H272582   1.153   5.008  11.521  0.1250 -0.3337  0.3386
17031TIP3   OH272583   3.353   2.143  11.354 -0.5419  0.4800  0.1884
17031TIP3    H172584   3.259   2.156  11.364 -0.4976 -0.3391  2.1656
17031TIP3    H272585   3.360   2.058  11.310 -0.7038  1.4308 -1.7618
17032TIP3   OH272586   5.492   2.683  10.708  0.1826 -0.3891 -0.5539
17032TIP3    H172587   5.556   2.712  10.772 -1.5644  0.5517  0.8695
17032TIP3    H272588   5.466   2.596  10.736 -1.1227  0.3048  0.5590
17033TIP3   OH272589   5.517   3.759   5.309  0.1670 -0.1983 -0.2864
17033TIP3    H172590   5.548   3.820   5.243  0.5119  0.1213  0.1591
17033TIP3    H272591   5.495   3.679   5.261 -0.3904  0.3121 -0.8880
17034TIP3   OH272592   0.889   2.663   1.000  0.2491  0.3181  0.0819
17034TIP3    H172593   0.935   2.682   1.081  0.1922  1.1938 -0.0766
17034TIP3    H272594   0.854   2.748   0.972 -1.1634 -0.2552  0.0224
17035TIP3   OH272595   5.997   5.652   5.752  0.1636 -0.3296 -0.5364
17035TIP3    H172596   6.090   5.650   5.730  0.3505  0.8100  0.0480
17035TIP3    H272597   5.991   5.602   5.834  0.0465 -1.4468 -1.2046
17036TIP3   OH272598   4.040   3.180   6.460 -0.1562 -0.3920  0.2896
17036TIP3    H172599   4.103   3.248   6.435  0.7991 -1.7101 -1.0368
17036TIP3    H272600   3.972   3.185   6.393 -0.5325 -0.1972  0.6796
17037TIP3   OH272601   4.056   3.658  13.624  0.0997  0.3325  0.1951
17037TIP3    H172602   4.147   3.629  13.629  0.4997  1.0626 -2.0719
17037TIP3    H272603   4.050   3.729  13.688  1.5860  1.3343 -0.7055
17038TIP3   OH272604   1.759   4.400   1.560  0.0360  0.4187 -0.1111
17038TIP3    H172605   1.737   4.359   1.643  0.3548 -0.8119 -0.6178
17038TIP3    H272606   1.835   4.454   1.580 -0.1611  0.4845  0.4859
17039TIP3   OH272607   0.429   1.070  14.921  0.2289 -0.1116 -0.7758
17039TIP3    H172608   0.341   1.072  14.959  0.4737  0.4508 -0.2217
17039TIP3    H272609   0.419   1.021  14.839 -0.7179  0.4369 -1.0026
17040TIP3   OH272610   4.148   4.680  16.233  0.2885  0.2830  0.0586
17040TIP3    H172611   4.195   4.638  16.161  1.6970  2.2255 -0.2569
17040TIP3    H272612   4.202   4.662  16.310  0.7081  1.1418 -0.0195
17041TIP3   OH272613   2.165   5.452  12.112  0.0819  0.6614 -0.0851
17041TIP3    H172614   2.185   5.495  12.029  0.6914 -0.4083 -0.5185
17041TIP3    H272615   2.093   5.503  12.149 -1.7593 -0.1094 -2.3309
17042TIP3   OH272616   6.565   1.886   3.662  0.4478  0.2596 -0.0699
17042TIP3    H172617   6.622   1.820   3.701 -0.1253 -2.2489 -3.0260
17042TIP3    H272618   6.481   1.874   3.707  0.1959 -1.5211 -0.9201
17043TIP3   OH272619   0.905   6.768  11.699 -0.1253 -0.6799 -0.2063
17043TIP3    H172620   0.888   6.862  11.704 -0.1613 -0.7026  0.1755
17043TIP3    H272621   0.975   6.759  11.635  0.5152 -0.3075  0.4299
17044TIP3   OH272622   3.001   2.831   2.355  0.9442 -0.1835 -0.2465
17044TIP3    H172623   2.972   2.745   2.325  0.1329 -0.6245  1.6355
17044TIP3    H272624   2.933   2.892   2.326 -1.6190 -1.0721  3.3126
17045TIP3   OH272625   2.704   6.118   6.693  0.6800  0.0670  0.4067
17045TIP3    H172626   2.737   6.201   6.727  1.0101  0.1809 -0.1910
17045TIP3    H272627   2.610   6.132   6.682  0.7128  0.3100  0.4423
17046TIP3   OH272628   5.844   2.231  14.961 -0.2200 -0.1627 -0.1715
17046TIP3    H172629   5.929   2.201  14.929  0.7897  3.5054 -1.4525
17046TIP3    H272630   5.855   2.242  15.055  1.7530  2.6281 -0.5934
17047TIP3   OH272631   4.628   5.681   2.449  0.0480 -0.0416 -0.1913
17047TIP3    H172632   4.562   5.612   2.440 -0.3730  0.2878  0.3540
17047TIP3    H272633   4.669   5.685   2.362 -1.6135  0.7219 -0.9831
17048TIP3   OH272634   6.757   1.621  16.860 -0.5546 -0.2742  0.8885
17048TIP3    H172635   6.846   1.653  16.846 -1.4631  3.4045  2.1405
17048TIP3    H272636   6.761   1.577  16.945  0.2752 -1.3955  0.2992
17049TIP3   OH272637   3.096   6.075  12.633 -0.1311 -0.2648 -0.1381
17049TIP3    H172638   3.139   6.155  12.604  1.1408 -0.1820  1.7610
17049TIP3    H272639   3.027   6.104  12.693  0.6607 -0.5492  0.9573
17050TIP3   OH272640   0.092   3.329   1.185 -0.1515 -0.1602  0.0085
17050TIP3    H172641   0.150   3.256   1.165 -0.8745 -0.3865 -1.4263
17050TIP3    H272642   0.078   3.324   1.279 -1.1292 -2.6145 -0.2016
17051TIP3   OH272643   4.712   0.442   2.888  0.0489  0.4293 -1.0050
17051TIP3    H172644   4.692   0.351   2.908  0.4234  0.2193 -1.5630
17051TIP3    H272645   4.731   0.443   2.794  1.2288  0.8560 -0.7829
17052TIP3   OH272646   2.971   5.189  16.795  0.0990 -0.0049 -0.2169
17052TIP3    H172647   2.937   5.268  16.838  0.0250  0.0644 -0.4017
17052TIP3    H272648   2.955   5.204  16.702 -0.3547 -0.4464 -0.2156
17053TIP3   OH272649   1.985   4.172  14.180 -0.1488 -0.6180  0.5433
17053TIP3    H172650   1.936   4.206  14.255  0.2733 -3.0123  2.0340
17053TIP3    H272651   2.076   4.193  14.200 -0.2604  1.6424 -1.0077
17054TIP3   OH272652   3.586   5.112   2.330  0.3800 -0.4218 -0.0300
17054TIP3    H172653   3.582   5.065   2.247  0.9919 -3.6292  1.5983
17054TIP3    H272654   3.514   5.077   2.382  1.4165 -0.2639  1.6091
17055TIP3   OH272655   6.205   5.338   5.658  0.2782 -0.4137 -0.3112
17055TIP3    H172656   6.279   5.372   5.607  0.8654 -1.3594 -0.1131
17055TIP3    H272657   6.239   5.331   5.747  0.1293 -1.3553 -0.3169
17056TIP3   OH272658   1.523   3.417   2.435  0.1780 -0.4562  0.7180
17056TIP3    H172659   1.554   3.356   2.368 -1.1279  0.9521 -1.2949
17056TIP3    H272660   1.436   3.386   2.457  1.0943 -1.6995  2.8817
17057TIP3   OH272661   2.978   3.085  14.723 -0.2318 -0.0001 -0.5444
17057TIP3    H172662   2.914   3.021  14.757 -1.3809  0.5824 -1.5283
17057TIP3    H272663   2.969   3.078  14.628  0.8721  0.4231 -0.6862
17058TIP3   OH272664   6.803   5.114  13.278 -0.0255 -0.4598  0.0264
17058TIP3    H172665   6.842   5.084  13.197 -1.1935 -0.5430 -0.5187
17058TIP3    H272666   6.711   5.133  13.256 -0.3609 -0.4722  1.3084
17059TIP3   OH272667   5.446   6.746   3.779  0.1315  0.1291 -0.3346
17059TIP3    H172668   5.401   6.740   3.863  0.9620  0.2989  0.1364
17059TIP3    H272669   5.538   6.754   3.802  0.3546  0.3544 -1.2634
17060TIP3   OH272670   5.025   0.977  15.935  0.0182 -0.1869 -0.2069
17060TIP3    H172671   5.010   1.059  15.889 -1.7942  1.9440  3.6612
17060TIP3    H272672   5.087   1.000  16.005 -2.9387 -1.0676  2.9668
17061TIP3   OH272673   6.108   1.964  10.556  0.3791  0.1657  0.7204
17061TIP3    H172674   6.019   1.968  10.592  0.4319 -1.2730  1.0847
17061TIP3    H272675   6.154   2.036  10.598  0.2339 -0.9842  3.0309
17062TIP3   OH272676   3.632   1.395  13.753  0.3241  0.2583 -0.6314
17062TIP3    H172677   3.544   1.379  13.787  0.3961  1.5266  0.2408
17062TIP3    H272678   3.618   1.427  13.664  0.0981 -2.5005 -1.6711
17063TIP3   OH272679   0.987   0.611  12.493 -0.0856 -0.1908  0.5230
17063TIP3    H172680   0.904   0.565  12.479  0.1691 -0.3260 -0.6763
17063TIP3    H272681   0.987   0.634  12.586 -1.0899 -0.9175  0.7158
17064TIP3   OH272682   3.930   1.708   4.227 -0.2996 -0.2528  0.3142
17064TIP3    H172683   3.960   1.750   4.307  0.9295 -0.1640 -0.1764
17064TIP3    H272684   4.000   1.648   4.202 -0.0902  0.6048 -1.3408
17065TIP3   OH272685   1.963   0.955  11.485  0.4664  0.8120 -0.3019
17065TIP3    H172686   1.986   1.012  11.412 -0.3445 -1.5117 -2.5433
17065TIP3    H272687   2.047   0.928  11.523  1.0690  0.1086 -2.0433
17066TIP3   OH272688   4.388   0.740  15.616  0.9469  0.6849 -0.0217
17066TIP3    H172689   4.454   0.671  15.605  0.6980 -0.1167  2.6905
17066TIP3    H272690   4.363   0.734  15.708 -1.2332  2.5234 -0.4156
17067TIP3   OH272691   0.892   1.622  14.920 -0.1489  0.4840 -0.3802
17067TIP3    H172692   0.897   1.527  14.907  1.5562  0.6417 -1.1950
17067TIP3    H272693   0.984   1.649  14.930 -0.5869  2.0958 -0.4839
17068TIP3   OH272694   3.650   0.796  15.059  0.1261  0.5387  0.7507
17068TIP3    H172695   3.727   0.843  15.026  0.0251 -1.5694 -3.0969
17068TIP3    H272696   3.685   0.737  15.127  1.7755  0.2902 -0.2612
17069TIP3   OH272697   6.813   1.137  15.516  0.4182  0.2949 -0.0410
17069TIP3    H172698   6.740   1.171  15.568  1.1639  1.5878  0.2028
17069TIP3    H272699   6.883   1.201  15.528  1.3346 -0.5087 -0.9078
17070TIP3   OH272700   5.333   5.990   5.512 -0.3884  0.6844 -0.1969
17070TIP3    H172701   5.410   5.981   5.456 -0.3892  1.5877 -0.3580
17070TIP3    H272702   5.329   6.083   5.532 -0.4348  0.4009  1.2435
17071TIP3   OH272703   0.858   0.157  12.965  0.5422 -0.3364 -0.4659
17071TIP3    H172704   0.915   0.080  12.975  2.2020  0.6166 -1.9105
17071TIP3    H272705   0.809   0.139  12.884  1.0860  0.1878 -0.9213
17072TIP3   OH272706   0.092   1.705  13.186 -0.3350 -0.5833 -0.7682
17072TIP3    H172707   0.136   1.630  13.226 -1.0371 -0.2631  0.6745
17072TIP3    H272708   0.144   1.781  13.212 -1.3800 -0.2625  0.4591
17073TIP3   OH272709   4.090   6.740  13.830 -0.4598  0.7338  0.1446
17073TIP3    H172710   4.090   6.783  13.915  0.7892  1.4587 -0.1899
17073TIP3    H272711   4.161   6.782  13.782  0.4508 -1.3084 -0.4228
17074TIP3   OH272712   6.301   2.066  16.953  0.0999  0.2322 -0.0590
17074TIP3    H172713   6.263   2.104  16.874  0.0983  0.3028 -0.0244
17074TIP3    H272714   6.265   2.118  17.024  0.3408  0.3672 -0.0344
17075TIP3   OH272715   5.313   4.621   1.914 -0.0210 -0.5030  0.3037
17075TIP3    H172716   5.263   4.557   1.865  1.2917 -1.6228  0.3653
17075TIP3    H272717   5.249   4.687   1.941 -1.0665 -0.7734 -1.3931
17076TIP3   OH272718   1.458   4.239  12.548 -0.6566 -0.0544 -0.0513
17076TIP3    H172719   1.364   4.247  12.532 -0.6834  0.2260  0.2314
17076TIP3    H272720   1.499   4.245  12.462 -0.8557  0.4731 -0.1066
17077TIP3   OH272721   4.855   0.531  15.031 -0.3142  0.0494 -0.4469
17077TIP3    H172722   4.853   0.489  15.117  0.5851  1.1262  0.1369
17077TIP3    H272723   4.799   0.608  15.041 -0.5759 -0.0716 -0.9661
17078TIP3   OH272724   2.334   3.711   2.020  0.1898 -0.5697  0.3075
17078TIP3    H172725   2.296   3.624   2.007  0.1136 -0.8363  2.1015
17078TIP3    H272726   2.418   3.695   2.062  1.9027  0.0898 -2.5471
17079TIP3   OH272727   3.824   5.119  12.445  0.7225  0.1352  0.3036
17079TIP3    H172728   3.859   5.031  12.463 -1.2153 -0.7073  0.2710
17079TIP3    H272729   3.733   5.115  12.477 -0.3559  1.1566 -2.3478
17080TIP3   OH272730   2.020   4.194  16.962 -0.5231  0.2396 -1.0190
17080TIP3    H172731   1.958   4.170  17.030  0.1586 -0.0375 -0.4874
17080TIP3    H272732   1.988   4.278  16.929 -0.1282  1.0429  0.5594
17081TIP3   OH272733   6.511   5.331   0.249 -0.3722 -0.2813  0.5091
17081TIP3    H172734   6.419   5.305   0.251 -0.1332 -1.1232  0.9018
17081TIP3    H272735   6.526   5.374   0.333 -0.4076 -0.1332  0.4400
17082TIP3   OH272736   4.244   6.614   0.968  0.2214  0.1958 -0.1381
17082TIP3    H172737   4.275   6.669   0.896 -1.3984  1.3889  0.0214
17082TIP3    H272738   4.225   6.676   1.039  0.7102 -0.8411  0.9189
17083TIP3   OH272739   3.172   1.610   2.727  0.1166 -0.5632 -0.6681
17083TIP3    H172740   3.242   1.544   2.730 -1.8055 -3.0196 -3.8989
17083TIP3    H272741   3.098   1.569   2.771  0.0828  1.4096  1.3363
17084TIP3   OH272742   4.574   1.181   4.834 -0.0972 -0.2736 -0.0207
17084TIP3    H172743   4.487   1.212   4.810  1.2858  3.5668 -0.6042
17084TIP3    H272744   4.584   1.206   4.926  0.7351  0.2424 -0.2408
17085TIP3   OH272745   1.804   2.369  11.196  0.2436  0.6221 -0.0222
17085TIP3    H172746   1.866   2.297  11.204 -1.4825 -0.8520  0.7789
17085TIP3    H272747   1.782   2.371  11.103 -1.8950 -1.9425  0.3125
17086TIP3   OH272748   2.914   1.638  11.452 -0.6045 -0.1165  0.2239
17086TIP3    H172749   2.849   1.568  11.461 -0.9210  0.2734  1.0641
17086TIP3    H272750   2.893   1.680  11.368 -0.4170 -1.0091 -0.2848
17087TIP3   OH272751   1.090   0.834  13.420  0.3726  0.5384 -0.8259
17087TIP3    H172752   1.185   0.841  13.408  0.2214  0.7684 -2.0185
17087TIP3    H272753   1.054   0.836  13.331 -0.8581  2.0494 -0.3578
17088TIP3   OH272754   4.062   5.499  13.757  0.1456 -0.4204  0.2798
17088TIP3    H172755   3.987   5.519  13.701  0.4855  0.3273  0.0723
17088TIP3    H272756   4.044   5.544  13.839 -0.0370 -0.9556  0.5320
17089TIP3   OH272757   5.486   6.758  11.925 -0.2582 -0.1515 -0.0223
17089TIP3    H172758   5.542   6.714  11.862 -0.8764  1.4280 -1.7920
17089TIP3    H272759   5.422   6.692  11.950  0.5851 -1.1030 -0.2888
17090TIP3   OH272760   0.232   2.195   1.881  0.5922 -0.1155  0.2428
17090TIP3    H172761   0.282   2.133   1.829 -1.4634 -1.5449 -0.1711
17090TIP3    H272762   0.268   2.281   1.858  2.3094 -0.9944 -0.5397
17091TIP3   OH272763   2.439   3.524   1.080 -0.4000  0.5293  0.5227
17091TIP3    H172764   2.527   3.538   1.044  0.4883 -0.6917  2.0664
17091TIP3    H272765   2.411   3.611   1.110 -0.3566  1.1941 -1.2594
17092TIP3   OH272766   4.971   6.679   1.521  0.1419 -0.3212  0.1646
17092TIP3    H172767   4.903   6.634   1.471 -0.1913 -0.3481  0.6377
17092TIP3    H272768   4.924   6.719   1.595  0.7947 -1.2621  1.1045
17093TIP3   OH272769   4.442   6.272  13.863 -0.0984 -0.0820  0.1167
17093TIP3    H172770   4.436   6.218  13.784 -0.1677 -0.3411  0.2954
17093TIP3    H272771   4.422   6.360  13.834  1.0617  0.0399 -0.3861
17094TIP3   OH272772   2.242   2.556   1.155 -0.0686 -0.0646  0.2294
17094TIP3    H172773   2.211   2.466   1.146  2.1827 -0.7470 -1.6382
17094TIP3    H272774   2.312   2.551   1.220  2.2508 -0.4013 -2.1278
17095TIP3   OH272775   0.454   6.620  11.181  0.2624 -0.2038 -0.2556
17095TIP3    H172776   0.386   6.610  11.247  0.2715 -0.0490 -0.2207
17095TIP3    H272777   0.523   6.670  11.225  0.4449 -0.4503 -0.2560
17096TIP3   OH272778   0.498   1.460  14.746 -0.3220 -0.4800 -0.1427
17096TIP3    H172779   0.535   1.472  14.833  0.8062 -1.3351 -0.4761
17096TIP3    H272780   0.460   1.372  14.748  1.2389 -1.2005 -1.0158
17097TIP3   OH272781   5.539   0.120  16.033  0.1958 -0.1779 -0.5861
17097TIP3    H172782   5.573   0.119  16.123  0.0422  2.3116 -0.4175
17097TIP3    H272783   5.612   0.153  15.981  0.1660 -1.2691 -1.3405
17098TIP3   OH272784   2.441   3.271   5.052 -0.5796  0.0828  0.0959
17098TIP3    H172785   2.363   3.226   5.087  0.9273 -1.9497  1.0235
17098TIP3    H272786   2.420   3.285   4.960 -1.0931 -2.8323 -0.3380
17099TIP3   OH272787   5.920   5.032   5.910 -0.3249  0.1727  0.5722
17099TIP3    H172788   5.911   5.119   5.951 -1.0832  0.2040  0.3623
17099TIP3    H272789   5.980   4.985   5.967  0.6406  1.0576  0.3192
17100TIP3   OH272790   2.342   3.541   2.896 -0.2005 -0.2155  0.4534
17100TIP3    H172791   2.269   3.527   2.956  0.0993  1.4487  1.2585
17100TIP3    H272792   2.374   3.629   2.917  1.5600 -0.6131 -0.3990
17101TIP3   OH272793   5.732   0.439   5.442 -0.2292 -0.2604 -0.2935
17101TIP3    H172794   5.688   0.524   5.449  0.6490  0.0924  1.6812
17101TIP3    H272795   5.808   0.456   5.387  0.0345  0.2997  0.2277
17102TIP3   OH272796   0.674   4.821  10.834 -0.1492  0.0818  0.7493
17102TIP3    H172797   0.617   4.745  10.845  0.2516 -0.1548  1.2868
17102TIP3    H272798   0.762   4.783  10.827 -0.0578  0.4379 -0.0760
17103TIP3   OH272799   5.868   5.775   5.115 -0.4602 -0.1451  0.2527
17103TIP3    H172800   5.940   5.728   5.073 -0.0435  0.7210 -0.0329
17103TIP3    H272801   5.893   5.781   5.207 -1.4536 -2.1973  0.7099
17104TIP3   OH272802   2.585   4.903  14.561 -0.4706  0.3357 -0.3547
17104TIP3    H172803   2.523   4.947  14.619 -0.4710 -2.2119  1.7726
17104TIP3    H272804   2.533   4.878  14.485 -2.5433 -2.5919  1.7858
17105TIP3   OH272805   2.805   1.158  16.868  0.2722  0.2687  0.2512
17105TIP3    H172806   2.845   1.101  16.934  1.2193  0.7786  0.1345
17105TIP3    H272807   2.712   1.158  16.890  0.3193 -0.9417  0.5327
17106TIP3   OH272808   6.290   1.007   4.277  0.1919  0.5450  0.1520
17106TIP3    H172809   6.330   0.923   4.255  0.3510  0.7898 -0.5195
17106TIP3    H272810   6.362   1.059   4.313  0.0673  0.3537  0.6800
17107TIP3   OH272811   5.973   4.778   4.823 -0.1578  0.0605 -0.2669
17107TIP3    H172812   5.975   4.825   4.906 -0.8736 -0.7661  0.2395
17107TIP3    H272813   5.999   4.843   4.758  1.2331  0.5141  0.6841
17108TIP3   OH272814   6.002   3.721  13.162  0.5448 -0.0963 -0.5383
17108TIP3    H172815   5.982   3.640  13.209 -1.0944  0.8459  0.4881
17108TIP3    H272816   6.037   3.692  13.078 -0.8957 -1.9034 -0.5753
17109TIP3   OH272817   1.713   5.868   2.357 -0.0922 -0.3323  0.2374
17109TIP3    H172818   1.768   5.790   2.353 -1.5336 -1.3420 -0.7783
17109TIP3    H272819   1.680   5.869   2.447 -1.4272 -1.9130 -0.1862
17110TIP3   OH272820   1.759   1.398   0.683  0.4316  0.1166  0.3716
17110TIP3    H172821   1.751   1.447   0.765 -1.5864  0.2363  0.1446
17110TIP3    H272822   1.772   1.307   0.710  1.4387  0.3725  0.7954
17111TIP3   OH272823   4.273   1.182  12.020 -0.5204 -0.0366 -0.5352
17111TIP3    H172824   4.273   1.220  11.932  0.4963  0.2057 -0.4471
17111TIP3    H272825   4.184   1.195  12.052 -0.5005  1.2470 -0.9484
17112TIP3   OH272826   4.726   0.504   2.606  0.6502 -0.7847 -0.2826
17112TIP3    H172827   4.788   0.573   2.629 -1.2778  0.5981  1.1096
17112TIP3    H272828   4.741   0.487   2.513  2.5540  0.0310 -0.1605
17113TIP3   OH272829   4.554   4.765   1.931 -0.1947 -0.0125  0.0015
17113TIP3    H172830   4.480   4.817   1.962  0.1191  0.5110 -0.1029
17113TIP3    H272831   4.518   4.710   1.862 -0.9583 -1.3524  1.4032
17114TIP3   OH272832   0.999   2.752   5.125  0.2566  0.2913  0.2782
17114TIP3    H172833   1.047   2.675   5.155  1.2591 -0.4494 -2.7687
17114TIP3    H272834   0.921   2.717   5.083  0.6496  0.8990 -1.0168
17115TIP3   OH272835   3.705   6.429   2.514 -0.5017  0.3058  0.5370
17115TIP3    H172836   3.668   6.478   2.440  0.5167  1.2258  0.6196
17115TIP3    H272837   3.701   6.490   2.588  0.6479  0.2250  0.6792
17116TIP3   OH272838   3.574   2.567   3.985  0.4736 -0.7908 -0.5320
17116TIP3    H172839   3.578   2.656   4.019  1.2711 -0.4106 -1.5624
17116TIP3    H272840   3.629   2.516   4.045 -0.2047 -0.6519  0.2145
17117TIP3   OH272841   3.839   0.116   3.316  0.1440  0.1230 -0.1774
17117TIP3    H172842   3.834   0.208   3.341 -1.0380  0.4015 -1.3317
17117TIP3    H272843   3.834   0.116   3.221  0.9996 -1.0935 -0.2475
17118TIP3   OH272844   6.329   1.849   3.787 -0.3034  0.6039  0.1725
17118TIP3    H172845   6.298   1.810   3.869 -1.0955 -1.6755 -1.1285
17118TIP3    H272846   6.257   1.835   3.726  1.7955 -1.6342 -2.0083
17119TIP3   OH272847   0.686   5.031   4.450  0.5710  0.4479 -0.2515
17119TIP3    H172848   0.694   5.078   4.533  0.6118 -1.8098  1.1168
17119TIP3    H272849   0.761   4.972   4.449 -0.6642 -1.1944 -0.7431
17120TIP3   OH272850   2.496   4.447  13.615  1.2278  0.1944 -0.3177
17120TIP3    H172851   2.405   4.467  13.593  1.6808  2.8242 -0.0217
17120TIP3    H272852   2.504   4.354  13.594 -1.7680 -0.3933  0.5520
17121TIP3   OH272853   2.717   2.835  11.011  0.1504  0.1679  0.1688
17121TIP3    H172854   2.716   2.788  10.928 -2.8995  0.0926  0.1571
17121TIP3    H272855   2.799   2.885  11.009  0.7217 -0.7239 -2.3345
17122TIP3   OH272856   4.780   4.931  14.075 -0.4378  0.3365  0.1445
17122TIP3    H172857   4.765   5.008  14.129 -0.8585  0.7878 -0.6074
17122TIP3    H272858   4.699   4.919  14.025  0.5621  1.0365 -1.7586
17123TIP3   OH272859   4.520   2.833   0.633 -0.5222  0.3394 -0.0758
17123TIP3    H172860   4.536   2.739   0.628 -1.5794 -0.1437  2.9828
17123TIP3    H272861   4.541   2.866   0.546 -0.2889 -2.7298 -1.3204
17124TIP3   OH272862   6.136   4.276  16.733 -0.0139  0.1461  0.3800
17124TIP3    H172863   6.049   4.307  16.757  0.3750 -0.0960  2.3196
17124TIP3    H272864   6.195   4.348  16.758  0.3821  0.1084 -0.4277
17125TIP3   OH272865   1.748   3.547   4.289  0.0811 -0.6183 -0.1147
17125TIP3    H172866   1.823   3.593   4.251 -1.0656  1.2072 -0.2997
17125TIP3    H272867   1.702   3.512   4.213 -0.1303 -0.3071 -0.1327
17126TIP3   OH272868   3.948   5.355   4.781  0.5456 -0.2213 -0.3090
17126TIP3    H172869   3.945   5.439   4.736  2.3165 -1.1433 -2.2971
17126TIP3    H272870   3.857   5.336   4.802 -0.1313  1.1395 -1.8229
17127TIP3   OH272871   0.731   3.184  15.481  0.5578  0.7172 -0.5584
17127TIP3    H172872   0.771   3.212  15.399 -0.4174 -0.6758 -1.5467
17127TIP3    H272873   0.651   3.138  15.455  0.3750 -0.0123  1.1485
17128TIP3   OH272874   3.525   0.968  11.602 -0.0277  0.2984  0.3145
17128TIP3    H172875   3.608   0.966  11.649  0.4442  1.3147 -0.4210
17128TIP3    H272876   3.548   0.947  11.511 -0.8043 -0.8875  0.3819
17129TIP3   OH272877   2.264   4.288  16.088  0.2551 -0.1811  0.0898
17129TIP3    H172878   2.180   4.277  16.043  0.1329  0.1339  0.2402
17129TIP3    H272879   2.247   4.261  16.178 -0.0512  1.1954  0.4675
17130TIP3   OH272880   1.233   0.949   3.174  0.1761  0.2343 -0.3929
17130TIP3    H172881   1.283   0.997   3.240  0.2710  0.8425 -0.8983
17130TIP3    H272882   1.155   1.003   3.159  0.4140  0.3837 -1.1663
17131TIP3   OH272883   5.270   3.415   4.823 -0.6981  0.0188  0.7316
17131TIP3    H172884   5.215   3.338   4.812  0.2036 -0.8018  1.7358
17131TIP3    H272885   5.345   3.400   4.766 -0.5053  0.1417  0.9514
17132TIP3   OH272886   1.521   4.215  11.533  0.0948  0.1815  0.4657
17132TIP3    H172887   1.427   4.205  11.548 -0.6718  2.6612 -1.8461
17132TIP3    H272888   1.547   4.132  11.493 -1.0431 -0.6089  1.2795
17133TIP3   OH272889   0.312   4.921  16.595 -0.4213 -0.6408  0.0389
17133TIP3    H172890   0.382   4.859  16.617 -0.6862 -1.0941 -0.3990
17133TIP3    H272891   0.276   4.947  16.680  0.2144 -0.4798  0.2635
17134TIP3   OH272892   6.532   1.681   1.130  0.4008 -0.2342 -0.4393
17134TIP3    H172893   6.518   1.751   1.194  0.9562 -0.4229 -0.1015
17134TIP3    H272894   6.622   1.694   1.099  0.5081 -0.7822 -0.3829
17135TIP3   OH272895   1.794   1.248  14.595 -0.2257 -0.7975 -0.1348
17135TIP3    H172896   1.700   1.268  14.591 -0.0453  0.3430  0.6031
17135TIP3    H272897   1.814   1.249  14.689  0.6996 -0.1121 -0.3268
17136TIP3   OH272898   1.782   0.952  12.613 -0.0262 -0.4606  0.2064
17136TIP3    H172899   1.771   0.875  12.557 -0.2099  0.0678 -0.5002
17136TIP3    H272900   1.876   0.952  12.634  0.1934 -0.2600 -0.7150
17137TIP3   OH272901   2.930   5.487   0.158  0.7852 -0.5448  0.0234
17137TIP3    H172902   2.926   5.567   0.211 -0.0173  0.4362 -1.4390
17137TIP3    H272903   2.857   5.435   0.189  0.6914 -0.2571  0.2982
17138TIP3   OH272904   0.855   4.352   4.580  0.1603 -0.4227  0.0025
17138TIP3    H172905   0.904   4.388   4.653  0.0069 -0.8412  0.3135
17138TIP3    H272906   0.860   4.257   4.591 -0.6664 -0.4776  0.0199
17139TIP3   OH272907   5.425   1.604  11.770  0.0883 -0.0864  0.2069
17139TIP3    H172908   5.389   1.589  11.683 -0.7990 -0.1600  0.5723
17139TIP3    H272909   5.499   1.662  11.756 -0.7761  0.8842 -0.4836
17140TIP3   OH272910   2.950   2.054  16.615 -0.0359 -0.1611  0.2186
17140TIP3    H172911   2.899   2.063  16.695 -0.9171 -1.0764 -0.2100
17140TIP3    H272912   3.006   2.131  16.613 -0.3884  0.1439  1.4347
17141TIP3   OH272913   5.391   4.623  14.268 -0.4169 -0.5177 -0.3548
17141TIP3    H172914   5.359   4.539  14.302 -1.0790  0.1495  0.7424
17141TIP3    H272915   5.476   4.635  14.309 -1.0547  0.1132  0.8363
17142TIP3   OH272916   1.068   4.228  12.341  0.4008  0.2252 -0.1336
17142TIP3    H172917   1.093   4.320  12.353 -1.1251  0.4899  1.5566
17142TIP3    H272918   1.044   4.198  12.429 -0.5667 -1.3448 -0.8849
17143TIP3   OH272919   1.931   1.107  16.286  0.5814  1.0574  0.2658
17143TIP3    H172920   1.920   1.088  16.379 -1.6542 -0.7184 -0.2644
17143TIP3    H272921   1.867   1.176  16.268  0.0313  0.4565 -0.1655
17144TIP3   OH272922   6.201   5.065   1.766 -0.3701 -0.0242  0.0304
17144TIP3    H172923   6.199   4.970   1.755 -2.2996 -0.1155  0.7411
17144TIP3    H272924   6.275   5.094   1.714 -0.4809 -1.7969 -1.2001
17145TIP3   OH272925   0.657   4.471  16.788  0.2714 -0.3180 -0.2049
17145TIP3    H172926   0.568   4.492  16.758 -0.0426 -1.9272 -0.4864
17145TIP3    H272927   0.668   4.378  16.769  1.8170 -0.2914  0.3681
17146TIP3   OH272928   3.300   5.908  10.898 -0.3798  1.2449 -0.1409
17146TIP3    H172929   3.227   5.860  10.940  0.5844 -0.1643 -0.0003
17146TIP3    H272930   3.285   5.999  10.922  0.0199  0.5690  3.2819
17147TIP3   OH272931   3.891   3.288  15.239  0.2418 -0.1110 -0.0981
17147TIP3    H172932   3.853   3.348  15.303  0.4330  0.1799 -0.2540
17147TIP3    H272933   3.953   3.342  15.190 -0.5896 -0.0842 -1.1574
17148TIP3   OH272934   6.636   1.540   5.957 -0.3284  0.1288  0.5185
17148TIP3    H172935   6.599   1.558   6.043  0.7254  1.4056  0.7406
17148TIP3    H272936   6.703   1.473   5.972  1.0518  1.5615  1.0278
17149TIP3   OH272937   1.084   2.081   4.729  0.2216  0.2630  0.1969
17149TIP3    H172938   1.006   2.027   4.737  1.0357 -1.0938 -0.8050
17149TIP3    H272939   1.126   2.074   4.815 -0.2705  0.2507  0.4408
17150TIP3   OH272940   0.986   6.056  14.374  0.2836  0.1196 -0.8234
17150TIP3    H172941   1.003   6.105  14.455 -1.1776  0.0156 -0.4344
17150TIP3    H272942   0.891   6.052  14.368  0.3772 -1.1086 -1.8074
17151TIP3   OH272943   4.191   4.931  15.508  0.0214 -0.2516  0.0812
17151TIP3    H172944   4.131   4.864  15.539  0.8614 -2.2442 -2.2934
17151TIP3    H272945   4.270   4.919  15.561  0.8109 -2.4498 -1.4385
17152TIP3   OH272946   5.352   3.959  14.520 -0.3557  0.2871 -0.3900
17152TIP3    H172947   5.333   4.044  14.561 -0.5833  0.0638 -0.0262
17152TIP3    H272948   5.447   3.953  14.520 -0.3613  0.1497  0.4019
17153TIP3   OH272949   2.497   2.902  17.095  0.6271 -0.3298  0.0265
17153TIP3    H172950   2.481   2.941  17.180 -1.9764 -0.5143 -0.2812
17153TIP3    H272951   2.548   2.967  17.047 -1.8482  1.9044  0.2018
17154TIP3   OH272952   4.933   0.328   2.112 -0.1774 -0.2358  0.4340
17154TIP3    H172953   5.004   0.328   2.176  0.5237 -0.1161 -0.3247
17154TIP3    H272954   4.964   0.386   2.042  0.5699 -2.9075 -1.6129
17155TIP3   OH272955   5.765   0.417   3.741  0.0273  0.1390  0.3707
17155TIP3    H172956   5.732   0.361   3.812 -0.3039 -1.0990 -0.7097
17155TIP3    H272957   5.858   0.395   3.734  0.0839  0.3390  0.4834
17156TIP3   OH272958   1.139   2.738   4.456 -0.0579  0.2136 -0.0213
17156TIP3    H172959   1.155   2.774   4.369  1.3705 -2.0538 -0.7884
17156TIP3    H272960   1.044   2.728   4.462 -0.2292  1.1987 -0.9663
17157TIP3   OH272961   2.613   0.441   1.150 -0.0023 -0.8045  0.0129
17157TIP3    H172962   2.585   0.518   1.101 -1.9218 -0.9835  0.7411
17157TIP3    H272963   2.645   0.476   1.233  2.0418 -0.6030 -0.8030
17158TIP3   OH272964   0.771   4.407  10.498  0.2585  0.0971  0.2026
17158TIP3    H172965   0.704   4.433  10.436  0.5474 -1.4866 -0.8160
17158TIP3    H272966   0.811   4.490  10.526  0.5316  0.8523 -2.1816
17159TIP3   OH272967   4.830   3.021  11.285 -0.0796  0.6071 -0.2011
17159TIP3    H172968   4.912   3.021  11.334 -1.5120  4.0235  2.6343
17159TIP3    H272969   4.857   3.038  11.195  2.3537  0.9445  0.5062
17160TIP3   OH272970   0.682   5.374   2.893 -0.0377  0.4881 -0.0742
17160TIP3    H172971   0.729   5.301   2.934  0.9090  0.7652 -0.6389
17160TIP3    H272972   0.650   5.426   2.966 -0.9184 -0.6025  0.3428
17161TIP3   OH272973   3.988   4.388  14.929 -0.1671 -0.1475  0.3012
17161TIP3    H172974   4.031   4.349  14.853  0.3485  1.4325 -0.2428
17161TIP3    H272975   3.945   4.314  14.972 -1.1573 -0.9862 -1.9670
17162TIP3   OH272976   2.008   0.589  15.556  0.0798 -0.4009  0.0514
17162TIP3    H172977   1.986   0.500  15.583  0.8025 -0.5779  0.0680
17162TIP3    H272978   1.923   0.632  15.544 -0.3201 -1.6027 -1.7242
17163TIP3   OH272979   3.908   0.201  16.585  0.5894 -0.6228  0.3469
17163TIP3    H172980   3.888   0.160  16.501 -1.0203 -0.1829  0.4780
17163TIP3    H272981   3.911   0.295  16.566 -1.6272 -0.3504  1.0492
17164TIP3   OH272982   3.380   0.377   3.594  0.0953  0.2660  0.3912
17164TIP3    H172983   3.475   0.367   3.593  0.1613  0.9170  0.0691
17164TIP3    H272984   3.355   0.362   3.685  0.4703 -0.1776  0.4247
17165TIP3   OH272985   2.882   5.884   5.280 -0.1562 -0.0493  0.3583
17165TIP3    H172986   2.969   5.911   5.249 -0.4986 -1.1539 -1.7270
17165TIP3    H272987   2.882   5.789   5.271 -1.9333  0.0188 -0.6686
17166TIP3   OH272988   5.830   1.896  13.894 -0.2757  0.0233 -0.2858
17166TIP3    H172989   5.822   1.832  13.824  1.5023  0.5051 -0.9810
17166TIP3    H272990   5.897   1.860  13.952  0.5943  1.1020 -0.5695
17167TIP3   OH272991   4.911   2.617   4.350  0.0085  0.3745 -0.4098
17167TIP3    H172992   4.958   2.688   4.307 -0.9335  0.8415 -0.7094
17167TIP3    H272993   4.975   2.578   4.410  0.9470  0.5694 -1.2606
17168TIP3   OH272994   0.802   5.396   1.073 -0.3546 -0.3238 -0.1386
17168TIP3    H172995   0.762   5.453   1.007  1.8208 -0.2758 -1.4978
17168TIP3    H272996   0.896   5.412   1.065  0.0860 -1.6149  1.8101
17169TIP3   OH272997   3.280   6.134   5.328  0.4620 -0.2013 -0.4875
17169TIP3    H172998   3.256   6.086   5.408  1.7208 -0.1278 -0.0461
17169TIP3    H272999   3.330   6.209   5.359  0.6826  0.0136 -1.3281
17170TIP3   OH273000   0.169   0.922  15.914 -0.2913  0.2948  0.2473
17170TIP3    H173001   0.139   1.005  15.952  0.7661  0.0228  1.7565
17170TIP3    H273002   0.262   0.936  15.896 -0.3349 -0.2356 -0.4068
17171TIP3   OH273003   1.514   2.093  11.021  0.0831 -0.5031  0.4791
17171TIP3    H173004   1.425   2.127  11.037  0.1371 -0.9667  1.8676
17171TIP3    H273005   1.566   2.126  11.094  1.1012 -0.1417 -0.3829
17172TIP3   OH273006   4.346   6.810   3.659  0.0612  0.4233 -0.2084
17172TIP3    H173007   4.300   6.893   3.645 -0.2860  0.2254 -0.2441
17172TIP3    H273008   4.304   6.748   3.599 -1.5284 -0.4614  1.7047
17173TIP3   OH273009   0.885   5.837   4.141 -0.3618  0.3785  0.6183
17173TIP3    H173010   0.941   5.840   4.063 -1.6864  2.6466 -0.3758
17173TIP3    H273011   0.796   5.845   4.106 -0.9489  2.2998  2.3665
17174TIP3   OH273012   3.772   1.326   1.376 -0.8567  0.1118 -0.0965
17174TIP3    H173013   3.833   1.299   1.308 -0.3950 -1.7622  1.0085
17174TIP3    H273014   3.817   1.397   1.423  0.7769 -1.5828  1.0306
17175TIP3   OH273015   5.681   1.398   3.702  0.7314  0.3600  0.8312
17175TIP3    H173016   5.602   1.344   3.700  0.4246  0.7801  1.4535
17175TIP3    H273017   5.748   1.344   3.660  0.6662 -0.8822  2.2265
17176TIP3   OH273018   1.332   6.670  13.545  0.5662 -0.2916 -0.0811
17176TIP3    H173019   1.396   6.610  13.584  0.5404 -0.8653 -0.8927
17176TIP3    H273020   1.341   6.656  13.450  1.0688  1.5093 -0.3455
17177TIP3   OH273021   1.051   1.965   2.385 -0.1973  0.2324 -0.4743
17177TIP3    H173022   0.986   1.899   2.359  0.7525 -0.0337 -2.3344
17177TIP3    H273023   1.072   1.942   2.475 -1.7776 -0.4185 -0.2253
17178TIP3   OH273024   3.115   2.497   3.529  0.1064 -0.5290  0.4003
17178TIP3    H173025   3.133   2.586   3.498 -1.8240 -0.7360 -1.5740
17178TIP3    H273026   3.060   2.510   3.607 -0.5405  0.0206 -0.1362
17179TIP3   OH273027   4.628   1.982   2.132  0.0162  0.4599  0.5564
17179TIP3    H173028   4.689   1.921   2.174 -0.5144  0.0782  0.7798
17179TIP3    H273029   4.542   1.958   2.166 -0.1964  1.3894  0.7163
17180TIP3   OH273030   5.774   1.934  11.523 -0.5185 -0.2890 -0.0885
17180TIP3    H173031   5.848   1.874  11.520  1.6011  2.1393  0.3337
17180TIP3    H273032   5.719   1.901  11.594  1.9177 -0.3474  1.8957
17181TIP3   OH273033   3.337   6.298   2.321  0.1779 -0.4523 -0.4194
17181TIP3    H173034   3.343   6.359   2.248 -0.4397 -0.8583 -0.8231
17181TIP3    H273035   3.421   6.251   2.321 -0.1622 -1.0870 -1.4511
17182TIP3   OH273036   1.605   5.024  12.679 -0.0318 -0.5430 -0.5264
17182TIP3    H173037   1.608   5.115  12.708 -3.4615 -0.5677  0.3289
17182TIP3    H273038   1.633   5.028  12.587 -0.9735  1.5340 -0.7923
17183TIP3   OH273039   6.538   1.073  16.605  0.1840  0.4294  0.6868
17183TIP3    H173040   6.629   1.053  16.625 -0.1872 -0.4560  1.5217
17183TIP3    H273041   6.497   0.989  16.587 -0.7287  0.7014  1.4085
17184TIP3   OH273042   5.119   3.092   3.169 -0.4814 -0.2200 -0.5093
17184TIP3    H173043   5.155   3.160   3.226 -4.0720  1.2991  0.1949
17184TIP3    H273044   5.131   3.126   3.080 -0.0825  0.1467 -0.3205
17185TIP3   OH273045   6.182   1.523  14.639  0.1902 -0.6049 -0.0131
17185TIP3    H173046   6.199   1.534  14.545  0.7429 -1.5807 -0.0356
17185TIP3    H273047   6.091   1.494  14.643 -0.2351  0.6363 -0.1537
17186TIP3   OH273048   0.620   6.776   5.545  0.0810 -0.1533 -0.6015
17186TIP3    H173049   0.601   6.808   5.457 -2.1719  1.2238  0.3121
17186TIP3    H273050   0.556   6.819   5.602 -0.6527 -3.3935  1.3106
17187TIP3   OH273051   1.908   2.809   2.722  0.6561 -0.5749  0.0594
17187TIP3    H173052   1.887   2.716   2.725 -0.4542 -0.3488 -0.3420
17187TIP3    H273053   1.910   2.831   2.629  1.2044 -0.2555  0.1422
17188TIP3   OH273054   3.949   1.457  10.253  0.0133 -0.3801  0.6124
17188TIP3    H173055   3.989   1.543  10.260  0.0795 -0.5020  1.9637
17188TIP3    H273056   3.872   1.461  10.310  0.2338 -1.3294  0.9971
17189TIP3   OH273057   2.781   5.107   2.593 -0.0547 -0.3705  0.8883
17189TIP3    H173058   2.740   5.029   2.556 -1.3074  0.8833 -0.4997
17189TIP3    H273059   2.875   5.090   2.588 -0.3068 -1.7302  0.4967
17190TIP3   OH273060   2.225   5.123  14.874  0.7785  0.7696  0.5151
17190TIP3    H173061   2.282   5.197  14.852  2.0950 -0.4423 -0.3688
17190TIP3    H273062   2.240   5.109  14.968  1.2165  1.0614  0.4952
17191TIP3   OH273063   4.510   2.393   3.204 -0.3856 -0.4900  0.3406
17191TIP3    H173064   4.572   2.377   3.276  2.3016  1.8444 -1.2421
17191TIP3    H273065   4.549   2.349   3.129 -1.0825  0.3267 -0.5170
17192TIP3   OH273066   2.699   3.721  14.086 -0.6212 -0.5210 -0.3976
17192TIP3    H173067   2.743   3.802  14.109 -1.5733  0.0273 -0.4584
17192TIP3    H273068   2.756   3.652  14.121  0.2093  0.1637 -0.3730
17193TIP3   OH273069   3.240   2.105  15.845  0.1846  0.1454  0.0544
17193TIP3    H173070   3.285   2.133  15.924 -0.5125  1.0085  0.1670
17193TIP3    H273071   3.237   2.010  15.851 -0.5554  0.2345  1.4641
17194TIP3   OH273072   1.799   4.099   6.633 -0.1656 -0.0621  0.7420
17194TIP3    H173073   1.775   4.034   6.700 -0.1931 -2.3424 -1.3092
17194TIP3    H273074   1.739   4.080   6.561 -0.1923  2.3623  0.0623
17195TIP3   OH273075   6.619   6.647   5.834  0.0711 -0.8920 -0.1355
17195TIP3    H173076   6.604   6.558   5.803  0.3353 -1.2458  0.7013
17195TIP3    H273077   6.610   6.640   5.929 -0.3983  0.0806 -0.0999
17196TIP3   OH273078   3.093   5.285   2.506 -0.0213  0.5287  0.4059
17196TIP3    H173079   3.081   5.197   2.542  0.7086  0.4496  0.4659
17196TIP3    H273080   3.171   5.278   2.451 -1.8817  0.3072 -2.3736
17197TIP3   OH273081   0.048   0.058   2.223  0.5500  0.5330 -0.3715
17197TIP3    H173082  -0.014   0.114   2.268 -1.2550 -0.0884 -1.9503
17197TIP3    H273083   0.062  -0.016   2.283 -0.6100  0.4551 -0.1800
17198TIP3   OH273084   2.846   5.589  16.534 -0.0371 -0.2881 -0.4940
17198TIP3    H173085   2.771   5.558  16.585  0.9507  0.9672  1.8606
17198TIP3    H273086   2.841   5.684  16.540  1.9434 -0.1878  0.0429
17199TIP3   OH273087   2.903   6.306  11.632 -0.1654 -0.1524 -0.4647
17199TIP3    H173088   2.935   6.377  11.687 -0.0817  1.1900 -2.1746
17199TIP3    H273089   2.816   6.286  11.668 -0.3501  1.0765 -0.1866
17200TIP3   OH273090   4.739   5.648   2.165 -0.1629 -0.0406 -0.2001
17200TIP3    H173091   4.761   5.683   2.079 -0.2411  0.3844 -0.0502
17200TIP3    H273092   4.652   5.609   2.154 -0.4624  0.6007 -0.1578
17201TIP3   OH273093   1.625   4.924  15.655  0.5712  0.8189 -0.2675
17201TIP3    H173094   1.537   4.892  15.638 -0.1802  2.4470  0.3392
17201TIP3    H273095   1.652   4.965  15.573  0.1199  1.6721 -0.0069
17202TIP3   OH273096   3.607   1.593   5.161  0.4468  0.0979  0.4406
17202TIP3    H173097   3.550   1.661   5.126  1.0803  1.6124  2.2516
17202TIP3    H273098   3.687   1.600   5.109 -0.3081 -0.8797 -0.9327
17203TIP3   OH273099   1.727   1.163   5.728 -0.0325  0.5184  0.3810
17203TIP3    H173100   1.766   1.083   5.764 -0.7996 -0.1700 -0.2685
17203TIP3    H273101   1.780   1.234   5.764  0.9489 -0.3045  0.6137
17204TIP3   OH273102   2.461   3.055  11.850 -0.2714 -0.1417  0.1011
17204TIP3    H173103   2.374   3.073  11.813  0.3304 -1.2760 -1.9749
17204TIP3    H273104   2.464   3.110  11.929 -1.3884  2.9781 -1.8155
17205TIP3   OH273105   3.550   2.816   1.748 -0.1904 -0.2216  0.4694
17205TIP3    H173106   3.596   2.755   1.805  0.9390  1.1070  1.0206
17205TIP3    H273107   3.463   2.824   1.787 -0.2348 -1.1926  0.5868
17206TIP3   OH273108   4.918   1.333   4.554  0.5500 -0.0373  0.3044
17206TIP3    H173109   4.978   1.358   4.624  1.5598 -0.2656 -0.4691
17206TIP3    H273110   4.848   1.399   4.558  0.1329 -0.5318  2.0615
17207TIP3   OH273111   2.542   0.908  14.983  0.5052 -0.0845 -0.0493
17207TIP3    H173112   2.469   0.848  14.997  0.1208 -0.0687 -1.7514
17207TIP3    H273113   2.527   0.980  15.044  1.1266 -1.7945  2.2511
17208TIP3   OH273114   3.609   5.733   3.441  0.4060 -0.2587 -0.3306
17208TIP3    H173115   3.574   5.801   3.384 -2.4979 -0.8035  0.6246
17208TIP3    H273116   3.533   5.677   3.460  2.2733 -2.7190  0.3914
17209TIP3   OH273117   3.106   4.683   1.303 -0.0615  0.0474 -0.7442
17209TIP3    H173118   3.196   4.667   1.332 -0.0876 -0.5680 -0.9872
17209TIP3    H273119   3.051   4.640   1.369 -0.1674  0.1937 -0.7372
17210TIP3   OH273120   5.416   0.936   2.490 -0.7896 -0.2523  0.0739
17210TIP3    H173121   5.372   0.922   2.407 -1.8532  0.2646  0.5292
17210TIP3    H273122   5.345   0.951   2.553 -0.0221 -0.7163  1.0959
17211TIP3   OH273123   2.863   2.983   0.414  0.5039 -0.6951 -0.2007
17211TIP3    H173124   2.826   2.998   0.327  0.2892  0.1764  0.0326
17211TIP3    H273125   2.927   2.914   0.401 -1.1502 -2.2242 -0.6311
17212TIP3   OH273126   2.773   6.306  16.042  0.1848 -0.6741  0.0372
17212TIP3    H173127   2.841   6.370  16.022 -0.0914 -0.1291  0.8143
17212TIP3    H273128   2.814   6.246  16.103  0.3018 -0.9800 -0.3382
17213TIP3   OH273129   2.898   5.784  12.288 -0.0860  0.9346  0.1152
17213TIP3    H173130   2.880   5.718  12.221 -0.1625  1.0593  0.0119
17213TIP3    H273131   2.827   5.776  12.351 -0.2958  1.1672 -0.0905
17214TIP3   OH273132   1.853   0.942   1.471 -0.1847 -0.2648 -0.2696
17214TIP3    H173133   1.884   0.857   1.441  0.7683 -0.3792  0.9398
17214TIP3    H273134   1.922   1.004   1.444  0.0579 -0.1841  0.4914
17215TIP3   OH273135   3.321   3.003   3.315  0.3510  0.2447  0.1277
17215TIP3    H173136   3.249   2.948   3.287 -0.0266 -1.1040  3.3109
17215TIP3    H273137   3.399   2.965   3.273 -0.2036 -1.2992  0.4659
17216TIP3   OH273138   2.055   2.054   0.476 -1.1004  0.7886  0.2360
17216TIP3    H173139   1.969   2.044   0.436 -0.5224 -0.0090 -0.8575
17216TIP3    H273140   2.064   2.148   0.491 -1.2617  1.1695 -1.7679
17217TIP3   OH273141   0.725   0.085  12.402  0.2761  0.0338  0.3604
17217TIP3    H173142   0.762  -0.001  12.417  1.3985  0.7015  1.6296
17217TIP3    H273143   0.700   0.117  12.489 -1.0599  0.5988 -0.1983
17218TIP3   OH273144   3.549   0.293  15.926  0.2732 -0.2888 -0.3052
17218TIP3    H173145   3.533   0.302  16.020 -0.6221 -2.0304 -0.2471
17218TIP3    H273146   3.625   0.235  15.919  0.0509 -0.5521 -0.6372
17219TIP3   OH273147   0.501   5.849   5.550  0.6685  0.4085  0.1009
17219TIP3    H173148   0.452   5.908   5.492 -0.6801 -1.1149 -0.3716
17219TIP3    H273149   0.589   5.846   5.512  0.3810  1.0695 -0.6456
17220TIP3   OH273150   0.038   6.752  14.651 -0.2558  0.1521  0.1080
17220TIP3    H173151   0.094   6.816  14.607  2.4663 -2.0835  0.0007
17220TIP3    H273152  -0.021   6.721  14.583  1.8334 -1.0320 -1.2693
17221TIP3   OH273153   4.369   4.290  16.337  0.3005  0.5327 -0.1968
17221TIP3    H173154   4.304   4.238  16.289 -0.2685  1.4439 -0.4544
17221TIP3    H273155   4.366   4.257  16.426  1.2087 -1.0377 -0.7170
17222TIP3   OH273156   1.713   5.369   3.609  0.1761 -0.3743 -0.0752
17222TIP3    H173157   1.641   5.306   3.598  1.5393 -1.7786 -1.5401
17222TIP3    H273158   1.792   5.315   3.613  1.2546  1.1719  0.5176
17223TIP3   OH273159   5.636   3.556  16.839 -0.2224  0.0071  0.1466
17223TIP3    H173160   5.622   3.503  16.918  0.4940  0.0864  0.3298
17223TIP3    H273161   5.602   3.502  16.768 -0.7721 -0.1127  0.4941
17224TIP3   OH273162   2.856   3.901   0.868 -0.0830  0.3226  0.2653
17224TIP3    H173163   2.845   3.921   0.961  0.6788 -1.4605  0.7744
17224TIP3    H273164   2.883   3.984   0.829 -0.6785  1.1634  1.5731
17225TIP3   OH273165   0.002   3.834  11.851  0.1312  0.2609 -0.4248
17225TIP3    H173166   0.082   3.877  11.880  0.5749 -2.4551  3.0582
17225TIP3    H273167   0.031   3.752  11.811 -0.8480 -0.3621  0.0826
17226TIP3   OH273168   6.630   0.377  11.755  0.5329 -0.2822 -0.3315
17226TIP3    H173169   6.714   0.374  11.710  0.1586 -0.7529 -1.0130
17226TIP3    H273170   6.651   0.406  11.844  1.3675 -0.0601 -0.5944
17227TIP3   OH273171   6.004   3.685   1.737  0.1377 -0.0479 -0.1015
17227TIP3    H173172   5.928   3.683   1.678  0.1280 -0.0681 -0.0886
17227TIP3    H273173   5.985   3.616   1.801 -0.1476  0.3905  0.2873
17228TIP3   OH273174   2.526   5.974   3.132 -0.1608  0.1615 -0.3110
17228TIP3    H173175   2.531   6.028   3.211 -1.1202 -0.9198  0.5388
17228TIP3    H273176   2.603   5.998   3.081  0.2651  1.1847  0.7683
17229TIP3   OH273177   2.764   1.347  12.393  0.3573  0.4092 -0.2451
17229TIP3    H173178   2.799   1.305  12.472 -0.0465 -0.1054 -0.3349
17229TIP3    H273179   2.747   1.274  12.333  3.9301  0.9153 -2.2050
17230TIP3   OH273180   2.325   3.306  14.405  0.4416 -0.3452  0.4846
17230TIP3    H173181   2.419   3.323  14.405  0.2177  0.9490  0.9622
17230TIP3    H273182   2.285   3.389  14.381 -0.5841 -0.9578  0.0029
17231TIP3   OH273183   5.690   5.751   0.668  0.0212  0.8461  0.0077
17231TIP3    H173184   5.657   5.667   0.701  0.6309  0.2590 -0.8370
17231TIP3    H273185   5.613   5.807   0.664 -0.3142  0.4811  1.0360
17232TIP3   OH273186   4.162   3.934   1.577 -0.6585  0.1398 -0.7930
17232TIP3    H173187   4.252   3.958   1.556 -0.6437  0.1324 -0.7381
17232TIP3    H273188   4.110   3.974   1.508 -1.0002  3.2488  1.0892
17233TIP3   OH273189   2.678   1.984  16.755 -0.3274  0.4838  0.1132
17233TIP3    H173190   2.661   2.074  16.728 -0.8099 -0.0423 -1.4652
17233TIP3    H273191   2.636   1.930  16.687 -1.1095 -0.9566  1.6586
17234TIP3   OH273192   3.224   5.091   3.286  0.3694  0.1118  0.2179
17234TIP3    H173193   3.313   5.112   3.313 -0.0473  0.4259  1.3976
17234TIP3    H273194   3.175   5.082   3.368 -0.8636  0.7592 -0.4096
17235TIP3   OH273195   6.655   3.650  16.940 -0.1132  0.5655  0.7756
17235TIP3    H173196   6.693   3.723  16.989 -0.1890  0.8429  0.4278
17235TIP3    H273197   6.718   3.579  16.950 -1.1557 -0.1392  3.1699
17236TIP3   OH273198   3.348   0.653  14.660  0.4420 -0.2158  0.0770
17236TIP3    H173199   3.284   0.714  14.623 -1.3592 -0.0899  3.0496
17236TIP3    H273200   3.299   0.572  14.673  0.7704 -0.1000  2.5111
17237TIP3   OH273201   5.289   3.006  17.111 -0.1598  0.8034  0.5421
17237TIP3    H173202   5.280   2.915  17.082  0.8364  0.3912  1.4674
17237TIP3    H273203   5.309   2.999  17.205 -3.7776  2.0834  1.5725
17238TIP3   OH273204   3.666   6.030  13.963 -0.0441 -0.0225  0.1407
17238TIP3    H173205   3.578   6.039  13.925  0.0104  1.5023  0.3211
17238TIP3    H273206   3.709   5.965  13.908 -1.2829 -0.8295  0.0657
17239TIP3   OH273207   1.523   4.177   4.887 -0.4480 -0.0915  0.7883
17239TIP3    H173208   1.605   4.217   4.860 -0.2308 -0.1917  1.2922
17239TIP3    H273209   1.541   4.084   4.892 -2.2404 -1.2305 -5.5050
17240TIP3   OH273210   1.763   1.767  15.187 -0.7005  0.5902 -0.1819
17240TIP3    H173211   1.820   1.773  15.110 -2.1757  0.4754 -1.3340
17240TIP3    H273212   1.818   1.795  15.260  0.8114  0.4974 -1.2433
17241TIP3   OH273213   2.175   5.744   0.030  0.1617  0.4794 -0.0460
17241TIP3    H173214   2.127   5.713  -0.047 -1.2532 -0.2863  1.1006
17241TIP3    H273215   2.226   5.818  -0.003 -1.3376  0.9518 -1.4858
17242TIP3   OH273216   2.122   1.148   2.357 -0.0749 -0.3250 -0.3930
17242TIP3    H173217   2.209   1.179   2.380 -0.1396  0.3918 -1.0941
17242TIP3    H273218   2.118   1.153   2.262 -0.9604 -0.1375 -0.3549
17243TIP3   OH273219   1.923   6.073   2.375 -0.1791  0.2726 -0.2991
17243TIP3    H173220   1.969   6.004   2.423 -1.3756  0.3989  1.0851
17243TIP3    H273221   1.834   6.041   2.366 -1.2079  2.2584  1.8272
17244TIP3   OH273222   0.972   4.180  11.244 -0.1973  0.2550 -0.0743
17244TIP3    H173223   1.066   4.163  11.247 -0.1303 -0.2383 -2.5956
17244TIP3    H273224   0.949   4.205  11.333  1.6852 -2.9719  1.5078
17245TIP3   OH273225   4.512   5.375  11.973  0.3720  0.6432  0.0776
17245TIP3    H173226   4.479   5.326  12.049 -0.2603  0.8163 -0.0814
17245TIP3    H273227   4.519   5.309  11.904  0.6870  0.5407  0.2024
17246TIP3   OH273228   1.198   5.896  11.535 -0.5207  0.5630 -0.3668
17246TIP3    H173229   1.264   5.952  11.494  0.5810 -0.4205  0.0306
17246TIP3    H273230   1.127   5.892  11.470 -0.8052  2.6480 -0.2745
17247TIP3   OH273231   6.660   6.828   3.574  0.2071 -0.3561 -0.1903
17247TIP3    H173232   6.727   6.861   3.634 -0.8325 -0.6938  1.2240
17247TIP3    H273233   6.592   6.792   3.632 -1.3415  0.2632 -1.5473
17248TIP3   OH273234   1.595   3.676   1.251  0.1704 -0.5358 -0.0864
17248TIP3    H173235   1.502   3.658   1.261  0.1906 -1.0005 -0.6779
17248TIP3    H273236   1.635   3.642   1.331 -0.1213 -0.6791 -0.0008
17249TIP3   OH273237   5.579   6.111   3.807 -0.1952  0.3278 -0.1069
17249TIP3    H173238   5.603   6.162   3.729 -2.4472  0.7542 -0.6023
17249TIP3    H273239   5.554   6.177   3.871 -0.1989 -0.0704  0.3016
17250TIP3   OH273240   3.644   2.452  11.742 -0.3592  0.0567 -0.1029
17250TIP3    H173241   3.615   2.362  11.758  1.7834 -0.6108  0.3460
17250TIP3    H273242   3.680   2.450  11.653 -0.8200  0.6254 -0.3078
17251TIP3   OH273243   6.796   0.622   5.240 -0.7618  0.8858  0.4568
17251TIP3    H173244   6.814   0.649   5.330 -0.9251  0.6400  0.5629
17251TIP3    H273245   6.702   0.603   5.239 -0.3432 -1.5813  0.8916
17252TIP3   OH273246   5.216   2.603   4.135 -0.0119 -0.2447 -0.0146
17252TIP3    H173247   5.252   2.518   4.108  0.8593  0.0397  0.2300
17252TIP3    H273248   5.176   2.586   4.220  0.1512 -0.4175  0.0295
17253TIP3   OH273249   4.019   0.597  16.104 -0.2218 -0.5499  0.2625
17253TIP3    H173250   3.958   0.577  16.033 -1.3955  0.7182  0.8703
17253TIP3    H273251   4.106   0.577  16.068 -0.6127  1.6611 -2.1968
17254TIP3   OH273252   0.696   5.929   2.314 -0.5566 -0.0267  0.3520
17254TIP3    H173253   0.676   6.016   2.277 -1.3971  0.5447  2.0258
17254TIP3    H273254   0.661   5.933   2.403  0.7120 -1.5971  0.9574
17255TIP3   OH273255   6.052   3.768   1.410 -0.0669  0.4586  0.8365
17255TIP3    H173256   6.026   3.796   1.322  0.6998  0.2378  0.5383
17255TIP3    H273257   5.980   3.711   1.438  0.2029 -0.3802 -0.0998
17256TIP3   OH273258   1.842   1.179   5.099 -0.2069 -0.2022 -0.8675
17256TIP3    H173259   1.880   1.186   5.012 -1.1261  2.8892 -1.1200
17256TIP3    H273260   1.771   1.115   5.090 -0.5579  0.3890 -2.4906
17257TIP3   OH273261   3.028   1.366   2.566  0.0380 -0.2240  0.1903
17257TIP3    H173262   3.065   1.284   2.533  1.1966  0.3006  0.1378
17257TIP3    H273263   3.007   1.348   2.657  0.5607 -0.5002  0.2619
17258TIP3   OH273264   0.902   3.173   2.107 -0.2133  0.3708  0.0263
17258TIP3    H173265   0.862   3.236   2.167 -0.3974  0.6206 -0.3529
17258TIP3    H273266   0.932   3.102   2.163  2.1945  1.8679  0.7740
17259TIP3   OH273267   0.274   0.170   1.961 -0.3289  0.8842  0.0107
17259TIP3    H173268   0.264   0.125   1.878  1.3704  1.9880 -0.8482
17259TIP3    H273269   0.270   0.263   1.938 -1.4394  1.2226  1.4062
17260TIP3   OH273270   5.246   5.521   4.228 -0.8854  0.3391  0.4798
17260TIP3    H173271   5.234   5.426   4.224 -4.5692  0.7004 -0.2090
17260TIP3    H273272   5.162   5.555   4.258  0.4088  3.4171  0.9996
17261TIP3   OH273273   0.082   6.492   4.032  0.2461 -0.2362  0.1818
17261TIP3    H173274   0.128   6.419   4.074 -1.2265 -1.7721 -0.7280
17261TIP3    H273275   0.009   6.510   4.090 -1.7165 -2.2723 -1.4678
17262TIP3   OH273276   0.747   0.497  14.394  0.1331  0.4596  0.0012
17262TIP3    H173277   0.838   0.471  14.388 -0.0573  0.0461 -1.3753
17262TIP3    H273278   0.714   0.492  14.305 -1.2175  0.7041  0.4561
17263TIP3   OH273279   2.643   3.425  11.441 -0.3797  0.2487  0.0200
17263TIP3    H173280   2.560   3.381  11.458 -0.6470  0.1536 -1.4700
17263TIP3    H273281   2.618   3.510  11.405  0.1408 -0.3052 -1.7425
17264TIP3   OH273282   3.299   0.069   3.860 -0.0200 -0.0714  0.5040
17264TIP3    H173283   3.319   0.061   3.767 -0.9990 -0.5540  0.3176
17264TIP3    H273284   3.257   0.155   3.869 -1.8150 -0.8442  0.1006
17265TIP3   OH273285   5.777   4.697   2.766  0.2002 -0.3559 -0.7191
17265TIP3    H173286   5.841   4.671   2.700 -0.5080  1.6483 -2.2924
17265TIP3    H273287   5.698   4.649   2.743 -0.1228  0.5425 -1.5213
17266TIP3   OH273288   4.033   2.477   2.663  1.1627  0.6636  0.3008
17266TIP3    H173289   4.006   2.537   2.733  0.6000  1.0528 -0.2419
17266TIP3    H273290   4.018   2.526   2.582  2.0612  0.3141 -0.0858
17267TIP3   OH273291   2.835   1.969   1.657 -0.1651  0.4152  0.0068
17267TIP3    H173292   2.905   1.928   1.606  0.7802  2.1706 -0.1913
17267TIP3    H273293   2.754   1.929   1.624  0.4985  0.6980 -2.0897
17268TIP3   OH273294   6.089   4.575   4.130  0.2415 -0.4817 -0.3383
17268TIP3    H173295   5.997   4.590   4.111  0.1196  2.3766  1.8298
17268TIP3    H273296   6.094   4.482   4.152 -2.4165 -0.4418  0.8303
17269TIP3   OH273297   5.685   1.456  12.638  0.4923  0.1241 -0.1343
17269TIP3    H173298   5.718   1.367  12.654 -1.0205 -0.2497  1.2427
17269TIP3    H273299   5.590   1.448  12.646  0.0898  1.3946 -2.6650
17270TIP3   OH273300   4.374   3.752   2.489 -0.5529  0.0581  0.2896
17270TIP3    H173301   4.386   3.836   2.445  0.6827  0.2685  0.9747
17270TIP3    H273302   4.437   3.693   2.446 -1.0436 -0.3790  0.1618
17271TIP3   OH273303   4.314   1.819  11.506 -0.5498  0.4879 -0.3320
17271TIP3    H173304   4.291   1.726  11.512  0.0099  0.3250 -0.6282
17271TIP3    H273305   4.237   1.860  11.467 -1.6544  0.5118  1.7300
17272TIP3   OH273306   3.332   1.606  11.840 -0.3055 -0.2042  0.0271
17272TIP3    H173307   3.298   1.564  11.761 -1.4172 -0.9933  0.8935
17272TIP3    H273308   3.302   1.697  11.834  0.4556 -0.0026 -0.9150
17273TIP3   OH273309   4.325   6.081   1.397 -0.2394  0.1257  0.1225
17273TIP3    H173310   4.238   6.112   1.370  0.0741  0.4278 -0.5614
17273TIP3    H273311   4.372   6.161   1.419 -0.2018 -0.0563  0.7223
17274TIP3   OH273312   2.770   1.985  15.247 -0.0813  0.2150 -0.4901
17274TIP3    H173313   2.851   2.027  15.216  0.4773 -0.1776  0.3946
17274TIP3    H273314   2.794   1.945  15.330 -0.6439 -1.7166 -1.2062
17275TIP3   OH273315   5.833   2.293   1.757  0.3157  0.5687  0.2357
17275TIP3    H173316   5.807   2.282   1.666  0.3201  0.6405  0.2259
17275TIP3    H273317   5.752   2.316   1.803  0.0531 -0.7343  0.4783
17276TIP3   OH273318   3.987   2.241   1.174  0.0979  0.1233 -0.5484
17276TIP3    H173319   3.927   2.290   1.117 -0.9122 -0.5774 -0.1211
17276TIP3    H273320   3.971   2.149   1.151  0.9968 -0.0722 -0.4040
17277TIP3   OH273321   4.456   3.582  15.038 -0.0683 -0.1547 -0.1530
17277TIP3    H173322   4.388   3.529  14.997  1.0951  0.6393 -3.3754
17277TIP3    H273323   4.537   3.554  14.995  0.9523  2.2924  0.0415
17278TIP3   OH273324   4.969   2.427  15.272 -0.2821 -0.1357 -0.3053
17278TIP3    H173325   4.904   2.394  15.334 -0.6225  0.7376 -0.1940
17278TIP3    H273326   4.929   2.413  15.186 -0.0192 -0.8826 -0.3170
17279TIP3   OH273327   6.310   6.377  13.234  0.3860  0.2732 -0.0849
17279TIP3    H173328   6.269   6.391  13.149 -1.8352  0.1962  0.8877
17279TIP3    H273329   6.400   6.351  13.214  0.3780  1.7467 -2.3267
17280TIP3   OH273330   0.670   3.496  16.984  0.7616 -0.0404 -0.4742
17280TIP3    H173331   0.676   3.515  17.078  1.7243  0.1723 -0.5681
17280TIP3    H273332   0.593   3.439  16.976  1.9125 -1.8990  0.7667
17281TIP3   OH273333   2.164   2.063  10.701  1.0759 -0.0504 -0.3749
17281TIP3    H173334   2.242   2.031  10.655  1.1341  2.0177 -1.8766
17281TIP3    H273335   2.091   2.040  10.644  0.3724 -2.7698  1.4383
17282TIP3   OH273336   1.555   2.479   3.128 -0.4892  0.1059 -0.3311
17282TIP3    H173337   1.587   2.561   3.089  1.3659 -0.1492  0.5219
17282TIP3    H273338   1.625   2.416   3.111 -1.0821 -0.8328  0.5960
17283TIP3   OH273339   0.146   1.116  14.001  0.1222  0.4049  0.2877
17283TIP3    H173340   0.154   1.142  14.093  0.0836 -1.6945  0.9585
17283TIP3    H273341   0.186   1.028  13.998  1.0319  0.8200 -1.9282
17284TIP3   OH273342   1.877   1.693  16.071 -0.7783  0.0745 -0.3118
17284TIP3    H173343   1.802   1.638  16.094 -0.1820 -0.8185 -0.4663
17284TIP3    H273344   1.947   1.631  16.052 -0.1034  0.8943 -0.5347
17285TIP3   OH273345   1.542   0.171   4.190  0.5567  0.4221  0.1612
17285TIP3    H173346   1.515   0.224   4.115  0.1924 -0.2801 -0.2169
17285TIP3    H273347   1.464   0.165   4.245  0.4699 -0.0605 -0.0056
17286TIP3   OH273348   3.872   3.099   3.342  0.3276  0.2916 -0.3942
17286TIP3    H173349   3.816   3.079   3.267  2.0401  0.2140 -1.7188
17286TIP3    H273350   3.904   3.014   3.372 -0.6019  0.2898  0.6799
17287TIP3   OH273351   4.938   3.414   4.170 -0.0042 -0.4962  0.6615
17287TIP3    H173352   4.970   3.467   4.097  0.4443  0.7093  1.6931
17287TIP3    H273353   4.842   3.425   4.168  0.0071 -0.4865  0.2442
17288TIP3   OH273354   0.056   1.329   3.091 -0.7171  0.5008 -0.2056
17288TIP3    H173355   0.112   1.313   3.166  1.3416 -0.1684 -1.7848
17288TIP3    H273356   0.065   1.423   3.073 -0.9331  0.5909  0.1471
17289TIP3   OH273357   1.982   6.599  15.849  0.1078 -0.0486  0.4615
17289TIP3    H173358   1.979   6.532  15.918 -0.4130 -0.4739  0.0345
17289TIP3    H273359   2.075   6.609  15.829  0.1351 -1.4609 -0.2465
17290TIP3   OH273360   0.180   4.706   3.616  0.0849  0.4504  0.2601
17290TIP3    H173361   0.261   4.667   3.585 -0.8101 -0.0663 -1.5792
17290TIP3    H273362   0.140   4.639   3.672  0.4343  0.3182  0.3519
17291TIP3   OH273363   0.071   4.975  15.788 -0.0554 -0.6445 -0.0581
17291TIP3    H173364   0.107   5.063  15.801 -1.4794 -0.1616  0.8299
17291TIP3    H273365   0.146   4.916  15.801  0.6744  0.3721  0.4910
17292TIP3   OH273366   6.341   5.359   1.523 -0.0409 -0.1164 -0.1836
17292TIP3    H173367   6.363   5.285   1.466  1.1637  0.2668 -0.2499
17292TIP3    H273368   6.352   5.436   1.467 -1.9323  0.1003 -0.3040
17293TIP3   OH273369   4.882   2.312  15.031 -0.2133 -1.1274  0.1667
17293TIP3    H173370   4.864   2.218  15.038  1.5421 -1.5797 -0.6612
17293TIP3    H273371   4.810   2.346  14.978 -2.0498 -1.5462  2.2325
17294TIP3   OH273372   1.289   0.325   5.899  0.1315  0.1695  0.2929
17294TIP3    H173373   1.370   0.275   5.899 -0.5021 -0.9140 -1.3412
17294TIP3    H273374   1.235   0.284   5.966  0.0343 -0.6606 -0.2848
17295TIP3   OH273375   6.675   5.713   0.027  0.7064 -0.4607 -0.2569
17295TIP3    H173376   6.638   5.737  -0.058 -0.1335 -1.9407 -0.3444
17295TIP3    H273377   6.745   5.777   0.042  1.2576 -0.5192 -2.3250
17296TIP3   OH273378   2.579   1.814   2.391 -0.1851 -0.4482  0.3680
17296TIP3    H173379   2.621   1.858   2.316 -1.3569  1.3259  0.6811
17296TIP3    H273380   2.590   1.875   2.464 -2.4504 -0.3033  0.6762
17297TIP3   OH273381   2.926   1.380   4.743 -0.1159  0.5015 -0.2013
17297TIP3    H173382   3.010   1.337   4.758  0.0872  1.1035  0.4768
17297TIP3    H273383   2.948   1.473   4.733 -0.7091  0.6752  0.0415
17298TIP3   OH273384   1.305   5.720   3.415  0.0996  0.3762  0.0996
17298TIP3    H173385   1.313   5.625   3.426 -0.7021  0.1740 -0.9264
17298TIP3    H273386   1.275   5.732   3.325  0.7640  1.6427  0.0187
17299TIP3   OH273387   4.289   0.910   1.363 -0.3660 -0.0231 -0.2195
17299TIP3    H173388   4.342   0.947   1.433  2.7134 -0.4232 -2.1629
17299TIP3    H273389   4.254   0.829   1.400 -1.4857  1.3099  1.8101
17300TIP3   OH273390   6.248   4.568   0.800 -0.1996 -0.0346  0.6966
17300TIP3    H173391   6.198   4.493   0.831  0.1411 -0.8927 -0.7389
17300TIP3    H273392   6.327   4.568   0.854 -1.1356  0.5983  2.1396
17301TIP3   OH273393   2.647   1.399  14.738 -0.3505 -0.6597 -0.0268
17301TIP3    H173394   2.663   1.353  14.820 -0.2323  2.0744  1.6182
17301TIP3    H273395   2.558   1.434  14.747  0.3175  1.2064 -0.1885
17302TIP3   OH273396   3.021   1.016  12.355  0.0716  0.3586 -0.0155
17302TIP3    H173397   2.995   1.061  12.274  0.4007 -0.3167 -0.5096
17302TIP3    H273398   2.967   0.937  12.356  0.3939  0.1415  0.1921
17303TIP3   OH273399   3.569   3.143  15.044  0.2889 -0.8738  0.3082
17303TIP3    H173400   3.636   3.200  15.080  0.6768 -1.1007 -0.0481
17303TIP3    H273401   3.609   3.056  15.044  0.1904 -0.9182 -0.4135
17304TIP3   OH273402   0.469   4.094   0.429 -0.1294  0.7023 -0.2666
17304TIP3    H173403   0.509   4.040   0.360 -2.2043 -1.5072  0.1169
17304TIP3    H273404   0.495   4.052   0.510  1.9346  3.0415  0.4081
17305TIP3   OH273405   6.657   3.223   6.135 -0.2626  0.3529 -0.3332
17305TIP3    H173406   6.592   3.254   6.071 -1.7717 -0.4884  0.7109
17305TIP3    H273407   6.726   3.183   6.081 -0.4340  1.5490 -1.4929
17306TIP3   OH273408   6.117   4.496  11.792 -0.5740 -0.3367 -0.6251
17306TIP3    H173409   6.196   4.520  11.839 -0.5557 -2.3363  0.5108
17306TIP3    H273410   6.139   4.507  11.700  0.1196  1.6067 -0.2735
17307TIP3   OH273411   4.239   1.631  13.199 -0.2740 -0.1343 -0.5708
17307TIP3    H173412   4.181   1.660  13.129 -0.8312  0.4139  0.1008
17307TIP3    H273413   4.182   1.588  13.262 -0.3706  2.2027  1.0980
17308TIP3   OH273414   6.160   4.106   2.883 -0.9245  0.7112  0.0854
17308TIP3    H173415   6.155   4.064   2.797  1.3001 -1.2683  0.8112
17308TIP3    H273416   6.216   4.183   2.868 -0.3280  0.2304 -0.2100
17309TIP3   OH273417   0.673   6.799   0.369 -0.1450 -0.0217  0.2481
17309TIP3    H173418   0.701   6.781   0.279 -1.0018  0.2950 -0.0984
17309TIP3    H273419   0.730   6.745   0.423 -0.9165 -1.8106 -0.6048
17310TIP3   OH273420   4.384   5.234   6.018 -0.3004 -0.2525 -0.0668
17310TIP3    H173421   4.382   5.330   6.021  3.1806 -0.0419 -0.4201
17310TIP3    H273422   4.392   5.208   6.110 -0.4476 -0.1552 -0.0259
17311TIP3   OH273423   3.258   0.134  12.898 -0.0295 -0.8744  0.0688
17311TIP3    H173424   3.279   0.213  12.848  0.0937 -0.1240  1.2386
17311TIP3    H273425   3.180   0.098  12.856 -0.3139  0.1023 -0.2642
17312TIP3   OH273426   6.819   3.141  13.300 -0.0381 -0.2729  0.6743
17312TIP3    H173427   6.863   3.086  13.235 -0.3163 -0.5161  0.6917
17312TIP3    H273428   6.735   3.161  13.261 -0.0061 -0.0017  0.7448
17313TIP3   OH273429   0.338   5.367  15.786 -0.0584 -0.6556 -0.4746
17313TIP3    H173430   0.392   5.371  15.706 -0.7883 -0.7133 -0.9776
17313TIP3    H273431   0.371   5.290  15.833  1.3297  0.1853 -0.0096
17314TIP3   OH273432   4.294   1.250   0.391 -0.2921 -0.6122 -0.0947
17314TIP3    H173433   4.331   1.306   0.322  0.4028 -0.3744  0.4673
17314TIP3    H273434   4.212   1.218   0.353 -0.5203  0.4793 -0.5834
17315TIP3   OH273435   6.097   2.917  15.143 -0.2523  0.0213  0.9139
17315TIP3    H173436   6.137   2.880  15.222 -0.8372 -1.1659  0.6773
17315TIP3    H273437   6.003   2.913  15.159 -0.4679 -1.9173 -0.5359
17316TIP3   OH273438   0.997   5.820   3.406 -0.6393 -0.2332  0.0931
17316TIP3    H173439   0.903   5.830   3.420 -0.7121 -0.1403 -0.4328
17316TIP3    H273440   1.028   5.769   3.481 -1.0770 -0.1118  0.3579
17317TIP3   OH273441   3.993   5.657   5.358  0.3732 -0.3799  0.3400
17317TIP3    H173442   4.076   5.623   5.326  1.7567  1.1154  2.1478
17317TIP3    H273443   3.928   5.621   5.297  2.3533 -1.1376 -1.4614
17318TIP3   OH273444   6.712   5.611   3.993  0.3439  0.1433  0.5458
17318TIP3    H173445   6.623   5.581   4.011  0.1193  0.6139  0.2113
17318TIP3    H273446   6.730   5.677   4.060 -0.5326  1.9776 -0.9569
17319TIP3   OH273447   6.129   0.458  11.308  0.1873  0.2414  0.3619
17319TIP3    H173448   6.209   0.479  11.355  0.7768 -0.0222 -0.5097
17319TIP3    H273449   6.098   0.376  11.348  1.1529 -0.4474 -0.2748
17320TIP3   OH273450   5.338   5.449  11.774  0.2219 -1.2162 -0.5632
17320TIP3    H173451   5.244   5.427  11.778  0.0687 -0.6105 -0.6882
17320TIP3    H273452   5.343   5.518  11.708  0.3932  0.5527  1.2103
17321TIP3   OH273453   3.952   3.925   5.195 -0.0675 -0.6070 -0.3348
17321TIP3    H173454   4.021   3.894   5.135  1.2907 -0.7862  1.2618
17321TIP3    H273455   3.929   4.011   5.161  0.7974 -0.6274 -1.0342
17322TIP3   OH273456   3.725   3.948  17.002  0.2776  0.0452  1.0128
17322TIP3    H173457   3.703   3.933  16.909 -0.1655  1.5294  0.8394
17322TIP3    H273458   3.643   3.931  17.048  0.9042 -2.2889  1.3669
17323TIP3   OH273459   1.399   4.757   3.836 -0.1899  0.0931 -0.7350
17323TIP3    H173460   1.436   4.813   3.904 -1.7059 -1.2288  1.3299
17323TIP3    H273461   1.313   4.795   3.818 -0.1644 -0.0782 -1.2220
17324TIP3   OH273462   6.003   2.916   2.158 -0.4617  0.0368  0.1285
17324TIP3    H173463   5.986   2.822   2.154 -0.3302  0.0450 -2.5135
17324TIP3    H273464   6.026   2.940   2.069  2.7736  2.0162  1.3214
17325TIP3   OH273465   5.768   0.504   4.852  0.0197  0.2599 -0.1938
17325TIP3    H173466   5.717   0.425   4.871 -0.8950  1.2376  1.6578
17325TIP3    H273467   5.718   0.549   4.783  0.2310 -0.4581 -0.8291
17326TIP3   OH273468   1.620   6.086  11.369  0.3138  0.4468  0.2677
17326TIP3    H173469   1.667   6.140  11.305  1.5551  0.1266  0.8935
17326TIP3    H273470   1.676   6.010  11.383 -1.7910 -1.5712 -1.2796
17327TIP3   OH273471   1.280   2.978  13.654  0.2675  0.4409  0.9645
17327TIP3    H173472   1.185   2.978  13.665  0.2805 -0.9778  1.2452
17327TIP3    H273473   1.293   3.020  13.569 -0.6612 -0.0065  0.5815
17328TIP3   OH273474   0.189   3.101   4.387  0.0238 -0.4041  0.8069
17328TIP3    H173475   0.109   3.150   4.366  1.2160  0.8566 -0.9614
17328TIP3    H273476   0.167   3.011   4.364 -0.3711  0.1817 -1.3422
17329TIP3   OH273477   4.309   4.589  16.440 -0.6298 -0.3382  0.0045
17329TIP3    H173478   4.308   4.493  16.438  1.1482 -0.3812 -0.3401
17329TIP3    H273479   4.310   4.611  16.533  0.1336 -0.6979  0.0878
17330TIP3   OH273480   1.132   6.312  11.913 -0.3157  0.1978  0.0816
17330TIP3    H173481   1.184   6.323  11.992  0.1398 -2.2607  0.1847
17330TIP3    H273482   1.047   6.281  11.944 -0.8546  1.2335 -0.2984
17331TIP3   OH273483   4.784   1.278  14.514 -0.1470 -0.2579  0.1868
17331TIP3    H173484   4.710   1.263  14.455  0.9661 -1.3139 -0.9883
17331TIP3    H273485   4.766   1.222  14.589 -0.9226  0.1095  0.2938
17332TIP3   OH273486   3.103   2.478  10.358 -0.7343  0.0019 -0.2677
17332TIP3    H173487   3.093   2.467  10.453 -1.9422 -0.4149 -0.4336
17332TIP3    H273488   3.161   2.406  10.332  0.5665  0.7977  0.3006
17333TIP3   OH273489   2.072   1.273   2.108  0.2826 -0.1078 -0.1666
17333TIP3    H173490   2.036   1.336   2.171 -0.3601 -1.9921  1.4260
17333TIP3    H273491   2.003   1.264   2.042 -0.7196 -1.0313  0.9748
17334TIP3   OH273492   3.281   2.672   5.477 -0.7856 -0.3030  0.2104
17334TIP3    H173493   3.189   2.692   5.492 -0.8287  0.0152 -0.4740
17334TIP3    H273494   3.325   2.703   5.557 -1.3195 -0.9010  0.7532
17335TIP3   OH273495   4.066   4.308   1.359  0.0039  0.0289 -0.0370
17335TIP3    H173496   4.126   4.314   1.433 -1.0785  3.0079  0.7423
17335TIP3    H273497   4.084   4.386   1.307 -2.4911  0.5302 -0.2800
17336TIP3   OH273498   3.679   6.186   1.769 -0.2288  0.8331  0.2463
17336TIP3    H173499   3.759   6.239   1.767  2.3503 -2.6970 -1.9327
17336TIP3    H273500   3.653   6.185   1.861  1.3181  3.3272  0.8034
17337TIP3   OH273501   4.400   6.200   4.220  0.2498 -0.5692 -0.0492
17337TIP3    H173502   4.430   6.279   4.266  1.1874 -0.5190 -0.7233
17337TIP3    H273503   4.319   6.227   4.176  0.3620 -0.0948  0.0322
17338TIP3   OH273504   2.824   5.809   2.531  0.6451  0.7131 -0.3132
17338TIP3    H173505   2.789   5.892   2.500 -0.8211  0.6355  1.0062
17338TIP3    H273506   2.863   5.830   2.616  0.7129  0.1443 -0.1999
17339TIP3   OH273507   2.823   3.394  15.359  0.4445 -0.1929 -0.0331
17339TIP3    H173508   2.886   3.444  15.308  0.4789  0.8068  0.9509
17339TIP3    H273509   2.795   3.323  15.301  2.0679 -0.3447 -0.6743
17340TIP3   OH273510   1.921   3.993   3.243 -0.0390 -0.4668 -0.0766
17340TIP3    H173511   1.859   4.065   3.233  0.6999  0.0958 -0.6736
17340TIP3    H273512   1.989   4.027   3.300  0.6720 -0.4361 -0.9150
17341TIP3   OH273513   4.668   4.965   0.808 -0.1242  0.0183 -0.1169
17341TIP3    H173514   4.644   5.030   0.742  0.2255 -1.8435 -2.1700
17341TIP3    H273515   4.763   4.974   0.818 -0.4018  1.7615  1.8751
17342TIP3   OH273516   4.345   6.236  16.463 -0.5271 -0.1734 -0.3845
17342TIP3    H173517   4.387   6.267  16.543  0.2995 -0.8571 -0.5457
17342TIP3    H273518   4.355   6.308  16.401 -0.5791  0.0975 -0.0817
17343TIP3   OH273519   4.512   0.514   1.319 -0.4302  0.2791 -0.1970
17343TIP3    H173520   4.450   0.457   1.273 -1.1048  1.1091 -0.3507
17343TIP3    H273521   4.562   0.556   1.249  1.1421 -1.2287 -0.0596
17344TIP3   OH273522   5.313   4.676  11.089 -0.1451 -0.2596 -0.4018
17344TIP3    H173523   5.230   4.693  11.133  0.7551  0.5525  1.0543
17344TIP3    H273524   5.288   4.634  11.006 -2.1689  2.0056 -1.0831
17345TIP3   OH273525   6.349   0.478  15.694  0.4779  0.5169  0.1367
17345TIP3    H173526   6.417   0.545  15.702 -1.4165  2.4159  1.4629
17345TIP3    H273527   6.312   0.471  15.782 -2.0352  0.7141 -0.8399
17346TIP3   OH273528   3.002   2.677  16.358 -0.6477 -0.5023  0.0809
17346TIP3    H173529   2.946   2.602  16.337 -1.0493 -0.5363  1.2426
17346TIP3    H273530   2.974   2.745  16.296 -0.8706 -1.0330 -0.4109
17347TIP3   OH273531   3.993   3.324  16.428 -0.1382  0.0119  0.2338
17347TIP3    H173532   3.940   3.263  16.481  0.3677 -1.9971 -1.4369
17347TIP3    H273533   3.935   3.398  16.412 -1.3964 -0.7858  0.9199
17348TIP3   OH273534   5.100   3.677   1.294  0.4929  0.1493  0.0161
17348TIP3    H173535   5.029   3.697   1.356  2.3269  0.0064  2.3275
17348TIP3    H273536   5.158   3.753   1.299  1.5623 -0.6206 -0.1396
17349TIP3   OH273537   3.521   2.237  12.321 -0.0448  0.1715  0.2709
17349TIP3    H173538   3.465   2.216  12.247  2.1445  0.2650 -1.5227
17349TIP3    H273539   3.475   2.201  12.397 -2.1712 -0.3053 -1.1479
17350TIP3   OH273540   0.293   0.909   0.309  0.8152  0.0728 -0.2170
17350TIP3    H173541   0.383   0.898   0.341  0.8691  1.2540  0.0866
17350TIP3    H273542   0.240   0.854   0.367  1.3400 -0.7515 -0.4937
17351TIP3   OH273543   2.895   1.072   0.499  0.4445 -0.2472  0.3526
17351TIP3    H173544   2.820   1.100   0.551 -0.0414  1.9606 -1.3742
17351TIP3    H273545   2.970   1.079   0.558 -0.4646 -0.8166  1.6022
17352TIP3   OH273546   2.447   4.224  14.167  0.4796 -0.1080 -0.0508
17352TIP3    H173547   2.490   4.306  14.145  1.1447 -0.1574  0.9998
17352TIP3    H273548   2.514   4.157  14.150 -0.3807 -0.5728 -1.8979
17353TIP3   OH273549   4.181   5.676  16.789 -0.0082  0.4645  0.0385
17353TIP3    H173550   4.276   5.675  16.774  0.1449  3.4424  0.1910
17353TIP3    H273551   4.169   5.739  16.860 -2.1286  0.1161  0.0451
17354TIP3   OH273552   4.557   5.521  12.607 -0.0773 -0.2453  0.1714
17354TIP3    H173553   4.463   5.522  12.588 -0.0024 -0.1234 -0.1985
17354TIP3    H273554   4.584   5.431  12.585  0.0799 -0.0019 -0.6756
17355TIP3   OH273555   6.673   1.005  12.349 -0.2483 -0.1490  1.0191
17355TIP3    H173556   6.631   1.083  12.386 -0.6004  0.0439  0.2376
17355TIP3    H273557   6.602   0.960  12.303  0.1962 -0.3372  0.5131
17356TIP3   OH273558   0.714   0.665  11.579 -0.5219 -0.3293 -0.4419
17356TIP3    H173559   0.699   0.666  11.673  0.4758 -1.2448 -0.2638
17356TIP3    H273560   0.689   0.753  11.550  1.2003  0.6941  1.0090
17357TIP3   OH273561   2.414   2.478  16.799 -0.1222  0.3345 -0.2263
17357TIP3    H173562   2.509   2.486  16.809  0.0348 -2.3175  1.3706
17357TIP3    H273563   2.399   2.385  16.785 -2.5519  0.5928  0.2251
17358TIP3   OH273564   5.769   5.596  12.077  1.0051 -0.3009 -0.4043
17358TIP3    H173565   5.854   5.559  12.053  1.0241 -1.9695  1.8481
17358TIP3    H273566   5.711   5.569  12.006  1.3498 -3.5900  0.3669
17359TIP3   OH273567   5.173   4.045   3.947 -0.2853  0.1481  0.2584
17359TIP3    H173568   5.183   3.956   3.980 -2.2254 -0.6176 -1.0021
17359TIP3    H273569   5.089   4.044   3.901  0.6749  2.0046 -1.7470
17360TIP3   OH273570   3.569   6.820  16.969 -0.2485 -0.0056  0.1262
17360TIP3    H173571   3.502   6.829  16.901  1.1484  0.6477 -1.2206
17360TIP3    H273572   3.645   6.866  16.935  0.9844 -0.8940  1.5147
17361TIP3   OH273573   0.753   2.754   1.552  0.1848 -0.8131  0.1820
17361TIP3    H173574   0.669   2.713   1.576  0.8458 -1.2453  1.9073
17361TIP3    H273575   0.819   2.690   1.578  1.2073  0.9457  2.1944
17362TIP3   OH273576   6.809   4.830   5.638 -0.1162  0.0156  0.5902
17362TIP3    H173577   6.903   4.825   5.659 -0.2697 -1.2095  1.1026
17362TIP3    H273578   6.774   4.892   5.702  0.1577 -0.4187  1.1810
17363TIP3   OH273579   2.052   1.340  14.383 -0.5549 -0.5645  0.6362
17363TIP3    H173580   2.123   1.333  14.447 -1.3697  0.7280  1.7487
17363TIP3    H273581   1.974   1.313  14.432 -0.8559 -2.0132 -0.5788
17364TIP3   OH273582   1.804   3.373   3.886 -0.2547  0.6986 -0.4393
17364TIP3    H173583   1.777   3.425   3.810  0.4290  1.0950 -0.4147
17364TIP3    H273584   1.762   3.417   3.960 -2.5813 -0.8234 -0.7300
17365TIP3   OH273585   1.182   0.822   1.000 -0.2069  0.5046  0.0255
17365TIP3    H173586   1.246   0.771   0.950  0.8070  0.6291  1.1538
17365TIP3    H273587   1.120   0.854   0.934  1.3504  1.0731 -1.2402
17366TIP3   OH273588   1.958   2.062   1.725  0.1178  0.4891 -0.6789
17366TIP3    H173589   2.023   2.099   1.785 -0.4516  0.5898 -0.1217
17366TIP3    H273590   2.008   2.043   1.646  0.4202  2.6356 -1.0731
17367TIP3   OH273591   4.820   1.374   5.688  0.2708 -0.2022  0.1155
17367TIP3    H173592   4.752   1.417   5.739 -1.2762  0.0379 -2.0228
17367TIP3    H273593   4.886   1.441   5.674 -0.0945  0.2144  0.3841
17368TIP3   OH273594   1.183   4.838   4.893  0.9279  0.1719 -0.4169
17368TIP3    H173595   1.273   4.808   4.880  0.8534 -0.8625  1.1330
17368TIP3    H273596   1.180   4.867   4.984 -0.5916 -1.0169 -0.0312
17369TIP3   OH273597   4.214   0.174  17.042 -0.3753 -0.9588  0.0654
17369TIP3    H173598   4.263   0.097  17.070 -0.6710 -0.8611  0.8916
17369TIP3    H273599   4.141   0.140  16.990  0.6758 -1.0918 -1.3840
17370TIP3   OH273600   5.026   0.594   0.888 -0.4376  0.4530  0.0570
17370TIP3    H173601   5.092   0.647   0.843 -0.4564  0.0301 -0.4805
17370TIP3    H273602   4.978   0.656   0.942 -0.9630  1.1247 -1.1402
17371TIP3   OH273603   1.508   2.128   1.979  0.3995 -0.3751 -0.0436
17371TIP3    H173604   1.429   2.176   2.004  1.0299  0.3398  0.6032
17371TIP3    H273605   1.484   2.036   1.989  0.3280 -0.1544  2.3824
17372TIP3   OH273606   1.627   0.736   4.519  0.1653  0.1160  0.3481
17372TIP3    H173607   1.622   0.804   4.452 -0.9395 -1.2980 -1.0979
17372TIP3    H273608   1.597   0.657   4.475 -0.2974 -0.9620  2.4538
17373TIP3   OH273609   3.767   6.757   4.244 -0.1668  0.8457  0.0739
17373TIP3    H173610   3.739   6.673   4.282 -0.5177  1.3315  0.9174
17373TIP3    H273611   3.738   6.823   4.308  1.9337  1.4756  0.4491
17374TIP3   OH273612   6.103   3.098  12.665  0.1184 -0.0760  0.9375
17374TIP3    H173613   6.044   3.046  12.720 -1.4601  0.5515 -0.0770
17374TIP3    H273614   6.086   3.189  12.691 -0.9181  0.2595 -0.7396
17375TIP3   OH273615   6.665   3.079  11.357 -0.6231  0.4804 -0.3119
17375TIP3    H173616   6.665   3.042  11.269  0.0823  0.0913 -0.1560
17375TIP3    H273617   6.752   3.118  11.367 -1.3260  2.1318 -0.4437
17376TIP3   OH273618   2.147   4.278   5.078 -0.4305 -0.0028  0.4090
17376TIP3    H173619   2.142   4.351   5.016 -2.2781 -1.1379 -0.9100
17376TIP3    H273620   2.065   4.282   5.126  0.0829 -0.3683  1.3340
17377TIP3   OH273621   5.901   0.539  15.069  0.4490  0.3532  0.4203
17377TIP3    H173622   5.940   0.595  15.137 -0.7186  0.8432  0.7258
17377TIP3    H273623   5.901   0.452  15.107  1.5209  0.2748  0.2788
17378TIP3   OH273624   3.410   0.563  15.157 -0.7573 -0.5907  0.2026
17378TIP3    H173625   3.494   0.559  15.203 -0.9341  1.2028  0.7751
17378TIP3    H273626   3.427   0.522  15.072  0.4275 -1.1486  0.6852
17379TIP3   OH273627   2.003   4.249  15.998 -0.3173  0.1399  0.0349
17379TIP3    H173628   1.930   4.305  15.974 -0.5839 -0.1299  0.2101
17379TIP3    H273629   1.977   4.209  16.081  0.2925  0.5225  0.4231
17380TIP3   OH273630   3.561   6.269  11.771 -0.0934 -0.3139 -0.1058
17380TIP3    H173631   3.573   6.210  11.696  1.3804 -0.9882  0.6316
17380TIP3    H273632   3.647   6.308  11.785 -1.0881  2.2905 -0.7434
17381TIP3   OH273633   5.893   3.316   0.097  0.0512 -0.1056  0.4371
17381TIP3    H173634   5.913   3.408   0.115 -0.8664 -0.0860  1.4407
17381TIP3    H273635   5.927   3.269   0.173 -0.8850 -0.4120  0.6764
17382TIP3   OH273636   5.222   2.264  16.627 -0.3426  0.5858 -0.3095
17382TIP3    H173637   5.214   2.306  16.541 -0.1017 -0.9129 -1.1011
17382TIP3    H273638   5.316   2.251  16.639 -0.4644 -0.5107 -0.4871
17383TIP3   OH273639   5.671   6.507  13.242  0.0879 -0.3884  0.3741
17383TIP3    H173640   5.695   6.573  13.307  0.4474  0.6181 -0.7327
17383TIP3    H273641   5.754   6.471  13.212  0.0097 -0.0352 -0.3082
17384TIP3   OH273642   3.779   6.339  13.674 -0.2354 -0.7436  0.3451
17384TIP3    H173643   3.848   6.302  13.730 -0.8122 -2.2132  0.1261
17384TIP3    H273644   3.699   6.329  13.725 -0.5901 -1.0026 -0.2450
17385TIP3   OH273645   5.085   1.933   1.206 -0.3008  0.2506  0.3227
17385TIP3    H173646   5.097   1.862   1.269 -0.0331  0.1909  0.2068
17385TIP3    H273647   4.994   1.926   1.179 -0.4098  0.2616  0.6830
17386TIP3   OH273648   0.216   1.891  15.884 -0.3204  0.2473  0.0536
17386TIP3    H173649   0.264   1.847  15.955 -0.9234 -1.3616 -0.4777
17386TIP3    H273650   0.124   1.880  15.909 -0.5333 -0.2326 -0.8966
17387TIP3   OH273651   4.856   5.611  13.810  0.0321 -0.4912  0.1878
17387TIP3    H173652   4.811   5.608  13.726  0.2740  1.3816 -0.0572
17387TIP3    H273653   4.789   5.642  13.872 -0.2380 -2.1799  0.7838
17388TIP3   OH273654   4.887   5.387   3.476 -0.4562  0.1587 -0.1235
17388TIP3    H173655   4.912   5.298   3.451  1.6831  0.2034  1.5336
17388TIP3    H273656   4.882   5.435   3.394  0.7632 -0.9519 -0.8888
17389TIP3   OH273657   2.565   2.751  13.967 -0.9174 -0.8360 -0.6575
17389TIP3    H173658   2.487   2.728  14.017 -0.6809 -0.2382  0.0139
17389TIP3    H273659   2.632   2.689  13.997 -0.8100 -0.5590 -0.3110
17390TIP3   OH273660   6.153   0.130   4.627  0.1912  0.3370 -0.1987
17390TIP3    H173661   6.209   0.056   4.649 -1.4747 -0.3311  2.2805
17390TIP3    H273662   6.093   0.138   4.702 -1.8723  2.0730 -1.8782
17391TIP3   OH273663   5.122   4.593   5.114 -0.1170  0.8332 -0.5392
17391TIP3    H173664   5.172   4.671   5.092 -2.2897  2.2900 -0.6688
17391TIP3    H273665   5.125   4.539   5.035  0.1357  1.5209 -1.0044
17392TIP3   OH273666   6.316   1.004   0.451  0.1996  0.2588 -0.2929
17392TIP3    H173667   6.320   1.100   0.447 -0.6960  0.3119 -0.1578
17392TIP3    H273668   6.352   0.982   0.537 -0.2963  0.5302 -0.0086
17393TIP3   OH273669   6.123   6.477  15.749 -0.2406  0.2393  0.4051
17393TIP3    H173670   6.053   6.521  15.798 -1.0353  1.7495 -1.9284
17393TIP3    H273671   6.078   6.436  15.675  1.2690  1.0826 -1.0378
17394TIP3   OH273672   4.976   6.457  15.953  0.1479  0.1566 -0.1395
17394TIP3    H173673   4.950   6.468  16.044  1.9358  1.7391  0.2435
17394TIP3    H273674   5.004   6.366  15.946  0.2939  0.1013  0.9857
17395TIP3   OH273675   0.472   1.337  11.976  0.9470 -0.1656 -0.4162
17395TIP3    H173676   0.411   1.379  11.915  1.4922  0.1595 -0.7443
17395TIP3    H273677   0.502   1.258  11.931 -0.8161 -1.4753  0.5860
17396TIP3   OH273678   2.688   3.016   2.667  0.4598 -0.5955  0.4442
17396TIP3    H173679   2.725   3.103   2.654  1.9824 -1.1600  0.7967
17396TIP3    H273680   2.656   2.990   2.580  1.1806 -0.1978  0.0517
17397TIP3   OH273681   6.522   5.224  13.169  0.0349  0.1597  0.0809
17397TIP3    H173682   6.515   5.243  13.263  1.4589  2.2171 -0.1367
17397TIP3    H273683   6.483   5.301  13.126  1.5714  0.4120 -0.9609
17398TIP3   OH273684   5.753   4.835   4.202  0.4093  0.0613  0.2539
17398TIP3    H173685   5.748   4.821   4.297  0.6727 -0.2371  0.2255
17398TIP3    H273686   5.680   4.783   4.167 -0.5090  1.2197  0.3922
17399TIP3   OH273687   2.517   5.671   1.057  0.0352 -0.0405 -0.2281
17399TIP3    H173688   2.504   5.725   1.135 -0.2509 -0.3144 -0.0856
17399TIP3    H273689   2.478   5.587   1.079 -3.5484  0.9909 -2.0112
17400TIP3   OH273690   3.872   4.746  16.265 -0.7261 -0.2004  0.0182
17400TIP3    H173691   3.834   4.693  16.196 -1.3632  0.0892  0.1385
17400TIP3    H273692   3.966   4.745  16.248 -0.6754 -1.6816  0.2464
17401TIP3   OH273693   5.305   6.178   6.783  0.2768 -0.4469  0.4455
17401TIP3    H173694   5.383   6.192   6.728  0.4319 -1.5005  0.3854
17401TIP3    H273695   5.257   6.261   6.777  1.0576 -0.0120 -0.0500
17402TIP3   OH273696   3.940   2.783   4.687 -0.0331  0.1727 -0.2055
17402TIP3    H173697   4.003   2.752   4.622  2.0978  1.7660  0.9697
17402TIP3    H273698   3.976   2.755   4.771 -0.4446  1.8040  0.5582
17403TIP3   OH273699   2.495   6.132   5.113  0.2459 -0.1174 -0.4635
17403TIP3    H173700   2.432   6.076   5.069 -1.1023  0.9028  0.1232
17403TIP3    H273701   2.446   6.175   5.183  1.5100  0.9243 -0.1672
17404TIP3   OH273702   3.390   1.756   1.582  0.5080 -0.2357 -0.0730
17404TIP3    H173703   3.337   1.677   1.594 -0.6403 -0.2059 -3.6976
17404TIP3    H273704   3.477   1.723   1.562  0.3631 -0.5615 -0.1832
17405TIP3   OH273705   1.924   3.702  13.590 -0.2059  0.1465 -0.2681
17405TIP3    H173706   1.904   3.629  13.532 -2.6403 -0.0911  0.7322
17405TIP3    H273707   1.993   3.670  13.648 -2.1013 -1.9387  1.0002
17406TIP3   OH273708   1.574   0.693  15.745 -0.0655 -0.0368 -0.0970
17406TIP3    H173709   1.603   0.605  15.769  0.8080  0.2328 -0.1284
17406TIP3    H273710   1.484   0.699  15.778  0.6523 -0.1162  1.9683
17407TIP3   OH273711   1.279   6.637  16.904  0.0098  0.4151  0.4834
17407TIP3    H173712   1.320   6.648  16.990 -1.9423  3.4669  1.1742
17407TIP3    H273713   1.218   6.710  16.897 -1.1263 -0.6742 -2.8530
17408TIP3   OH273714   1.174   4.352   0.933 -0.0058  0.7393 -0.0157
17408TIP3    H173715   1.159   4.269   0.978  1.1370 -0.7342 -2.1608
17408TIP3    H273716   1.269   4.364   0.933  0.0212  0.8471 -1.6586
17409TIP3   OH273717   2.266   5.134  13.648  0.1285  0.5081 -0.3134
17409TIP3    H173718   2.205   5.176  13.708  0.8241 -1.0381  1.6009
17409TIP3    H273719   2.259   5.184  13.567 -1.8052  1.8990  0.6386
17410TIP3   OH273720   0.721   3.039   1.217  0.3871  0.3151  0.7746
17410TIP3    H173721   0.646   2.979   1.210  1.2855 -0.6884 -0.9712
17410TIP3    H273722   0.782   2.993   1.275  0.1695  0.5607  1.2003
17411TIP3   OH273723   5.608   4.482  12.601  0.2761 -0.6667  0.0035
17411TIP3    H173724   5.663   4.457  12.526  0.7207 -0.4738  0.2620
17411TIP3    H273725   5.519   4.468  12.571  0.3823  0.7265 -1.0511
17412TIP3   OH273726   1.365   0.590  16.118  0.5158 -0.5585  0.4116
17412TIP3    H173727   1.337   0.508  16.158  1.6261 -0.7620  0.8144
17412TIP3    H273728   1.459   0.577  16.101  0.7284  0.6629  0.5927
17413TIP3   OH273729   1.798   4.591   2.248 -0.8458  0.0252  0.2418
17413TIP3    H173730   1.717   4.597   2.300 -2.2846  0.4469 -1.9095
17413TIP3    H273731   1.774   4.628   2.163  2.2326  2.1535  0.1541
17414TIP3   OH273732   5.229   0.073  12.453  0.0160  0.1475  0.1169
17414TIP3    H173733   5.269   0.081  12.540  0.2216 -2.2442  0.3178
17414TIP3    H273734   5.275   0.138  12.400 -0.4452  2.0275  1.8473
17415TIP3   OH273735   4.726   3.216   2.752  0.2061  0.4665  0.0343
17415TIP3    H173736   4.818   3.227   2.774  0.0256  1.2478  0.4261
17415TIP3    H273737   4.726   3.151   2.681  1.1556  1.3664 -0.8349
17416TIP3   OH273738   1.903   3.095  11.192 -0.0421  0.0258 -0.4172
17416TIP3    H173739   1.884   3.108  11.285 -1.0842 -2.6772 -0.1519
17416TIP3    H273740   1.818   3.098  11.149  0.0284 -1.7813 -0.7805
17417TIP3   OH273741   4.086   3.835  16.120  0.4008  0.1328  0.6680
17417TIP3    H173742   4.180   3.848  16.110  0.4495  0.7128  1.7719
17417TIP3    H273743   4.075   3.740  16.115  1.1894 -0.0208  1.5972
17418TIP3   OH273744   4.474   4.400  16.107 -0.1474 -0.0982  0.0249
17418TIP3    H173745   4.394   4.443  16.077 -0.3020 -0.3235  0.1106
17418TIP3    H273746   4.461   4.386  16.200 -0.8118 -1.8151 -0.2837
17419TIP3   OH273747   0.886   6.447  12.962 -0.1497 -0.0782 -0.0463
17419TIP3    H173748   0.818   6.411  12.905  2.0128 -2.4103 -1.4022
17419TIP3    H273749   0.913   6.373  13.017  0.6719  1.0215  1.0866
17420TIP3   OH273750   3.332   5.790   4.978  0.2695  0.0121 -0.2611
17420TIP3    H173751   3.308   5.756   4.892 -0.5172 -0.4159  0.1155
17420TIP3    H273752   3.326   5.885   4.968  1.6346  0.0484 -1.0744
17421TIP3   OH273753   5.929   4.202   2.408 -0.0030 -0.5449 -0.8662
17421TIP3    H173754   5.934   4.291   2.372 -0.4743 -0.3934 -0.5626
17421TIP3    H273755   6.005   4.195   2.465  0.3527 -0.5364 -1.3364
17422TIP3   OH273756   6.254   0.206   0.088  0.0733  0.0808  0.1958
17422TIP3    H173757   6.222   0.283   0.042  0.7705 -0.4941 -1.3033
17422TIP3    H273758   6.231   0.133   0.031  0.8044 -0.6762  0.8456
17423TIP3   OH273759   5.326   3.449  16.946 -0.1311  0.1533 -0.2455
17423TIP3    H173760   5.333   3.366  16.900 -0.6142 -1.0038  1.6465
17423TIP3    H273761   5.243   3.443  16.994  0.7144  0.8994  1.4196
17424TIP3   OH273762   5.317   1.048  15.081  0.6566  0.1901 -0.0361
17424TIP3    H173763   5.348   0.996  15.006  0.1316 -1.2750  0.7250
17424TIP3    H273764   5.395   1.063  15.134  0.7199 -0.2774  0.0034
17425TIP3   OH273765   4.903   5.008  14.665  0.1044 -0.0917  0.0014
17425TIP3    H173766   4.911   4.915  14.647 -2.4467  0.0579 -2.7762
17425TIP3    H273767   4.966   5.050  14.606 -1.2265 -0.0138 -1.4478
17426TIP3   OH273768   1.823   2.060   2.069 -0.2674 -0.0690  0.0812
17426TIP3    H173769   1.859   2.149   2.066  0.5718 -0.4085 -0.1621
17426TIP3    H273770   1.737   2.068   2.028 -1.0652  1.0147  1.8481
17427TIP3   OH273771   1.003   1.448   1.344  0.0674  0.2871 -0.0437
17427TIP3    H173772   1.023   1.355   1.335 -0.3968  0.2690 -1.1721
17427TIP3    H273773   0.919   1.458   1.298 -0.3455  1.1003  0.8548
17428TIP3   OH273774   4.649   2.720   0.056  0.3497 -0.2548 -0.1250
17428TIP3    H173775   4.720   2.780   0.077  1.3291 -0.7349 -1.9106
17428TIP3    H273776   4.689   2.653   0.001 -1.5114 -0.4014 -1.3920
17429TIP3   OH273777   5.976   3.481  15.019 -0.3960  0.2546 -0.3740
17429TIP3    H173778   5.948   3.532  14.943  0.8217  1.9294  0.2426
17429TIP3    H273779   6.041   3.419  14.985 -0.7524  0.1615 -0.8845
17430TIP3   OH273780   4.999   4.155  14.702 -0.0034  0.1926  0.0282
17430TIP3    H173781   4.987   4.110  14.787  1.0319  1.3891  0.8408
17430TIP3    H273782   4.936   4.227  14.705 -1.0415 -0.6273 -0.9097
17431TIP3   OH273783   2.311   1.262   6.583 -0.4970 -0.2185  0.2203
17431TIP3    H173784   2.356   1.184   6.549  0.2990  0.7920 -1.1316
17431TIP3    H273785   2.244   1.282   6.518  0.0206  0.8476 -0.0010
17432TIP3   OH273786   2.914   1.272   0.833 -0.0253 -0.2389 -0.3525
17432TIP3    H173787   2.947   1.186   0.856 -1.0132  0.2036  3.4038
17432TIP3    H273788   2.988   1.331   0.848 -0.6353  0.0340  2.0853
17433TIP3   OH273789   4.650   3.165  12.154 -0.4320  0.6410 -0.9695
17433TIP3    H173790   4.599   3.103  12.101 -0.1236  2.3192 -3.3754
17433TIP3    H273791   4.587   3.233  12.177 -0.2161  0.6365 -0.3490
17434TIP3   OH273792   2.038   0.097   5.958 -0.0507 -0.2492  0.5297
17434TIP3    H173793   2.067   0.090   5.867 -2.3392 -0.6507 -0.2300
17434TIP3    H273794   2.055   0.010   5.995 -0.9366 -0.7067 -0.1145
17435TIP3   OH273795   0.879   4.634  10.848 -0.0142  0.8703 -0.1643
17435TIP3    H173796   0.959   4.650  10.897  0.1400  4.9744 -1.3550
17435TIP3    H273797   0.906   4.583  10.772  0.7336 -0.7562  1.1410
17436TIP3   OH273798   2.960   6.607   2.721 -0.2570 -0.4184 -0.6938
17436TIP3    H173799   3.002   6.522   2.730  0.6179 -0.0840 -1.4549
17436TIP3    H273800   2.914   6.602   2.636 -1.3025 -0.5777 -0.1407
17437TIP3   OH273801   2.656   3.530  16.515 -0.7106 -0.4084  0.5075
17437TIP3    H173802   2.717   3.457  16.499 -0.4491  0.1705 -1.4161
17437TIP3    H273803   2.648   3.573  16.430 -1.4402  1.3735  1.4279
17438TIP3   OH273804   5.293   3.001  12.014  0.2714 -0.4971  0.7531
17438TIP3    H173805   5.323   2.913  12.037  1.4688  0.1168  1.6092
17438TIP3    H273806   5.360   3.035  11.955 -0.9384 -0.6882 -0.7970
17439TIP3   OH273807   4.275   4.846  12.056  0.2966  0.4044  0.0480
17439TIP3    H173808   4.346   4.788  12.084  0.7688 -0.3634 -2.5118
17439TIP3    H273809   4.196   4.793  12.069  0.5225 -0.0062 -0.2017
17440TIP3   OH273810   4.557   3.742  12.048 -0.0464  0.2836 -0.3373
17440TIP3    H173811   4.606   3.765  12.127 -1.5506  0.2142  0.6680
17440TIP3    H273812   4.603   3.786  11.977  2.8408 -1.7021  0.1699
17441TIP3   OH273813   1.913   1.995   5.471  0.4116  0.1380  0.0602
17441TIP3    H173814   1.919   1.954   5.557  0.2108 -2.1178 -0.9406
17441TIP3    H273815   1.829   1.965   5.436  0.1748  1.5728 -0.6899
17442TIP3   OH273816   6.808   6.465   3.138  0.2030  0.7972 -0.1563
17442TIP3    H173817   6.757   6.415   3.201 -0.1848 -0.3003 -1.2931
17442TIP3    H273818   6.750   6.536   3.110 -0.6025 -0.2403 -1.1862
17443TIP3   OH273819   1.658   4.482   5.287  0.1075 -0.0296  0.3241
17443TIP3    H173820   1.647   4.508   5.196 -0.3608 -1.2791 -0.0060
17443TIP3    H273821   1.684   4.562   5.333  1.4031  0.4015 -1.0828
17444TIP3   OH273822   0.653   5.218   4.654 -0.3088  0.2622 -0.9207
17444TIP3    H173823   0.721   5.250   4.714  0.7261 -1.5372 -1.0643
17444TIP3    H273824   0.572   5.225   4.705  0.4337 -0.4587  0.4180
17445TIP3   OH273825   5.715   2.933  15.905 -0.2914 -0.1829  0.2414
17445TIP3    H173826   5.799   2.903  15.871  0.7742  1.9650  0.8426
17445TIP3    H273827   5.678   2.856  15.950  2.0902 -0.7660  1.3486
17446TIP3   OH273828   6.278   4.676  16.516  0.4235  0.4109  0.0217
17446TIP3    H173829   6.238   4.758  16.485  2.2304  1.3092 -0.0669
17446TIP3    H273830   6.278   4.619  16.440 -1.8217 -0.1146  0.3514
17447TIP3   OH273831   2.167   6.749   6.932 -0.0328  0.5217 -0.2115
17447TIP3    H173832   2.123   6.677   6.976 -0.3782  1.2978  0.7514
17447TIP3    H273833   2.117   6.762   6.851 -1.4591  1.2439  0.7598
17448TIP3   OH273834   6.809   0.452   0.726 -0.9501  0.2364  0.5031
17448TIP3    H173835   6.859   0.402   0.662 -0.6140  1.0742  0.1000
17448TIP3    H273836   6.727   0.404   0.735  0.2231 -1.6896  1.8550
17449TIP3   OH273837   1.375   4.306   4.405  0.2795  0.4745 -0.2374
17449TIP3    H173838   1.306   4.243   4.427  0.4442 -0.3242 -1.8628
17449TIP3    H273839   1.456   4.256   4.407  0.4282  0.6132 -1.4487
17450TIP3   OH273840   5.571   3.673   4.531 -0.0682 -0.5939 -0.5192
17450TIP3    H173841   5.550   3.732   4.458 -1.2918  0.4140  0.6019
17450TIP3    H273842   5.498   3.611   4.531 -0.9109  0.3628  0.7951
17451TIP3   OH273843   4.292   4.501  11.681  0.2826  0.1979 -0.2729
17451TIP3    H173844   4.234   4.429  11.708  1.4706 -0.4515  0.6792
17451TIP3    H273845   4.381   4.468  11.699  0.8770  1.7489 -0.2159
17452TIP3   OH273846   5.883   0.462  10.402 -0.3451  0.1047 -0.2637
17452TIP3    H173847   5.939   0.494  10.472  2.2155 -0.7444 -1.7767
17452TIP3    H273848   5.809   0.522  10.401  0.7455  1.5876  1.5569
17453TIP3   OH273849   0.966   5.830  16.997  0.0429  0.0339  0.0445
17453TIP3    H173850   0.971   5.740  17.028 -4.0751 -0.7074 -0.8879
17453TIP3    H273851   0.873   5.853  17.006  0.5116  3.3341 -2.0153
17454TIP3   OH273852   0.160   1.581  14.672 -0.1515  0.5932 -0.0743
17454TIP3    H173853   0.090   1.524  14.639  1.1512 -0.6295 -0.8364
17454TIP3    H273854   0.135   1.599  14.763 -1.2271 -0.1708 -0.1927
17455TIP3   OH273855   6.372   4.793  14.439  0.0320 -0.2374  0.3122
17455TIP3    H173856   6.399   4.705  14.464  0.4120 -0.2550 -0.1467
17455TIP3    H273857   6.280   4.799  14.466 -0.8646 -1.7410 -2.0582
17456TIP3   OH273858   2.130   1.045  13.439 -0.6565 -0.0716  0.4958
17456TIP3    H173859   2.087   1.073  13.520  1.7305  2.3891  1.0603
17456TIP3    H273860   2.093   1.102  13.371 -1.0175 -0.5900  0.2485
17457TIP3   OH273861   2.242   0.453   0.973  0.0313 -0.3582  0.1530
17457TIP3    H173862   2.160   0.446   0.923 -0.6531 -0.5807  1.2666
17457TIP3    H273863   2.257   0.364   1.005  0.1662 -0.1114  0.7818
17458TIP3   OH273864   2.757   0.210   1.695 -0.5094 -0.2948 -0.5060
17458TIP3    H173865   2.693   0.209   1.766 -0.7477 -0.5778 -0.7257
17458TIP3    H273866   2.838   0.242   1.737 -0.8402  0.2515 -0.2787
17459TIP3   OH273867   0.571   6.674  15.335 -0.1759  0.0460 -0.0818
17459TIP3    H173868   0.523   6.720  15.404  0.9518  1.8000 -0.3948
17459TIP3    H273869   0.546   6.719  15.254  1.3967  0.5261 -0.3297
17460TIP3   OH273870   5.944   6.586   4.083 -0.6216 -0.0365 -0.1717
17460TIP3    H173871   6.001   6.663   4.089 -0.5021 -0.2175  1.3599
17460TIP3    H273872   5.984   6.522   4.142 -0.6642 -1.3421 -1.4763
17461TIP3   OH273873   6.350   4.815   0.474  0.3579  0.1175 -0.1561
17461TIP3    H173874   6.401   4.895   0.462  0.2307  0.0630 -1.1757
17461TIP3    H273875   6.265   4.834   0.433 -0.0089 -0.2151  0.4343
17462TIP3   OH273876   2.338   2.275   2.540  0.4253  0.2287 -0.3613
17462TIP3    H173877   2.309   2.185   2.525  0.3899  0.1647  0.0769
17462TIP3    H273878   2.387   2.271   2.622 -2.7693  1.2615  1.7804
17463TIP3   OH273879   3.477   0.280   0.678 -0.7473  0.4459 -0.2670
17463TIP3    H173880   3.558   0.260   0.632 -0.5848  0.4615  0.0118
17463TIP3    H273881   3.495   0.256   0.769 -2.0260 -2.4687 -0.6444
17464TIP3   OH273882   5.859   0.110   2.187  0.0019 -0.6739 -0.0616
17464TIP3    H173883   5.903   0.031   2.219  0.7979 -0.2147 -0.0098
17464TIP3    H273884   5.866   0.172   2.259 -0.6299 -0.5509 -0.0992
17465TIP3   OH273885   5.157   5.260   2.999 -0.5929  0.2271 -0.0658
17465TIP3    H173886   5.103   5.339   2.990  1.5399  1.8275  0.2919
17465TIP3    H273887   5.098   5.194   3.034 -1.8491  2.5028  2.5093
17466TIP3   OH273888   2.447   6.389   0.248  0.3481  0.2370  0.3750
17466TIP3    H173889   2.359   6.361   0.224 -0.4203  1.3671  1.6565
17466TIP3    H273890   2.500   6.310   0.243 -0.2278 -0.0844 -2.4570
17467TIP3   OH273891   5.469   0.763   4.103 -0.2670  0.2833 -0.2079
17467TIP3    H173892   5.541   0.758   4.166 -1.3382  1.7545  1.2251
17467TIP3    H273893   5.401   0.813   4.148 -1.6408  0.1811 -2.0418
17468TIP3   OH273894   6.106   3.875   3.369 -0.1743 -0.1290  0.1220
17468TIP3    H173895   6.169   3.930   3.415  2.1393 -2.9227  0.6027
17468TIP3    H273896   6.021   3.910   3.393  1.1179  2.3671  1.4010
17469TIP3   OH273897   0.846   3.275   0.823 -0.3821  0.0507 -0.0687
17469TIP3    H173898   0.918   3.243   0.877 -0.4444  0.8473  0.4879
17469TIP3    H273899   0.867   3.242   0.735  1.0971  0.9252 -0.0943
17470TIP3   OH273900   1.471   2.694   0.519 -0.0340 -0.0780  0.3457
17470TIP3    H173901   1.507   2.778   0.547 -0.6132  0.2822  0.0126
17470TIP3    H273902   1.545   2.650   0.476  0.2449  0.3025  0.4319
17471TIP3   OH273903   4.316   0.572   1.859 -0.6651 -0.0996 -0.0039
17471TIP3    H173904   4.375   0.528   1.798  0.2612 -0.3197  1.0114
17471TIP3    H273905   4.369   0.586   1.938 -1.5989  0.8503  0.4875
17472TIP3   OH273906   2.097   6.161   5.693 -0.5772 -0.4559 -0.2890
17472TIP3    H173907   2.003   6.178   5.698 -0.6571 -1.2095  1.7443
17472TIP3    H273908   2.137   6.244   5.717 -0.7570 -0.4876  0.1323
17473TIP3   OH273909   4.977   6.559  11.672 -0.2920 -0.4310  0.6513
17473TIP3    H173910   4.980   6.463  11.677 -0.9290 -0.4744  0.2818
17473TIP3    H273911   4.907   6.584  11.732 -0.2078 -0.2054  0.6547
17474TIP3   OH273912   1.855   5.842  16.743 -0.1658  0.7797 -0.1923
17474TIP3    H173913   1.773   5.886  16.723 -0.6120 -0.3654 -0.9816
17474TIP3    H273914   1.910   5.910  16.783 -0.7462  2.0987 -1.5521
17475TIP3   OH273915   0.618   2.505  10.709  0.2589  0.0062  0.1239
17475TIP3    H173916   0.555   2.555  10.658  1.0634 -1.1187 -2.0646
17475TIP3    H273917   0.583   2.416  10.711  0.0805  0.0776  1.8725
17476TIP3   OH273918   4.196   0.570   6.428  0.0712  0.0179  0.3581
17476TIP3    H173919   4.139   0.501   6.460 -1.8004  0.9914 -0.6963
17476TIP3    H273920   4.241   0.602   6.506 -1.6509 -0.0703  1.4396
17477TIP3   OH273921   0.984   4.908   3.189 -0.6440  0.0789  0.1499
17477TIP3    H173922   0.969   4.974   3.256 -1.0154  1.8328 -1.5743
17477TIP3    H273923   0.913   4.921   3.125  1.1143  0.2325 -1.8882
17478TIP3   OH273924   4.752   4.048   5.846  0.5276 -0.0202 -0.1370
17478TIP3    H173925   4.728   4.006   5.763  0.0695  0.5938 -0.3208
17478TIP3    H273926   4.744   3.978   5.911  1.7146 -0.7323 -0.7194
17479TIP3   OH273927   6.287   6.246   4.076 -0.1037  1.0403  0.6941
17479TIP3    H173928   6.296   6.206   3.989 -2.4735  0.8119  0.4612
17479TIP3    H273929   6.376   6.267   4.103  0.7134  0.9636 -1.7156
17480TIP3   OH273930   1.429   4.818   1.375  0.1761  0.3473 -0.5309
17480TIP3    H173931   1.512   4.865   1.364  0.0991  0.0175 -3.3113
17480TIP3    H273932   1.429   4.754   1.304 -2.0019 -0.3720  0.0602
17481TIP3   OH273933   1.022   1.629  16.619  0.4994  0.0297  0.3266
17481TIP3    H173934   1.013   1.589  16.705  2.7142 -1.4400 -0.0537
17481TIP3    H273935   1.079   1.704  16.633 -1.4465  1.5677  0.5553
17482TIP3   OH273936   6.167   3.650   4.123 -0.4456 -0.8024  0.1086
17482TIP3    H173937   6.204   3.735   4.099  1.3102 -0.6496  2.9284
17482TIP3    H273938   6.203   3.589   4.058 -1.6768  0.5048 -1.9134
17483TIP3   OH273939   2.694   6.739  13.279  0.1145  0.3880  0.4676
17483TIP3    H173940   2.764   6.683  13.311  1.1610  0.9752 -0.7247
17483TIP3    H273941   2.636   6.750  13.354  1.3039 -0.0967  1.4861
17484TIP3   OH273942   4.471   5.925   4.898 -0.0437  0.1750  0.0752
17484TIP3    H173943   4.449   5.911   4.990 -0.0972  0.3701  0.0920
17484TIP3    H273944   4.498   6.016   4.893 -1.1840  0.5162 -0.3159
17485TIP3   OH273945   2.415   3.476  12.430 -0.8777  0.7688 -0.4701
17485TIP3    H173946   2.406   3.566  12.460 -1.1905  0.8719 -0.8742
17485TIP3    H273947   2.331   3.455  12.390 -0.9323  0.1788 -0.0630
17486TIP3   OH273948   6.806   4.451   4.895 -0.0180 -0.5370 -0.0344
17486TIP3    H173949   6.810   4.413   4.983 -1.6509 -0.7412 -0.0169
17486TIP3    H273950   6.810   4.545   4.909  0.8333 -0.5959  0.1666
17487TIP3   OH273951   6.117   4.263  17.093 -0.1890  0.0803 -0.0830
17487TIP3    H173952   6.131   4.215  17.175  2.5276 -2.1713 -1.6583
17487TIP3    H273953   6.031   4.303  17.103 -0.5681 -1.2247  3.2939
17488TIP3   OH273954   2.003   0.305  10.583 -0.4522 -0.3046 -0.7088
17488TIP3    H173955   1.997   0.295  10.678  2.0185 -2.2904 -0.6578
17488TIP3    H273956   2.036   0.220  10.552 -0.5057  0.5240 -3.2656
17489TIP3   OH273957   6.784   4.327   4.627  0.2094 -0.0124  0.2029
17489TIP3    H173958   6.792   4.371   4.712 -0.7778  1.1946 -0.2879
17489TIP3    H273959   6.693   4.341   4.601  0.7452  0.6387 -1.5442
17490TIP3   OH273960   1.626   2.083   3.122 -0.2291 -1.6326  0.4417
17490TIP3    H173961   1.656   2.094   3.032 -0.6761  1.0888  0.5475
17490TIP3    H273962   1.535   2.054   3.114 -0.0418 -2.1094  0.0361
17491TIP3   OH273963   1.284   0.387   1.965  0.3659 -0.0807 -0.0351
17491TIP3    H173964   1.291   0.425   1.877 -0.4760  0.8231  0.2707
17491TIP3    H273965   1.195   0.408   1.993  0.9569  0.5643  1.4575
17492TIP3   OH273966   5.080   1.033   5.026  0.1500 -0.3339 -0.2461
17492TIP3    H173967   5.145   1.097   5.055  0.1510 -0.3554 -0.1996
17492TIP3    H273968   5.088   1.032   4.931 -1.0789  1.0268 -0.3878
17493TIP3   OH273969   2.430   2.451   5.512  0.0307  0.4021  0.3326
17493TIP3    H173970   2.426   2.508   5.590  1.2239  1.1201 -0.0914
17493TIP3    H273971   2.402   2.366   5.543 -2.4957  1.3366  0.8446
17494TIP3   OH273972   0.733   1.986   4.459 -0.5072 -0.0336 -0.8768
17494TIP3    H173973   0.748   1.922   4.528 -1.2058 -0.0705 -0.7502
17494TIP3    H273974   0.783   2.063   4.486 -2.4013  0.6968  0.7534
17495TIP3   OH273975   2.103   1.637   5.405 -0.2250  0.1110  0.0233
17495TIP3    H173976   2.030   1.650   5.466 -0.3522 -0.0940 -0.0842
17495TIP3    H273977   2.082   1.695   5.331 -0.7273 -0.5897 -0.3984
17496TIP3   OH273978   0.892   2.731   3.924  0.0137 -0.6085 -0.0569
17496TIP3    H173979   0.920   2.799   3.986 -0.8591 -0.0504 -0.2632
17496TIP3    H273980   0.867   2.657   3.979  1.1690 -0.8585  0.1618
17497TIP3   OH273981   5.217   6.468  15.419  0.1971  0.5611 -0.5973
17497TIP3    H173982   5.263   6.446  15.338 -2.0969 -1.7862 -1.3790
17497TIP3    H273983   5.218   6.387  15.470 -0.4247  1.3465  0.7242
17498TIP3   OH273984   5.146   3.336  16.240 -0.8608  0.4131 -0.2195
17498TIP3    H173985   5.168   3.243  16.244 -2.3071 -0.0330 -1.7518
17498TIP3    H273986   5.221   3.377  16.198  0.3407  0.1800  1.5897
17499TIP3   OH273987   1.070   0.554  14.606 -0.2122 -0.1111 -0.5405
17499TIP3    H173988   0.996   0.549  14.665  0.3044 -0.6648  0.0821
17499TIP3    H273989   1.040   0.510  14.526 -0.3806 -0.8176 -0.0978
17500TIP3   OH273990   2.582   3.158   3.982  0.5492  0.3464 -0.1793
17500TIP3    H173991   2.513   3.176   3.918  1.2227 -0.1185 -1.0710
17500TIP3    H273992   2.636   3.237   3.982  0.1972  0.5926  0.2956
17501TIP3   OH273993   5.550   2.237  13.684 -0.3015  0.0475  0.6865
17501TIP3    H173994   5.609   2.271  13.752 -1.0896  0.0265  1.4008
17501TIP3    H273995   5.597   2.163  13.647  0.6790  0.8178  0.3416
17502TIP3   OH273996   4.805   0.507  15.310  0.0288  0.3173  0.2979
17502TIP3    H173997   4.855   0.536  15.386  1.0350 -4.1798  1.6363
17502TIP3    H273998   4.717   0.489  15.343  0.6756 -2.4081  0.7634
17503TIP3   OH273999   6.051   6.219  15.047  0.3582 -0.2186 -0.3598
17503TIP3    H174000   5.962   6.217  15.012 -0.3767  0.5795  1.3630
17503TIP3    H274001   6.082   6.308  15.029  0.9429 -0.5792 -1.2114
17504TIP3   OH274002   4.426   2.895   5.601  0.2907  0.1407 -0.0348
17504TIP3    H174003   4.488   2.965   5.583  0.5979  0.5486  2.3099
17504TIP3    H274004   4.350   2.939   5.638  0.2577 -0.6828  0.9324
17505TIP3   OH274005   5.150   2.036   5.838 -0.1341 -0.5981  0.6595
17505TIP3    H174006   5.084   1.977   5.875 -1.9943  0.2357 -1.1242
17505TIP3    H274007   5.136   2.118   5.885 -1.5048  0.0323 -0.7560
17506TIP3   OH274008   2.066   2.399  14.302  0.7337 -0.0944 -0.2799
17506TIP3    H174009   2.080   2.399  14.207  1.0752 -1.4936 -0.2551
17506TIP3    H274010   1.982   2.354  14.314  0.2309  0.9117  0.0384
17507TIP3   OH274011   5.678   5.700   3.603  0.3556 -0.2306  0.0068
17507TIP3    H174012   5.632   5.777   3.638  2.1933  0.6520  0.6066
17507TIP3    H274013   5.633   5.681   3.520 -0.9449  0.6847  0.4620
17508TIP3   OH274014   2.117   5.626  15.858  0.4030  0.3792 -0.2509
17508TIP3    H174015   2.204   5.587  15.847  0.6851  0.4341  1.4777
17508TIP3    H274016   2.079   5.579  15.933 -0.5972  1.1392 -0.2566
17509TIP3   OH274017   5.589   2.243   4.339  0.0489  0.4263 -0.6458
17509TIP3    H174018   5.499   2.256   4.309 -0.7179  0.1617  1.3580
17509TIP3    H274019   5.584   2.256   4.434  2.0348 -0.1505 -0.4240
17510TIP3   OH274020   6.195   0.231   0.506  0.5102  0.3161  0.3197
17510TIP3    H174021   6.211   0.168   0.576 -0.7831  3.0230  3.3229
17510TIP3    H274022   6.145   0.301   0.548 -1.7747  1.4372 -3.7475
17511TIP3   OH274023   2.597   1.821  10.991  0.9917 -0.0166 -0.2276
17511TIP3    H174024   2.692   1.821  10.993  0.9787  0.2665  0.4421
17511TIP3    H274025   2.570   1.799  11.080  0.4313 -1.4206 -0.7138
17512TIP3   OH274026   3.030   0.821  15.223  0.1821  0.2888  0.4283
17512TIP3    H174027   3.009   0.748  15.281 -1.5115  1.4173  1.3190
17512TIP3    H274028   2.987   0.800  15.141 -1.5611  0.8871  1.1298
17513TIP3   OH274029   5.769   2.437  16.637  0.2640  0.1777  0.1043
17513TIP3    H174030   5.759   2.367  16.702 -0.8996  1.9249  1.9427
17513TIP3    H274031   5.680   2.454  16.605  0.4979  0.9049 -0.1951
17514TIP3   OH274032   4.886   6.700  14.464 -0.0787 -0.4922  0.1226
17514TIP3    H174033   4.964   6.666  14.507 -0.9244 -1.5499  0.8566
17514TIP3    H274034   4.827   6.625  14.456 -1.5512  0.5382  0.7823
17515TIP3   OH274035   4.670   5.777  16.076 -0.4302  0.4442  0.7018
17515TIP3    H174036   4.751   5.827  16.088 -0.0364 -0.6361  3.0541
17515TIP3    H274037   4.690   5.716  16.004  0.8241  0.2543  1.1917
17516TIP3   OH274038   0.638   4.268  11.274 -0.1113  0.0393  0.3117
17516TIP3    H174039   0.656   4.228  11.359  1.1359 -0.4471 -0.1623
17516TIP3    H274040   0.607   4.356  11.295  2.9041  0.9847  1.2314
17517TIP3   OH274041   4.538   0.089  11.310  0.3354 -0.7924 -0.2880
17517TIP3    H174042   4.590   0.169  11.303  1.0373 -1.2292 -0.1772
17517TIP3    H274043   4.474   0.096  11.239 -0.9509  0.8153  0.9736
17518TIP3   OH274044   1.435   2.887  15.252 -0.3814  0.3075  0.2899
17518TIP3    H174045   1.424   2.976  15.218 -1.2490 -0.4068 -1.4143
17518TIP3    H274046   1.527   2.883  15.279 -0.4288  1.8294  0.7496
17519TIP3   OH274047   6.389   4.864  15.766  0.5483  0.5276 -0.2039
17519TIP3    H174048   6.399   4.799  15.696 -0.2780 -0.9317  0.9771
17519TIP3    H274049   6.298   4.855  15.794  0.1910  2.7564 -0.4912
17520TIP3   OH274050   0.092   3.772  14.262 -0.3881 -0.2467  0.3702
17520TIP3    H174051   0.064   3.862  14.278 -1.7975 -0.0538 -2.5090
17520TIP3    H274052   0.164   3.779  14.200 -0.2705 -1.0920  0.3967
17521TIP3   OH274053   6.503   4.201   3.952 -0.2694 -0.4793  0.1021
17521TIP3    H174054   6.421   4.245   3.930 -0.6728 -0.4404  1.5509
17521TIP3    H274055   6.487   4.164   4.039  1.1975 -0.5925  0.3472
17522TIP3   OH274056   4.137   3.514  15.204 -0.1493  0.1564  0.3627
17522TIP3    H174057   4.181   3.497  15.120  1.8676 -0.7683  1.5180
17522TIP3    H274058   4.174   3.597  15.234 -2.0965  1.3497 -0.3612
17523TIP3   OH274059   5.353   3.740  17.191  0.1117 -0.7366 -0.2530
17523TIP3    H174060   5.423   3.705  17.247  0.2506 -1.2284 -0.7289
17523TIP3    H274061   5.397   3.761  17.109  0.4787  2.5251  0.6316
17524TIP3   OH274062   2.108   3.075   3.495 -0.8597  0.0450 -0.4191
17524TIP3    H174063   2.059   3.148   3.534 -1.2480 -0.9263  0.9925
17524TIP3    H274064   2.055   3.047   3.421 -1.8541 -0.2085  0.3678
17525TIP3   OH274065   4.083   3.238   5.688 -0.4168 -0.4023  0.0785
17525TIP3    H174066   3.992   3.251   5.716  0.2227  2.5186  1.1071
17525TIP3    H274067   4.091   3.290   5.609  0.7401  0.7130  0.8915
17526TIP3   OH274068   1.959   6.524   0.558 -0.1614  0.5723 -0.4727
17526TIP3    H174069   2.027   6.585   0.588  2.3900 -1.6253 -1.3661
17526TIP3    H274070   1.932   6.558   0.473  1.1497  0.5455 -0.9191
17527TIP3   OH274071   6.358   3.932  11.118 -0.3385  0.5751 -0.6785
17527TIP3    H174072   6.392   3.896  11.200  1.3042  0.2680 -1.4575
17527TIP3    H274073   6.316   4.014  11.143  2.4354  1.8293  0.1681
17528TIP3   OH274074   6.472   2.576  15.905 -0.7384  0.3533  0.4407
17528TIP3    H174075   6.540   2.621  15.956  0.1891 -0.0663 -0.3906
17528TIP3    H274076   6.390   2.600  15.948 -0.2243  2.3369  0.4011
17529TIP3   OH274077   5.561   2.299   1.863 -0.5970 -0.1078  0.0656
17529TIP3    H174078   5.554   2.313   1.957  1.4522 -0.7668  0.3687
17529TIP3    H274079   5.505   2.366   1.824  0.7593  2.1299  1.6952
17530TIP3   OH274080   3.326   1.776   5.559 -0.3369  0.3430 -0.7704
17530TIP3    H174081   3.357   1.710   5.620 -1.7552  1.5519  1.4217
17530TIP3    H274082   3.264   1.729   5.502  0.2591 -0.6197 -0.6394
17531TIP3   OH274083   1.903   2.989  12.831 -0.7575 -0.6290 -0.2098
17531TIP3    H174084   1.825   3.023  12.874  0.2565 -0.7439  1.8948
17531TIP3    H274085   1.914   2.901  12.867  1.0535 -0.1175  0.6578
17532TIP3   OH274086   2.881   2.931   3.714 -0.2922  0.2054  0.0666
17532TIP3    H174087   2.794   2.892   3.718  0.0933 -0.8526 -1.0946
17532TIP3    H274088   2.892   2.954   3.621  1.0887 -0.7249 -0.0205
17533TIP3   OH274089   1.844   0.472   4.723 -0.2406 -0.7338  0.3478
17533TIP3    H174090   1.811   0.556   4.754 -0.3518 -0.1533 -1.2630
17533TIP3    H274091   1.774   0.410   4.742 -1.3159  0.0551 -0.8978
17534TIP3   OH274092   0.901   5.737  16.007 -0.6447 -0.2140 -0.2855
17534TIP3    H174093   0.897   5.674  16.078  0.9833 -0.7181 -0.5896
17534TIP3    H274094   0.813   5.738  15.970 -0.9769 -1.4639  0.4389
17535TIP3   OH274095   5.882   5.611   4.828 -0.3022  0.0477 -0.2880
17535TIP3    H174096   5.877   5.515   4.817  0.4304 -0.1307  0.8395
17535TIP3    H274097   5.804   5.643   4.783 -0.5258 -1.0769 -0.7545
17536TIP3   OH274098   2.533   3.613   2.150 -0.3354  0.4073 -0.1119
17536TIP3    H174099   2.590   3.688   2.167  0.1170  0.3816 -1.4191
17536TIP3    H274100   2.495   3.592   2.235  1.7334  0.3359  0.8585
17537TIP3   OH274101   0.471   0.217   4.105 -0.2861  0.2107  0.0866
17537TIP3    H174102   0.448   0.201   4.196 -0.0556 -1.3004 -0.0971
17537TIP3    H274103   0.565   0.197   4.100 -0.4041 -0.2015 -0.5779
17538TIP3   OH274104   2.103   1.732   4.881  0.3111  0.0899 -0.4954
17538TIP3    H174105   2.184   1.729   4.932  1.1387 -1.1295 -1.8124
17538TIP3    H274106   2.040   1.685   4.936  0.9955 -0.5856 -0.2564
17539TIP3   OH274107   6.158   0.724  13.247 -0.0073  0.2090  0.2158
17539TIP3    H174108   6.098   0.656  13.218  1.2406 -0.2872 -1.3037
17539TIP3    H274109   6.244   0.696  13.216  0.9149  1.2747  1.6784
17540TIP3   OH274110   2.912   4.729  16.287  0.4410  0.2962  0.5183
17540TIP3    H174111   2.969   4.730  16.364 -0.0643 -0.2853  0.9190
17540TIP3    H274112   2.943   4.655  16.236 -0.1340 -0.2184  0.8935
17541TIP3   OH274113   1.425   4.519  10.981  0.2601 -0.4761  0.7065
17541TIP3    H174114   1.438   4.437  10.933  2.2715  1.6746 -2.8004
17541TIP3    H274115   1.488   4.515  11.053  0.3927 -1.9382  0.5487
17542TIP3   OH274116   6.015   4.686  14.945 -0.0059 -0.0818 -0.0953
17542TIP3    H174117   6.037   4.631  14.871  2.9098 -0.3854  0.8493
17542TIP3    H274118   6.067   4.765  14.932 -1.8209  1.2089  0.1059
17543TIP3   OH274119   4.516   5.533  14.721 -0.2057  0.4470 -0.5486
17543TIP3    H174120   4.505   5.459  14.779 -0.0186 -0.4688 -1.6416
17543TIP3    H274121   4.462   5.602  14.759  1.1432  0.4077  1.5479
17544TIP3   OH274122   2.297   6.155  14.425  0.1189  0.4179  0.2661
17544TIP3    H174123   2.390   6.131  14.423  0.8521  2.7884  1.5036
17544TIP3    H274124   2.284   6.210  14.348 -0.2907  0.0182  0.0463
17545TIP3   OH274125   1.564   2.038  16.392  0.2636 -0.5767 -0.1251
17545TIP3    H174126   1.572   2.003  16.481  1.5119 -0.5555 -0.2109
17545TIP3    H274127   1.593   1.967  16.336 -0.2060 -0.4733 -0.5026
17546TIP3   OH274128   5.255   4.294  12.295  0.2167 -0.0919 -0.8424
17546TIP3    H174129   5.198   4.303  12.218 -2.3227 -2.0716  0.6402
17546TIP3    H274130   5.232   4.369  12.351  0.9751  0.5116 -1.3148
17547TIP3   OH274131   3.166   6.199  11.042 -0.5424 -0.4113 -0.0140
17547TIP3    H174132   3.227   6.197  10.969  0.3638 -0.7491  0.7356
17547TIP3    H274133   3.112   6.277  11.026 -1.4652 -1.3501 -1.8887
17548TIP3   OH274134   2.746   2.627  10.785 -0.2137 -0.1515 -0.0910
17548TIP3    H174135   2.684   2.564  10.748  0.5354  0.1595 -1.9847
17548TIP3    H274136   2.734   2.706  10.732 -1.1448  1.3849  2.2394
17549TIP3   OH274137   2.762   6.165   0.547 -0.0701 -0.0210 -0.5802
17549TIP3    H174138   2.818   6.090   0.565 -1.0786 -0.8241 -0.7071
17549TIP3    H274139   2.818   6.241   0.562  0.6957 -0.7715  0.4667
17550TIP3   OH274140   3.622   1.747   1.003  0.2331 -0.4756 -0.1475
17550TIP3    H174141   3.704   1.771   0.960  0.4978 -1.0951 -0.0048
17550TIP3    H274142   3.639   1.660   1.039 -0.9533 -1.2366 -1.3453
17551TIP3   OH274143   1.554   1.116   4.458 -0.4117 -0.4249 -0.1528
17551TIP3    H174144   1.627   1.153   4.409  0.3561 -1.0468  0.4921
17551TIP3    H274145   1.525   1.041   4.406 -0.2831 -0.4606 -0.1716
17552TIP3   OH274146   6.775   4.301  17.198  0.0714  0.2598 -0.2750
17552TIP3    H174147   6.836   4.279  17.268  0.3991 -0.2356 -0.7052
17552TIP3    H274148   6.688   4.288  17.236  0.2328  0.5895  0.2212
17553TIP3   OH274149   3.833   5.323   0.469  1.1204 -0.1484 -0.0198
17553TIP3    H174150   3.784   5.243   0.486  2.0215 -0.7962 -0.3587
17553TIP3    H274151   3.772   5.394   0.488 -0.5322 -0.9113 -2.1186
17554TIP3   OH274152   4.961   1.661   5.663 -0.2528 -0.0896 -0.0432
17554TIP3    H174153   4.987   1.613   5.742  0.4327  1.5817  0.8095
17554TIP3    H274154   5.030   1.641   5.599 -0.3877 -0.8206  0.0251
17555TIP3   OH274155   0.178   5.200   4.144  0.2395  0.4615 -0.7725
17555TIP3    H174156   0.180   5.284   4.098 -1.8504  1.1513  0.2689
17555TIP3    H274157   0.205   5.221   4.233  1.4605 -0.3448 -0.9210
17556TIP3   OH274158   6.461   4.296  13.944  0.0955 -0.4324 -0.1303
17556TIP3    H174159   6.513   4.362  13.900  1.0136 -0.7587  0.4361
17556TIP3    H274160   6.383   4.286  13.889 -0.0103  1.0173 -0.2838
17557TIP3   OH274161   3.668   3.537  13.173  0.6969 -0.0312  0.1298
17557TIP3    H174162   3.738   3.594  13.204  0.7893 -0.0240 -0.0910
17557TIP3    H274163   3.588   3.579  13.204  0.7832  0.0238  0.2809
17558TIP3   OH274164   5.248   0.145   3.888  0.3827  0.0885  0.5535
17558TIP3    H174165   5.183   0.201   3.930  2.0245  1.7288  1.0102
17558TIP3    H274166   5.237   0.160   3.795  0.1956  0.4480  0.6350
17559TIP3   OH274167   2.172   0.970   4.816  0.2602 -0.2807  0.1570
17559TIP3    H174168   2.181   0.989   4.723 -0.1109 -0.7042  0.0304
17559TIP3    H274169   2.261   0.952   4.846  0.4346  0.2675 -0.0197
17560TIP3   OH274170   2.190   3.236   6.190  0.3305  0.2717  0.5344
17560TIP3    H174171   2.175   3.150   6.228  3.8779 -1.4180 -1.4461
17560TIP3    H274172   2.103   3.265   6.162 -1.1324 -2.1510  2.2223
17561TIP3   OH274173   2.829   6.007   4.895  0.0280  0.2746  0.6590
17561TIP3    H174174   2.746   5.995   4.849  1.7870 -2.5094 -2.2270
17561TIP3    H274175   2.855   5.919   4.921  1.7420  1.1635  2.2078
17562TIP3   OH274176   4.455   0.925   0.271 -0.0525 -0.5647 -0.0212
17562TIP3    H174177   4.417   0.885   0.193  0.1615 -0.4502 -0.1856
17562TIP3    H274178   4.388   0.913   0.339 -0.3033 -0.5345 -0.2576
17563TIP3   OH274179   4.299   3.250   0.026  0.1371  0.5933  0.2549
17563TIP3    H174180   4.253   3.185   0.080 -0.2894  2.0115  1.6798
17563TIP3    H274181   4.311   3.206  -0.058 -0.0220 -1.3658  1.1813
17564TIP3   OH274182   1.793   1.579   3.872  0.1028  0.2754  0.7359
17564TIP3    H174183   1.806   1.668   3.837  1.0808  0.2366  0.9580
17564TIP3    H274184   1.861   1.527   3.829 -0.2212 -0.2840  0.8981
17565TIP3   OH274185   4.174   3.306  11.869  0.0558 -0.0671  0.1377
17565TIP3    H174186   4.087   3.274  11.847  0.2011 -0.2440 -0.1811
17565TIP3    H274187   4.158   3.389  11.915 -0.2551  0.2260 -0.4900
17566TIP3   OH274188   6.178   4.466  15.667  0.1378  0.6782  0.3176
17566TIP3    H174189   6.133   4.436  15.588 -0.9363  0.4007  1.0125
17566TIP3    H274190   6.172   4.392  15.728  1.0295  0.8555  0.6408
17567TIP3   OH274191   2.990   3.796   1.079  0.5868  0.3855 -0.5738
17567TIP3    H174192   3.014   3.851   1.154  1.2549 -1.2406  0.4676
17567TIP3    H274193   3.055   3.726   1.079 -0.4852 -0.6620 -1.5732
17568TIP3   OH274194   6.249   5.280   0.813 -0.4070 -0.0661 -0.3617
17568TIP3    H174195   6.312   5.237   0.872 -1.6387  0.9089  1.8083
17568TIP3    H274196   6.254   5.372   0.837 -0.6633  0.4281 -2.1479
17569TIP3   OH274197   0.651   4.104   4.488 -0.5655 -0.5007  0.1188
17569TIP3    H174198   0.563   4.101   4.450 -0.8437  0.2928  0.6618
17569TIP3    H274199   0.637   4.099   4.583 -0.0918  0.3752  0.2536
17570TIP3   OH274200   5.996   3.497  13.745  0.0174  0.1196  0.4380
17570TIP3    H174201   6.003   3.453  13.830 -0.3353  0.4132  0.6241
17570TIP3    H274202   5.997   3.590  13.767  0.4172  0.2022  0.0754
17571TIP3   OH274203   5.874   3.148  16.043 -0.5088  0.0831 -0.6633
17571TIP3    H174204   5.847   3.076  15.986 -0.9790 -0.1742 -0.1235
17571TIP3    H274205   5.792   3.191  16.068 -0.5616 -1.1641  1.6166
17572TIP3   OH274206   3.390   5.838  15.713  0.4273 -0.2687  0.4569
17572TIP3    H174207   3.323   5.890  15.757  0.1745 -1.0657  1.0456
17572TIP3    H274208   3.340   5.776  15.659  0.7279  0.3730 -0.5984
17573TIP3   OH274209   2.104   3.009   1.313  0.1967 -1.0838  0.1137
17573TIP3    H174210   2.138   3.055   1.236 -1.1230  0.0701  0.1679
17573TIP3    H274211   2.076   2.924   1.280 -1.1793 -0.2812 -0.9240
17574TIP3   OH274212   4.064   6.005  11.541  0.0439  0.3097 -0.9181
17574TIP3    H174213   4.097   6.088  11.506  0.0356  1.0716  0.7569
17574TIP3    H274214   4.137   5.944  11.531  0.2809  0.6871 -1.5728
17575TIP3   OH274215   6.371   5.183   0.484  0.3187  0.0585 -0.2749
17575TIP3    H174216   6.391   5.119   0.415 -0.4621  2.1594 -2.5914
17575TIP3    H274217   6.276   5.196   0.477  0.6716  2.7619 -1.1856
17576TIP3   OH274218   0.163   0.292   4.392  0.1724  0.2933 -0.3161
17576TIP3    H174219   0.114   0.275   4.312 -1.5450  0.7950  0.5746
17576TIP3    H274220   0.178   0.387   4.392 -2.2390  0.7690  1.1771
17577TIP3   OH274221   0.932   3.466   3.069  0.3016 -0.0354  0.1452
17577TIP3    H174222   0.981   3.399   3.021  1.3422  0.2923  0.7266
17577TIP3    H274223   0.945   3.444   3.161  2.8386  2.3880  0.4931
17578TIP3   OH274224   5.939   4.201   3.032 -0.0189  0.2011 -0.3690
17578TIP3    H174225   6.028   4.213   3.001  0.0508  0.2498 -0.1490
17578TIP3    H274226   5.911   4.287   3.062  1.0640 -0.4141  2.7462
17579TIP3   OH274227   6.710   3.779  10.653  0.5176 -0.0979  0.1709
17579TIP3    H174228   6.654   3.708  10.621 -0.2265  0.3345  0.4879
17579TIP3    H274229   6.798   3.741  10.654  0.1778 -0.9171  0.0373
17580TIP3   OH274230   2.808   3.538   4.421 -0.2902  0.1847  0.2623
17580TIP3    H174231   2.797   3.538   4.516  0.5358 -0.4815  0.3689
17580TIP3    H274232   2.834   3.628   4.400  2.3245 -0.3068  1.0454
17581TIP3   OH274233   2.711   4.129   2.276  0.4119 -0.2558 -0.5528
17581TIP3    H174234   2.713   4.105   2.368  0.1921 -0.5407 -0.6223
17581TIP3    H274235   2.641   4.195   2.269  0.1552 -0.5303 -0.5863
17582TIP3   OH274236   1.303   3.175   1.949 -0.2358 -0.4780  0.5190
17582TIP3    H174237   1.381   3.200   1.999 -0.1364 -0.9214  0.5866
17582TIP3    H274238   1.325   3.090   1.910 -0.8952 -0.8916  1.0242
17583TIP3   OH274239   1.349   0.024   3.556 -0.2080  0.0678 -0.2207
17583TIP3    H174240   1.389   0.104   3.588  0.8877  0.1857 -1.8049
17583TIP3    H274241   1.272   0.012   3.612  0.4664  1.3604  1.0438
17584TIP3   OH274242   1.062   6.086  12.368  0.1726  0.2582  0.3550
17584TIP3    H174243   1.088   6.163  12.418  0.9400 -0.6020  1.3346
17584TIP3    H274244   1.145   6.045  12.343 -0.1548 -1.6400  2.0874
17585TIP3   OH274245   2.087   3.901   4.865  0.2349 -0.6505 -0.1899
17585TIP3    H174246   2.023   3.945   4.920  0.2266  0.0147 -0.7120
17585TIP3    H274247   2.126   3.971   4.812 -0.2462 -1.3434 -1.5195
17586TIP3   OH274248   1.095   2.988   5.368 -0.2058 -0.0264 -0.2226
17586TIP3    H174249   1.102   3.015   5.277  0.8858  0.8450  0.1028
17586TIP3    H274250   1.128   2.898   5.369  1.1396  0.4340 -0.4859
17587TIP3   OH274251   6.129   0.709  17.140  0.3108 -0.2708 -0.2699
17587TIP3    H174252   6.059   0.684  17.201  0.7330 -1.4493 -0.2506
17587TIP3    H274253   6.124   0.805  17.136  0.2651 -0.1654  1.6025
17588TIP3   OH274254   5.758   6.430   3.892 -0.0485  0.2903 -0.0059
17588TIP3    H174255   5.815   6.399   3.821  0.4613 -0.5787  0.7607
17588TIP3    H274256   5.816   6.483   3.948 -0.0898 -0.2453  0.5489
17589TIP3   OH274257   2.435   1.375  13.217  0.0554 -0.2559 -0.2215
17589TIP3    H174258   2.463   1.466  13.212  0.1223 -0.2072  0.8257
17589TIP3    H274259   2.345   1.375  13.184 -0.3704  0.3953  0.9132
17590TIP3   OH274260   2.429   4.461  17.147 -0.9444 -1.0169 -0.0598
17590TIP3    H174261   2.457   4.390  17.205 -2.1140 -3.1642 -1.9259
17590TIP3    H274262   2.356   4.423  17.098 -0.6854  1.0289 -2.1768
17591TIP3   OH274263   2.405   1.062   1.541 -0.8909 -1.2833 -0.3573
17591TIP3    H174264   2.408   1.104   1.455 -1.1735  0.0984  0.2830
17591TIP3    H274265   2.470   0.991   1.535  0.4774 -0.0163 -1.0982
17592TIP3   OH274266   6.526   3.366   4.271 -0.4933  0.6111 -0.2022
17592TIP3    H174267   6.567   3.293   4.317 -0.9430 -0.0575 -0.8523
17592TIP3    H274268   6.561   3.444   4.315  0.7996  0.0485 -0.1795
17593TIP3   OH274269   6.365   3.426   5.571  0.6120  0.2287  0.2034
17593TIP3    H174270   6.427   3.444   5.501  0.8453  1.5403  0.7118
17593TIP3    H274271   6.401   3.349   5.615  0.0389 -1.1088 -1.5507
17594TIP3   OH274272   5.437   1.632  16.527  0.2872  0.3479  0.0991
17594TIP3    H174273   5.419   1.624  16.621 -0.3998  1.6732  0.0956
17594TIP3    H274274   5.445   1.726  16.512  0.3818  0.1511 -1.1848
17595TIP3   OH274275   2.582   6.557   4.092 -0.9173  0.1392 -0.1160
17595TIP3    H174276   2.624   6.642   4.104 -1.4164  0.0286  3.5120
17595TIP3    H274277   2.503   6.561   4.145 -1.5948 -2.2140 -0.8040
17596TIP3   OH274278   4.352   1.286  13.404  0.7700  0.3927  0.0329
17596TIP3    H174279   4.392   1.289  13.317 -1.8116  0.1890 -1.2609
17596TIP3    H274280   4.371   1.371  13.443  2.5332  0.2425 -0.4228
17597TIP3   OH274281   0.453   0.608  15.920 -0.3870 -0.1826 -0.7432
17597TIP3    H174282   0.465   0.689  15.870 -0.0656 -0.1721 -0.6540
17597TIP3    H274283   0.393   0.632  15.991 -0.1894  0.0143 -0.6392
17598TIP3   OH274284   6.622   1.005   3.105 -0.7662  0.5250 -0.0194
17598TIP3    H174285   6.675   0.926   3.096  0.6385  1.4987 -0.6103
17598TIP3    H274286   6.673   1.062   3.163 -1.2112  1.4364 -0.4991
17599TIP3   OH274287   0.790   4.941   1.302  0.3945 -0.0177  0.0256
17599TIP3    H174288   0.722   4.917   1.239 -0.0269 -1.7908  1.1004
17599TIP3    H274289   0.838   5.012   1.259 -2.0676  1.2663 -0.7988
17600TIP3   OH274290   1.642   2.308   2.649 -0.1123 -0.6822  0.5807
17600TIP3    H174291   1.575   2.358   2.696 -1.2381 -0.5039 -1.1344
17600TIP3    H274292   1.650   2.353   2.565  1.3323 -1.4068  0.3040
17601TIP3   OH274293   3.384   1.014   4.385  0.3489  0.2426 -0.4336
17601TIP3    H174294   3.313   1.041   4.443  0.3733 -0.0727 -0.2563
17601TIP3    H274295   3.374   0.919   4.377 -0.2795  0.3955 -1.7532
17602TIP3   OH274296   1.139   4.162  12.607 -0.5412  0.5415 -0.0382
17602TIP3    H174297   1.130   4.136  12.699 -0.9380 -1.9681 -0.7030
17602TIP3    H274298   1.165   4.254  12.610  1.1010  0.0923  2.6198
17603TIP3   OH274299   5.410   1.879  16.794  0.1870 -0.3814  0.6489
17603TIP3    H174300   5.321   1.865  16.761  0.0785  1.2995  0.1100
17603TIP3    H274301   5.442   1.954  16.744  1.9059 -0.9096  0.8778
17604TIP3   OH274302   0.282   4.001   5.635 -0.1230 -0.1262  0.3440
17604TIP3    H174303   0.200   4.047   5.619  0.8513  0.9064 -2.0401
17604TIP3    H274304   0.325   4.051   5.705  0.0745  1.5525 -0.9194
17605TIP3   OH274305   5.445   3.868   2.693 -0.6810 -0.8239  0.1379
17605TIP3    H174306   5.361   3.910   2.713 -0.7342 -2.1022  3.2919
17605TIP3    H274307   5.511   3.935   2.713 -0.8967 -0.5980  0.0914
17606TIP3   OH274308   4.238   1.416   1.147 -0.2186 -0.2773  0.4111
17606TIP3    H174309   4.210   1.363   1.073 -0.7911 -1.3800  1.3801
17606TIP3    H274310   4.333   1.423   1.137 -0.3153 -0.1647 -0.5580
17607TIP3   OH274311   1.892   1.877   2.948  0.0904  0.2092  0.3875
17607TIP3    H174312   1.826   1.809   2.933  0.2093  0.6369 -2.6961
17607TIP3    H274313   1.975   1.830   2.945  0.2268  0.4865 -2.6481
17608TIP3   OH274314   5.580   1.897   2.071  0.4775 -0.4814 -0.1109
17608TIP3    H174315   5.648   1.844   2.030 -0.7945 -1.9637 -0.4018
17608TIP3    H274316   5.542   1.840   2.138  0.5117  0.8495  1.0782
17609TIP3   OH274317   1.730   6.472  15.205  0.0642  0.0210  0.2258
17609TIP3    H174318   1.680   6.447  15.127 -0.6297 -3.2855  1.5383
17609TIP3    H274319   1.686   6.551  15.237 -0.8179  0.3457 -1.6421
17610TIP3   OH274320   4.258   5.745  10.361 -0.6521  0.3175 -0.4610
17610TIP3    H174321   4.349   5.775  10.365 -0.2907 -0.6727 -0.8744
17610TIP3    H274322   4.223   5.761  10.448  0.4946 -1.0184  0.2834
17611TIP3   OH274323   3.114   2.502  16.630 -0.0554  0.2068 -0.7655
17611TIP3    H174324   3.060   2.533  16.557 -1.6377 -3.1279 -1.2060
17611TIP3    H274325   3.188   2.563  16.633 -1.0624  1.7623 -3.6847
17612TIP3   OH274326   1.180   2.924  13.101 -0.2883  0.4919 -0.0844
17612TIP3    H174327   1.231   3.003  13.116  0.5293 -0.3351  1.9126
17612TIP3    H274328   1.244   2.853  13.109 -1.0532 -0.3972 -1.5198
17613TIP3   OH274329   4.278   5.575   1.761 -0.4821  0.0384  0.2078
17613TIP3    H174330   4.243   5.544   1.844 -0.3138 -0.4519  0.0970
17613TIP3    H274331   4.354   5.519   1.744  1.1968  1.9092  1.1101
17614TIP3   OH274332   2.676   3.022  12.696  0.3271  0.3307  0.4195
17614TIP3    H174333   2.745   3.024  12.762  0.4519 -0.1998  0.3096
17614TIP3    H274334   2.631   2.939  12.711  1.2296 -0.4556 -1.0467
17615TIP3   OH274335   0.325   4.322  11.629  0.0362  0.0635 -0.9799
17615TIP3    H174336   0.316   4.234  11.664  0.1958  0.5716  0.4072
17615TIP3    H274337   0.236   4.349  11.608 -0.1418 -0.0483 -0.4025
17616TIP3   OH274338   0.424   5.126  11.210 -0.4007 -0.2613  0.1109
17616TIP3    H174339   0.465   5.089  11.132 -1.4809 -0.2267 -0.4937
17616TIP3    H274340   0.496   5.170  11.257  0.7143 -2.2433  0.3543
17617TIP3   OH274341   0.997   0.518  16.993  0.3496 -0.3559 -0.6062
17617TIP3    H174342   0.974   0.518  17.086  0.6679  1.0036 -0.4988
17617TIP3    H274343   1.067   0.453  16.985  1.2888  0.4867  0.3941
17618TIP3   OH274344   5.725   5.582   1.880 -0.3420  0.5499 -0.4578
17618TIP3    H174345   5.684   5.659   1.919 -1.2092 -0.9844  1.9207
17618TIP3    H274346   5.814   5.582   1.914 -0.8543 -0.3482  0.9811
17619TIP3   OH274347   3.716   2.870   5.587 -0.4198 -0.5254 -0.3611
17619TIP3    H174348   3.811   2.878   5.594 -0.5734  0.2179  1.7058
17619TIP3    H274349   3.701   2.781   5.554  0.9760  0.0757 -2.8732
17620TIP3   OH274350   4.644   1.116  13.462 -0.2521 -0.3022 -0.1466
17620TIP3    H174351   4.588   1.189  13.436 -3.5455 -2.4169  0.4428
17620TIP3    H274352   4.657   1.065  13.381  2.8345  1.2385 -0.7773
17621TIP3   OH274353   0.037   6.166  16.236  0.0841  0.1329 -0.1276
17621TIP3    H174354   0.020   6.138  16.326  0.5723 -0.7519 -0.3071
17621TIP3    H274355  -0.039   6.135  16.186  0.1323  0.0389 -0.1415
17622TIP3   OH274356   1.239   4.611   2.833 -0.2428  0.3979  0.0435
17622TIP3    H174357   1.243   4.682   2.898  1.0871 -0.5882  1.0853
17622TIP3    H274358   1.152   4.620   2.794 -1.4807  0.5031  2.5863
17623TIP3   OH274359   1.269   1.958  14.146 -0.0653 -0.7536  0.1143
17623TIP3    H174360   1.210   2.022  14.105  0.8900  0.3204  0.3593
17623TIP3    H274361   1.340   1.948  14.083 -0.7846 -2.5334 -0.4696
17624TIP3   OH274362   3.886   3.927  12.794  0.4812 -0.1400  0.6758
17624TIP3    H174363   3.972   3.960  12.818  0.1050  0.7623  0.8246
17624TIP3    H274364   3.828   3.961  12.862 -0.1100 -0.0924  0.1537
17625TIP3   OH274365   2.444   0.976   4.046 -0.0918  0.3438 -0.3270
17625TIP3    H174366   2.493   1.058   4.057  0.5377 -0.2732  1.9686
17625TIP3    H274367   2.511   0.909   4.036 -0.2053 -0.6545  3.7999
17626TIP3   OH274368   1.183   1.376  13.759  0.0648  0.0276 -0.4016
17626TIP3    H174369   1.274   1.405  13.764 -0.6162  2.2521  0.3474
17626TIP3    H274370   1.142   1.436  13.697 -0.9062 -0.8973 -0.6781
17627TIP3   OH274371   6.037   5.287  14.419 -0.6195  0.1407  0.1121
17627TIP3    H174372   6.076   5.315  14.336 -1.3535  0.3285 -0.1779
17627TIP3    H274373   5.961   5.344  14.429  1.9098  3.4249  3.2003
17628TIP3   OH274374   1.012   2.433  13.897  0.4107  0.1815 -0.3207
17628TIP3    H174375   1.098   2.424  13.855  0.3885 -0.1297 -0.3025
17628TIP3    H274376   0.962   2.487  13.836  0.1067 -0.9768 -1.1238
17629TIP3   OH274377   4.071   4.758   1.095  0.0487 -0.1816  0.5452
17629TIP3    H174378   4.045   4.670   1.067 -1.6663 -0.2948  2.2851
17629TIP3    H274379   4.082   4.750   1.189  0.4862  1.3448  0.6330
17630TIP3   OH274380   6.687   3.156   1.287 -0.1742  0.1778 -0.1449
17630TIP3    H174381   6.703   3.062   1.296  0.9152  0.4482  1.2598
17630TIP3    H274382   6.688   3.172   1.193  1.1555 -0.9873 -0.3647
17631TIP3   OH274383   6.048   3.989  14.237 -0.4035 -0.4064  0.0450
17631TIP3    H174384   6.109   3.947  14.298  2.4160  1.7004 -1.1620
17631TIP3    H274385   6.002   4.054  14.290 -0.0806 -0.5711  0.5348
17632TIP3   OH274386   5.739   4.373   2.840 -0.0894  0.6438  0.0893
17632TIP3    H174387   5.802   4.302   2.855 -0.5402  0.4940  1.3354
17632TIP3    H274388   5.654   4.331   2.850 -0.5708  0.3194 -3.6865
17633TIP3   OH274389   1.723   4.613   2.658 -0.3332  0.0856  0.1820
17633TIP3    H174390   1.759   4.661   2.583 -0.7452  0.9113  0.4944
17633TIP3    H274391   1.628   4.617   2.645 -0.3894 -0.0944  0.5487
17634TIP3   OH274392   4.819   4.067  11.751  0.1498  0.3646  0.4867
17634TIP3    H174393   4.750   4.123  11.715  3.1807  3.9203 -0.3300
17634TIP3    H274394   4.853   4.018  11.676 -0.5397 -0.3985  0.6530
17635TIP3   OH274395   5.508   3.919   0.270  0.0587  0.4223 -0.0210
17635TIP3    H174396   5.502   4.001   0.220  0.9652  0.5605  0.0722
17635TIP3    H274397   5.594   3.924   0.312  0.7918 -1.2533 -1.2291
17636TIP3   OH274398   5.704   1.138  13.506  0.0062  0.6867  0.0018
17636TIP3    H174399   5.753   1.220  13.504 -0.5697  1.0585  0.5267
17636TIP3    H274400   5.767   1.071  13.480  0.1671  1.4322 -1.6185
17637TIP3   OH274401   4.657   0.935   3.932  0.2517  0.1620  0.2327
17637TIP3    H174402   4.677   1.005   3.993  0.5186  0.3287 -0.0394
17637TIP3    H274403   4.742   0.911   3.895 -0.0412  0.9632 -1.0311
17638TIP3   OH274404   0.214   5.385  13.946  0.5090 -0.8769 -0.0878
17638TIP3    H174405   0.305   5.412  13.956  1.0863 -2.3163 -1.0210
17638TIP3    H274406   0.219   5.291  13.928 -0.9029 -0.4804 -3.2735
17639TIP3   OH274407   1.190   5.187  15.253  0.1182 -0.0701 -0.1827
17639TIP3    H174408   1.281   5.169  15.274  1.0009  1.8926 -1.9396
17639TIP3    H274409   1.142   5.109  15.283  2.5386 -1.7931 -0.5074
17640TIP3   OH274410   1.546   5.782   4.712 -0.0240  0.7765 -0.1154
17640TIP3    H174411   1.491   5.736   4.775  1.3889 -1.0565 -0.1175
17640TIP3    H274412   1.534   5.733   4.630 -1.1441  2.5813 -1.0838
17641TIP3   OH274413   4.927   1.147  15.739  0.1380 -0.5405 -0.1863
17641TIP3    H174414   4.889   1.228  15.774 -1.6300 -2.3086  2.3264
17641TIP3    H274415   4.851   1.092  15.720  1.3393 -2.3259 -0.0041
17642TIP3   OH274416   6.196   0.910  15.457 -0.2841  0.0964  0.2977
17642TIP3    H174417   6.274   0.964  15.471 -0.8946  1.0243  0.1489
17642TIP3    H274418   6.225   0.821  15.477  0.9187  0.3773 -0.1354
17643TIP3   OH274419   2.903   4.298   1.066  0.1467 -0.4766  0.0331
17643TIP3    H174420   2.820   4.327   1.027 -0.4469 -1.6005  0.4116
17643TIP3    H274421   2.962   4.372   1.054 -0.5373 -0.1217 -1.4039
17644TIP3   OH274422   3.840   4.661   5.528 -0.2985 -0.7692 -0.7755
17644TIP3    H174423   3.873   4.621   5.447 -0.4248 -1.2599 -0.5927
17644TIP3    H274424   3.841   4.755   5.511 -0.2888 -0.8668 -1.3343
17645TIP3   OH274425   5.479   4.427   4.776 -0.8872 -0.0468  0.0180
17645TIP3    H174426   5.469   4.477   4.694  1.6297  1.3720  0.4491
17645TIP3    H274427   5.501   4.493   4.841 -2.4274 -1.2092  1.8049
17646TIP3   OH274428   4.366   4.377  14.949  0.1320 -0.2602  0.5361
17646TIP3    H174429   4.447   4.328  14.938  0.3102  0.3123 -0.9051
17646TIP3    H274430   4.320   4.332  15.020  1.1324 -1.3509  0.5154
17647TIP3   OH274431   2.826   2.366   3.152  0.0906 -0.3891 -0.7847
17647TIP3    H174432   2.909   2.413   3.156  0.0769 -0.4439  1.4848
17647TIP3    H274433   2.760   2.430   3.180 -0.5005 -0.6516 -1.5248
17648TIP3   OH274434   2.126   5.789   6.740 -0.4460  0.3020 -0.2645
17648TIP3    H174435   2.121   5.694   6.748  1.1676  0.2015 -0.2687
17648TIP3    H274436   2.071   5.822   6.811 -1.0537 -0.6142 -0.2929
17649TIP3   OH274437   0.402   6.336   2.373  0.2875 -0.2305  0.7358
17649TIP3    H174438   0.379   6.329   2.465 -1.0676  0.5628  0.4848
17649TIP3    H274439   0.338   6.397   2.337  1.7770  0.7261 -0.4014
17650TIP3   OH274440   6.536   3.678   2.987 -0.2750  0.0272  0.2358
17650TIP3    H174441   6.534   3.599   2.933  1.0845 -0.4345  0.8214
17650TIP3    H274442   6.535   3.750   2.924  0.1308 -0.4863 -0.3746
17651TIP3   OH274443   0.670   2.546   2.461  0.4646  0.6284 -0.0587
17651TIP3    H174444   0.602   2.586   2.408  0.1101 -0.2447 -0.2742
17651TIP3    H274445   0.741   2.527   2.399  0.1153 -0.2441 -0.1947
17652TIP3   OH274446   3.556   2.156   0.758 -0.2054  0.4823  0.2059
17652TIP3    H174447   3.632   2.124   0.711 -1.8342 -0.4254 -1.9807
17652TIP3    H274448   3.508   2.078   0.784 -1.7860  1.0152 -0.9448
17653TIP3   OH274449   1.652   3.560   3.696 -0.3822  0.4013  0.1280
17653TIP3    H174450   1.565   3.546   3.658 -0.6802  1.5626  0.3215
17653TIP3    H274451   1.696   3.618   3.633  0.0639  0.2532  0.2993
17654TIP3   OH274452   5.062   5.841  13.180  1.1865 -0.1894 -0.1247
17654TIP3    H174453   5.123   5.911  13.158 -0.1317  0.7810 -0.8567
17654TIP3    H274454   5.031   5.808  13.096 -1.3053  1.2066  0.1275
17655TIP3   OH274455   1.304   3.171  13.082  0.1418 -0.0582  0.4189
17655TIP3    H174456   1.227   3.219  13.052 -1.2736 -2.5861 -0.3456
17655TIP3    H274457   1.378   3.228  13.062 -1.4867  2.6373  1.5085
17656TIP3   OH274458   1.395   1.408  14.034  0.2404  0.0571 -0.5229
17656TIP3    H174459   1.326   1.475  14.042  1.3490  1.3419 -1.3009
17656TIP3    H274460   1.477   1.457  14.042  1.0866 -1.4681  0.5732
17657TIP3   OH274461   4.097   5.098  16.487  0.1884 -0.2866  0.9173
17657TIP3    H174462   4.173   5.040  16.498  0.5184  0.3230  1.9079
17657TIP3    H274463   4.102   5.126  16.396  0.1850 -1.5759  0.4948
17658TIP3   OH274464   6.706   1.148   1.251  0.1107  0.2118 -0.2811
17658TIP3    H174465   6.732   1.069   1.299  0.0074  0.3064 -0.0641
17658TIP3    H274466   6.673   1.116   1.167  0.7356  0.0803 -0.4794
17659TIP3   OH274467   4.533   0.845  11.795  0.1747 -0.2876  0.0469
17659TIP3    H174468   4.576   0.784  11.735 -0.5461 -0.9872  0.2256
17659TIP3    H274469   4.454   0.800  11.823  0.4370  0.0629  1.4502
17660TIP3   OH274470   2.857   0.015  15.161 -0.0522  0.2042 -0.6969
17660TIP3    H174471   2.833   0.104  15.183  0.1472  0.0161  0.3243
17660TIP3    H274472   2.798  -0.009  15.089 -0.8169  0.7939 -0.2767
17661TIP3   OH274473   3.461   0.332   4.650  0.4088  0.1517  0.4410
17661TIP3    H174474   3.480   0.330   4.557  0.2033 -0.1126  0.4044
17661TIP3    H274475   3.368   0.313   4.657  0.5040 -0.2433  0.7232
17662TIP3   OH274476   4.834   4.309   2.959 -0.3289  0.3694 -0.0379
17662TIP3    H174477   4.847   4.379   3.022 -0.3190  0.2462  0.0979
17662TIP3    H274478   4.788   4.241   3.008 -1.4430  0.7714 -0.4891
17663TIP3   OH274479   6.285   3.404  10.991  0.4593 -0.7111  0.4788
17663TIP3    H174480   6.225   3.418  10.917  4.8231  3.3824 -2.8562
17663TIP3    H274481   6.278   3.484  11.043 -0.5970 -2.4596  3.2604
17664TIP3   OH274482   5.214   6.036   0.370 -0.3509 -0.2231 -0.3115
17664TIP3    H174483   5.162   6.020   0.291  0.6010 -0.4089 -0.9207
17664TIP3    H274484   5.294   5.986   0.356 -0.0675 -0.0590  0.6707
17665TIP3   OH274485   1.122   6.230   4.874  0.0945 -0.1488  0.1590
17665TIP3    H174486   1.035   6.223   4.835 -0.3271 -1.3610  1.2261
17665TIP3    H274487   1.159   6.142   4.868  0.2449 -0.2494  1.8992
17666TIP3   OH274488   2.276   5.627   1.875  0.3722  0.0599  0.3637
17666TIP3    H174489   2.352   5.574   1.851  0.8791  0.0592  1.8292
17666TIP3    H274490   2.223   5.569   1.930 -2.6399 -1.2001 -3.4087
17667TIP3   OH274491   4.071   3.539  16.159 -0.6190 -0.1949 -0.2403
17667TIP3    H174492   4.063   3.553  16.253 -0.7724  1.5653 -0.4826
17667TIP3    H274493   4.142   3.475  16.150 -0.1629  0.1110  1.0354
17668TIP3   OH274494   2.518   3.713   3.196 -0.2992  0.1525 -0.9482
17668TIP3    H174495   2.606   3.743   3.220  0.6759 -1.5051 -2.2230
17668TIP3    H274496   2.527   3.618   3.188 -2.6527 -0.2892  0.5815
17669TIP3   OH274497   1.977   2.677   3.890  0.1759  0.0119  0.7529
17669TIP3    H174498   1.998   2.757   3.842  1.1256  0.2959  1.6066
17669TIP3    H274499   2.030   2.682   3.970  0.0337 -1.3362  0.9569
17670TIP3   OH274500   1.859   2.411  12.572  0.5578  0.1763  0.0332
17670TIP3    H174501   1.937   2.467  12.569  0.6312  0.2315  1.8070
17670TIP3    H274502   1.804   2.451  12.639 -0.1416 -0.9365  0.1496
17671TIP3   OH274503   0.200   3.894  16.632  0.1537  0.7361 -0.1090
17671TIP3    H174504   0.264   3.877  16.562  0.0855 -2.1148  0.3946
17671TIP3    H274505   0.137   3.822  16.625 -0.4585  0.9584  2.2031
17672TIP3   OH274506   3.637   4.267   3.436  0.1309 -0.6227  0.0163
17672TIP3    H174507   3.712   4.326   3.440 -1.1214  1.0791 -0.5416
17672TIP3    H274508   3.645   4.224   3.351  0.6465 -0.7419  0.1179
17673TIP3   OH274509   6.500   4.795   6.055  0.7070 -0.3519  0.2787
17673TIP3    H174510   6.420   4.757   6.020  1.1335 -1.8751  0.8370
17673TIP3    H274511   6.570   4.742   6.017  1.3623  0.0572  0.8823
17674TIP3   OH274512   3.535   3.222  12.046 -0.4500  0.9061  0.3975
17674TIP3    H174513   3.543   3.237  11.952 -2.7795  0.4730  0.0466
17674TIP3    H274514   3.550   3.307  12.085 -0.5934  1.3489 -0.4818
17675TIP3   OH274515   6.149   6.677  11.544 -0.7098  0.5091  0.5126
17675TIP3    H174516   6.243   6.664  11.561 -0.4680 -2.0976 -2.0046
17675TIP3    H274517   6.112   6.589  11.551 -2.5276  1.1138 -0.8316
17676TIP3   OH274518   2.059   6.593  16.356 -0.1794  0.0192 -0.2173
17676TIP3    H174519   2.047   6.586  16.451  1.5799  0.0837  0.0325
17676TIP3    H274520   1.984   6.545  16.320 -0.9834  0.1437  1.1836
17677TIP3   OH274521   4.241   3.994   4.635  0.3627  0.0335  0.7921
17677TIP3    H174522   4.192   4.049   4.697  2.4272  0.8418  1.7835
17677TIP3    H274523   4.206   3.906   4.648 -0.2573  0.4425  2.0493
17678TIP3   OH274524   1.136   3.810   1.453 -0.3990 -0.1090  0.9972
17678TIP3    H174525   1.225   3.790   1.481 -0.0250 -0.5041 -0.3797
17678TIP3    H274526   1.131   3.776   1.363 -0.8149  2.9099 -0.2646
17679TIP3   OH274527   0.398   1.061  15.956  0.1219  0.2812  0.1441
17679TIP3    H174528   0.398   1.131  15.891 -1.3235 -0.1077 -0.3001
17679TIP3    H274529   0.398   1.106  16.040 -1.7806  0.8584 -0.1288
17680TIP3   OH274530   1.927   6.012   3.575  0.9476  0.1483  0.0341
17680TIP3    H174531   1.891   5.924   3.578  0.8595  0.0522 -2.0450
17680TIP3    H274532   1.894   6.055   3.654  0.8271 -1.5933  0.9748
17681TIP3   OH274533   3.216   4.836   6.449  0.2068 -0.4193  0.8510
17681TIP3    H174534   3.279   4.766   6.468  0.6749  0.0062  0.8708
17681TIP3    H274535   3.217   4.891   6.528  0.1347 -0.1680  0.6764
17682TIP3   OH274536   0.115   2.079  12.628 -0.4239 -0.4290  0.2775
17682TIP3    H174537   0.145   2.035  12.548 -0.5379 -1.7129  0.9190
17682TIP3    H274538   0.161   2.034  12.699  0.2200  1.1714  0.9077
17683TIP3   OH274539   5.817   1.929   4.114 -0.4333 -0.1055  0.0876
17683TIP3    H174540   5.859   1.872   4.178 -0.6685  0.0763  0.4017
17683TIP3    H274541   5.782   1.869   4.048  0.8926 -0.2407 -0.5402
17684TIP3   OH274542   5.176   4.956  17.048  0.9691  0.1420  0.3121
17684TIP3    H174543   5.201   4.944  17.139  0.8092 -0.1758  0.3123
17684TIP3    H274544   5.159   5.050  17.039 -0.9972 -0.0979  1.1016
17685TIP3   OH274545   3.749   4.077  12.300 -0.4345  0.0689 -0.1122
17685TIP3    H174546   3.754   4.124  12.383 -2.3533  3.4749 -1.7426
17685TIP3    H274547   3.828   4.103  12.253  0.0110 -0.8530  0.0885
17686TIP3   OH274548   1.300   6.077  14.626  0.3660 -0.6237  0.0191
17686TIP3    H174549   1.315   6.166  14.660  1.2062  0.0288 -1.9187
17686TIP3    H274550   1.212   6.055  14.656  0.0319  0.9769  0.3376
17687TIP3   OH274551   6.077   2.252   1.872  0.0435  0.7021 -0.1531
17687TIP3    H174552   5.983   2.267   1.859 -0.3804  4.0517  4.3087
17687TIP3    H274553   6.119   2.296   1.798 -1.8967  1.7816 -0.6657
17688TIP3   OH274554   4.305   3.431   4.390 -0.1373 -0.1685 -0.5529
17688TIP3    H174555   4.322   3.504   4.332 -0.6668  0.0622 -0.4229
17688TIP3    H274556   4.329   3.353   4.339  2.0514  0.1464 -0.1130
17689TIP3   OH274557   1.963   4.453   5.351  0.0606 -0.5051  0.1664
17689TIP3    H174558   1.927   4.450   5.440 -0.2881 -0.3544  0.0287
17689TIP3    H274559   1.966   4.362   5.323 -1.5426 -0.4167 -0.3633
17690TIP3   OH274560   4.511   3.034   5.078  0.2477  0.4475 -0.0623
17690TIP3    H174561   4.528   3.030   4.984  2.1550  0.4774  0.2333
17690TIP3    H274562   4.422   3.000   5.088  0.1038  0.1982 -1.8370
17691TIP3   OH274563   5.352   0.483  14.551 -0.0040 -0.1664  0.0913
17691TIP3    H174564   5.418   0.526  14.605  0.7035  0.8801 -1.5481
17691TIP3    H274565   5.399   0.455  14.473 -1.0299 -1.5496 -0.0691
17692TIP3   OH274566   3.013   1.385   3.507 -0.2119 -0.1984  0.2275
17692TIP3    H174567   3.004   1.477   3.483 -0.0062 -0.1891  0.1812
17692TIP3    H274568   2.925   1.357   3.532 -0.3677 -0.1176 -0.2193
17693TIP3   OH274569   4.174   4.756  15.864  0.5699  0.0667  0.1586
17693TIP3    H174570   4.114   4.817  15.821  1.0524 -0.7146 -1.7292
17693TIP3    H274571   4.259   4.772  15.823  0.6103 -2.1800 -0.8303
17694TIP3   OH274572   2.923   4.834  14.899  0.0421  0.0214 -0.4260
17694TIP3    H174573   2.965   4.805  14.817  2.9964  0.4050  0.8356
17694TIP3    H274574   2.910   4.928  14.887 -2.7858 -0.4273 -1.6947
17695TIP3   OH274575   1.149   5.028  13.632  0.1839 -0.2199  0.2347
17695TIP3    H174576   1.203   5.072  13.698 -0.0613 -1.2255  1.1250
17695TIP3    H274577   1.125   4.945  13.672 -1.2249 -0.2165 -0.5385
17696TIP3   OH274578   0.453   5.195  16.634  0.6847 -0.1345  0.3606
17696TIP3    H174579   0.390   5.260  16.667  0.1312  1.1368 -2.8147
17696TIP3    H274580   0.398   5.125  16.599  1.2427 -1.4116  1.9209
17697TIP3   OH274581   4.744   3.205   4.694 -0.0254  0.1914 -0.2237
17697TIP3    H174582   4.791   3.245   4.621  0.3262  1.9895  0.9322
17697TIP3    H274583   4.655   3.240   4.688  0.0985  0.6249  0.3953
17698TIP3   OH274584   0.465   0.442   6.146 -0.0156  0.3958  0.3060
17698TIP3    H174585   0.438   0.420   6.057  2.2529  0.3851 -0.4482
17698TIP3    H274586   0.508   0.527   6.138 -0.1986  0.6203  1.4942
17699TIP3   OH274587   6.690   3.198  13.070 -0.1377 -0.1024 -0.0350
17699TIP3    H174588   6.741   3.259  13.016  1.4844  1.4320  2.9591
17699TIP3    H274589   6.599   3.219  13.049  0.3914  0.1319 -2.3814
17700TIP3   OH274590   2.802   5.190  11.934  0.5206  0.3612 -0.1288
17700TIP3    H174591   2.896   5.209  11.926  1.1171 -1.8445  0.8439
17700TIP3    H274592   2.775   5.235  12.014  0.2879  2.4375 -1.3169
17701TIP3   OH274593   1.727   5.217  12.910 -0.2796 -1.2427  0.2083
17701TIP3    H174594   1.767   5.130  12.913  4.6820  0.6215 -1.1897
17701TIP3    H274595   1.714   5.240  13.001  0.3343 -2.6915  0.7006
17702TIP3   OH274596   4.909   1.586   5.082  0.3038  0.0360 -0.1240
17702TIP3    H174597   4.858   1.534   5.020  0.4892 -0.6986  0.3290
17702TIP3    H274598   4.901   1.676   5.050 -0.6938 -0.1611 -0.4608
17703TIP3   OH274599   5.612   2.187   0.121 -0.5871 -0.2908  0.0746
17703TIP3    H174600   5.706   2.189   0.138 -0.3783 -1.7614 -0.6770
17703TIP3    H274601   5.604   2.131   0.044 -2.0771 -0.0758  0.0528
17704TIP3   OH274602   0.631   4.883  13.231 -0.3656 -0.7746  0.1931
17704TIP3    H174603   0.591   4.796  13.240 -0.1396 -0.7715  1.3767
17704TIP3    H274604   0.574   4.941  13.282 -1.1772  0.0132 -1.5365
17705TIP3   OH274605   5.704   2.222  13.168 -0.2296 -0.0568 -0.5463
17705TIP3    H174606   5.623   2.170  13.165  0.5485 -1.3071 -0.5586
17705TIP3    H274607   5.687   2.296  13.110 -0.9036 -1.0107 -1.6069
17706TIP3   OH274608   6.609   2.351   5.102  0.1621  0.2197 -0.0443
17706TIP3    H174609   6.636   2.426   5.155 -1.3320  0.4165  0.4868
17706TIP3    H274610   6.568   2.391   5.025  0.2725 -0.0552 -0.2446
17707TIP3   OH274611   0.623   3.506   1.898  0.0974 -0.2380  0.2131
17707TIP3    H174612   0.593   3.415   1.902  0.8997 -0.4944  0.6677
17707TIP3    H274613   0.717   3.501   1.916  0.0490  0.7365  0.8214
17708TIP3   OH274614   6.625   1.305   4.953 -0.3705  0.0496 -0.0952
17708TIP3    H174615   6.690   1.242   4.985 -0.9091  0.1322  1.2556
17708TIP3    H274616   6.564   1.315   5.026  0.1676  2.7932  0.0799
17709TIP3   OH274617   1.935   5.566   4.792 -0.5239 -0.1675 -0.1960
17709TIP3    H174618   1.845   5.536   4.789 -0.5309 -0.1146 -0.5360
17709TIP3    H274619   1.954   5.595   4.703  0.0012 -0.6792 -0.2589
17710TIP3   OH274620   2.461   1.898   0.667  0.4509  0.8951  0.3350
17710TIP3    H174621   2.394   1.938   0.612  0.9308  1.9940  0.5076
17710TIP3    H274622   2.480   1.965   0.734 -1.6339 -1.1495  3.1833
17711TIP3   OH274623   2.040   1.583  12.297 -0.2737 -0.3338 -0.8979
17711TIP3    H174624   2.004   1.654  12.245 -1.3149  1.1471  1.6830
17711TIP3    H274625   1.963   1.538  12.333  0.3977 -1.7880 -1.2119
17712TIP3   OH274626   6.730   6.243   2.750 -0.3349 -0.4585  0.1666
17712TIP3    H174627   6.820   6.214   2.763  0.3843  2.2322  2.0375
17712TIP3    H274628   6.732   6.290   2.666  0.1421  0.0102  0.4363
17713TIP3   OH274629   5.962   5.898  13.358 -0.0511  0.0056  0.1887
17713TIP3    H174630   5.934   5.862  13.442 -0.7872  0.6357  0.2131
17713TIP3    H274631   6.015   5.828  13.319  0.0932 -0.3825  1.0606
17714TIP3   OH274632   2.608   2.952  13.104  0.0497  0.3679 -0.4875
17714TIP3    H174633   2.512   2.952  13.100 -0.1301 -0.0620  2.0660
17714TIP3    H274634   2.632   2.860  13.113  0.2907  0.6245  3.2081
17715TIP3   OH274635   6.088   5.762  11.408  0.4434  0.0426  0.9166
17715TIP3    H174636   6.118   5.797  11.324  1.2700  0.7033  1.4655
17715TIP3    H274637   6.001   5.801  11.421  0.5286  0.3391  0.6012
17716TIP3   OH274638   5.009   1.248   4.314 -0.6580  0.5194  0.5230
17716TIP3    H174639   4.982   1.289   4.396 -0.1054 -0.1135  1.0402
17716TIP3    H274640   5.104   1.259   4.312 -0.6431  0.3529  0.0624
17717TIP3   OH274641   4.610   3.214  15.190  0.1638 -0.4618 -0.0576
17717TIP3    H174642   4.556   3.136  15.199  1.1906 -1.0533  1.3525
17717TIP3    H274643   4.600   3.240  15.098 -1.2970 -1.4170 -0.2043
17718TIP3   OH274644   2.206   3.633  13.418 -0.2805 -0.1412  0.6376
17718TIP3    H174645   2.116   3.634  13.384  0.0180 -0.0242 -0.1829
17718TIP3    H274646   2.219   3.543  13.449 -0.3789 -0.4304 -0.1209
17719TIP3   OH274647   5.643   5.165   0.696 -0.4627  0.6606 -0.5298
17719TIP3    H174648   5.716   5.228   0.697  0.9521 -0.7759  2.8262
17719TIP3    H274649   5.574   5.210   0.647  1.2613  3.8059 -0.3877
17720TIP3   OH274650   4.966   0.176  11.559 -0.3215 -0.0723 -0.0251
17720TIP3    H174651   4.891   0.181  11.619 -0.8217 -1.3395 -0.5102
17720TIP3    H274652   5.042   0.177  11.616 -0.7457  0.2149  0.5457
17721TIP3   OH274653   2.029   3.694  15.165  0.3996  0.2298  0.5652
17721TIP3    H174654   2.058   3.623  15.222 -1.0238  0.3432  1.4734
17721TIP3    H274655   1.978   3.651  15.097 -0.2186  0.3323  0.9518
17722TIP3   OH274656   2.456   1.249   5.332 -0.6888 -0.0520 -0.5841
17722TIP3    H174657   2.536   1.294   5.306 -0.6469 -0.2876 -0.8659
17722TIP3    H274658   2.392   1.319   5.347 -0.6469  0.0963 -1.0934
17723TIP3   OH274659   5.776   6.218   2.666  0.1622  0.1547 -0.8438
17723TIP3    H174660   5.844   6.164   2.626 -0.5663 -0.1363 -1.7245
17723TIP3    H274661   5.756   6.285   2.600 -0.3039  0.3249 -0.5403
17724TIP3   OH274662   1.242   3.924  12.475  0.1902 -0.4887  0.1562
17724TIP3    H174663   1.236   4.009  12.517  1.4832 -0.8198  1.0507
17724TIP3    H274664   1.174   3.926  12.407 -0.4156  0.8887  0.7724
17725TIP3   OH274665   3.024   3.107   5.807 -0.4481  0.4202 -0.0891
17725TIP3    H174666   3.095   3.071   5.860 -0.7034  0.9258  0.6083
17725TIP3    H274667   2.975   3.162   5.867 -2.7996 -1.6562  0.0639
17726TIP3   OH274668   0.560   5.195  14.635 -0.0695 -0.0385  0.3172
17726TIP3    H174669   0.627   5.252  14.598 -0.7237  1.8140  1.7484
17726TIP3    H274670   0.492   5.190  14.568  1.1771 -1.4170 -0.8895
17727TIP3   OH274671   1.382   5.638  15.326 -0.8936  0.0227  0.2246
17727TIP3    H174672   1.356   5.568  15.387  0.2361  0.4008  1.1968
17727TIP3    H274673   1.342   5.614  15.243 -1.1362 -1.3963  0.7200
17728TIP3   OH274674   1.384   6.617  14.094 -0.4990  0.1190 -0.0389
17728TIP3    H174675   1.411   6.665  14.015  0.6214 -1.3061 -0.5751
17728TIP3    H274676   1.299   6.580  14.071 -0.6665  0.5954 -0.1902
17729TIP3   OH274677   6.326   5.685   1.520  0.3935  0.4310 -0.2146
17729TIP3    H174678   6.254   5.716   1.575  0.9985  1.4061  0.0479
17729TIP3    H274679   6.311   5.727   1.436 -0.6659 -1.2457 -0.9236
17730TIP3   OH274680   0.500   3.788   1.028  0.2102  0.3624 -0.7266
17730TIP3    H174681   0.486   3.726   0.956 -0.6767  0.5715 -0.7549
17730TIP3    H274682   0.541   3.737   1.097 -1.8153 -0.6576 -0.1982
17731TIP3   OH274683   5.605   2.470  14.344 -0.6361  0.6624 -0.0603
17731TIP3    H174684   5.533   2.408  14.353 -0.0061 -0.1239 -0.3648
17731TIP3    H274685   5.600   2.499  14.253  0.0520 -0.1777 -0.3752
17732TIP3   OH274686   5.370   2.781   2.993  0.6347 -0.4301  0.2734
17732TIP3    H174687   5.390   2.748   2.905 -0.4529 -0.5463  0.0559
17732TIP3    H274688   5.426   2.858   3.003 -0.7800  0.8821 -1.4031
17733TIP3   OH274689   4.444   3.387  14.477  0.0650  0.6505 -0.2663
17733TIP3    H174690   4.375   3.364  14.416 -0.3729  2.0028 -0.3256
17733TIP3    H274691   4.521   3.339  14.446 -0.7640 -0.6218 -0.3818
17734TIP3   OH274692   5.006   2.129  13.057  0.1700  0.8111  0.4877
17734TIP3    H174693   4.982   2.092  12.972 -1.1078 -2.6557  2.1572
17734TIP3    H274694   5.086   2.083  13.082  0.3840  1.5869  1.2700
17735TIP3   OH274695   3.400   1.423  16.866 -0.0231  0.0725  0.8654
17735TIP3    H174696   3.470   1.417  16.801 -0.3698 -1.0321  0.5596
17735TIP3    H274697   3.333   1.476  16.824  0.7578  1.4723  1.3121
17736TIP3   OH274698   3.659   2.282  12.949 -0.5124  0.1549 -0.7548
17736TIP3    H174699   3.599   2.232  12.894 -0.3038 -0.2131 -0.6489
17736TIP3    H274700   3.622   2.276  13.037 -0.1139 -0.4118 -0.6164
17737TIP3   OH274701   0.574   5.842  14.143 -0.3826  0.3762 -0.5239
17737TIP3    H174702   0.615   5.757  14.155 -0.4113  0.2984 -0.9625
17737TIP3    H274703   0.481   5.826  14.156 -0.7518 -0.2449 -3.3161
17738TIP3   OH274704   2.638   3.597  11.805  0.1294 -0.6430 -0.1489
17738TIP3    H174705   2.579   3.595  11.730  0.1402 -2.0372 -0.1361
17738TIP3    H274706   2.614   3.678  11.852 -1.7611 -1.1478 -0.1575
17739TIP3   OH274707   4.509   5.901   5.938 -0.6335  0.0358 -0.0324
17739TIP3    H174708   4.451   5.944   5.876  1.0849  0.8180 -1.1636
17739TIP3    H274709   4.560   5.972   5.977  0.5742 -0.7491 -0.1486
17740TIP3   OH274710   2.509   6.781   0.166 -0.0893  0.0189 -0.2120
17740TIP3    H174711   2.466   6.866   0.159  0.8682  0.3745 -2.5751
17740TIP3    H274712   2.452   6.730   0.224 -1.6197  1.6845 -0.1662
17741TIP3   OH274713   1.954   4.821   1.778 -0.7188  0.3259 -0.6284
17741TIP3    H174714   2.047   4.844   1.789 -0.6906  0.4536 -1.0936
17741TIP3    H274715   1.928   4.866   1.698 -0.9565 -0.4013 -0.9708
17742TIP3   OH274716   1.352   0.462  13.516  0.0102 -0.5666  0.6426
17742TIP3    H174717   1.435   0.417  13.508 -0.4528 -1.3472  0.0586
17742TIP3    H274718   1.295   0.420  13.451 -0.6334  0.4092  0.5463
17743TIP3   OH274719   4.447   3.618  13.004  0.0028  0.0901 -0.6762
17743TIP3    H174720   4.437   3.575  13.090 -0.4344  1.3030 -0.0906
17743TIP3    H274721   4.441   3.547  12.941  0.9838 -0.9191  0.3211
17744TIP3   OH274722   0.642   1.978  17.112 -0.0780 -0.2429 -0.4281
17744TIP3    H174723   0.626   2.034  17.188  2.1988  0.8398 -0.6863
17744TIP3    H274724   0.590   2.018  17.042 -0.6455 -0.1039  0.0602
17745TIP3   OH274725   3.749   2.143   4.319  0.3553 -0.3447 -0.6033
17745TIP3    H174726   3.715   2.056   4.342  0.6592 -0.3491 -0.1626
17745TIP3    H274727   3.724   2.154   4.227 -2.2616  0.3198  0.0802
17746TIP3   OH274728   1.039   6.358  13.498  0.2910 -0.6572  0.3737
17746TIP3    H174729   0.998   6.310  13.427 -0.5360 -0.9464  1.0371
17746TIP3    H274730   1.132   6.339  13.490 -0.1246 -3.5651  1.4787
17747TIP3   OH274731   6.716   4.372   0.929 -0.3277  0.0988 -0.2892
17747TIP3    H174732   6.632   4.358   0.972 -0.9193  3.4230 -0.0862
17747TIP3    H274733   6.780   4.369   1.000 -0.7418  0.8948  0.1384
17748TIP3   OH274734   5.747   1.813  15.479 -0.0990  0.6576 -0.0815
17748TIP3    H174735   5.698   1.806  15.397 -0.3900  0.3151  0.1193
17748TIP3    H274736   5.811   1.741  15.474  1.5783  2.1314 -1.1224
17749TIP3   OH274737   5.622   0.028  16.295 -0.1096  0.4815 -0.2379
17749TIP3    H174738   5.712   0.059  16.282  0.3550 -1.2148 -1.3635
17749TIP3    H274739   5.626  -0.066  16.280 -1.5766 -0.1075  2.4965
17750TIP3   OH274740   0.082   3.912   2.182  0.3653  0.2882 -0.0444
17750TIP3    H174741   0.166   3.904   2.136  0.8991 -3.0507  1.2283
17750TIP3    H274742   0.098   3.872   2.267 -2.3137  0.3367  0.5582
17751TIP3   OH274743   0.654   3.407  11.635  0.3733 -0.0125  0.1652
17751TIP3    H174744   0.708   3.486  11.633 -0.5846  0.6445 -0.7645
17751TIP3    H274745   0.590   3.423  11.705 -0.5198  0.5409 -0.7492
17752TIP3   OH274746   0.209   6.734  10.422  0.1236  0.3662 -0.3076
17752TIP3    H174747   0.295   6.771  10.402 -0.0677  0.5656 -0.8001
17752TIP3    H274748   0.227   6.656  10.473  0.5685  0.7496  0.1318
17753TIP3   OH274749   4.168   3.787   1.307  0.2369 -0.3028  0.1186
17753TIP3    H174750   4.145   3.873   1.342  0.7625 -0.2082  0.2403
17753TIP3    H274751   4.086   3.738   1.308  0.1621 -0.1662  1.0881
17754TIP3   OH274752   3.000   5.979   0.372 -0.5627 -0.0793 -0.7311
17754TIP3    H174753   2.999   5.987   0.467 -1.5798  0.2403 -0.7461
17754TIP3    H274754   3.032   6.064   0.341 -1.5952  0.3502 -0.6828
17755TIP3   OH274755   5.194   4.103   0.809  0.2697 -0.1388 -0.5886
17755TIP3    H174756   5.156   4.184   0.776 -1.4193  0.0385  1.5531
17755TIP3    H274757   5.255   4.131   0.878  0.3919 -0.6453 -0.4856
17756TIP3   OH274758   3.834   5.858   1.281  0.1603  0.3088 -0.0894
17756TIP3    H174759   3.916   5.838   1.326  0.6734  1.1990 -0.6149
17756TIP3    H274760   3.781   5.904   1.346  0.5755  0.8558 -0.1383
17757TIP3   OH274761   2.810   2.185  13.935 -0.0597 -0.3037  0.4167
17757TIP3    H174762   2.857   2.269  13.936 -1.8999  0.7879 -0.4316
17757TIP3    H274763   2.763   2.183  14.019 -0.3736 -0.2593  0.2439
17758TIP3   OH274764   4.099   5.211  15.728  0.7082  0.4419  0.2660
17758TIP3    H174765   4.186   5.239  15.698  0.5549  0.2519 -0.3722
17758TIP3    H274766   4.051   5.292  15.743 -0.1983  0.6034 -2.9330
17759TIP3   OH274767   3.521   5.028   1.171  0.1227  0.4251  0.0495
17759TIP3    H174768   3.510   5.107   1.119  0.6367  1.1309  0.9737
17759TIP3    H274769   3.513   5.057   1.262 -0.8681 -0.7862  0.3905
17760TIP3   OH274770   0.130   3.426  11.305  0.0868 -0.1841 -0.0984
17760TIP3    H174771   0.063   3.403  11.240  0.0736 -1.1256  0.2321
17760TIP3    H274772   0.193   3.354  11.301 -0.1709 -0.5140  1.2729
17761TIP3   OH274773   2.961   5.292   6.253 -0.2749  0.7923  0.0978
17761TIP3    H174774   2.992   5.339   6.330  0.3535  0.6814 -0.0774
17761TIP3    H274775   3.009   5.209   6.255 -1.0503  0.3328  0.1715
17762TIP3   OH274776   4.250   0.395   1.181 -0.3611  0.6792 -0.3794
17762TIP3    H174777   4.266   0.316   1.130 -0.2923  1.4081 -1.5294
17762TIP3    H274778   4.175   0.436   1.139 -2.2302 -0.1562  1.9123
17763TIP3   OH274779   6.402   2.755   4.545 -0.1556  0.5986  0.4916
17763TIP3    H174780   6.409   2.818   4.618  0.1198  1.1207  0.0206
17763TIP3    H274781   6.349   2.801   4.479  0.0173  0.3180  0.1565
17764TIP3   OH274782   6.603   5.149   4.359  0.3887  0.4795  0.0625
17764TIP3    H174783   6.531   5.115   4.306  0.2532  0.7026  0.1024
17764TIP3    H274784   6.678   5.093   4.337  0.2176  0.2843 -0.0212
17765TIP3   OH274785   3.582   3.345  15.396  0.4185  0.5397 -0.2030
17765TIP3    H174786   3.496   3.303  15.405  1.2532 -1.5152 -1.1002
17765TIP3    H274787   3.567   3.417  15.334 -1.0489  1.5955  1.2934
17766TIP3   OH274788   4.586   4.096  12.661  0.2647  0.4413 -0.3954
17766TIP3    H174789   4.613   4.133  12.577 -0.5478 -0.6421 -1.1668
17766TIP3    H274790   4.492   4.114  12.666  0.2619  0.2996  0.1778
17767TIP3   OH274791   0.828   5.792  14.459  0.0134  0.2418 -0.5986
17767TIP3    H174792   0.913   5.779  14.416 -0.9196 -0.2417 -2.4170
17767TIP3    H274793   0.767   5.741  14.405 -1.8694  2.6448 -0.8704
17768TIP3   OH274794   2.743   5.389   2.569 -0.2672 -0.2575  0.1798
17768TIP3    H174795   2.748   5.294   2.555 -1.0121 -0.5496  1.7033
17768TIP3    H274796   2.801   5.406   2.643 -1.9176  0.0782  1.4653
17769TIP3   OH274797   3.450   5.498   1.141 -0.2321 -0.2329 -0.4196
17769TIP3    H174798   3.410   5.584   1.154  1.1211  0.1259  1.9187
17769TIP3    H274799   3.534   5.517   1.100 -0.1750 -0.4998 -0.4250
17770TIP3   OH274800   4.326   1.131   3.030  0.0783 -0.2767  0.5980
17770TIP3    H174801   4.403   1.135   3.087  0.0980 -1.7795  0.7170
17770TIP3    H274802   4.268   1.199   3.064  0.0756 -1.1374  2.4692
17771TIP3   OH274803   3.510   4.610   0.274  0.1090 -0.4585  0.0900
17771TIP3    H174804   3.479   4.669   0.205 -0.9797 -0.4186  0.5965
17771TIP3    H274805   3.475   4.647   0.355  0.0771 -1.3665  0.5050
17772TIP3   OH274806   5.714   0.398   1.634 -0.3210 -0.0294  0.0676
17772TIP3    H174807   5.739   0.352   1.554  0.1775  1.7719 -0.8836
17772TIP3    H274808   5.773   0.364   1.701 -0.4038 -1.2002 -0.4306
17773TIP3   OH274809   4.704   1.610   3.004  0.0984  0.7904  0.3392
17773TIP3    H174810   4.750   1.598   2.921 -0.8040 -1.5677  0.0897
17773TIP3    H274811   4.773   1.616   3.069  0.7980  1.3221 -0.4290
17774TIP3   OH274812   2.366   4.961  16.487  0.2751 -0.2681  0.0977
17774TIP3    H174813   2.373   4.871  16.518  0.0537  0.3618  2.1277
17774TIP3    H274814   2.309   4.955  16.411 -0.9463 -1.6803  1.0590
17775TIP3   OH274815   1.955   6.321   2.493  0.0986 -0.8686  0.2654
17775TIP3    H174816   1.970   6.303   2.586  0.0655 -1.0589  0.2343
17775TIP3    H274817   1.958   6.235   2.451 -0.2680 -0.8238  0.1453
17776TIP3   OH274818   1.790   0.636   6.304  0.7237 -0.6869  0.4710
17776TIP3    H174819   1.840   0.659   6.382  0.6096 -1.3222  0.7461
17776TIP3    H274820   1.699   0.638   6.333  0.6826 -0.9418  0.3626
17777TIP3   OH274821   2.352   0.280  14.238  0.0159  0.1870 -0.0091
17777TIP3    H174822   2.311   0.209  14.188  0.3711 -1.1010  1.4362
17777TIP3    H274823   2.384   0.341  14.171 -0.0487 -1.1540 -1.3202
17778TIP3   OH274824   3.410   5.352   3.671 -0.1901 -0.6646  0.4881
17778TIP3    H174825   3.493   5.356   3.623 -0.6817  0.2572 -0.3024
17778TIP3    H274826   3.381   5.261   3.661 -0.5150 -0.3869 -1.3624
17779TIP3   OH274827   0.855   6.165  11.772 -0.1237 -0.6389 -0.5903
17779TIP3    H174828   0.868   6.249  11.729  2.6139 -0.4343  0.4433
17779TIP3    H274829   0.871   6.183  11.865  2.5228 -2.5635 -0.5566
17780TIP3   OH274830   0.367   1.087   1.721  0.3394 -0.2649  0.1299
17780TIP3    H174831   0.412   1.069   1.639  1.3622 -1.4164  0.9132
17780TIP3    H274832   0.430   1.064   1.789 -1.2420 -1.5307  1.2596
17781TIP3   OH274833   2.866   1.060  13.883  0.5111  0.2127 -0.3603
17781TIP3    H174834   2.956   1.029  13.886  0.6995  0.8330  1.0290
17781TIP3    H274835   2.825   1.007  13.814  1.6303 -0.8519 -0.2463
17782TIP3   OH274836   4.444   1.922  13.049  0.2901  0.1380  0.1699
17782TIP3    H174837   4.353   1.892  13.041  0.3144  0.0037  0.3899
17782TIP3    H274838   4.462   1.966  12.965  0.0652  0.0518  0.0752
17783TIP3   OH274839   5.714   0.223   3.943  0.1901  0.2398 -0.2782
17783TIP3    H174840   5.636   0.278   3.939 -0.5178 -0.7061  0.2653
17783TIP3    H274841   5.682   0.138   3.972  1.0100 -0.9668 -2.6647
17784TIP3   OH274842   0.838   1.262  12.384  0.2471  0.7272  0.2516
17784TIP3    H174843   0.808   1.199  12.450 -1.4437  0.3947 -0.7582
17784TIP3    H274844   0.783   1.338  12.398 -1.0125  0.2025 -1.4999
17785TIP3   OH274845   1.404   6.675  13.025 -0.4697  0.0666 -0.3205
17785TIP3    H174846   1.457   6.604  12.989  0.0067  0.3182 -0.1149
17785TIP3    H274847   1.393   6.736  12.952  0.7490  0.7251  0.0218
17786TIP3   OH274848   2.267   2.591  16.520  0.1018 -0.2629 -0.4231
17786TIP3    H174849   2.204   2.663  16.533 -1.3788 -1.3617 -1.1971
17786TIP3    H274850   2.229   2.518  16.569  1.6309 -0.5331  0.4084
17787TIP3   OH274851   4.760   2.629   1.921 -0.2645  0.0552 -0.1630
17787TIP3    H174852   4.788   2.707   1.969 -0.4951  0.3691 -0.5310
17787TIP3    H274853   4.827   2.617   1.854 -0.4397  0.1766 -0.3622
17788TIP3   OH274854   4.874   5.902   0.672 -0.3761 -0.0375 -0.4046
17788TIP3    H174855   4.954   5.866   0.634  1.0117  0.8947  1.4871
17788TIP3    H274856   4.818   5.825   0.685  1.3583 -1.1692  0.8431
17789TIP3   OH274857   4.008   4.476   4.938  0.4169  0.1015  1.0514
17789TIP3    H174858   4.084   4.433   4.900 -0.8318 -1.1141 -0.1686
17789TIP3    H274859   3.990   4.549   4.879 -0.0316 -0.2802  0.7180
17790TIP3   OH274860   1.794   5.465  14.782  0.0844  0.4298 -0.1767
17790TIP3    H174861   1.768   5.377  14.812 -0.1441  1.0289  1.4980
17790TIP3    H274862   1.885   5.474  14.810  0.3069  0.5094 -0.9033
17791TIP3   OH274863   4.836   5.932  10.936 -0.1460  0.8682 -0.0601
17791TIP3    H174864   4.860   5.857  10.992  0.6748  1.2925  0.1659
17791TIP3    H274865   4.889   6.004  10.969 -1.0498  1.6008 -0.1784
17792TIP3   OH274866   3.214   2.066   4.609 -0.1221  0.4779 -0.3946
17792TIP3    H174867   3.296   2.105   4.640 -1.1119  2.2463  0.1263
17792TIP3    H274868   3.242   1.995   4.552  1.8141  2.2108 -1.7677
17793TIP3   OH274869   2.417   5.560  16.201  0.4056  0.4892  0.4441
17793TIP3    H174870   2.452   5.562  16.290  2.7990 -0.8215 -0.4045
17793TIP3    H274871   2.340   5.503  16.207  1.4335 -0.8508  1.4092
17794TIP3   OH274872   2.742   3.902  10.743 -0.1702  0.7682 -0.2988
17794TIP3    H174873   2.649   3.925  10.751 -0.0045  1.7894 -1.1237
17794TIP3    H274874   2.745   3.808  10.762 -1.4708  0.5931 -0.8469
17795TIP3   OH274875   0.851   1.531  16.208 -0.1781 -0.0075 -0.2728
17795TIP3    H174876   0.785   1.599  16.209 -0.3979 -0.1301 -2.1284
17795TIP3    H274877   0.803   1.449  16.220  0.1726  0.1184  2.8238
17796TIP3   OH274878   3.679   2.258   2.694 -0.2810  0.1752 -0.0505
17796TIP3    H174879   3.673   2.208   2.775 -0.5910 -2.9530 -1.8239
17796TIP3    H274880   3.768   2.245   2.664  0.2115  2.3492  0.3050
17797TIP3   OH274881   0.806   3.043  12.990  0.7676 -0.2168  0.6541
17797TIP3    H174882   0.769   3.115  13.041  1.0292 -0.0793  0.6500
17797TIP3    H274883   0.730   3.001  12.949  0.5698 -0.2278  1.0220
17798TIP3   OH274884   1.633   1.176  13.602  0.0919  0.1311  0.0060
17798TIP3    H174885   1.566   1.135  13.548  0.0577  2.2885 -1.7385
17798TIP3    H274886   1.585   1.208  13.679 -0.7272  0.8031 -0.7624
17799TIP3   OH274887   1.648   1.136   2.036 -0.5243 -0.6650  0.1966
17799TIP3    H174888   1.555   1.157   2.027 -0.0502  1.0503 -1.6628
17799TIP3    H274889   1.684   1.208   2.088 -0.1011 -0.8568  0.1740
17800TIP3   OH274890   3.868   2.573  16.685  0.6578 -0.6448 -0.0273
17800TIP3    H174891   3.826   2.490  16.663  0.8757 -1.5891  2.6510
17800TIP3    H274892   3.962   2.553  16.681  0.7115 -0.5288  0.5137
17801TIP3   OH274893   4.774   3.851   1.306 -0.4745 -0.6392 -0.1190
17801TIP3    H174894   4.779   3.905   1.227  1.0805  1.0405  1.0654
17801TIP3    H274895   4.749   3.764   1.273  1.3519 -0.3375 -2.6336
17802TIP3   OH274896   5.835   4.249  13.768  0.1132  0.1217  0.1575
17802TIP3    H174897   5.841   4.155  13.787  1.1638 -0.5340 -2.8602
17802TIP3    H274898   5.762   4.256  13.706 -0.8141  1.5235  1.3545
17803TIP3   OH274899   3.191   4.452  12.488  0.7402  0.4939  0.0084
17803TIP3    H174900   3.121   4.438  12.552 -1.1302  0.6040 -1.9208
17803TIP3    H274901   3.203   4.547  12.487 -0.6595  0.6876 -1.1970
17804TIP3   OH274902   5.885   3.030   1.632  0.3202 -0.4302 -0.2382
17804TIP3    H174903   5.825   2.965   1.670 -1.6719  0.6038 -1.4409
17804TIP3    H274904   5.830   3.107   1.619  1.7115  0.2746 -2.2747
17805TIP3   OH274905   6.677   3.307   5.529 -0.3862  0.4310 -0.0437
17805TIP3    H174906   6.763   3.286   5.566  0.0729  0.7669 -0.8930
17805TIP3    H274907   6.615   3.271   5.592  0.3761 -0.1363  0.4078
17806TIP3   OH274908   3.953   3.117   2.025 -0.3190  0.0521  0.2129
17806TIP3    H174909   3.877   3.175   2.039 -0.9124 -0.1720 -1.7742
17806TIP3    H274910   3.914   3.034   1.998  0.6109 -0.0031 -1.0404
17807TIP3   OH274911   2.305   2.667  13.230  0.0494  0.5495  0.1293
17807TIP3    H174912   2.282   2.651  13.138  1.6808  0.0254 -0.2336
17807TIP3    H274913   2.269   2.753  13.249  1.2219  1.4828 -1.5830
17808TIP3   OH274914   2.459   6.542  15.087  0.6520  0.3772  0.4380
17808TIP3    H174915   2.378   6.569  15.130 -0.6234 -1.1638 -0.9008
17808TIP3    H274916   2.526   6.550  15.156 -0.2055  3.4205  1.0794
17809TIP3   OH274917   3.579   4.726  12.015 -0.1563 -0.2028 -0.1361
17809TIP3    H174918   3.547   4.698  12.100  0.5386 -0.8394 -0.0671
17809TIP3    H274919   3.525   4.801  11.992  0.4818  0.7984  1.4583
17810TIP3   OH274920   6.121   5.535   0.295  0.7448 -0.3984  0.5105
17810TIP3    H174921   6.050   5.597   0.311  1.2654 -0.0909  1.7816
17810TIP3    H274922   6.196   5.572   0.341  2.2810  0.2138 -2.2148
17811TIP3   OH274923   6.816   3.356   1.438 -0.2492  0.2254 -0.3547
17811TIP3    H174924   6.761   3.294   1.391 -2.1182  1.1546  0.5273
17811TIP3    H274925   6.843   3.309   1.517 -0.7162  0.1528 -0.2390
17812TIP3   OH274926   5.450   3.435  13.957 -0.0281  0.1981  0.0518
17812TIP3    H174927   5.498   3.505  14.001 -0.2771 -0.7594  1.9649
17812TIP3    H274928   5.518   3.372  13.930 -0.0319 -0.3887  1.3286
17813TIP3   OH274929   2.187   3.172   2.675  0.1019  0.2124 -0.1758
17813TIP3    H174930   2.189   3.223   2.755 -1.1689 -0.2140  0.1518
17813TIP3    H274931   2.226   3.229   2.609 -1.4429  1.7105  0.1292
17814TIP3   OH274932   6.746   1.419   3.454  0.2336 -0.4102 -0.5941
17814TIP3    H174933   6.776   1.470   3.378 -0.5295 -0.8240 -1.1873
17814TIP3    H274934   6.677   1.472   3.492  0.4299 -0.3314 -0.3474
17815TIP3   OH274935   5.617   6.773   3.326  0.5011 -0.5072 -0.7818
17815TIP3    H174936   5.630   6.698   3.383 -0.2219  0.7731  1.1531
17815TIP3    H274937   5.651   6.847   3.375 -3.3830  1.2171 -0.3467
17816TIP3   OH274938   5.439   2.444  11.686  0.2937  0.6216  0.4403
17816TIP3    H174939   5.497   2.513  11.655  2.5937 -1.1608  0.4734
17816TIP3    H274940   5.493   2.365  11.687 -1.5025 -0.7455  2.7099
17817TIP3   OH274941   5.987   1.438   3.140  0.2274  0.2663  0.3047
17817TIP3    H174942   6.067   1.386   3.144 -0.7212 -1.3461 -0.7453
17817TIP3    H274943   6.003   1.511   3.200  1.9932 -0.6825  1.0580
17818TIP3   OH274944   4.239   4.082   5.643 -0.0429 -0.6705  0.0748
17818TIP3    H174945   4.281   4.157   5.685  2.1465 -1.9907  0.4049
17818TIP3    H274946   4.278   4.079   5.555 -0.6831 -0.9830 -0.2065
17819TIP3   OH274947   0.456   5.755   0.110  0.0692 -0.2298 -0.0123
17819TIP3    H174948   0.528   5.717   0.160  0.4952  0.9298  0.2998
17819TIP3    H274949   0.489   5.841   0.084 -0.7925 -0.1312 -0.8271
17820TIP3   OH274950   6.351   2.479   2.468 -0.2706  0.1355 -1.1083
17820TIP3    H174951   6.288   2.523   2.525 -1.2496 -0.2822 -1.8296
17820TIP3    H274952   6.436   2.516   2.492 -0.8033  0.7966 -0.1904
17821TIP3   OH274953   4.182   6.717  17.066 -0.1752 -0.2124  0.7869
17821TIP3    H174954   4.113   6.750  17.124 -3.3914 -1.7483 -1.8247
17821TIP3    H274955   4.213   6.638  17.108  0.0746  0.5201  2.0229
17822TIP3   OH274956   1.038   4.568   3.478  0.7140 -0.1451  0.1377
17822TIP3    H174957   1.008   4.488   3.521  1.0578 -0.5601 -0.3847
17822TIP3    H274958   1.055   4.629   3.551 -0.8374 -0.0678  0.4755
17823TIP3   OH274959   3.298   1.720   3.193 -0.0641  0.0958  0.3660
17823TIP3    H174960   3.393   1.712   3.193 -0.0491 -0.0999  1.8754
17823TIP3    H274961   3.282   1.813   3.178  0.3892  0.2104  0.5557
17824TIP3   OH274962   3.689   5.314   4.884 -0.5197 -0.2957  0.0018
17824TIP3    H174963   3.626   5.385   4.884 -1.7115 -1.3035  0.9416
17824TIP3    H274964   3.644   5.241   4.841  1.5843  0.1724 -3.3922
17825TIP3   OH274965   1.357   6.491   3.272 -0.0821 -0.7543  0.2978
17825TIP3    H174966   1.263   6.503   3.279 -0.0922 -1.0536  0.6580
17825TIP3    H274967   1.394   6.577   3.294 -0.3304 -0.0393 -1.8106
17826TIP3   OH274968   2.077   6.741   2.578  0.2975  0.2346  0.0989
17826TIP3    H174969   2.149   6.786   2.623  1.3629 -1.7805  0.5499
17826TIP3    H274970   1.998   6.775   2.619  1.0327  1.6818  0.3808
17827TIP3   OH274971   6.149   5.756  10.467  0.1584 -0.5090 -0.0359
17827TIP3    H174972   6.214   5.687  10.473  0.1378 -0.4889  0.4546
17827TIP3    H274973   6.179   5.823  10.529 -0.0785 -0.2943 -0.1513
17828TIP3   OH274974   3.394   3.028  12.438 -0.1092 -0.2951 -0.0497
17828TIP3    H174975   3.423   3.117  12.415  1.6628 -1.1998 -1.5671
17828TIP3    H274976   3.435   3.012  12.523 -2.7404  1.2831  1.6739
17829TIP3   OH274977   5.848   4.372   4.692 -0.3893 -0.6407  0.7097
17829TIP3    H174978   5.857   4.407   4.781 -0.6635 -0.8978  0.8392
17829TIP3    H274979   5.808   4.444   4.642 -1.1128 -0.8245  1.0172
17830TIP3   OH274980   5.839   3.954   1.962  0.3963 -0.2098  0.0120
17830TIP3    H174981   5.785   3.874   1.963 -0.4297  0.3440  0.8915
17830TIP3    H274982   5.829   3.991   2.050  0.5167  1.0237 -0.4744
17831TIP3   OH274983   1.138   0.577   2.235  0.0296  0.0394 -0.3295
17831TIP3    H174984   1.064   0.626   2.269 -0.8305  0.0170 -2.1127
17831TIP3    H274985   1.207   0.643   2.222  0.3356  0.0709  1.2419
17832TIP3   OH274986   0.559   0.870   4.086 -0.1756  0.3373  0.1246
17832TIP3    H174987   0.580   0.867   3.992  1.7090  2.1556  0.4350
17832TIP3    H274988   0.627   0.818   4.128 -1.7630 -1.5930  0.4508
17833TIP3   OH274989   1.449   2.440   1.953 -0.0576 -0.5977  0.1791
17833TIP3    H174990   1.364   2.402   1.929 -1.1506  0.9745  1.3827
17833TIP3    H274991   1.438   2.470   2.043  1.6883 -0.0881  0.2644
17834TIP3   OH274992   2.129   1.348  13.596  0.3869  0.3183 -0.4391
17834TIP3    H174993   2.211   1.335  13.548  0.9582 -0.5550  0.7301
17834TIP3    H274994   2.131   1.440  13.622  2.0015 -0.1391  1.2871
17835TIP3   OH274995   6.525   3.370   2.497 -0.4776  0.0822  0.0945
17835TIP3    H174996   6.456   3.350   2.560  0.1987 -2.4351  0.1452
17835TIP3    H274997   6.606   3.356   2.545  0.0636  0.3556 -0.7153
17836TIP3   OH274998   3.654   6.687   6.326 -0.0535 -0.0112  0.1150
17836TIP3    H174999   3.707   6.706   6.248  0.6727  1.8135  0.9881
17836TIP3    H275000   3.627   6.596   6.315  0.5871 -0.0080 -1.9306
17837TIP3   OH275001   3.437   1.214  10.755  0.1218  0.1083  0.0807
17837TIP3    H175002   3.446   1.167  10.672 -0.0924  3.0485 -1.7635
17837TIP3    H275003   3.345   1.243  10.756 -0.6097 -1.9705  2.6471
17838TIP3   OH275004   4.254   2.037  11.692  0.1153  0.4376 -0.1257
17838TIP3    H175005   4.276   1.962  11.636 -0.8761  0.1723 -0.1826
17838TIP3    H275006   4.232   2.107  11.630  1.8854  1.0661 -0.0860
17839TIP3   OH275007   6.222   4.848  15.273 -0.3051 -0.1160  0.3501
17839TIP3    H175008   6.239   4.939  15.247  0.8402 -0.4685 -0.1781
17839TIP3    H275009   6.262   4.840  15.359  1.2290 -0.5970 -0.3664
17840TIP3   OH275010   1.514   3.458   6.342 -0.2585  0.0678  1.0038
17840TIP3    H175011   1.556   3.487   6.423 -1.8413  0.1534  1.8367
17840TIP3    H275012   1.460   3.533   6.315 -2.3521 -1.0806  1.7467
17841TIP3   OH275013   2.423   0.891   0.213 -0.4139 -0.0248  0.2444
17841TIP3    H175014   2.391   0.976   0.244 -0.9703  0.0204 -0.4428
17841TIP3    H275015   2.476   0.912   0.136 -0.3010 -0.2748  0.2532
17842TIP3   OH275016   0.281   2.566   0.237 -0.2590  0.0731  0.2441
17842TIP3    H175017   0.270   2.657   0.210  0.0400  0.4070  1.2140
17842TIP3    H275018   0.194   2.538   0.263 -0.0333  0.6900  1.7503
17843TIP3   OH275019   6.475   4.133  11.895  0.0301  0.1319 -0.2419
17843TIP3    H175020   6.404   4.138  11.831  0.6142  0.9073 -0.8482
17843TIP3    H275021   6.546   4.088  11.849  0.8863  1.7496 -0.5842
17844TIP3   OH275022   0.427   5.415  10.961  0.3999 -0.3706  0.2951
17844TIP3    H175023   0.493   5.357  10.922 -1.0452 -2.2205  0.4530
17844TIP3    H275024   0.344   5.379  10.932 -0.5910  1.3657  0.8482
17845TIP3   OH275025   2.524   1.398  15.702  0.4093 -0.1109 -0.6107
17845TIP3    H175026   2.584   1.417  15.773  0.1567 -2.2683  0.2373
17845TIP3    H275027   2.539   1.468  15.638  0.7325  1.8069  1.4619
17846TIP3   OH275028   1.540   1.844  16.166 -0.1546  0.0819  0.2716
17846TIP3    H175029   1.575   1.929  16.138  0.5760 -0.6665 -1.1486
17846TIP3    H275030   1.446   1.850  16.147  0.0490  0.2282 -0.7120
17847TIP3   OH275031   3.833   0.868  12.611  0.1146  0.7813  0.7372
17847TIP3    H175032   3.853   0.817  12.533  2.5905 -1.1380  2.4660
17847TIP3    H275033   3.906   0.930  12.619 -0.3996  1.3487  1.2571
17848TIP3   OH275034   4.669   6.035  13.747  0.4281 -0.5359 -0.3688
17848TIP3    H175035   4.598   6.020  13.809  0.5685 -0.7308 -0.2528
17848TIP3    H275036   4.744   6.057  13.803  0.2218  0.6762 -0.5260
17849TIP3   OH275037   2.106   6.071  12.119  0.1768  0.2484  0.1401
17849TIP3    H175038   2.162   6.101  12.191  1.4813  1.7001 -1.4099
17849TIP3    H275039   2.068   6.151  12.083 -0.2356 -0.4330 -0.9900
17850TIP3   OH275040   6.698   4.483  15.769  0.2453  0.7643 -0.0125
17850TIP3    H175041   6.708   4.577  15.780 -0.4816  0.6904  1.6463
17850TIP3    H275042   6.788   4.450  15.762  0.5629  1.4721  0.5756
17851TIP3   OH275043   1.140   6.005   2.748 -0.2346  0.4186 -0.3373
17851TIP3    H175044   1.100   5.990   2.663 -1.9094  1.1271  0.2853
17851TIP3    H275045   1.210   5.940   2.754 -0.2864  0.1711 -2.1148
17852TIP3   OH275046   4.141   5.262  14.045 -0.2151 -0.0985 -0.1840
17852TIP3    H175047   4.197   5.258  14.123  0.6057 -1.6864 -0.8122
17852TIP3    H275048   4.052   5.249  14.079  0.1536 -1.0331  0.4728
17853TIP3   OH275049   2.794   1.604   0.143  0.1430 -0.4343  0.8187
17853TIP3    H175050   2.838   1.638   0.221 -1.7818  0.2439  1.6462
17853TIP3    H275051   2.753   1.523   0.172 -1.5151  0.3835  0.8341
17854TIP3   OH275052   3.335   2.706   1.553  0.0019  1.0361 -0.0940
17854TIP3    H175053   3.405   2.716   1.618 -0.3507 -0.1577  0.5052
17854TIP3    H275054   3.296   2.793   1.547  0.3596  1.2912  0.9380
17855TIP3   OH275055   0.233   5.736  10.239 -0.4475 -0.5909 -0.0735
17855TIP3    H175056   0.311   5.687  10.264 -0.1374 -0.9361 -1.6584
17855TIP3    H275057   0.179   5.674  10.190 -0.3896  0.4054 -1.4698
17856TIP3   OH275058   6.209   2.953   0.217 -0.0749  0.7505 -0.0026
17856TIP3    H175059   6.159   2.920   0.142 -0.3880  1.7738 -0.2547
17856TIP3    H275060   6.154   2.932   0.293  0.1899 -0.1869 -0.0585
17857TIP3   OH275061   0.842   2.141   5.625  0.5351 -0.2056 -0.6650
17857TIP3    H175062   0.917   2.082   5.619  0.3406 -0.2871 -3.7507
17857TIP3    H275063   0.880   2.225   5.649  1.2240 -0.7983  0.4489
17858TIP3   OH275064   4.212   4.679  11.182  0.5936  0.0800 -0.0317
17858TIP3    H175065   4.156   4.705  11.255 -0.6971  0.8934 -1.2456
17858TIP3    H275066   4.183   4.734  11.109  1.5048 -1.0364 -1.2962
17859TIP3   OH275067   5.395   2.003  14.737  0.3430  0.2197  0.2099
17859TIP3    H175068   5.422   1.956  14.816 -2.0656 -0.4540  0.7239
17859TIP3    H275069   5.366   1.934  14.677 -3.3993  0.8382  1.0262
17860TIP3   OH275070   5.975   5.774   0.303 -0.7418 -0.0933 -0.2080
17860TIP3    H175071   5.944   5.853   0.349 -0.2431 -0.2292  0.3777
17860TIP3    H275072   6.018   5.808   0.224  0.4473  0.3167  0.5829
17861TIP3   OH275073   5.028   3.506  14.195  0.0908 -0.0700  0.0798
17861TIP3    H175074   5.094   3.444  14.165  0.4017  0.2246  0.1433
17861TIP3    H275075   4.948   3.480  14.151  0.7959  1.1114 -2.0220
17862TIP3   OH275076   1.725   3.646   3.981  0.1736 -0.0264 -0.7033
17862TIP3    H175077   1.678   3.618   3.903 -0.1018 -0.2857 -0.4503
17862TIP3    H275078   1.755   3.734   3.962  0.8102 -0.3839 -1.4126
17863TIP3   OH275079   5.443   3.636  14.952 -0.2429 -0.5156  1.0623
17863TIP3    H175080   5.458   3.681  14.868  0.9405 -0.5397  1.2518
17863TIP3    H275081   5.374   3.572  14.932  1.5746 -2.1095 -0.4818
17864TIP3   OH275082   6.661   4.753   3.417  0.3884  0.3374  0.1697
17864TIP3    H175083   6.668   4.692   3.490  0.9973  0.2901  0.0828
17864TIP3    H275084   6.570   4.782   3.417 -0.0715 -1.0507 -0.1702
17865TIP3   OH275085   2.502   3.353  10.534 -0.1101 -0.5293  0.2521
17865TIP3    H175086   2.548   3.347  10.618 -1.0760 -0.4009  0.8012
17865TIP3    H275087   2.557   3.411  10.481  0.2287 -0.1726  0.9763
17866TIP3   OH275088   4.567   0.048   5.919 -0.2437  0.2262  0.0367
17866TIP3    H175089   4.489   0.062   5.973 -0.5955 -1.8411  0.1343
17866TIP3    H275090   4.605   0.136   5.909 -3.2916  1.5695 -1.1545
17867TIP3   OH275091   2.601   3.418  12.205  0.2523 -0.7679 -0.0575
17867TIP3    H175092   2.556   3.401  12.288  0.9438 -0.5080  0.3778
17867TIP3    H275093   2.548   3.486  12.163 -0.8938 -1.8675 -0.4947
17868TIP3   OH275094   5.133   0.837   1.108 -0.2206 -0.0225  0.2282
17868TIP3    H175095   5.187   0.915   1.115  0.6223 -0.5934  0.2830
17868TIP3    H275096   5.186   0.768   1.148 -2.1793 -0.0570  3.0014
17869TIP3   OH275097   6.746   1.881  16.998 -0.0040  0.2686  0.0397
17869TIP3    H175098   6.802   1.938  16.945 -0.0824 -0.6255 -1.0510
17869TIP3    H275099   6.751   1.796  16.954 -0.3625 -0.4133  1.2887
17870TIP3   OH275100   1.966   1.676  11.577  0.0354  0.0241 -0.3377
17870TIP3    H175101   1.873   1.693  11.563  0.1117  0.2897 -0.5236
17870TIP3    H275102   2.011   1.732  11.514  0.3384  0.2469  0.0691
17871TIP3   OH275103   0.289   0.469   0.381  0.7041  0.9939 -0.1049
17871TIP3    H175104   0.293   0.549   0.434 -0.7536  2.6842 -2.3356
17871TIP3    H275105   0.379   0.436   0.380  1.1534  2.0560  1.6428
17872TIP3   OH275106   3.194   4.571   1.712 -0.2149 -0.1486 -0.1942
17872TIP3    H175107   3.155   4.560   1.625 -1.2365 -1.9811  0.4180
17872TIP3    H275108   3.228   4.660   1.713 -0.6381  0.0784 -2.2869
17873TIP3   OH275109   2.378   2.678   5.340  0.5086  0.3611 -0.5986
17873TIP3    H175110   2.402   2.747   5.402 -0.4872  0.2375 -0.0615
17873TIP3    H275111   2.399   2.597   5.386  1.1558  0.2885 -1.0122
17874TIP3   OH275112   5.011   6.623   4.411  0.0448 -0.1118 -0.2126
17874TIP3    H175113   4.956   6.548   4.386  0.3308 -0.5641  0.4990
17874TIP3    H275114   5.094   6.607   4.367  0.1902 -0.3459  0.1465
17875TIP3   OH275115   3.066   4.840   1.602 -0.2939 -0.3728  0.5381
17875TIP3    H175116   3.089   4.896   1.677 -0.3761 -1.1644  1.1768
17875TIP3    H275117   2.980   4.804   1.625  0.2561 -1.6574  0.6987
17876TIP3   OH275118   5.570   5.747  13.460 -0.4688  0.0608 -0.0907
17876TIP3    H175119   5.521   5.681  13.509  1.7783 -0.5844  1.4198
17876TIP3    H275120   5.523   5.829  13.476 -1.7155 -0.7136  0.3118
17877TIP3   OH275121   6.600   5.023  11.956 -0.5208  0.0467  0.7530
17877TIP3    H175122   6.615   5.118  11.952  1.5227 -0.2706 -0.5976
17877TIP3    H275123   6.535   5.007  11.888  1.8449  0.1156 -1.6846
17878TIP3   OH275124   4.412   4.746  14.692  0.0252  0.3177  0.6831
17878TIP3    H175125   4.411   4.711  14.781  1.5038  0.5434  0.8152
17878TIP3    H275126   4.496   4.716  14.655 -0.5480  0.2538 -0.6262
17879TIP3   OH275127   3.312   1.017  12.249  0.9244 -0.0212  0.3144
17879TIP3    H175128   3.223   1.023  12.283  0.0458 -0.9619 -1.7109
17879TIP3    H275129   3.360   0.968  12.317  0.2525  1.4711  1.9549
17880TIP3   OH275130   0.909   2.576   4.661  0.2763 -0.0437  0.0866
17880TIP3    H175131   0.929   2.663   4.625  0.6631 -0.0019  0.3949
17880TIP3    H275132   0.880   2.592   4.750  0.0392 -0.2093  0.0409
17881TIP3   OH275133   2.438   3.190  15.426  0.7138 -0.2736 -0.9005
17881TIP3    H175134   2.383   3.131  15.477 -0.7086  0.8523 -1.0839
17881TIP3    H275135   2.505   3.133  15.388  2.8608 -1.0163  3.3431
17882TIP3   OH275136   4.856   5.099  11.801  0.0476  0.5665 -0.1532
17882TIP3    H175137   4.914   5.114  11.727 -0.0597  0.3945 -0.2714
17882TIP3    H275138   4.789   5.167  11.793  0.7102  1.3111  0.4691
17883TIP3   OH275139   0.516   1.150   1.030  0.2695  0.5045 -0.0585
17883TIP3    H175140   0.611   1.153   1.016  0.5274 -0.6411  1.3193
17883TIP3    H275141   0.503   1.077   1.090 -1.6075 -0.0603 -1.0877
17884TIP3   OH275142   1.523   3.301  11.329  0.4524 -0.1015  0.5428
17884TIP3    H175143   1.534   3.212  11.297  0.5741 -1.0484  3.0317
17884TIP3    H275144   1.607   3.343  11.310  0.6859 -0.7545  0.0827
17885TIP3   OH275145   1.057   2.406  14.366 -0.2216 -0.8692  0.7743
17885TIP3    H175146   1.086   2.496  14.381 -2.5526 -0.4440  3.6495
17885TIP3    H275147   0.999   2.411  14.291  1.0287 -0.3516 -0.1899
17886TIP3   OH275148   4.541   6.710  10.637 -0.1102 -0.1907  0.0986
17886TIP3    H175149   4.474   6.663  10.586 -0.5206 -0.9817  1.3176
17886TIP3    H275150   4.491   6.758  10.703  0.5267 -1.2145  1.3716
17887TIP3   OH275151   1.713   6.604   0.814  0.5481  0.0184 -0.3648
17887TIP3    H175152   1.771   6.569   0.882 -0.2781 -0.7218 -0.0061
17887TIP3    H275153   1.668   6.527   0.780 -1.0070  0.6608  0.1362
17888TIP3   OH275154   0.280   1.290   5.251 -0.0105  0.1209  0.2852
17888TIP3    H175155   0.313   1.270   5.164  2.2357  2.1589  0.5616
17888TIP3    H275156   0.281   1.386   5.254 -2.9765  0.2118  1.5275
17889TIP3   OH275157   2.809   4.136  12.211 -0.0612  0.2265  0.6328
17889TIP3    H175158   2.778   4.144  12.121  0.4773 -1.3576  0.2607
17889TIP3    H275159   2.779   4.049  12.239  2.1644 -0.5206  0.9540
17890TIP3   OH275160   4.318   4.501   2.093  0.9705  0.2331  0.2579
17890TIP3    H175161   4.229   4.469   2.104  1.0094  0.7854  3.1673
17890TIP3    H275162   4.354   4.449   2.021 -1.3929 -0.6019 -0.4150
17891TIP3   OH275163   6.470   0.499   5.982  0.3657 -0.1867 -0.3862
17891TIP3    H175164   6.473   0.439   5.907  1.7758  0.0939 -0.5807
17891TIP3    H275165   6.395   0.555   5.965 -1.8170 -2.6525  0.4231
17892TIP3   OH275166   2.418   6.009  10.933 -0.1077  0.8026 -0.0631
17892TIP3    H175167   2.403   5.915  10.937  1.7972  0.4808  0.7415
17892TIP3    H275168   2.431   6.028  10.840  0.1735  0.1576 -0.1554
17893TIP3   OH275169   3.567   0.007   0.267  0.4417  0.4058  0.1167
17893TIP3    H175170   3.471   0.000   0.269  0.4578 -0.6236 -1.1646
17893TIP3    H275171   3.595  -0.024   0.354 -0.3762  0.6212  0.4651
17894TIP3   OH275172   2.724   4.112   2.001 -0.3306  0.1939 -0.5035
17894TIP3    H175173   2.753   4.117   2.091 -0.5949  0.9465 -0.4480
17894TIP3    H275174   2.630   4.133   2.005  0.0672  2.3746 -1.1590
17895TIP3   OH275175   0.724   6.610   5.779 -0.0917  0.5295  0.3061
17895TIP3    H175176   0.687   6.626   5.692 -1.7297 -1.1477  0.6341
17895TIP3    H275177   0.661   6.651   5.839  0.5800  0.9169  0.7681
17896TIP3   OH275178   2.263   6.402  16.335  0.3048 -0.9330  0.1848
17896TIP3    H175179   2.222   6.486  16.353 -0.5188 -1.5090  1.1200
17896TIP3    H275180   2.283   6.404  16.242 -1.6185 -0.4968 -0.2708
17897TIP3   OH275181   2.768   6.284  13.566  0.5481  0.1821 -0.5478
17897TIP3    H175182   2.836   6.239  13.516  0.3023  0.3716 -1.0552
17897TIP3    H275183   2.717   6.213  13.605  1.3797  0.0459  0.3087
17898TIP3   OH275184   2.036   6.098  17.084 -0.0172  0.3174  0.5596
17898TIP3    H175185   1.964   6.068  17.139 -1.1655  0.0418 -1.0054
17898TIP3    H275186   2.018   6.191  17.070  0.0358  0.2908  0.3128
17899TIP3   OH275187   3.313   3.539  16.021 -0.3561 -0.5749  0.1568
17899TIP3    H175188   3.297   3.541  15.926  1.0964 -0.2843 -0.1067
17899TIP3    H275189   3.373   3.465  16.033  0.6718  0.3118  0.6271
17900TIP3   OH275190   2.417   0.450   3.521  0.2789  0.6788  0.2299
17900TIP3    H175191   2.471   0.423   3.447 -0.3216  3.4188 -1.3502
17900TIP3    H275192   2.480   0.479   3.587  0.8092 -1.4726  0.7402
17901TIP3   OH275193   5.456   3.102  13.048 -0.8861 -0.0886 -0.0326
17901TIP3    H175194   5.399   3.025  13.053 -0.3492 -0.6629 -1.7274
17901TIP3    H275195   5.407   3.164  12.993 -0.1955 -0.3379 -0.9687
17902TIP3   OH275196   0.909   1.433   3.005  0.2887  0.2719 -0.9281
17902TIP3    H175197   0.967   1.358   2.986  1.7266 -0.1299  3.7456
17902TIP3    H275198   0.969   1.504   3.028 -0.9979  0.8093  1.0222
17903TIP3   OH275199   4.787   4.346  12.756 -0.3421 -0.2478  0.4333
17903TIP3    H175200   4.823   4.384  12.676  0.7589 -0.8787  0.6176
17903TIP3    H275201   4.694   4.332  12.736  0.4277 -3.1103 -1.7955
17904TIP3   OH275202   5.817   6.190   1.273 -0.2975 -0.0542  0.4128
17904TIP3    H175203   5.830   6.153   1.361 -1.0593  2.2556  1.5686
17904TIP3    H275204   5.785   6.279   1.289 -1.6546  0.0197 -2.2284
17905TIP3   OH275205   0.145   4.348  12.948 -0.0860 -0.0125 -0.5364
17905TIP3    H175206   0.056   4.317  12.933  0.0104 -1.0382  0.8394
17905TIP3    H275207   0.188   4.339  12.863 -0.8873 -0.9002 -0.8698
17906TIP3   OH275208   2.918   3.694   2.969  0.5180  0.2192  0.0158
17906TIP3    H175209   2.990   3.729   2.918 -0.0740  1.6707  0.1134
17906TIP3    H275210   2.888   3.769   3.021 -0.4791 -0.5839  0.6212
17907TIP3   OH275211   5.146   0.047   2.810  1.3015  0.6693 -0.6801
17907TIP3    H175212   5.194  -0.035   2.802 -0.7987 -0.8558  0.9237
17907TIP3    H275213   5.118   0.067   2.721 -0.3080 -1.8468 -0.8496
17908TIP3   OH275214   5.416   4.630   4.602 -0.4784 -0.5859  0.1595
17908TIP3    H175215   5.381   4.692   4.666  0.0548 -0.1684  0.0495
17908TIP3    H275216   5.348   4.626   4.535  0.5809  2.0071 -1.2296
17909TIP3   OH275217   5.560   1.381  16.667 -0.2219  0.3972 -0.0041
17909TIP3    H175218   5.505   1.304  16.651  0.1176  0.4392 -1.5506
17909TIP3    H275219   5.538   1.442  16.596  0.7883  0.9880  0.1610
17910TIP3   OH275220   5.239   6.798  13.443  0.3525  0.1999  0.0624
17910TIP3    H175221   5.174   6.733  13.470  0.6407  0.2275  0.8611
17910TIP3    H275222   5.323   6.761  13.471  0.3323  2.0405  2.9585
17911TIP3   OH275223   3.282   5.229   4.772 -0.2407  0.5957 -0.0897
17911TIP3    H175224   3.218   5.199   4.838  0.4511  0.4975  0.5571
17911TIP3    H275225   3.241   5.304   4.731 -0.4610  1.0079  0.8546
17912TIP3   OH275226   1.008   4.766  16.178 -0.2245  0.5222 -0.0234
17912TIP3    H175227   1.094   4.746  16.214 -0.4090 -0.7369 -0.2275
17912TIP3    H275228   0.948   4.751  16.251 -0.1755  2.9057  0.5835
17913TIP3   OH275229   6.472   5.629  15.089 -0.1355 -0.1488 -0.1754
17913TIP3    H175230   6.514   5.626  15.003  0.6053 -1.8803  0.1990
17913TIP3    H275231   6.428   5.544  15.097  0.5469 -0.3730  1.4922
17914TIP3   OH275232   5.760   3.737   4.736 -0.5738 -0.7093  0.1057
17914TIP3    H175233   5.838   3.713   4.686 -1.6671 -2.4922 -0.8256
17914TIP3    H275234   5.687   3.717   4.678 -1.8022 -0.8362  1.6391
17915TIP3   OH275235   4.434   3.851   4.003  0.0419  0.3449  0.0310
17915TIP3    H175236   4.515   3.823   3.961 -0.8754  0.1546 -1.6992
17915TIP3    H275237   4.453   3.939   4.036  1.5851 -0.5161  1.6063
17916TIP3   OH275238   2.137   1.078  13.733 -0.0641 -0.5970  0.0409
17916TIP3    H175239   2.226   1.045  13.727 -0.0569 -0.3059 -2.2472
17916TIP3    H275240   2.146   1.174  13.732 -0.3940 -0.5639 -0.1946
17917TIP3   OH275241   1.909   0.402   0.523  0.2441 -0.1029  0.7071
17917TIP3    H175242   1.843   0.366   0.463  0.4266  1.6919 -0.6300
17917TIP3    H275243   1.938   0.483   0.482  1.9663  0.0986  2.1874
17918TIP3   OH275244   1.050   5.205  13.169  0.4013 -0.3570  0.4865
17918TIP3    H175245   1.067   5.290  13.209  1.3037 -0.6088  0.6488
17918TIP3    H275246   1.084   5.142  13.231 -2.2637 -0.9953  1.4508
17919TIP3   OH275247   6.733   4.566  10.950  0.0351 -0.3869  0.7295
17919TIP3    H175248   6.771   4.530  10.870 -1.0154 -1.1491  0.5589
17919TIP3    H275249   6.641   4.540  10.947 -0.1428  0.0437  1.9200
17920TIP3   OH275250   0.217   2.745  12.081 -0.0236 -0.6585  0.0754
17920TIP3    H175251   0.312   2.736  12.085 -0.0657 -0.7865  0.9649
17920TIP3    H275252   0.203   2.833  12.046  0.4199 -0.4885  0.3232
17921TIP3   OH275253   1.623   5.632  15.877 -0.1936 -0.3091 -0.0742
17921TIP3    H175254   1.553   5.584  15.921  0.0708 -2.0211 -1.4073
17921TIP3    H275255   1.578   5.701  15.829 -0.7773 -0.2648  0.5264
17922TIP3   OH275256   1.542   2.747  12.765  0.1482  0.0406 -0.1326
17922TIP3    H175257   1.513   2.789  12.846  0.9275  2.8418 -1.1657
17922TIP3    H275258   1.506   2.802  12.696  1.5946 -0.7976 -1.6190
17923TIP3   OH275259   3.249   1.705  14.457  0.8906 -0.2241 -0.3112
17923TIP3    H175260   3.188   1.661  14.515 -0.8021  0.7288 -1.2820
17923TIP3    H275261   3.304   1.758  14.514 -1.4916  1.6183  0.4317
17924TIP3   OH275262   2.657   6.052  13.686 -0.6680 -0.2442 -0.0165
17924TIP3    H175263   2.574   6.093  13.712 -1.9829 -0.6887 -3.1211
17924TIP3    H275264   2.654   5.965  13.724 -0.4632  0.4986  1.8457
17925TIP3   OH275265   5.897   0.564   2.761  0.1791  0.7762 -0.1691
17925TIP3    H175266   5.832   0.552   2.692 -0.1907 -0.0986  0.3246
17925TIP3    H275267   5.981   0.547   2.717 -0.1553 -1.4443 -0.0547
17926TIP3   OH275268   0.906   2.423  14.149  0.0794 -0.0544 -0.3430
17926TIP3    H175269   0.824   2.471  14.161 -0.6565 -1.2355 -0.4989
17926TIP3    H275270   0.942   2.458  14.066  1.0952  2.3064  0.9811
17927TIP3   OH275271   3.768   3.127   1.652  0.5046  1.1261 -0.6632
17927TIP3    H175272   3.778   3.106   1.560  1.5774  1.0842 -0.5465
17927TIP3    H275273   3.753   3.221   1.654 -3.4144  0.6825 -1.1229
17928TIP3   OH275274   5.349   1.400  16.314 -0.0459  0.1695 -0.3975
17928TIP3    H175275   5.349   1.488  16.352  0.4807 -0.0016 -0.0027
17928TIP3    H275276   5.438   1.368  16.327  0.2578  0.2380 -2.1001
17929TIP3   OH275277   4.602   4.725  11.980  0.4220 -0.1255 -1.0785
17929TIP3    H175278   4.519   4.678  11.968 -0.1546  0.5459  0.1233
17929TIP3    H275279   4.585   4.813  11.944  0.1534  0.4469  0.4035
17930TIP3   OH275280   5.005   4.167  12.843 -0.3095  0.0889 -0.1270
17930TIP3    H175281   4.926   4.217  12.826  0.0961  1.3424  1.3910
17930TIP3    H275282   5.023   4.182  12.936  0.9658 -1.2591 -0.1184
17931TIP3   OH275283   6.127   2.765   1.220  0.1530  0.7792 -0.0888
17931TIP3    H175284   6.195   2.794   1.281 -0.0785  0.0558  0.5266
17931TIP3    H275285   6.046   2.769   1.271 -0.0894  0.4559 -0.4479
17932TIP3   OH275286   6.391   2.465   0.101 -0.1239 -0.3518 -0.2037
17932TIP3    H175287   6.449   2.409   0.153  0.8648  0.8671  0.0454
17932TIP3    H275288   6.384   2.419   0.017  0.2417 -1.1160  0.1703
17933TIP3   OH275289   4.985   1.618  15.953 -0.4555  0.0581 -0.1848
17933TIP3    H175290   5.026   1.602  15.868 -1.4914 -0.1326 -0.6620
17933TIP3    H275291   5.043   1.577  16.017  0.9882  1.2662 -0.6752
17934TIP3   OH275292   5.776   0.037  15.370  0.4128 -0.2865  0.0936
17934TIP3    H175293   5.726   0.103  15.321  1.0554 -0.0486 -0.2601
17934TIP3    H275294   5.846   0.012  15.310  1.1325 -0.0971  0.8338
17935TIP3   OH275295   0.662   2.767  15.932 -0.3348 -0.2511  0.1561
17935TIP3    H175296   0.573   2.744  15.957 -1.0216  0.8934 -1.0792
17935TIP3    H275297   0.692   2.692  15.880 -1.0417 -0.1191 -0.4578
17936TIP3   OH275298   3.671   4.601   2.954 -0.0675 -0.2104 -0.3608
17936TIP3    H175299   3.617   4.525   2.975 -1.1641  0.4551 -0.7011
17936TIP3    H275300   3.694   4.639   3.039  1.5932 -1.6176 -0.1066
17937TIP3   OH275301   3.433   6.426   0.174  0.4753 -0.6831 -0.3758
17937TIP3    H175302   3.480   6.372   0.111  1.0878  1.1182 -1.5422
17937TIP3    H275303   3.494   6.438   0.247  2.0710  1.8276 -1.9745
17938TIP3   OH275304   0.495   0.439  11.827 -0.3149  0.3753  0.5976
17938TIP3    H175305   0.514   0.443  11.921 -2.0593 -0.9445  1.0746
17938TIP3    H275306   0.444   0.358  11.817  0.8203 -0.1210 -1.6877
17939TIP3   OH275307   3.899   2.796  14.322 -0.0679 -0.3709 -0.2234
17939TIP3    H175308   3.947   2.716  14.342  2.0846  0.9044  0.0078
17939TIP3    H275309   3.877   2.834  14.407  0.8193  0.3510 -0.3085
17940TIP3   OH275310   3.313   4.572   3.858  0.0239  0.0735 -0.4527
17940TIP3    H175311   3.368   4.595   3.783  0.3634  1.7700  0.2639
17940TIP3    H275312   3.258   4.501   3.827  0.2620  0.6310 -2.2555
17941TIP3   OH275313   5.509   0.971   6.092  0.1257  0.0275 -0.1207
17941TIP3    H175314   5.429   0.928   6.120  0.9016 -2.1621 -1.0664
17941TIP3    H275315   5.480   1.049   6.046 -1.3170  0.9335  2.1612
17942TIP3   OH275316   4.375   1.874  15.305  0.5081 -0.5962 -0.7772
17942TIP3    H175317   4.411   1.907  15.387 -0.5299  0.6460 -0.7947
17942TIP3    H275318   4.294   1.830  15.330 -0.8299  1.4346 -1.2747
17943TIP3   OH275319   2.368   6.272  14.180 -0.4440 -0.4209  0.4034
17943TIP3    H175320   2.315   6.319  14.115  2.0655  3.4231  0.7964
17943TIP3    H275321   2.432   6.224  14.128  0.4832  1.2514 -0.0615
17944TIP3   OH275322   3.518   0.274  13.183 -0.4551  0.6185  0.2676
17944TIP3    H175323   3.470   0.206  13.136 -1.0364  0.7974  0.5945
17944TIP3    H275324   3.591   0.228  13.224  0.1842  0.4842 -0.9455
17945TIP3   OH275325   2.250   1.286   4.533 -0.9804  0.1113 -0.5848
17945TIP3    H175326   2.205   1.202   4.533 -0.7024 -0.0577  0.7852
17945TIP3    H275327   2.282   1.297   4.622  0.6696  0.7783 -1.2061
17946TIP3   OH275328   3.468   3.600  15.736 -0.4732  0.0272  0.0966
17946TIP3    H175329   3.544   3.544  15.753 -0.9591 -0.0072  2.5854
17946TIP3    H275330   3.396   3.540  15.721 -0.6588 -0.0183  1.1068
17947TIP3   OH275331   2.997   0.926  15.557 -0.2155  0.3503 -0.0116
17947TIP3    H175332   3.044   1.003  15.524  0.6574  0.0545  0.5213
17947TIP3    H275333   2.984   0.944  15.650  0.4840 -0.3826  0.2334
17948TIP3   OH275334   4.098   3.532  13.068 -0.4111  0.2736  0.1545
17948TIP3    H175335   4.134   3.570  13.148  1.0478 -0.4845 -0.1213
17948TIP3    H275336   4.157   3.460  13.047 -1.6589 -0.5075 -0.7661
17949TIP3   OH275337   1.277   3.852   0.930  0.3595  0.0039 -0.0896
17949TIP3    H175338   1.212   3.894   0.873 -0.1412  1.2339  1.3344
17949TIP3    H275339   1.260   3.758   0.920 -0.3551  0.2292 -1.2161
17950TIP3   OH275340   4.416   2.373  14.322 -0.3286 -0.4054  0.1922
17950TIP3    H175341   4.390   2.457  14.286  1.0272 -0.6663 -1.5145
17950TIP3    H275342   4.434   2.391  14.414  0.8556  1.3889 -0.3502
17951TIP3   OH275343   0.014   6.467   0.545 -0.7818  0.3349  0.2393
17951TIP3    H175344  -0.071   6.446   0.582 -1.9697 -0.8081 -2.8275
17951TIP3    H275345   0.005   6.558   0.516 -1.1860  0.0396 -0.5856
17952TIP3   OH275346   1.635   1.392   1.076 -0.0177 -0.0199  0.1032
17952TIP3    H175347   1.657   1.380   1.169  1.3733  1.5822  0.0367
17952TIP3    H275348   1.552   1.346   1.065 -0.4627  0.1424  2.2624
17953TIP3   OH275349   6.052   3.247  13.549 -0.7451 -0.2077 -0.4536
17953TIP3    H175350   6.047   3.315  13.616 -2.3353  0.3869 -1.1296
17953TIP3    H275351   6.024   3.167  13.594 -0.3326 -0.1113 -0.0271
17954TIP3   OH275352   0.718   1.101   5.216  0.0052  0.0819  0.8307
17954TIP3    H175353   0.644   1.057   5.257  0.3528  0.9588  2.5207
17954TIP3    H275354   0.792   1.082   5.275  0.8028  0.4066 -0.0428
17955TIP3   OH275355   2.858   2.850  13.347 -0.1367 -0.0959 -0.1249
17955TIP3    H175356   2.879   2.889  13.261 -1.6372  1.6799  0.2450
17955TIP3    H275357   2.794   2.782  13.327 -0.4503  0.2818 -0.4335
17956TIP3   OH275358   3.493   5.619  14.121  0.9340 -0.3997  0.4937
17956TIP3    H175359   3.535   5.690  14.072 -0.3449 -1.0330 -1.6500
17956TIP3    H275360   3.401   5.645  14.126  0.5515 -1.6454  0.1444
17957TIP3   OH275361   3.470   1.560   2.765 -0.0152  0.5496 -0.0308
17957TIP3    H175362   3.458   1.471   2.797  0.1277  0.3398 -0.5465
17957TIP3    H275363   3.523   1.603   2.832 -1.2321  0.6546  0.8843
17958TIP3   OH275364   3.811   3.628   1.696  0.7458 -0.4177 -0.9240
17958TIP3    H175365   3.722   3.618   1.663  0.4395 -0.1045 -0.2011
17958TIP3    H275366   3.842   3.711   1.660  0.6734 -0.4296 -1.0118
17959TIP3   OH275367   1.078   1.967   6.286  0.5376 -0.1399 -0.0714
17959TIP3    H175368   1.064   1.879   6.320 -0.9303  0.3379  0.6359
17959TIP3    H275369   1.077   1.956   6.190 -2.2765 -0.5816 -0.0780
17960TIP3   OH275370   1.016   0.683   1.863 -0.0458  0.6581  0.0593
17960TIP3    H175371   1.002   0.775   1.885  1.2932  0.6613  1.0489
17960TIP3    H275372   1.108   0.679   1.837 -0.1455 -0.3618 -0.1704
17961TIP3   OH275373   3.362   4.630   0.744 -0.2375  0.0466  0.4021
17961TIP3    H175374   3.359   4.540   0.710  0.5365 -0.7226  2.1830
17961TIP3    H275375   3.303   4.628   0.820 -1.9751  1.7072 -0.8344
17962TIP3   OH275376   1.776   0.502   5.516  0.2437  0.1510 -0.4634
17962TIP3    H175377   1.842   0.446   5.557  0.3168  1.1500  0.8377
17962TIP3    H275378   1.742   0.556   5.587 -0.8902  0.7328 -1.4012
17963TIP3   OH275379   5.191   5.180  15.554  0.1122 -0.8557 -0.1297
17963TIP3    H175380   5.127   5.226  15.500 -1.4382 -1.5551  1.0154
17963TIP3    H275381   5.251   5.140  15.491 -1.1314 -0.9563 -1.3152
17964TIP3   OH275382   6.219   1.991  14.980 -0.4545  0.1239 -0.7969
17964TIP3    H175383   6.205   1.897  14.977  0.8940 -0.1196 -0.0981
17964TIP3    H275384   6.278   2.010  14.907  0.0739  0.2684 -0.3384
17965TIP3   OH275385   3.252   2.846   6.577  0.4645  0.2181 -0.5850
17965TIP3    H175386   3.237   2.784   6.506 -1.8187 -0.6502  0.5406
17965TIP3    H275387   3.336   2.820   6.615 -0.8784 -3.0013  0.5203
17966TIP3   OH275388   4.223   0.862  11.347  0.0826  0.0584  0.6936
17966TIP3    H175389   4.287   0.933  11.355 -1.7734  1.9690 -0.3234
17966TIP3    H275390   4.221   0.843  11.253 -1.6482  0.8776  0.5348
17967TIP3   OH275391   1.932   1.483   4.945  0.5299 -0.2722  0.2372
17967TIP3    H175392   1.883   1.498   5.026 -0.2261 -0.3943 -0.1893
17967TIP3    H275393   1.945   1.389   4.941  1.4436 -0.1802  0.7060
17968TIP3   OH275394   4.863   5.819   5.884  0.0062 -0.1807  0.2986
17968TIP3    H175395   4.886   5.908   5.855  0.8983 -0.8032 -1.0160
17968TIP3    H275396   4.802   5.787   5.817  0.0511 -0.7282  0.5171
17969TIP3   OH275397   1.318   1.665  14.682 -0.5360 -0.2163 -0.0557
17969TIP3    H175398   1.349   1.614  14.757  2.0871  0.0471 -0.8557
17969TIP3    H275399   1.304   1.753  14.717 -1.1317 -0.5096  0.4748
17970TIP3   OH275400   3.505   1.773  15.540  0.0029 -0.0102 -0.1240
17970TIP3    H175401   3.416   1.785  15.571 -0.2352  0.2349 -0.8776
17970TIP3    H275402   3.516   1.840  15.473  0.3059 -0.8816 -0.9630
17971TIP3   OH275403   0.330   0.649   2.976  0.2666 -0.1918  0.3452
17971TIP3    H175404   0.378   0.599   2.909 -0.3067 -1.2812  0.7149
17971TIP3    H275405   0.380   0.729   2.987  2.0851 -1.3199  0.7797
17972TIP3   OH275406   4.065   3.389   0.713  0.3350  0.1386  0.3961
17972TIP3    H175407   4.155   3.377   0.681  0.0501  0.9675 -0.7803
17972TIP3    H275408   4.025   3.303   0.704  0.8525 -0.1087  0.4143
17973TIP3   OH275409   4.242   4.355  14.351  0.3033  0.1640 -0.9888
17973TIP3    H175410   4.236   4.260  14.361 -0.5496  0.1270 -1.6863
17973TIP3    H275411   4.152   4.383  14.336  0.1116  1.4420  1.9822
17974TIP3   OH275412   3.320   5.459  12.657 -0.1689 -0.5219  0.8480
17974TIP3    H175413   3.407   5.477  12.695  0.4735 -1.6046 -0.0441
17974TIP3    H275414   3.259   5.480  12.727  0.8187  0.2658  1.5008
17975TIP3   OH275415   4.765   1.339  11.874  0.0493 -0.4585 -0.1859
17975TIP3    H175416   4.711   1.316  11.950  0.4968 -1.1411 -0.0601
17975TIP3    H275417   4.853   1.351  11.910 -0.3047  2.5404 -0.0792
17976TIP3   OH275418   1.062   4.358  16.924  0.0672  0.6735  0.4418
17976TIP3    H175419   1.089   4.319  17.007  0.1047  1.5027  0.8242
17976TIP3    H275420   1.096   4.299  16.857  1.7387  1.0242  0.9492
17977TIP3   OH275421   1.611   4.829  16.071 -0.1756 -0.1047  0.0527
17977TIP3    H175422   1.563   4.900  16.113 -0.6461 -1.2145  1.4659
17977TIP3    H275423   1.545   4.785  16.016  0.0761  0.4254 -0.6917
17978TIP3   OH275424   6.389   4.320  14.744  0.2641  0.1460 -0.2724
17978TIP3    H175425   6.339   4.279  14.674  0.6762  0.1280 -0.5601
17978TIP3    H275426   6.323   4.350  14.807 -0.1064  0.1314 -0.6524
17979TIP3   OH275427   0.370   5.725   4.794 -0.1325 -0.3544  0.0633
17979TIP3    H175428   0.404   5.779   4.722 -2.4369  0.4572 -0.5165
17979TIP3    H275429   0.339   5.788   4.858  2.0222 -1.0755  1.9276
17980TIP3   OH275430   2.363   4.849   6.674  0.6460 -0.5605 -0.3229
17980TIP3    H175431   2.421   4.801   6.615  0.4160  0.5327 -1.4680
17980TIP3    H275432   2.311   4.905   6.617  0.0655  0.1658  0.8811
17981TIP3   OH275433   0.124   3.143   2.162 -0.0709  0.1933  0.0339
17981TIP3    H175434   0.205   3.146   2.112 -0.9843 -0.5418 -1.5585
17981TIP3    H275435   0.063   3.198   2.113 -0.4930  0.8775  1.2982
17982TIP3   OH275436   2.433   0.567   1.708 -0.1384  0.2356  0.4241
17982TIP3    H175437   2.361   0.565   1.645 -0.5624 -1.3730  0.9086
17982TIP3    H275438   2.412   0.497   1.770  3.4375 -2.6380 -1.2347
17983TIP3   OH275439   1.994   0.889  11.159  0.5329  0.0330  0.2758
17983TIP3    H175440   1.981   0.813  11.216 -1.8353 -0.4537 -0.7780
17983TIP3    H275441   1.991   0.965  11.218 -0.0577 -0.5397  1.0005
17984TIP3   OH275442   4.704   4.427  16.847 -0.1534 -0.4725 -0.4920
17984TIP3    H175443   4.626   4.397  16.893 -0.6108 -1.2434 -1.7031
17984TIP3    H275444   4.774   4.370  16.878 -0.0528  0.2331  0.6100
17985TIP3   OH275445   3.667   0.236  11.599 -0.3119  0.3834  0.9611
17985TIP3    H175446   3.575   0.235  11.623 -1.6072  4.8283 -2.5139
17985TIP3    H275447   3.698   0.323  11.626  2.2407 -0.1481  0.0551
17986TIP3   OH275448   6.616   2.717  12.269 -0.4249 -0.9727 -0.1033
17986TIP3    H175449   6.710   2.705  12.282 -0.3403 -0.8394 -0.5646
17986TIP3    H275450   6.579   2.629  12.275  0.0288 -1.3625 -2.2278
17987TIP3   OH275451   0.721   2.509  12.447 -0.3700  0.5652 -0.0666
17987TIP3    H175452   0.698   2.420  12.421 -0.1841  1.1544 -2.4813
17987TIP3    H275453   0.682   2.519  12.534 -0.8504 -1.6702  0.0391
17988TIP3   OH275454   2.560   3.183   5.304  0.0696 -0.2969 -0.2404
17988TIP3    H175455   2.484   3.241   5.308 -0.3868 -0.7333 -1.8905
17988TIP3    H275456   2.531   3.108   5.252  1.4898 -0.6978 -0.5031
17989TIP3   OH275457   5.263   6.549   2.291 -0.0216 -0.0933 -0.2605
17989TIP3    H175458   5.182   6.506   2.317  1.0801 -0.8183  2.2548
17989TIP3    H275459   5.262   6.634   2.335  0.8296 -0.3439  0.2677
17990TIP3   OH275460   0.701   1.138   2.771 -0.6381  0.5945 -0.2804
17990TIP3    H175461   0.643   1.213   2.784 -1.9652 -0.2433 -1.1100
17990TIP3    H275462   0.766   1.169   2.708 -0.9362  1.1686 -0.3146
17991TIP3   OH275463   2.993   2.992   4.132  0.2804 -0.4330  0.5192
17991TIP3    H175464   3.065   3.035   4.178  1.1635 -0.5281 -0.7306
17991TIP3    H275465   3.008   3.013   4.040  1.7888 -4.8442 -0.4405
17992TIP3   OH275466   4.364   3.625  14.216 -0.2415 -0.5926  0.6903
17992TIP3    H175467   4.359   3.651  14.124 -1.9428 -0.4302  0.7855
17992TIP3    H275468   4.443   3.666  14.249  0.9382 -1.4455 -0.9189
17993TIP3   OH275469   3.606   0.069   1.775  0.0953  0.4280 -0.4397
17993TIP3    H175470   3.634   0.033   1.859  1.8535  1.9147 -0.3437
17993TIP3    H275471   3.537   0.131   1.797  0.5038  0.7652 -0.0831
17994TIP3   OH275472   6.371   1.630  15.066  0.1226  0.5779  0.2567
17994TIP3    H175473   6.382   1.638  14.971  0.8727  2.8141  0.4808
17994TIP3    H275474   6.426   1.700  15.102 -1.9346  1.2614  2.2329
17995TIP3   OH275475   4.249   4.041  16.992  0.4988  0.4605  0.2086
17995TIP3    H175476   4.271   3.950  17.012  3.3504  0.9525 -0.3197
17995TIP3    H275477   4.194   4.069  17.065  1.3517 -1.0738  1.4997
17996TIP3   OH275478   1.542   2.175  16.906  0.0830 -0.0597 -0.1649
17996TIP3    H175479   1.476   2.225  16.955 -1.2471 -1.5461 -0.3606
17996TIP3    H275480   1.588   2.241  16.854 -0.1522  1.2288  1.1769
17997TIP3   OH275481   1.019   0.328  11.908  0.4017 -0.7350  0.4359
17997TIP3    H175482   1.039   0.358  11.996  1.0193  0.1582  0.0118
17997TIP3    H275483   0.924   0.319  11.906  0.3392 -0.2376  1.0326
17998TIP3   OH275484   0.651   0.211   2.787  0.4159  0.1831 -0.3033
17998TIP3    H175485   0.648   0.194   2.881 -0.2899 -1.0961 -0.5266
17998TIP3    H275486   0.566   0.182   2.754  1.0553 -0.4802 -1.4838
17999TIP3   OH275487   3.405   2.297  17.198 -0.3375  0.5181 -0.7551
17999TIP3    H175488   3.431   2.363  17.262 -2.5550  1.9639 -1.2581
17999TIP3    H275489   3.339   2.245  17.244  0.9642 -1.0536 -0.5638
18000TIP3   OH275490   5.334   5.962   4.327  0.1914  0.1274  0.0554
18000TIP3    H175491   5.343   5.972   4.422 -0.7471 -0.9781  0.2861
18000TIP3    H275492   5.240   5.972   4.311  0.1355 -1.1379 -0.5475
18001TIP3   OH275493   4.285   2.627   2.087  0.3966 -0.8887  0.7537
18001TIP3    H175494   4.251   2.714   2.070  1.3499 -0.5345  0.5767
18001TIP3    H275495   4.246   2.572   2.019  0.6626 -0.3768  0.1753
18002TIP3   OH275496   1.971   5.628   4.102  0.3661  0.0766  0.0803
18002TIP3    H175497   1.940   5.714   4.073 -0.4235 -0.2190  0.0309
18002TIP3    H275498   2.064   5.627   4.077  0.2870  0.7591 -0.2751
18003TIP3   OH275499   3.495   5.399  13.903 -0.3336 -0.1938 -0.2143
18003TIP3    H175500   3.578   5.353  13.919 -0.7412 -1.0391 -0.4688
18003TIP3    H275501   3.473   5.438  13.988 -0.4509 -1.2756  0.2674
18004TIP3   OH275502   2.792   0.144   2.580 -0.2269  0.0033  0.4957
18004TIP3    H175503   2.708   0.149   2.535  0.3656 -0.6493 -0.7332
18004TIP3    H275504   2.853   0.190   2.522 -0.0342  2.2072  2.2656
18005TIP3   OH275505   4.542   0.467  16.712 -0.5506 -0.1592  0.1693
18005TIP3    H175506   4.465   0.412  16.696  0.6443 -2.1277  0.7870
18005TIP3    H275507   4.614   0.421  16.667  0.5965  0.6468  1.1065
18006TIP3   OH275508   6.677   3.032   1.867  0.0908 -0.5069 -0.1217
18006TIP3    H175509   6.761   2.988   1.852  1.0220  1.6571 -1.7981
18006TIP3    H275510   6.677   3.053   1.960  1.5291 -0.3849 -0.1305
18007TIP3   OH275511   5.737   6.135  16.936  0.0798  0.1401  0.0527
18007TIP3    H175512   5.708   6.226  16.932 -0.2111  0.0696  0.3977
18007TIP3    H275513   5.820   6.133  16.889 -0.3654  0.4021 -0.7604
18008TIP3   OH275514   6.517   4.470  11.631  0.7648 -0.0130 -0.5216
18008TIP3    H175515   6.578   4.472  11.557  1.5134  0.0238  0.0859
18008TIP3    H275516   6.519   4.559  11.666 -0.1276  0.1569 -0.8793
18009TIP3   OH275517   1.234   2.739  12.570  0.6404 -0.0910  0.9549
18009TIP3    H175518   1.211   2.832  12.560 -2.1656 -0.5961  1.7857
18009TIP3    H275519   1.191   2.697  12.495  2.2484 -0.7087  0.3486
18010TIP3   OH275520   3.854   6.545  11.804 -0.2301 -0.2322  0.2269
18010TIP3    H175521   3.920   6.609  11.833 -0.5640  0.1425  0.1620
18010TIP3    H275522   3.790   6.543  11.875 -1.1363  0.8108 -0.5235
18011TIP3   OH275523   3.540   5.162   5.157  0.6184  0.1138 -0.1111
18011TIP3    H175524   3.504   5.175   5.245  1.5110  0.9529  0.1536
18011TIP3    H275525   3.612   5.225   5.152  0.6291  0.0125 -1.4158
18012TIP3   OH275526   3.955   0.042  15.690  0.4716  0.6714  0.7630
18012TIP3    H175527   4.009   0.057  15.768  1.2466 -1.0231  0.6248
18012TIP3    H275528   3.874   0.004  15.724 -1.2599  4.2724  1.0707
18013TIP3   OH275529   2.292   6.367   6.592  0.0506  0.1050  0.5299
18013TIP3    H175530   2.212   6.326   6.560  0.6753 -0.5221 -0.2996
18013TIP3    H275531   2.263   6.428   6.659 -1.0545 -0.5999  0.7215
18014TIP3   OH275532   6.532   6.490  11.099  0.3153  0.9649  0.0287
18014TIP3    H175533   6.622   6.466  11.077 -0.0734  1.0168 -1.7212
18014TIP3    H275534   6.529   6.484  11.195  1.6521 -0.8742  0.0124
18015TIP3   OH275535   4.521   5.266   0.909 -0.1591  0.0075  0.0794
18015TIP3    H175536   4.537   5.285   1.002 -1.8961  0.4452  0.3269
18015TIP3    H275537   4.464   5.190   0.911 -0.0295 -0.1090 -0.6546
18016TIP3   OH275538   3.299   2.580  16.229 -0.2193 -0.2365  0.0693
18016TIP3    H175539   3.268   2.550  16.144  1.4781 -1.3519 -0.2188
18016TIP3    H275540   3.294   2.503  16.286  2.0290 -0.5608 -0.0491
18017TIP3   OH275541   6.824   1.525  11.079 -0.5609  0.1064  0.2921
18017TIP3    H175542   6.794   1.435  11.091 -0.3396  0.0510  0.4412
18017TIP3    H275543   6.781   1.554  10.999 -0.0540 -0.3843 -0.1699
18018TIP3   OH275544   2.396   5.721   6.721 -0.1698  0.6852  0.1438
18018TIP3    H175545   2.402   5.637   6.675  0.3524  1.0323 -0.4339
18018TIP3    H275546   2.311   5.757   6.696  0.4875  1.2987 -1.3134
18019TIP3   OH275547   0.840   6.806   1.866  0.2564  0.4389  0.4359
18019TIP3    H175548   0.880   6.877   1.816 -1.1507  1.4766  0.7228
18019TIP3    H275549   0.913   6.764   1.911  1.2851  0.8043 -0.8324
18020TIP3   OH275550   0.502   3.029   3.022  0.1416  0.6327 -0.3094
18020TIP3    H175551   0.513   2.953   3.079 -0.3913  0.3022 -0.6291
18020TIP3    H275552   0.589   3.066   3.013  0.6270 -0.6544 -1.1241
18021TIP3   OH275553   2.323   3.455   0.427 -0.3627 -0.2807 -0.5507
18021TIP3    H175554   2.284   3.450   0.514  0.1554 -0.1182 -0.3083
18021TIP3    H275555   2.363   3.542   0.423  2.6772 -1.5013  0.3853
18022TIP3   OH275556   0.277   2.447  14.075 -0.1372 -0.0352  0.4502
18022TIP3    H175557   0.336   2.520  14.094  0.1517  0.2631 -1.4491
18022TIP3    H275558   0.301   2.380  14.139  1.4895  0.4969  0.4359
18023TIP3   OH275559   3.922   1.130   0.691 -0.2360  0.1054  0.2736
18023TIP3    H175560   3.953   1.213   0.655 -0.0406 -0.5113 -1.0163
18023TIP3    H275561   3.840   1.151   0.735 -0.4095  0.9008 -0.4246
18024TIP3   OH275562   0.737   0.988   4.384  0.1098 -0.4030 -0.5739
18024TIP3    H175563   0.662   0.944   4.423  0.1390 -2.4064 -2.5510
18024TIP3    H275564   0.759   0.934   4.308  1.7419  1.7314 -1.7294
18025TIP3   OH275565   3.670   2.474   5.240 -0.4835  0.2247 -0.4020
18025TIP3    H175566   3.609   2.540   5.208 -0.5027  0.5989  0.3872
18025TIP3    H275567   3.629   2.391   5.218 -0.4856  0.4615 -1.3538
18026TIP3   OH275568   5.794   0.895  14.863  0.2285 -0.6276  0.1870
18026TIP3    H175569   5.821   0.939  14.782 -1.4121  0.2097  0.0498
18026TIP3    H275570   5.822   0.954  14.933  0.2387 -0.5854  0.1472
18027TIP3   OH275571   3.364   3.761   5.791 -0.1142  0.0124 -0.0400
18027TIP3    H175572   3.431   3.760   5.859 -1.6489 -1.7034  1.5482
18027TIP3    H275573   3.353   3.669   5.767 -3.6991 -0.1630  1.6894
18028TIP3   OH275574   6.415   2.097  16.480 -0.1335 -0.1362  0.5377
18028TIP3    H175575   6.346   2.038  16.449 -0.5698 -0.3330  1.8129
18028TIP3    H275576   6.411   2.090  16.576  2.7158 -1.3317  0.6489
18029TIP3   OH275577   1.613   2.608  12.191 -0.1867  0.2980  0.0041
18029TIP3    H175578   1.559   2.672  12.237 -0.5608  0.6860 -0.9439
18029TIP3    H275579   1.633   2.649  12.107 -0.9554 -1.0492 -0.8762
18030TIP3   OH275580   3.000   0.753   4.718  0.6060  0.5355  0.0109
18030TIP3    H175581   3.020   0.810   4.793 -0.7584 -0.3461  1.0763
18030TIP3    H275582   3.085   0.742   4.674  1.1721  2.2074  0.5910
18031TIP3   OH275583   6.157   3.917  15.869 -0.5050  0.0689 -0.3974
18031TIP3    H175584   6.106   3.847  15.829 -0.0622 -0.7529  0.4407
18031TIP3    H275585   6.110   3.997  15.845  0.5011 -0.1946 -3.7451
18032TIP3   OH275586   5.458   2.938   5.138 -0.2126  0.2716 -0.3731
18032TIP3    H175587   5.398   2.990   5.085 -0.7691  0.5362  0.4878
18032TIP3    H275588   5.447   2.849   5.105 -0.4904  0.4399 -0.7506
18033TIP3   OH275589   6.564   1.032   1.040 -0.3360 -0.4853  0.3347
18033TIP3    H175590   6.475   0.997   1.043 -1.6498  2.5536  1.5972
18033TIP3    H275591   6.590   1.026   0.948 -1.2842 -2.5817  0.1586
18034TIP3   OH275592   3.987   4.479   3.061  0.3593 -0.0623 -0.2001
18034TIP3    H175593   4.050   4.436   3.118  1.3743 -0.9181 -1.8657
18034TIP3    H275594   3.951   4.550   3.114 -0.5685 -2.2445  2.2979
18035TIP3   OH275595   1.048   6.713  16.306 -0.5860  0.6684 -0.2247
18035TIP3    H175596   1.019   6.656  16.378 -0.5926  2.1263  0.9886
18035TIP3    H275597   1.018   6.669  16.227 -1.4222 -0.5294  0.7173
18036TIP3   OH275598   3.706   5.029  11.972  0.2604  0.3494 -0.2408
18036TIP3    H175599   3.684   5.121  11.960  2.2355  0.7485 -1.2915
18036TIP3    H275600   3.649   5.000  12.043 -0.8785  2.1857 -0.3254
18037TIP3   OH275601   5.213   4.861  14.768  0.1591 -0.2323 -0.8427
18037TIP3    H175602   5.231   4.857  14.862 -1.2361 -2.2722 -0.6205
18037TIP3    H275603   5.222   4.954  14.747 -0.4143  0.4239  1.4951
18038TIP3   OH275604   0.780   5.048  15.300  0.2983 -0.5185  0.0438
18038TIP3    H175605   0.836   5.059  15.223  1.1674 -1.1645  0.5690
18038TIP3    H275606   0.758   4.955  15.301 -0.1236 -0.4209  0.3039
18039TIP3   OH275607   1.000   2.263  13.607 -0.3570  0.4540  0.9257
18039TIP3    H175608   1.009   2.176  13.645  1.0105  0.7112  1.2583
18039TIP3    H275609   1.043   2.321  13.671 -0.9621  1.3314  0.5607
18040TIP3   OH275610   5.977   0.941   1.937  0.1128  0.3462 -0.1781
18040TIP3    H175611   5.981   0.905   1.848  1.0218  1.1611 -0.4999
18040TIP3    H275612   6.067   0.972   1.953 -0.2488  0.9665  0.6967
18041TIP3   OH275613   2.457   1.663   3.595  0.8567  0.9614 -0.4713
18041TIP3    H175614   2.451   1.701   3.682  1.7482  2.3789 -1.0064
18041TIP3    H275615   2.548   1.635   3.587  0.1997 -1.5987 -0.0097
18042TIP3   OH275616   4.557   5.597   1.262 -0.3232 -0.1413 -0.2867
18042TIP3    H175617   4.623   5.619   1.197 -0.0283 -1.9091 -0.6460
18042TIP3    H275618   4.475   5.628   1.225  0.1815  1.4908 -0.1307
18043TIP3   OH275619   0.355   0.779   1.385  0.2064 -0.2873  0.4259
18043TIP3    H175620   0.446   0.766   1.413  0.5391  0.5747 -0.1949
18043TIP3    H275621   0.354   0.747   1.295  0.1337  0.5331  0.1260
18044TIP3   OH275622   1.177   1.320   0.564 -0.1729 -0.1904 -0.3140
18044TIP3    H175623   1.244   1.338   0.629 -0.8871 -2.2485  1.1157
18044TIP3    H275624   1.196   1.231   0.534 -0.2668  0.4657 -2.4722
18045TIP3   OH275625   4.373   6.039  11.948  0.3816  0.1834 -0.1969
18045TIP3    H175626   4.334   5.973  12.005 -1.6499  1.7515  0.3584
18045TIP3    H275627   4.365   6.121  11.998  1.6081  1.0821 -1.3922
18046TIP3   OH275628   1.562   0.241   5.584 -0.8667 -0.3682 -0.1375
18046TIP3    H175629   1.477   0.197   5.581 -0.7085 -0.7712 -4.0552
18046TIP3    H275630   1.621   0.183   5.536  1.9716 -0.4967  3.1710
18047TIP3   OH275631   1.438   5.486  13.422  0.1815 -0.2310  0.0779
18047TIP3    H175632   1.478   5.447  13.345  0.6808  2.9027 -1.4087
18047TIP3    H275633   1.510   5.533  13.465 -0.6818  0.4704  0.8152
18048TIP3   OH275634   3.973   6.127  16.250  0.2321 -0.3996 -0.4406
18048TIP3    H175635   4.036   6.080  16.196 -1.0339 -1.4853 -1.0395
18048TIP3    H275636   3.888   6.111  16.208 -0.4945  0.7173  0.5309
18049TIP3   OH275637   6.311   4.051  17.126 -0.3272  0.3541 -0.6162
18049TIP3    H175638   6.277   4.123  17.072 -0.3831 -0.7078 -2.0568
18049TIP3    H275639   6.297   3.973  17.073 -0.0931 -0.7081  0.8416
18050TIP3   OH275640   0.785   5.654  16.828  0.2012  0.1268  0.0511
18050TIP3    H175641   0.726   5.677  16.756  1.9109 -0.2933 -1.5469
18050TIP3    H275642   0.831   5.735  16.848  0.6590 -0.0648 -0.2235
18051TIP3   OH275643   4.841   3.139   1.052 -0.2764  0.7811  0.0268
18051TIP3    H175644   4.770   3.204   1.060 -0.6000  0.3902  0.4019
18051TIP3    H275645   4.837   3.111   0.961 -1.5607 -0.2830  0.3697
18052TIP3   OH275646   6.742   0.722  13.197  0.0462 -0.2658  0.4377
18052TIP3    H175647   6.822   0.761  13.162 -0.8361 -0.1324 -1.5889
18052TIP3    H275648   6.768   0.684  13.281  1.8662  1.0844  0.5405
18053TIP3   OH275649   0.694   5.987   1.721 -0.2318 -0.3370  0.4528
18053TIP3    H175650   0.684   5.988   1.816  1.9362  2.0696  0.7623
18053TIP3    H275651   0.609   6.013   1.687 -0.2221  1.9037  1.9560
18054TIP3   OH275652   4.318   6.510  13.806 -0.1602 -0.5755  0.4699
18054TIP3    H175653   4.261   6.495  13.730  1.2283 -0.2189 -0.6870
18054TIP3    H275654   4.350   6.599  13.794  0.1882 -0.5658  1.4128
18055TIP3   OH275655   4.824   6.382   5.378 -0.3550 -0.1295 -0.2691
18055TIP3    H175656   4.812   6.473   5.352  1.3539  0.6464  1.4024
18055TIP3    H275657   4.837   6.335   5.296 -2.2479  0.9278 -1.2305
18056TIP3   OH275658   5.687   2.863   5.678  0.0219  0.2754 -0.5487
18056TIP3    H175659   5.639   2.934   5.720 -1.3576 -0.4487 -0.8573
18056TIP3    H275660   5.640   2.847   5.596  0.8002 -0.4526 -0.8730
18057TIP3   OH275661   3.612   5.389  13.127 -0.7161  0.4849  0.7052
18057TIP3    H175662   3.602   5.411  13.219  0.2370  1.7925  0.5191
18057TIP3    H275663   3.685   5.328  13.124  0.2377  1.5817  0.7037
18058TIP3   OH275664   2.237   2.888  15.268  0.2223  0.4210  0.2907
18058TIP3    H175665   2.239   2.804  15.223 -0.7885  0.2957  0.4510
18058TIP3    H275666   2.163   2.934  15.229  0.3891  0.9907  0.6384
18059TIP3   OH275667   0.655   1.327   0.258  0.0131  0.2661  0.5340
18059TIP3    H175668   0.712   1.402   0.242  0.6882 -0.6675 -1.8207
18059TIP3    H275669   0.712   1.262   0.299  1.0340 -1.0307 -2.7083
18060TIP3   OH275670   2.323   4.826  14.288  0.3417 -0.4487 -0.5860
18060TIP3    H175671   2.247   4.786  14.245 -0.0279  0.0192 -0.3765
18060TIP3    H275672   2.387   4.756  14.294 -1.0001 -1.5982  1.5640
18061TIP3   OH275673   3.207   0.101  13.929 -0.0190  0.2934 -0.2389
18061TIP3    H175674   3.271   0.040  13.894 -0.7607  0.0731 -1.2677
18061TIP3    H275675   3.217   0.094  14.024  0.8707 -0.3726 -0.3658
18062TIP3   OH275676   6.227   1.059   5.315  0.7265 -0.1720  0.0461
18062TIP3    H175677   6.192   1.005   5.386  3.1708 -2.4851 -0.3311
18062TIP3    H275678   6.312   1.088   5.346  0.5329  1.3950 -0.8007
18063TIP3   OH275679   1.990   1.215   1.023 -0.6349 -0.4809  0.1414
18063TIP3    H175680   1.960   1.134   0.980 -0.8970 -1.2998  1.7906
18063TIP3    H275681   2.077   1.230   0.986  0.1155 -2.4557  0.9652
18064TIP3   OH275682   0.927   3.335  14.995  0.0939 -0.3820 -0.1131
18064TIP3    H175683   1.010   3.330  15.042  1.0034  0.7022 -1.5068
18064TIP3    H275684   0.869   3.383  15.054  0.0922 -2.0571  1.3174
18065TIP3   OH275685   4.760   6.514  15.032 -0.3195 -0.2822 -0.4741
18065TIP3    H175686   4.671   6.483  15.014 -0.1348 -2.2943  1.5067
18065TIP3    H275687   4.796   6.447  15.091  1.8757  1.4208  0.2392
18066TIP3   OH275688   0.075   0.553   4.268  0.0603 -0.4984  0.4472
18066TIP3    H175689   0.084   0.547   4.173 -0.2335  0.3525  0.3580
18066TIP3    H275690   0.155   0.597   4.296 -0.2739  0.0790  0.4936
18067TIP3   OH275691   1.801   3.255  13.051 -0.4074 -0.3622 -0.3188
18067TIP3    H175692   1.842   3.261  12.964 -2.0643  1.8091 -1.0429
18067TIP3    H275693   1.872   3.276  13.112  0.0701  1.4339 -1.3999
18068TIP3   OH275694   4.214   6.459  13.142  0.5067 -0.1699  0.5083
18068TIP3    H175695   4.291   6.428  13.094  0.5016 -1.1674  1.1117
18068TIP3    H275696   4.179   6.529  13.088  0.6056 -1.1220 -0.8546
18069TIP3   OH275697   1.058   1.702   6.369  0.5259  0.2092 -0.0862
18069TIP3    H175698   1.047   1.694   6.274  1.0316  1.0496 -0.2328
18069TIP3    H275699   0.975   1.673   6.406  0.5551 -0.7704 -0.7464
18070TIP3   OH275700   2.862   0.956   2.673  0.2022 -0.0450  0.5176
18070TIP3    H175701   2.812   0.889   2.627  0.4230 -2.0333  2.9620
18070TIP3    H275702   2.804   1.032   2.675 -1.6240 -1.3887  0.9003
18071TIP3   OH275703   0.885   2.386   1.828  0.1147  0.2515  0.2118
18071TIP3    H175704   0.822   2.436   1.879 -0.9372 -0.0196 -0.7883
18071TIP3    H275705   0.898   2.438   1.748 -1.2732 -1.1915 -1.0105
18072TIP3   OH275706   6.466   1.128  11.936  0.1325 -0.0425  0.2200
18072TIP3    H175707   6.415   1.047  11.941 -1.2711  0.8301  0.4762
18072TIP3    H275708   6.554   1.099  11.910 -0.0259 -1.7579  1.4567
18073TIP3   OH275709   3.033   6.809   2.039 -0.1843 -0.7209  0.6041
18073TIP3    H175710   3.035   6.721   2.004  0.9605 -0.7302  0.6614
18073TIP3    H275711   3.099   6.857   1.989 -0.2287 -0.1080  1.1146
18074TIP3   OH275712   4.797   2.245  10.809  0.4217  0.3857 -0.1303
18074TIP3    H175713   4.813   2.151  10.813 -0.4426  0.2568  2.6659
18074TIP3    H275714   4.706   2.253  10.783  0.8120  0.5380 -1.5267
18075TIP3   OH275715   5.470   3.179   2.244  0.0278  0.1917  0.0092
18075TIP3    H175716   5.542   3.189   2.182  0.0623 -1.0537 -0.1714
18075TIP3    H275717   5.509   3.131   2.318  0.1150  2.0552  1.2532
18076TIP3   OH275718   0.926   4.955  13.076  1.0239 -0.7503  0.0387
18076TIP3    H175719   0.932   4.898  13.000 -1.1253 -1.4250  0.3061
18076TIP3    H275720   1.000   5.015  13.067  2.2403 -2.3523 -1.2509
18077TIP3   OH275721   6.757   6.556   3.821  0.0379  0.3176  0.9985
18077TIP3    H175722   6.746   6.643   3.859 -1.5361 -0.2195  1.8613
18077TIP3    H275723   6.802   6.506   3.889  2.3095  0.8045 -0.0675
18078TIP3   OH275724   5.303   5.610   4.539  0.1666  0.5119  0.4097
18078TIP3    H175725   5.229   5.659   4.574 -0.2377  0.0098  0.2630
18078TIP3    H275726   5.276   5.586   4.450  0.2876 -0.1304  0.5458
18079TIP3   OH275727   2.643   0.168  13.521 -0.0717 -0.0852 -0.3489
18079TIP3    H175728   2.684   0.086  13.548  1.1483  0.9809  1.3485
18079TIP3    H275729   2.578   0.186  13.589 -0.4073  0.2958 -0.7659
18080TIP3   OH275730   5.364   5.066  13.198  0.4949 -0.6835 -0.2950
18080TIP3    H175731   5.270   5.051  13.208 -0.0339  2.0262 -0.4299
18080TIP3    H275732   5.371   5.158  13.174  3.1776 -0.9531 -0.8568
18081TIP3   OH275733   4.131   0.717  11.556  0.4456 -0.4553  0.3236
18081TIP3    H175734   4.195   0.649  11.573 -0.9003 -2.7893 -2.8510
18081TIP3    H275735   4.161   0.758  11.475  0.5325  1.9707  1.4932
18082TIP3   OH275736   5.953   2.116   4.298  0.5821 -0.5877 -0.1943
18082TIP3    H175737   5.965   2.211   4.300  2.3133 -0.7743  1.2907
18082TIP3    H275738   6.000   2.088   4.219  1.3224 -0.3243  0.1416
18083TIP3   OH275739   0.553   2.629   0.322 -0.5067  0.3912  0.2968
18083TIP3    H175740   0.473   2.608   0.274 -1.9462  1.1486  2.2179
18083TIP3    H275741   0.552   2.725   0.328 -1.4624  0.2854  3.4069
18084TIP3   OH275742   3.065   5.842  12.822 -0.2214  0.3647 -0.1911
18084TIP3    H175743   3.094   5.907  12.757  0.2736  1.1783  0.8167
18084TIP3    H275744   2.971   5.861  12.834 -0.7528 -0.9219 -1.9181
18085TIP3   OH275745   4.410   5.678   6.014 -0.0819 -0.3909  0.2591
18085TIP3    H175746   4.460   5.746   5.970 -0.7585  0.7018  1.1298
18085TIP3    H275747   4.330   5.669   5.962 -0.0896 -0.3564  0.2648
18086TIP3   OH275748   0.088   6.187  13.758 -0.6434 -0.3427 -0.2546
18086TIP3    H175749   0.004   6.225  13.786  0.1053  0.9706  0.3009
18086TIP3    H275750   0.143   6.263  13.738 -0.0014 -1.1979 -1.9213
18087TIP3   OH275751   0.735   4.621  12.991 -0.4503  0.0107  0.1043
18087TIP3    H175752   0.803   4.654  12.933 -0.3478 -0.7240 -0.2025
18087TIP3    H275753   0.782   4.588  13.067 -0.4421 -0.6704 -0.1909
18088TIP3   OH275754   6.126   2.580  14.273 -0.2667 -0.0745  0.8088
18088TIP3    H175755   6.181   2.512  14.234  0.7112  1.4381 -0.5576
18088TIP3    H275756   6.056   2.532  14.317  1.1843 -2.0075  1.1319
18089TIP3   OH275757   6.192   6.545  14.937 -0.4352  0.1724  0.0640
18089TIP3    H175758   6.143   6.615  14.892  1.3601  0.2481 -1.9265
18089TIP3    H275759   6.213   6.483  14.868  1.9966  0.0011  0.8628
18090TIP3   OH275760   4.357   2.119   6.907 -0.4185  0.5033  0.2617
18090TIP3    H175761   4.420   2.048   6.919  0.8260  1.8130  2.2785
18090TIP3    H275762   4.387   2.165   6.829 -0.7220 -0.6468 -0.5546
18091TIP3   OH275763   6.744   1.960   0.906 -0.7025 -0.4936  0.0216
18091TIP3    H175764   6.816   2.007   0.947 -0.7817 -0.6672  0.3637
18091TIP3    H275765   6.758   1.868   0.930 -1.3878 -0.4451  0.6278
18092TIP3   OH275766   5.459   1.485   3.010  0.0440 -0.1853 -0.7282
18092TIP3    H175767   5.515   1.424   3.058 -0.7838 -1.5898 -1.4530
18092TIP3    H275768   5.498   1.490   2.923  0.0342  0.2173 -0.7087
18093TIP3   OH275769   1.202   1.647  15.219  0.2676  0.3728  0.3497
18093TIP3    H175770   1.140   1.715  15.248 -0.1211  0.1382  0.0865
18093TIP3    H275771   1.167   1.566  15.256  0.5857  0.2794  0.4465
18094TIP3   OH275772   1.131   0.246   0.525  0.2530 -0.2881  0.5016
18094TIP3    H175773   1.154   0.210   0.610  1.0955 -0.9385  0.0186
18094TIP3    H275774   1.160   0.179   0.462  1.4939  1.0164 -0.4048
18095TIP3   OH275775   5.871   6.262   4.891 -0.0453 -0.2965  0.6399
18095TIP3    H175776   5.904   6.222   4.810  0.6965  0.0626  0.7549
18095TIP3    H275777   5.876   6.192   4.956  1.1476 -0.0680  0.8158
18096TIP3   OH275778   2.318   1.807  11.745 -0.6280  0.1685 -0.7816
18096TIP3    H175779   2.280   1.839  11.827  0.3835  1.4390 -0.7844
18096TIP3    H275780   2.292   1.715  11.741 -0.7797  0.1106  0.9148
18097TIP3   OH275781   2.327   0.280  13.175  0.1751 -0.0514 -0.1218
18097TIP3    H175782   2.358   0.360  13.217  1.2309  0.5663 -1.9551
18097TIP3    H275783   2.384   0.269  13.099 -1.7251 -1.0104 -1.5076
18098TIP3   OH275784   2.098   6.176   5.193  0.5961  0.1582 -0.4368
18098TIP3    H175785   2.052   6.223   5.124 -0.0441  2.4479  1.4262
18098TIP3    H275786   2.182   6.220   5.202  0.7433 -0.2176  0.1145
18099TIP3   OH275787   3.364   0.359   3.280  0.0497  0.3375 -0.3032
18099TIP3    H175788   3.363   0.291   3.348  1.9550  0.2768 -0.2865
18099TIP3    H275789   3.296   0.422   3.308  1.1159  0.5789  1.9698
18100TIP3   OH275790   3.856   6.169   3.874  0.0290 -0.1944  0.3331
18100TIP3    H175791   3.863   6.123   3.791 -0.0177  2.1471 -1.0484
18100TIP3    H275792   3.830   6.102   3.937 -2.0888 -1.6470 -1.9496
18101TIP3   OH275793   4.291   3.377   1.951  0.3742  0.2620  0.1216
18101TIP3    H175794   4.268   3.441   1.884 -0.4692  0.8289  0.9285
18101TIP3    H275795   4.255   3.413   2.032  0.5115 -0.8873  0.7157
18102TIP3   OH275796   4.238   5.216   3.309  0.0181  0.0954  0.1727
18102TIP3    H175797   4.224   5.287   3.373  1.3453 -0.1428  0.7624
18102TIP3    H275798   4.242   5.261   3.225  0.9272  0.7437  0.5478
18103TIP3   OH275799   3.298   0.325  12.690  0.2836 -0.0820  0.0658
18103TIP3    H175800   3.216   0.310  12.644  0.0415  0.9195  0.1424
18103TIP3    H275801   3.306   0.420  12.695  1.1218 -0.1668  0.6397
18104TIP3   OH275802   2.975   5.629   1.132  0.2270  0.2753  0.2205
18104TIP3    H175803   3.007   5.609   1.044  1.4242  0.2542  0.6294
18104TIP3    H275804   2.927   5.550   1.159  0.3497  0.0563 -0.1983
18105TIP3   OH275805   0.323   5.321  13.315 -0.4557 -0.2393  0.4198
18105TIP3    H175806   0.303   5.228  13.305  1.4825 -0.6882  0.3099
18105TIP3    H275807   0.256   5.353  13.375 -1.5193 -1.5592 -0.0061
18106TIP3   OH275808   5.766   2.208  16.786  0.0981 -0.0145  1.2136
18106TIP3    H175809   5.845   2.154  16.796  1.7900  2.2352  0.8904
18106TIP3    H275810   5.748   2.240  16.875 -1.1155 -1.3463  1.4681
18107TIP3   OH275811   6.587   5.429   3.489  0.3585 -0.0043  0.1703
18107TIP3    H175812   6.610   5.389   3.405  0.3986  0.9192 -0.2699
18107TIP3    H275813   6.634   5.512   3.490  0.9107 -0.3061  1.4199
18108TIP3   OH275814   4.849   0.534  13.870  0.2708 -0.3736  0.1907
18108TIP3    H175815   4.769   0.584  13.859  0.7783 -0.1081 -6.6386
18108TIP3    H275816   4.819   0.444  13.883 -1.1919 -0.1696 -1.4756
18109TIP3   OH275817   3.196   4.052   4.438  0.0382 -0.1945  0.3599
18109TIP3    H175818   3.201   3.981   4.503  1.2117 -1.8675 -1.4383
18109TIP3    H275819   3.118   4.031   4.386 -0.3070  0.5377  0.5820
18110TIP3   OH275820   4.364   0.955   3.897 -0.1801  0.3519  0.4679
18110TIP3    H175821   4.459   0.953   3.887 -0.3395 -2.4990 -1.7303
18110TIP3    H275822   4.349   0.938   3.990  1.4965 -1.1895  0.5036
18111TIP3   OH275823   4.817   5.348   2.743 -0.6459  0.7178  0.6215
18111TIP3    H175824   4.854   5.401   2.812 -0.1019  0.7523  0.3066
18111TIP3    H275825   4.763   5.283   2.789 -0.2202  0.6830  1.0806
18112TIP3   OH275826   2.097   5.857   2.527  0.0981 -0.3535 -0.2294
18112TIP3    H175827   2.119   5.915   2.600 -1.8838 -0.0886  0.2178
18112TIP3    H275828   2.103   5.769   2.564  2.5786 -0.4735 -0.7630
18113TIP3   OH275829   2.809   3.126   4.368  0.3157 -0.5033  0.8517
18113TIP3    H175830   2.890   3.176   4.357 -0.3744  0.8111  1.4933
18113TIP3    H275831   2.816   3.054   4.305  0.9107  0.9480 -0.8015
18114TIP3   OH275832   3.431   2.437   5.523  0.0699 -0.6391  0.1087
18114TIP3    H175833   3.506   2.467   5.471 -0.0140 -2.1955 -0.9496
18114TIP3    H275834   3.361   2.499   5.503  0.0998 -1.1023 -1.4984
18115TIP3   OH275835   2.242   6.044   5.894  0.4419  0.0010  0.0182
18115TIP3    H175836   2.204   6.072   5.811 -0.5570 -1.2259  0.0230
18115TIP3    H275837   2.314   5.986   5.870  1.8554  1.6635  0.0209
18116TIP3   OH275838   2.160   0.906   1.065  0.0023  0.0958  0.3794
18116TIP3    H175839   2.094   0.901   0.995  1.4730  1.4541 -1.2006
18116TIP3    H275840   2.113   0.880   1.144 -1.2369 -3.7902 -1.3457
18117TIP3   OH275841   2.974   4.603   2.838 -0.0995 -0.6697  0.4352
18117TIP3    H175842   2.908   4.617   2.769 -1.0344 -0.9546  1.2441
18117TIP3    H275843   2.965   4.680   2.895  1.2648 -0.0028 -0.1999
18118TIP3   OH275844   0.718   0.505  11.217  0.7938  0.8393  1.0068
18118TIP3    H175845   0.782   0.576  11.207  1.2438  0.3540  0.3737
18118TIP3    H275846   0.731   0.450  11.140 -0.1161  0.5112  1.0790
18119TIP3   OH275847   5.651   1.113  16.998 -0.5154 -0.5740  0.1263
18119TIP3    H175848   5.559   1.135  16.987 -0.8044 -0.9834  1.4750
18119TIP3    H275849   5.696   1.197  17.008 -0.3898 -0.2364 -2.5411
18120TIP3   OH275850   0.592   1.806  11.358  0.0160 -0.2085 -0.7138
18120TIP3    H175851   0.655   1.873  11.332  1.2958 -1.2952 -0.4684
18120TIP3    H275852   0.531   1.802  11.285 -1.5149  2.8367  0.2019
18121TIP3   OH275853   2.157   2.735   0.134 -0.4003 -0.7114  0.6341
18121TIP3    H175854   2.130   2.759   0.045 -0.8102 -0.3363  0.8569
18121TIP3    H275855   2.209   2.810   0.164  1.3170 -1.6130  0.0398
18122TIP3   OH275856   1.939   0.146  15.902 -0.1481 -0.6859  0.2265
18122TIP3    H175857   1.875   0.084  15.866 -0.5293  0.3162 -0.8518
18122TIP3    H275858   1.887   0.205  15.957  0.3426 -1.8285  2.0473
18123TIP3   OH275859   5.337   2.663  16.015 -0.4088  0.0653  0.1561
18123TIP3    H175860   5.294   2.607  15.950 -1.6671  0.3831  0.6834
18123TIP3    H275861   5.310   2.752  15.993 -0.1074  0.2672  0.5759
18124TIP3   OH275862   3.350   5.635   3.579 -0.2253 -0.3030 -0.8829
18124TIP3    H175863   3.387   5.548   3.596 -0.2764 -0.9632 -3.6971
18124TIP3    H275864   3.258   5.618   3.559 -0.7775  0.7092  0.6059
18125TIP3   OH275865   3.616   5.606  12.503  0.4851 -0.0419  0.1842
18125TIP3    H175866   3.695   5.654  12.479  0.0844  0.3973 -0.2812
18125TIP3    H275867   3.553   5.628  12.434 -0.8322  1.5618  1.8016
18126TIP3   OH275868   5.399   1.387  11.163  0.6394 -0.0862  0.2182
18126TIP3    H175869   5.447   1.402  11.082  2.4803 -0.8152  1.1350
18126TIP3    H275870   5.310   1.418  11.144  1.6538  2.2255 -1.2303
18127TIP3   OH275871   2.259   4.454  15.786  0.7206 -0.1057  0.1996
18127TIP3    H175872   2.177   4.415  15.756  1.7560 -1.2811 -1.3286
18127TIP3    H275873   2.327   4.409  15.734  2.3816  0.3522  1.8566
18128TIP3   OH275874   5.942   4.936   2.026  0.4885  0.2412  0.0091
18128TIP3    H175875   5.889   4.995   2.080  0.5497  0.0683  0.2592
18128TIP3    H275876   5.897   4.852   2.032  0.9557  0.0181  0.4737
18129TIP3   OH275877   4.009   1.903  10.479 -0.0389  0.7822 -0.0844
18129TIP3    H175878   4.072   1.949  10.534 -0.4721  3.5137 -1.6991
18129TIP3    H275879   3.925   1.943  10.499 -0.6776 -0.1998 -0.6726
18130TIP3   OH275880   3.981   3.924   4.257 -0.0248 -0.4066  0.1292
18130TIP3    H175881   4.048   3.859   4.237 -0.5485 -0.6072 -1.0473
18130TIP3    H275882   3.913   3.911   4.191 -0.4610  0.8877  0.2832
18131TIP3   OH275883   4.584   1.860  16.444 -0.1258  0.4359 -0.0809
18131TIP3    H175884   4.536   1.845  16.526  0.1506  0.6707  0.1263
18131TIP3    H275885   4.520   1.900  16.386  0.0044  1.4375  0.4379
18132TIP3   OH275886   3.327   6.046  14.098  0.9726 -0.5356 -0.1946
18132TIP3    H175887   3.322   6.041  14.002  1.8790 -1.5320 -0.2055
18132TIP3    H275888   3.271   6.121  14.121 -2.2418 -2.4189 -1.2021
18133TIP3   OH275889   1.297   5.341   4.858  0.0742 -0.5722  0.1876
18133TIP3    H175890   1.345   5.269   4.816  3.8746  1.4327  0.6321
18133TIP3    H275891   1.291   5.316   4.950  0.9365 -0.6136  0.2452
18134TIP3   OH275892   4.640   3.746   3.833 -0.5286  0.0972  0.1611
18134TIP3    H175893   4.627   3.656   3.803 -3.6888  0.5553 -0.1035
18134TIP3    H275894   4.735   3.753   3.845 -0.1802 -3.2705  0.2872
18135TIP3   OH275895   2.344   2.639  12.385 -0.1199 -0.6903 -0.4061
18135TIP3    H175896   2.399   2.714  12.408 -1.2811  0.4386 -1.1890
18135TIP3    H275897   2.396   2.563  12.411  1.1650  0.3657  0.2580
18136TIP3   OH275898   6.062   4.771  11.524  0.6485 -0.0175 -0.1421
18136TIP3    H175899   6.153   4.742  11.513  0.5529 -0.4555  0.1762
18136TIP3    H275900   6.011   4.690  11.525  0.0086  0.2943 -2.3442
18137TIP3   OH275901   4.978   6.417   2.356 -0.4449  0.5011  0.1236
18137TIP3    H175902   4.917   6.457   2.418 -3.6863 -0.0359 -2.4273
18137TIP3    H275903   4.956   6.323   2.359  1.2870  0.0604  0.1032
18138TIP3   OH275904   0.731   4.748   0.263 -0.3151 -0.8169 -0.7995
18138TIP3    H175905   0.821   4.719   0.253  0.2197  0.2568  0.5600
18138TIP3    H275906   0.689   4.725   0.180  1.1554 -1.4812 -1.3935
18139TIP3   OH275907   6.759   6.032   3.139 -0.1796  0.2496 -0.8296
18139TIP3    H175908   6.719   5.993   3.218  0.6898 -2.2165 -1.5117
18139TIP3    H275909   6.687   6.035   3.075 -0.4607  0.5948 -0.5055
18140TIP3   OH275910   0.202   2.412   0.753 -0.5361  0.3102 -0.6605
18140TIP3    H175911   0.145   2.416   0.676 -1.3786  1.0527 -0.0144
18140TIP3    H275912   0.209   2.503   0.783 -1.9827 -0.1669  1.3765
18141TIP3   OH275913   4.524   0.561  12.099  0.9785 -1.0043  0.0587
18141TIP3    H175914   4.595   0.556  12.036  1.6268  0.4322  0.6206
18141TIP3    H275915   4.444   0.549  12.048  1.5254 -0.4384 -0.9497
18142TIP3   OH275916   1.181   6.295   1.167 -0.2230 -0.4271 -0.4891
18142TIP3    H175917   1.115   6.229   1.148  0.1201 -1.1919  0.8651
18142TIP3    H275918   1.151   6.336   1.248 -0.8382  1.6595 -1.6755
18143TIP3   OH275919   4.366   2.464   6.796 -0.5450  0.4517 -0.1504
18143TIP3    H175920   4.287   2.441   6.845 -0.4401 -0.3533 -0.3437
18143TIP3    H275921   4.427   2.392   6.814 -0.3531  0.3670 -1.1164
18144TIP3   OH275922   3.249   3.905  11.223 -0.7488  0.1983 -0.0877
18144TIP3    H175923   3.248   3.829  11.280  1.3017  0.2562  0.1072
18144TIP3    H275924   3.290   3.875  11.142 -0.5066  0.9257 -0.2516
18145TIP3   OH275925   5.645   6.436  14.163 -0.0260  0.4229 -0.8885
18145TIP3    H175926   5.630   6.414  14.071  1.3538 -2.5901 -0.5304
18145TIP3    H275927   5.596   6.369  14.212  1.0597  0.6043  0.5163
18146TIP3   OH275928   2.011   3.413  14.444 -0.2340  0.2415  0.0432
18146TIP3    H175929   2.052   3.495  14.473  0.0594  0.2193 -0.2898
18146TIP3    H275930   2.057   3.345  14.493 -0.0343  0.2334 -0.1536
18147TIP3   OH275931   4.860   1.022  16.747 -0.4053 -0.1125  0.6753
18147TIP3    H175932   4.928   0.958  16.724 -1.3762 -1.8957  2.4149
18147TIP3    H275933   4.829   1.056  16.663  1.3558 -0.6229 -0.2281
18148TIP3   OH275934   5.578   5.123   5.291  0.4390 -0.0069 -0.5486
18148TIP3    H175935   5.523   5.094   5.364  0.5393  0.8328 -0.1210
18148TIP3    H275936   5.661   5.077   5.304  0.2326 -0.3639 -0.5037
18149TIP3   OH275937   4.701   0.969   1.827  0.1188  0.3473  0.1769
18149TIP3    H175938   4.737   0.932   1.746  2.3586  1.4212  0.6197
18149TIP3    H275939   4.608   0.982   1.808  0.4921  0.1262 -2.0372
18150TIP3   OH275940   3.422   0.890  15.958  0.5703  0.1495 -0.0843
18150TIP3    H175941   3.382   0.860  16.039  1.8965  0.7006  0.8198
18150TIP3    H275942   3.373   0.846  15.889  0.2913 -1.4250  1.0579
18151TIP3   OH275943   2.956   1.678  12.316 -0.0332  0.0708 -0.1082
18151TIP3    H175944   2.910   1.716  12.391  0.7762  1.9152 -0.4947
18151TIP3    H275945   3.047   1.706  12.326 -0.0382  0.9878 -2.1458
18152TIP3   OH275946   5.006   4.451   4.254  0.6194  0.3756  0.2083
18152TIP3    H175947   4.948   4.526   4.261  0.1632  0.5132 -3.3925
18152TIP3    H275948   4.947   4.376   4.244  1.0915 -0.0212  0.3274
18153TIP3   OH275949   0.462   6.155  12.319  0.0033 -0.0413  0.0283
18153TIP3    H175950   0.387   6.165  12.261  1.2572 -0.6748 -1.8003
18153TIP3    H275951   0.453   6.226  12.383 -1.2341  0.9306 -1.1724
18154TIP3   OH275952   1.994   3.684  12.294  0.1891  0.3255 -0.4055
18154TIP3    H175953   2.031   3.771  12.282  0.4086  0.2127 -0.5536
18154TIP3    H275954   1.972   3.679  12.387 -1.2502  1.1011 -0.6777
18155TIP3   OH275955   1.795   2.015   0.679  0.5129  0.2896 -0.0718
18155TIP3    H175956   1.738   1.938   0.673  0.0138  0.6729 -0.3742
18155TIP3    H275957   1.825   2.030   0.589  1.2870 -0.0466  0.1206
18156TIP3   OH275958   5.124   4.239   5.214  0.0221 -0.2181 -0.3986
18156TIP3    H175959   5.113   4.164   5.273  2.3300 -0.3784 -0.0615
18156TIP3    H275960   5.092   4.314   5.264  0.2855 -0.6098  0.3782
18157TIP3   OH275961   2.653   4.572  11.390 -0.4890  0.8708  0.0527
18157TIP3    H175962   2.686   4.586  11.479 -2.4373  1.8483  0.6914
18157TIP3    H275963   2.594   4.646  11.374 -1.5461 -0.2013 -1.3668
18158TIP3   OH275964   1.536   2.702  15.890  0.0352  0.3869 -0.2710
18158TIP3    H175965   1.629   2.708  15.913  0.6059  0.3284 -2.3443
18158TIP3    H275966   1.500   2.788  15.909  0.6480  0.5962 -0.0462
18159TIP3   OH275967   5.673   2.061   6.321  0.0255  0.2515 -0.2433
18159TIP3    H175968   5.598   2.001   6.329 -0.1966  0.4007 -1.0666
18159TIP3    H275969   5.651   2.134   6.378  0.2677 -0.4100  0.7173
18160TIP3   OH275970   1.023   0.029   0.759 -0.0289  0.0665  0.1723
18160TIP3    H175971   1.005  -0.008   0.672  0.5585 -0.1335  0.1320
18160TIP3    H275972   1.106  -0.010   0.785  0.0769  0.5630  0.5854
18161TIP3   OH275973   2.732   0.196   2.862  0.2238  0.0457  0.3264
18161TIP3    H175974   2.687   0.120   2.899 -1.3486  0.2424 -1.0600
18161TIP3    H275975   2.754   0.170   2.773 -1.3386  1.5398 -0.5565
18162TIP3   OH275976   5.787   1.518  14.170  0.3935  0.0135  0.2200
18162TIP3    H175977   5.731   1.481  14.238  0.0007 -0.4864 -0.3660
18162TIP3    H275978   5.748   1.489  14.087  2.9847 -2.6621 -0.2349
18163TIP3   OH275979   4.335   5.574   0.574  0.0258  0.5070 -0.2254
18163TIP3    H175980   4.411   5.527   0.610 -0.6214  1.2466  2.3193
18163TIP3    H275981   4.373   5.648   0.527  0.9273  1.2784  1.6169
18164TIP3   OH275982   3.713   1.320  14.074  0.1404  0.3427 -0.4821
18164TIP3    H175983   3.731   1.242  14.127 -2.3616 -1.3159 -1.8575
18164TIP3    H275984   3.778   1.317  14.004  0.9149  0.2618  0.2331
18165TIP3   OH275985   5.723   6.769   3.995 -0.0143 -0.0118  0.2385
18165TIP3    H175986   5.633   6.740   4.010 -0.8463  1.5806 -1.3164
18165TIP3    H275987   5.772   6.737   4.072 -1.7104 -1.5889  0.7335
18166TIP3   OH275988   1.418   6.168  12.654  0.4018  0.7775  0.5175
18166TIP3    H175989   1.496   6.131  12.694  0.2737 -0.0984 -0.0199
18166TIP3    H275990   1.349   6.104  12.672  0.3116  0.4264 -0.9595
18167TIP3   OH275991   0.606   1.391  14.034  0.0112 -0.4365  0.4242
18167TIP3    H175992   0.597   1.306  13.991 -0.3943 -1.1814  1.9060
18167TIP3    H275993   0.539   1.391  14.102 -0.1296  1.1672  0.3375
18168TIP3   OH275994   1.844   0.915  10.178  0.7221 -0.3981 -0.7407
18168TIP3    H175995   1.775   0.950  10.235  1.2161 -0.2532 -0.2211
18168TIP3    H275996   1.903   0.869  10.237  0.7996 -0.9607 -1.2515
18169TIP3   OH275997   3.543   3.971  14.159  0.4229 -0.5036  0.5459
18169TIP3    H175998   3.496   3.905  14.210  1.0639 -1.2225  0.2206
18169TIP3    H275999   3.476   4.010  14.103 -0.3921  0.5884  2.1733
18170TIP3   OH276000   6.126   3.241  16.409  0.4717  0.5687  0.3329
18170TIP3    H176001   6.205   3.218  16.361  2.1918  1.1462  2.6700
18170TIP3    H276002   6.125   3.337  16.410 -0.3606  0.5639  0.1512
18171TIP3   OH276003   6.758   4.553  15.424  0.1906 -0.6463 -0.2644
18171TIP3    H176004   6.847   4.530  15.451 -0.2940 -0.0549  2.0590
18171TIP3    H276005   6.770   4.619  15.356  1.5142 -1.2046 -0.6062
18172TIP3   OH276006   6.123   1.358  16.739 -0.2693 -0.4978  0.1378
18172TIP3    H176007   6.107   1.429  16.801 -0.7833  2.1645 -2.7744
18172TIP3    H276008   6.209   1.378  16.703 -1.4292  0.1912 -2.4650
18173TIP3   OH276009   3.241   6.816   2.606 -0.4279 -0.2491 -0.0976
18173TIP3    H176010   3.304   6.888   2.601 -1.0400  0.2697 -0.4964
18173TIP3    H276011   3.294   6.738   2.616  0.3042  0.1202 -0.9895
18174TIP3   OH276012   1.038   3.153   4.905 -0.4002  0.1755 -0.2524
18174TIP3    H176013   1.065   3.115   4.821 -1.3656 -1.9236  0.3176
18174TIP3    H276014   1.099   3.116   4.969 -1.2611 -0.3331  0.2976
18175TIP3   OH276015   0.919   5.548  14.595  0.3813  0.2802  0.1557
18175TIP3    H176016   0.861   5.574  14.666 -0.0386  3.6107 -1.2181
18175TIP3    H276017   1.005   5.580  14.622  0.7566 -0.8146  0.2949
18176TIP3   OH276018   5.268   3.050   1.357  0.1911 -0.1197 -0.6689
18176TIP3    H176019   5.332   3.090   1.298  0.8937  1.2403  0.9395
18176TIP3    H276020   5.273   3.102   1.437  0.0402 -2.5329  1.0102
18177TIP3   OH276021   2.124   2.782  16.712 -0.4302 -0.2546  0.1748
18177TIP3    H176022   2.137   2.749  16.801  0.3448 -0.9391 -0.1846
18177TIP3    H276023   2.159   2.872  16.715  2.8970 -1.4034 -0.2790
18178TIP3   OH276024   2.615   2.128   5.681 -0.5099 -0.3832  0.4956
18178TIP3    H176025   2.612   2.206   5.736 -0.7176  0.7795 -1.1008
18178TIP3    H276026   2.617   2.161   5.592 -0.8412 -2.2184 -0.2447
18179TIP3   OH276027   4.391   5.114   0.242  0.5449 -0.0086 -0.0096
18179TIP3    H176028   4.338   5.068   0.306  0.2553 -0.8378 -0.8258
18179TIP3    H276029   4.460   5.156   0.293  0.0702 -0.3045  0.8803
18180TIP3   OH276030   1.510   0.472  16.479  0.1145  0.2253  0.4353
18180TIP3    H176031   1.449   0.418  16.529 -0.6498  0.7652  0.0896
18180TIP3    H276032   1.473   0.560  16.482  0.8676  0.5638  0.2065
18181TIP3   OH276033   4.738   4.918  15.211 -0.2224 -0.0104 -0.6050
18181TIP3    H176034   4.833   4.925  15.210 -0.1455 -1.0243 -0.7254
18181TIP3    H276035   4.709   4.977  15.141  0.1947  1.7452  0.6304
18182TIP3   OH276036   5.943   1.704  11.586  0.2746  0.6617 -0.2516
18182TIP3    H176037   5.984   1.751  11.659 -1.9480  0.7004  1.0484
18182TIP3    H276038   5.945   1.612  11.614 -0.1513  0.6160 -0.3721
18183TIP3   OH276039   1.162   2.921   1.809 -0.3836 -0.1155  0.1602
18183TIP3    H176040   1.067   2.913   1.812 -0.2903 -1.0236  1.0237
18183TIP3    H276041   1.192   2.881   1.890  0.5978  2.6134  1.2469
18184TIP3   OH276042   5.527   0.076   1.774  0.7749  0.6526 -0.2033
18184TIP3    H176043   5.549   0.168   1.787  1.3411  0.8469 -2.1990
18184TIP3    H276044   5.473   0.075   1.695 -1.3564 -0.4943  1.1745
18185TIP3   OH276045   2.487   6.399  14.849 -0.5358 -0.0172  0.6500
18185TIP3    H176046   2.431   6.440  14.783  2.8153  3.0873 -0.6059
18185TIP3    H276047   2.465   6.444  14.930 -2.1774 -1.3170  0.9752
18186TIP3   OH276048   3.208   5.338  14.978 -0.1066  0.0808 -0.0214
18186TIP3    H176049   3.222   5.303  14.889  0.1203 -0.0891  0.0797
18186TIP3    H276050   3.284   5.307  15.028  0.3647  1.1566 -0.0511
18187TIP3   OH276051   6.784   2.489  13.656  0.0314 -0.4508 -0.0389
18187TIP3    H176052   6.777   2.559  13.721 -1.9987 -1.8113  1.3232
18187TIP3    H276053   6.851   2.430  13.690  0.4622 -0.0948 -0.2647
18188TIP3   OH276054   5.573   4.392   6.565 -0.1654 -0.0686  0.5111
18188TIP3    H176055   5.561   4.298   6.575  1.5712 -0.2488  1.1761
18188TIP3    H276056   5.663   4.402   6.533 -0.6462  1.3255 -0.5479
18189TIP3   OH276057   1.731   6.620  14.470  0.1323 -0.5477  0.5181
18189TIP3    H176058   1.722   6.715  14.464  0.1522 -0.5748  0.0060
18189TIP3    H276059   1.650   6.586  14.432  0.9743 -0.7542 -1.2217
18190TIP3   OH276060   4.898   5.086   4.204  0.1936 -0.2611 -0.1141
18190TIP3    H176061   4.903   5.133   4.121  1.2719 -0.0148  0.0747
18190TIP3    H276062   4.873   4.997   4.180  0.2949 -0.1398 -0.6823
18191TIP3   OH276063   4.430   6.574  13.484 -0.0451 -0.5584 -0.0160
18191TIP3    H176064   4.471   6.597  13.400  0.1909 -0.5263  0.1077
18191TIP3    H276065   4.422   6.478  13.481  0.0573 -0.5661 -0.0303
18192TIP3   OH276066   4.044   3.374   0.147 -0.1733 -0.1841 -0.3918
18192TIP3    H176067   4.069   3.387   0.238 -1.1721  0.6008 -0.2179
18192TIP3    H276068   4.122   3.337   0.106  0.3418 -0.3814  0.7376
18193TIP3   OH276069   6.548   5.051  11.505 -0.7188 -0.3449  0.5469
18193TIP3    H176070   6.613   5.044  11.435 -1.9474 -1.5615 -0.5433
18193TIP3    H276071   6.507   5.136  11.491  0.4385  0.3296  1.0993
18194TIP3   OH276072   0.165   3.008  14.496  0.6639  0.2017 -0.2269
18194TIP3    H176073   0.136   2.942  14.559 -1.3149  1.7105  0.5662
18194TIP3    H276074   0.243   3.047  14.536 -0.3572  0.8943  1.1871
18195TIP3   OH276075   4.574   4.028  13.273  0.1742  0.3344  0.5877
18195TIP3    H176076   4.526   4.099  13.315  0.4524  1.1236 -0.3909
18195TIP3    H276077   4.661   4.033  13.311 -0.4723 -1.1223  2.3909
18196TIP3   OH276078   6.135   1.946   5.166  0.3521  0.1474 -0.0144
18196TIP3    H176079   6.112   1.855   5.181 -0.3675  0.0878 -1.3493
18196TIP3    H276080   6.052   1.993   5.165  0.7580  1.0272  1.6574
18197TIP3   OH276081   5.133   3.981  15.104 -0.0292 -0.2143 -0.2887
18197TIP3    H176082   5.073   4.055  15.099 -0.6771 -0.4743  2.1499
18197TIP3    H276083   5.218   4.016  15.075 -0.7419  0.8939 -1.1301
18198TIP3   OH276084   2.616   4.010  14.840 -0.3760  0.0138  0.2753
18198TIP3    H176085   2.591   4.098  14.813  0.1222  0.4678  1.2296
18198TIP3    H276086   2.533   3.965  14.854 -0.7054  1.0365  1.9251
18199TIP3   OH276087   0.175   4.558   6.063  0.0328  0.7504 -0.3752
18199TIP3    H176088   0.256   4.596   6.097 -0.3968  0.9314  0.4833
18199TIP3    H276089   0.180   4.570   5.968  0.5837  1.5924 -0.2463
18200TIP3   OH276090   2.279   6.138  16.768  0.5565  0.4144 -0.1004
18200TIP3    H176091   2.330   6.072  16.721  0.8756  0.0623  0.7180
18200TIP3    H276092   2.283   6.215  16.712 -1.3701 -0.7481 -1.9952
18201TIP3   OH276093   0.680   2.524  14.909  0.4585  0.1579  0.0380
18201TIP3    H176094   0.720   2.566  14.985 -0.4278  1.1295 -0.0024
18201TIP3    H276095   0.595   2.567  14.901  0.0497 -0.7803 -0.7854
18202TIP3   OH276096   6.573   0.632   0.450  0.1209  0.0441  0.2020
18202TIP3    H176097   6.595   0.640   0.543  0.8689  1.2825 -0.0559
18202TIP3    H276098   6.484   0.667   0.442 -0.3034 -0.9312  0.5868
18203TIP3   OH276099   5.929   4.329   1.347 -0.2282 -0.5362 -0.3214
18203TIP3    H176100   5.919   4.292   1.434 -1.4045  0.9576  0.2131
18203TIP3    H276101   5.903   4.258   1.288  1.9598 -2.0700  0.3947
18204TIP3   OH276102   2.841   0.566  15.186  0.2810 -0.3079  0.7249
18204TIP3    H176103   2.883   0.497  15.136  0.2148 -0.9620  1.5430
18204TIP3    H276104   2.752   0.570  15.152  0.1581 -0.9254  0.9631
18205TIP3   OH276105   5.220   3.760   5.369 -0.6637 -0.0264 -0.4258
18205TIP3    H176106   5.186   3.671   5.379 -0.1907 -0.1301  0.3300
18205TIP3    H276107   5.236   3.790   5.458  0.3093  0.3741 -0.7225
18206TIP3   OH276108   0.146   3.442   6.608 -0.3650  0.4227  0.1230
18206TIP3    H176109   0.197   3.477   6.536  1.4465 -1.6157  0.3133
18206TIP3    H276110   0.184   3.356   6.625 -3.8879 -1.3053  0.2748
18207TIP3   OH276111   4.202   2.915  16.002  0.0885  0.2121 -0.8461
18207TIP3    H176112   4.193   3.009  15.988 -0.1452  0.2768 -0.2812
18207TIP3    H276113   4.125   2.890  16.052  1.0427  0.0522  0.5863
18208TIP3   OH276114   6.246   1.624   1.552 -0.2329 -0.4285  0.6499
18208TIP3    H176115   6.176   1.609   1.615  0.1503 -0.3397  1.1016
18208TIP3    H276116   6.326   1.605   1.601  0.1752  1.3423  0.7250
18209TIP3   OH276117   1.903   2.586  13.300  0.3037 -0.5863  0.6676
18209TIP3    H176118   1.974   2.586  13.365 -0.0276  0.7300  1.0480
18209TIP3    H276119   1.828   2.625  13.346 -0.0072  0.1596 -0.4374
18210TIP3   OH276120   2.535   5.590   1.787  0.2219  0.0054 -0.3926
18210TIP3    H176121   2.576   5.560   1.869  0.5878  0.3951 -0.4282
18210TIP3    H276122   2.561   5.682   1.780  1.6864 -0.4745 -1.8400
18211TIP3   OH276123   0.080   4.001   4.081 -0.3143  0.0391 -0.0513
18211TIP3    H176124   0.062   3.907   4.091  1.3896 -0.4511 -1.0636
18211TIP3    H276125   0.163   4.004   4.033  0.3205  2.0778  1.0672
18212TIP3   OH276126   2.617   5.872   1.880 -0.2079  0.2879 -0.4916
18212TIP3    H176127   2.622   5.890   1.974  0.6422 -1.6291 -0.1219
18212TIP3    H276128   2.693   5.917   1.843  0.0575  0.1702 -0.0922
18213TIP3   OH276129   4.731   5.065  12.263 -0.3052  0.1791 -0.1972
18213TIP3    H176130   4.813   5.095  12.304 -0.4338 -0.5710  0.6581
18213TIP3    H276131   4.758   5.032  12.177  0.1438  0.7864 -0.2987
18214TIP3   OH276132   5.964   2.871  11.254 -0.1275 -0.0435  0.1081
18214TIP3    H176133   5.926   2.838  11.172  0.3394  0.7538 -0.4410
18214TIP3    H276134   5.930   2.812  11.321  0.8680 -1.8032 -0.8477
18215TIP3   OH276135   1.838   6.788   5.766  0.1383 -0.1749  0.5645
18215TIP3    H176136   1.921   6.745   5.746  1.0806  0.2926  3.0784
18215TIP3    H276137   1.816   6.757   5.854 -1.5428  0.9380  0.5825
18216TIP3   OH276138   0.165   4.533   1.650  0.4570 -0.0636  0.0869
18216TIP3    H176139   0.244   4.489   1.679  0.9990  1.6316  1.3324
18216TIP3    H276140   0.119   4.468   1.597  1.6119 -1.8087  1.1323
18217TIP3   OH276141   3.369   4.689  15.995  0.0094 -0.0843  0.7503
18217TIP3    H176142   3.306   4.657  15.931  0.0444 -2.4702  1.8283
18217TIP3    H276143   3.316   4.742  16.055 -0.7183 -0.8862  0.8400
18218TIP3   OH276144   1.952   4.720   4.654 -0.9207 -0.3223  0.4949
18218TIP3    H176145   2.016   4.688   4.591 -1.4625 -0.2672 -0.0951
18218TIP3    H276146   1.966   4.815   4.656  0.1348 -0.4804  1.6315
18219TIP3   OH276147   4.926   0.728  15.859 -0.3994  0.3637  0.2931
18219TIP3    H176148   4.943   0.817  15.890 -0.1412  0.3897  0.0783
18219TIP3    H276149   4.907   0.679  15.939  0.4812  0.3788  0.5256
18220TIP3   OH276150   3.034   5.501  11.614 -0.0866  0.0297  0.1235
18220TIP3    H176151   2.945   5.511  11.583 -0.5111 -1.1374  0.9051
18220TIP3    H276152   3.058   5.411  11.592 -0.0456 -0.5095  2.2030
18221TIP3   OH276153   0.659   1.478   5.695 -0.0598 -0.3699 -0.3056
18221TIP3    H176154   0.594   1.517   5.754  1.3283 -0.0639  1.0766
18221TIP3    H276155   0.630   1.388   5.683 -0.8980 -0.1573  0.0453
18222TIP3   OH276156   1.501   6.079  13.984 -0.4882 -0.0387 -0.3574
18222TIP3    H176157   1.414   6.064  14.021 -1.0577  0.4872 -1.4598
18222TIP3    H276158   1.491   6.063  13.891  0.7274 -0.4678 -0.4383
18223TIP3   OH276159   3.557   5.099   1.649 -0.1086  0.0553  0.5461
18223TIP3    H176160   3.482   5.147   1.684 -0.0828  1.1995 -0.8799
18223TIP3    H276161   3.557   5.120   1.556  2.0951  0.2583  0.5442
18224TIP3   OH276162   6.566   5.675  12.037  0.1350  0.1871  0.8119
18224TIP3    H176163   6.486   5.633  12.068 -0.5236  0.9960  0.2533
18224TIP3    H276164   6.611   5.705  12.116  0.9767 -2.1362  1.2874
18225TIP3   OH276165   5.763   5.324   6.000 -0.1832 -0.4738  0.6861
18225TIP3    H176166   5.682   5.353   5.958  1.4609  0.5661 -2.1129
18225TIP3    H276167   5.739   5.246   6.050 -2.8219 -0.3800 -0.3077
18226TIP3   OH276168   4.580   1.510   4.982  0.7838 -0.1372 -0.4975
18226TIP3    H176169   4.515   1.574   4.953  0.5315 -0.5425 -0.8503
18226TIP3    H276170   4.589   1.525   5.076 -0.0495 -0.2811 -0.3933
18227TIP3   OH276171   3.381   2.345   0.756 -0.5474  0.6238 -0.1754
18227TIP3    H176172   3.335   2.273   0.713 -0.9579  0.4327  0.5682
18227TIP3    H276173   3.473   2.319   0.753 -0.8891 -1.2391  2.3856
18228TIP3   OH276174   5.508   4.122   4.545  0.1889  0.6009 -0.0765
18228TIP3    H176175   5.568   4.066   4.496  0.8280  1.3558 -0.1704
18228TIP3    H276176   5.539   4.211   4.529  0.0213  0.9045  1.1915
18229TIP3   OH276177   0.271   4.094  13.545 -0.2336 -0.4661  0.3661
18229TIP3    H176178   0.334   4.167  13.539  0.8103 -1.3969 -0.5696
18229TIP3    H276179   0.280   4.062  13.635 -1.0164  0.7843  0.9309
18230TIP3   OH276180   4.380   4.098  16.595 -0.1541  0.0393  0.2775
18230TIP3    H176181   4.430   4.055  16.664 -1.0787  0.1481  1.0498
18230TIP3    H276182   4.297   4.121  16.637 -0.4190  0.8515 -0.6492
18231TIP3   OH276183   5.484   5.454  15.164 -0.2536  0.5446 -0.7219
18231TIP3    H176184   5.494   5.543  15.131  0.6067  0.4105 -0.8309
18231TIP3    H276185   5.568   5.413  15.149 -0.0434  0.2566  0.9918
18232TIP3   OH276186   5.098   1.677   0.217  0.2841  0.3221  0.8201
18232TIP3    H176187   5.054   1.758   0.193 -2.4691 -1.0437  0.8727
18232TIP3    H276188   5.091   1.621   0.139 -1.6704 -1.2999  2.0481
18233TIP3   OH276189   0.873   5.392   2.666 -0.6066 -0.0495  0.0589
18233TIP3    H176190   0.831   5.403   2.751  0.3204 -2.7226  0.9789
18233TIP3    H276191   0.963   5.422   2.679 -0.2920 -1.0346  0.2402
18234TIP3   OH276192   6.614   5.440  16.947 -0.0916  0.5424 -0.0950
18234TIP3    H176193   6.588   5.489  16.869 -0.0715  1.0056  0.1875
18234TIP3    H276194   6.689   5.488  16.982 -2.1617  2.3943  2.1610
18235TIP3   OH276195   5.525   4.881   5.689 -0.1815 -0.9612  0.3339
18235TIP3    H176196   5.592   4.848   5.629 -1.9751 -0.8896 -1.8801
18235TIP3    H276197   5.562   4.961   5.726  1.0697 -1.0942 -0.5830
18236TIP3   OH276198   6.269   2.501  15.341  0.0296  0.4506  0.3940
18236TIP3    H176199   6.307   2.432  15.396  0.3427  1.4351  1.4516
18236TIP3    H276200   6.320   2.579  15.363 -0.8052  1.1859 -0.2275
18237TIP3   OH276201   6.634   4.844   2.498  0.5770 -0.4660 -0.6396
18237TIP3    H176202   6.724   4.861   2.468  0.3515 -0.0316 -1.0694
18237TIP3    H276203   6.584   4.831   2.418  0.3739 -1.3535 -0.3833
18238TIP3   OH276204   4.007   2.243  16.733 -0.1155  0.1774 -0.9611
18238TIP3    H176205   4.096   2.255  16.767  0.2912  1.9223 -2.4945
18238TIP3    H276206   3.978   2.160  16.772  2.2276 -0.5240 -0.5263
18239TIP3   OH276207   1.335   0.095   5.522  0.2768  0.4438 -0.2228
18239TIP3    H176208   1.361   0.020   5.576 -0.0638  1.3949  1.3123
18239TIP3    H276209   1.297   0.055   5.443  1.1325 -0.9788  0.0387
18240TIP3   OH276210   4.120   0.327   0.757 -0.1141 -0.0470  0.6962
18240TIP3    H176211   4.040   0.361   0.798 -0.4208  0.7929 -0.5362
18240TIP3    H276212   4.090   0.261   0.695  0.0563  0.7985 -0.3147
18241TIP3   OH276213   6.507   5.082   2.289 -0.3668 -0.0643 -0.4228
18241TIP3    H176214   6.433   5.129   2.251  0.4881  0.7886 -1.0883
18241TIP3    H276215   6.543   5.030   2.217 -1.4889 -2.0594  0.3786
18242TIP3   OH276216   2.174   2.609  16.915  0.3865 -0.4611 -0.0983
18242TIP3    H176217   2.210   2.551  16.848  2.2698  0.5308 -0.0116
18242TIP3    H276218   2.223   2.587  16.995 -0.7933 -0.6147  0.6017
18243TIP3   OH276219   4.735   1.656  13.060 -0.3195  0.1396  0.9351
18243TIP3    H176220   4.802   1.600  13.099  0.4091  2.5012  3.3698
18243TIP3    H276221   4.679   1.681  13.134 -2.0369  0.7491 -0.4915
18244TIP3   OH276222   6.352   5.110   4.782 -0.1878 -0.5811 -0.1550
18244TIP3    H176223   6.444   5.116   4.755 -0.8867  0.0330 -2.6486
18244TIP3    H276224   6.348   5.158   4.865  1.9208 -1.6549  0.6452
18245TIP3   OH276225   0.058   1.194   5.376 -0.0217  0.3948  0.5928
18245TIP3    H176226   0.023   1.278   5.405 -1.7244  1.3632 -3.5862
18245TIP3    H276227   0.149   1.212   5.353 -0.3567  1.1146 -0.2143
18246TIP3   OH276228   3.261   5.900   1.696 -0.1333 -0.0627  0.0920
18246TIP3    H176229   3.349   5.888   1.731  0.2073  0.4559 -0.5582
18246TIP3    H276230   3.227   5.977   1.741  0.1545  0.3693 -0.4215
18247TIP3   OH276231   2.500   0.102   5.550 -0.0560  0.5090 -0.1677
18247TIP3    H176232   2.515   0.185   5.504 -2.3297  1.7979  1.2186
18247TIP3    H276233   2.527   0.120   5.640 -2.3374  0.4198  0.5850
18248TIP3   OH276234   5.452   3.742   2.092 -0.0907  0.5853  0.1578
18248TIP3    H176235   5.446   3.647   2.092  1.3748  0.4703  0.3390
18248TIP3    H276236   5.363   3.772   2.109 -0.7556 -0.7226 -0.8710
18249TIP3   OH276237   2.429   6.771  13.449  0.1629 -0.4055  0.0021
18249TIP3    H176238   2.360   6.718  13.489 -1.8058  1.2955 -0.9328
18249TIP3    H276239   2.395   6.860  13.451  1.7391  0.3058 -1.7953
18250TIP3   OH276240   5.144   3.694   4.570 -0.0373  0.0173 -0.2342
18250TIP3    H176241   5.126   3.728   4.658 -2.2346  2.6613 -1.5688
18250TIP3    H276242   5.216   3.748   4.538  1.2712 -1.4377  0.1191
18251TIP3   OH276243   3.228   2.699  15.688  0.4055  0.0255 -0.2540
18251TIP3    H176244   3.252   2.611  15.659  0.1553 -0.5759  1.2679
18251TIP3    H276245   3.199   2.687  15.778 -2.4184  1.2098 -0.9074
18252TIP3   OH276246   4.182   2.038   1.663 -0.6630  0.2021  0.1874
18252TIP3    H176247   4.185   1.985   1.743 -0.7603 -0.2714 -0.1231
18252TIP3    H276248   4.260   2.094   1.669 -0.0695 -0.5898  0.1010
18253TIP3   OH276249   6.219   0.258   1.998 -0.0938 -0.1522 -0.2592
18253TIP3    H176250   6.131   0.236   2.028 -0.5456  0.0407 -1.3729
18253TIP3    H276251   6.246   0.183   1.946 -0.0630  0.2550 -0.8429
18254TIP3   OH276252   4.216   3.637   1.797  0.5556  0.2107 -0.0066
18254TIP3    H176253   4.194   3.607   1.708 -1.9463 -1.2371  1.0072
18254TIP3    H276254   4.191   3.730   1.797  1.6512  0.5414 -1.0953
18255TIP3   OH276255   6.573   4.216   5.290 -0.0390  0.0986  0.2234
18255TIP3    H176256   6.538   4.214   5.380 -2.8776  0.3886 -0.7723
18255TIP3    H276257   6.570   4.124   5.262  1.1008 -0.0280  0.4974
18256TIP3   OH276258   4.021   5.110  15.356 -0.0823 -0.0159  0.1299
18256TIP3    H176259   4.050   5.096  15.266 -0.3548 -1.1428  0.2061
18256TIP3    H276260   4.069   5.046  15.408 -0.6940 -0.0820  0.6349
18257TIP3   OH276261   1.680   2.349  12.303  0.1909  0.0111 -0.1530
18257TIP3    H176262   1.733   2.373  12.380  3.1124 -0.8043 -1.7750
18257TIP3    H276263   1.664   2.433  12.259 -1.2431  0.4464  1.1131
18258TIP3   OH276264   1.107   5.031   5.550 -0.0295 -0.1364 -0.4135
18258TIP3    H176265   1.066   4.945   5.550 -0.5498  0.0992 -1.3207
18258TIP3    H276266   1.061   5.080   5.482  1.5805  0.2250 -1.3148
18259TIP3   OH276267   0.541   4.410  13.748  0.4974  0.3648 -0.9149
18259TIP3    H176268   0.500   4.382  13.830 -1.7274  3.4194 -0.8115
18259TIP3    H276269   0.514   4.343  13.684 -1.6023  0.2898 -0.0481
18260TIP3   OH276270   4.175   1.209   4.326 -0.0589  0.2374 -0.3344
18260TIP3    H176271   4.236   1.147   4.286 -0.9486 -0.2445 -0.9864
18260TIP3    H276272   4.176   1.186   4.419  0.6825  0.1793 -0.3527
18261TIP3   OH276273   2.907   0.600  16.678 -0.3894  0.2845  0.2856
18261TIP3    H176274   2.858   0.521  16.698 -2.0674  0.9512 -0.9468
18261TIP3    H276275   2.908   0.603  16.582  3.3271 -0.4080  0.1345
18262TIP3   OH276276   1.551   5.705  13.663  0.6647 -0.8194 -0.0034
18262TIP3    H176277   1.479   5.760  13.631  0.3902 -0.8416  0.5600
18262TIP3    H276278   1.626   5.764  13.668  0.9943 -1.0556 -1.6811
18263TIP3   OH276279   2.221   0.195   1.513  0.1157 -0.7766 -0.3825
18263TIP3    H176280   2.145   0.214   1.458 -2.1317 -0.6143  2.5506
18263TIP3    H276281   2.265   0.122   1.469 -1.7142 -0.8779 -2.1858
18264TIP3   OH276282   3.091   6.439   2.940  0.1014 -0.1225  0.5993
18264TIP3    H176283   3.059   6.525   2.915  0.1940 -0.1135  0.5120
18264TIP3    H276284   3.021   6.402   2.995 -0.0220 -0.0691  0.4798
18265TIP3   OH276285   3.308   3.537  13.121 -0.0550 -0.1211  0.0539
18265TIP3    H176286   3.334   3.534  13.214  1.4507 -0.2685 -0.3450
18265TIP3    H276287   3.290   3.629  13.104  1.1187  0.1319  0.1262
18266TIP3   OH276288   3.530   2.041  17.180 -0.4144 -0.2489 -0.4855
18266TIP3    H176289   3.539   2.027  17.274  0.3242  1.1735 -0.3111
18266TIP3    H276290   3.508   2.134  17.172 -0.0714 -0.2548 -1.7450
18267TIP3   OH276291   1.011   4.616   4.967  0.3125  0.1105 -0.9539
18267TIP3    H176292   0.952   4.675   5.014  0.9266 -0.6215  0.8500
18267TIP3    H276293   1.088   4.609   5.024  0.4992 -1.9550 -1.3587
18268TIP3   OH276294   4.795   4.121   2.023  0.8797  0.1298 -0.5947
18268TIP3    H176295   4.866   4.145   2.082 -0.0156 -0.6482  0.8485
18268TIP3    H276296   4.733   4.194   2.028  0.6283 -0.1006 -0.2570
18269TIP3   OH276297   5.004   2.878   3.376 -0.3264 -0.0459 -0.4296
18269TIP3    H176298   5.044   2.932   3.308  2.6882 -1.2294  0.2231
18269TIP3    H276299   4.975   2.799   3.330  1.3457 -0.6689 -0.5089
18270TIP3   OH276300   3.788   1.507   6.619 -0.4702 -0.5789  0.0541
18270TIP3    H176301   3.858   1.543   6.564 -0.5838  0.7354  0.7256
18270TIP3    H276302   3.829   1.434   6.664  0.3802 -0.0532  0.1680
18271TIP3   OH276303   5.938   5.915   5.747 -0.2071  0.1418 -0.6197
18271TIP3    H176304   5.948   5.821   5.756  0.9421  0.3828  1.0224
18271TIP3    H276305   6.003   5.952   5.806 -2.6548  1.9428  1.1666
18272TIP3   OH276306   6.104   0.700   0.236  0.3272 -0.0688  0.0215
18272TIP3    H176307   6.091   0.794   0.230  0.7222 -0.0712 -1.0633
18272TIP3    H276308   6.175   0.689   0.299  1.4710  0.4651 -1.1525
18273TIP3   OH276309   5.448   1.842  11.526 -0.2805 -0.2795 -0.5056
18273TIP3    H176310   5.442   1.920  11.472 -4.1182  0.9487  1.3074
18273TIP3    H276311   5.448   1.769  11.464 -1.6254  1.1106 -2.2349
18274TIP3   OH276312   2.263   3.814   4.176  0.2501  0.1628  0.2078
18274TIP3    H176313   2.259   3.847   4.266 -1.2451  1.3050 -0.2219
18274TIP3    H276314   2.292   3.724   4.184 -0.0966  0.1708  1.8623
18275TIP3   OH276315   6.164   2.293  13.365 -0.2872  0.2283 -0.1182
18275TIP3    H176316   6.207   2.208  13.362  1.5796  1.1260 -3.1192
18275TIP3    H276317   6.072   2.274  13.343 -0.5457 -1.2100  1.9184
18276TIP3   OH276318   6.145   2.179   5.404  0.7687  0.1305  0.6729
18276TIP3    H176319   6.128   2.202   5.496 -1.5661 -2.2630  0.9719
18276TIP3    H276320   6.105   2.249   5.354 -0.7572 -0.0721  1.5333
18277TIP3   OH276321   3.000   3.551   4.824 -0.3859  0.3154  0.4835
18277TIP3    H176322   3.026   3.642   4.839 -1.3913  0.8885 -1.0002
18277TIP3    H276323   3.083   3.504   4.813  0.1507  1.6060 -1.5375
18278TIP3   OH276324   1.431   5.077   1.051 -0.0756  0.4743 -0.5480
18278TIP3    H176325   1.470   5.005   1.002 -1.9992 -0.2402 -1.1398
18278TIP3    H276326   1.484   5.083   1.131 -0.3183 -2.1807 -0.0685
18279TIP3   OH276327   4.877   4.427  14.475 -0.0546  0.6107  0.1467
18279TIP3    H176328   4.831   4.404  14.555 -1.1043 -1.5992 -0.9868
18279TIP3    H276329   4.969   4.437  14.501 -0.1212 -1.5572  1.4200
18280TIP3   OH276330   1.302   3.851  13.151  0.7647 -0.3018  0.6186
18280TIP3    H176331   1.235   3.903  13.196 -4.0131 -1.8918 -3.6952
18280TIP3    H276332   1.311   3.772  13.203 -0.0097  0.3539  1.7788
18281TIP3   OH276333   1.916   2.783  13.080 -0.7643  1.1455 -0.4544
18281TIP3    H176334   1.918   2.700  13.127 -1.4702  1.0329 -0.6055
18281TIP3    H276335   1.982   2.837  13.123  0.5699  0.1159 -1.1075
18282TIP3   OH276336   0.382   5.094   0.394 -0.3309  0.0704  0.6785
18282TIP3    H176337   0.391   5.181   0.432 -0.5023 -0.0024  0.8865
18282TIP3    H276338   0.288   5.077   0.394 -0.2859 -0.1873  0.8029
18283TIP3   OH276339   0.737   5.589   1.336  0.0950 -0.5961  0.0660
18283TIP3    H176340   0.809   5.561   1.393  0.6981 -1.0733 -0.8994
18283TIP3    H276341   0.758   5.550   1.251 -0.3043  0.8145 -0.7149
18284TIP3   OH276342   4.348   3.893  16.092 -0.2583 -0.4257  0.1713
18284TIP3    H176343   4.405   3.969  16.107 -1.6702  0.5577  0.7243
18284TIP3    H276344   4.406   3.828  16.053  1.4571  0.1962  1.5590
18285TIP3   OH276345   0.066   5.986  10.583 -0.4458 -0.6110 -0.0509
18285TIP3    H176346   0.085   6.047  10.512  0.1337 -0.1337  0.5061
18285TIP3    H276347   0.021   6.039  10.649 -1.6221 -1.2056 -0.3365
18286TIP3   OH276348   3.661   1.103   6.164 -0.2181 -0.4933 -0.2293
18286TIP3    H176349   3.686   1.187   6.128 -0.4540 -0.1087  0.4785
18286TIP3    H276350   3.699   1.102   6.252 -0.7129 -0.8679 -0.0100
18287TIP3   OH276351   0.055   5.588  12.500 -0.2353 -0.4420  0.0696
18287TIP3    H176352   0.077   5.559  12.411 -0.0794  0.0075 -0.0410
18287TIP3    H276353  -0.037   5.615  12.493  0.4634  1.9971 -0.5989
18288TIP3   OH276354   1.942   0.529   3.568  0.1141  0.3081  0.0082
18288TIP3    H176355   1.928   0.443   3.529  0.9041 -0.3913  1.2096
18288TIP3    H276356   2.035   0.530   3.592 -0.3884  0.5485  2.1702
18289TIP3   OH276357   4.787   1.388  15.833 -0.6673 -0.1851 -0.1799
18289TIP3    H176358   4.730   1.354  15.901 -1.7420 -0.4274 -1.1729
18289TIP3    H276359   4.813   1.475  15.864 -0.6478 -0.5382  0.8018
18290TIP3   OH276360   5.645   0.750   4.309  0.2561 -0.5480 -0.1803
18290TIP3    H176361   5.584   0.695   4.358 -1.9099  0.3283 -1.7239
18290TIP3    H276362   5.651   0.830   4.360 -2.7019  0.7244 -1.5830
18291TIP3   OH276363   3.571   2.178  11.792  0.6810  0.0151 -0.0846
18291TIP3    H176364   3.580   2.093  11.749  1.4520 -0.5782  1.1974
18291TIP3    H276365   3.477   2.193  11.797  0.5628  0.3571 -2.4089
18292TIP3   OH276366   6.768   6.438  11.771  0.2363 -0.5541 -0.1537
18292TIP3    H176367   6.767   6.359  11.825  0.7904 -1.0248 -0.7995
18292TIP3    H276368   6.783   6.509  11.833  2.1852 -1.2086  0.2147
18293TIP3   OH276369   5.074   5.286  11.886 -0.2621  0.3077  0.3254
18293TIP3    H176370   5.056   5.193  11.896 -1.7090  0.4834 -0.3605
18293TIP3    H276371   5.073   5.320  11.976 -2.0047  0.0190  0.4563
18294TIP3   OH276372   4.775   5.835   3.971 -0.3342  0.1199  0.4367
18294TIP3    H176373   4.705   5.893   4.001 -1.6452 -1.0939 -0.1378
18294TIP3    H276374   4.841   5.839   4.041 -1.2122  0.9004  1.2463
18295TIP3   OH276375   2.317   6.571  11.991 -0.0173 -0.0263  0.5996
18295TIP3    H176376   2.226   6.597  11.978  0.1041 -0.2688 -0.9637
18295TIP3    H276377   2.365   6.654  11.993 -0.1786  0.0703  0.5140
18296TIP3   OH276378   6.047   6.165  13.208  1.0613 -0.4646  0.7960
18296TIP3    H176379   6.011   6.078  13.226  1.0670 -0.2660  1.8322
18296TIP3    H276380   6.142   6.152  13.205  1.0605 -1.3665 -3.8819
18297TIP3   OH276381   1.771   1.522  11.101  0.0733  0.2037  0.3372
18297TIP3    H176382   1.819   1.605  11.098 -1.4667  1.1082 -0.4131
18297TIP3    H276383   1.689   1.539  11.054 -1.2674 -1.1105  2.0635
18298TIP3   OH276384   1.921   1.516   4.138 -0.7345  0.1540  0.1360
18298TIP3    H176385   1.845   1.504   4.196 -0.7080  3.1537  0.9511
18298TIP3    H276386   1.996   1.494   4.192 -0.8743 -2.3925 -0.5422
18299TIP3   OH276387   5.060   3.295  12.449 -0.0111  0.4097 -0.0561
18299TIP3    H176388   5.123   3.346  12.500 -1.2995  2.8414 -0.7403
18299TIP3    H276389   5.112   3.225  12.410  1.5462  0.1955  2.2227
18300TIP3   OH276390   6.075   2.825  14.133 -0.6551  0.5485  0.0738
18300TIP3    H176391   6.037   2.747  14.172 -1.3224  1.0516  0.4556
18300TIP3    H276392   6.001   2.870  14.093 -0.3039  1.0790  0.0090
18301TIP3   OH276393   1.269   1.298   3.808 -0.2444 -0.2407  0.2168
18301TIP3    H176394   1.280   1.325   3.899  0.6694  2.1518 -0.5457
18301TIP3    H276395   1.295   1.206   3.807 -1.3366 -0.6349  2.5552
18302TIP3   OH276396   1.875   1.819  13.451 -0.5899 -0.0251 -0.0021
18302TIP3    H176397   1.859   1.863  13.535 -0.9629  1.0123 -0.5918
18302TIP3    H276398   1.969   1.803  13.450 -0.4487  0.7241  0.2704
18303TIP3   OH276399   6.801   2.467   1.930  0.1508 -0.5443  0.2629
18303TIP3    H176400   6.846   2.509   1.858 -0.6849  1.6643  0.9461
18303TIP3    H276401   6.842   2.503   2.009 -1.7293  0.3828  0.8808
18304TIP3   OH276402   0.009   2.215   5.154 -0.2786  0.7345  0.1138
18304TIP3    H176403  -0.068   2.267   5.130  0.5536  1.1936 -1.6668
18304TIP3    H276404   0.031   2.166   5.075  1.2396  0.5609  0.6101
18305TIP3   OH276405   2.994   1.762   3.974 -0.0193 -0.2795  0.2149
18305TIP3    H176406   3.032   1.792   3.891 -0.6410  1.7409  0.6216
18305TIP3    H276407   2.974   1.842   4.022  0.1409 -1.4076  2.2644
18306TIP3   OH276408   6.396   5.177   6.508  0.2041 -0.2802 -0.2353
18306TIP3    H176409   6.417   5.190   6.415  0.7405  0.8447  0.0300
18306TIP3    H276410   6.409   5.263   6.548 -1.2122 -0.4669  0.6750
18307TIP3   OH276411   4.611   0.331   4.278 -0.0318 -0.1708 -0.3998
18307TIP3    H176412   4.695   0.353   4.237 -0.0269  0.5938  0.0038
18307TIP3    H276413   4.635   0.278   4.354  0.0872  0.0715 -0.2676
18308TIP3   OH276414   3.382   0.600   1.142 -0.1693  0.2197  0.2687
18308TIP3    H176415   3.419   0.688   1.141 -0.4321  0.3301 -0.3087
18308TIP3    H276416   3.445   0.547   1.191 -0.7226  1.0268  1.9017
18309TIP3   OH276417   0.195   1.546  15.427  0.0013  0.1701 -0.5223
18309TIP3    H176418   0.163   1.478  15.486  0.2745 -0.8607 -1.5338
18309TIP3    H276419   0.218   1.619  15.485 -0.5347 -0.4988  0.5588
18310TIP3   OH276420   4.275   6.028   0.237 -0.0700 -0.1667  0.1535
18310TIP3    H176421   4.190   6.069   0.226  0.5311  0.8621 -0.8377
18310TIP3    H276422   4.261   5.960   0.303 -2.0029 -1.0759 -1.1131
18311TIP3   OH276423   0.200   5.419  14.396 -0.0992 -0.0089  0.2380
18311TIP3    H176424   0.160   5.475  14.330  0.1104  1.3441  1.2119
18311TIP3    H276425   0.138   5.420  14.469 -0.4541 -1.6949  0.0036
18312TIP3   OH276426   6.314   0.837   5.468  0.3581 -0.0321 -0.9133
18312TIP3    H176427   6.387   0.788   5.506  0.8553  1.2969 -0.0672
18312TIP3    H276428   6.236   0.795   5.503  0.7831  0.3270  0.5583
18313TIP3   OH276429   4.640   2.331  12.941 -0.6354 -0.1124 -0.2584
18313TIP3    H176430   4.699   2.349  12.869 -1.6733 -1.7147 -1.6003
18313TIP3    H276431   4.661   2.397  13.007 -0.5008  2.2640 -2.5062
18314TIP3   OH276432   4.791   2.954   4.498  0.2879  0.2168  0.0107
18314TIP3    H176433   4.716   2.902   4.526  0.0444  0.1946 -0.6599
18314TIP3    H276434   4.853   2.890   4.463  1.2966  0.0547  1.9277
18315TIP3   OH276435   5.767   3.630  11.111 -0.2485  0.2843 -0.3970
18315TIP3    H176436   5.805   3.558  11.162  0.0644  0.7095 -0.0196
18315TIP3    H276437   5.673   3.612  11.109 -0.0065 -1.1550 -1.9042
18316TIP3   OH276438   0.468   0.816  16.224  0.0332 -0.1992 -0.0646
18316TIP3    H176439   0.532   0.844  16.159  0.1176 -0.0131  0.0990
18316TIP3    H276440   0.410   0.756  16.176 -0.1762  0.2820 -0.4259
18317TIP3   OH276441   4.879   2.317  11.981 -0.0681 -0.1213  0.1357
18317TIP3    H176442   4.785   2.310  11.964 -0.5767  0.1466  2.4966
18317TIP3    H276443   4.918   2.325  11.894 -2.4092  2.0684 -0.8703
18318TIP3   OH276444   1.396   2.662  11.621  0.2068 -0.7562 -0.2513
18318TIP3    H176445   1.480   2.626  11.649  0.8971  0.2168 -0.9793
18318TIP3    H276446   1.383   2.626  11.533  0.3462 -0.1765 -0.5198
18319TIP3   OH276447   2.098   4.404  16.538 -0.5882  0.1737 -0.1985
18319TIP3    H176448   2.099   4.414  16.443 -1.2796 -2.6909 -0.6042
18319TIP3    H276449   2.093   4.309  16.552  1.0432  0.4031  2.7292
18320TIP3   OH276450   2.616   4.098   3.832  0.7150 -0.1557 -0.1705
18320TIP3    H176451   2.579   4.032   3.890 -1.4826 -0.0105 -1.3079
18320TIP3    H276452   2.635   4.173   3.889 -2.1159  0.2837  0.3593
18321TIP3   OH276453   3.317   4.770   4.747  0.5540 -0.2337 -0.2220
18321TIP3    H176454   3.330   4.690   4.695  1.2132 -0.2934  0.0253
18321TIP3    H276455   3.329   4.841   4.684  4.3189 -0.1872  0.3246
18322TIP3   OH276456   5.874   6.313  14.304 -0.4618 -0.2567  0.1177
18322TIP3    H176457   5.794   6.342  14.261 -2.2649 -3.9200  0.6045
18322TIP3    H276458   5.851   6.309  14.397  0.9703  0.4495  0.5359
18323TIP3   OH276459   2.928   2.885  13.071  0.1481 -0.3284 -0.1777
18323TIP3    H176460   2.904   2.966  13.027  0.0793  0.1385  0.7117
18323TIP3    H276461   3.023   2.892  13.082 -0.1327  0.6988  1.9585
18324TIP3   OH276462   4.165   1.978  13.843  0.1115 -0.1758 -0.1505
18324TIP3    H176463   4.075   1.968  13.872  0.1718  0.3136  0.2113
18324TIP3    H276464   4.179   1.906  13.781 -0.9258  0.4961 -1.2035
18325TIP3   OH276465   5.498   2.136  15.548 -0.4638 -0.3869 -0.2228
18325TIP3    H176466   5.577   2.161  15.499 -1.6899  1.4562 -1.3948
18325TIP3    H276467   5.457   2.068  15.495  0.2049 -1.2094  0.2899
18326TIP3   OH276468   3.830   6.287   1.260 -0.2924 -0.0331 -0.3232
18326TIP3    H176469   3.827   6.345   1.336  0.1797 -1.6904  1.0206
18326TIP3    H276470   3.748   6.304   1.213  0.0827  2.1002 -0.3291
18327TIP3   OH276471   6.653   6.427  16.761  0.6023  0.6138 -0.6799
18327TIP3    H176472   6.583   6.473  16.808 -0.8332  0.5411 -2.6165
18327TIP3    H276473   6.720   6.493  16.745 -0.1908  1.3508 -1.0207
18328TIP3   OH276474   1.278   5.916  13.263 -0.0005  0.1187  0.5631
18328TIP3    H176475   1.354   5.925  13.205 -1.5783 -1.9164 -2.0616
18328TIP3    H276476   1.244   6.005  13.272  2.4693  1.0612  1.6568
18329TIP3   OH276477   4.507   4.264  11.846 -0.1104  0.5907  0.3203
18329TIP3    H176478   4.436   4.261  11.910 -0.1440  0.2072  0.2696
18329TIP3    H276479   4.465   4.252  11.761  0.1633 -1.3171  0.4115
18330TIP3   OH276480   0.760   3.742  16.518 -0.4546 -0.3799  0.2215
18330TIP3    H176481   0.791   3.741  16.427  0.8916 -2.4717  0.6220
18330TIP3    H276482   0.668   3.765  16.511 -0.4526 -0.7428 -1.7191
18331TIP3   OH276483   0.018   5.167  16.879 -0.0942 -0.0908 -0.1978
18331TIP3    H176484   0.082   5.096  16.881 -0.0211 -0.0761 -1.3332
18331TIP3    H276485   0.070   5.246  16.893  0.1532 -0.0842 -1.0593
18332TIP3   OH276486   5.083   0.008  11.888  0.2829  0.0181  0.2355
18332TIP3    H176487   5.134   0.044  11.815  0.4698 -0.0241  0.3440
18332TIP3    H276488   5.111   0.060  11.964 -1.1874  1.2387 -0.0190
18333TIP3   OH276489   2.606   4.696   0.025  0.0168 -0.3536 -0.0031
18333TIP3    H176490   2.542   4.629   0.000 -1.2107  0.9944 -0.6290
18333TIP3    H276491   2.672   4.649   0.076 -1.2445 -1.8770  0.2906
18334TIP3   OH276492   6.616   6.089  15.655  0.0715  0.4347 -0.0527
18334TIP3    H176493   6.656   6.073  15.569 -0.1227  1.9647 -0.4504
18334TIP3    H276494   6.686   6.128  15.707 -0.4204  1.5753 -0.2270
18335TIP3   OH276495   2.386   0.573  13.266 -0.1108  0.1465  0.8639
18335TIP3    H176496   2.464   0.571  13.210 -0.1743  2.4181  0.5786
18335TIP3    H276497   2.407   0.640  13.332 -1.9766  1.1839  0.4763
18336TIP3   OH276498   3.866   2.190  13.334  0.1032  0.2082 -0.4837
18336TIP3    H176499   3.931   2.241  13.383 -0.5605  0.5758  0.0407
18336TIP3    H276500   3.899   2.188  13.245  1.8975 -1.3749  0.1453
18337TIP3   OH276501   3.471   0.449   4.891  0.4174  0.4565 -0.7087
18337TIP3    H176502   3.466   0.426   4.798  0.2146  1.3135 -0.9146
18337TIP3    H276503   3.384   0.485   4.911  1.0333  1.9753 -0.6543
18338TIP3   OH276504   1.520   1.872   3.799 -0.0061 -0.5039 -0.0011
18338TIP3    H176505   1.508   1.842   3.709  0.9823 -0.3823 -0.1886
18338TIP3    H276506   1.442   1.924   3.818 -0.9778 -1.8304 -0.2272
18339TIP3   OH276507   4.730   2.091   2.856  0.2972 -0.1118 -0.4204
18339TIP3    H176508   4.782   2.017   2.825 -2.1276 -2.9743  1.7103
18339TIP3    H276509   4.640   2.067   2.835 -0.5192  2.9779 -0.8851
18340TIP3   OH276510   2.430   4.836   3.502  0.5167  0.8919 -0.3189
18340TIP3    H176511   2.512   4.849   3.454  1.1738 -0.5409  0.3701
18340TIP3    H276512   2.449   4.768   3.566 -1.3760  0.0962 -0.5231
18341TIP3   OH276513   2.798   6.437   5.653 -0.2763 -0.2242  0.1022
18341TIP3    H176514   2.765   6.351   5.679  0.0986 -0.4498 -0.1502
18341TIP3    H276515   2.811   6.484   5.735 -0.7198 -0.3189  0.2286
18342TIP3   OH276516   1.513   5.705  16.271 -0.1950  0.3201 -0.1994
18342TIP3    H176517   1.478   5.758  16.200  1.8615  1.6583 -0.2873
18342TIP3    H276518   1.505   5.615  16.239 -3.3158  0.4915 -0.2381
18343TIP3   OH276519   1.717   6.676  11.709 -0.1609 -0.1239 -0.6784
18343TIP3    H176520   1.624   6.655  11.703 -0.1731 -0.4273  0.3976
18343TIP3    H276521   1.758   6.594  11.738  0.3101  0.2771 -0.2064
18344TIP3   OH276522   0.989   0.637  10.816  0.2139 -0.0825 -0.4171
18344TIP3    H176523   1.060   0.615  10.756  1.2889 -0.2882  0.8677
18344TIP3    H276524   0.911   0.642  10.761  0.6255 -2.9967 -1.4204
18345TIP3   OH276525   5.324   0.592   3.241  0.1432 -0.2440 -0.5032
18345TIP3    H176526   5.341   0.627   3.329  0.4240  1.1212 -1.0715
18345TIP3    H276527   5.231   0.572   3.241  0.2095 -0.5955  0.2163
18346TIP3   OH276528   2.567   0.480  15.124  0.0536  0.0677  0.4660
18346TIP3    H176529   2.569   0.471  15.029  1.2195 -0.1304  0.4988
18346TIP3    H276530   2.477   0.506  15.144  0.0632  1.1469 -0.7805
18347TIP3   OH276531   2.837   2.380   1.022 -0.2545 -0.6006  0.2766
18347TIP3    H176532   2.845   2.475   1.029 -1.0050 -0.4373 -0.7821
18347TIP3    H276533   2.807   2.352   1.108 -1.0971  0.2534  0.2710
18348TIP3   OH276534   3.849   6.519  14.168  0.1521 -0.2768  0.1003
18348TIP3    H176535   3.927   6.532  14.114 -0.5968 -0.2102 -1.0044
18348TIP3    H276536   3.814   6.434  14.140  0.3602 -0.7672  1.2822
18349TIP3   OH276537   1.763   1.184   5.367  0.1159 -0.2569  0.6912
18349TIP3    H176538   1.782   1.180   5.274  0.4212 -0.6857  0.7685
18349TIP3    H276539   1.824   1.249   5.401 -0.4153  0.3474  0.4927
18350TIP3   OH276540   2.861   6.391  15.700  0.1436  0.7037 -0.0117
18350TIP3    H176541   2.853   6.481  15.730  1.4793  0.6395  0.5974
18350TIP3    H276542   2.935   6.392  15.640  0.8365 -0.1705  0.8055
18351TIP3   OH276543   6.432   2.317   0.825 -0.7170  0.5508  0.0569
18351TIP3    H176544   6.363   2.273   0.775 -0.3531  0.6047 -0.5029
18351TIP3    H276545   6.466   2.384   0.766  2.3954 -1.8709 -1.2268
18352TIP3   OH276546   0.132   0.448  11.285 -0.1607  0.6665  0.1946
18352TIP3    H176547   0.135   0.352  11.277  0.1566  0.4234  2.5155
18352TIP3    H276548   0.221   0.476  11.266 -0.1713  0.4741 -0.1508
18353TIP3   OH276549   4.604   4.969   3.048 -0.2337  0.7494 -0.1873
18353TIP3    H176550   4.630   4.879   3.069  0.2783  1.0024  0.2850
18353TIP3    H276551   4.516   4.977   3.083  0.5949  1.1548  1.9473
18354TIP3   OH276552   1.292   0.355  16.602 -0.5322 -0.2587  0.0902
18354TIP3    H176553   1.312   0.276  16.651  0.3081 -0.9941 -1.3591
18354TIP3    H276554   1.203   0.342  16.569 -0.4625 -0.5194  0.0065
18355TIP3   OH276555   6.169   2.191   3.941  0.5989  0.1165 -0.2448
18355TIP3    H176556   6.121   2.162   3.863  0.0121  2.6940 -0.9658
18355TIP3    H276557   6.101   2.209   4.005  0.6821  1.8272 -0.5721
18356TIP3   OH276558   1.120   4.842  16.554 -0.1473  0.5123 -0.4926
18356TIP3    H176559   1.156   4.754  16.568 -1.7269 -0.2264 -0.8154
18356TIP3    H276560   1.035   4.827  16.512 -0.8890  2.1443  0.3191
18357TIP3   OH276561   5.038   4.525   5.647  0.0184  0.0749 -0.2881
18357TIP3    H176562   5.094   4.561   5.715 -0.1962  0.7614 -0.4680
18357TIP3    H276563   4.952   4.516   5.688 -0.0821  0.3749 -0.4317
18358TIP3   OH276564   4.792   0.204   3.799  0.0445 -0.5252 -0.4144
18358TIP3    H176565   4.732   0.153   3.744 -1.8077  0.8956  0.1911
18358TIP3    H276566   4.818   0.277   3.743 -0.4781 -0.0012  0.0258
18359TIP3   OH276567   6.755   4.995  15.056  0.3189 -0.3474 -0.4605
18359TIP3    H176568   6.824   5.061  15.044  0.1355 -0.1921 -0.6651
18359TIP3    H276569   6.730   4.971  14.967  0.9706 -1.3167 -0.3964
18360TIP3   OH276570   6.189   0.311  13.890 -0.2384  0.2438 -0.0985
18360TIP3    H176571   6.112   0.254  13.894  0.7406 -1.1319 -0.1957
18360TIP3    H276572   6.233   0.298  13.974  0.3622  0.3228 -0.3962
18361TIP3   OH276573   1.242   1.721  17.001 -0.2035  0.5968 -0.2483
18361TIP3    H176574   1.324   1.752  16.963 -0.4264  1.5424  0.0193
18361TIP3    H276575   1.187   1.701  16.925  0.7829 -1.5875 -0.4804
18362TIP3   OH276576   6.684   3.111   3.422  0.5603  0.1412 -0.0238
18362TIP3    H176577   6.699   3.171   3.495  1.2261 -1.1857  0.9765
18362TIP3    H276578   6.758   3.051   3.425  0.3655 -0.2110 -1.5373
18363TIP3   OH276579   2.540   5.466   2.728 -0.2848  0.3867 -1.0506
18363TIP3    H176580   2.626   5.427   2.710  0.3822  1.8168 -1.0884
18363TIP3    H276581   2.560   5.552   2.765 -1.6971  1.1509 -1.9634
18364TIP3   OH276582   1.392   0.466  11.849 -0.0514 -0.1329 -0.1377
18364TIP3    H176583   1.448   0.389  11.854 -1.5240 -1.1994  1.0082
18364TIP3    H276584   1.446   0.538  11.882  1.3704 -0.6297 -1.2997
18365TIP3   OH276585   3.423   3.256  16.989 -0.0080  0.1491 -0.2321
18365TIP3    H176586   3.455   3.234  16.902 -0.5508 -0.8594 -0.1848
18365TIP3    H276587   3.386   3.344  16.980  0.2173  0.1729 -0.9377
18366TIP3   OH276588   2.181   5.151   0.312  0.1504  0.3438  0.1117
18366TIP3    H176589   2.180   5.086   0.383 -0.8652  0.3965  0.1663
18366TIP3    H276590   2.203   5.233   0.355 -3.1752  0.9536  0.9720
18367TIP3   OH276591   6.042   3.188  13.828 -0.0329 -0.6130  0.0804
18367TIP3    H176592   6.119   3.229  13.868 -0.3791 -1.0825  1.2523
18367TIP3    H276593   6.017   3.119  13.888 -0.8804 -1.0177 -0.7103
18368TIP3   OH276594   1.773   1.302   3.890  0.1289 -0.4483  0.0080
18368TIP3    H176595   1.776   1.387   3.932  3.6155  0.8527 -2.4341
18368TIP3    H276596   1.701   1.309   3.827  0.1715  0.6057  0.0590
18369TIP3   OH276597   5.135   5.134   1.861 -0.2594 -0.4288 -0.1650
18369TIP3    H176598   5.216   5.168   1.898 -0.8080  0.0231  0.6553
18369TIP3    H276599   5.157   5.111   1.771  0.5297  0.6361 -0.2657
18370TIP3   OH276600   3.374   6.713   5.853  0.3936  0.3364  0.4681
18370TIP3    H176601   3.304   6.768   5.887  0.7549 -0.2401  2.2707
18370TIP3    H276602   3.403   6.662   5.929  1.7451 -0.5210 -0.5775
18371TIP3   OH276603   1.903   3.414   0.885 -0.7773  0.3685  0.7813
18371TIP3    H176604   1.829   3.468   0.913  0.4686  1.5448  1.8960
18371TIP3    H276605   1.911   3.348   0.954 -2.0638 -1.1167 -0.3948
18372TIP3   OH276606   0.046   3.517  12.092 -0.0370 -0.5810 -0.4280
18372TIP3    H176607   0.057   3.465  12.172  2.4904 -0.3968 -0.5707
18372TIP3    H276608  -0.044   3.501  12.065 -1.1790 -0.1962  2.7536
18373TIP3   OH276609   5.669   2.991   6.510 -0.3010 -0.4769 -0.3851
18373TIP3    H176610   5.720   3.067   6.538 -0.7062  0.5313 -2.2131
18373TIP3    H276611   5.656   3.004   6.416 -1.2796 -2.2918 -0.5523
18374TIP3   OH276612   6.713   1.462  13.034  0.1117  0.2559 -0.0785
18374TIP3    H176613   6.664   1.467  12.952 -1.5805 -0.5814  0.8188
18374TIP3    H276614   6.803   1.481  13.010 -0.6541  1.9984 -1.8024
18375TIP3   OH276615   3.725   5.556  14.803  0.3986  0.0395  0.4311
18375TIP3    H176616   3.713   5.586  14.893 -0.1735  2.8693 -0.4735
18375TIP3    H276617   3.820   5.560  14.789  0.5064 -0.5981  0.9538
18376TIP3   OH276618   4.498   2.765   2.597 -0.0294 -0.2569  0.1073
18376TIP3    H176619   4.435   2.693   2.609  0.4444 -0.5808  0.7021
18376TIP3    H276620   4.583   2.721   2.589  0.2765  0.2459  0.5675
18377TIP3   OH276621   3.506   1.021   0.658  0.6849 -0.3506 -0.4058
18377TIP3    H176622   3.435   0.967   0.693  1.5752 -2.1190 -1.1764
18377TIP3    H276623   3.570   1.026   0.729  0.7539 -0.6505 -0.4412
18378TIP3   OH276624   4.786   3.014   2.365 -1.1493 -0.3024  0.2083
18378TIP3    H176625   4.802   2.928   2.328  0.2777 -0.4250  1.0064
18378TIP3    H276626   4.719   3.000   2.431 -1.0334 -0.7812  0.2266
18379TIP3   OH276627   2.967   4.103  15.520  0.9416 -0.0171  0.6702
18379TIP3    H176628   2.974   4.008  15.511  1.7119  0.1223 -0.4170
18379TIP3    H276629   2.876   4.118  15.545  1.4520 -1.2067  3.6801
18380TIP3   OH276630   4.019   0.033   3.704  0.1465  0.0292 -0.0571
18380TIP3    H176631   3.977  -0.040   3.659 -2.0802  1.3322 -0.2153
18380TIP3    H276632   3.983   0.031   3.792  1.2812  0.0399  0.4295
18381TIP3   OH276633   5.060   0.695   3.612 -0.0227  0.4529  0.9858
18381TIP3    H176634   5.126   0.762   3.626  0.8788 -0.2583  0.2914
18381TIP3    H276635   5.050   0.691   3.517 -0.3032 -0.1582  1.0372
18382TIP3   OH276636   1.143   4.792   1.178 -0.0129  0.1185  0.2810
18382TIP3    H176637   1.062   4.760   1.218 -0.1578 -0.0388 -0.1314
18382TIP3    H276638   1.202   4.717   1.180 -0.2386 -0.0782 -0.3821
18383TIP3   OH276639   4.012   1.863   6.122 -0.8304 -0.2035 -0.1129
18383TIP3    H176640   3.933   1.860   6.176 -1.8892  0.3988 -1.5599
18383TIP3    H276641   4.059   1.783   6.145 -2.2495 -0.9829  0.2378
18384TIP3   OH276642   4.404   1.507  16.348 -0.4927 -0.3359  0.3275
18384TIP3    H176643   4.455   1.427  16.337  0.5140  0.1743  1.0974
18384TIP3    H276644   4.414   1.553  16.265 -2.7253 -1.8622 -0.9040
18385TIP3   OH276645   1.862   0.320  13.620 -0.3526 -0.9948  0.3499
18385TIP3    H176646   1.889   0.405  13.654 -1.8410 -0.6888  0.8741
18385TIP3    H276647   1.886   0.258  13.689 -0.6178 -0.7892  0.6275
18386TIP3   OH276648   2.462   0.564  12.249 -0.3260 -0.6324 -0.0263
18386TIP3    H176649   2.457   0.630  12.317  1.7147 -0.0593 -0.3557
18386TIP3    H276650   2.540   0.587  12.199 -1.0176 -1.8105 -1.7446
18387TIP3   OH276651   2.762   1.775   4.578 -0.3532 -0.2586  0.0886
18387TIP3    H176652   2.746   1.715   4.650  0.4936 -1.3013 -0.5533
18387TIP3    H276653   2.850   1.752   4.547 -0.6559  0.2232 -1.2064
18388TIP3   OH276654   4.571   5.291   3.616 -0.0105 -0.2930  0.2152
18388TIP3    H176655   4.565   5.350   3.541  2.1012  0.4692  0.5790
18388TIP3    H276656   4.627   5.219   3.586  0.2198 -0.3715  0.8151
18389TIP3   OH276657   3.633   0.236  13.663 -0.2744 -0.2456  0.2116
18389TIP3    H176658   3.665   0.229  13.753 -1.2972 -0.2667  0.5871
18389TIP3    H276659   3.606   0.147  13.640 -3.9323  0.3625  1.4267
18390TIP3   OH276660   3.401   6.303   0.450 -0.1208 -0.4701  0.0628
18390TIP3    H176661   3.421   6.244   0.377  1.0105 -0.1399  0.0778
18390TIP3    H276662   3.306   6.296   0.462 -0.0716 -1.9391 -0.2246
18391TIP3   OH276663   4.074   0.762   0.357 -0.1370 -0.6143 -0.3479
18391TIP3    H176664   4.033   0.832   0.306  0.3428  0.3213  0.5104
18391TIP3    H276665   4.072   0.794   0.447 -2.0856 -2.7662  0.4613
18392TIP3   OH276666   2.454   1.209  12.116 -0.0342  0.4053  0.1326
18392TIP3    H176667   2.509   1.165  12.180 -0.4358 -1.8257 -0.9311
18392TIP3    H276668   2.364   1.198  12.149 -0.2376 -0.7127 -0.7313
18393TIP3   OH276669   2.348   1.654  11.124  0.3259  0.1349 -0.4194
18393TIP3    H176670   2.421   1.659  11.184  0.9145  2.0189 -1.1941
18393TIP3    H276671   2.292   1.728  11.149 -0.4603 -0.2903 -0.8864
18394TIP3   OH276672   2.562   4.388  15.035 -0.5848  0.3828 -0.3999
18394TIP3    H176673   2.579   4.397  14.942  1.7229 -1.7065 -0.2924
18394TIP3    H276674   2.633   4.437  15.078 -0.6533 -0.0683  0.2478
18395TIP3   OH276675   3.333   6.278   4.277  0.3596  0.2829  0.0896
18395TIP3    H176676   3.308   6.318   4.360  0.3332  0.8542 -0.1832
18395TIP3    H276677   3.378   6.197   4.301 -0.0919  0.1850  0.6415
18396TIP3   OH276678   3.888   5.179   2.645  0.1229  0.1852  0.3983
18396TIP3    H176679   3.972   5.224   2.653  0.0829  0.4254 -0.4176
18396TIP3    H276680   3.849   5.215   2.565 -0.1606 -0.8750  0.0384
18397TIP3   OH276681   4.295   1.194   6.261  0.0613  0.1655 -0.2234
18397TIP3    H176682   4.215   1.222   6.306 -0.2703 -1.0505 -0.0296
18397TIP3    H276683   4.264   1.147   6.183  0.6193  2.3493 -1.8822
18398TIP3   OH276684   2.406   1.561   4.832 -0.0273 -0.3830  0.5187
18398TIP3    H176685   2.383   1.470   4.812  1.7197 -1.1052  1.6338
18398TIP3    H276686   2.374   1.575   4.921 -0.9421  0.3601  0.0933
18399TIP3   OH276687   6.707   4.061  12.890 -0.3010  0.3597 -0.4550
18399TIP3    H176688   6.710   4.152  12.920 -0.8885 -0.2846  1.7329
18399TIP3    H276689   6.614   4.039  12.889 -0.0820 -0.8199  1.1410
18400TIP3   OH276690   0.053   2.357  17.152 -0.1551  0.0465  0.0864
18400TIP3    H176691   0.031   2.431  17.209  1.1830  0.5797 -0.0547
18400TIP3    H276692   0.145   2.372  17.128  0.2301 -1.8037  0.2601
18401TIP3   OH276693   0.404   6.643  10.910  0.4638  0.0642 -0.3503
18401TIP3    H176694   0.441   6.654  10.997  0.0091 -1.3741  0.0511
18401TIP3    H276695   0.477   6.611  10.857  0.4224 -0.3227 -0.1757
18402TIP3   OH276696   0.415   1.968  13.611 -0.1687  0.1433 -0.7914
18402TIP3    H176697   0.372   1.894  13.567  0.2427 -0.3203 -0.4310
18402TIP3    H276698   0.421   1.941  13.702  0.5108  0.3799 -0.7603
18403TIP3   OH276699   2.232   1.826  12.015  0.6777  0.7494  0.0381
18403TIP3    H176700   2.190   1.903  12.053 -0.5106  0.0043  0.3177
18403TIP3    H276701   2.209   1.755  12.075  0.5493 -0.0724 -0.9565
18404TIP3   OH276702   0.996   3.496   1.638  0.2296 -0.8667 -0.1526
18404TIP3    H176703   0.913   3.449   1.637 -1.0350  1.0041  3.0536
18404TIP3    H276704   0.973   3.586   1.663  2.9241  0.5647 -2.2783
18405TIP3   OH276705   4.674   0.732   0.854  0.2594  0.1498  0.1506
18405TIP3    H176706   4.740   0.788   0.895 -1.0976  1.6331  0.4349
18405TIP3    H276707   4.683   0.749   0.761 -0.4757  1.2819  0.2670
18406TIP3   OH276708   0.880   2.940   4.790  0.3461 -0.1827 -0.5438
18406TIP3    H176709   0.800   2.974   4.750 -0.2795 -2.0731 -0.9668
18406TIP3    H276710   0.951   2.989   4.748 -0.5551  3.7756  1.9769
18407TIP3   OH276711   6.689   5.055   0.529 -0.6268 -0.1563 -0.0112
18407TIP3    H176712   6.669   4.962   0.544 -0.7287 -0.1741 -0.2519
18407TIP3    H276713   6.609   5.091   0.490 -0.6292  0.0605  0.1950
18408TIP3   OH276714   4.430   5.482  13.242 -0.2935 -0.1885 -0.4286
18408TIP3    H176715   4.378   5.431  13.304 -3.4553 -1.9046 -4.0566
18408TIP3    H276716   4.403   5.573  13.257 -1.3723 -0.6215  0.4109
18409TIP3   OH276717   1.368   4.661   5.359 -0.2144  0.4009  0.3345
18409TIP3    H176718   1.377   4.584   5.416 -1.3998  1.4046  1.9649
18409TIP3    H276719   1.427   4.726   5.396 -2.8370  1.9458  2.1159
18410TIP3   OH276720   0.213   2.453  13.247 -0.4829 -0.4000  0.4653
18410TIP3    H176721   0.265   2.530  13.268  0.2680 -0.4466 -1.1249
18410TIP3    H276722   0.125   2.487  13.232 -0.3316  0.0356  0.5495
18411TIP3   OH276723   6.631   1.085   2.354 -0.0382  0.3379 -0.2995
18411TIP3    H176724   6.580   1.166   2.351 -0.7609 -0.0335  1.1272
18411TIP3    H276725   6.628   1.058   2.446  0.6298 -1.0362 -0.6538
18412TIP3   OH276726   3.859   2.175  11.716 -0.3385  0.2789 -0.1599
18412TIP3    H176727   3.903   2.100  11.755 -0.2702  0.8729  0.9716
18412TIP3    H276728   3.766   2.161  11.734 -0.2677  0.7804  0.6812
18413TIP3   OH276729   5.951   3.448  15.445 -0.1129 -0.1962  0.2909
18413TIP3    H176730   5.885   3.378  15.441  0.5164 -0.8444  1.0967
18413TIP3    H276731   5.966   3.462  15.538  0.3989  0.4225  0.1216
18414TIP3   OH276732   1.005   3.896  12.326 -0.3001  0.7003  0.6742
18414TIP3    H176733   0.968   3.808  12.319 -0.3560  0.8605 -2.5350
18414TIP3    H276734   0.929   3.954  12.330 -0.3864  0.7846 -1.4520
18415TIP3   OH276735   1.732   5.143  16.033  0.0218 -0.5666 -0.8820
18415TIP3    H176736   1.790   5.075  16.066 -0.9204 -1.3967 -0.8615
18415TIP3    H276737   1.646   5.100  16.027 -0.6779  0.7193 -0.5316
18416TIP3   OH276738   2.141   3.177   5.119 -0.1294  0.2695 -0.8711
18416TIP3    H176739   2.068   3.180   5.057 -0.0673  0.8521 -0.9225
18416TIP3    H276740   2.140   3.088   5.154 -1.2366  0.4482 -0.4208
18417TIP3   OH276741   0.998   3.040  13.627  0.1019 -0.1489 -0.0577
18417TIP3    H176742   0.942   3.021  13.552  1.4490 -1.8687 -0.6905
18417TIP3    H276743   0.988   3.134  13.641 -1.3694 -0.0583 -1.3837
18418TIP3   OH276744   6.535   2.267   4.049  0.0545 -0.5845  0.6226
18418TIP3    H176745   6.490   2.352   4.046 -1.2336 -1.2286  0.9557
18418TIP3    H276746   6.542   2.240   3.957  1.9291  0.5804  0.3642
18419TIP3   OH276747   3.879   2.934   2.691  0.8066 -0.8064 -0.1775
18419TIP3    H176748   3.893   3.006   2.751  1.2588  0.4832 -1.7653
18419TIP3    H276749   3.784   2.929   2.680  0.8440  0.6699 -1.3440
18420TIP3   OH276750   1.300   5.016  14.471  0.2604 -0.0449  0.5513
18420TIP3    H176751   1.271   5.067  14.546  1.1705 -0.1029  0.9543
18420TIP3    H276752   1.291   5.075  14.397 -0.2624  0.1438  0.7613
18421TIP3   OH276753   6.013   4.536   1.175 -0.6789 -0.1191  0.1240
18421TIP3    H176754   6.025   4.615   1.227  0.8955 -0.8826  1.0035
18421TIP3    H276755   5.989   4.469   1.239 -0.2826 -0.7256 -0.3519
18422TIP3   OH276756   3.325   5.129   6.077  0.9254 -0.0998  0.2895
18422TIP3    H176757   3.254   5.091   6.129  0.8337  0.4400  0.5662
18422TIP3    H276758   3.389   5.159   6.142 -0.5501  3.3872  0.3541
18423TIP3   OH276759   2.144   3.367   3.182  0.3712  0.2314  0.0920
18423TIP3    H176760   2.193   3.286   3.196  0.5319  0.3150  0.0180
18423TIP3    H276761   2.064   3.356   3.234  1.0036  0.5879  1.1861
18424TIP3   OH276762   5.962   4.576   2.591 -0.2847 -0.8748  0.2452
18424TIP3    H176763   6.056   4.592   2.589 -0.4264  0.5640  2.0478
18424TIP3    H276764   5.936   4.572   2.499  1.2517  0.5455 -0.2987
18425TIP3   OH276765   1.889   4.504   4.828 -0.0681  0.4877 -0.5455
18425TIP3    H176766   1.906   4.573   4.764  0.4750  2.5148  1.6042
18425TIP3    H276767   1.975   4.479   4.860 -0.3651  0.5024  0.3032
18426TIP3   OH276768   0.089   2.206   0.916 -0.3326 -0.0214 -0.6549
18426TIP3    H176769   0.157   2.168   0.972 -1.1387  0.0040  0.3789
18426TIP3    H276770   0.136   2.264   0.857  0.4638  0.7362  0.6802
18427TIP3   OH276771   5.381   0.465  14.854 -0.3620 -0.9943  0.4760
18427TIP3    H176772   5.432   0.467  14.774 -1.6256 -1.5094 -0.3798
18427TIP3    H276773   5.296   0.429  14.828 -0.2170 -2.9608  2.3688
18428TIP3   OH276774   2.669   2.286   3.647 -0.2653  0.0474  0.2155
18428TIP3    H176775   2.746   2.277   3.589  1.3149  1.0982  2.0430
18428TIP3    H276776   2.680   2.216   3.712  1.4520  2.5464  2.8582
18429TIP3   OH276777   1.927   2.980   3.263  0.1772  0.1708  0.1517
18429TIP3    H176778   1.872   2.906   3.237 -2.8084  2.0506  0.6077
18429TIP3    H276779   1.929   3.037   3.186 -1.6632  1.7914  1.1977
18430TIP3   OH276780   4.367   5.913   6.208 -0.1434 -0.0760 -0.1717
18430TIP3    H176781   4.426   5.865   6.265  1.0708  1.5501  0.0260
18430TIP3    H276782   4.382   5.877   6.121 -0.0178 -0.7307  0.1152
18431TIP3   OH276783   3.024   2.400   4.650 -0.3463  0.1655  0.5085
18431TIP3    H176784   2.967   2.372   4.722 -1.1286 -1.5022 -0.7096
18431TIP3    H276785   3.001   2.343   4.577  0.1064  2.0928 -1.2360
18432TIP3   OH276786   5.738   2.811  10.354 -0.4918 -0.0389 -0.1283
18432TIP3    H176787   5.654   2.803  10.399 -0.4162  2.4785  0.6014
18432TIP3    H276788   5.715   2.830  10.263 -0.6920 -0.0614 -0.0818
18433TIP3   OH276789   0.349   6.174   1.283 -0.0857  0.3155  0.5497
18433TIP3    H176790   0.325   6.087   1.252 -0.5242 -0.2763  2.4771
18433TIP3    H276791   0.326   6.175   1.375  0.0658  2.4309  0.6216
18434TIP3   OH276792   6.392   1.746  13.307 -0.0314  0.1037 -0.2836
18434TIP3    H176793   6.462   1.708  13.360 -0.4046 -1.8798 -1.1609
18434TIP3    H276794   6.359   1.674  13.254  0.4580  2.0352 -3.4261
18435TIP3   OH276795   3.990   2.183   6.615 -0.4289 -0.2458 -0.5375
18435TIP3    H176796   4.025   2.184   6.704 -0.1297  0.4567 -0.6516
18435TIP3    H276797   3.926   2.254   6.613  0.0430  0.1759 -1.0603
18436TIP3   OH276798   0.886   1.390  13.916  0.8016  0.2467 -0.4838
18436TIP3    H176799   0.898   1.485  13.910  0.8134  0.4046  1.4754
18436TIP3    H276800   0.944   1.364  13.988 -0.5608 -0.9636  0.2035
18437TIP3   OH276801   3.917   0.862  14.476 -0.2103  0.0836  0.2189
18437TIP3    H176802   3.882   0.805  14.407 -0.1828 -1.1002  1.1497
18437TIP3    H276803   3.855   0.853  14.548  0.2369  0.6162  0.6785
18438TIP3   OH276804   3.515   4.797  15.203 -0.1278  0.0329 -0.0470
18438TIP3    H176805   3.578   4.863  15.229 -1.5400  1.1495  0.6864
18438TIP3    H276806   3.501   4.744  15.281 -0.0717 -0.2361 -0.2164
18439TIP3   OH276807   3.294   3.042   1.220 -0.1330 -0.0733 -0.2408
18439TIP3    H176808   3.253   2.958   1.242 -0.9173  0.0777 -1.0627
18439TIP3    H276809   3.256   3.104   1.281 -0.2349 -0.1490 -0.2273
18440TIP3   OH276810   3.331   4.280   5.757  0.1265  0.0121  0.5667
18440TIP3    H176811   3.330   4.232   5.673 -2.5646 -1.4416  1.3133
18440TIP3    H276812   3.367   4.217   5.819  3.3801  1.5293  0.4085
18441TIP3   OH276813   1.000   0.846  11.658 -0.6158 -0.6665 -0.9494
18441TIP3    H176814   0.986   0.791  11.736  3.1171 -0.1590  0.2847
18441TIP3    H276815   1.039   0.786  11.595 -0.8506 -0.4036 -1.3445
18442TIP3   OH276816   1.043   5.328   2.966 -0.0746  0.8138 -0.0970
18442TIP3    H176817   0.970   5.285   2.921 -0.0474 -0.5468  1.0603
18442TIP3    H276818   1.016   5.329   3.058  1.3850  0.1709  0.3668
18443TIP3   OH276819   1.225   3.927   5.631  0.2227  0.6984  0.6843
18443TIP3    H176820   1.184   4.011   5.611 -1.0243  0.2634  1.2909
18443TIP3    H276821   1.162   3.862   5.600  0.4911  0.0023  1.5758
18444TIP3   OH276822   3.463   6.749   2.110 -0.5838  0.1333 -0.0426
18444TIP3    H176823   3.512   6.798   2.176 -2.0342  0.4548  0.8392
18444TIP3    H276824   3.519   6.674   2.090  0.6198  0.9059  0.3301
18445TIP3   OH276825   5.618   4.003  11.880  0.1749  0.4968  0.2342
18445TIP3    H176826   5.689   4.058  11.915 -0.7401  2.3892 -0.7374
18445TIP3    H276827   5.538   4.042  11.915 -0.4685 -1.2192  0.7805
18446TIP3   OH276828   6.701   4.353  11.222  0.6270  0.4376  0.4958
18446TIP3    H176829   6.758   4.395  11.157 -0.8395  0.6839 -0.7161
18446TIP3    H276830   6.630   4.315  11.170  0.0368 -0.4333  1.8784
18447TIP3   OH276831   3.079   1.397  13.347  0.0816 -0.0769  0.4691
18447TIP3    H176832   2.993   1.437  13.353  0.4469  0.5367  1.6683
18447TIP3    H276833   3.070   1.313  13.393  0.0410 -0.1873  0.2665
18448TIP3   OH276834   2.808   6.604   1.339  0.2452  1.2125  0.1771
18448TIP3    H176835   2.886   6.635   1.292 -1.4411  2.3068 -2.1070
18448TIP3    H276836   2.774   6.681   1.382 -0.8440  1.3228 -0.8259
18449TIP3   OH276837   0.133   1.540   2.778 -0.0308 -0.3247 -0.3487
18449TIP3    H176838   0.104   1.464   2.728  1.4058 -1.6756  0.7820
18449TIP3    H276839   0.197   1.583   2.720  2.1521 -2.2711  0.4708
18450TIP3   OH276840   3.082   6.265   5.690  0.2957  0.0586 -0.2827
18450TIP3    H176841   3.013   6.306   5.638  0.7803 -0.5753 -1.4620
18450TIP3    H276842   3.037   6.195   5.738 -0.4117  1.4928  1.2548
18451TIP3   OH276843   6.608   6.596   1.882 -0.3212  0.4733  0.2002
18451TIP3    H176844   6.558   6.604   1.964 -0.1422 -0.8910  0.4595
18451TIP3    H276845   6.624   6.502   1.873  2.3183  0.8674  0.1948
18452TIP3   OH276846   3.529   5.825   4.348  0.2173  0.0471  0.4362
18452TIP3    H176847   3.472   5.864   4.414  1.2624 -0.1091  1.4596
18452TIP3    H276848   3.510   5.874   4.268 -0.6463  0.6377  0.9920
18453TIP3   OH276849   3.002   3.570  15.833  0.5013  0.7076 -0.4680
18453TIP3    H176850   3.071   3.510  15.804  0.4491  0.9084 -1.0278
18453TIP3    H276851   2.992   3.552  15.927  1.6204  0.9650 -0.2768
18454TIP3   OH276852   6.346   4.563  13.919  0.2055  0.4761 -0.7903
18454TIP3    H176853   6.382   4.480  13.950  0.4380  1.1097  0.7678
18454TIP3    H276854   6.373   4.626  13.986 -0.6053  1.6663 -1.5530
18455TIP3   OH276855   4.583   3.775  14.309  0.1347 -0.3694 -0.4837
18455TIP3    H176856   4.660   3.830  14.299 -0.5658  0.5624 -0.9334
18455TIP3    H276857   4.617   3.691  14.340  1.2737  0.1560 -0.2667
18456TIP3   OH276858   0.102   0.653  13.814  0.0333  0.3022 -0.1043
18456TIP3    H176859   0.174   0.603  13.853 -0.7995 -1.4232 -0.6966
18456TIP3    H276860   0.138   0.685  13.731  0.4379  0.3190  0.0734
18457TIP3   OH276861   4.982   2.611  12.272  0.2890  0.8995 -0.1622
18457TIP3    H176862   5.038   2.641  12.343 -0.6397 -2.1496  2.1247
18457TIP3    H276863   5.020   2.527  12.245 -1.2544  0.4007 -0.9228
18458TIP3   OH276864   0.788   5.531  11.662  0.0553  0.2050  0.0975
18458TIP3    H176865   0.763   5.459  11.718  0.2598  0.6855  0.8179
18458TIP3    H276866   0.841   5.491  11.592 -1.9730 -0.6969 -0.9914
18459TIP3   OH276867   2.179   0.470  12.911 -0.1688  0.6490 -0.0448
18459TIP3    H176868   2.140   0.398  12.960 -2.4137  1.8781  0.1007
18459TIP3    H276869   2.166   0.547  12.966 -1.1386  1.7661 -1.7451
18460TIP3   OH276870   5.646   4.521  14.224  0.0341 -0.4907 -0.1393
18460TIP3    H176871   5.637   4.557  14.136 -3.0762 -0.4723  0.0664
18460TIP3    H276872   5.654   4.597  14.281  2.2279 -0.5056 -0.3190
18461TIP3   OH276873   5.799   3.495   3.551  0.0524 -0.4007  0.3820
18461TIP3    H176874   5.853   3.419   3.572  1.5182  0.1460 -1.1376
18461TIP3    H276875   5.772   3.480   3.460  0.1917  0.7782  0.1295
18462TIP3   OH276876   4.971   5.678   1.865 -0.1173  0.5635 -0.7043
18462TIP3    H176877   5.014   5.750   1.818 -1.0571  0.2350 -2.1309
18462TIP3    H276878   4.880   5.683   1.838 -0.6249  0.0880  0.8050
18463TIP3   OH276879   4.253   2.187   2.757 -0.4208 -0.2483  0.3738
18463TIP3    H176880   4.286   2.124   2.821 -2.3362 -2.4280 -0.6368
18463TIP3    H276881   4.180   2.230   2.802  0.7785  1.2174  1.0020
18464TIP3   OH276882   4.730   3.564  12.476  0.2393 -0.0975  0.7837
18464TIP3    H176883   4.637   3.562  12.455  0.6377  0.1036 -1.1582
18464TIP3    H276884   4.736   3.519  12.561 -1.5420 -0.5767  0.6977
18465TIP3   OH276885   1.685   0.450  15.800 -0.0017 -0.0021  0.0339
18465TIP3    H176886   1.646   0.374  15.844  0.1941  0.8339  1.7504
18465TIP3    H276887   1.776   0.426  15.785 -0.3359 -0.7181 -0.9941
18466TIP3   OH276888   4.234   0.677  15.073 -0.2663  0.0056  0.8782
18466TIP3    H176889   4.212   0.596  15.119  1.1672 -0.5773  0.6093
18466TIP3    H276890   4.298   0.720  15.130 -2.4231  1.9854  1.9870
18467TIP3   OH276891   3.721   3.779   4.719  0.0236 -0.2028  0.3816
18467TIP3    H176892   3.787   3.759   4.653  2.4118  2.1398  1.9020
18467TIP3    H276893   3.655   3.830   4.672  0.1560 -1.0260 -0.7614
18468TIP3   OH276894   1.559   5.700  12.071 -0.6197  0.3230  0.3846
18468TIP3    H176895   1.563   5.794  12.090 -0.0837  0.2883  0.4403
18468TIP3    H276896   1.596   5.658  12.149  1.5736  0.1793 -0.6849
18469TIP3   OH276897   0.844   0.491   5.372  0.2719  0.0785  0.0939
18469TIP3    H176898   0.848   0.491   5.276  0.1222 -1.6903  0.0527
18469TIP3    H276899   0.752   0.473   5.392  0.7679 -2.2379  0.5018
18470TIP3   OH276900   4.889   2.496  12.612  0.5128 -0.8499 -0.1343
18470TIP3    H176901   4.916   2.557  12.681  0.2578 -1.7043  0.7462
18470TIP3    H276902   4.833   2.549  12.555 -1.5490 -0.7540  1.8330
18471TIP3   OH276903   0.228   6.354   1.473 -0.2766 -0.7208 -0.6705
18471TIP3    H176904   0.262   6.345   1.562 -0.4688 -0.1154 -0.5294
18471TIP3    H276905   0.151   6.298   1.470 -0.3877 -0.5862 -0.3875
18472TIP3   OH276906   2.087   2.171  14.794  0.8944 -0.1542 -0.6905
18472TIP3    H176907   2.034   2.227  14.851  0.3119 -0.6010 -0.7773
18472TIP3    H276908   2.023   2.133  14.733  1.5339  0.5053 -1.8091
18473TIP3   OH276909   3.218   2.799  11.568  0.4364  0.2142  0.3479
18473TIP3    H176910   3.152   2.866  11.555  0.0199  0.3710  2.7469
18473TIP3    H276911   3.194   2.729  11.507 -3.4983 -0.8036  2.6817
18474TIP3   OH276912   1.829   3.336  16.284  0.1456 -0.1010  0.1748
18474TIP3    H176913   1.867   3.364  16.201 -0.6277 -0.0158 -0.1616
18474TIP3    H276914   1.750   3.289  16.259  0.4143 -0.9207  0.8278
18475TIP3   OH276915   5.791   5.753  16.472 -0.2715  0.7563  0.3559
18475TIP3    H176916   5.755   5.669  16.501 -1.3083  1.5437  1.5067
18475TIP3    H276917   5.721   5.792  16.419  0.4208  0.6541 -0.6390
18476TIP3   OH276918   4.743   0.947  13.003  0.7771 -0.4618  0.1841
18476TIP3    H176919   4.832   0.923  12.977  1.0661  0.8663 -0.1619
18476TIP3    H276920   4.753   1.032  13.047 -0.4336  0.3009 -0.9358
18477TIP3   OH276921   3.646   4.256   2.375  0.5153  0.3307 -0.4679
18477TIP3    H176922   3.663   4.318   2.445 -0.5387  1.2369 -0.9894
18477TIP3    H276923   3.623   4.310   2.299  0.4479 -0.6592 -1.1757
18478TIP3   OH276924   2.478   2.285   3.117  0.0876 -0.0307 -0.0388
18478TIP3    H176925   2.492   2.273   3.211  0.7296  0.9530  0.0086
18478TIP3    H276926   2.418   2.214   3.092 -2.2245  1.1808  1.6255
18479TIP3   OH276927   3.744   4.531  11.339 -0.2250 -0.1216  0.3831
18479TIP3    H176928   3.699   4.551  11.421 -0.8933  1.3969 -0.3132
18479TIP3    H276929   3.831   4.570  11.349  0.8694 -2.5886  1.5138
18480TIP3   OH276930   0.832   1.877  15.656 -0.5549 -0.1198 -0.5788
18480TIP3    H176931   0.922   1.891  15.627 -1.2650 -1.2544 -3.8293
18480TIP3    H276932   0.781   1.943  15.609 -1.7362 -1.6082 -1.4933
18481TIP3   OH276933   3.990   3.418   1.650 -0.3991 -0.3976 -0.1483
18481TIP3    H176934   4.035   3.487   1.602 -0.8314  0.0499  0.0761
18481TIP3    H276935   3.923   3.465   1.701  1.4267 -0.5902  2.5759
18482TIP3   OH276936   1.019   0.400  15.735 -0.1537  0.1076  0.0086
18482TIP3    H176937   1.109   0.416  15.763  0.3849  0.4934 -1.8182
18482TIP3    H276938   0.970   0.475  15.769 -0.1691 -0.8912  2.4028
18483TIP3   OH276939   6.225   0.776   5.198 -0.3651 -0.1706  0.5321
18483TIP3    H176940   6.191   0.863   5.220  0.0597  0.1208  0.0654
18483TIP3    H276941   6.249   0.738   5.282  0.7589  0.7285  0.6366
18484TIP3   OH276942   5.521   2.289  11.386  0.1248  0.1432 -0.1970
18484TIP3    H176943   5.557   2.305  11.474 -0.5064 -0.4490  0.1720
18484TIP3    H276944   5.436   2.334  11.387  0.3424  0.5704 -0.6823
18485TIP3   OH276945   5.040   0.904   4.409  0.0639 -0.1906 -0.1415
18485TIP3    H176946   5.036   0.958   4.331 -0.6524 -0.3465 -0.2242
18485TIP3    H276947   5.108   0.944   4.463  0.6391 -0.1482 -0.8849
18486TIP3   OH276948   4.610   3.962  13.685 -0.3539 -0.4533  0.3055
18486TIP3    H176949   4.618   4.041  13.631  1.6772 -1.1069 -0.4279
18486TIP3    H276950   4.547   3.987  13.753 -1.5370  1.0236 -1.2115
18487TIP3   OH276951   4.083   0.980  15.752 -0.0945  0.4711 -0.3803
18487TIP3    H176952   4.047   0.892  15.754  0.5086  0.2403  1.1513
18487TIP3    H276953   4.100   1.002  15.843 -1.0819  2.5374 -0.6124
18488TIP3   OH276954   0.100   6.075   1.983 -0.1412  0.1899 -0.2075
18488TIP3    H176955   0.123   6.029   2.063 -0.4896 -0.0838 -0.2612
18488TIP3    H276956   0.021   6.123   2.005  0.3864  1.0091 -0.0665
18489TIP3   OH276957   0.131   1.807   4.288 -0.3740 -0.1817  0.2843
18489TIP3    H176958   0.098   1.874   4.349  0.1804  0.2773  0.0902
18489TIP3    H276959   0.214   1.779   4.326 -0.6494 -0.8364  0.4129
18490TIP3   OH276960   1.111   0.054  15.392 -0.0127  0.6372 -0.0212
18490TIP3    H176961   1.162  -0.027  15.396 -1.0462 -0.0042  1.1212
18490TIP3    H276962   1.157   0.109  15.329  0.2634 -1.1507 -1.4550
18491TIP3   OH276963   4.004   4.697   5.294 -0.0846  0.0280 -0.2071
18491TIP3    H176964   4.093   4.669   5.271  0.3372  0.3890  0.9596
18491TIP3    H276965   3.998   4.786   5.259 -0.2637 -0.2615 -0.9468
18492TIP3   OH276966   4.374   4.574  12.010 -0.5694 -0.6988  0.0013
18492TIP3    H176967   4.396   4.508  12.077 -2.2078  0.5800  1.9227
18492TIP3    H276968   4.293   4.542  11.971 -0.5188 -0.6125 -0.1706
18493TIP3   OH276969   5.295   3.192   1.991 -0.3794  0.3396 -0.8790
18493TIP3    H176970   5.340   3.121   2.037 -1.1090  1.1526  1.1968
18493TIP3    H276971   5.211   3.152   1.964 -0.1032 -0.0334 -1.2091
18494TIP3   OH276972   3.116   3.307   2.997  0.6083 -0.4416  0.4992
18494TIP3    H176973   3.030   3.340   2.973  1.1841  1.3889  0.7723
18494TIP3    H276974   3.175   3.342   2.930  1.4647  0.3506  1.6342
18495TIP3   OH276975   5.688   6.532  11.313  0.5158 -0.0046 -0.0975
18495TIP3    H176976   5.714   6.563  11.226 -0.4791  0.4367 -0.2552
18495TIP3    H276977   5.768   6.500  11.352  1.0486  0.1423 -1.0428
18496TIP3   OH276978   3.874   5.229  14.179  0.1545 -0.6846 -0.7469
18496TIP3    H176979   3.813   5.271  14.239  1.5868  0.5633 -0.0909
18496TIP3    H276980   3.921   5.165  14.233 -0.3861 -1.4844 -1.1959
18497TIP3   OH276981   0.109   2.925   2.303 -0.2254  0.5963 -0.6474
18497TIP3    H176982   0.193   2.920   2.348  0.7159  0.1398 -2.3425
18497TIP3    H276983   0.119   2.998   2.242 -0.8889  0.2482 -1.1904
18498TIP3   OH276984   2.238   4.470  13.529  0.3681  0.3747  0.0124
18498TIP3    H176985   2.209   4.388  13.568 -0.1996  1.4823  2.0797
18498TIP3    H276986   2.179   4.536  13.566 -0.6465  1.4967 -3.3060
18499TIP3   OH276987   2.851   2.554  14.316 -0.0130  0.0829  0.0238
18499TIP3    H176988   2.854   2.597  14.230  1.0629  0.3052  0.1495
18499TIP3    H276989   2.771   2.586  14.356 -0.7248 -0.3126 -1.0481
18500TIP3   OH276990   5.239   6.229  15.536  0.0936 -0.1804 -0.0156
18500TIP3    H176991   5.226   6.149  15.587 -1.4143 -1.0598 -1.6566
18500TIP3    H276992   5.275   6.198  15.452  2.1288  1.1741  0.2881
18501TIP3   OH276993   4.082   5.308   0.373  0.4920 -0.2436 -0.2171
18501TIP3    H176994   3.989   5.322   0.394 -0.1000 -1.1007 -2.0150
18501TIP3    H276995   4.080   5.268   0.286  2.5098 -1.3578  0.2033
18502TIP3   OH276996   0.630   6.624  17.162 -0.4249  0.5063  0.4055
18502TIP3    H176997   0.708   6.638  17.216 -0.2171  0.5176  0.1018
18502TIP3    H276998   0.561   6.602  17.225 -0.0564 -0.0210  0.6252
18503TIP3   OH276999   1.357   1.587  11.419  0.2783  0.0419  0.1712
18503TIP3    H177000   1.287   1.563  11.480  0.6335 -0.7789  0.2703
18503TIP3    H277001   1.432   1.534  11.447  1.3873  1.9199  0.9581
18504TIP3   OH277002   1.473   1.887   1.202  0.0067  0.0377 -0.0397
18504TIP3    H177003   1.534   1.960   1.196  0.5790 -0.5146 -1.3051
18504TIP3    H277004   1.405   1.907   1.137  0.5739 -0.8978 -0.9477
18505TIP3   OH277005   5.681   6.535   3.645  0.8363  0.6158 -0.5529
18505TIP3    H177006   5.687   6.541   3.741 -2.0456 -0.1322 -0.2057
18505TIP3    H277007   5.745   6.598   3.613  1.6606  1.1487  1.8722
18506TIP3   OH277008   0.898   2.269   0.487 -0.7133 -0.3801  0.0548
18506TIP3    H177009   0.856   2.213   0.422  0.4958  0.2872 -1.3591
18506TIP3    H277010   0.867   2.357   0.467 -1.0021 -0.2643  0.9529
18507TIP3   OH277011   5.807   1.874  16.902 -0.1637  0.0821  0.5583
18507TIP3    H177012   5.765   1.812  16.842 -0.0144 -0.2535  0.7984
18507TIP3    H277013   5.869   1.921  16.847  2.2430 -2.3244  0.9860
18508TIP3   OH277014   2.687   0.038  17.056 -0.5340  0.4889 -0.2403
18508TIP3    H177015   2.661  -0.002  17.139  1.6814 -1.4527 -0.3659
18508TIP3    H277016   2.778   0.065  17.070  0.7678 -2.1240 -2.6630
18509TIP3   OH277017   0.933   3.262   0.535  0.1175  0.5872 -0.0750
18509TIP3    H177018   0.944   3.171   0.509 -2.7009  0.2660 -0.4500
18509TIP3    H277019   0.955   3.313   0.457 -3.2298 -0.1182 -1.6561
18510TIP3   OH277020   6.235   6.561  14.282  0.2253  0.0390 -0.8107
18510TIP3    H177021   6.211   6.601  14.198 -1.7051 -1.3278 -0.9653
18510TIP3    H277022   6.182   6.609  14.346  1.6154  1.0062 -0.3424
18511TIP3   OH277023   6.191   1.076   0.797 -0.1883 -0.0349 -0.2200
18511TIP3    H177024   6.169   1.152   0.743 -1.1582 -1.2158 -1.5407
18511TIP3    H277025   6.110   1.056   0.844 -0.5446 -1.3804 -1.3376
18512TIP3   OH277026   4.707   0.305  13.721 -0.0124  0.3055  0.0588
18512TIP3    H177027   4.751   0.230  13.762 -1.3869 -0.4559  0.2065
18512TIP3    H277028   4.659   0.267  13.647  0.9422  1.3845 -1.1749
18513TIP3   OH277029   4.869   3.756   0.691 -0.4072 -0.2766 -0.2708
18513TIP3    H177030   4.953   3.720   0.722  0.7592  1.9357 -0.6022
18513TIP3    H277031   4.861   3.725   0.601 -0.2329 -0.9777 -0.0498
18514TIP3   OH277032   1.776   1.746  12.537 -0.1470 -0.1151 -0.2231
18514TIP3    H177033   1.716   1.820  12.524 -0.3341 -0.2003  0.1548
18514TIP3    H277034   1.760   1.689  12.462  2.6197  1.9489 -2.6615
18515TIP3   OH277035   3.277   0.809  16.396 -0.4011 -0.6783  0.4583
18515TIP3    H177036   3.323   0.734  16.357  0.0850 -1.3708  2.2412
18515TIP3    H277037   3.339   0.844  16.460 -2.0140 -1.1293  2.3674
18516TIP3   OH277038   2.163   0.589   0.292 -0.4689  0.1866 -0.4955
18516TIP3    H177039   2.202   0.520   0.238 -0.4916  0.2518 -0.5962
18516TIP3    H277040   2.181   0.563   0.382  0.6069  0.6895 -0.5540
18517TIP3   OH277041   4.180   2.957  15.282  0.2566  0.6711 -0.5410
18517TIP3    H177042   4.199   2.871  15.245 -0.1732  0.8872 -1.2747
18517TIP3    H277043   4.088   2.951  15.308  0.1029  1.0516 -0.9965
18518TIP3   OH277044   6.590   3.308  12.760  0.4147 -0.5128 -0.1803
18518TIP3    H177045   6.601   3.378  12.695  1.9963 -2.1114 -1.7790
18518TIP3    H277046   6.524   3.250  12.722  0.2386 -0.6825  0.3759
18519TIP3   OH277047   3.550   0.783  12.638  0.2396 -0.2265  0.0788
18519TIP3    H177048   3.625   0.837  12.663 -1.4403  1.6716  1.3472
18519TIP3    H277049   3.553   0.709  12.699  2.1573 -1.3021 -1.2073
18520TIP3   OH277050   0.226   1.393  11.853  0.1129 -0.1124 -0.5577
18520TIP3    H177051   0.196   1.368  11.766  2.0489 -2.7366 -0.5778
18520TIP3    H277052   0.149   1.380  11.909 -0.4069 -1.0088 -1.4547
18521TIP3   OH277053   3.304   6.324  14.308 -0.1575  0.4083 -0.2909
18521TIP3    H177054   3.338   6.241  14.340  0.1684 -0.6057 -2.9887
18521TIP3    H277055   3.211   6.322  14.331  0.2754  0.3925  1.6533
18522TIP3   OH277056   1.825   5.862  15.761 -0.3900 -0.5490 -0.7199
18522TIP3    H177057   1.778   5.784  15.787  0.9345 -1.7695 -1.7919
18522TIP3    H277058   1.893   5.874  15.827 -0.5722 -0.3175 -0.5732
18523TIP3   OH277059   1.836   6.155   6.525 -0.2390 -0.5461 -0.4121
18523TIP3    H177060   1.811   6.069   6.491 -1.2886  0.1672 -1.5142
18523TIP3    H277061   1.758   6.209   6.514  0.6409  0.7634 -0.4575
18524TIP3   OH277062   0.161   6.016   5.302  0.4876 -0.1134  0.0676
18524TIP3    H177063   0.203   5.982   5.223  0.5601 -3.0141  1.2349
18524TIP3    H277064   0.105   6.087   5.270 -1.0124 -2.3905 -2.9704
18525TIP3   OH277065   1.196   0.680  15.926 -0.1505 -0.1813 -0.9202
18525TIP3    H177066   1.241   0.728  15.857  1.1054  0.4998  0.3151
18525TIP3    H277067   1.266   0.639  15.977 -0.8790  0.9058  1.0727
18526TIP3   OH277068   5.534   6.578   3.025 -0.1372 -0.6328  0.2273
18526TIP3    H177069   5.463   6.540   3.077 -1.7958  0.6796 -0.9559
18526TIP3    H277070   5.611   6.571   3.081 -1.7821  0.5476  2.8253
18527TIP3   OH277071   1.792   3.861   4.292 -0.1069 -0.0530 -0.3352
18527TIP3    H177072   1.867   3.823   4.338 -0.7294 -2.6207 -1.2415
18527TIP3    H277073   1.825   3.882   4.205  0.0758  0.9200 -0.0390
18528TIP3   OH277074   3.645   4.799  12.457 -0.4916 -0.2196  0.0865
18528TIP3    H177075   3.737   4.825  12.455 -0.5334 -0.0455  0.3950
18528TIP3    H277076   3.619   4.812  12.548 -1.0110  0.3935 -0.1431
18529TIP3   OH277077   3.543   6.700   4.913  0.3219  0.4529  0.1057
18529TIP3    H177078   3.478   6.712   4.982  1.2348 -0.4159  1.1692
18529TIP3    H277079   3.627   6.699   4.960  0.8465 -2.4342 -0.6853
18530TIP3   OH277080   6.328   1.089  13.877  0.4655  0.8219  0.8689
18530TIP3    H177081   6.395   1.156  13.866 -1.0207  2.3902  0.9538
18530TIP3    H277082   6.306   1.092  13.970 -1.9303  2.6229  0.3293
18531TIP3   OH277083   0.177   5.278   1.318  0.3524  0.2212 -0.4627
18531TIP3    H177084   0.106   5.333   1.351 -0.3606  0.2157 -1.9117
18531TIP3    H277085   0.185   5.209   1.383 -1.0729  0.1438 -0.3250
18532TIP3   OH277086   3.834   3.726   5.569  0.4235 -0.5645 -0.2136
18532TIP3    H177087   3.742   3.729   5.595  0.6267  0.3547  0.4267
18532TIP3    H277088   3.870   3.651   5.617  0.4644  0.2796  1.1483
18533TIP3   OH277089   6.601   3.731  15.230 -0.2211  0.1050 -0.0030
18533TIP3    H177090   6.645   3.773  15.157  2.0285 -3.8044 -1.1653
18533TIP3    H277091   6.509   3.725  15.203  0.1399  0.7351 -1.4606
18534TIP3   OH277092   1.201   1.205   5.894  0.1766 -0.4924  0.0882
18534TIP3    H177093   1.205   1.208   5.989  0.7815  1.1655  0.0306
18534TIP3    H277094   1.158   1.121   5.875 -3.6230  0.8202  1.9178
18535TIP3   OH277095   4.579   6.037  12.187  0.0573  0.4090 -0.2208
18535TIP3    H177096   4.590   6.029  12.092 -0.9255 -0.9419 -0.2503
18535TIP3    H277097   4.619   6.122  12.209 -0.4728  1.1552 -1.9615
18536TIP3   OH277098   2.920   0.659  11.848 -0.5307 -0.2588  0.2033
18536TIP3    H177099   2.922   0.714  11.769  0.6497 -0.6141 -0.0399
18536TIP3    H277100   3.011   0.629  11.858 -1.3340 -3.2031 -0.4079
18537TIP3   OH277101   2.685   5.651   4.646  0.2493 -0.1088  0.3910
18537TIP3    H177102   2.607   5.597   4.633  1.1161 -1.3062 -0.0211
18537TIP3    H277103   2.662   5.709   4.718 -0.6850 -1.1142  0.9407
18538TIP3   OH277104   5.426   3.194   6.517 -0.0822  0.0367 -0.4145
18538TIP3    H177105   5.458   3.105   6.529 -2.3758 -0.8301 -0.1533
18538TIP3    H277106   5.340   3.183   6.475 -0.5960  2.1048 -0.0294
18539TIP3   OH277107   6.665   3.576   4.395 -0.5452  0.1703  0.1901
18539TIP3    H177108   6.702   3.526   4.468  2.1560  0.7213 -0.6620
18539TIP3    H277109   6.676   3.667   4.421 -0.0888  0.3577 -0.6242
18540TIP3   OH277110   4.657   2.716   4.536  0.2593  0.3055  0.1544
18540TIP3    H177111   4.624   2.720   4.447  0.8305  0.2484 -0.0662
18540TIP3    H277112   4.692   2.627   4.545 -0.5184  0.0436  0.7014
18541TIP3   OH277113   0.153   0.340   0.175 -0.2366  0.3352 -0.4833
18541TIP3    H177114   0.227   0.315   0.120 -0.1372  0.6347 -0.4827
18541TIP3    H277115   0.191   0.392   0.245 -0.0991 -1.4681  0.8670
18542TIP3   OH277116   5.175   0.074  14.742  0.6646  0.4857 -0.0663
18542TIP3    H177117   5.245   0.070  14.807 -0.2036  0.6621  0.9074
18542TIP3    H277118   5.210   0.028  14.666  1.0449 -1.3637  1.1590
18543TIP3   OH277119   4.440   4.273   5.563 -0.0180 -0.0000  0.2125
18543TIP3    H177120   4.468   4.342   5.624  1.4161  1.0033 -1.4609
18543TIP3    H277121   4.356   4.304   5.529  0.5269  0.8605 -0.3843
18544TIP3   OH277122   3.057   3.064   3.885 -0.1106 -0.4225 -0.7360
18544TIP3    H177123   3.144   3.085   3.850 -0.2653  1.4990 -0.0859
18544TIP3    H277124   3.022   3.000   3.823  0.4989  1.2084 -2.9187
18545TIP3   OH277125   6.481   5.263  14.196  0.3785 -0.2496 -0.1362
18545TIP3    H177126   6.449   5.173  14.186 -0.3748 -0.0294  0.2226
18545TIP3    H277127   6.563   5.265  14.147  0.9778 -1.4345  0.7460
18546TIP3   OH277128   2.563   0.919   1.211  0.6619 -0.0705  0.2181
18546TIP3    H177129   2.528   0.856   1.273  1.5463 -0.6509  0.1462
18546TIP3    H277130   2.487   0.969   1.182 -0.0104 -0.9177  0.4854
18547TIP3   OH277131   4.190   0.215  16.443  0.4723 -0.1841 -0.3749
18547TIP3    H177132   4.211   0.239  16.533 -0.9913  0.9276 -0.3111
18547TIP3    H277133   4.131   0.140  16.451  0.7587 -0.4200 -0.4387
18548TIP3   OH277134   0.323   2.918   3.310  0.5808  0.5138  0.6033
18548TIP3    H177135   0.418   2.919   3.315  0.6655 -0.0621 -0.6008
18548TIP3    H277136   0.303   2.883   3.223 -0.7375  0.1861  1.0099
18549TIP3   OH277137   0.485   6.323  14.983  0.2919  0.3891 -0.1555
18549TIP3    H177138   0.558   6.268  15.010  1.8771  1.4962 -1.8881
18549TIP3    H277139   0.455   6.284  14.900 -0.7253  0.3096  0.2246
18550TIP3   OH277140   3.587   0.501  11.468  0.2956  0.5112 -0.2909
18550TIP3    H177141   3.633   0.519  11.550  0.2246 -0.0779 -0.1241
18550TIP3    H277142   3.657   0.487  11.404  0.3498  0.8490 -0.3096
18551TIP3   OH277143   5.010   4.716  10.864 -1.1232  0.0837  0.4257
18551TIP3    H177144   4.929   4.742  10.821 -0.3430  2.2810  0.1774
18551TIP3    H277145   5.051   4.799  10.891  0.4372 -1.0250  1.6606
18552TIP3   OH277146   0.136   4.323   4.326  0.4681  0.5147  0.0501
18552TIP3    H177147   0.184   4.377   4.389  1.3324  0.9213 -0.9307
18552TIP3    H277148   0.205   4.283   4.272 -0.1653 -1.1705  0.4140
18553TIP3   OH277149   0.889   1.546   4.137  0.5300  0.1825 -0.2958
18553TIP3    H177150   0.904   1.451   4.129 -0.0885  0.1511 -1.2836
18553TIP3    H277151   0.943   1.572   4.212  0.0034 -1.0992  0.5775
18554TIP3   OH277152   1.558   4.613  14.334  0.5461  0.0551 -0.5164
18554TIP3    H177153   1.534   4.528  14.297 -1.2525  0.7450 -1.0620
18554TIP3    H277154   1.592   4.663  14.260  0.7710  0.1136 -0.3769
18555TIP3   OH277155   2.560   0.869   3.032 -0.0684 -0.1273  0.0774
18555TIP3    H177156   2.624   0.808   2.996  1.5785  1.3235  0.4347
18555TIP3    H277157   2.569   0.862   3.126 -0.4620  0.0701  0.1341
18556TIP3   OH277158   0.194   3.293  15.961  0.7673 -0.1000 -0.0599
18556TIP3    H177159   0.132   3.284  15.888  2.5822 -1.3944 -1.5528
18556TIP3    H277160   0.268   3.340  15.923  1.9826 -1.2747  0.7877
18557TIP3   OH277161   3.615   1.956   6.638 -0.0613  0.0904 -0.3393
18557TIP3    H177162   3.579   1.964   6.726 -1.3605  1.3822 -0.9455
18557TIP3    H277163   3.548   1.910   6.589  0.7894 -0.9023 -0.6064
18558TIP3   OH277164   0.357   4.389  10.368 -0.7950 -0.6691  0.3479
18558TIP3    H177165   0.304   4.425  10.439 -0.6520 -1.3631  0.8253
18558TIP3    H277166   0.309   4.312  10.339 -0.1706 -1.1771  0.6375
18559TIP3   OH277167   5.319   0.019  13.055 -0.3517  0.2565 -0.4978
18559TIP3    H177168   5.343   0.108  13.029  2.0820 -0.2400 -0.1973
18559TIP3    H277169   5.403  -0.027  13.064 -1.1346 -0.7419  4.1439
18560TIP3   OH277170   6.456   5.186   2.004  0.4040  0.4981 -0.2120
18560TIP3    H177171   6.401   5.111   1.979  1.1265 -0.3696  0.6938
18560TIP3    H277172   6.524   5.189   1.937  0.7053 -0.0405  0.0607
18561TIP3   OH277173   6.824   5.164   1.619  0.2027 -0.0836 -0.5567
18561TIP3    H177174   6.917   5.158   1.638  0.5154  1.5428 -1.3856
18561TIP3    H277175   6.798   5.076   1.593  0.9569 -1.1304  1.9182
18562TIP3   OH277176   5.079   0.940   2.021  0.1660  0.5563 -0.4194
18562TIP3    H177177   5.068   0.880   1.947 -0.4388  0.1603 -0.0135
18562TIP3    H277178   4.996   0.986   2.027  0.6089  1.4120 -0.6960
18563TIP3   OH277179   3.090   5.661  13.486 -0.4092 -0.1801 -0.5360
18563TIP3    H177180   3.052   5.631  13.404 -0.6900  1.3710 -1.0087
18563TIP3    H277181   3.015   5.685  13.540 -0.1886  0.1419 -0.3667
18564TIP3   OH277182   4.989   6.532   0.043  0.5752 -0.1676 -0.2893
18564TIP3    H177183   4.903   6.566   0.018  0.6757  1.8563  1.7124
18564TIP3    H277184   5.022   6.488  -0.035 -1.5782  0.4683 -1.6288
18565TIP3   OH277185   3.119   5.892   3.462  0.0735 -0.3528  1.1080
18565TIP3    H177186   3.052   5.826   3.480  0.2371 -1.1020 -0.8034
18565TIP3    H277187   3.079   5.951   3.398  1.5119 -1.4627 -0.9471
18566TIP3   OH277188   1.136   4.747  15.780 -0.0956 -0.3972 -0.8096
18566TIP3    H177189   1.150   4.661  15.820  1.1591  0.9868  2.0656
18566TIP3    H277190   1.051   4.775  15.816 -0.4794 -0.3882 -1.7041
18567TIP3   OH277191   4.183   5.211   4.514  0.0057  0.0647 -0.7308
18567TIP3    H177192   4.211   5.256   4.593  0.3363  0.1062 -0.8655
18567TIP3    H277193   4.210   5.120   4.528 -0.4915 -0.0518 -0.5377
18568TIP3   OH277194   0.753   1.332   3.899  0.2817  0.1471  0.1549
18568TIP3    H177195   0.711   1.377   3.826  0.6840  0.4537  0.1060
18568TIP3    H277196   0.845   1.324   3.872  0.4380  0.2801  0.6335
18569TIP3   OH277197   3.933   1.634  15.644 -0.5543 -0.0760  0.1969
18569TIP3    H177198   3.892   1.681  15.572  0.1938  0.2896  0.0023
18569TIP3    H277199   3.963   1.703  15.704  0.4604 -0.2867 -0.0428
18570TIP3   OH277200   5.188   2.539  15.837  0.2768  0.3663 -0.1186
18570TIP3    H177201   5.152   2.457  15.802  0.9403 -0.9124  1.9979
18570TIP3    H277202   5.172   2.604  15.768 -0.1070 -1.5664 -1.9387
18571TIP3   OH277203   2.724   2.338   0.080 -0.6288 -0.4295 -0.3673
18571TIP3    H177204   2.797   2.333   0.019  0.4626  0.4234  0.8089
18571TIP3    H277205   2.651   2.297   0.034  0.3280 -0.4315 -1.9515
18572TIP3   OH277206   0.001   1.149   5.066  0.0730  0.2504 -0.2394
18572TIP3    H177207  -0.068   1.083   5.069  2.4903 -2.5554 -1.4250
18572TIP3    H277208   0.061   1.125   5.137  2.2365 -0.4523 -2.1743
18573TIP3   OH277209   0.221   4.513  15.125  0.5477 -0.3224  0.4188
18573TIP3    H177210   0.150   4.576  15.111  0.9582 -0.0176 -0.3071
18573TIP3    H277211   0.176   4.428  15.128  0.1223 -0.1096  0.1894
18574TIP3   OH277212   5.931   1.603  15.442 -0.4456 -0.1277 -0.5935
18574TIP3    H177213   6.002   1.638  15.389 -0.5343  0.6244 -0.2309
18574TIP3    H277214   5.967   1.523  15.481  0.0960  0.0935 -0.6399
18575TIP3   OH277215   3.468   0.114  15.671  0.4254  0.3228 -0.2247
18575TIP3    H177216   3.455   0.029  15.713  0.4204  0.0707 -0.7215
18575TIP3    H277217   3.536   0.157  15.723 -0.5094  0.5688  0.8254
18576TIP3   OH277218   0.145   5.094  13.482 -0.2497  0.1361  0.2405
18576TIP3    H177219   0.204   5.169  13.479 -0.0291 -0.0451 -2.6655
18576TIP3    H277220   0.077   5.115  13.418 -2.1818 -0.6374  1.9245
18577TIP3   OH277221   0.322   3.331   0.844 -0.7000  0.4738 -0.3485
18577TIP3    H177222   0.286   3.406   0.890 -1.9687 -0.9301  1.0283
18577TIP3    H277223   0.417   3.344   0.847 -0.8879  1.7491  0.3108
18578TIP3   OH277224   6.583   3.424  15.385 -0.2161 -0.8365  0.1902
18578TIP3    H177225   6.518   3.473  15.334  1.1465  0.7064 -0.1728
18578TIP3    H277226   6.618   3.360  15.323  0.3556  0.0202 -0.4112
18579TIP3   OH277227   0.688   2.529  17.056 -0.2994 -0.2132 -0.1930
18579TIP3    H177228   0.669   2.500  17.145  1.5231 -0.3247  0.2015
18579TIP3    H277229   0.765   2.480  17.031 -1.4393 -1.0234 -2.3132
18580TIP3   OH277230   4.352   4.336   3.638  0.3315  0.0322  0.0950
18580TIP3    H177231   4.258   4.328   3.654  0.2477  1.2417  0.3210
18580TIP3    H277232   4.390   4.349   3.725  0.4741  1.4806 -0.1656
18581TIP3   OH277233   1.867   0.773   5.519 -0.1804  0.0593 -0.1526
18581TIP3    H177234   1.779   0.806   5.538 -0.6388 -1.3118  0.2426
18581TIP3    H277235   1.888   0.807   5.432 -2.1360 -1.5654 -1.3489
18582TIP3   OH277236   5.438   0.288   2.638  0.1305 -0.3769 -0.6262
18582TIP3    H177237   5.441   0.220   2.571 -0.2799 -0.5406 -0.4869
18582TIP3    H277238   5.367   0.346   2.610 -0.7234 -0.9992  0.1675
18583TIP3   OH277239   4.553   6.406   4.608  0.2702  0.0338 -0.6532
18583TIP3    H177240   4.503   6.447   4.679  0.4003 -1.2682  0.2159
18583TIP3    H277241   4.502   6.425   4.529 -1.0272 -0.3122  0.0613
18584TIP3   OH277242   4.223   3.319   1.462 -0.4475 -0.3932 -0.6750
18584TIP3    H177243   4.226   3.408   1.498  0.2642 -0.4973 -0.4525
18584TIP3    H277244   4.155   3.275   1.513 -0.6779 -0.0274 -0.6624
18585TIP3   OH277245   0.961   0.545   2.969 -0.1686 -0.3344  0.3229
18585TIP3    H177246   0.971   0.450   2.970 -0.5198 -0.3739  0.6293
18585TIP3    H277247   1.045   0.579   2.939 -0.5470 -0.7955 -1.3394
18586TIP3   OH277248   2.459   2.766   2.437  0.5807  0.3573  0.0433
18586TIP3    H177249   2.497   2.722   2.513 -0.9829 -0.5981  0.2994
18586TIP3    H277250   2.409   2.839   2.474 -1.9222 -1.3211  0.1992
18587TIP3   OH277251   6.172   0.515   2.700 -0.2023 -0.0955  0.1007
18587TIP3    H177252   6.197   0.540   2.611  2.0954  0.0172  0.7022
18587TIP3    H277253   6.219   0.432   2.715 -2.2456 -1.2420  0.5186
18588TIP3   OH277254   0.221   1.827  11.577 -0.5707  0.1233 -0.3926
18588TIP3    H177255   0.147   1.879  11.546 -1.2321 -0.1657  0.6732
18588TIP3    H277256   0.260   1.879  11.647 -0.6311 -0.3530  0.0045
18589TIP3   OH277257   6.264   3.549  11.500 -0.0293  0.0674 -0.4661
18589TIP3    H177258   6.349   3.508  11.481  0.2165  0.1176  0.4671
18589TIP3    H277259   6.243   3.521  11.589 -0.5718  0.7737 -0.3581
18590TIP3   OH277260   0.970   4.657   0.191 -0.3406 -0.3045 -0.5867
18590TIP3    H177261   0.933   4.608   0.118 -0.2230  0.9745 -1.5375
18590TIP3    H277262   1.048   4.699   0.155 -0.3473  0.4472  0.2386
18591TIP3   OH277263   3.986   2.214  15.647  0.7009  0.1118 -0.0677
18591TIP3    H177264   3.893   2.231  15.662  0.5328 -1.7116  1.2918
18591TIP3    H277265   4.031   2.284  15.694  0.0315  0.3051  0.3069
18592TIP3   OH277266   6.406   0.847  11.854 -0.1809 -0.2634 -0.0294
18592TIP3    H177267   6.489   0.800  11.856 -0.2381 -0.3504  0.2624
18592TIP3    H277268   6.394   0.869  11.761  1.2494  1.6829  0.1730
18593TIP3   OH277269   2.815   0.246  15.267  0.7116  0.4047 -0.1565
18593TIP3    H177270   2.821   0.328  15.218  1.4097  0.7964  0.5695
18593TIP3    H277271   2.870   0.260  15.344 -0.3812 -0.1883  0.7648
18594TIP3   OH277272   1.943   1.711   5.786 -0.3236  0.0170 -0.2312
18594TIP3    H177273   1.915   1.736   5.874 -2.1390  2.3915 -1.3640
18594TIP3    H277274   1.963   1.794   5.743 -1.9168 -0.8106 -2.7840
18595TIP3   OH277275   5.007   6.283   4.437 -0.2143 -0.0509 -0.2022
18595TIP3    H177276   5.058   6.285   4.518 -2.3124 -1.1453  1.2149
18595TIP3    H277277   4.930   6.336   4.455 -1.2688 -1.2261 -1.0544
18596TIP3   OH277278   1.822   1.125   4.145  0.0840  0.0346 -0.5956
18596TIP3    H177279   1.735   1.165   4.146 -0.2951 -0.7432 -1.4272
18596TIP3    H277280   1.850   1.131   4.054  0.8393  0.1401 -0.3568
18597TIP3   OH277281   5.084   3.584   5.703 -0.0991 -0.4477 -0.2426
18597TIP3    H177282   4.998   3.604   5.665 -0.3967 -0.0655  0.6005
18597TIP3    H277283   5.131   3.540   5.633 -0.3393  0.9293 -1.3300
18598TIP3   OH277284   2.242   2.378   1.571 -0.3730  0.0802 -0.7805
18598TIP3    H177285   2.262   2.426   1.652  1.0536 -3.2093  1.0161
18598TIP3    H277286   2.277   2.433   1.501  0.8253  1.8161  1.0777
18599TIP3   OH277287   3.451   0.193   5.056  0.6536  0.0387 -0.6002
18599TIP3    H177288   3.368   0.217   5.099 -0.1054 -0.5809 -1.6768
18599TIP3    H277289   3.445   0.231   4.968  1.3341 -0.3752 -0.8328
18600TIP3   OH277290   2.694   5.168   3.775 -0.2794  0.4929  0.4111
18600TIP3    H177291   2.725   5.243   3.724  1.4562 -0.6470 -0.2847
18600TIP3    H277292   2.741   5.175   3.858  0.5668 -0.2679  0.0160
18601TIP3   OH277293   0.752   3.436  10.352  0.3169 -0.2446 -0.5380
18601TIP3    H177294   0.704   3.354  10.336 -0.5136  0.2945 -0.8746
18601TIP3    H277295   0.783   3.462  10.266  2.2318 -1.1712 -0.1787
18602TIP3   OH277296   4.448   3.179  11.889  0.4114 -0.4190  0.1041
18602TIP3    H177297   4.371   3.236  11.887 -0.9446 -2.1323  1.0001
18602TIP3    H277298   4.503   3.217  11.958 -0.0029  0.3469  0.0311
18603TIP3   OH277299   1.708   3.901  13.633 -0.0585 -0.3242  0.1299
18603TIP3    H177300   1.757   3.822  13.610 -1.1798 -0.8803 -0.4239
18603TIP3    H277301   1.759   3.941  13.703  1.0642 -0.9942 -0.2817
18604TIP3   OH277302   3.630   1.082  14.742 -0.2516 -0.7941  0.1849
18604TIP3    H177303   3.622   1.083  14.647 -0.0732 -0.2809  0.1700
18604TIP3    H277304   3.543   1.108  14.774 -0.4726 -1.5020  0.1808
18605TIP3   OH277305   6.781   2.567  16.940  0.1575  0.6082 -0.2748
18605TIP3    H177306   6.773   2.479  16.903 -2.1226  0.6819 -0.0887
18605TIP3    H277307   6.846   2.611  16.884  0.8171 -0.9580 -0.7885
18606TIP3   OH277308   3.935   6.041   5.021  0.1444  0.2659  0.3038
18606TIP3    H177309   3.943   6.000   5.107 -0.9440 -0.7700 -0.0547
18606TIP3    H277310   4.016   6.091   5.010  0.6652 -0.2628  1.5678
18607TIP3   OH277311   0.741   4.564  13.837  0.1636 -0.6492  0.4770
18607TIP3    H177312   0.667   4.513  13.805 -1.5512  1.5712  0.6652
18607TIP3    H277313   0.809   4.498  13.856 -0.5344 -2.4986 -2.7256
18608TIP3   OH277314   5.904   0.851   4.265 -0.5692  0.4112 -0.0026
18608TIP3    H177315   5.946   0.786   4.322 -0.3195  0.1151 -0.5211
18608TIP3    H277316   5.812   0.826   4.264 -0.7324  0.8951  0.9105
18609TIP3   OH277317   1.209   5.253  12.148  0.0070  0.3255  0.2404
18609TIP3    H177318   1.227   5.340  12.184  0.4632  0.4507 -0.2743
18609TIP3    H277319   1.212   5.194  12.223  0.9240  0.5863  0.4150
18610TIP3   OH277320   2.111   4.866   5.312  0.4721  0.0900 -0.3679
18610TIP3    H177321   2.120   4.857   5.407  1.8020 -0.4027 -0.5127
18610TIP3    H277322   2.157   4.947   5.291 -1.3710  1.1614 -0.4099
18611TIP3   OH277323   3.848   4.176   0.128  0.1500 -0.4641  0.4587
18611TIP3    H177324   3.784   4.106   0.141  0.6899 -1.2861 -1.1176
18611TIP3    H277325   3.854   4.219   0.214 -0.6365 -1.9580  1.2952
18612TIP3   OH277326   0.575   6.603   4.132 -0.1307  0.0689  0.3545
18612TIP3    H177327   0.664   6.616   4.099  0.9329 -3.0806  1.5857
18612TIP3    H277328   0.519   6.649   4.069  2.1917  0.1862 -1.7904
18613TIP3   OH277329   0.777   3.588  14.413  0.1484 -0.0432  0.2115
18613TIP3    H177330   0.810   3.510  14.368  0.2953 -0.0377  0.3063
18613TIP3    H277331   0.740   3.642  14.344  3.2402  1.4618 -0.4327
18614TIP3   OH277332   3.409   5.436   1.434  0.2836 -0.7895 -0.5932
18614TIP3    H177333   3.350   5.490   1.487  2.4864  0.8127  0.4072
18614TIP3    H277334   3.399   5.470   1.346 -0.4639 -0.7114 -0.4848
18615TIP3   OH277335   2.914   0.972  11.222  0.5614 -0.1367 -0.1094
18615TIP3    H177336   2.840   0.932  11.268  0.5299 -1.3146 -1.1433
18615TIP3    H277337   2.989   0.958  11.280 -0.1358  1.8624  1.3708
18616TIP3   OH277338   5.990   0.424  14.133  1.0114  0.5279 -0.0162
18616TIP3    H177339   5.952   0.389  14.053  0.8304 -0.1028  0.3435
18616TIP3    H277340   6.006   0.516  14.113  2.1827  0.0898 -1.2278
18617TIP3   OH277341   5.569   4.632  11.125  0.0045  0.0496 -0.2268
18617TIP3    H177342   5.473   4.632  11.128  0.0159  0.1152  1.9944
18617TIP3    H277343   5.595   4.688  11.199  1.7527 -2.4258  1.1677
18618TIP3   OH277344   3.349   4.293   0.991  0.0259  0.2274 -0.2760
18618TIP3    H177345   3.426   4.348   1.000  0.7452 -0.9008  0.8487
18618TIP3    H277346   3.379   4.204   1.013 -1.3328 -0.4317 -0.9150
18619TIP3   OH277347   3.338   2.761   3.809 -0.0858  0.7965  0.1764
18619TIP3    H177348   3.284   2.717   3.875  0.6365  2.6814  2.1384
18619TIP3    H277349   3.391   2.691   3.770 -1.3250 -0.5342  0.7738
18620TIP3   OH277350   2.754   3.334   4.885 -0.7819 -0.2165 -0.5789
18620TIP3    H177351   2.838   3.308   4.924 -1.0483 -0.9182 -0.4772
18620TIP3    H277352   2.728   3.260   4.830 -2.0660 -0.6455  0.5519
18621TIP3   OH277353   6.096   3.358  15.225 -0.1428  0.0611  0.5340
18621TIP3    H177354   6.057   3.388  15.307 -0.8348  0.3284  0.1161
18621TIP3    H277355   6.042   3.398  15.157 -0.0555 -0.7831 -0.0472
18622TIP3   OH277356   0.697   6.031   4.448  0.1394  0.4625 -0.2888
18622TIP3    H177357   0.639   6.072   4.384  0.8364 -0.3275 -1.4450
18622TIP3    H277358   0.779   6.016   4.401 -0.4750 -3.5707 -0.4298
18623TIP3   OH277359   5.294   6.598  12.386  0.0676  0.1132 -0.0893
18623TIP3    H177360   5.371   6.603  12.443  1.5618 -2.4576 -1.6756
18623TIP3    H277361   5.279   6.688  12.357  0.6129  1.1333  2.5101
18624TIP3   OH277362   0.332   6.084  12.575 -0.0933 -0.0790 -0.1095
18624TIP3    H177363   0.284   6.079  12.492  0.8257  0.6292 -0.6916
18624TIP3    H277364   0.316   5.999  12.617 -2.1457  0.2473 -0.1117
18625TIP3   OH277365   3.126   5.197  12.883  0.3112 -0.0102  0.6886
18625TIP3    H177366   3.217   5.223  12.899 -0.1085  1.7915  0.4053
18625TIP3    H277367   3.086   5.196  12.970  0.2223  0.8062  0.6638
18626TIP3   OH277368   6.346   6.623   1.738 -0.0569 -0.1487  0.1099
18626TIP3    H177369   6.325   6.544   1.687 -0.9532  0.0667  0.1211
18626TIP3    H277370   6.441   6.625   1.741  0.0036 -0.3844 -1.2200
18627TIP3   OH277371   0.498   5.424   1.945 -0.2383 -0.3465 -0.1450
18627TIP3    H177372   0.515   5.500   1.889  2.6792  0.3815  1.5272
18627TIP3    H277373   0.556   5.356   1.911 -0.9147 -0.9998 -0.0201
18628TIP3   OH277374   2.144   2.674   5.202  0.1688  0.1947 -0.5395
18628TIP3    H177375   2.221   2.680   5.257  0.1460  0.6339 -0.5506
18628TIP3    H277376   2.166   2.608   5.136  1.1475  1.4538 -1.5153
18629TIP3   OH277377   1.077   2.185   2.780 -0.0265 -0.0663 -0.8757
18629TIP3    H177378   1.001   2.219   2.734 -0.8126  1.3064  1.2606
18629TIP3    H277379   1.118   2.125   2.718 -2.7531 -0.7763 -2.1401
18630TIP3   OH277380   3.625   2.298  12.053 -0.0751 -0.2463 -0.9757
18630TIP3    H177381   3.612   2.255  11.968  1.4839 -1.5611 -0.6010
18630TIP3    H277382   3.564   2.255  12.111  0.5883 -1.0961 -0.8929
18631TIP3   OH277383   3.519   3.623  11.242 -0.1087  0.0395 -0.6406
18631TIP3    H177384   3.567   3.552  11.199  0.3123  0.3853 -0.7525
18631TIP3    H277385   3.473   3.667  11.170 -1.1835 -0.7175 -0.4494
18632TIP3   OH277386   1.594   1.729  13.654 -0.2788 -0.2542 -0.0592
18632TIP3    H177387   1.586   1.752  13.561 -0.6806 -1.0998 -0.2370
18632TIP3    H277388   1.652   1.797  13.690 -2.0514  1.5178 -0.3815
18633TIP3   OH277389   5.263   1.809   4.225 -0.3131  0.5245 -0.3811
18633TIP3    H177390   5.211   1.872   4.275  0.7428  0.1424  1.2856
18633TIP3    H277391   5.329   1.862   4.181  0.0347  0.6794  0.3167
18634TIP3   OH277392   5.707   2.268   0.854  0.5154  0.6960 -0.0281
18634TIP3    H177393   5.756   2.243   0.776  0.0693  0.7998 -0.3509
18634TIP3    H277394   5.617   2.239   0.836  0.0072  2.3422 -0.3524
18635TIP3   OH277395   1.404   4.446   6.074 -0.4226 -0.1148  0.2938
18635TIP3    H177396   1.433   4.386   6.142  1.4141  0.4472  0.0484
18635TIP3    H277397   1.484   4.486   6.041 -1.4184  0.8683 -1.0461
18636TIP3   OH277398   1.241   4.397  12.559 -0.3831  0.1221  0.3427
18636TIP3    H177399   1.296   4.431  12.630 -1.1908  1.6588  0.2758
18636TIP3    H277400   1.254   4.459  12.487 -0.9733 -0.3998 -0.2256
18637TIP3   OH277401   1.174   1.006   3.798 -0.2237  0.5163 -0.4992
18637TIP3    H177402   1.265   0.980   3.786 -0.1771  0.5188 -0.1370
18637TIP3    H277403   1.136   0.999   3.710 -0.2202 -0.8206 -0.4096
18638TIP3   OH277404   5.316   4.510  10.873 -0.3944 -0.2339 -0.3287
18638TIP3    H177405   5.321   4.416  10.858  2.5506 -0.3287  0.6415
18638TIP3    H277406   5.307   4.548  10.785  0.6977 -1.3330 -0.9318
18639TIP3   OH277407   0.440   4.438   1.382 -0.0851  0.2415  0.5716
18639TIP3    H177408   0.474   4.428   1.471  1.3496 -0.8073 -0.0526
18639TIP3    H277409   0.440   4.349   1.346 -1.4412  0.5305 -0.2112
18640TIP3   OH277410   3.937   1.844  13.443  0.5336  0.3058  0.2285
18640TIP3    H177411   3.858   1.880  13.401 -0.3569  0.0951  1.6572
18640TIP3    H277412   3.912   1.833  13.535  2.3467  0.5342  0.7805
18641TIP3   OH277413   0.531   0.794  15.733  0.3195 -0.2364 -0.5591
18641TIP3    H177414   0.504   0.854  15.663  1.4384  1.2155  0.1933
18641TIP3    H277415   0.620   0.822  15.755 -0.2132 -0.2363  1.8468
18642TIP3   OH277416   1.338   6.124  12.021 -0.6164  0.0704 -0.5194
18642TIP3    H177417   1.327   6.074  11.940 -1.4918  1.2927 -1.1934
18642TIP3    H277418   1.319   6.062  12.091 -1.2575 -0.6457 -1.3076
18643TIP3   OH277419   2.877   3.032   3.185 -0.4265  0.3485 -0.3733
18643TIP3    H177420   2.925   2.986   3.254  0.7870 -1.6553 -2.3971
18643TIP3    H277421   2.910   3.122   3.190  0.9302 -0.1589  0.5573
18644TIP3   OH277422   1.478   0.888   1.973 -0.1666 -0.0693 -0.4861
18644TIP3    H177423   1.554   0.901   1.916 -0.1487 -0.2463 -0.5025
18644TIP3    H277424   1.416   0.955   1.945 -0.0684 -0.0094 -0.5617
18645TIP3   OH277425   0.314   0.697  12.116 -0.1237  0.1812  0.1880
18645TIP3    H177426   0.360   0.614  12.109  0.2131  0.4216 -0.4862
18645TIP3    H277427   0.348   0.750  12.044 -0.2227  0.9598  0.7052
18646TIP3   OH277428   1.678   2.039  16.058 -0.7300 -0.0908  0.5089
18646TIP3    H177429   1.765   2.003  16.040 -0.9793 -0.3429 -0.2285
18646TIP3    H277430   1.685   2.132  16.036 -0.6202 -0.0938  0.5329
18647TIP3   OH277431   5.052   3.121  14.323  0.3857  0.3721 -0.1940
18647TIP3    H177432   5.039   3.076  14.240  0.6084 -0.5857  0.2748
18647TIP3    H277433   5.139   3.161  14.316 -0.6970  2.7097 -1.4797
18648TIP3   OH277434   2.712   4.094   2.595  0.8986 -0.5286 -0.3283
18648TIP3    H177435   2.750   4.021   2.645 -1.8757 -1.1119  1.1452
18648TIP3    H277436   2.725   4.170   2.651  1.6231 -0.3294 -0.7522
18649TIP3   OH277437   5.898   5.647  10.451  0.1751 -0.1297  0.2156
18649TIP3    H177438   5.930   5.557  10.446  1.4548  0.3307 -0.2217
18649TIP3    H277439   5.972   5.701  10.422 -1.3599  0.9039 -2.1143
18650TIP3   OH277440   4.328   0.232   1.628 -0.4026  0.4435  0.8767
18650TIP3    H177441   4.250   0.188   1.593 -0.5050  0.0726  1.5443
18650TIP3    H277442   4.301   0.265   1.713 -0.2418  1.5915  0.5014
18651TIP3   OH277443   1.615   2.981   2.647 -0.1828 -0.4091 -0.2836
18651TIP3    H177444   1.641   2.911   2.588  0.7177 -0.6557  0.3975
18651TIP3    H277445   1.697   3.019   2.677 -0.6517  0.8683 -0.5485
18652TIP3   OH277446   5.298   5.319  16.698  0.5894 -0.4851 -0.3283
18652TIP3    H177447   5.363   5.321  16.769 -1.2124  0.8387  1.3937
18652TIP3    H277448   5.215   5.307  16.743 -0.6636  0.7502 -2.2180
18653TIP3   OH277449   1.808   1.786  12.814  0.5662  0.2294  0.5181
18653TIP3    H177450   1.895   1.760  12.843  0.3830  0.6120  1.4731
18653TIP3    H277451   1.804   1.760  12.722  1.3038 -0.7499  0.7403
18654TIP3   OH277452   2.160   3.537   2.282 -0.4135 -0.6877  0.4582
18654TIP3    H177453   2.071   3.563   2.308 -0.1740  0.2578  0.3746
18654TIP3    H277454   2.147   3.470   2.215 -1.0523 -1.2024  1.0715
18655TIP3   OH277455   6.148   2.903   0.671  0.3955 -0.2738 -0.3082
18655TIP3    H177456   6.100   2.926   0.591 -1.4350  1.3197  1.1403
18655TIP3    H277457   6.142   2.808   0.676 -0.8649 -0.2723 -1.2407
18656TIP3   OH277458   5.020   6.383   0.270  0.0289 -0.3768 -0.7776
18656TIP3    H177459   4.934   6.398   0.308  1.0858  0.7929  1.3898
18656TIP3    H277460   5.023   6.439   0.193 -1.4345 -1.1243 -1.4077
18657TIP3   OH277461   6.697   0.881  10.731  0.0369 -0.7280 -0.0927
18657TIP3    H177462   6.758   0.948  10.700 -0.5745  0.1962  0.6597
18657TIP3    H277463   6.753   0.817  10.775  0.4636  0.3864  1.0811
18658TIP3   OH277464   4.348   5.066   2.238  0.3618  0.2600  0.1391
18658TIP3    H177465   4.324   5.003   2.170 -0.8814 -1.4304  2.0505
18658TIP3    H277466   4.265   5.092   2.278  1.0781  1.0339  1.1850
18659TIP3   OH277467   1.405   6.356  13.489 -0.3189  0.5134  0.0735
18659TIP3    H177468   1.430   6.370  13.580  0.4249  0.7174 -0.1512
18659TIP3    H277469   1.484   6.377  13.439 -0.9263  1.1195 -0.6659
18660TIP3   OH277470   2.238   3.755   5.084 -0.0711 -0.7307 -0.0627
18660TIP3    H177471   2.294   3.679   5.071  0.0783 -0.4988 -0.8507
18660TIP3    H277472   2.199   3.771   4.998  0.1734  0.2828 -0.0079
18661TIP3   OH277473   4.318   0.752   4.134  0.0522  0.0425  0.1723
18661TIP3    H177474   4.341   0.698   4.209  0.4648 -0.5670 -0.3851
18661TIP3    H277475   4.241   0.709   4.097 -1.1360  1.2282  1.1471
18662TIP3   OH277476   1.926   3.910   0.468  0.5121 -0.0788 -0.3126
18662TIP3    H177477   1.848   3.908   0.522  0.1749 -0.5188 -0.8059
18662TIP3    H277478   1.921   3.830   0.416  0.7836  0.3810 -1.0562
18663TIP3   OH277479   1.525   4.814  14.933 -0.4462 -0.4824  0.3735
18663TIP3    H177480   1.430   4.801  14.923 -0.8203  2.3473 -0.7384
18663TIP3    H277481   1.564   4.745  14.879 -1.9495 -0.5339 -0.7355
18664TIP3   OH277482   5.249   3.264   3.330  0.6225 -0.5314  0.1204
18664TIP3    H177483   5.287   3.351   3.320 -0.5133 -0.2164 -2.2844
18664TIP3    H277484   5.325   3.205   3.335  1.4541  0.3569 -1.3269
18665TIP3   OH277485   2.893   3.056  12.862 -0.2778  0.0818 -0.3078
18665TIP3    H177486   2.905   3.140  12.905 -1.5906  0.5784 -0.8696
18665TIP3    H277487   2.981   3.030  12.834  0.7503 -0.4703  2.9439
18666TIP3   OH277488   1.676   2.485   1.314 -0.0196  0.0707 -0.2723
18666TIP3    H177489   1.616   2.540   1.364 -2.4696 -1.3939 -1.4484
18666TIP3    H277490   1.641   2.397   1.322  2.3424 -0.9769 -0.5596
18667TIP3   OH277491   5.139   0.575  11.286 -0.2920 -0.4458 -0.2372
18667TIP3    H177492   5.054   0.594  11.327 -0.1160  0.4232 -0.2407
18667TIP3    H277493   5.148   0.480  11.290 -1.1669 -0.5251 -0.0366
18668TIP3   OH277494   2.355   0.772   0.721  0.4043  0.4254  0.1540
18668TIP3    H177495   2.368   0.865   0.739 -0.8672  0.5698  0.4180
18668TIP3    H277496   2.382   0.728   0.802  3.0039  0.3512 -0.6622
18669TIP3   OH277497   2.304   0.557  15.170  0.3990  0.7722  0.2194
18669TIP3    H177498   2.282   0.603  15.089  0.4626  1.0202  0.3420
18669TIP3    H277499   2.261   0.608  15.239  0.0563  0.3626  0.3082
18670TIP3   OH277500   4.504   6.425   3.159  0.0345  0.1575  0.8496
18670TIP3    H177501   4.424   6.408   3.208 -0.6177  1.5157  0.3006
18670TIP3    H277502   4.487   6.390   3.071 -0.6187  1.8734  0.2523
18671TIP3   OH277503   4.184   6.592   2.939 -0.2310  0.6044  0.3631
18671TIP3    H177504   4.202   6.686   2.935  2.6314  0.1135 -1.0719
18671TIP3    H277505   4.205   6.561   2.851 -1.0208 -1.4123  0.8441
18672TIP3   OH277506   0.564   6.692   4.538 -0.8549  1.1464 -0.2344
18672TIP3    H177507   0.484   6.645   4.515 -0.5450 -0.5982  1.9288
18672TIP3    H277508   0.634   6.643   4.495 -0.7418  1.1553 -0.0608
18673TIP3   OH277509   1.809   2.727  15.443 -0.4265  0.8977 -0.0144
18673TIP3    H177510   1.747   2.684  15.503 -0.8714  0.8020 -0.5403
18673TIP3    H277511   1.880   2.756  15.500 -0.4707  0.1102  0.4509
18674TIP3   OH277512   6.337   2.566  10.834 -0.3515 -0.2375 -0.4340
18674TIP3    H177513   6.271   2.552  10.902 -0.9397 -0.9244 -1.1245
18674TIP3    H277514   6.351   2.479  10.797 -1.1198  0.3307 -2.1620
18675TIP3   OH277515   1.348   3.222  12.162 -0.5633 -0.1135  0.2928
18675TIP3    H177516   1.430   3.212  12.211  0.3210 -1.4619 -1.3413
18675TIP3    H277517   1.299   3.141  12.181 -1.8988  0.9948  1.8357
18676TIP3   OH277518   1.807   0.980  14.030 -0.4139  0.5005  0.5300
18676TIP3    H177519   1.878   0.967  14.092  0.2539  0.4400 -0.2372
18676TIP3    H277520   1.843   0.953  13.945 -1.9267 -1.3177  0.4046
18677TIP3   OH277521   1.191   1.010  14.664  0.3005  0.7368  0.3514
18677TIP3    H177522   1.192   1.037  14.756 -2.0963 -1.1887  1.0530
18677TIP3    H277523   1.191   0.914  14.666  0.4590  0.6361 -1.6861
18678TIP3   OH277524   5.606   5.223   1.055 -0.0864 -0.1126 -0.1253
18678TIP3    H177525   5.610   5.185   1.143 -2.0540 -1.4810 -0.5661
18678TIP3    H277526   5.628   5.150   0.997 -1.1048  0.1605 -0.8705
18679TIP3   OH277527   2.262   1.878  12.823  0.1788  0.6084  0.7933
18679TIP3    H177528   2.187   1.851  12.877 -0.8267  0.5035 -0.5732
18679TIP3    H277529   2.223   1.932  12.755  1.2844  0.1575 -0.2317
18680TIP3   OH277530   1.863   0.970   1.965  0.7048  0.5340  0.0777
18680TIP3    H177531   1.873   0.951   2.059  2.5621  0.8072 -0.0238
18680TIP3    H277532   1.787   1.027   1.960  0.4022  0.2803  1.3901
18681TIP3   OH277533   5.977   4.259   1.607  0.3209  0.1432  0.1076
18681TIP3    H177534   6.015   4.177   1.638 -0.4228 -0.9227 -1.6624
18681TIP3    H277535   5.897   4.269   1.658 -0.5902 -1.2786 -0.9754
18682TIP3   OH277536   3.721   4.649  15.469  0.0118 -0.6741 -0.3203
18682TIP3    H177537   3.625   4.650  15.461  0.0284  0.8514 -0.7047
18682TIP3    H277538   3.743   4.557  15.480 -1.4572 -1.1249 -0.8741
18683TIP3   OH277539   2.448   6.371   3.200  0.2208  0.1197  0.6741
18683TIP3    H177540   2.439   6.283   3.235  0.8713 -0.1647  0.1471
18683TIP3    H277541   2.361   6.411   3.211 -0.5843 -1.1565 -0.6275
18684TIP3   OH277542   4.167   5.672   6.739 -0.2803  0.6042 -0.5851
18684TIP3    H177543   4.239   5.615   6.766  0.0087  0.7131 -1.1098
18684TIP3    H277544   4.095   5.612   6.720  0.1481  0.3636 -1.5329
18685TIP3   OH277545   5.493   4.238   0.301 -0.8089 -0.0905 -0.5060
18685TIP3    H177546   5.430   4.304   0.329  0.3386  0.5010  0.7936
18685TIP3    H277547   5.456   4.202   0.221 -1.5998  1.9508 -1.1263
18686TIP3   OH277548   3.001   0.198  13.346  0.4976  0.1396 -0.0872
18686TIP3    H177549   2.907   0.198  13.331  0.3285 -1.3471  0.8057
18686TIP3    H277550   3.039   0.168  13.263 -0.0553 -2.2992  0.4567
18687TIP3   OH277551   0.289   6.747   2.407  0.4989  0.3402  0.1627
18687TIP3    H177552   0.365   6.784   2.363  1.2685  0.8841  1.8978
18687TIP3    H277553   0.324   6.702   2.483 -0.7330 -1.2396 -0.1341
18688TIP3   OH277554   1.705   2.655  10.699 -0.5991  0.0929  0.2370
18688TIP3    H177555   1.787   2.622  10.662 -0.2051  1.3590 -0.1099
18688TIP3    H277556   1.639   2.633  10.633 -0.1304  1.0981 -0.6027
18689TIP3   OH277557   0.737   0.239   4.374  0.6045  0.4183  0.0495
18689TIP3    H177558   0.759   0.250   4.466  0.3177  0.6584  0.0926
18689TIP3    H277559   0.732   0.144   4.361 -0.9182  0.3793  0.6790
18690TIP3   OH277560   2.305   2.542  11.548 -0.1138  0.3029 -0.4413
18690TIP3    H177561   2.252   2.584  11.616  2.5758 -0.4254  2.2749
18690TIP3    H277562   2.364   2.611  11.517 -0.5850  0.3383 -1.3034
18691TIP3   OH277563   5.162   3.511  12.988 -0.0024  0.5093 -0.2060
18691TIP3    H177564   5.118   3.586  12.947 -0.6970  0.6981  0.8493
18691TIP3    H277565   5.215   3.551  13.058  1.1642  0.1936 -0.8819
18692TIP3   OH277566   1.791   3.611  15.524  0.2018  0.1484  0.3035
18692TIP3    H177567   1.749   3.653  15.450  0.4704 -0.1467 -0.0224
18692TIP3    H277568   1.884   3.606  15.500  0.4319  0.7672  0.9966
18693TIP3   OH277569   6.312   5.813  13.721 -0.6234 -0.2029 -0.3460
18693TIP3    H177570   6.367   5.758  13.666 -1.1010  0.7565 -1.8553
18693TIP3    H277571   6.281   5.882  13.662 -2.4025  0.0053  0.7640
18694TIP3   OH277572   6.675   2.096   4.214  0.3841 -0.1768  0.6362
18694TIP3    H177573   6.730   2.035   4.165  3.4227  1.6208  1.5362
18694TIP3    H277574   6.639   2.155   4.148  2.3035  0.6206  0.2308
18695TIP3   OH277575   5.697   4.221   3.265  0.2043  0.3817 -0.3211
18695TIP3    H177576   5.783   4.263   3.270 -0.4373  1.7892 -0.5686
18695TIP3    H277577   5.707   4.155   3.197  0.6986  1.5495 -1.4184
18696TIP3   OH277578   0.750   2.392  11.732 -0.2809 -0.1127  0.0779
18696TIP3    H177579   0.834   2.361  11.765  0.7049  1.0431 -1.1960
18696TIP3    H277580   0.770   2.478  11.693 -1.6719 -0.6033 -1.8775
18697TIP3   OH277581   6.582   2.614   2.546 -0.4822 -0.6335  0.1933
18697TIP3    H177582   6.652   2.569   2.593  0.3013 -0.1485 -0.4832
18697TIP3    H277583   6.542   2.671   2.611  0.4907 -0.0787  0.3190
18698TIP3   OH277584   3.414   1.849  16.406  0.1169  0.2905  0.1948
18698TIP3    H177585   3.426   1.766  16.453 -1.0277 -0.1401 -0.2421
18698TIP3    H277586   3.456   1.834  16.321  0.3931  0.3577  0.3180
18699TIP3   OH277587   0.832   3.683  13.300 -1.0133  0.0533 -0.1589
18699TIP3    H177588   0.746   3.711  13.270 -0.3905  2.4382  0.0809
18699TIP3    H277589   0.886   3.682  13.222 -1.3545 -2.0135 -0.4048
18700TIP3   OH277590   5.450   0.610   1.370  0.3232  0.4501 -0.8185
18700TIP3    H177591   5.376   0.560   1.404  1.7715 -0.7044  0.7811
18700TIP3    H277592   5.461   0.682   1.432  1.9024 -0.6850  0.2896
18701TIP3   OH277593   2.051   1.684  12.627 -0.0359 -0.0920 -0.2363
18701TIP3    H177594   1.979   1.697  12.565 -0.2396  0.6240  0.1383
18701TIP3    H277595   2.124   1.733  12.589  0.5561 -1.5393 -1.0737
18702TIP3   OH277596   4.908   4.231  16.686  0.0934  0.2016  0.3179
18702TIP3    H177597   4.902   4.136  16.684  1.4717  0.1067 -1.3327
18702TIP3    H277598   4.946   4.251  16.772  1.8627 -0.9257 -0.1490
18703TIP3   OH277599   3.652   4.310  12.153  0.2844 -0.6391  0.0658
18703TIP3    H177600   3.655   4.294  12.248  2.0481 -0.7507  0.0340
18703TIP3    H277601   3.608   4.233  12.117  0.9372 -1.3111  0.6763
18704TIP3   OH277602   5.681   3.088   0.248  0.5829  0.1805 -0.3197
18704TIP3    H177603   5.736   3.010   0.253 -1.2136 -1.1022  0.9670
18704TIP3    H277604   5.683   3.125   0.336 -0.6109  0.0658 -0.2195
18705TIP3   OH277605   2.352   2.509   1.781 -0.5123  0.2907 -0.2468
18705TIP3    H177606   2.415   2.552   1.722 -0.8986  1.2138 -0.0060
18705TIP3    H277607   2.404   2.488   1.859 -0.8138  2.5968  0.6621
18706TIP3   OH277608   4.403   3.437   0.197  0.3797 -0.0452 -0.4709
18706TIP3    H177609   4.372   3.364   0.144  0.3048 -0.2403 -0.1600
18706TIP3    H277610   4.327   3.466   0.246 -0.1591  1.6798 -2.2005
18707TIP3   OH277611   3.089   0.093   5.357  0.3389  0.1952 -0.1075
18707TIP3    H177612   3.076   0.067   5.265  0.8446  0.8161 -0.3618
18707TIP3    H277613   3.179   0.126   5.360  0.2832  0.2966  0.5875
18708TIP3   OH277614   5.023   1.553  16.766  0.0444 -0.0348 -0.2144
18708TIP3    H177615   5.022   1.597  16.681  0.9501 -2.3192 -1.5120
18708TIP3    H277616   5.080   1.477  16.753 -0.1392 -0.6998  2.3271
18709TIP3   OH277617   4.201   3.811   3.615 -0.4524  0.2822 -0.2172
18709TIP3    H177618   4.132   3.794   3.550  0.2923  2.1090 -1.5891
18709TIP3    H277619   4.269   3.857   3.566  1.4335 -0.7715  1.2725
18710TIP3   OH277620   0.752   6.005   0.686 -0.2277 -0.0255 -0.2772
18710TIP3    H177621   0.756   5.959   0.602 -0.1894 -4.0983  1.6882
18710TIP3    H277622   0.843   6.009   0.715 -0.4728 -1.0575  0.6770
18711TIP3   OH277623   0.461   6.593   1.041  0.2079  0.3017 -0.4219
18711TIP3    H177624   0.553   6.566   1.036  0.4267  1.1362 -1.1227
18711TIP3    H277625   0.425   6.539   1.111  1.2022 -0.1195 -0.2043
18712TIP3   OH277626   2.774   5.461  11.503  0.5346  0.0324  0.3393
18712TIP3    H177627   2.765   5.380  11.552 -1.0740 -0.2224 -0.3067
18712TIP3    H277628   2.847   5.445  11.442 -0.6819 -1.4960 -0.7983
18713TIP3   OH277629   6.018   1.184   6.452 -0.2541  0.3258 -0.1310
18713TIP3    H177630   6.105   1.190   6.492  0.2650 -0.0812 -1.1623
18713TIP3    H277631   5.976   1.111   6.496 -0.5652  1.3101  1.2592
18714TIP3   OH277632   4.151   2.081  16.009 -0.0113  0.5740  0.5555
18714TIP3    H177633   4.196   2.022  15.949 -1.2197  1.0842 -0.9493
18714TIP3    H277634   4.113   2.148  15.951 -0.2034  1.7899  2.0292
18715TIP3   OH277635   5.465   3.733   1.533 -0.6435 -0.0535 -0.5925
18715TIP3    H177636   5.415   3.800   1.580  0.1446  1.6343 -2.0157
18715TIP3    H277637   5.508   3.682   1.602 -2.4513 -0.0815  0.5792
18716TIP3   OH277638   6.437   2.893   0.607  0.1784 -0.2068  0.7578
18716TIP3    H177639   6.341   2.891   0.611  0.2085  0.2401  2.9535
18716TIP3    H277640   6.459   2.986   0.606  0.5937 -0.2383  2.8213
18717TIP3   OH277641   6.785   4.434  12.506 -0.5326 -0.0615  0.0117
18717TIP3    H177642   6.783   4.463  12.598 -0.0763 -1.1115  0.3650
18717TIP3    H277643   6.693   4.429  12.481 -0.6476  1.4824 -0.0178
18718TIP3   OH277644   2.528   6.776  13.046 -0.2197  0.6424 -0.0825
18718TIP3    H177645   2.569   6.771  13.132  2.1398 -1.9746 -1.2334
18718TIP3    H277646   2.600   6.793  12.985 -1.3631 -0.3916 -1.8209
18719TIP3   OH277647   1.030   2.460   3.676  0.3488  0.2305 -0.1588
18719TIP3    H177648   1.028   2.555   3.687 -0.0531  0.1754  0.3250
18719TIP3    H277649   0.957   2.441   3.617  1.3759  0.3541 -1.5120
18720TIP3   OH277650   2.610   3.246  15.786  0.5741  0.1930 -0.5553
18720TIP3    H177651   2.634   3.305  15.715 -1.5706  1.3701 -0.3771
18720TIP3    H277652   2.607   3.302  15.864  1.1935 -0.7356  0.1653
18721TIP3   OH277653   2.949   2.221  11.596 -0.7945  0.2858  0.1033
18721TIP3    H177654   2.860   2.242  11.566 -0.7621  2.4529  1.3006
18721TIP3    H277655   2.952   2.253  11.687  0.8440 -0.8697  0.5063
18722TIP3   OH277656   3.243   2.788  15.155 -0.2034 -0.0263 -0.4145
18722TIP3    H177657   3.171   2.795  15.217 -0.2062  0.7823 -0.4984
18722TIP3    H277658   3.234   2.864  15.098  2.1545  1.5568  1.1325
18723TIP3   OH277659   5.775   3.786   3.598  0.6402  0.7350  0.7111
18723TIP3    H177660   5.823   3.767   3.679 -1.0733  2.0343  2.1080
18723TIP3    H277661   5.759   3.699   3.560  2.7296  0.1825  0.9430
18724TIP3   OH277662   0.087   5.335  16.214 -0.3940  0.1466 -0.1333
18724TIP3    H177663   0.175   5.355  16.182 -1.0892  1.4117 -1.3186
18724TIP3    H277664   0.090   5.241  16.234  1.5161  0.3816  0.8518
18725TIP3   OH277665   4.642   1.902  14.965 -0.3798 -0.9596 -0.4295
18725TIP3    H177666   4.656   1.813  14.933 -2.8821 -0.4620 -3.3264
18725TIP3    H277667   4.547   1.911  14.970 -0.1696  0.7691  2.3880
18726TIP3   OH277668   6.738   5.918   0.375 -0.0609  0.6946  0.3463
18726TIP3    H177669   6.668   5.862   0.409  0.5021 -0.8588 -0.9164
18726TIP3    H277670   6.760   5.977   0.447 -1.9126  0.4960  1.1212
18727TIP3   OH277671   0.616   5.792   5.146  0.2011 -0.4541 -0.6732
18727TIP3    H177672   0.557   5.724   5.179  0.0473  1.0182  2.3283
18727TIP3    H277673   0.586   5.808   5.056 -2.3973 -1.4483 -0.0674
18728TIP3   OH277674   0.157   3.493  16.693  0.2727 -0.0110 -0.3372
18728TIP3    H177675   0.111   3.464  16.613 -1.3798  0.3288  0.4392
18728TIP3    H277676   0.149   3.419  16.753  0.5530  0.1425 -0.1092
18729TIP3   OH277677   1.893   4.903  11.833 -0.1321 -0.0947  0.5919
18729TIP3    H177678   1.986   4.893  11.854  0.3399  0.4541 -1.0477
18729TIP3    H277679   1.887   4.987  11.789 -1.2689 -0.4737 -0.0266
18730TIP3   OH277680   4.305   4.426  11.137 -0.5751 -0.4663  0.2246
18730TIP3    H177681   4.267   4.513  11.130 -1.3077 -0.8282 -0.4416
18730TIP3    H277682   4.381   4.428  11.079 -0.6749 -0.3168  0.0989
18731TIP3   OH277683   3.382   4.595   6.498  0.7570 -0.2201 -0.1383
18731TIP3    H177684   3.358   4.505   6.475 -0.3959 -0.1040  0.5644
18731TIP3    H277685   3.472   4.588   6.531  0.4836 -1.1929  0.4345
18732TIP3   OH277686   2.624   6.564   6.238  0.2402 -0.1237 -0.0644
18732TIP3    H177687   2.575   6.585   6.318  0.5268  1.5133 -0.2915
18732TIP3    H277688   2.612   6.469   6.227  0.4972 -0.4504  2.1122
18733TIP3   OH277689   2.475   3.673  11.596  0.0654 -0.1799  0.4165
18733TIP3    H177690   2.389   3.711  11.578  0.3022  1.3557  2.1650
18733TIP3    H277691   2.534   3.721  11.538  0.0121  0.2766  0.7331
18734TIP3   OH277692   4.785   6.808   1.659 -0.4122  0.9438  0.4076
18734TIP3    H177693   4.702   6.759   1.658  0.5154 -0.7748  1.8737
18734TIP3    H277694   4.759   6.898   1.640 -2.8664  0.7742  2.3055
18735TIP3   OH277695   3.389   0.764  11.479 -0.3724  0.8627  0.1205
18735TIP3    H177696   3.426   0.835  11.531  3.6127 -0.8584  0.0052
18735TIP3    H277697   3.388   0.689  11.537  0.4546 -0.1725 -1.1450
18736TIP3   OH277698   3.751   0.825   1.932  0.3145 -0.1908  0.2496
18736TIP3    H177699   3.688   0.896   1.928  0.7033  0.1619  0.3443
18736TIP3    H277700   3.797   0.830   1.848 -0.3062 -0.9376 -0.1483
18737TIP3   OH277701   5.347   5.595   1.999 -0.4133 -0.0575 -0.1748
18737TIP3    H177702   5.274   5.582   1.940 -1.7628  0.1703  1.3768
18737TIP3    H277703   5.417   5.538   1.964 -1.0573  0.2349 -2.0615
18738TIP3   OH277704   2.287   2.983   2.480 -0.8333 -0.2062  0.2677
18738TIP3    H177705   2.222   2.993   2.550  0.1561  1.4094  1.0113
18738TIP3    H277706   2.289   3.069   2.437  2.7115  0.7791  2.0362
18739TIP3   OH277707   1.758   5.791   3.732 -0.2135  0.5218 -0.2607
18739TIP3    H177708   1.674   5.833   3.752  0.3372  1.2864  0.4633
18739TIP3    H277709   1.742   5.744   3.650 -0.9439  1.8385 -0.8939
18740TIP3   OH277710   0.304   2.401   3.779 -0.1264  0.7883  0.4339
18740TIP3    H177711   0.369   2.332   3.763  0.8983  0.8588  3.4676
18740TIP3    H277712   0.344   2.455   3.847 -1.2652  3.9348 -1.2402
18741TIP3   OH277713   3.951   2.958  15.475  0.9960 -0.6857  0.1419
18741TIP3    H177714   3.973   2.902  15.550  0.6209  0.5695  1.2318
18741TIP3    H277715   3.875   3.008  15.505  1.5158  0.6328 -0.6658
18742TIP3   OH277716   3.463   3.484   5.757 -0.0602  0.0240 -0.4383
18742TIP3    H177717   3.528   3.450   5.696  0.0845 -0.0475 -0.2473
18742TIP3    H277718   3.468   3.425   5.832 -1.3842 -0.8666 -1.0220
18743TIP3   OH277719   5.332   5.847  13.829  1.2160  0.0090  0.5207
18743TIP3    H177720   5.407   5.806  13.872  2.0504  1.0109  0.0813
18743TIP3    H277721   5.293   5.777  13.777  1.6224 -0.6249  1.0449
18744TIP3   OH277722   5.689   2.497  12.086 -0.0112  0.0639  0.2946
18744TIP3    H177723   5.730   2.562  12.029 -0.5065  1.0359  1.0127
18744TIP3    H277724   5.757   2.432  12.102  0.0004 -0.4994 -1.7639
18745TIP3   OH277725   0.116   1.988   5.865 -0.0309  0.0817 -0.3996
18745TIP3    H177726   0.104   1.894   5.850  1.5968 -0.4015  1.0307
18745TIP3    H277727   0.104   2.028   5.779  2.1378 -1.7464 -1.6449
18746TIP3   OH277728   2.028   5.277  15.800  0.2954  0.5769  0.2361
18746TIP3    H177729   1.953   5.330  15.825 -0.4040 -0.2258 -0.0971
18746TIP3    H277730   1.992   5.190  15.783  1.3050  0.1594  0.1059
18747TIP3   OH277731   2.283   4.316   1.786 -0.3402 -0.1185 -0.0299
18747TIP3    H177732   2.275   4.297   1.692 -0.0947 -1.2330  0.1601
18747TIP3    H277733   2.270   4.232   1.829 -0.0125  0.3003  0.9219
18748TIP3   OH277734   4.636   2.419   5.084 -0.5567 -0.5434 -0.6246
18748TIP3    H177735   4.683   2.456   5.010 -1.3451  0.0969 -0.8218
18748TIP3    H277736   4.635   2.490   5.149 -0.4794 -0.8587 -0.2750
18749TIP3   OH277737   1.134   5.190   0.205 -0.6010  0.2077 -0.4822
18749TIP3    H177738   1.128   5.108   0.156  1.0809 -0.7925  0.8615
18749TIP3    H277739   1.117   5.165   0.296 -1.6385  1.6639 -0.2337
18750TIP3   OH277740   4.259   3.986  14.623  0.1836  0.1240 -0.1829
18750TIP3    H177741   4.344   3.978  14.665 -1.2958 -0.1977  3.0047
18750TIP3    H277742   4.206   3.917  14.661 -1.2886 -0.3852 -2.8870
18751TIP3   OH277743   0.849   6.450  11.745  0.4828 -0.0930  0.3284
18751TIP3    H177744   0.777   6.497  11.788  1.3439  0.6887  0.9502
18751TIP3    H277745   0.927   6.474  11.796  1.4174  0.2204 -1.1971
18752TIP3   OH277746   6.413   5.182  15.906 -0.4098  0.1436 -0.0922
18752TIP3    H177747   6.475   5.155  15.838 -0.5102  0.4021 -0.2888
18752TIP3    H277748   6.347   5.113  15.908 -1.9544  1.4493 -2.2155
18753TIP3   OH277749   3.222   3.923   4.688  0.6899  0.1309  0.3400
18753TIP3    H177750   3.169   3.892   4.761  0.0020 -0.3149 -0.3362
18753TIP3    H277751   3.306   3.878   4.698  0.0806 -1.1239 -0.0011
18754TIP3   OH277752   2.971   4.188   2.724 -0.0560  0.1545  0.1125
18754TIP3    H177753   2.909   4.217   2.790 -0.6539 -0.8963  0.0411
18754TIP3    H277754   2.945   4.097   2.705 -0.5485  0.7271 -2.2902
18755TIP3   OH277755   2.308   1.992   5.854  0.0417 -0.1137  0.1885
18755TIP3    H177756   2.365   1.964   5.925 -0.2893 -0.7075  0.2281
18755TIP3    H277757   2.299   2.087   5.865  1.0684 -0.0044  0.1422
18756TIP3   OH277758   4.911   3.901   2.357 -0.2259  0.3886  0.2681
18756TIP3    H177759   4.832   3.872   2.402 -0.4203  0.2119 -0.1863
18756TIP3    H277760   4.919   3.843   2.282 -0.0371  0.8351 -0.0652
18757TIP3   OH277761   0.714   4.704   0.557  0.2742  0.1447 -0.2367
18757TIP3    H177762   0.740   4.688   0.467 -1.0866 -1.9060 -0.3252
18757TIP3    H277763   0.795   4.695   0.608  1.5417  3.6052 -1.3655
18758TIP3   OH277764   2.502   4.360   1.964  0.0563 -0.0565  0.5224
18758TIP3    H177765   2.425   4.337   1.911 -0.2638 -0.5998  1.2097
18758TIP3    H277766   2.517   4.453   1.944 -1.2558  0.2751  0.9646
18759TIP3   OH277767   2.574   2.839  12.181  0.1074 -0.8227  0.2635
18759TIP3    H177768   2.630   2.821  12.105  0.3901 -0.2935  0.3367
18759TIP3    H277769   2.489   2.862  12.144  0.7315  1.2778 -0.0195
18760TIP3   OH277770   4.519   6.031   4.408  0.0956  0.0016  0.1245
18760TIP3    H177771   4.495   6.110   4.361  0.1997  0.7270  1.2477
18760TIP3    H277772   4.599   6.054   4.456 -1.2260  0.0642  2.4499
18761TIP3   OH277773   4.279   0.145   5.111 -0.1864  0.2457  0.6931
18761TIP3    H177774   4.264   0.060   5.071 -0.1471  0.7714 -0.4927
18761TIP3    H277775   4.221   0.205   5.063  2.7260  1.6366 -1.3921
18762TIP3   OH277776   3.573   4.013   0.990 -0.2012 -0.3131 -0.1533
18762TIP3    H177777   3.645   4.060   1.032 -0.4026  0.5147 -0.7143
18762TIP3    H277778   3.604   3.999   0.900 -0.0545 -1.4525  0.0658
18763TIP3   OH277779   6.074   4.216  13.345 -0.2449  0.1002 -0.3659
18763TIP3    H177780   6.157   4.258  13.369 -0.7422  1.4228 -0.8707
18763TIP3    H277781   6.009   4.286  13.352 -1.6795 -1.3239  1.8706
18764TIP3   OH277782   3.412   3.803   4.100  0.1697 -0.5204  0.0948
18764TIP3    H177783   3.353   3.859   4.049  0.9821  0.1446 -0.1334
18764TIP3    H277784   3.392   3.714   4.070 -1.9620 -0.5239  1.2926
18765TIP3   OH277785   1.437   1.879   5.656 -0.2458 -0.3743 -0.5840
18765TIP3    H177786   1.429   1.967   5.620  1.9822  0.0554 -0.2124
18765TIP3    H277787   1.385   1.880   5.736  0.7855  1.0643  0.1142
18766TIP3   OH277788   3.090   4.279  12.069 -0.0929  0.5500  0.5245
18766TIP3    H177789   3.121   4.196  12.104 -0.1842  0.8011  1.2280
18766TIP3    H277790   3.004   4.259  12.032  0.6204 -0.0224 -0.9000
18767TIP3   OH277791   2.619   6.005   2.501  0.0224  0.1374 -0.1478
18767TIP3    H177792   2.559   6.057   2.448 -1.0790 -0.6155  0.3104
18767TIP3    H277793   2.645   6.063   2.572 -1.8823 -0.1310  0.8573
18768TIP3   OH277794   4.582   1.958  13.980  0.0781 -0.3617  1.1709
18768TIP3    H177795   4.644   2.022  13.946 -1.0395 -0.4467 -1.2079
18768TIP3    H277796   4.496   1.998  13.966 -0.5535 -1.5220  1.5689
18769TIP3   OH277797   6.816   2.992  12.934 -0.7328  0.3327  0.0631
18769TIP3    H177798   6.732   3.008  12.976 -1.2436 -0.8323 -0.4738
18769TIP3    H277799   6.826   2.896  12.936  0.3252  0.4233 -0.3581
18770TIP3   OH277800   5.516   0.589   2.319 -0.3028 -0.4118  0.3628
18770TIP3    H177801   5.553   0.519   2.265 -0.0690  1.2451 -1.7555
18770TIP3    H277802   5.540   0.670   2.273 -1.9384  0.9998  1.8423
18771TIP3   OH277803   0.055   5.700   3.801 -0.4802  0.1801  0.3102
18771TIP3    H177804  -0.004   5.679   3.873  0.6272 -0.0194  1.1790
18771TIP3    H277805   0.095   5.783   3.825  0.3946 -0.2167  0.2469
18772TIP3   OH277806   6.296   3.169  14.788 -0.3133 -0.0681 -0.4294
18772TIP3    H177807   6.240   3.201  14.859 -0.7713  0.8723 -1.1868
18772TIP3    H277808   6.288   3.235  14.719  0.0183 -1.0120 -1.4121
18773TIP3   OH277809   5.255   3.826   3.683  0.5413  0.0762  0.2958
18773TIP3    H177810   5.169   3.855   3.711  0.4782  0.5979 -0.3972
18773TIP3    H277811   5.271   3.745   3.731 -1.4946 -1.5208 -1.5448
18774TIP3   OH277812   3.568   5.143  12.575  0.5258  0.2186  0.1501
18774TIP3    H177813   3.500   5.087  12.614  0.6824  0.3694  0.6547
18774TIP3    H277814   3.528   5.178  12.496 -1.0005  2.4269  1.7661
18775TIP3   OH277815   2.961   2.754   1.294  0.4225 -0.0035  0.1342
18775TIP3    H177816   2.945   2.761   1.388  0.6756 -0.7161  0.2369
18775TIP3    H277817   2.873   2.754   1.255  0.3395  1.3857  0.2710
18776TIP3   OH277818   0.626   6.424  15.351 -0.0119  0.3050 -0.6172
18776TIP3    H177819   0.594   6.514  15.355 -0.0958  0.2910 -0.9827
18776TIP3    H277820   0.717   6.432  15.322  0.1259  0.3010 -0.1982
18777TIP3   OH277821   0.066   1.924   3.026  0.4271 -0.0682  0.9150
18777TIP3    H177822   0.148   1.941   2.981  0.2905  0.7334  0.9535
18777TIP3    H277823   0.086   1.934   3.119 -0.1752  2.4714  0.8634
18778TIP3   OH277824   4.164   1.874   0.806 -0.0356  0.0664 -0.3046
18778TIP3    H177825   4.256   1.861   0.830  0.1537  1.9300  0.1645
18778TIP3    H277826   4.144   1.802   0.746  0.5975 -2.6585  2.4686
18779TIP3   OH277827   5.396   1.024   4.819  0.4096 -0.6462  0.1181
18779TIP3    H177828   5.410   1.000   4.728  2.5948  3.9663 -1.0790
18779TIP3    H277829   5.320   1.082   4.818  0.4897 -0.4970  1.2192
18780TIP3   OH277830   2.565   2.792  11.253  0.5164 -0.4997 -0.3322
18780TIP3    H177831   2.602   2.831  11.174  0.1464 -1.2411 -0.8888
18780TIP3    H277832   2.471   2.787  11.236  0.1892  0.9466  0.8787
18781TIP3   OH277833   2.065   1.039   1.766 -1.1897 -0.2913 -0.1869
18781TIP3    H177834   1.990   1.000   1.810 -1.5503 -0.1753 -0.6916
18781TIP3    H277835   2.116   1.080   1.837 -1.2855 -0.8825  0.2275
18782TIP3   OH277836   2.986   5.217   3.771  0.6321  0.3336 -0.1511
18782TIP3    H177837   2.969   5.284   3.837 -0.9607  1.0435 -1.2322
18782TIP3    H277838   3.002   5.137   3.822  2.3435  1.4355  1.1543
18783TIP3   OH277839   2.010   4.192   5.903  0.3982  0.2502  0.1818
18783TIP3    H177840   1.918   4.176   5.923  0.3601 -0.5027 -0.5192
18783TIP3    H277841   2.057   4.157   5.979  0.0665  2.5778  1.5748
18784TIP3   OH277842   1.289   0.769  13.040 -0.0543  0.7304 -0.4774
18784TIP3    H177843   1.316   0.803  13.126 -2.0010  2.3149 -0.4190
18784TIP3    H277844   1.202   0.806  13.026  0.6834  1.5519 -3.6975
18785TIP3   OH277845   1.792   6.069  13.970  0.4081 -0.3883 -0.5929
18785TIP3    H177846   1.726   6.073  14.039  0.4356  0.9043 -0.6238
18785TIP3    H277847   1.772   6.143  13.912  1.2666 -0.5764 -1.1610
18786TIP3   OH277848   4.649   5.704  11.289  0.6490 -0.2959  0.2336
18786TIP3    H177849   4.629   5.731  11.378 -1.8101  1.9881 -0.8825
18786TIP3    H277850   4.577   5.646  11.265 -0.2389  1.2992 -1.1157
18787TIP3   OH277851   1.776   0.017   6.032  0.2278 -0.5958  0.0404
18787TIP3    H177852   1.830   0.079   5.983  0.6355 -2.3626 -1.8965
18787TIP3    H277853   1.782   0.047   6.123 -0.2675  2.6273 -0.8564
18788TIP3   OH277854   0.715   1.016   3.620  0.5807 -0.3758  0.5541
18788TIP3    H177855   0.747   1.105   3.604 -2.5994  0.6693 -0.9094
18788TIP3    H277856   0.763   0.962   3.557  0.8643  0.7662 -0.2543
18789TIP3   OH277857   1.324   2.045   2.915 -0.4349  0.0410  0.3813
18789TIP3    H177858   1.349   2.009   3.000 -0.8315 -1.5708 -0.1506
18789TIP3    H277859   1.406   2.046   2.865 -0.0623  1.6474  0.9789
18790TIP3   OH277860   3.400   5.207  15.175 -0.8924 -0.5824  0.1176
18790TIP3    H177861   3.365   5.146  15.240  1.4275 -0.6954  1.3649
18790TIP3    H277862   3.463   5.155  15.125 -0.1979  0.3525  0.0041
18791TIP3   OH277863   1.863   5.880   3.992 -1.0353 -0.1768 -0.0711
18791TIP3    H177864   1.835   5.862   3.903  3.7047 -0.6398 -1.7880
18791TIP3    H277865   1.902   5.968   3.987  0.9211 -0.9178  0.9654
18792TIP3   OH277866   0.559   0.881  13.338 -0.2877  0.0397 -0.0533
18792TIP3    H177867   0.480   0.829  13.348  0.6799 -1.4194  0.4479
18792TIP3    H277868   0.529   0.967  13.311 -2.0355 -0.4540  0.2245
18793TIP3   OH277869   2.599   3.175  12.059 -0.0867 -0.5512 -0.2514
18793TIP3    H177870   2.595   3.255  12.111 -2.1661  0.1599 -1.3860
18793TIP3    H277871   2.692   3.164  12.039  0.1722  2.3370 -1.1293
18794TIP3   OH277872   0.504   5.329   4.420 -0.2148 -0.6176 -0.8872
18794TIP3    H177873   0.467   5.251   4.379  0.3503 -2.4198  1.7741
18794TIP3    H277874   0.581   5.297   4.468 -0.4056  1.4089  0.9268
18795TIP3   OH277875   6.295   3.825  16.997  0.3438 -0.5018  0.2764
18795TIP3    H177876   6.378   3.834  16.950  0.2674  1.4548  0.4379
18795TIP3    H277877   6.230   3.812  16.928  0.5138  0.1928 -0.0236
18796TIP3   OH277878   2.788   0.215  10.658  0.2489 -0.1008 -0.2706
18796TIP3    H177879   2.801   0.123  10.637 -0.5614  0.2565 -2.5277
18796TIP3    H277880   2.877   0.250  10.665  0.5564 -0.6936 -1.1263
18797TIP3   OH277881   6.048   5.172   1.442 -0.2007 -0.8804  0.7551
18797TIP3    H177882   6.059   5.077   1.453 -0.7273 -0.7988  2.2282
18797TIP3    H277883   6.043   5.206   1.532 -0.8728  0.4328  0.2419
18798TIP3   OH277884   0.797   4.896   3.607 -0.3429 -0.1386  0.7076
18798TIP3    H177885   0.892   4.879   3.606 -0.7308 -2.6192 -0.1035
18798TIP3    H277886   0.775   4.916   3.516 -0.1593  4.0115  1.3832
18799TIP3   OH277887   0.287   3.462   6.299  0.2563 -0.3178 -0.2009
18799TIP3    H177888   0.349   3.393   6.274  0.7981  0.8089 -2.1065
18799TIP3    H277889   0.336   3.543   6.291 -0.8297  0.4452  0.5064
18800TIP3   OH277890   3.566   5.975   2.981  0.1456  0.2080  0.0544
18800TIP3    H177891   3.635   6.035   2.953 -0.2097  0.2578 -0.7512
18800TIP3    H277892   3.511   5.965   2.904 -2.1242  2.0588  1.3236
18801TIP3   OH277893   6.062   1.957   1.683 -0.9659 -0.5190  0.0191
18801TIP3    H177894   6.065   1.965   1.587 -0.7254 -2.1808 -0.1389
18801TIP3    H277895   5.990   2.013   1.710  0.2291  1.5830 -0.9353
18802TIP3   OH277896   6.223   2.611  16.025  0.2216 -0.3746  0.2508
18802TIP3    H177897   6.131   2.597  16.004  0.4797 -0.6210 -0.7775
18802TIP3    H277898   6.231   2.584  16.117 -0.3310 -2.2584 -0.2021
18803TIP3   OH277899   1.580   3.404   0.671  0.4698 -0.3648 -0.2880
18803TIP3    H177900   1.522   3.337   0.634  0.2149  0.0179 -0.5881
18803TIP3    H277901   1.665   3.360   0.677  0.1724 -0.9043  0.0773
18804TIP3   OH277902   4.195   4.543   6.449 -0.6831  0.3759  0.4405
18804TIP3    H177903   4.246   4.529   6.370  0.4277  1.5332  0.9165
18804TIP3    H277904   4.198   4.458   6.494  0.5487  0.3101  0.2814
18805TIP3   OH277905   0.551   1.595  13.578  0.3431  0.0959  0.2377
18805TIP3    H177906   0.605   1.517  13.566 -0.2857  0.0142 -2.7324
18805TIP3    H277907   0.611   1.661  13.613  1.1607 -1.3083  1.6230
18806TIP3   OH277908   2.720   4.726   0.438  0.0382 -0.3638  0.2181
18806TIP3    H177909   2.687   4.814   0.420 -0.3005 -0.7525 -1.1710
18806TIP3    H277910   2.642   4.670   0.440  0.3412 -0.8076 -0.0417
18807TIP3   OH277911   2.690   1.567  11.904 -0.7950  0.2742 -0.2091
18807TIP3    H177912   2.776   1.556  11.863 -1.2395 -1.4730 -0.7540
18807TIP3    H277913   2.710   1.573  11.998 -0.1358 -1.7350 -0.1644
18808TIP3   OH277914   5.760   5.386  15.189 -0.1709 -0.8481  0.3926
18808TIP3    H177915   5.817   5.323  15.144  0.1787  0.3021 -0.8396
18808TIP3    H277916   5.787   5.382  15.281 -0.8422 -3.1969  0.5393
18809TIP3   OH277917   3.863   4.402  12.849 -0.5420  0.6231  0.1395
18809TIP3    H177918   3.943   4.382  12.800  0.3570  0.6317  1.5822
18809TIP3    H277919   3.892   4.418  12.938 -2.2486 -0.2684  0.9010
18810TIP3   OH277920   3.980   6.474  15.147  0.4933 -0.3670 -0.4346
18810TIP3    H177921   3.923   6.428  15.086 -0.6693 -0.4312  0.6479
18810TIP3    H277922   3.920   6.527  15.200  1.7000  1.6879 -1.0081
18811TIP3   OH277923   1.589   0.761   2.436 -0.0213  0.0259 -0.4939
18811TIP3    H177924   1.555   0.676   2.408 -0.3518 -1.7092  4.3294
18811TIP3    H277925   1.671   0.740   2.480 -1.0333  1.7921  2.5214
18812TIP3   OH277926   3.326   3.586  14.513 -0.5532 -0.1132 -0.2578
18812TIP3    H177927   3.335   3.496  14.545 -1.2504 -1.5103 -3.4936
18812TIP3    H277928   3.373   3.586  14.429 -1.6601  2.1567 -0.9657
18813TIP3   OH277929   4.737   5.358   5.124 -0.0326  0.3400 -0.3975
18813TIP3    H177930   4.685   5.281   5.102  0.8541 -0.9024  1.6151
18813TIP3    H277931   4.699   5.428   5.071 -0.7595 -1.4778 -2.4299
18814TIP3   OH277932   6.720   5.022   2.119 -0.4449 -0.0807  0.2075
18814TIP3    H177933   6.779   4.947   2.111 -0.4103 -0.4116  2.6339
18814TIP3    H277934   6.709   5.054   2.030  3.3880  0.0087 -0.3988
18815TIP3   OH277935   1.980   1.106  11.005 -0.4704 -0.4656  0.2273
18815TIP3    H177936   2.013   1.018  11.023  1.0243  0.0095 -0.0880
18815TIP3    H277937   1.971   1.109  10.910 -2.7933 -1.0275  0.3665
18816TIP3   OH277938   1.632   0.741  16.655  0.6912 -0.4071 -0.3794
18816TIP3    H177939   1.547   0.754  16.613  0.6905 -0.2069 -0.3140
18816TIP3    H277940   1.675   0.826  16.650  0.0001  0.1054  1.5716
18817TIP3   OH277941   4.066   0.245  11.986  0.4621 -0.3596  0.0043
18817TIP3    H177942   3.971   0.238  11.984 -0.1316  3.7808  2.0991
18817TIP3    H277943   4.089   0.272  11.897 -0.1081 -2.4152 -0.8109
18818TIP3   OH277944   3.581   1.994   1.957 -0.6705  0.1902 -0.6400
18818TIP3    H177945   3.620   1.958   2.036  1.1588  0.9953 -1.1152
18818TIP3    H277946   3.534   1.921   1.918 -1.1339 -0.3580  0.8817
18819TIP3   OH277947   5.159   1.988   2.688 -0.3435  0.0171  0.2177
18819TIP3    H177948   5.175   1.922   2.756 -1.2769 -1.6563 -1.1183
18819TIP3    H277949   5.244   1.998   2.645 -0.2976 -0.6952  0.1243
18820TIP3   OH277950   1.841   1.920  15.643 -0.4380  0.2443 -0.2858
18820TIP3    H177951   1.901   1.891  15.712  1.8067 -0.0022 -2.2378
18820TIP3    H277952   1.807   1.838  15.605  0.1444  0.2995 -0.9519
18821TIP3   OH277953   2.529   6.628  11.425  0.5936 -0.2280 -0.8475
18821TIP3    H177954   2.473   6.701  11.399  1.1086  0.0064 -1.3172
18821TIP3    H277955   2.478   6.550  11.400 -0.5581 -0.0910  0.9087
18822TIP3   OH277956   1.649   6.685   2.290  0.0715 -0.2119  0.2918
18822TIP3    H177957   1.596   6.717   2.217 -1.8717 -0.5243  1.5134
18822TIP3    H277958   1.630   6.591   2.295 -0.0091 -0.1495  1.3467
18823TIP3   OH277959   6.048   5.706  15.199 -0.8378  0.2121 -0.3685
18823TIP3    H177960   6.109   5.753  15.142  2.0169 -1.0276  1.4381
18823TIP3    H277961   6.006   5.642  15.141  0.3612  0.4215 -1.5294
18824TIP3   OH277962   4.095   3.729  17.180  0.4015  0.8423  0.2328
18824TIP3    H177963   4.098   3.768  17.267  1.2369 -1.5102  1.3262
18824TIP3    H277964   4.005   3.742  17.151  0.2049  1.9693  1.2692
18825TIP3   OH277965   5.365   6.159   5.243  0.5390 -0.0807 -0.2442
18825TIP3    H177966   5.335   6.230   5.300  2.1605  0.3763  0.0982
18825TIP3    H277967   5.294   6.148   5.179  0.0369  1.5211 -0.0171
18826TIP3   OH277968   2.307   5.608  13.489 -0.0581  0.0514 -0.7860
18826TIP3    H177969   2.324   5.670  13.419  1.2282  1.4974  0.7360
18826TIP3    H277970   2.240   5.651  13.543  1.8938  0.9317  1.1089
18827TIP3   OH277971   0.780   1.154   5.903  0.1704 -0.4338 -0.1299
18827TIP3    H177972   0.807   1.062   5.907  0.1816 -0.4020  0.6091
18827TIP3    H277973   0.743   1.164   5.815 -0.2723 -1.2707 -0.0478
18828TIP3   OH277974   6.553   3.475   4.834  0.9044 -1.0340  0.1238
18828TIP3    H177975   6.566   3.415   4.908 -0.4611 -2.5830 -0.8099
18828TIP3    H277976   6.608   3.439   4.764 -0.5577 -1.7544 -0.7079
18829TIP3   OH277977   3.354   3.618   2.874  0.0970 -0.3472  0.8422
18829TIP3    H177978   3.320   3.654   2.956  0.9845  1.2096  0.5723
18829TIP3    H277979   3.447   3.642   2.875 -0.0015  0.2348 -0.8864
18830TIP3   OH277980   4.501   3.974  16.812 -0.3438  0.3446  0.1963
18830TIP3    H177981   4.423   3.918  16.811 -0.5371  0.5854  0.8982
18830TIP3    H277982   4.523   3.983  16.905  0.9086 -0.2336 -0.0188
18831TIP3   OH277983   5.866   4.815  13.650  0.3949 -0.1516  0.1710
18831TIP3    H177984   5.802   4.856  13.708  0.7219 -0.3405  0.6692
18831TIP3    H277985   5.875   4.726  13.684  1.3426  0.0472  0.4418
18832TIP3   OH277986   1.296   1.339   3.174  0.3634 -0.3544  0.0659
18832TIP3    H177987   1.264   1.318   3.262  1.4121  0.6857  0.7296
18832TIP3    H277988   1.249   1.419   3.150  0.9590  0.0446  0.2032
18833TIP3   OH277989   5.721   3.540  16.224  0.1752 -0.2833  0.3013
18833TIP3    H177990   5.755   3.572  16.308 -1.2585 -0.6713  1.0507
18833TIP3    H277991   5.635   3.504  16.245 -0.8973  1.0078 -1.5968
18834TIP3   OH277992   0.566   5.994  17.193  0.2578  0.0238  0.2445
18834TIP3    H177993   0.659   6.017  17.195 -0.0798  1.6037 -0.9025
18834TIP3    H277994   0.526   6.047  17.261  0.1132 -0.3678  0.4721
18835TIP3   OH277995   0.874   6.026  12.720 -0.4966 -0.4377 -0.0593
18835TIP3    H177996   0.845   5.962  12.785  1.3693 -1.4334 -0.1408
18835TIP3    H277997   0.803   6.028  12.655 -1.7823 -0.4002  1.2890
18836TIP3   OH277998   2.056   5.888  15.911 -0.1798 -0.2293  0.3324
18836TIP3    H177999   2.128   5.828  15.931  0.4103  0.5067  0.4569
18836TIP3    H278000   2.020   5.911  15.997  1.2187  1.5419  0.5166
18837TIP3   OH278001   4.901   3.732  12.580 -0.0172  0.6266 -0.2867
18837TIP3    H178002   4.879   3.821  12.554 -0.0311  0.9111  0.6372
18837TIP3    H278003   4.847   3.676  12.525 -1.5050  1.2471  0.4825
18838TIP3   OH278004   2.349   2.098   2.115  0.4297  0.1160  0.0425
18838TIP3    H178005   2.312   2.035   2.054 -1.4526  0.5845  0.6321
18838TIP3    H278006   2.368   2.047   2.194 -1.3132  0.2798  0.6046
18839TIP3   OH278007   6.022   3.302  17.024 -0.3531  0.0986 -0.3452
18839TIP3    H178008   5.969   3.316  17.103 -0.7298 -0.6083 -0.4639
18839TIP3    H278009   6.075   3.381  17.017 -1.9771  1.2067 -0.6825
18840TIP3   OH278010   4.369   2.194  11.160 -0.9008 -0.3580  0.6393
18840TIP3    H178011   4.426   2.140  11.216  0.2432 -0.9381 -0.9893
18840TIP3    H278012   4.380   2.156  11.072 -2.1063  0.9331 -0.1017
18841TIP3   OH278013   1.408   4.613  12.644  0.0510  0.2701 -0.0087
18841TIP3    H178014   1.451   4.595  12.560  0.5119  2.3117 -0.2623
18841TIP3    H278015   1.478   4.643  12.701 -0.7790  2.3489 -0.0144
18842TIP3   OH278016   1.412   4.026  13.580 -0.1589 -0.1290 -0.0847
18842TIP3    H178017   1.355   4.028  13.657  2.4908  2.3858  2.0260
18842TIP3    H278018   1.467   3.949  13.593 -0.5089 -0.3792 -0.0865
18843TIP3   OH278019   4.972   5.673  12.003  0.1308  0.1037 -0.3607
18843TIP3    H178020   5.033   5.712  11.942 -0.0142  0.9192 -0.0002
18843TIP3    H278021   4.989   5.579  11.998  0.5696  0.2210 -1.1524
18844TIP3   OH278022   5.395   3.743  15.347  0.1418  0.0469  0.4207
18844TIP3    H178023   5.387   3.833  15.378  0.3238  0.4910 -0.7847
18844TIP3    H278024   5.476   3.741  15.296 -0.8262 -0.3014 -1.1693
18845TIP3   OH278025   4.757   5.305  11.418 -0.4419 -0.1302 -0.1410
18845TIP3    H178026   4.761   5.388  11.466  0.0811 -1.4501  2.2268
18845TIP3    H278027   4.675   5.265  11.446 -1.0177 -0.1657 -1.7816
18846TIP3   OH278028   1.154   5.948   4.813  0.4861  0.1274  0.3511
18846TIP3    H178029   1.225   5.913   4.868  0.0852 -1.2456  0.0213
18846TIP3    H278030   1.181   5.928   4.723 -0.6573 -1.0885  0.2571
18847TIP3   OH278031   2.313   1.727  15.630  0.1356 -0.0618 -0.0992
18847TIP3    H178032   2.386   1.665  15.627  0.0763 -0.1379  0.0066
18847TIP3    H278033   2.248   1.683  15.685  0.7015  0.7686  1.2649
18848TIP3   OH278034   5.741   3.752   0.138 -0.4292 -0.2703  0.9311
18848TIP3    H178035   5.693   3.673   0.113  1.2959 -1.1227  0.1714
18848TIP3    H278036   5.824   3.721   0.172  0.5251  1.2261  0.0904
18849TIP3   OH278037   3.677   5.179  13.423 -0.5687 -0.4052  0.0289
18849TIP3    H178038   3.613   5.147  13.359 -1.7548 -0.2884  1.1073
18849TIP3    H278039   3.756   5.195  13.372 -0.4473 -3.2986 -0.8890
18850TIP3   OH278040   1.947   4.429   4.466 -0.1711  0.4187  0.5118
18850TIP3    H178041   1.962   4.505   4.410  0.4559 -1.3880 -1.9538
18850TIP3    H278042   1.891   4.371   4.414  0.7937 -1.5687  1.5385
18851TIP3   OH278043   6.447   6.517   0.416 -0.4936 -0.2039 -0.2510
18851TIP3    H178044   6.447   6.597   0.363  0.7053 -1.2838 -1.9635
18851TIP3    H278045   6.367   6.471   0.391 -0.3052 -0.3565 -0.5814
18852TIP3   OH278046   0.275   1.884  15.312 -0.5832 -0.0831  0.3410
18852TIP3    H178047   0.231   1.873  15.228 -0.4645 -1.9069  0.4937
18852TIP3    H278048   0.223   1.834  15.374  0.2026 -0.0449  1.0593
18853TIP3   OH278049   3.281   2.564  17.022  0.5701 -0.1041 -0.0182
18853TIP3    H178050   3.255   2.504  16.952  0.9711 -0.2401 -0.0563
18853TIP3    H278051   3.295   2.508  17.098  0.4037  0.0092  0.0944
18854TIP3   OH278052   0.818   0.690   5.993  0.0782  0.3561 -0.9398
18854TIP3    H178053   0.877   0.618   6.012  0.9026  0.8153 -1.7049
18854TIP3    H278054   0.852   0.764   6.044 -1.4807 -0.0632  0.8357
18855TIP3   OH278055   0.449   6.330   0.266  0.1691  0.1645  0.3659
18855TIP3    H178056   0.442   6.341   0.361  1.3099 -2.1187  0.7824
18855TIP3    H278057   0.517   6.392   0.239 -0.0535  0.7190  1.0522
18856TIP3   OH278058   4.612   0.609   4.316 -0.3376 -0.1848 -0.1844
18856TIP3    H178059   4.605   0.514   4.308 -1.8641 -0.2315  1.0960
18856TIP3    H278060   4.616   0.641   4.226 -0.6210 -1.4221 -0.6466
18857TIP3   OH278061   2.147   2.308   0.568 -0.0135  0.3119  0.3139
18857TIP3    H178062   2.235   2.345   0.564 -0.2120  0.9531  1.3410
18857TIP3    H278063   2.105   2.355   0.640 -1.5948  0.8517 -0.9019
18858TIP3   OH278064   5.534   1.455  16.071 -0.4542  0.1027  0.0070
18858TIP3    H178065   5.475   1.491  16.137 -0.5104  0.7455 -0.3820
18858TIP3    H278066   5.512   1.503  15.991 -1.0100 -1.2989 -0.6984
18859TIP3   OH278067   2.502   6.156  16.081 -0.7067  0.3053 -0.6118
18859TIP3    H178068   2.477   6.118  15.997 -0.5406 -0.3089 -0.3884
18859TIP3    H278069   2.592   6.185  16.068  0.4460 -2.5130  0.2010
18860TIP3   OH278070   2.632   1.719  14.558 -0.1789 -0.3514  0.2745
18860TIP3    H178071   2.718   1.699  14.522 -0.7131 -0.5041 -0.9850
18860TIP3    H278072   2.573   1.655  14.518 -0.8313 -0.5035  1.4157
18861TIP3   OH278073   2.969   3.295  12.972 -0.0659  0.6937 -0.7920
18861TIP3    H178074   3.004   3.329  12.890 -2.0114  1.2125 -1.4629
18861TIP3    H278075   3.016   3.343  13.040  1.9629 -0.1377 -1.5526
18862TIP3   OH278076   1.665   1.073  12.813  0.2360  0.5883 -0.0129
18862TIP3    H178077   1.584   1.060  12.763  0.0339 -0.8140  0.6371
18862TIP3    H278078   1.734   1.034  12.759  0.6820  2.6606 -1.0321
18863TIP3   OH278079   4.790   2.479  16.594  0.5012  0.2544 -0.3460
18863TIP3    H178080   4.822   2.465  16.504  1.4634 -0.5669  0.1017
18863TIP3    H278081   4.727   2.550  16.586  0.3336 -0.0205 -1.7285
18864TIP3   OH278082   4.464   0.925   4.848  0.0911 -0.0539 -0.6224
18864TIP3    H178083   4.518   1.000   4.872 -0.4751 -0.5868  2.8997
18864TIP3    H278084   4.522   0.870   4.795  1.0638  2.0190 -1.7964
18865TIP3   OH278085   5.014   4.118  13.730 -0.3364 -0.3648  0.1190
18865TIP3    H178086   5.020   4.125  13.826  0.6284 -0.6206  0.0917
18865TIP3    H278087   5.043   4.204  13.698 -0.9389 -0.1798  0.0536
18866TIP3   OH278088   6.311   5.670  11.582  0.3071 -0.0584 -0.1730
18866TIP3    H178089   6.359   5.635  11.507  1.2184 -0.4670  0.5704
18866TIP3    H278090   6.231   5.707  11.545  1.8150  1.9281 -1.6639
18867TIP3   OH278091   6.400   5.640   0.165 -0.1300  0.4015  0.1362
18867TIP3    H178092   6.340   5.603   0.100 -1.7418  1.9982  0.6119
18867TIP3    H278093   6.482   5.652   0.118  0.1748 -2.6480 -0.3096
18868TIP3   OH278094   6.225   5.183  14.627  0.3422 -0.1589 -0.0551
18868TIP3    H178095   6.159   5.220  14.568 -0.5652 -0.6971  0.6062
18868TIP3    H278096   6.183   5.182  14.713  0.3111 -2.7857 -0.0464
18869TIP3   OH278097   3.583   3.248   1.353 -0.3494  0.2909  0.0749
18869TIP3    H178098   3.625   3.314   1.408  0.1539  0.6035 -0.6884
18869TIP3    H278099   3.532   3.195   1.415 -1.2674  1.7588  0.6258
18870TIP3   OH278100   0.647   5.534  14.718 -0.2622  0.1602  0.2882
18870TIP3    H178101   0.586   5.531  14.644 -1.9419  0.3802  1.5766
18870TIP3    H278102   0.622   5.613  14.765  0.2693 -0.3620  1.4782
18871TIP3   OH278103   3.564   3.522  10.609 -0.1901 -0.2466  0.1123
18871TIP3    H178104   3.618   3.523  10.689 -0.2981 -0.6101  0.1907
18871TIP3    H278105   3.607   3.585  10.551  0.2971 -0.4938  0.1925
18872TIP3   OH278106   2.974   3.619   2.400  0.4226  0.1887 -0.3286
18872TIP3    H178107   3.061   3.621   2.362  0.5379 -1.1605 -0.1996
18872TIP3    H278108   2.925   3.557   2.346  0.4009 -1.2806  1.2704
18873TIP3   OH278109   0.533   5.411   5.724  0.2795  0.4014 -0.4193
18873TIP3    H178110   0.615   5.373   5.756  0.5308 -0.5845 -2.1072
18873TIP3    H278111   0.537   5.400   5.629 -1.8892  0.1676 -0.5290
18874TIP3   OH278112   2.432   1.557   4.126 -0.0987  0.0724 -0.2169
18874TIP3    H178113   2.354   1.607   4.149 -1.0236 -1.3453 -0.1366
18874TIP3    H278114   2.427   1.479   4.181  1.3867 -0.0369 -0.2120
18875TIP3   OH278115   0.310   6.551  10.636 -0.1649 -0.3330 -0.4220
18875TIP3    H178116   0.389   6.534  10.688  0.6659  0.5251 -1.3600
18875TIP3    H278117   0.260   6.469  10.641  0.0884 -0.4185  1.3501
18876TIP3   OH278118   6.362   5.889   0.300 -0.3859 -0.7055 -0.2451
18876TIP3    H178119   6.417   5.943   0.243 -1.0353 -0.2943 -0.4930
18876TIP3    H278120   6.360   5.803   0.258 -0.7864 -0.4300 -0.7941
18877TIP3   OH278121   6.800   2.897   1.554  0.1557  0.3517 -0.2956
18877TIP3    H178122   6.715   2.941   1.558 -1.0171 -1.7331 -0.4258
18877TIP3    H278123   6.793   2.840   1.477  1.5324 -0.1542 -0.0676
18878TIP3   OH278124   6.079   3.650  12.155  0.3681 -0.3344 -0.0882
18878TIP3    H178125   6.069   3.640  12.060  1.0050 -3.2184  0.0449
18878TIP3    H278126   6.153   3.710  12.165  0.4820 -0.2093 -1.4269
18879TIP3   OH278127   1.357   2.118   5.513  0.4094 -0.2373 -0.5944
18879TIP3    H178128   1.439   2.130   5.465  1.0450 -0.4807  0.3952
18879TIP3    H278129   1.329   2.206   5.534  1.1092 -0.1765  0.1621
18880TIP3   OH278130   1.933   4.143  12.437  0.0539  0.1028 -0.0558
18880TIP3    H178131   1.866   4.097  12.387  1.7459  0.5460 -2.9952
18880TIP3    H278132   1.926   4.234  12.409 -0.0552  0.7324  1.9130
18881TIP3   OH278133   3.479   0.861   1.102  0.2635  0.0228  0.5334
18881TIP3    H178134   3.439   0.947   1.111 -0.8614 -0.2241 -1.5539
18881TIP3    H278135   3.503   0.855   1.009  0.7249 -1.7501  0.7313
18882TIP3   OH278136   0.955   6.609  13.585 -0.8128  0.6675 -0.4691
18882TIP3    H178137   1.002   6.541  13.537 -0.7359  0.0441  0.4846
18882TIP3    H278138   0.907   6.657  13.517 -0.5019 -0.0419 -1.1980
18883TIP3   OH278139   5.102   5.822   0.547 -0.2013 -0.4226 -0.2162
18883TIP3    H178140   5.108   5.796   0.455  0.0527  0.3407 -0.4262
18883TIP3    H278141   5.103   5.918   0.545  0.0620 -0.3958  0.5963
18884TIP3   OH278142   4.161   3.975  14.940  0.4411  0.7794 -0.2843
18884TIP3    H178143   4.237   4.015  14.897 -0.3910  1.1565 -1.4455
18884TIP3    H278144   4.146   3.894  14.891  2.4768 -1.4198  2.3955
18885TIP3   OH278145   0.441   1.509   2.539 -0.0817 -0.8293  0.2354
18885TIP3    H178146   0.494   1.442   2.495 -2.6357 -3.8655  1.3120
18885TIP3    H278147   0.444   1.485   2.631 -0.2119  1.2943  0.8330
18886TIP3   OH278148   1.854   2.202  14.191  0.4137  0.4355 -0.4168
18886TIP3    H178149   1.772   2.252  14.188 -0.3806 -0.8354 -0.7545
18886TIP3    H278150   1.865   2.168  14.103  1.5940  0.9949 -0.5032
18887TIP3   OH278151   6.357   3.819   4.394 -0.6413 -0.7346  0.1002
18887TIP3    H178152   6.449   3.807   4.419  0.3207  1.7562 -1.7729
18887TIP3    H278153   6.352   3.782   4.305 -1.2469 -0.1976 -0.0962
18888TIP3   OH278154   0.766   4.935   3.042 -0.0273 -0.1441 -0.0846
18888TIP3    H178155   0.705   4.946   3.115  0.3404 -4.2944  1.1008
18888TIP3    H278156   0.725   4.869   2.986  2.8014 -2.4186  0.2801
18889TIP3   OH278157   4.534   1.804  15.871 -0.3819  0.2486  0.3135
18889TIP3    H178158   4.579   1.858  15.807 -0.3656 -2.0150 -1.7343
18889TIP3    H278159   4.443   1.802  15.841 -1.4788  2.7042  2.9748
18890TIP3   OH278160   3.375   0.460  10.951  0.4710 -0.6004  1.2167
18890TIP3    H178161   3.385   0.416  10.866  0.4354 -0.7408  1.2844
18890TIP3    H278162   3.444   0.526  10.952 -0.2437  0.1930  0.5912
18891TIP3   OH278163   6.136   2.478  11.033  0.1369  0.3565 -0.3106
18891TIP3    H178164   6.135   2.382  11.032 -0.1728  0.3596 -0.5820
18891TIP3    H278165   6.044   2.503  11.018 -0.4032  0.6701  2.8124
18892TIP3   OH278166   6.808   5.691   4.864  0.6471  0.3590  0.5514
18892TIP3    H178167   6.749   5.648   4.802 -1.5522  1.7735  1.5672
18892TIP3    H278168   6.821   5.779   4.828  2.3743  0.0421  0.2630
18893TIP3   OH278169   2.274   5.025   3.020  0.2837  0.8748 -0.1311
18893TIP3    H178170   2.295   4.984   3.104  0.4967  0.1857 -0.5093
18893TIP3    H278171   2.183   5.054   3.029 -1.0565 -2.5558 -0.8795
18894TIP3   OH278172   5.718   5.468  13.392  0.1950  0.2339 -0.0417
18894TIP3    H178173   5.701   5.562  13.403  0.7621  0.3059  0.2892
18894TIP3    H278174   5.772   5.445  13.468  3.1184  0.4233 -1.9169
18895TIP3   OH278175   6.278   4.760   2.851  0.1611  0.6600  0.2571
18895TIP3    H178176   6.220   4.835   2.838  0.1432  0.5676 -0.2067
18895TIP3    H278177   6.332   4.784   2.926 -0.4773  0.7474  0.6974
18896TIP3   OH278178   6.673   0.078  14.127 -0.1102  0.5171 -0.0236
18896TIP3    H178179   6.587   0.043  14.147 -0.0401  1.6954  2.8608
18896TIP3    H278180   6.714   0.092  14.213  2.8918  0.2001 -1.2766
18897TIP3   OH278181   4.632   5.309  13.402  0.1685  0.5224 -0.1804
18897TIP3    H178182   4.694   5.381  13.411 -0.3141  1.0849 -1.1080
18897TIP3    H278183   4.547   5.352  13.392 -0.4875 -0.2405  1.7257
18898TIP3   OH278184   4.262   4.291   0.172  1.2063 -0.1250 -0.0232
18898TIP3    H178185   4.307   4.341   0.104  0.0532  2.0992  0.7434
18898TIP3    H278186   4.325   4.283   0.243  1.7082 -0.5908 -0.5138
18899TIP3   OH278187   5.040   6.431   4.844  0.6066  0.3449 -0.0146
18899TIP3    H178188   5.077   6.387   4.768  0.6390 -0.1136  0.2665
18899TIP3    H278189   4.949   6.446   4.821  0.6556  0.3491 -0.2071
18900TIP3   OH278190   6.374   0.113  12.737  0.0057 -0.5731  0.0982
18900TIP3    H178191   6.445   0.102  12.800 -0.2419  1.2243  0.7624
18900TIP3    H278192   6.362   0.208  12.731 -1.5472 -0.7936 -0.8940
18901TIP3   OH278193   6.113   1.292  12.534  0.5135  0.5595 -0.3551
18901TIP3    H178194   6.044   1.334  12.483  0.0359  2.1806  1.4822
18901TIP3    H278195   6.145   1.362  12.592  2.0176 -0.8024  0.5225
18902TIP3   OH278196   5.407   4.084   1.014  0.7973 -0.1393  0.7302
18902TIP3    H178197   5.424   3.998   1.052  0.6281 -0.8189 -0.6505
18902TIP3    H278198   5.459   4.085   0.933 -0.8152  0.2192 -0.3417
18903TIP3   OH278199   4.868   2.880   0.162 -0.3036 -0.0175  0.2993
18903TIP3    H178200   4.881   2.814   0.230 -1.1930  1.0329  1.5485
18903TIP3    H278201   4.914   2.957   0.194 -0.4992  0.4146 -0.4378
18904TIP3   OH278202   0.373   0.924  14.646 -0.3161 -0.1662 -1.0910
18904TIP3    H178203   0.439   0.865  14.609 -0.6571 -0.6029 -1.0114
18904TIP3    H278204   0.298   0.916  14.588 -0.6665 -0.4550 -0.6009
18905TIP3   OH278205   4.809   0.915  13.523 -0.1657  0.2463  0.0010
18905TIP3    H178206   4.756   0.995  13.522  0.1946  0.5919  2.1133
18905TIP3    H278207   4.899   0.947  13.520 -0.0405 -0.1881 -0.9146
18906TIP3   OH278208   5.343   0.522   2.513 -0.2512 -0.6121  0.1614
18906TIP3    H178209   5.319   0.606   2.553  0.7151 -1.0497  1.7878
18906TIP3    H278210   5.409   0.544   2.447 -1.1872  0.0495 -0.5688
18907TIP3   OH278211   0.240   4.757  11.261 -0.0942 -0.3079 -0.1907
18907TIP3    H178212   0.196   4.690  11.208  0.3795 -0.3761 -0.5005
18907TIP3    H278213   0.332   4.751  11.236  0.2901 -0.9043  1.2136
18908TIP3   OH278214   0.366   1.059   0.833  0.5443  0.3450 -0.1814
18908TIP3    H178215   0.421   1.096   0.902  0.9741  1.1308 -0.9342
18908TIP3    H278216   0.379   1.116   0.758  0.3816 -0.7132 -1.0475
18909TIP3   OH278217   5.929   0.198  14.360 -0.7892 -0.0735 -0.2421
18909TIP3    H178218   5.928   0.258  14.285 -1.8965  0.3630  0.1067
18909TIP3    H278219   5.948   0.254  14.435 -0.0370 -0.4551 -0.1411
18910TIP3   OH278220   2.586   2.478  14.985  0.6311 -0.5238  0.4384
18910TIP3    H178221   2.645   2.548  15.014 -0.5649  0.1646  1.2990
18910TIP3    H278222   2.598   2.474  14.890  0.2854  1.2779  0.2892
18911TIP3   OH278223   5.639   1.817   2.921  0.2348 -0.4037  0.2212
18911TIP3    H178224   5.676   1.882   2.981 -1.4314  0.5955  0.2254
18911TIP3    H278225   5.611   1.745   2.977 -0.9517  0.3520  0.6338
18912TIP3   OH278226   3.046   1.385   1.553 -0.5249  0.2892  0.3533
18912TIP3    H178227   3.059   1.477   1.576  0.7098  0.3056 -0.3074
18912TIP3    H278228   3.101   1.373   1.475 -1.1501 -0.8545  0.0831
18913TIP3   OH278229   1.293   2.261  11.752  0.2009 -0.0113  0.3533
18913TIP3    H178230   1.360   2.271  11.684  0.8593 -1.0439  0.8300
18913TIP3    H278231   1.322   2.318  11.823  1.4065 -1.5445  1.1553
18914TIP3   OH278232   6.246   6.633   3.593 -0.3034 -0.0788 -0.3080
18914TIP3    H178233   6.298   6.555   3.574 -0.0300 -0.4452  1.6829
18914TIP3    H278234   6.201   6.653   3.511  1.2324 -1.0910 -1.4406
18915TIP3   OH278235   2.616   1.249  11.240  0.4401 -0.5211 -0.5108
18915TIP3    H178236   2.521   1.255  11.231  0.4649 -0.0300 -0.4517
18915TIP3    H278237   2.639   1.168  11.195 -0.1490 -1.2776  0.4837
18916TIP3   OH278238   6.057   2.847  17.205  0.6885  0.3884  0.7410
18916TIP3    H178239   6.059   2.900  17.125  0.5049  0.9135  1.0863
18916TIP3    H278240   6.132   2.788  17.196  1.3243  1.1891  0.6887
18917TIP3   OH278241   2.887   0.103  14.894  0.2896  0.4260  0.1589
18917TIP3    H178242   2.880   0.008  14.890  0.9226  0.4222 -1.4014
18917TIP3    H278243   2.831   0.135  14.823  0.6737  1.1872  0.1796
18918TIP3   OH278244   2.812   0.938   1.654  0.5089 -0.4931  0.0516
18918TIP3    H178245   2.903   0.919   1.633  1.2424  1.9425  0.7234
18918TIP3    H278246   2.787   1.009   1.593 -0.9552 -1.1199 -0.1327
18919TIP3   OH278247   4.218   3.719   0.396 -0.2682  0.0016 -0.5817
18919TIP3    H178248   4.178   3.779   0.460  1.2207 -1.4801  1.8797
18919TIP3    H278249   4.312   3.725   0.413  0.0067 -2.0314 -1.1717
18920TIP3   OH278250   1.695   2.913  13.330  0.2900 -0.3665  0.1594
18920TIP3    H178251   1.677   2.998  13.289 -2.8487 -0.2930  1.4026
18920TIP3    H278252   1.733   2.934  13.415  0.0330 -0.2064  0.2365
18921TIP3   OH278253   3.987   0.367   4.196 -0.4724 -0.4970 -0.4338
18921TIP3    H178254   4.014   0.275   4.184  1.3969 -0.0889  0.3152
18921TIP3    H278255   3.919   0.363   4.263  0.3343 -1.2635  0.3666
18922TIP3   OH278256   3.510   4.640  12.261 -0.7015 -0.4120 -0.2378
18922TIP3    H178257   3.480   4.549  12.266 -0.6051 -0.4330 -0.0324
18922TIP3    H278258   3.541   4.660  12.349 -1.5711  0.1185 -0.0412
18923TIP3   OH278259   4.711   5.901  12.545 -0.3443 -0.1100 -0.4004
18923TIP3    H178260   4.734   5.981  12.497 -0.7964  0.0126 -0.4182
18923TIP3    H278261   4.793   5.851  12.548 -0.0138  0.4316 -0.2314
18924TIP3   OH278262   3.846   4.897   2.359 -0.2664 -0.2966  0.0411
18924TIP3    H178263   3.901   4.852   2.423 -0.3775 -1.4858 -0.6710
18924TIP3    H278264   3.899   4.971   2.330  0.0611 -0.1470  0.9882
18925TIP3   OH278265   5.034   5.519   3.928  0.0216  0.2252  0.1008
18925TIP3    H178266   5.105   5.583   3.914 -0.3829  0.9948  1.3532
18925TIP3    H278267   4.962   5.552   3.875  0.0424  0.4199  0.1913
18926TIP3   OH278268   4.323   5.533   6.923 -0.6858  0.3195  0.1301
18926TIP3    H178269   4.351   5.618   6.958 -1.1578  0.5409 -0.0191
18926TIP3    H278270   4.403   5.491   6.894 -0.5427  1.1043 -0.6416
18927TIP3   OH278271   6.427   6.098  12.613  0.2695  0.2127 -0.2332
18927TIP3    H178272   6.385   6.026  12.661  0.4542  0.7121  0.6880
18927TIP3    H278273   6.354   6.153  12.584  0.1957  0.2428  0.0104
18928TIP3   OH278274   0.118   2.069  15.518  0.1184  0.6080  0.5562
18928TIP3    H178275   0.151   1.992  15.564 -1.6181 -1.4600 -1.4493
18928TIP3    H278276   0.171   2.075  15.439 -0.2191  1.0738  0.3555
18929TIP3   OH278277   6.384   3.238  17.133  0.1629  0.0047 -0.1518
18929TIP3    H178278   6.334   3.225  17.214  0.7629  1.1380  0.4132
18929TIP3    H278279   6.439   3.314  17.150  0.9092 -0.2447 -1.3429
18930TIP3   OH278280   6.776   2.684  13.461 -0.1433 -0.5905 -0.3066
18930TIP3    H178281   6.811   2.631  13.533  1.4138  0.5831 -0.1544
18930TIP3    H278282   6.824   2.767  13.466 -0.8164 -0.0510 -2.0044
18931TIP3   OH278283   1.205   2.659   0.424  0.7237 -0.3372  0.1157
18931TIP3    H178284   1.271   2.717   0.463  0.1845  1.4202 -1.4497
18931TIP3    H278285   1.257   2.593   0.377  1.3908  0.2502 -0.0056
18932TIP3   OH278286   4.446   1.789   5.277  0.1904 -0.1934  0.0198
18932TIP3    H178287   4.473   1.874   5.312  1.0338 -1.1819  1.9289
18932TIP3    H278288   4.525   1.736   5.280 -1.1344 -2.3174  3.0235
18933TIP3   OH278289   6.476   6.557   0.708  0.1415 -0.0338  0.5470
18933TIP3    H178290   6.478   6.645   0.670 -1.5132  0.4746  1.5280
18933TIP3    H278291   6.520   6.502   0.643  0.7475  1.4117 -0.3270
18934TIP3   OH278292   3.312   5.867   3.066  0.2345 -0.3848 -0.4376
18934TIP3    H178293   3.389   5.909   3.027  0.3609 -1.3503 -1.2596
18934TIP3    H278294   3.238   5.920   3.036  0.4450 -0.3956 -0.9829
18935TIP3   OH278295   3.437   4.866  15.672  0.0966 -0.1629 -0.0460
18935TIP3    H178296   3.503   4.921  15.630  0.0270 -1.2684 -1.6709
18935TIP3    H278297   3.487   4.814  15.736  0.3174  0.9963  0.7669
18936TIP3   OH278298   2.205   2.972  14.692  0.0168  0.0075  0.2195
18936TIP3    H178299   2.197   2.956  14.786 -2.2568  1.2594  0.3044
18936TIP3    H278300   2.289   2.932  14.668  0.6637 -0.3336  2.7615
18937TIP3   OH278301   4.717   2.850  10.943  0.0288  0.3059  0.3645
18937TIP3    H178302   4.811   2.833  10.956  1.1124  1.9856 -3.7977
18937TIP3    H278303   4.707   2.943  10.959 -1.3703 -0.0937  2.1941
18938TIP3   OH278304   3.783   6.017  15.737 -0.5945  0.2594  0.1029
18938TIP3    H178305   3.723   5.988  15.806  1.0178 -0.1812  1.3930
18938TIP3    H278306   3.809   6.105  15.763  0.7270 -0.2509  0.5990
18939TIP3   OH278307   6.702   4.551   4.065 -0.2777  0.0227 -0.0252
18939TIP3    H178308   6.780   4.575   4.114 -0.4701 -1.6062  1.1729
18939TIP3    H278309   6.648   4.502   4.127 -0.7022 -1.8157 -1.7259
18940TIP3   OH278310   3.805   4.339   1.457 -0.1102 -0.6877 -0.1727
18940TIP3    H178311   3.894   4.314   1.432 -0.0230 -0.2424 -0.3207
18940TIP3    H278312   3.816   4.393   1.536 -0.1477  0.3347 -0.8491
18941TIP3   OH278313   1.391   5.056  14.013  0.4460  0.3254  0.7900
18941TIP3    H178314   1.453   5.011  13.955 -0.6738 -0.1973 -0.0394
18941TIP3    H278315   1.397   5.008  14.096 -0.0398 -0.7605  0.2073
18942TIP3   OH278316   4.321   5.274  14.566  0.1694  0.3211 -0.5110
18942TIP3    H178317   4.333   5.297  14.658 -2.3010 -0.1644  0.0096
18942TIP3    H278318   4.409   5.252  14.535  0.7882 -2.1202  2.4849
18943TIP3   OH278319   2.635   0.108   3.387  0.1445 -0.0533 -0.7805
18943TIP3    H178320   2.697   0.071   3.324 -0.1321  0.2044 -1.2064
18943TIP3    H278321   2.611   0.193   3.351  0.3779  0.3279 -0.0677
18944TIP3   OH278322   6.108   0.042   2.929 -0.6831 -0.2324 -0.3135
18944TIP3    H178323   6.061  -0.021   2.983 -0.1754 -1.3086 -1.0780
18944TIP3    H278324   6.042   0.079   2.871 -0.8874 -0.5048 -0.2537
18945TIP3   OH278325   2.663   6.679   2.413 -0.2841 -0.1795 -0.3040
18945TIP3    H178326   2.736   6.721   2.367  1.3566 -1.4553  0.9683
18945TIP3    H278327   2.642   6.603   2.358  1.2218 -1.3254  0.6236
18946TIP3   OH278328   5.874   2.239  13.374  0.0266  0.4816 -0.3298
18946TIP3    H178329   5.832   2.197  13.449  0.2487 -1.5121 -1.2351
18946TIP3    H278330   5.817   2.216  13.300  0.0428  2.0397 -0.8662
18947TIP3   OH278331   1.141   4.697   5.597  0.5890 -1.1669 -0.0779
18947TIP3    H178332   1.227   4.654   5.604  0.9436 -0.4167  0.3382
18947TIP3    H278333   1.146   4.769   5.660  0.2969 -0.0542 -1.2946
18948TIP3   OH278334   0.970   2.873  14.253 -0.4167  0.5350 -0.5628
18948TIP3    H178335   0.926   2.823  14.184 -0.9813 -1.3784  1.0862
18948TIP3    H278336   0.900   2.897  14.314  0.5204 -1.4263  1.4358
18949TIP3   OH278337   4.689   2.313  11.289  0.7194 -0.1255 -0.2704
18949TIP3    H178338   4.717   2.293  11.379 -0.3338 -1.5171 -0.2089
18949TIP3    H278339   4.742   2.256  11.234 -0.0944 -0.8271 -0.3504
18950TIP3   OH278340   2.279   1.425  11.029  0.2233 -0.3537 -0.1014
18950TIP3    H178341   2.198   1.436  11.077  0.3030  0.0968 -0.0610
18950TIP3    H278342   2.334   1.499  11.057  0.3565 -0.2154 -0.7027
18951TIP3   OH278343   6.662   6.011  12.498  0.4800  0.2414  0.2763
18951TIP3    H178344   6.672   6.053  12.413  1.6795  2.0234  1.2322
18951TIP3    H278345   6.571   6.028  12.523  0.9842  2.7497  0.7722
18952TIP3   OH278346   6.784   3.659   3.098  0.6584  0.1265 -0.3559
18952TIP3    H178347   6.799   3.572   3.061  1.3484  0.6110 -1.2791
18952TIP3    H278348   6.698   3.684   3.066 -0.3534 -0.9227  1.4024
18953TIP3   OH278349   0.592   5.236  15.398 -0.0461  0.1675  0.3660
18953TIP3    H178350   0.667   5.177  15.385 -0.7678 -1.0135  1.3746
18953TIP3    H278351   0.602   5.302  15.329  0.7338 -1.1774 -0.8749
18954TIP3   OH278352   5.047   1.997  11.864  0.1185 -0.5169  0.5467
18954TIP3    H178353   5.037   1.920  11.920 -1.4038  0.2867  1.4264
18954TIP3    H278354   5.117   2.048  11.905  0.3248 -0.8445  0.6131
18955TIP3   OH278355   3.426   0.420  14.918 -0.6553 -0.4425  0.5517
18955TIP3    H178356   3.453   0.502  14.876  2.7569 -0.7534  1.8698
18955TIP3    H278357   3.344   0.397  14.874 -2.1178  3.9233  0.5329
18956TIP3   OH278358   3.725   2.905   3.795 -0.3749  0.9159 -0.5545
18956TIP3    H178359   3.771   2.981   3.829 -1.4232  0.7317  1.4290
18956TIP3    H278360   3.665   2.880   3.865 -2.6218  0.4110 -2.5218
18957TIP3   OH278361   1.796   0.911  15.014  0.1509  0.6778 -0.4296
18957TIP3    H178362   1.852   0.919  14.937  0.7697  0.8156  0.0200
18957TIP3    H278363   1.753   0.827  15.004  0.3471  0.6241 -0.8459
18958TIP3   OH278364   4.340   5.037   0.827 -0.3998 -0.3646  0.0062
18958TIP3    H178365   4.348   4.988   0.746 -2.8931  0.6037 -0.9192
18958TIP3    H278366   4.259   5.088   0.817  0.0512  1.0093  2.4479
18959TIP3   OH278367   2.988   2.434  14.521 -0.1038  0.2769  0.7935
18959TIP3    H178368   2.938   2.370  14.573  2.0266 -0.5599  1.9191
18959TIP3    H278369   2.922   2.475  14.465 -1.9005 -1.4024  1.5459
18960TIP3   OH278370   3.290   0.888   0.752 -0.3300  0.4153  0.6698
18960TIP3    H178371   3.266   0.842   0.832  1.6967 -0.3690  0.8729
18960TIP3    H278372   3.293   0.820   0.685  0.3832  0.6499  0.4592
18961TIP3   OH278373   4.977   4.817  13.163  0.9932 -0.0215 -0.2169
18961TIP3    H178374   4.890   4.841  13.131  1.7554  1.6975 -1.1528
18961TIP3    H278375   5.025   4.900  13.167  2.7980 -1.0064 -0.3667
18962TIP3   OH278376   4.846   4.654  14.323  0.7942  0.2920 -0.1174
18962TIP3    H178377   4.838   4.571  14.370  0.9197 -0.3934 -1.2677
18962TIP3    H278378   4.937   4.658  14.295  0.6168  0.4774 -0.6862
18963TIP3   OH278379   0.437   2.703  14.906 -0.3814 -0.7206 -0.0434
18963TIP3    H178380   0.410   2.700  14.814  2.4445 -3.1495 -0.9209
18963TIP3    H278381   0.503   2.772  14.909 -1.5213  0.3966  0.5810
18964TIP3   OH278382   4.316   4.103  12.701  0.2322 -0.3030 -0.1328
18964TIP3    H178383   4.249   4.073  12.763  1.1791  0.0904  1.1086
18964TIP3    H278384   4.309   4.198  12.704  2.5808 -0.0957  2.0752
18965TIP3   OH278385   0.003   2.304  16.868 -1.1480  0.6345 -0.3908
18965TIP3    H178386   0.096   2.291  16.848 -0.7994  2.0407  0.1963
18965TIP3    H278387  -0.002   2.303  16.963 -2.0689 -1.3261 -0.4036
18966TIP3   OH278388   6.228   1.518  17.155  0.1954  0.2980  0.2793
18966TIP3    H178389   6.200   1.526  17.064 -0.1211  0.9896  0.4273
18966TIP3    H278390   6.250   1.426  17.166  1.0143  0.3574 -0.7224
18967TIP3   OH278391   2.968   2.474  10.637 -0.1388  0.5306  0.0242
18967TIP3    H178392   2.906   2.530  10.683  0.2620 -0.0955  1.3679
18967TIP3    H278393   2.913   2.417  10.583 -0.5658  1.9197 -1.0716
18968TIP3   OH278394   6.116   4.349   0.896 -0.4157 -0.1829 -0.7261
18968TIP3    H178395   6.070   4.294   0.960  1.4061 -0.8421  0.0952
18968TIP3    H278396   6.183   4.292   0.859  0.9826  1.2158 -0.4763
18969TIP3   OH278397   6.326   5.455   3.424 -0.1143  0.1401  0.5463
18969TIP3    H178398   6.309   5.390   3.357 -1.5007 -0.1918  1.1741
18969TIP3    H278399   6.411   5.430   3.462 -0.5796 -1.2592  0.7182
18970TIP3   OH278400   1.204   4.069  16.491 -0.3180 -0.5072 -0.2882
18970TIP3    H178401   1.283   4.055  16.543 -0.4849 -1.4782 -0.2630
18970TIP3    H278402   1.213   4.007  16.418 -0.7136 -0.1126 -0.6744
18971TIP3   OH278403   5.332   4.753   0.845  0.2952 -0.3444  0.1589
18971TIP3    H178404   5.332   4.838   0.801 -0.8009 -0.1971  0.4310
18971TIP3    H278405   5.400   4.703   0.799  0.3702  0.3912 -0.5542
18972TIP3   OH278406   2.445   5.944  11.899  0.4533 -0.4834 -0.2287
18972TIP3    H178407   2.461   6.015  11.961  3.1452 -2.2696  1.3319
18972TIP3    H278408   2.414   5.871  11.953  1.0706 -1.5258 -1.2249
18973TIP3   OH278409   4.529   6.016   0.059 -0.3258 -0.0134 -0.6091
18973TIP3    H178410   4.468   5.972   0.118  1.0651  0.8196  1.5664
18973TIP3    H278411   4.473   6.065  -0.001 -1.7915 -0.9989 -0.1006
18974TIP3   OH278412   3.209   1.874  10.206 -0.0082 -0.3259  0.3337
18974TIP3    H178413   3.302   1.896  10.195  0.0714 -0.4509  0.7477
18974TIP3    H278414   3.203   1.839  10.294 -0.6905  0.8847  0.7864
18975TIP3   OH278415   6.161   1.215   3.200  0.1768 -0.2023 -0.2717
18975TIP3    H178416   6.255   1.218   3.183  0.2131  0.9672  0.0439
18975TIP3    H278417   6.154   1.176   3.287  0.4171  0.3284 -0.0101
18976TIP3   OH278418   4.800   4.383  14.727  0.3179  0.0180 -0.1151
18976TIP3    H178419   4.835   4.452  14.785  0.9430 -0.1463 -0.2961
18976TIP3    H278420   4.730   4.343  14.779  1.0504 -0.3099  0.6480
18977TIP3   OH278421   2.725   3.449  13.891 -0.2084 -0.7025  0.3506
18977TIP3    H178422   2.652   3.489  13.842  1.0729 -1.8545 -2.7378
18977TIP3    H278423   2.783   3.523  13.911 -0.7850 -0.1960  0.2080
18978TIP3   OH278424   6.803   2.346  11.396  0.5435  0.3717 -0.4131
18978TIP3    H178425   6.872   2.411  11.413  0.9054 -0.5411  2.0869
18978TIP3    H278426   6.849   2.275  11.351  0.6886  0.7645 -0.9024
18979TIP3   OH278427   1.404   1.551   1.789  0.1338 -0.1673 -0.2740
18979TIP3    H178428   1.329   1.594   1.831  1.0624  1.2170  0.0314
18979TIP3    H278429   1.444   1.619   1.735  1.0099 -0.9606 -0.6540
18980TIP3   OH278430   0.778   3.148   5.068 -0.1961 -0.0327  0.5413
18980TIP3    H178431   0.727   3.228   5.059  1.1017  0.8511  0.7806
18980TIP3    H278432   0.844   3.154   4.999  0.0396 -0.7958  0.6931
18981TIP3   OH278433   5.723   3.797   1.353 -0.1135 -0.5327 -0.5296
18981TIP3    H178434   5.639   3.842   1.357 -1.2363 -2.5639  0.3177
18981TIP3    H278435   5.709   3.726   1.290  0.7663 -1.2292  0.0344
18982TIP3   OH278436   5.401   5.314   0.613 -0.4830  0.4962  0.4062
18982TIP3    H178437   5.458   5.382   0.577  0.4487 -1.0815 -1.2497
18982TIP3    H278438   5.312   5.343   0.592 -0.0809  0.9257 -0.7698
18983TIP3   OH278439   1.146   3.562  14.854 -0.2663  0.0268  0.7711
18983TIP3    H178440   1.075   3.576  14.791  1.3828  0.6809 -1.0261
18983TIP3    H278441   1.170   3.650  14.883 -0.4603 -0.2243  1.7506
18984TIP3   OH278442   2.584   6.139  14.082 -0.0634 -0.7838  0.2127
18984TIP3    H178443   2.677   6.148  14.104 -0.4323  0.5103  1.3979
18984TIP3    H278444   2.577   6.052  14.043  1.1216 -2.2086  2.9253
18985TIP3   OH278445   4.190   6.511   2.674 -0.7051  0.1860 -0.1934
18985TIP3    H178446   4.257   6.478   2.614 -0.4865 -0.8733  0.6106
18985TIP3    H278447   4.133   6.436   2.690 -2.9786  1.4063 -1.9754
18986TIP3   OH278448   3.351   1.305  12.932 -0.1203  0.5381 -0.0510
18986TIP3    H178449   3.266   1.349  12.931 -0.4469  0.0332  1.8249
18986TIP3    H278450   3.414   1.375  12.919 -0.5879  1.8316  3.3812
18987TIP3   OH278451   5.289   6.325   3.712 -0.0494 -0.2117 -1.0507
18987TIP3    H178452   5.227   6.372   3.656 -1.5709  1.3923  1.7291
18987TIP3    H278453   5.293   6.378   3.792 -0.6639 -3.9541  1.7372
18988TIP3   OH278454   0.096   0.139   5.635 -0.1603  0.0714 -0.3431
18988TIP3    H178455   0.056   0.057   5.608 -0.2764  0.7664 -2.4131
18988TIP3    H278456   0.068   0.150   5.726 -0.4245 -1.9810 -0.1375
18989TIP3   OH278457   4.644   1.301   3.755  0.3902 -0.9029  0.4000
18989TIP3    H178458   4.626   1.373   3.695  1.8140 -0.8981 -0.0441
18989TIP3    H278459   4.601   1.226   3.716 -0.6395 -0.4303  0.5808
18990TIP3   OH278460   1.400   1.043  13.069 -0.3678  0.4055  0.6970
18990TIP3    H178461   1.455   1.061  12.992  1.0527 -0.3387  1.5065
18990TIP3    H278462   1.406   0.948  13.081 -1.4790  0.3687  1.0935
18991TIP3   OH278463   4.646   2.911  13.403  0.1641  0.2286  0.2972
18991TIP3    H178464   4.727   2.960  13.418  0.2569 -0.0225  0.6243
18991TIP3    H278465   4.664   2.858  13.325  0.8532 -0.9679  1.2476
18992TIP3   OH278466   1.966   5.410  15.088  0.0548 -0.8410  0.3864
18992TIP3    H178467   1.980   5.412  14.994 -2.4028 -0.0663 -0.0145
18992TIP3    H278468   1.886   5.360  15.100 -0.7542  0.7116  1.8945
18993TIP3   OH278469   6.242   4.304   3.163  0.9907 -0.4550  0.9667
18993TIP3    H178470   6.335   4.284   3.152  1.4114  0.7469  2.1360
18993TIP3    H278471   6.225   4.376   3.102  0.9723 -0.2556  1.2081
18994TIP3   OH278472   6.371   2.780  16.662 -0.0762 -0.1133 -0.6892
18994TIP3    H178473   6.338   2.798  16.750 -0.1818  0.9543 -0.9323
18994TIP3    H278474   6.294   2.787  16.606 -0.2370 -1.9454 -0.7532
18995TIP3   OH278475   5.875   2.798  16.151  0.7463  0.3018  0.0118
18995TIP3    H178476   5.953   2.839  16.113  1.7963  0.0150  1.7313
18995TIP3    H278477   5.815   2.871  16.167  0.4236  0.4687 -1.7728
18996TIP3   OH278478   3.266   3.655  14.867  0.4127  0.3490  0.4991
18996TIP3    H178479   3.208   3.579  14.867 -0.2631  0.8036 -1.5515
18996TIP3    H278480   3.346   3.625  14.825  0.8192  0.3236  1.2762
18997TIP3   OH278481   5.132   5.141   0.540 -0.1143 -0.1156 -0.2311
18997TIP3    H178482   5.153   5.182   0.456  0.0288  1.6320  0.6118
18997TIP3    H278483   5.119   5.214   0.600  0.2843 -1.3230  1.4077
18998TIP3   OH278484   6.373   1.445  13.224 -0.2540  0.2206  0.3315
18998TIP3    H178485   6.385   1.450  13.129 -0.4040  1.7740  0.3757
18998TIP3    H278486   6.456   1.410  13.257 -0.1096 -0.0822 -0.3440
18999TIP3   OH278487   1.639   6.364   3.470 -0.4310  0.2272  0.0568
18999TIP3    H178488   1.671   6.376   3.381 -0.1396  1.0215  0.2648
18999TIP3    H278489   1.570   6.298   3.462 -0.8998  0.8159 -0.8529
19000TIP3   OH278490   6.119   4.987   5.436 -0.5910  0.7826  0.1435
19000TIP3    H178491   6.112   4.893   5.450 -2.9869  0.6015 -1.6269
19000TIP3    H278492   6.111   5.026   5.523 -0.1462 -0.6175  0.8246
19001TIP3   OH278493   0.954   3.094   3.681  0.1088 -0.6152  0.2758
19001TIP3    H178494   0.874   3.043   3.690 -0.1856  0.0475  1.7278
19001TIP3    H278495   0.982   3.110   3.771  0.2054  1.7641 -0.1172
19002TIP3   OH278496   0.695   5.725   0.640 -0.4644  0.3423 -0.3715
19002TIP3    H178497   0.701   5.668   0.717 -2.7617 -0.0041 -0.3789
19002TIP3    H278498   0.684   5.813   0.675 -1.2997  0.2099 -0.2781
19003TIP3   OH278499   3.282   1.680   2.091  0.0793  0.0262 -0.1642
19003TIP3    H178500   3.315   1.677   2.180 -0.6949 -0.5055  0.1117
19003TIP3    H278501   3.281   1.773   2.069 -0.7244  0.2485  0.7603
19004TIP3   OH278502   3.634   6.527  11.952 -0.4131 -0.1897 -0.2814
19004TIP3    H178503   3.589   6.522  12.036 -0.5999 -1.6369 -0.4568
19004TIP3    H278504   3.566   6.549  11.889 -1.0153 -2.6755 -0.5962
19005TIP3   OH278505   5.096   2.958  11.447 -0.5077 -0.4659  0.3611
19005TIP3    H178506   5.184   2.995  11.439 -0.7339  0.3786  1.5258
19005TIP3    H278507   5.052   3.015  11.510 -1.6577 -1.3176  0.3536
19006TIP3   OH278508   3.398   2.717  13.882 -0.5732  0.2604  0.2223
19006TIP3    H178509   3.461   2.757  13.942  1.0295 -0.4873 -0.8911
19006TIP3    H278510   3.428   2.626  13.874 -1.0119  0.2309 -1.3692
19007TIP3   OH278511   6.186   6.604   0.831  0.5111 -0.0643 -0.0809
19007TIP3    H178512   6.247   6.651   0.887 -0.0956  1.0197 -0.2989
19007TIP3    H278513   6.218   6.621   0.742  0.7033 -0.6738 -0.1317
19008TIP3   OH278514   0.015   3.050  11.094 -0.4177  0.4712 -0.2615
19008TIP3    H178515  -0.043   2.974  11.102  1.4790 -0.9109  1.3872
19008TIP3    H278516   0.048   3.064  11.182  2.3042  0.7074 -1.2195
19009TIP3   OH278517   5.080   4.967  14.241  0.4395 -0.2375  0.7008
19009TIP3    H178518   4.984   4.966  14.242  0.3265  1.3362 -1.2596
19009TIP3    H278519   5.105   4.875  14.240 -1.1171 -0.6943 -0.3175
19010TIP3   OH278520   0.264   2.302   5.546  0.4910 -0.3331 -0.7684
19010TIP3    H178521   0.194   2.365   5.564 -0.5525 -1.0941 -1.9777
19010TIP3    H278522   0.299   2.328   5.461  1.9346  0.2349 -0.0295
19011TIP3   OH278523   4.918   1.118   5.564  0.1521  0.3279 -0.1600
19011TIP3    H178524   4.892   1.198   5.609 -0.2613 -0.3392  0.8406
19011TIP3    H278525   4.838   1.087   5.521 -0.4273 -0.9285  1.6758
19012TIP3   OH278526   3.076   1.755   5.307  0.0705  0.1662 -0.0294
19012TIP3    H178527   2.987   1.760   5.272 -0.1024  1.8574  0.5660
19012TIP3    H278528   3.086   1.664   5.334 -1.8286  0.1467  0.7312
19013TIP3   OH278529   6.159   3.437   0.475  0.1492  0.0636 -0.0316
19013TIP3    H178530   6.210   3.380   0.532  0.9352  0.7062 -0.0758
19013TIP3    H278531   6.155   3.521   0.521 -0.4069  0.1862 -0.2849
19014TIP3   OH278532   4.657   5.459   4.439 -0.0590 -0.4738  0.3935
19014TIP3    H178533   4.733   5.404   4.456  0.7013  0.1923 -0.7270
19014TIP3    H278534   4.675   5.499   4.354 -0.1796  2.1676  1.5128
19015TIP3   OH278535   0.402   4.417  11.931 -0.3193 -0.3096 -0.1874
19015TIP3    H178536   0.376   4.379  11.848  1.5912 -1.6166 -0.2495
19015TIP3    H278537   0.338   4.486  11.947 -1.0345 -0.3641 -2.4764
19016TIP3   OH278538   2.955   4.697  10.846 -0.2417  0.0544  0.0977
19016TIP3    H178539   3.045   4.677  10.873 -0.0893  0.2748 -0.2431
19016TIP3    H278540   2.913   4.612  10.835 -0.6938 -0.0755  2.2981
19017TIP3   OH278541   2.230   0.117   0.784  0.2669 -0.3824 -0.3985
19017TIP3    H178542   2.169   0.178   0.825  0.1323  1.1860 -2.7499
19017TIP3    H278543   2.312   0.128   0.833 -0.5388 -0.5170  1.0439
19018TIP3   OH278544   4.069   5.303  12.048  0.4998 -0.6303  0.1149
19018TIP3    H178545   3.993   5.285  12.104  1.1662  0.5833  1.4887
19018TIP3    H278546   4.095   5.217  12.015  0.1144 -1.4338  1.7698
19019TIP3   OH278547   4.874   1.139   4.766 -0.1912  0.4883 -0.8800
19019TIP3    H178548   4.900   1.218   4.814 -1.1611  1.5081 -1.9808
19019TIP3    H278549   4.779   1.136   4.774 -0.0398 -2.6059  2.1793
19020TIP3   OH278550   3.264   1.943   0.535  0.3008 -0.2012  0.3714
19020TIP3    H178551   3.241   1.873   0.596  0.1126 -4.2677 -3.9011
19020TIP3    H278552   3.190   1.948   0.475  1.2909  2.2512 -0.7953
19021TIP3   OH278553   0.321   4.771   1.694  0.4142  0.4071 -0.4408
19021TIP3    H178554   0.410   4.740   1.677  0.2624  0.4208 -1.2705
19021TIP3    H278555   0.265   4.695   1.679  0.3105  0.2819  0.4875
19022TIP3   OH278556   4.347   1.348  11.351  0.4026  0.3938  0.1426
19022TIP3    H178557   4.304   1.350  11.266  0.1550  1.2914  0.2714
19022TIP3    H278558   4.414   1.416  11.346  0.5944  0.2419  0.5539
19023TIP3   OH278559   6.286   6.294   0.815 -0.2014  0.3914  0.3238
19023TIP3    H178560   6.289   6.364   0.750  0.0911  0.2173  0.1485
19023TIP3    H278561   6.192   6.280   0.830 -0.2687  0.5078  0.0212
19024TIP3   OH278562   5.557   0.966  13.297 -0.4909  0.3860 -0.1912
19024TIP3    H178563   5.650   0.946  13.310 -0.0004  2.5402 -0.0930
19024TIP3    H278564   5.511   0.900  13.349  1.0353  0.4644  1.3459
19025TIP3   OH278565   4.222   6.580   3.554 -0.3498 -0.0707  0.1875
19025TIP3    H178566   4.256   6.520   3.621  0.2387 -0.5385 -0.5152
19025TIP3    H278567   4.139   6.540   3.527  0.4360 -1.0658 -0.8804
19026TIP3   OH278568   6.787   5.908   4.716 -0.0197  0.0370 -0.3216
19026TIP3    H178569   6.711   5.873   4.670  0.4849  1.0140 -1.9631
19026TIP3    H278570   6.813   5.985   4.666  2.0606 -0.2588  0.1855
19027TIP3   OH278571   0.247   2.786  10.719 -0.4195  0.6412  0.7093
19027TIP3    H178572   0.237   2.854  10.785 -1.3485  1.9565 -0.7191
19027TIP3    H278573   0.232   2.704  10.767 -1.9122  1.5935  1.9720
19028TIP3   OH278574   0.933   0.160  16.322 -0.3510  0.2055  0.0684
19028TIP3    H178575   0.974   0.074  16.338 -0.8696 -0.3514 -1.4052
19028TIP3    H278576   0.850   0.139  16.279 -0.3969  1.4602 -0.4783
19029TIP3   OH278577   5.358   6.402   2.564  0.1516  0.2841  0.2551
19029TIP3    H178578   5.367   6.398   2.659  2.2082 -1.2436  0.0560
19029TIP3    H278579   5.364   6.311   2.535 -2.2404  0.4951 -1.2701
19030TIP3   OH278580   2.046   3.373   4.271  0.4397  0.4035  0.1502
19030TIP3    H178581   2.027   3.465   4.256 -0.2517  0.2610  0.1168
19030TIP3    H278582   2.103   3.349   4.198  0.5644  0.7875  0.1200
19031TIP3   OH278583   3.127   2.832   0.089 -0.1241 -0.2172  0.3915
19031TIP3    H178584   3.052   2.835   0.029 -0.3701 -1.2866  0.6277
19031TIP3    H278585   3.186   2.899   0.056 -1.5514  1.2772  0.7012
19032TIP3   OH278586   6.494   2.826  15.733  0.4360 -0.1889  0.5288
19032TIP3    H178587   6.401   2.811  15.747  0.5709 -0.1787  1.4496
19032TIP3    H278588   6.505   2.920  15.748  0.3757  0.0824 -0.9007
19033TIP3   OH278589   4.530   5.137   2.623 -0.1005 -0.0366  0.3487
19033TIP3    H178590   4.599   5.144   2.690  1.5752  0.5399 -1.3226
19033TIP3    H278591   4.575   5.160   2.542 -2.5209  1.3020 -0.7114
19034TIP3   OH278592   2.595   4.988  13.096  0.3922  0.1857  0.2345
19034TIP3    H178593   2.587   5.026  13.008  0.0261  1.3076  0.7369
19034TIP3    H278594   2.673   4.933  13.091  0.8101  0.8295 -0.5956
19035TIP3   OH278595   1.530   5.551   2.486 -0.5115 -0.4669  0.3509
19035TIP3    H178596   1.574   5.486   2.431  1.1273  0.8626  0.0029
19035TIP3    H278597   1.601   5.607   2.519 -1.8076  0.8931  0.9683
19036TIP3   OH278598   5.301   1.243   0.185  0.5726 -0.4755  0.2843
19036TIP3    H178599   5.311   1.295   0.105  0.4934  1.5351  1.4834
19036TIP3    H278600   5.341   1.159   0.165  0.2832 -0.1409 -1.9424
19037TIP3   OH278601   5.716   5.770   2.843  0.9184  0.2466  0.0020
19037TIP3    H178602   5.689   5.688   2.802  0.2257  1.0672 -1.2674
19037TIP3    H278603   5.646   5.790   2.905  0.5745  0.3760 -0.4221
19038TIP3   OH278604   0.338   1.541   6.316 -0.2764 -0.1632  0.5579
19038TIP3    H178605   0.288   1.459   6.319 -0.4406 -0.0533  1.1770
19038TIP3    H278606   0.426   1.516   6.345 -0.1392 -0.2475  0.0639
19039TIP3   OH278607   2.229   5.686  14.814  0.2647  0.4442 -0.2439
19039TIP3    H178608   2.160   5.735  14.768 -0.0609  1.0165  0.8296
19039TIP3    H278609   2.263   5.748  14.878  0.6631 -0.3704  0.3398
19040TIP3   OH278610   6.040   3.339   3.600 -0.0326 -0.3948  0.6849
19040TIP3    H178611   6.052   3.351   3.695  0.8485 -0.7861  0.6349
19040TIP3    H278612   6.016   3.247   3.591 -1.3925 -0.0637  0.6143
19041TIP3   OH278613   0.304   6.431   1.211  0.2896 -0.2059  0.2075
19041TIP3    H178614   0.274   6.434   1.302  1.3168 -0.5910  0.5656
19041TIP3    H278615   0.340   6.343   1.201 -0.2232 -0.3183 -0.7109
19042TIP3   OH278616   4.842   1.081   0.627  0.0936 -0.4666  0.3686
19042TIP3    H178617   4.822   0.997   0.586 -0.1666 -1.2173  1.9379
19042TIP3    H278618   4.775   1.092   0.694 -0.4683  1.4936 -0.4401
19043TIP3   OH278619   0.645   2.096  13.550  0.0098 -0.6358 -0.5248
19043TIP3    H178620   0.565   2.043  13.553 -0.5196  0.1700  0.2224
19043TIP3    H278621   0.649   2.138  13.636  0.6391  0.2207 -0.9556
19044TIP3   OH278622   1.463   5.183   1.584  0.3183 -0.2072  0.0725
19044TIP3    H178623   1.458   5.234   1.664  0.2569 -1.6433  1.0315
19044TIP3    H278624   1.375   5.147   1.573  0.4372 -0.3650 -0.4114
19045TIP3   OH278625   2.731   6.799  12.865 -0.0392  0.5638  0.3247
19045TIP3    H178626   2.791   6.870  12.885 -0.4392  0.6392  1.2881
19045TIP3    H278627   2.769   6.757  12.788 -0.7368  2.9417 -1.4546
19046TIP3   OH278628   2.942   1.449  10.185 -0.5203 -0.5352 -0.2155
19046TIP3    H178629   2.956   1.468  10.277  1.7835 -2.3429 -0.1168
19046TIP3    H278630   2.872   1.383  10.185 -2.3469  1.3138 -0.0060
19047TIP3   OH278631   1.292   0.976   5.044 -0.0258  0.1071 -0.5263
19047TIP3    H178632   1.381   0.946   5.026 -1.1749 -1.8808 -3.8323
19047TIP3    H278633   1.254   0.908   5.100  0.5761  1.1874  1.2757
19048TIP3   OH278634   1.039   0.914   2.087  0.3589  0.3292  0.1020
19048TIP3    H178635   1.030   0.979   2.157 -0.5063 -0.7692  1.0363
19048TIP3    H278636   1.001   0.834   2.123  0.4002 -0.4114 -1.4312
19049TIP3   OH278637   4.512   6.346  16.688 -0.7689 -0.5919 -0.1770
19049TIP3    H178638   4.546   6.402  16.618 -0.5510 -1.8694 -1.1353
19049TIP3    H278639   4.512   6.402  16.766  1.6492  0.0723 -0.5629
19050TIP3   OH278640   1.045   1.582   2.150  0.8034 -0.2705  0.1335
19050TIP3    H178641   0.970   1.537   2.112  1.3041  0.4783 -1.8538
19050TIP3    H278642   1.100   1.512   2.185  0.1990 -0.9792 -0.3186
19051TIP3   OH278643   3.204   3.025   6.010 -0.5400  0.4711 -0.5698
19051TIP3    H178644   3.293   2.995   6.027  0.0256  1.3999 -1.7896
19051TIP3    H278645   3.160   3.018   6.094  0.3137 -1.2158 -0.2235
19052TIP3   OH278646   4.824   5.329   4.661  0.3176  0.1472  0.2341
19052TIP3    H178647   4.766   5.364   4.730  2.4489  0.3585  2.0151
19052TIP3    H278648   4.864   5.252   4.700  0.9011 -0.2665 -1.1384
19053TIP3   OH278649   0.254   4.360   4.604 -0.1193  0.1139  0.4469
19053TIP3    H178650   0.165   4.334   4.625  0.2891  0.0956  2.4007
19053TIP3    H278651   0.272   4.433   4.663  1.5090 -0.5957  0.8940
19054TIP3   OH278652   3.990   1.293   2.140  0.0119 -0.3403 -0.2811
19054TIP3    H178653   3.908   1.244   2.134 -1.9900  2.7297 -0.4131
19054TIP3    H278654   4.058   1.227   2.129 -2.3831 -3.1402  0.3346
19055TIP3   OH278655   1.219   0.925   1.853 -0.5601  0.2384 -0.1696
19055TIP3    H178656   1.194   0.940   1.944  0.0003 -0.0922  0.0411
19055TIP3    H278657   1.180   0.999   1.805  0.4690  1.2916  0.5622
19056TIP3   OH278658   1.740   0.360  10.399 -0.2482  0.4003 -0.0874
19056TIP3    H178659   1.774   0.295  10.460  1.0299 -0.6513 -1.8076
19056TIP3    H278660   1.650   0.375  10.428 -1.2674 -3.4811 -0.5516
19057TIP3   OH278661   1.505   2.824  16.365 -0.4462 -0.7955 -0.0798
19057TIP3    H178662   1.511   2.728  16.360  0.7827 -0.8676  1.7594
19057TIP3    H278663   1.586   2.855  16.325 -1.2981 -0.4469 -1.5954
19058TIP3   OH278664   6.703   6.368   2.521 -0.6652 -0.0315 -0.0905
19058TIP3    H178665   6.617   6.339   2.490 -0.7017 -1.3359  1.1573
19058TIP3    H278666   6.689   6.457   2.553 -1.3311  0.1181 -0.7752
19059TIP3   OH278667   0.101   1.597   3.046  0.7095 -0.1820 -0.0349
19059TIP3    H178668   0.190   1.625   3.069 -0.1924  1.8704  1.2233
19059TIP3    H278669   0.100   1.597   2.951  1.3279  2.5381 -0.1173
19060TIP3   OH278670   3.180   0.751  16.734 -0.3861  0.3092  0.1222
19060TIP3    H178671   3.273   0.740  16.751 -0.5056  0.8385  1.2323
19060TIP3    H278672   3.142   0.664  16.750 -0.3505  0.5617  1.7129
19061TIP3   OH278673   3.168   0.442   2.733  0.1817 -0.5307  0.1992
19061TIP3    H178674   3.254   0.484   2.731  0.1050 -0.3715 -2.0768
19061TIP3    H278675   3.185   0.355   2.769  0.6645  0.6444  3.0995
19062TIP3   OH278676   2.308   5.077  15.989  0.4268  0.1234 -0.1314
19062TIP3    H178677   2.371   5.050  15.923  1.0332  0.5920  0.2428
19062TIP3    H278678   2.299   5.171  15.976  0.2322  0.1497  0.1879
19063TIP3   OH278679   1.235   4.341  13.390  0.4056 -0.5933  0.7361
19063TIP3    H178680   1.302   4.275  13.371 -0.8349 -1.8330  0.5248
19063TIP3    H278681   1.179   4.342  13.312  1.1215  1.6851  0.1697
19064TIP3   OH278682   1.844   6.457  16.248 -0.0055  0.3187 -0.1902
19064TIP3    H178683   1.867   6.396  16.178  0.6273  0.2144  0.1038
19064TIP3    H278684   1.750   6.446  16.260  0.2432 -1.2727  0.4980
19065TIP3   OH278685   2.031   2.738  16.188  0.3097  0.4481  0.0672
19065TIP3    H178686   2.070   2.813  16.234  1.0983  0.1037 -0.0178
19065TIP3    H278687   1.999   2.681  16.258  0.1529  0.6325  0.1463
19066TIP3   OH278688   1.976   5.448   3.082 -0.1322  0.4312 -0.0485
19066TIP3    H178689   1.910   5.513   3.056  0.0042  0.2847 -0.7945
19066TIP3    H278690   2.055   5.475   3.034 -0.0072 -0.1319 -0.1576
19067TIP3   OH278691   0.775   3.125   3.030  0.0614  0.2402 -0.4776
19067TIP3    H178692   0.847   3.184   3.006  0.5842 -0.5208 -0.7983
19067TIP3    H278693   0.818   3.048   3.066 -0.5594 -0.5841 -1.4567
19068TIP3   OH278694   5.861   4.779  15.916 -0.1944 -0.0085  0.1726
19068TIP3    H178695   5.872   4.686  15.937 -1.0743  0.0076  0.7362
19068TIP3    H278696   5.802   4.813  15.983  0.0397  0.9451 -0.0801
19069TIP3   OH278697   2.104   2.077   2.873 -0.7051  0.5255  0.4767
19069TIP3    H178698   2.102   2.110   2.783  1.1344  0.1449  0.2439
19069TIP3    H278699   2.015   2.048   2.890 -0.8523 -0.4845 -1.6545
19070TIP3   OH278700   1.672   5.641   4.276  0.0753 -0.1571 -0.3037
19070TIP3    H178701   1.726   5.721   4.279  2.9053 -1.9390  0.5168
19070TIP3    H278702   1.627   5.646   4.192  0.6641  1.9909 -0.5606
19071TIP3   OH278703   6.623   2.079  14.170 -0.5303  0.1661  0.1004
19071TIP3    H178704   6.692   2.038  14.118 -0.0226  0.2920  0.6598
19071TIP3    H278705   6.542   2.049  14.131 -0.1706  1.1004 -1.4270
19072TIP3   OH278706   0.553   6.737  13.183  0.0147  0.4335 -0.1140
19072TIP3    H178707   0.596   6.662  13.144 -0.6102  0.0678 -0.1180
19072TIP3    H278708   0.486   6.762  13.119 -1.8699 -0.9512  1.2155
19073TIP3   OH278709   3.904   4.177   2.607  0.0075  0.0099 -0.2059
19073TIP3    H178710   3.949   4.172   2.691  0.0278  0.7833 -0.1637
19073TIP3    H278711   3.851   4.098   2.604 -0.0925  0.0368  0.5964
19074TIP3   OH278712   4.202   4.461   1.172  0.1484 -0.2891 -0.0413
19074TIP3    H178713   4.255   4.540   1.182  1.5276 -1.1491 -0.2855
19074TIP3    H278714   4.266   4.389   1.170 -1.1516 -1.6207  2.2122
19075TIP3   OH278715   1.550   4.811  13.385 -0.2499 -0.2745 -0.0838
19075TIP3    H178716   1.642   4.793  13.403 -0.2736 -0.3774 -0.0650
19075TIP3    H278717   1.538   4.903  13.411  0.0191 -0.0442 -0.7457
19076TIP3   OH278718   4.288   3.818  11.935  0.8262 -0.5684 -0.0020
19076TIP3    H178719   4.319   3.788  12.021  1.5697 -0.9825 -0.3961
19076TIP3    H278720   4.368   3.847  11.890  0.5129 -0.7626 -0.7034
19077TIP3   OH278721   2.537   1.873   5.387 -0.4247 -0.1036  0.5456
19077TIP3    H178722   2.488   1.941   5.341 -0.8280 -0.5868  0.2438
19077TIP3    H278723   2.509   1.791   5.346  0.3242 -0.4259  0.6588
19078TIP3   OH278724   2.344   5.652   4.488  0.1387 -0.1171  0.4554
19078TIP3    H178725   2.347   5.715   4.416 -1.7083  0.3527  0.7530
19078TIP3    H278726   2.311   5.702   4.563 -2.3299 -1.6053  0.4497
19079TIP3   OH278727   3.217   4.729   5.157 -0.2415  0.5617  0.2302
19079TIP3    H178728   3.162   4.651   5.151  1.1315 -0.4172 -0.0891
19079TIP3    H278729   3.164   4.799   5.120 -1.1032 -0.4344 -0.4632
19080TIP3   OH278730   5.596   6.126  13.751  0.3569 -0.2446  0.4092
19080TIP3    H178731   5.679   6.169  13.729  0.1903  0.3232  0.8592
19080TIP3    H278732   5.614   6.081  13.833 -0.6061  2.5173  2.2906
19081TIP3   OH278733   4.462   2.696  11.425 -0.4387 -0.3281 -0.0104
19081TIP3    H178734   4.536   2.639  11.403 -1.8301 -1.8036 -1.2532
19081TIP3    H278735   4.385   2.643  11.403 -1.8472  1.5044  0.2805
19082TIP3   OH278736   2.413   5.738   0.386 -0.2404 -0.1693 -0.3692
19082TIP3    H178737   2.459   5.773   0.309 -0.8135 -1.6894 -1.4546
19082TIP3    H278738   2.478   5.684   0.430  0.4365  1.5999  0.9202
19083TIP3   OH278739   0.501   0.570   2.749  0.0864  0.5457 -0.6886
19083TIP3    H178740   0.562   0.558   2.677 -0.0309 -0.3787 -0.6428
19083TIP3    H278741   0.556   0.573   2.828  0.0582 -0.7484 -0.6004
19084TIP3   OH278742   3.145   5.967   5.183  0.4712 -0.0239 -0.1821
19084TIP3    H178743   3.217   6.006   5.233  0.1960  0.8976 -0.4850
19084TIP3    H278744   3.134   6.024   5.107 -0.6666 -0.0548 -0.0684
19085TIP3   OH278745   5.457   3.607   5.750  0.0405  0.3136  0.1699
19085TIP3    H178746   5.412   3.538   5.702 -0.2144 -0.1701  1.0807
19085TIP3    H278747   5.388   3.653   5.797  0.2104  1.1990 -0.4160
19086TIP3   OH278748   6.223   2.507  12.506  0.4902  0.4686  0.5251
19086TIP3    H178749   6.223   2.556  12.423  1.7442 -0.2058  0.1055
19086TIP3    H278750   6.315   2.488  12.522  0.0700 -1.4272  0.8781
19087TIP3   OH278751   4.224   0.186   2.143 -0.5238  0.6185 -0.4008
19087TIP3    H178752   4.134   0.156   2.157  0.3507 -1.8707  0.4271
19087TIP3    H278753   4.225   0.275   2.178 -2.6673  0.7606 -0.5459
19088TIP3   OH278754   5.153   2.854  12.817  0.1638  0.0289  0.2605
19088TIP3    H178755   5.194   2.881  12.899 -0.6311 -0.3135  0.7844
19088TIP3    H278756   5.130   2.936  12.774 -1.5456  0.2451  1.4843
19089TIP3   OH278757   6.383   5.529  12.222 -0.0069 -0.1315 -0.3109
19089TIP3    H178758   6.315   5.468  12.249 -1.2736  1.6052  0.6199
19089TIP3    H278759   6.464   5.480  12.230 -1.0073 -1.7809  0.0752
19090TIP3   OH278760   4.329   3.836  11.265  0.9320 -0.5782 -0.1049
19090TIP3    H178761   4.320   3.904  11.331 -2.5607 -1.1584  0.1788
19090TIP3    H278762   4.322   3.883  11.181 -0.8100 -0.4533  0.0811
19091TIP3   OH278763   2.623   2.631   4.945 -0.1633  0.0752 -0.0457
19091TIP3    H178764   2.622   2.617   4.850  1.0817  0.2856 -0.1033
19091TIP3    H278765   2.550   2.578   4.978  2.3533 -4.1347 -0.5876
19092TIP3   OH278766   6.807   3.994   1.596 -0.4574 -0.0597  0.2813
19092TIP3    H178767   6.784   3.911   1.554 -1.3619 -0.2363  1.0712
19092TIP3    H278768   6.852   3.968   1.677  0.8074  0.2622 -0.2943
19093TIP3   OH278769   3.407   4.997   0.641  0.0940 -0.2274 -0.5101
19093TIP3    H178770   3.316   4.995   0.669 -0.3845 -0.1306 -1.9709
19093TIP3    H278771   3.457   4.987   0.722 -1.1669  1.3126  0.5194
19094TIP3   OH278772   2.167   4.308   2.684  0.0978 -0.9495  0.9057
19094TIP3    H178773   2.112   4.385   2.667 -1.3653 -1.9402  1.0623
19094TIP3    H278774   2.109   4.244   2.724  1.2402 -2.2307  0.6057
19095TIP3   OH278775   0.444   3.332   2.107 -0.1202  0.2225  0.1281
19095TIP3    H178776   0.364   3.385   2.115  0.3411  1.1589 -1.1910
19095TIP3    H278777   0.420   3.262   2.047  0.1783  0.8046 -0.6871
19096TIP3   OH278778   2.560   2.326   4.005  0.3041 -0.0329 -0.0101
19096TIP3    H178779   2.535   2.257   4.066 -1.5364  1.4374  0.9982
19096TIP3    H278780   2.592   2.280   3.927 -1.5324 -2.0213  0.3448
19097TIP3   OH278781   1.043   2.586  16.972 -0.4310  0.1093 -0.6319
19097TIP3    H178782   1.037   2.669  16.925 -1.5200  1.7078  2.0833
19097TIP3    H278783   1.122   2.594  17.026 -1.5378  0.2362  1.0415
19098TIP3   OH278784   3.033   5.812  11.658 -0.0707 -0.1716 -0.2879
19098TIP3    H178785   3.061   5.903  11.671 -0.0864 -0.2826  0.5561
19098TIP3    H278786   3.111   5.760  11.677  0.2170 -0.2982 -1.7435
19099TIP3   OH278787   3.017   5.512  14.420  0.1826  0.6245  0.1349
19099TIP3    H178788   3.067   5.566  14.482 -0.3024 -1.0744  2.0958
19099TIP3    H278789   2.937   5.490  14.467  0.1918 -1.4793 -0.7355
19100TIP3   OH278790   2.892   6.517  15.379 -0.2755 -0.1598 -0.4889
19100TIP3    H178791   2.898   6.613  15.378  0.1805 -0.1666 -1.9505
19100TIP3    H278792   2.821   6.497  15.318  0.5226 -0.7638 -1.2569
19101TIP3   OH278793   2.847   4.192   4.476  0.4501  0.1303  0.0275
19101TIP3    H178794   2.919   4.238   4.517 -0.3273  0.5130  0.9948
19101TIP3    H278795   2.876   4.177   4.386  1.9649 -0.2474  0.5514
19102TIP3   OH278796   3.307   6.662  13.071  0.7393 -0.0829 -0.2688
19102TIP3    H178797   3.318   6.680  13.164  1.9626 -1.2212 -0.1765
19102TIP3    H278798   3.388   6.619  13.044  1.2320  1.8596 -2.2937
19103TIP3   OH278799   1.861   6.163  12.357 -0.3198  0.1556 -0.3898
19103TIP3    H178800   1.915   6.242  12.353 -0.4685  0.2154 -1.9212
19103TIP3    H278801   1.796   6.175  12.288 -0.9118 -0.9026 -0.0350
19104TIP3   OH278802   0.747   4.443   1.335 -0.7463 -0.0031  0.4719
19104TIP3    H178803   0.688   4.390   1.281 -1.3187  0.6361  0.4530
19104TIP3    H278804   0.835   4.421   1.304 -0.9260 -1.4405  0.9193
19105TIP3   OH278805   4.719   2.798   2.219 -0.2955  0.8961  0.9385
19105TIP3    H178806   4.733   2.706   2.243  0.2061 -0.3212 -3.1396
19105TIP3    H278807   4.632   2.799   2.180  0.2927  1.7197 -0.4575
19106TIP3   OH278808   5.387   1.205  13.302  0.2480  0.1359  0.0072
19106TIP3    H178809   5.453   1.137  13.288  1.3237  1.1506  0.0290
19106TIP3    H278810   5.328   1.168  13.369  1.0238 -0.6218  0.2870
19107TIP3   OH278811   3.197   6.417  13.130 -0.1067  0.1426 -0.7271
19107TIP3    H178812   3.165   6.432  13.219 -0.0211  0.3041 -0.7248
19107TIP3    H278813   3.214   6.504  13.095 -2.7839  0.2886 -1.8783
19108TIP3   OH278814   3.455   3.172   5.209  0.0291  0.2019  0.2184
19108TIP3    H178815   3.513   3.138   5.277  0.7226 -2.2362 -1.4503
19108TIP3    H278816   3.371   3.131   5.227 -0.0012  0.1980  0.0672
19109TIP3   OH278817   4.470   0.942   0.687 -0.1011 -0.5035 -0.3359
19109TIP3    H178818   4.386   0.938   0.642  0.2737 -1.1603 -1.0046
19109TIP3    H278819   4.535   0.935   0.616  0.4983 -1.7876  0.2979
19110TIP3   OH278820   4.375   3.037   1.669  0.4430  0.2349  0.0775
19110TIP3    H178821   4.290   3.057   1.707  0.6871 -0.7718  1.2066
19110TIP3    H278822   4.419   3.121   1.662 -0.5801  0.7431 -0.3706
19111TIP3   OH278823   0.593   3.296   5.673  0.6260  0.1303  0.1358
19111TIP3    H178824   0.571   3.285   5.580  0.5197  1.3590  0.0015
19111TIP3    H278825   0.677   3.251   5.682 -0.0456 -1.2691 -0.2080
19112TIP3   OH278826   5.006   5.974  16.750  0.4946 -0.5792  0.1699
19112TIP3    H178827   5.056   5.928  16.682 -1.6342  0.2121 -2.0612
19112TIP3    H278828   5.061   6.048  16.775  1.0354 -0.5134 -1.1807
19113TIP3   OH278829   4.373   5.366   1.453  0.1224 -0.1969 -0.8481
19113TIP3    H178830   4.438   5.402   1.514 -0.8355  1.0633 -0.5310
19113TIP3    H278831   4.424   5.312   1.393  1.6860  1.8384 -1.4524
19114TIP3   OH278832   0.637   0.034  16.330  0.1765 -0.0226  0.2657
19114TIP3    H178833   0.543   0.028  16.314  0.4864 -0.1850 -1.8180
19114TIP3    H278834   0.671  -0.053  16.310  0.5665 -0.6843  3.2516
19115TIP3   OH278835   1.019   3.956  11.542 -0.1698 -0.3680 -0.0745
19115TIP3    H178836   1.007   4.051  11.534  0.4946 -0.1107  1.5170
19115TIP3    H278837   0.943   3.918  11.499  0.6554  0.7995 -2.7900
19116TIP3   OH278838   4.522   4.547   2.303 -0.3041 -0.1257  0.3456
19116TIP3    H178839   4.505   4.496   2.382 -2.7965  0.7391  0.4693
19116TIP3    H278840   4.464   4.509   2.236  2.3252 -1.3649 -1.4001
19117TIP3   OH278841   2.301   1.624  11.520 -0.0550  0.0068 -0.0079
19117TIP3    H178842   2.360   1.690  11.484  1.5906 -1.0996  0.5393
19117TIP3    H278843   2.230   1.618  11.456  1.3806  0.0658 -1.6799
19118TIP3   OH278844   3.827   4.662  11.879 -0.2921 -0.2333  0.6344
19118TIP3    H178845   3.857   4.753  11.886 -0.3069  0.1357 -2.4000
19118TIP3    H278846   3.744   4.660  11.926 -0.7362  1.6152  0.0299
19119TIP3   OH278847   1.600   2.637   3.420  0.5277 -0.1099 -0.1966
19119TIP3    H178848   1.667   2.700   3.394 -0.3897  1.3355  0.8094
19119TIP3    H278849   1.648   2.555   3.434  2.4020  1.2831  2.1749
19120TIP3   OH278850   6.471   1.623  12.136 -0.3505 -0.0689  0.3391
19120TIP3    H178851   6.444   1.542  12.092 -1.9425  0.7423 -0.2691
19120TIP3    H278852   6.461   1.691  12.068  0.1782  0.7480  1.0636
19121TIP3   OH278853   1.879   4.708  14.984  0.3125 -1.0653  0.3843
19121TIP3    H178854   1.942   4.705  15.056  1.0300  1.8526  0.0131
19121TIP3    H278855   1.932   4.707  14.905  0.1262  2.2796  0.0716
19122TIP3   OH278856   0.398   5.230  12.541 -0.0093  0.1515 -0.1626
19122TIP3    H178857   0.412   5.168  12.613 -0.1346  0.0643 -0.2121
19122TIP3    H278858   0.484   5.269  12.526 -0.5028  2.2180  1.8721
19123TIP3   OH278859   5.507   4.238   0.573  0.5538  0.1572  0.1185
19123TIP3    H178860   5.523   4.222   0.480  0.4273 -2.1670  0.4515
19123TIP3    H278861   5.415   4.265   0.577 -0.3029 -2.4330 -0.2337
19124TIP3   OH278862   1.347   0.365   2.223  0.5202  0.1780 -0.5460
19124TIP3    H178863   1.329   0.354   2.129 -0.1286 -1.2921 -0.2796
19124TIP3    H278864   1.272   0.413   2.256  0.2930 -0.1233 -0.6198
19125TIP3   OH278865   5.660   0.939   0.500  0.1448  0.0024 -0.4515
19125TIP3    H178866   5.663   0.868   0.564 -0.1318  0.8925  0.5782
19125TIP3    H278867   5.638   0.896   0.417 -1.2529 -0.9548  0.3815
19126TIP3   OH278868   1.965   2.982   5.775  0.4648  0.0829  0.3380
19126TIP3    H178869   2.024   2.967   5.701 -0.5824  0.0297 -0.4962
19126TIP3    H278870   1.956   3.077   5.780 -1.5392  0.0396 -1.3080
19127TIP3   OH278871   0.187   0.861  14.436 -0.4713 -0.3302  0.9765
19127TIP3    H178872   0.108   0.810  14.416 -0.7132 -0.1041  1.3343
19127TIP3    H278873   0.259   0.810  14.398 -0.8714 -0.1130 -0.1107
19128TIP3   OH278874   5.836   5.456  14.475 -0.5382  0.2376 -0.1871
19128TIP3    H178875   5.814   5.536  14.427  0.6685 -0.1577 -1.4606
19128TIP3    H278876   5.858   5.486  14.563 -2.0257  1.0638 -0.0568
19129TIP3   OH278877   5.234   5.668   1.231  0.1058 -0.3118  0.0339
19129TIP3    H178878   5.224   5.762   1.220 -0.6378 -0.5116 -1.1914
19129TIP3    H278879   5.325   5.656   1.258 -0.0885  0.8201  1.2517
19130TIP3   OH278880   4.740   3.798  11.835 -0.0563  0.0466 -0.1779
19130TIP3    H178881   4.711   3.889  11.837 -1.5280 -0.3681 -0.8826
19130TIP3    H278882   4.703   3.763  11.754  1.3409 -0.9265 -0.4336
19131TIP3   OH278883   2.821   3.450  12.412 -0.6858  0.2537  0.6133
19131TIP3    H178884   2.856   3.447  12.323  1.2903  1.3582  1.2916
19131TIP3    H278885   2.781   3.364  12.425  1.0696 -0.8138 -0.5527
19132TIP3   OH278886   4.803   4.686   0.677 -0.4061  0.3297  0.6381
19132TIP3    H178887   4.893   4.667   0.703 -1.0654  0.1444  3.1420
19132TIP3    H278888   4.801   4.780   0.662  0.5851  0.0752 -1.3951
19133TIP3   OH278889   2.461   2.764  16.809  0.2987 -0.2257 -0.0274
19133TIP3    H178890   2.405   2.687  16.803  0.0028 -0.2495  2.4010
19133TIP3    H278891   2.481   2.773  16.902  2.8845  0.8261 -0.5932
19134TIP3   OH278892   1.352   1.343  15.917  0.6099  0.1138  0.0569
19134TIP3    H178893   1.289   1.289  15.870 -0.9985  1.9072  0.0364
19134TIP3    H278894   1.401   1.281  15.971 -0.7334 -1.4273 -0.4054
19135TIP3   OH278895   3.795   2.908  11.250 -0.0477  0.0794  0.3761
19135TIP3    H178896   3.799   2.901  11.345  0.8438 -0.0542  0.3438
19135TIP3    H278897   3.722   2.853  11.223 -0.0486 -0.2005  0.9564
19136TIP3   OH278898   0.197   6.748   4.554  0.2697  0.2155 -0.0424
19136TIP3    H178899   0.168   6.770   4.465  2.5192  1.1834 -0.6121
19136TIP3    H278900   0.229   6.658   4.547 -0.7943 -0.1902  0.1425
19137TIP3   OH278901   5.511   5.069   2.969  0.0717  0.1198 -0.3260
19137TIP3    H178902   5.605   5.066   2.956  0.3983  0.4196  1.6325
19137TIP3    H278903   5.479   4.987   2.930  1.0870  0.1475 -1.2545
19138TIP3   OH278904   6.796   5.062   2.396 -0.0247  0.1068  0.1274
19138TIP3    H178905   6.868   5.126   2.395  1.0138 -1.0047  0.3327
19138TIP3    H278906   6.763   5.062   2.307  0.7940  0.0518 -0.1888
19139TIP3   OH278907   3.982   4.066   0.375  0.1307  0.1707  0.3727
19139TIP3    H178908   4.020   4.005   0.313  0.1781  0.7784 -0.2037
19139TIP3    H278909   3.952   4.140   0.322  1.2611  1.2600  1.1647
19140TIP3   OH278910   1.384   2.233  15.078  0.1554 -0.3360 -0.1843
19140TIP3    H178911   1.313   2.263  15.021  0.1823  0.5326  0.2273
19140TIP3    H278912   1.340   2.198  15.156  0.1843  1.3209  0.6117
19141TIP3   OH278913   1.457   0.491   0.582 -0.1820  0.7540  0.2652
19141TIP3    H178914   1.498   0.527   0.503 -0.2101 -0.1050 -0.1506
19141TIP3    H278915   1.450   0.566   0.642  1.1460  1.1123 -0.0047
19142TIP3   OH278916   2.962   2.294  16.749 -0.4749 -0.3481  0.8251
19142TIP3    H178917   2.882   2.337  16.717 -0.3662  0.5417  1.6819
19142TIP3    H278918   3.033   2.338  16.704 -0.3749  0.2620  1.5507
19143TIP3   OH278919   1.540   4.937  11.197  0.4174 -0.2809 -0.3214
19143TIP3    H178920   1.561   5.001  11.265 -2.1915  1.0140 -0.5875
19143TIP3    H278921   1.558   4.852  11.236  2.9131  0.5477  0.4537
19144TIP3   OH278922   0.235   0.951   2.783  0.0648  0.0001  0.0757
19144TIP3    H178923   0.255   0.877   2.725  1.4046  0.8367 -0.5557
19144TIP3    H278924   0.246   1.028   2.729  1.0781  0.7947  1.3562
19145TIP3   OH278925   3.609   6.673  16.315 -0.1226 -0.7986 -0.2902
19145TIP3    H178926   3.619   6.613  16.389  1.6592 -0.6803 -0.4101
19145TIP3    H278927   3.669   6.745  16.334 -1.1185  0.2316 -0.8968
19146TIP3   OH278928   2.652   4.533   0.709  0.2648  0.7007 -0.2409
19146TIP3    H178929   2.599   4.527   0.629 -1.2228 -0.7142  0.7907
19146TIP3    H278930   2.743   4.531   0.677 -0.2773  1.6686 -1.9704
19147TIP3   OH278931   3.166   3.018   6.794 -0.1309 -0.2313  0.8519
19147TIP3    H178932   3.193   2.962   6.721 -0.9070  0.1463  0.2677
19147TIP3    H278933   3.233   3.002   6.861  1.6509  0.7797 -0.5895
19148TIP3   OH278934   3.122   4.977  13.339 -0.0539  0.2622 -0.6160
19148TIP3    H178935   3.121   4.990  13.434  0.9980 -2.1427 -0.2053
19148TIP3    H278936   3.108   5.065  13.303  0.8165  1.4602  1.7461
19149TIP3   OH278937   1.939   1.867  11.345  0.4079  0.0948  0.6174
19149TIP3    H178938   2.008   1.820  11.299 -0.3637 -1.1109  0.6313
19149TIP3    H278939   1.944   1.956  11.312 -0.3620 -0.7931 -2.1654
19150TIP3   OH278940   5.327   5.812  16.996 -0.3730  0.8338  0.7427
19150TIP3    H178941   5.365   5.886  16.950 -1.9395  1.8258  0.9784
19150TIP3    H278942   5.318   5.744  16.929  3.2234 -0.0937  0.9969
19151TIP3   OH278943   5.194   1.681  11.900 -0.1925  0.5568 -0.1209
19151TIP3    H178944   5.122   1.680  11.836  1.6836 -0.0469 -2.3915
19151TIP3    H278945   5.273   1.667  11.847  1.4721 -0.5722  2.4326
19152TIP3   OH278946   3.432   3.259   0.062 -0.0105 -0.1369  0.3257
19152TIP3    H178947   3.402   3.339   0.104  0.9869  0.1155  0.5893
19152TIP3    H278948   3.414   3.272  -0.031 -1.7034 -0.4654  0.5698
19153TIP3   OH278949   5.678   6.073  12.523 -0.8033 -0.4487  0.2226
19153TIP3    H178950   5.683   6.058  12.428 -0.8992  2.5407 -0.3744
19153TIP3    H278951   5.596   6.030  12.549  1.2709 -5.1759 -0.0186
19154TIP3   OH278952   0.513   3.668  13.896 -0.3200  0.2561 -0.5152
19154TIP3    H178953   0.524   3.617  13.816 -1.8164  0.1806 -0.6940
19154TIP3    H278954   0.425   3.648  13.926 -0.4201  1.6252  0.1999
19155TIP3   OH278955   2.002   3.652  16.408  0.7218  0.0408 -0.4037
19155TIP3    H178956   2.045   3.594  16.470  0.4411 -0.4975 -0.7057
19155TIP3    H278957   1.932   3.693  16.459 -0.9629 -2.0857 -0.8827
19156TIP3   OH278958   1.210   0.957   2.672 -0.2584 -0.2796 -0.7125
19156TIP3    H178959   1.178   0.898   2.740 -0.6974  1.0158  0.2436
19156TIP3    H278960   1.296   0.923   2.649  0.8524  0.4039  2.0023
19157TIP3   OH278961   5.199   0.456   1.125  0.0252  1.0669  0.2024
19157TIP3    H178962   5.147   0.376   1.118  0.2870  0.9989 -1.4606
19157TIP3    H278963   5.283   0.434   1.085 -0.0141  2.2560 -0.5994
19158TIP3   OH278964   0.810   5.032   2.261 -0.7066 -0.2120  0.5174
19158TIP3    H178965   0.762   5.115   2.269 -2.5428 -1.2829  1.3301
19158TIP3    H278966   0.876   5.036   2.331  1.3997  1.8287 -1.4205
19159TIP3   OH278967   1.552   2.041   4.658 -0.1963  0.3301 -0.3806
19159TIP3    H178968   1.584   1.974   4.719  2.0038  1.3202 -0.3153
19159TIP3    H278969   1.472   2.005   4.621  1.2177 -2.6171 -0.8178
19160TIP3   OH278970   2.061   6.786  16.165  0.5201  0.0299 -0.2296
19160TIP3    H178971   1.975   6.826  16.174  0.7607  0.3593  0.6864
19160TIP3    H278972   2.059   6.711  16.225  1.4692  1.0848  1.1882
19161TIP3   OH278973   2.585   2.243   5.235  0.1405 -0.4324 -0.4999
19161TIP3    H178974   2.513   2.184   5.257  0.3624 -0.4243  0.2639
19161TIP3    H278975   2.631   2.197   5.164 -1.8133  0.5285 -2.5262
19162TIP3   OH278976   5.845   0.840   4.831  0.9273 -0.5697  0.3908
19162TIP3    H178977   5.917   0.786   4.864  1.8334  0.2573 -0.1571
19162TIP3    H278978   5.888   0.922   4.805 -0.1374 -0.2670 -0.4588
19163TIP3   OH278979   2.367   5.492  15.730 -0.4036  0.4605 -0.0236
19163TIP3    H178980   2.441   5.551  15.734  0.1851 -0.2753  0.2889
19163TIP3    H278981   2.356   5.471  15.637  0.9928 -0.8914  0.0811
19164TIP3   OH278982   4.079   0.979   4.049 -0.3142  0.0966  0.7882
19164TIP3    H178983   4.091   0.959   4.142 -1.1096 -0.6514  0.7429
19164TIP3    H278984   4.023   1.057   4.048  0.6481  0.8151  0.9335
19165TIP3   OH278985   0.786   4.131  13.243  0.0480 -0.0071 -0.6017
19165TIP3    H178986   0.762   4.192  13.174 -0.2538 -0.5201 -0.9635
19165TIP3    H278987   0.753   4.170  13.324  0.7628  0.7912 -0.6872
19166TIP3   OH278988   5.084   0.199  13.545 -0.3597  0.1443  0.2704
19166TIP3    H178989   5.111   0.126  13.490  0.8503 -0.4857  1.6258
19166TIP3    H278990   5.138   0.273  13.515  0.7258 -0.3435  0.9573
19167TIP3   OH278991   5.269   2.439  13.910 -0.0205 -0.0214  0.3547
19167TIP3    H178992   5.308   2.423  13.996 -0.0573  1.1963  0.6262
19167TIP3    H278993   5.250   2.533  13.911 -0.7345 -0.1493 -0.6948
19168TIP3   OH278994   6.500   3.775  13.694  0.0357  0.5010 -0.0117
19168TIP3    H178995   6.589   3.762  13.727 -0.1161 -1.3044 -0.2380
19168TIP3    H278996   6.466   3.687  13.680 -1.7937  1.1464  0.0457
19169TIP3   OH278997   6.050   1.756   0.316  0.0229  0.0828  0.5775
19169TIP3    H178998   5.964   1.788   0.288 -0.5399 -1.2371  0.7634
19169TIP3    H278999   6.039   1.738   0.410  0.1652 -1.1629  0.3618
19170TIP3   OH279000   5.769   4.841   0.170  0.7949 -0.1221  0.6722
19170TIP3    H179001   5.766   4.768   0.232  0.0989  1.1174  2.1328
19170TIP3    H279002   5.678   4.853   0.143  0.6473  1.2424  1.7024
19171TIP3   OH279003   5.849   5.378  15.462 -0.2714 -0.3572 -0.0077
19171TIP3    H179004   5.943   5.387  15.448 -0.0345 -1.7253  0.6352
19171TIP3    H279005   5.840   5.343  15.550 -1.4226  0.3336  0.1829
19172TIP3   OH279006   3.805   3.938  11.164 -1.1197  0.7484  0.4759
19172TIP3    H179007   3.801   3.854  11.119 -0.9249 -0.0572  1.9112
19172TIP3    H279008   3.852   3.996  11.103 -2.1194  0.1164 -0.9425
19173TIP3   OH279009   6.248   5.701   0.498  0.1962 -0.3756  0.3510
19173TIP3    H179010   6.296   5.728   0.576  1.0394  0.3083 -0.3726
19173TIP3    H279011   6.240   5.782   0.446 -1.8279 -0.4524  0.4721
19174TIP3   OH279012   3.882   0.449   5.023  0.4911  0.3205  0.1520
19174TIP3    H179013   3.794   0.438   5.059  0.8007 -0.1688  0.7887
19174TIP3    H279014   3.873   0.515   4.955 -0.5103 -0.2737 -0.3060
19175TIP3   OH279015   0.003   6.134   2.427  0.4156 -0.2859  0.0615
19175TIP3    H179016  -0.027   6.213   2.472  0.5029 -0.1043 -0.1951
19175TIP3    H279017  -0.020   6.149   2.335  3.0178  0.7637 -0.5319
19176TIP3   OH279018   4.537   3.087   2.969 -0.2353 -0.0666 -0.3459
19176TIP3    H179019   4.593   3.105   2.893  1.0653  1.7852  0.9427
19176TIP3    H279020   4.473   3.158   2.968  0.5549  0.7235  0.8965
19177TIP3   OH279021   1.586   5.386   3.011 -0.2783 -1.1145  0.0735
19177TIP3    H179022   1.495   5.365   2.991 -0.7265 -0.8058  1.6515
19177TIP3    H279023   1.620   5.422   2.929 -2.1216  0.4948 -0.0919
19178TIP3   OH279024   3.296   2.370   1.764 -0.3030 -0.0280  0.6781
19178TIP3    H179025   3.320   2.319   1.687  0.5398  0.6952  0.4547
19178TIP3    H279026   3.363   2.348   1.830  0.4312  1.2416  0.3759
19179TIP3   OH279027   1.134   2.753  11.445  0.2569  0.4138  0.7314
19179TIP3    H179028   1.070   2.746  11.373 -1.5910 -0.8688  2.3935
19179TIP3    H279029   1.174   2.666  11.450  0.9117  0.7148  0.8056
19180TIP3   OH279030   5.134   1.085  16.892 -0.5018 -0.2254  1.0133
19180TIP3    H179031   5.071   1.105  16.962 -1.7477  1.7147 -0.5709
19180TIP3    H279032   5.080   1.053  16.820  0.3188  1.2494 -0.3045
19181TIP3   OH279033   3.802   4.629  11.586  0.0455 -0.5628 -0.0696
19181TIP3    H179034   3.773   4.668  11.668  0.1375 -1.2577  0.3058
19181TIP3    H279035   3.846   4.548  11.612  1.0399 -0.2523 -0.7279
19182TIP3   OH279036   2.313   3.046   0.504 -0.1553  0.3792  0.2577
19182TIP3    H179037   2.234   2.996   0.522 -0.4803  1.7079  3.0994
19182TIP3    H279038   2.297   3.132   0.544  1.4239  1.8788 -2.0635
19183TIP3   OH279039   1.256   1.592  12.000 -0.1432  0.3147  0.8483
19183TIP3    H179040   1.275   1.605  11.907  0.4541  0.3910  0.9744
19183TIP3    H279041   1.218   1.674  12.029  1.4270  0.9966  1.0981
19184TIP3   OH279042   4.174   0.086  12.861 -0.2141  0.3890  0.1052
19184TIP3    H179043   4.219   0.170  12.870 -0.1419  0.4945 -1.0508
19184TIP3    H279044   4.100   0.092  12.921  0.2146  0.9831  0.5863
19185TIP3   OH279045   3.277   0.391  17.201 -0.3233 -0.4707  0.2635
19185TIP3    H179046   3.324   0.471  17.180  0.0585 -1.1939 -1.8724
19185TIP3    H279047   3.255   0.352  17.116  0.1526 -2.9995  1.2015
19186TIP3   OH279048   0.286   3.952   4.905 -0.1901  0.1537 -0.1761
19186TIP3    H179049   0.246   3.940   4.819 -0.5217  0.3075 -0.0465
19186TIP3    H279050   0.360   3.892   4.905 -0.2733  0.0464 -0.5166
19187TIP3   OH279051   5.705   2.716   2.162  0.0394 -0.6202  0.0780
19187TIP3    H179052   5.789   2.672   2.156 -0.5820 -2.2828  2.0750
19187TIP3    H279053   5.721   2.791   2.219  0.7560  0.8903 -2.0159
19188TIP3   OH279054   0.329   2.981   2.428 -0.7429  0.0197  0.2285
19188TIP3    H179055   0.422   2.956   2.427 -1.2578 -1.9470 -0.6240
19188TIP3    H279056   0.331   3.077   2.427  1.2889  0.0888  1.9258
19189TIP3   OH279057   6.453   4.844   1.280  0.4080  0.0945 -0.0105
19189TIP3    H179058   6.446   4.863   1.374  1.6155  0.8883 -0.0542
19189TIP3    H279059   6.389   4.901   1.239  1.7106  1.7514  0.1447
19190TIP3   OH279060   6.770   3.444   4.623  0.6127 -0.1609  0.1124
19190TIP3    H179061   6.776   3.348   4.614  1.4921 -0.2742  1.5397
19190TIP3    H279062   6.850   3.468   4.669  0.2447  1.2295  0.0465
19191TIP3   OH279063   1.441   5.663  11.558  0.1896  0.1931  0.0933
19191TIP3    H179064   1.435   5.713  11.476  2.0379  1.5787  0.7484
19191TIP3    H279065   1.394   5.582  11.539  0.4513  0.5160 -2.2939
19192TIP3   OH279066   0.069   4.287   6.037  0.5207  0.4831 -0.1529
19192TIP3    H179067  -0.020   4.261   6.011  0.3062 -0.9377  1.8253
19192TIP3    H279068   0.062   4.382   6.052 -0.4749  0.5151 -0.6988
19193TIP3   OH279069   0.425   3.983   5.216 -0.3749  0.0468 -0.3732
19193TIP3    H179070   0.471   4.013   5.137 -1.4126 -0.4932 -1.2090
19193TIP3    H279071   0.464   4.034   5.287  0.4966  0.6402 -1.2443
19194TIP3   OH279072   1.538   4.072   1.939  0.0416 -0.4913  0.1380
19194TIP3    H179073   1.463   4.119   1.975  0.1056 -0.0146 -0.3402
19194TIP3    H279074   1.517   3.979   1.953 -1.0864 -0.4068 -0.8354
19195TIP3   OH279075   3.121   1.978  15.502 -0.0596  0.3219 -0.2867
19195TIP3    H179076   3.167   1.895  15.514  0.6365  0.8261  0.7448
19195TIP3    H279077   3.029   1.954  15.495  0.0406 -0.5009  0.8636
19196TIP3   OH279078   2.934   2.451  13.262  0.2964 -0.2178 -0.7394
19196TIP3    H179079   2.977   2.497  13.335  1.8730 -0.3040 -1.5727
19196TIP3    H279080   2.948   2.358  13.282 -0.0363 -0.2641 -0.7179
19197TIP3   OH279081   4.971   5.556   4.404 -0.1118 -0.0549 -0.0373
19197TIP3    H179082   4.928   5.579   4.487  0.7645 -0.1233  0.4486
19197TIP3    H279083   4.954   5.462   4.394 -0.6863  0.0652 -0.2203
19198TIP3   OH279084   4.790   6.340   6.052  0.4622 -0.1899  0.1335
19198TIP3    H179085   4.859   6.367   6.113 -0.6910  5.1417 -0.3926
19198TIP3    H279086   4.821   6.371   5.967 -1.2701 -0.4848 -0.6436
19199TIP3   OH279087   4.317   2.302   4.370 -0.1390 -0.2450 -0.7943
19199TIP3    H179088   4.392   2.330   4.317  0.9022 -0.6802  0.3910
19199TIP3    H279089   4.288   2.382   4.415  0.5905 -0.3473 -0.1118
19200TIP3   OH279090   3.386   4.668   3.447  0.0644  0.0233  0.0844
19200TIP3    H179091   3.453   4.648   3.512 -1.3117  0.9710  1.9015
19200TIP3    H279092   3.334   4.587   3.441  0.5656 -0.2718 -0.3135
19201TIP3   OH279093   6.033   3.950  15.191 -0.2052  0.3435 -1.0818
19201TIP3    H179094   5.996   3.997  15.266  2.5931  0.5206  0.2864
19201TIP3    H279095   6.014   3.858  15.209 -0.3191  0.4523 -0.6203
19202TIP3   OH279096   4.662   1.161  13.755 -0.0351 -0.0851 -0.1858
19202TIP3    H179097   4.624   1.122  13.677  1.2424  0.3003 -1.0281
19202TIP3    H279098   4.642   1.254  13.748 -1.5197 -0.2854  0.9125
19203TIP3   OH279099   2.205   0.599   6.025  0.2178 -0.2471 -0.1294
19203TIP3    H179100   2.240   0.519   6.065  2.7411  0.2155 -1.2228
19203TIP3    H279101   2.246   0.670   6.074 -0.2783  0.3640 -0.5830
19204TIP3   OH279102   6.139   1.619   1.311  0.0496  0.3683  0.5338
19204TIP3    H179103   6.178   1.616   1.398 -0.5961  1.2436  0.8789
19204TIP3    H279104   6.109   1.710   1.302 -0.3647  0.1520 -0.3850
19205TIP3   OH279105   0.719   5.460   4.063 -0.4088 -0.0623 -0.0869
19205TIP3    H179106   0.792   5.405   4.092 -0.4424  0.5289  1.1856
19205TIP3    H279107   0.722   5.455   3.967  1.7973  0.5604 -0.1143
19206TIP3   OH279108   0.955   0.157  14.553 -0.1517 -0.6734  0.0400
19206TIP3    H179109   0.871   0.202  14.563 -0.1080 -0.7017  0.5567
19206TIP3    H279110   0.983   0.138  14.643  0.8090  0.0787 -0.0878
19207TIP3   OH279111   6.526   6.594   1.410  0.4848  0.3000 -0.7993
19207TIP3    H179112   6.565   6.541   1.341  0.4355  1.6143 -1.8699
19207TIP3    H279113   6.449   6.634   1.369 -0.5573 -0.2495  0.5287
19208TIP3   OH279114   3.288   3.694  15.295  0.4419  0.2426 -0.3215
19208TIP3    H179115   3.227   3.659  15.360  0.8664  0.3116  0.1172
19208TIP3    H279116   3.239   3.763  15.251  0.1872  0.2748  0.0037
19209TIP3   OH279117   5.650   2.158  16.404 -0.2256 -0.1701 -0.3027
19209TIP3    H179118   5.734   2.192  16.372  0.7068 -0.6852  1.4406
19209TIP3    H279119   5.587   2.226  16.383  0.3502 -0.3023 -2.7973
19210TIP3   OH279120   4.207   4.482   2.461  0.0378 -0.0346 -0.5259
19210TIP3    H179121   4.190   4.488   2.367  2.4523 -1.4908 -1.1667
19210TIP3    H279122   4.302   4.470   2.467  0.0228  0.5152  2.1488
19211TIP3   OH279123   4.743   2.504   5.953  0.2904  0.0338  0.5163
19211TIP3    H179124   4.746   2.410   5.969  0.7503  0.0946  0.7873
19211TIP3    H279125   4.678   2.514   5.883  0.4956 -0.5172  0.2385
19212TIP3   OH279126   4.875   2.252  15.607  0.0577 -0.8122  0.3084
19212TIP3    H179127   4.897   2.180  15.548 -0.8371 -1.6852  1.0184
19212TIP3    H279128   4.843   2.321  15.549  2.0167 -0.4931 -0.4970
19213TIP3   OH279129   5.481   3.387  11.324 -0.1074 -0.6483 -0.3845
19213TIP3    H179130   5.534   3.328  11.378 -1.5243 -0.9794  0.6898
19213TIP3    H279131   5.394   3.385  11.364 -0.4109  1.5445 -0.8413
19214TIP3   OH279132   2.622   0.261   0.320  0.3029 -0.3778  0.1212
19214TIP3    H179133   2.631   0.253   0.225  0.7787  0.8300  0.0584
19214TIP3    H279134   2.653   0.349   0.341  2.5117 -1.4408  1.6865
19215TIP3   OH279135   2.169   5.689  13.956  0.8297  0.0207 -0.3168
19215TIP3    H179136   2.091   5.743  13.946  0.1390 -1.0055 -0.5832
19215TIP3    H279137   2.160   5.652  14.044  0.7236 -0.5594 -0.5743
19216TIP3   OH279138   2.466   0.919  16.384  0.2977 -0.1992 -0.1148
19216TIP3    H179139   2.527   0.861  16.428 -3.6637 -2.0255  3.7293
19216TIP3    H279140   2.423   0.864  16.318 -1.6112 -1.0536  1.7297
19217TIP3   OH279141   5.988   5.198   0.858 -0.6934 -0.3909 -0.4219
19217TIP3    H179142   5.949   5.250   0.928 -1.6376  0.0769 -1.2713
19217TIP3    H279143   6.065   5.248   0.831 -1.3535  0.3544 -0.9434
19218TIP3   OH279144   1.741   3.878   5.363  0.2186  0.3364  0.1416
19218TIP3    H179145   1.741   3.948   5.428 -0.7865  0.5920 -0.1158
19218TIP3    H279146   1.663   3.826   5.384  0.7496 -0.5073  0.1072
19219TIP3   OH279147   3.631   2.166   1.119 -0.2906 -0.0207 -0.0254
19219TIP3    H179148   3.702   2.103   1.131 -0.1051  0.2031  0.0663
19219TIP3    H279149   3.673   2.242   1.077 -0.6113 -0.1552 -0.5953
19220TIP3   OH279150   3.962   1.709  12.068  0.0523 -0.3337  0.4802
19220TIP3    H179151   4.024   1.731  11.999 -0.7069 -1.8280 -0.7426
19220TIP3    H279152   3.994   1.626  12.104 -0.7924 -0.7421  0.3347
19221TIP3   OH279153   3.545   2.683  10.871 -0.0158 -0.2412  0.1232
19221TIP3    H179154   3.505   2.596  10.874 -1.7134  0.5100  1.8740
19221TIP3    H279155   3.497   2.729  10.803 -1.8740  0.4589  1.7960
19222TIP3   OH279156   6.656   2.077   2.969 -0.2643 -0.3380 -0.0191
19222TIP3    H179157   6.698   1.996   3.000 -0.7951 -1.1289 -1.2687
19222TIP3    H279158   6.695   2.146   3.022  1.1575 -1.2690  0.2009
19223TIP3   OH279159   0.837   1.340  12.684 -0.2036  0.3005  0.6052
19223TIP3    H179160   0.797   1.280  12.621 -1.0340 -0.3988  1.7737
19223TIP3    H279161   0.812   1.306  12.770  1.5070  0.8303  1.3509
19224TIP3   OH279162   5.025   4.011   1.273  0.1813  0.4046 -0.2927
19224TIP3    H179163   5.066   4.025   1.358  0.4531  1.1775 -0.5458
19224TIP3    H279164   4.936   3.983   1.294  0.1759  0.8021  0.2491
19225TIP3   OH279165   2.762   1.407  11.492  0.5612 -0.0444 -0.7584
19225TIP3    H179166   2.709   1.376  11.418 -1.5322 -0.9051  0.9640
19225TIP3    H279167   2.698   1.423  11.561  2.5809 -1.5091  1.6089
19226TIP3   OH279168   4.417   5.984   1.134 -0.1286  0.5025 -0.6361
19226TIP3    H179169   4.415   6.023   1.222  1.5051  1.3387 -0.9447
19226TIP3    H279170   4.360   5.907   1.141  0.7931 -0.0607  1.4548
19227TIP3   OH279171   6.412   3.486  13.679  0.1762 -0.0076 -0.3814
19227TIP3    H179172   6.377   3.472  13.767 -0.0099 -2.1500 -0.7324
19227TIP3    H279173   6.479   3.418  13.669  1.5741  1.4255 -1.2129
19228TIP3   OH279174   6.401   0.173   5.115 -0.2629  0.2684 -0.6398
19228TIP3    H179175   6.426   0.081   5.121  0.5328  0.5200  0.1668
19228TIP3    H279176   6.325   0.174   5.057 -0.2506 -0.8877 -0.6918
19229TIP3   OH279177   3.167   4.104   3.467  0.2050 -0.0552 -0.2547
19229TIP3    H179178   3.247   4.081   3.418  0.3749  1.4427 -0.7448
19229TIP3    H279179   3.197   4.164   3.535  0.0736 -2.6312  2.2341
19230TIP3   OH279180   6.358   5.598  12.504  0.1744 -0.6257 -0.1155
19230TIP3    H179181   6.350   5.565  12.415  0.5684  2.3592 -1.3412
19230TIP3    H279182   6.274   5.578  12.545 -0.6618 -0.4962 -1.7158
19231TIP3   OH279183   0.130   5.928  16.703  0.4251  0.0279 -0.0400
19231TIP3    H179184   0.182   5.853  16.675  0.2405 -0.4347  0.8001
19231TIP3    H279185   0.195   5.995  16.725  0.5875  0.1426 -0.8671
19232TIP3   OH279186   5.684   4.515  13.511  0.0523 -0.1580 -0.7828
19232TIP3    H179187   5.645   4.437  13.551 -0.9052 -1.2813 -3.6283
19232TIP3    H279188   5.713   4.568  13.585 -1.2852 -2.1700  1.3274
19233TIP3   OH279189   3.377   1.619  14.199  0.2445 -0.2069  0.0356
19233TIP3    H179190   3.317   1.654  14.265 -0.1629  1.4539 -1.1476
19233TIP3    H279191   3.432   1.557  14.247 -1.0980 -0.2858  1.5690
19234TIP3   OH279192   1.049   0.321   5.298  0.3675 -0.0499 -0.1720
19234TIP3    H179193   0.955   0.339   5.299  0.2199 -0.5513 -1.7888
19234TIP3    H279194   1.068   0.285   5.385 -0.9285  0.0477  0.1658
19235TIP3   OH279195   6.733   6.004  15.401 -0.4259  0.7287  0.1769
19235TIP3    H179196   6.798   6.030  15.336 -0.1695 -0.5456 -0.1028
19235TIP3    H279197   6.666   5.959  15.350 -0.1082 -0.4938  0.8235
19236TIP3   OH279198   6.382   4.110  16.657  0.4330  0.3274  0.1100
19236TIP3    H179199   6.348   4.028  16.691 -0.4478  1.2340  1.5287
19236TIP3    H279200   6.311   4.174  16.673  0.5423  1.1167 -2.1627
19237TIP3   OH279201   6.036   6.602   2.510  0.0057 -0.2415  0.1975
19237TIP3    H179202   5.997   6.629   2.427  2.7454 -1.4189 -1.5979
19237TIP3    H279203   6.059   6.684   2.553  0.0671  0.3954 -1.0065
19238TIP3   OH279204   1.182   5.849  13.850  0.0585  0.6228 -0.5676
19238TIP3    H179205   1.246   5.802  13.904 -0.9692 -1.0880 -0.7550
19238TIP3    H279206   1.208   5.941  13.858  2.3925  0.0380 -0.4626
19239TIP3   OH279207   5.127   4.988  12.084  0.2427  0.9392  1.0834
19239TIP3    H179208   5.052   4.951  12.038  1.3503 -0.3871  0.2499
19239TIP3    H279209   5.203   4.945  12.043  1.3353  0.5892  3.3413
19240TIP3   OH279210   2.217   4.250   1.507 -0.3964 -0.2962  0.3029
19240TIP3    H179211   2.136   4.264   1.457  0.1696 -1.1811 -0.9233
19240TIP3    H279212   2.287   4.264   1.444  0.3742 -0.8280  1.0152
19241TIP3   OH279213   2.425   0.603   5.200 -0.0633 -0.4430  0.5236
19241TIP3    H179214   2.377   0.671   5.247 -0.2151  0.7766 -1.3080
19241TIP3    H279215   2.436   0.637   5.111  0.2043 -2.6379 -0.3712
19242TIP3   OH279216   0.852   5.707   2.342  0.0331 -0.1748 -0.2812
19242TIP3    H179217   0.805   5.635   2.384 -0.9823  0.3583 -0.4635
19242TIP3    H279218   0.787   5.777   2.336  1.2807  1.1300  0.8214
19243TIP3   OH279219   5.103   4.006  11.444  0.2132 -0.4351  0.1864
19243TIP3    H179220   5.084   4.094  11.477 -0.4603 -0.0386 -1.1737
19243TIP3    H279221   5.022   3.957  11.460  0.1634 -0.4602 -0.1320
19244TIP3   OH279222   0.110   5.213   1.055 -0.4188 -0.0754 -0.2201
19244TIP3    H179223   0.132   5.228   1.147 -2.0936 -1.0693  0.3830
19244TIP3    H279224   0.134   5.295   1.011  1.0149  0.1751  0.9689
19245TIP3   OH279225   1.256   4.154   4.914 -0.0154 -0.5951  0.2091
19245TIP3    H179226   1.350   4.171   4.924  0.2083 -1.4807 -0.2628
19245TIP3    H279227   1.227   4.215   4.847  0.2468 -0.3736  0.2971
19246TIP3   OH279228   0.719   0.506  15.734  0.2145  0.0717  0.4718
19246TIP3    H179229   0.711   0.505  15.829  0.3699  0.3404  0.4878
19246TIP3    H279230   0.655   0.442  15.704 -2.0868  2.1842  0.5878
19247TIP3   OH279231   3.231   0.317   1.982 -0.1201 -0.3153 -0.3261
19247TIP3    H179232   3.212   0.383   1.915 -0.1480  0.6427  0.5921
19247TIP3    H279233   3.198   0.356   2.064  1.0527 -0.8873  0.4494
19248TIP3   OH279234   5.748   0.714  14.297  0.9919 -0.2836  0.3463
19248TIP3    H179235   5.788   0.710  14.211  2.8260 -0.8743  1.1854
19248TIP3    H279236   5.674   0.775  14.286  1.3739 -0.0976 -1.5360
19249TIP3   OH279237   1.290   2.809   3.716  0.2403 -0.0047 -0.6260
19249TIP3    H179238   1.296   2.885   3.658 -1.0671  1.2498  0.7839
19249TIP3    H279239   1.197   2.785   3.712  0.1458  0.0629  0.8431
19250TIP3   OH279240   5.805   5.345  15.745 -0.1158 -0.7431  0.3106
19250TIP3    H179241   5.714   5.354  15.772 -0.0259  1.1512  0.1562
19250TIP3    H279242   5.854   5.398  15.807  0.7537 -0.8926 -0.2238
19251TIP3   OH279243   2.825   2.592  13.072 -0.3465  0.0633  0.4506
19251TIP3    H179244   2.866   2.540  13.141 -1.2310  1.4896  2.1513
19251TIP3    H279245   2.854   2.682  13.089  1.4029  0.2171 -2.5828
19252TIP3   OH279246   5.680   3.325  14.998  0.5113 -0.0969 -0.1633
19252TIP3    H179247   5.772   3.297  14.988  0.6659  0.2506  0.2549
19252TIP3    H279248   5.632   3.273  14.933  1.0915  0.1416 -0.8001
19253TIP3   OH279249   1.642   0.827  11.481  0.2681  0.3245  0.0925
19253TIP3    H179250   1.733   0.855  11.490  0.4291 -0.1834  0.1031
19253TIP3    H279251   1.617   0.853  11.392  0.6473 -0.1519 -0.1557
19254TIP3   OH279252   2.880   2.335   3.459 -0.3193 -0.1942  0.1587
19254TIP3    H179253   2.814   2.387   3.413 -1.3306 -0.1559  1.5854
19254TIP3    H279254   2.954   2.395   3.471 -0.4265  0.0867 -0.5380
19255TIP3   OH279255   2.594   6.357   3.876  0.4926 -0.6581  0.7770
19255TIP3    H179256   2.603   6.425   3.943  0.2865  0.2039 -0.0470
19255TIP3    H279257   2.550   6.401   3.804  3.6509 -0.5848 -1.2919
19256TIP3   OH279258   4.391   1.879  10.534  0.2984  1.1410  0.3159
19256TIP3    H179259   4.476   1.914  10.559  0.5877  0.0308  0.9045
19256TIP3    H279260   4.347   1.953  10.490  0.7428  2.3661  1.8461
19257TIP3   OH279261   1.494   5.300  11.054  0.2211  0.5217  0.4712
19257TIP3    H179262   1.457   5.358  10.987 -2.2475 -1.1723  0.2212
19257TIP3    H279263   1.518   5.358  11.126 -0.1930  2.0327 -0.5513
19258TIP3   OH279264   0.187   3.323   3.728  0.6047  0.5485  0.1202
19258TIP3    H179265   0.154   3.296   3.643  1.8686 -2.4365  0.4583
19258TIP3    H279266   0.277   3.349   3.712  0.6891  0.4709  0.4570
19259TIP3   OH279267   4.957   6.739  16.906 -0.0611 -0.1103 -0.0242
19259TIP3    H179268   5.033   6.699  16.865  0.8300  0.3435  1.1362
19259TIP3    H279269   4.949   6.825  16.864  0.3809  0.0441  0.2050
19260TIP3   OH279270   6.548   1.151   5.903 -0.3745  0.6303  0.1164
19260TIP3    H179271   6.533   1.068   5.858 -3.3740  1.0921  0.0196
19260TIP3    H279272   6.578   1.211   5.834 -1.2466  0.3827 -0.4981
19261TIP3   OH279273   3.543   5.730   3.793 -0.5970  0.3459  0.0580
19261TIP3    H179274   3.625   5.715   3.747 -0.6497 -0.5005  0.2342
19261TIP3    H279275   3.475   5.705   3.730 -0.7802  2.0728 -0.4893
19262TIP3   OH279276   6.567   5.403   4.946  0.0372  0.1586 -0.1978
19262TIP3    H179277   6.516   5.482   4.961 -0.0893  0.2311 -0.9834
19262TIP3    H279278   6.564   5.357   5.030  0.0690  0.9543  0.2538
19263TIP3   OH279279   4.046   2.395  12.313 -0.1582 -0.6341 -0.4071
19263TIP3    H179280   4.039   2.487  12.287  0.2769 -0.4591  0.0893
19263TIP3    H279281   4.076   2.398  12.404 -1.3178 -1.2486  0.0110
19264TIP3   OH279282   5.459   4.584  14.674  0.1509  0.3554  0.1686
19264TIP3    H179283   5.513   4.532  14.616 -0.1357 -1.0371  1.1040
19264TIP3    H279284   5.369   4.564  14.648  0.0312  1.4559 -0.3503
19265TIP3   OH279285   4.267   4.763  17.002 -0.2469  0.0139 -0.0104
19265TIP3    H179286   4.182   4.726  16.981 -0.0478  0.2714 -1.3663
19265TIP3    H279287   4.307   4.782  16.917  1.1133  0.0145  0.5982
19266TIP3   OH279288   6.262   2.747   9.999 -0.8396  0.1031  0.1825
19266TIP3    H179289   6.238   2.815  10.062  0.7717  0.2164  0.7033
19266TIP3    H279290   6.356   2.758   9.986 -0.6474 -1.6686 -0.1586
19267TIP3   OH279291   5.507   5.977  14.824 -0.2920  0.1879  0.2542
19267TIP3    H179292   5.563   5.903  14.800 -0.7136 -0.4434  1.1396
19267TIP3    H279293   5.519   6.041  14.754  1.9721  0.3096  0.7022
19268TIP3   OH279294   0.528   1.107   4.670  0.4327 -1.4550  0.8649
19268TIP3    H179295   0.546   1.137   4.759  0.2374 -1.0878  0.7806
19268TIP3    H279296   0.600   1.141   4.618 -0.6065  0.2726  0.4719
19269TIP3   OH279297   4.129   1.332   3.095 -0.4580  0.2631  0.3843
19269TIP3    H179298   4.096   1.360   3.181 -1.9756 -1.6459  0.4723
19269TIP3    H279299   4.066   1.267   3.065  0.9232 -0.2901 -1.4742
19270TIP3   OH279300   0.575   4.723   3.241  0.1367 -0.1226  0.5223
19270TIP3    H179301   0.510   4.687   3.300  0.8730 -1.8532  0.3484
19270TIP3    H279302   0.658   4.687   3.272  0.6156 -0.5474 -1.1395
19271TIP3   OH279303   2.340   2.058  17.205  0.7669 -0.4740  0.1601
19271TIP3    H179304   2.274   2.046  17.273  1.8528 -0.5245  1.2429
19271TIP3    H279305   2.300   2.120  17.143 -1.8011 -3.3482 -1.3114
19272TIP3   OH279306   3.743   3.192   2.727  0.0848  0.1271  0.0982
19272TIP3    H179307   3.648   3.190   2.738 -0.1309  1.5456 -1.1756
19272TIP3    H279308   3.766   3.283   2.746  1.1936 -0.2034  0.3715
19273TIP3   OH279309   3.093   0.761   2.706  0.0563  0.1519 -0.0554
19273TIP3    H179310   3.029   0.723   2.646  0.3273 -0.1040 -0.1852
19273TIP3    H279311   3.065   0.852   2.718 -1.2283 -0.3573  1.1001
19274TIP3   OH279312   6.419   3.740   3.608 -0.2760  0.2010  0.2018
19274TIP3    H179313   6.444   3.824   3.570  0.3410  0.6710  1.5980
19274TIP3    H279314   6.344   3.712   3.555  0.4583  0.8663 -1.2590
19275TIP3   OH279315   2.363   6.437   4.202 -0.2327  0.7979  0.4763
19275TIP3    H179316   2.278   6.461   4.239 -0.6702 -0.3817  0.2795
19275TIP3    H279317   2.349   6.440   4.107  0.4308  2.2313  0.3981
19276TIP3   OH279318   6.646   3.704  12.015 -0.2140  0.6278 -0.2884
19276TIP3    H179319   6.696   3.735  11.940  0.7090  1.5339  0.6714
19276TIP3    H279320   6.676   3.758  12.088 -1.1561 -0.1664  0.7200
19277TIP3   OH279321   0.146   3.838   4.676  0.0113 -0.3380  0.2185
19277TIP3    H179322   0.159   3.800   4.589 -0.3095 -1.1365  0.5101
19277TIP3    H279323   0.125   3.929   4.659  1.1008 -0.2008 -0.4860
19278TIP3   OH279324   5.871   6.710  16.742 -0.2559 -0.0745  0.0484
19278TIP3    H179325   5.916   6.767  16.679 -1.1444  1.0744  0.4209
19278TIP3    H279326   5.781   6.741  16.742 -0.2602  0.0049  1.9382
19279TIP3   OH279327   0.706   5.849  13.801  0.3182  0.4792  0.0496
19279TIP3    H179328   0.710   5.799  13.719 -1.4673  0.4488 -0.0585
19279TIP3    H279329   0.778   5.912  13.794 -0.7961  1.5985 -2.3123
19280TIP3   OH279330   3.415   5.593   0.467 -0.1489 -0.0596  0.3355
19280TIP3    H179331   3.334   5.588   0.417 -0.6010 -0.3487  1.0829
19280TIP3    H279332   3.389   5.622   0.554  0.4213 -0.9769  0.8409
19281TIP3   OH279333   3.493   4.889   3.141 -0.1531  0.1467  0.0980
19281TIP3    H179334   3.468   4.973   3.180 -0.3288  0.0374  0.2250
19281TIP3    H279335   3.469   4.899   3.048  0.4274  0.4692 -0.0199
19282TIP3   OH279336   5.693   1.771   3.938  0.0268  0.2813 -0.2126
19282TIP3    H179337   5.614   1.719   3.952 -1.0657  1.6978 -0.7885
19282TIP3    H279338   5.720   1.750   3.849  1.8798 -2.1546  0.8199
19283TIP3   OH279339   2.198   5.084  16.808 -0.0845  0.6804 -0.6055
19283TIP3    H179340   2.237   5.148  16.748  0.2633  2.1419  1.0900
19283TIP3    H279341   2.104   5.088  16.791 -0.3045  3.1049  0.7117
19284TIP3   OH279342   4.523   3.289   1.651  0.5593 -0.3346  0.0338
19284TIP3    H179343   4.542   3.287   1.744 -1.4687 -0.4211  0.4970
19284TIP3    H279344   4.540   3.379   1.624 -0.2632  0.0752  0.8403
19285TIP3   OH279345   3.909   3.380  11.970 -0.0339  0.3491  0.1116
19285TIP3    H179346   3.938   3.350  12.056  0.8384 -1.2200 -0.6886
19285TIP3    H279347   3.952   3.464  11.958  1.0253 -0.0998  0.6115
19286TIP3   OH279348   4.800   3.209  12.455 -0.0362 -0.3181 -0.3799
19286TIP3    H179349   4.860   3.282  12.448 -0.0072 -0.2769  0.2513
19286TIP3    H279350   4.813   3.159  12.375  1.3805 -0.7275  0.0853
19287TIP3   OH279351   3.109   5.585  15.113 -0.4225  0.1094  0.3820
19287TIP3    H179352   3.144   5.505  15.074 -0.4047  0.0934  0.4297
19287TIP3    H279353   3.170   5.654  15.084 -0.0885  0.0119  0.8366
19288TIP3   OH279354   4.868   2.141  14.505  0.8508 -0.1425 -0.1151
19288TIP3    H179355   4.835   2.087  14.577 -1.7071 -0.3169 -1.3373
19288TIP3    H279356   4.813   2.219  14.507  1.1354  0.1110 -1.5084
19289TIP3   OH279357   4.636   4.619   5.624  0.3588 -0.0389  0.2302
19289TIP3    H179358   4.683   4.542   5.592  0.0864  0.3872 -1.2795
19289TIP3    H279359   4.558   4.584   5.665  1.2796 -0.6740  1.4838
19290TIP3   OH279360   0.110   5.236  15.837 -0.1957  0.1811  0.4433
19290TIP3    H179361   0.194   5.280  15.824 -0.2622  0.1553 -0.1178
19290TIP3    H279362   0.047   5.291  15.791 -0.2927 -0.4415 -0.1854
19291TIP3   OH279363   3.008   3.064   5.454  0.4339  0.0389  0.6680
19291TIP3    H179364   2.948   3.082   5.382 -0.0615 -1.0176  0.8068
19291TIP3    H279365   3.002   3.141   5.510 -0.1337  0.3136  0.2341
19292TIP3   OH279366   6.174   1.401   2.160 -0.3634 -0.5523  0.0511
19292TIP3    H179367   6.197   1.346   2.085 -1.3288  0.6340 -1.1431
19292TIP3    H279368   6.121   1.344   2.216  1.4196 -1.8478  0.5244
19293TIP3   OH279369   4.242   4.167  11.203 -0.1587  0.5736  0.0781
19293TIP3    H179370   4.254   4.262  11.202 -0.6945  0.6334 -1.1517
19293TIP3    H279371   4.309   4.133  11.144  0.4056  0.1244  0.9514
19294TIP3   OH279372   3.204   0.240  15.467  0.2013  0.1473  0.2925
19294TIP3    H179373   3.245   0.298  15.403 -0.2226  0.5983  0.4289
19294TIP3    H279374   3.275   0.216  15.527  1.1642 -2.0447 -1.5509
19295TIP3   OH279375   4.583   6.117   2.954  0.6818  0.0680 -0.4124
19295TIP3    H179376   4.637   6.106   2.876 -0.7533 -1.7195 -1.2547
19295TIP3    H279377   4.571   6.028   2.987 -1.5917  0.3940 -0.1978
19296TIP3   OH279378   4.785   4.839   6.388  0.2412  0.2030 -0.0185
19296TIP3    H179379   4.867   4.813   6.429  0.1366 -0.9877 -0.5169
19296TIP3    H279380   4.807   4.918   6.338  1.1301 -0.2090 -0.2970
19297TIP3   OH279381   5.329   0.405  13.964  0.4519  0.4902 -0.3361
19297TIP3    H179382   5.311   0.355  14.043  1.7196 -1.6335 -1.3144
19297TIP3    H279383   5.255   0.466  13.957 -2.0740 -2.3050  0.1168
19298TIP3   OH279384   1.391   2.132  13.387  0.3868 -0.3478 -0.1780
19298TIP3    H179385   1.296   2.128  13.373  0.3411 -4.7447 -0.1638
19298TIP3    H279386   1.429   2.125  13.300  0.6301 -0.8260 -0.0379
19299TIP3   OH279387   6.231   3.942   3.082 -0.4725 -0.7780  0.0338
19299TIP3    H179388   6.193   4.006   3.021 -1.0633 -1.3681 -0.2209
19299TIP3    H279389   6.323   3.969   3.089 -0.9008  0.6473  0.6289
19300TIP3   OH279390   2.431   5.645  16.855  0.1074 -0.6573  0.3514
19300TIP3    H179391   2.349   5.692  16.845  0.4429 -0.2772 -0.8967
19300TIP3    H279392   2.439   5.629  16.949 -1.0844 -0.1642  0.5539
19301TIP3   OH279393   1.227   3.076  14.168  0.4243  0.7573  0.4301
19301TIP3    H179394   1.248   3.164  14.135 -0.1449  0.9344  0.5417
19301TIP3    H279395   1.153   3.089  14.227 -0.5398  0.0224 -0.5776
19302TIP3   OH279396   3.658   1.083   1.839  0.5502  0.2481 -0.7578
19302TIP3    H179397   3.706   1.098   1.757 -0.1562  1.0061 -1.0535
19302TIP3    H279398   3.678   1.160   1.892  0.7569 -0.0945 -0.3371
19303TIP3   OH279399   5.613   2.684  12.545 -0.0161  0.5138 -0.5550
19303TIP3    H179400   5.530   2.698  12.590  0.2368  1.3554 -0.3378
19303TIP3    H279401   5.587   2.664  12.454 -0.5379 -1.4931 -0.0316
19304TIP3   OH279402   4.958   3.772   1.519  0.4589 -0.1345  0.8231
19304TIP3    H179403   4.873   3.778   1.562 -0.1172 -0.3591 -0.2521
19304TIP3    H279404   5.007   3.846   1.553 -0.4347  0.4459  0.8847
19305TIP3   OH279405   0.616   0.827   1.529 -0.0855 -0.1018  0.3278
19305TIP3    H179406   0.693   0.777   1.505 -0.2391  0.1501 -0.7171
19305TIP3    H279407   0.571   0.772   1.594 -0.3649 -1.4280 -0.9462
19306TIP3   OH279408   4.448   0.733  14.894  0.2268 -0.3830  0.3412
19306TIP3    H179409   4.441   0.699  14.805 -1.9222  1.2474 -0.2123
19306TIP3    H279410   4.369   0.703  14.938  1.6130 -1.8040  2.0083
19307TIP3   OH279411   3.186   0.424  11.222 -0.5057  0.0375 -0.1802
19307TIP3    H179412   3.272   0.418  11.180  0.0968 -0.6777  1.0923
19307TIP3    H279413   3.176   0.340  11.268 -1.6435  0.3347  0.1416
19308TIP3   OH279414   3.934   2.781  15.271 -0.3765 -0.0816 -0.2561
19308TIP3    H179415   3.841   2.791  15.251 -0.7733 -0.8375  1.0895
19308TIP3    H279416   3.945   2.826  15.355  0.7121  0.9116 -0.8956
19309TIP3   OH279417   4.521   4.366  13.645 -0.5532 -0.3928 -0.7232
19309TIP3    H179418   4.581   4.433  13.615 -0.2826 -1.2092 -2.0581
19309TIP3    H279419   4.448   4.415  13.684  1.3844  0.6260  1.9686
19310TIP3   OH279420   5.429   0.317   1.331  0.6450  0.9330 -0.3383
19310TIP3    H179421   5.430   0.358   1.245  0.3422 -0.9010 -1.2609
19310TIP3    H279422   5.519   0.289   1.346  0.9261  2.2022  0.4458
19311TIP3   OH279423   6.472   3.053   2.453 -0.3184 -0.1687 -0.3903
19311TIP3    H179424   6.558   3.011   2.448 -0.8000 -1.7954  2.6320
19311TIP3    H279425   6.410   2.984   2.431 -0.9388  0.4513 -0.6269
19312TIP3   OH279426   5.512   1.632   5.487 -0.3962 -0.4224  0.7231
19312TIP3    H179427   5.431   1.584   5.471  0.3693 -1.7518  0.7403
19312TIP3    H279428   5.530   1.619   5.581  0.0572 -0.4868  0.6289
19313TIP3   OH279429   1.373   0.902  15.159  0.0397 -0.0761  0.0100
19313TIP3    H179430   1.309   0.842  15.197  1.0138  0.3628  2.5286
19313TIP3    H279431   1.443   0.844  15.126  0.3465 -0.4253  1.2098
19314TIP3   OH279432   3.126   4.473  16.152 -0.6346  0.3849 -0.2958
19314TIP3    H179433   3.194   4.496  16.216  1.0368 -2.2696 -0.9445
19314TIP3    H279434   3.093   4.388  16.182 -0.3539 -0.5561 -2.4445
19315TIP3   OH279435   5.829   1.241   6.149  0.9203  0.5130 -0.3945
19315TIP3    H179436   5.858   1.323   6.190  2.4338 -1.4145  2.7971
19315TIP3    H279437   5.904   1.213   6.096  1.5039 -0.0663  0.6937
19316TIP3   OH279438   2.713   2.902  15.564 -0.1158 -0.0440  0.3192
19316TIP3    H179439   2.668   2.883  15.482  0.9951 -0.6848 -0.1673
19316TIP3    H279440   2.737   2.995  15.557 -1.7296  0.4502  0.7985
19317TIP3   OH279441   3.833   2.321  16.539 -0.0004 -0.0456  0.4185
19317TIP3    H179442   3.794   2.236  16.518  1.0585 -0.1183 -1.4526
19317TIP3    H279443   3.913   2.300  16.586  0.4147 -0.1179 -0.3050
19318TIP3   OH279444   4.474   2.878   3.723  0.2822  0.0174  0.3038
19318TIP3    H179445   4.487   2.967   3.691  0.0650 -0.2856 -0.6520
19318TIP3    H279446   4.491   2.884   3.817  0.1436  1.0890  0.2737
19319TIP3   OH279447   0.144   6.763   0.200 -0.5860 -0.3751 -0.1974
19319TIP3    H179448   0.150   6.716   0.283 -0.9103 -1.5306 -0.8139
19319TIP3    H279449   0.138   6.855   0.226  1.3119 -0.5277  0.9897
19320TIP3   OH279450   6.644   0.450  16.945  0.2788  0.1640  0.1331
19320TIP3    H179451   6.633   0.458  17.040  1.5980  0.6441  0.2681
19320TIP3    H279452   6.722   0.396  16.934  1.0558  1.4068 -0.6517
19321TIP3   OH279453   2.059   6.736   3.226 -0.3465  0.0572  0.5577
19321TIP3    H179454   2.042   6.830   3.222 -1.8169 -0.2168 -0.0555
19321TIP3    H279455   2.006   6.704   3.299 -1.9352 -0.6814 -0.8579
19322TIP3   OH279456   1.089   1.920   0.682 -0.0392 -0.2824 -0.1997
19322TIP3    H179457   1.069   1.915   0.775 -0.0081  1.4482 -0.0623
19322TIP3    H279458   1.025   1.863   0.640  0.8436 -2.2117  0.9592
19323TIP3   OH279459   0.656   3.453   3.514 -0.0205  0.6851  0.3553
19323TIP3    H179460   0.618   3.388   3.455  0.7664  0.3507  0.2094
19323TIP3    H279461   0.744   3.469   3.479  0.7657 -0.0891  1.8583
19324TIP3   OH279462   5.301   4.438   5.893  0.3047 -0.5106 -0.6749
19324TIP3    H179463   5.278   4.524   5.859  1.3509  1.0946  2.3450
19324TIP3    H279464   5.228   4.382   5.865 -0.8679  1.5200 -1.9814
19325TIP3   OH279465   4.662   0.232   1.657 -0.4540  0.0238  0.0922
19325TIP3    H179466   4.604   0.211   1.730 -0.0255 -0.7775  0.2186
19325TIP3    H279467   4.724   0.296   1.692 -1.2346  0.8521 -0.0329
19326TIP3   OH279468   2.126   1.116  11.351 -0.2470 -0.6376  0.5559
19326TIP3    H179469   2.171   1.133  11.433 -1.0073 -1.1107  1.0782
19326TIP3    H279470   2.194   1.126  11.284 -0.1542  2.3400  0.9584
19327TIP3   OH279471   1.074   3.239   1.800 -0.3525  0.1632 -0.9535
19327TIP3    H179472   1.102   3.163   1.750  0.9063  0.0256 -0.0970
19327TIP3    H279473   1.144   3.253   1.864 -2.1323 -0.0358  1.1733
19328TIP3   OH279474   4.703   2.291   5.676 -0.0666 -0.1732  0.0225
19328TIP3    H179475   4.688   2.383   5.698 -0.1583 -0.2152  0.1342
19328TIP3    H279476   4.703   2.289   5.580 -2.2322 -0.3976 -0.0268
19329TIP3   OH279477   1.433   1.105  15.707 -0.5484 -0.5656  0.1418
19329TIP3    H179478   1.486   1.181  15.732 -0.7461 -0.0608 -0.9071
19329TIP3    H279479   1.345   1.125  15.740 -1.5519  1.4745 -3.1946
19330TIP3   OH279480   0.849   2.239   2.097 -0.0080 -0.1261  0.1478
19330TIP3    H179481   0.779   2.299   2.071  1.8272  1.4602 -1.3577
19330TIP3    H279482   0.858   2.178   2.024 -0.2371 -0.7457  0.6256
19331TIP3   OH279483   0.183   2.290  15.752 -0.0670 -0.0116  0.1045
19331TIP3    H179484   0.104   2.344  15.753 -0.8404 -1.0912 -0.4846
19331TIP3    H279485   0.161   2.217  15.695  1.2593 -0.5003  0.1899
19332TIP3   OH279486   4.660   1.230   3.105 -0.2034  0.2623  0.1618
19332TIP3    H179487   4.629   1.203   3.019 -0.4975 -1.1625  0.6900
19332TIP3    H279488   4.752   1.252   3.092 -0.4911  1.0225 -0.6943
19333TIP3   OH279489   4.489   3.840   1.502  0.1011 -0.2380 -0.2773
19333TIP3    H179490   4.509   3.849   1.409  3.1610  1.2262  0.4027
19333TIP3    H279491   4.528   3.756   1.527  1.4913  0.4828  0.1046
19334TIP3   OH279492   2.507   3.943  12.347  0.5308  0.1435  0.4389
19334TIP3    H179493   2.475   3.947  12.256  0.5911 -0.6261  0.3773
19334TIP3    H279494   2.475   3.859  12.380  2.3917 -0.6239  0.4104
19335TIP3   OH279495   3.136   0.144   0.052 -0.0993 -0.0970 -0.1391
19335TIP3    H179496   3.199   0.083   0.013 -0.7484 -0.8364 -0.0511
19335TIP3    H279497   3.178   0.230   0.042  1.5192 -0.6871  1.0903
19336TIP3   OH279498   3.708   6.823  14.867 -0.1522 -0.4315  0.1785
19336TIP3    H179499   3.677   6.910  14.894 -0.5511 -0.9297  1.3519
19336TIP3    H279500   3.660   6.805  14.786  0.6183  0.8221 -0.5877
19337TIP3   OH279501   0.205   1.863   0.846  0.2945  0.0536 -0.3234
19337TIP3    H179502   0.170   1.854   0.758  2.6841 -2.3986 -1.1932
19337TIP3    H279503   0.235   1.953   0.851 -0.8999  0.5595 -1.5724
19338TIP3   OH279504   2.434   0.989   2.802 -0.2378 -0.2507 -0.1549
19338TIP3    H179505   2.500   1.039   2.754 -0.6093 -1.9238 -2.6052
19338TIP3    H279506   2.477   0.965   2.884  0.3529  2.9339  0.5654
19339TIP3   OH279507   6.065   5.338   5.418 -0.7087  0.1422 -0.4243
19339TIP3    H179508   6.109   5.364   5.499 -1.2367 -0.6659  0.1488
19339TIP3    H279509   5.978   5.309   5.447 -0.6749 -0.7713 -1.1944
19340TIP3   OH279510   2.635   5.006  16.203 -0.3658 -0.0961 -0.4717
19340TIP3    H179511   2.619   4.919  16.239 -0.1967 -0.0550 -0.2952
19340TIP3    H279512   2.586   5.065  16.260 -1.1988 -0.1511 -1.1080
19341TIP3   OH279513   0.295   1.615  11.987 -0.2153 -0.1794  0.1813
19341TIP3    H179514   0.316   1.671  11.911  0.6428  1.7265  1.7358
19341TIP3    H279515   0.253   1.538  11.948  0.5033  0.5417 -2.2596
19342TIP3   OH279516   2.046   1.706  15.275  0.0179  0.5294 -0.0437
19342TIP3    H179517   2.029   1.624  15.228  0.0018  0.1495  0.6034
19342TIP3    H279518   2.141   1.707  15.285 -0.0744 -0.0504  1.0444
19343TIP3   OH279519   2.828   5.420   5.736  0.4887  0.1490 -0.4248
19343TIP3    H179520   2.866   5.333   5.727  2.7067  1.0841 -0.9639
19343TIP3    H279521   2.755   5.409   5.797 -1.0543 -2.5448 -2.5378
19344TIP3   OH279522   2.626   3.065   4.925  0.3059  0.4480  0.7664
19344TIP3    H179523   2.711   3.065   4.880 -0.8353  0.9270 -1.5711
19344TIP3    H279524   2.591   3.153   4.911 -0.9086  0.0210  0.9529
19345TIP3   OH279525   0.367   2.097   0.918 -0.7525 -0.5405 -0.4742
19345TIP3    H179526   0.395   2.185   0.941  0.2209 -1.3504  1.7377
19345TIP3    H279527   0.448   2.045   0.917 -1.3092 -1.4513 -1.6513
19346TIP3   OH279528   5.497   2.641   5.086  0.3621  0.0794 -0.1230
19346TIP3    H179529   5.567   2.664   5.146 -0.1614  1.4441  0.0123
19346TIP3    H279530   5.539   2.635   5.000  1.0695 -1.6470  0.3095
19347TIP3   OH279531   4.764   0.247  11.349  0.1181  0.2900 -0.2052
19347TIP3    H179532   4.826   0.257  11.421  0.3866  2.0159 -0.6375
19347TIP3    H279533   4.813   0.269  11.270 -0.8019  0.8878 -0.6407
19348TIP3   OH279534   1.355   5.870   2.096  0.2601 -0.0014  0.1950
19348TIP3    H179535   1.325   5.808   2.163 -0.1169  0.0649  0.0891
19348TIP3    H279536   1.394   5.814   2.029  2.1745  0.0135  1.2071
19349TIP3   OH279537   6.588   0.799  12.939  0.3359  0.3499 -0.5178
19349TIP3    H179538   6.590   0.789  13.034  0.8939  0.6761 -0.4886
19349TIP3    H279539   6.512   0.854  12.921  1.0268  1.4491 -0.1398
19350TIP3   OH279540   4.298   5.057   3.944  0.2892 -0.7265  0.2160
19350TIP3    H179541   4.290   5.109   3.864 -0.6853 -1.8559 -0.4509
19350TIP3    H279542   4.392   5.048   3.957  0.4727  0.2552 -0.2640
19351TIP3   OH279543   0.036   5.564  14.930  0.0409  0.0884  0.5705
19351TIP3    H179544   0.070   5.512  15.002  0.1759  0.2972  0.6543
19351TIP3    H279545   0.113   5.590  14.879  0.1339  1.5552  1.4133
19352TIP3   OH279546   4.864   4.469  12.529  0.2071  0.4887  0.4182
19352TIP3    H179547   4.829   4.426  12.451  1.3331  1.5988 -0.7486
19352TIP3    H279548   4.818   4.553  12.533  1.0822  0.9898  0.1866
19353TIP3   OH279549   3.762   3.611  16.697  0.3041 -0.9181 -0.2718
19353TIP3    H179550   3.726   3.564  16.772 -0.7718 -1.5705 -1.1670
19353TIP3    H279551   3.852   3.632  16.723 -0.7403  0.9877  2.1324
19354TIP3   OH279552   3.965   2.564  12.717 -0.2775  0.3712  0.1458
19354TIP3    H179553   4.021   2.510  12.661 -0.7919  1.0251 -1.0255
19354TIP3    H279554   3.958   2.514  12.798  2.3147  0.4239  0.4986
19355TIP3   OH279555   5.235   3.787   4.026 -0.3246  0.8475 -0.1943
19355TIP3    H179556   5.259   3.744   4.108  0.3993  0.5281 -0.5611
19355TIP3    H279557   5.284   3.739   3.959  1.3446  2.8815 -0.5152
19356TIP3   OH279558   2.197   1.972   6.212  0.4305 -0.8064 -0.7046
19356TIP3    H179559   2.232   2.036   6.275 -0.8983  0.3060 -1.0520
19356TIP3    H279560   2.274   1.940   6.166  1.2069 -0.0092 -0.0073
19357TIP3   OH279561   1.253   0.506   0.387 -0.3034  0.3381 -0.0902
19357TIP3    H179562   1.202   0.498   0.468 -0.2771  1.1349  0.0168
19357TIP3    H279563   1.326   0.445   0.398 -0.2224  0.5434  0.5531
19358TIP3   OH279564   2.030   4.957   2.550 -0.3986 -0.1029 -0.5531
19358TIP3    H179565   2.022   4.884   2.488 -0.9158 -1.3544  0.9417
19358TIP3    H279566   2.028   4.916   2.636  2.9313  1.3076  0.3633
19359TIP3   OH279567   2.786   2.623  11.918 -0.1809 -0.4287 -0.2827
19359TIP3    H179568   2.752   2.535  11.904  0.2877 -0.7478  0.5428
19359TIP3    H279569   2.874   2.620  11.881  0.1561 -0.5657  0.5157
19360TIP3   OH279570   4.138   4.717   1.964  0.5734  0.2435 -0.1232
19360TIP3    H179571   4.049   4.682   1.963  0.8304 -0.4731  0.6854
19360TIP3    H279572   4.148   4.761   1.880 -0.4133 -0.0064 -0.3769
19361TIP3   OH279573   0.422   3.555  16.615 -0.2450  0.0412 -0.7024
19361TIP3    H179574   0.412   3.649  16.634  0.4543 -0.2267  1.1994
19361TIP3    H279575   0.346   3.514  16.657  0.0467 -0.3624 -0.5698
19362TIP3   OH279576   4.006   4.654  16.978 -0.0256 -0.5706  0.0949
19362TIP3    H179577   3.982   4.730  16.925 -0.1349 -1.5158 -1.2560
19362TIP3    H279578   3.924   4.610  16.995 -0.0231 -0.1477  1.3045
19363TIP3   OH279579   2.025   3.311  15.888  0.6271  0.7596 -0.2369
19363TIP3    H179580   2.088   3.319  15.816  0.5580  0.6900 -0.3054
19363TIP3    H279581   1.947   3.274  15.847  1.1544 -0.9185  0.1804
19364TIP3   OH279582   0.264   4.852  14.060 -0.1282  0.6364  0.3947
19364TIP3    H179583   0.201   4.847  13.988 -1.8752  1.8927  1.7345
19364TIP3    H279584   0.310   4.935  14.046 -0.0442  0.5890  0.3904
19365TIP3   OH279585   4.068   0.456   0.401  0.0484 -0.0627  0.5403
19365TIP3    H179586   4.064   0.551   0.412 -1.3463  0.1798 -1.4918
19365TIP3    H279587   4.028   0.421   0.480  0.1140  1.0397  1.0857
19366TIP3   OH279588   4.059   3.678   0.650  0.7114 -0.0644 -0.4436
19366TIP3    H179589   3.971   3.687   0.614  0.8543 -1.9516 -1.3783
19366TIP3    H279590   4.054   3.601   0.706  1.1877  1.2492  1.5110
19367TIP3   OH279591   6.697   3.981  10.843 -0.0483 -0.0774  0.4841
19367TIP3    H179592   6.713   3.929  10.764 -1.2731  0.4646 -0.1534
19367TIP3    H279593   6.616   4.030  10.823  0.1863  0.8353  1.6819
19368TIP3   OH279594   5.309   6.553   4.839  0.3436  0.1808  0.2319
19368TIP3    H179595   5.225   6.515   4.864 -0.1033  1.1144  0.2134
19368TIP3    H279596   5.374   6.488   4.865 -0.2508  0.2067  1.8893
19369TIP3   OH279597   0.080   6.224  12.456  0.2858 -0.6675 -0.2462
19369TIP3    H179598   0.045   6.136  12.464 -1.0891 -0.1459 -0.2813
19369TIP3    H279599   0.118   6.227  12.368 -0.4855 -0.9377 -0.5897
19370TIP3   OH279600   2.018   3.669   5.978  1.2505 -0.0351  0.7318
19370TIP3    H179601   1.949   3.612   5.945  1.0210  0.2475  0.7159
19370TIP3    H279602   2.059   3.704   5.898  2.2181 -1.1506  0.7236
19371TIP3   OH279603   3.364   5.484  16.076 -1.0156  0.1017  0.8867
19371TIP3    H179604   3.455   5.475  16.104  0.6441  1.3275 -3.3512
19371TIP3    H279605   3.327   5.396  16.085  1.0168 -0.7401  1.4391
19372TIP3   OH279606   0.667   0.596   1.324  0.1408  0.1467  0.0095
19372TIP3    H179607   0.648   0.508   1.355 -0.5821  0.9636  2.0058
19372TIP3    H279608   0.758   0.592   1.294  0.2091 -1.1886  0.3455
19373TIP3   OH279609   6.583   5.671   3.088  0.5976 -0.4822  0.0536
19373TIP3    H179610   6.673   5.689   3.061  1.0186 -0.9702  1.0576
19373TIP3    H279611   6.568   5.728   3.163  0.2651 -0.7970  0.2339
19374TIP3   OH279612   1.101   3.841   2.406  0.6104 -0.3554 -0.3090
19374TIP3    H179613   1.107   3.752   2.439  1.4839  0.6538  2.5482
19374TIP3    H279614   1.012   3.869   2.427  0.4661 -0.4140 -0.8327
19375TIP3   OH279615   3.855   2.040   0.242  0.1673  0.1522  0.0803
19375TIP3    H179616   3.836   2.113   0.301 -0.4218 -0.7740  1.0746
19375TIP3    H279617   3.769   2.004   0.219  0.3737  0.6146 -1.5360
19376TIP3   OH279618   2.698   6.277   1.854 -0.0510 -0.6034  0.6588
19376TIP3    H179619   2.724   6.349   1.911 -0.2094 -0.1925  0.2122
19376TIP3    H279620   2.632   6.314   1.796  1.9252 -0.2740 -1.5223
19377TIP3   OH279621   6.356   1.488  12.937 -0.3126  0.0115 -0.6029
19377TIP3    H179622   6.391   1.576  12.931 -0.0309 -0.1295 -1.0679
19377TIP3    H279623   6.262   1.498  12.922 -0.5382  0.4188  0.8854
19378TIP3   OH279624   3.997   6.057  16.730  0.0737 -0.3015 -0.0627
19378TIP3    H179625   3.914   6.010  16.720  0.3355 -0.8319  0.2306
19378TIP3    H279626   3.980   6.120  16.800 -0.6010  0.7930 -1.1728
19379TIP3   OH279627   2.234   5.583  11.848  0.1019 -0.3989  0.7221
19379TIP3    H179628   2.310   5.602  11.903  0.6254 -0.8588  0.1686
19379TIP3    H279629   2.267   5.523  11.781 -0.1870  1.1279 -0.8673
19380TIP3   OH279630   1.138   5.279   0.828  0.0991  0.0091  0.3409
19380TIP3    H179631   1.076   5.318   0.889  0.9941  2.7751 -0.3749
19380TIP3    H279632   1.098   5.195   0.804 -2.6231  1.0038  0.9956
19381TIP3   OH279633   4.396   4.071   1.631  0.1906 -0.5167 -0.0382
19381TIP3    H179634   4.430   3.986   1.603  1.1203 -0.3290  0.4930
19381TIP3    H279635   4.389   4.064   1.726  1.3141  0.3490  0.1274
19382TIP3   OH279636   1.643   3.261   5.016  0.2224  0.4341  0.3012
19382TIP3    H179637   1.604   3.243   4.931  0.1729 -0.1443  0.4447
19382TIP3    H279638   1.588   3.330   5.053 -0.3293  0.0291  0.2606
19383TIP3   OH279639   0.219   3.393  15.160 -0.0740  0.3148 -0.1157
19383TIP3    H179640   0.204   3.307  15.199 -0.5237 -0.2741 -1.5038
19383TIP3    H279641   0.131   3.428  15.144 -0.0465 -0.6565 -3.0266
19384TIP3   OH279642   6.763   2.475   3.814  0.0481  0.5898  0.0771
19384TIP3    H179643   6.758   2.543   3.747 -0.6993  1.8194  1.3339
19384TIP3    H279644   6.678   2.478   3.858 -0.4483 -1.9260 -0.5104
19385TIP3   OH279645   3.145   2.942   2.843 -0.6821 -0.5461  0.0449
19385TIP3    H179646   3.172   2.961   2.933 -0.5787  0.6563 -0.2194
19385TIP3    H279647   3.206   2.993   2.789 -1.1568 -0.7394 -0.6831
19386TIP3   OH279648   1.634   3.957   3.339  0.7063  0.4598 -0.2852
19386TIP3    H179649   1.539   3.970   3.345  0.4046 -0.4043 -2.2198
19386TIP3    H279650   1.653   3.968   3.246  2.3435 -0.3501 -0.0740
19387TIP3   OH279651   6.744   3.987  13.897  0.2979 -0.2978 -0.1713
19387TIP3    H179652   6.827   3.999  13.943  1.6227 -0.6651 -2.3267
19387TIP3    H279653   6.735   3.892  13.890 -1.7294 -0.4167  2.3198
19388TIP3   OH279654   0.581   4.004   2.907  0.0351  0.3214  0.4105
19388TIP3    H179655   0.594   3.967   2.994 -0.7919  0.4033  0.5749
19388TIP3    H279656   0.669   4.028   2.878  0.5275 -1.2373  0.5253
19389TIP3   OH279657   4.925   2.865   3.644  1.0426  0.2984 -0.0495
19389TIP3    H179658   4.968   2.883   3.560 -0.0015  0.5120 -0.5548
19389TIP3    H279659   4.873   2.944   3.661 -0.4855 -0.6319 -0.3061
19390TIP3   OH279660   0.420   4.927   0.828 -0.1134 -0.5864 -0.3052
19390TIP3    H179661   0.458   5.003   0.785 -0.8732 -0.5684 -0.9662
19390TIP3    H279662   0.490   4.862   0.828  0.1584 -0.2990 -0.8143
19391TIP3   OH279663   1.343   0.768  16.938  0.7256 -0.2164  0.2141
19391TIP3    H179664   1.332   0.858  16.969  2.8478 -0.2176  1.1049
19391TIP3    H279665   1.282   0.761  16.864 -0.2674  1.5932  0.8051
19392TIP3   OH279666   3.890   4.361  16.866 -0.3870  0.0678 -0.8523
19392TIP3    H179667   3.837   4.438  16.844 -0.1546  1.0408  1.6935
19392TIP3    H279668   3.837   4.313  16.929 -0.1459 -1.4362 -1.7617
19393TIP3   OH279669   0.345   3.308  15.556 -0.7950  0.6794 -1.1515
19393TIP3    H179670   0.322   3.390  15.599 -0.6089  0.5635 -0.8297
19393TIP3    H279671   0.284   3.243  15.591  0.0091  0.3707 -0.2892
19394TIP3   OH279672   2.331   6.380  15.414 -0.1708 -0.1461  0.4981
19394TIP3    H179673   2.288   6.450  15.462 -0.5101 -1.3041  1.9625
19394TIP3    H279674   2.301   6.391  15.324  1.0697  2.5464  0.3014
19395TIP3   OH279675   4.087   0.060  14.088  0.8162 -0.1431 -0.3168
19395TIP3    H179676   4.119   0.150  14.075  0.5541 -0.2298 -1.6754
19395TIP3    H279677   3.997   0.071  14.119  0.6807  0.0595 -0.7784
19396TIP3   OH279678   2.757   1.057  10.928 -0.4514 -0.2361 -0.0984
19396TIP3    H179679   2.733   0.996  10.997  0.2719 -0.3204  0.0852
19396TIP3    H279680   2.680   1.061  10.872 -0.1302 -2.2252 -0.7720
19397TIP3   OH279681   2.750   3.251  15.076  0.0208 -0.4407  0.4144
19397TIP3    H179682   2.844   3.235  15.084  0.1376  0.6181  1.3185
19397TIP3    H279683   2.743   3.343  15.052 -0.8011 -0.4609  0.5473
19398TIP3   OH279684   3.683   1.804   3.822  0.2945 -0.2960 -0.1701
19398TIP3    H179685   3.594   1.771   3.807  0.9479 -1.2916 -2.1933
19398TIP3    H279686   3.679   1.846   3.908 -2.1098 -0.3662 -0.1869
19399TIP3   OH279687   1.785   3.437   3.087  0.1614 -0.1692 -0.4749
19399TIP3    H179688   1.799   3.484   3.005  2.3390 -0.3979 -0.2928
19399TIP3    H279689   1.778   3.505   3.154 -2.4923  0.0596 -0.8858
19400TIP3   OH279690   5.120   5.665   2.548  0.2373  0.9489 -0.0155
19400TIP3    H179691   5.036   5.680   2.590 -0.2151 -0.4372 -0.3758
19400TIP3    H279692   5.178   5.637   2.619 -0.3287 -0.6603 -0.1429
19401TIP3   OH279693   6.024   4.464   2.351  0.4913  0.6459 -0.6401
19401TIP3    H179694   6.120   4.467   2.346  0.5201  0.2646 -0.2932
19401TIP3    H279695   5.995   4.528   2.285  0.9669  0.0092 -1.4803
19402TIP3   OH279696   4.472   5.677   6.491 -0.3098  0.2439  0.4269
19402TIP3    H179697   4.522   5.744   6.445  0.2431  0.3670  1.1858
19402TIP3    H279698   4.523   5.597   6.479 -1.4409 -0.2790 -1.2726
19403TIP3   OH279699   4.625   1.378  15.325 -0.1359  0.6334  0.0736
19403TIP3    H179700   4.696   1.363  15.263  1.3748  2.9622  1.1202
19403TIP3    H279701   4.580   1.456  15.293 -0.8260  0.4784  0.6375
19404TIP3   OH279702   6.585   6.243   4.060 -0.2762  0.7157  0.4128
19404TIP3    H179703   6.637   6.249   3.980 -2.5516  0.1652 -1.2163
19404TIP3    H279704   6.566   6.149   4.069 -3.0390  1.1085 -0.5408
19405TIP3   OH279705   0.772   2.484  11.403 -0.1278 -0.4206 -0.1734
19405TIP3    H179706   0.677   2.486  11.417 -0.0479 -0.1173  0.3394
19405TIP3    H279707   0.808   2.539  11.472  0.2623  1.2608 -1.6159
19406TIP3   OH279708   1.864   2.224   4.431 -0.3954  0.5954 -0.2920
19406TIP3    H179709   1.934   2.246   4.369 -0.1043  1.4081  0.3163
19406TIP3    H279710   1.909   2.202   4.512 -0.8194  0.4963 -0.0792
19407TIP3   OH279711   1.197   1.754   4.775 -0.0822 -0.6622 -0.2181
19407TIP3    H179712   1.147   1.780   4.853  2.1348 -0.9634  1.3977
19407TIP3    H279713   1.181   1.660   4.766 -0.4717 -0.5955 -0.2259
19408TIP3   OH279714   1.465   0.139  11.561 -0.1161  0.6387 -0.0031
19408TIP3    H179715   1.384   0.176  11.524 -1.0218 -0.9829  0.2592
19408TIP3    H279716   1.486   0.066  11.503  1.1122  0.9743  0.0039
19409TIP3   OH279717   3.207   0.854  16.124 -0.2084 -0.2521  0.0795
19409TIP3    H179718   3.218   0.830  16.216 -1.4987 -0.5819  0.1559
19409TIP3    H279719   3.143   0.792  16.089  1.3853 -1.1260 -1.4757
19410TIP3   OH279720   1.919   1.985   6.138  0.0259  0.4146  0.3474
19410TIP3    H179721   2.009   1.963   6.159  0.1298 -0.5395 -0.9573
19410TIP3    H279722   1.887   1.910   6.088 -1.0864  1.2867 -0.2964
19411TIP3   OH279723   4.651   3.006  14.649 -0.2903 -0.7952  0.4986
19411TIP3    H179724   4.621   3.065  14.580 -0.7223 -1.1650  0.3618
19411TIP3    H279725   4.738   2.978  14.622  0.0742  0.0690  0.7515
19412TIP3   OH279726   4.680   4.353  13.276 -0.0765 -0.1955  0.7597
19412TIP3    H179727   4.687   4.311  13.362  0.2521 -1.0378  0.3355
19412TIP3    H279728   4.728   4.435  13.286  1.8110 -1.2252  0.8340
19413TIP3   OH279729   1.628   1.381  15.385 -0.0987 -1.1585 -0.1486
19413TIP3    H179730   1.695   1.337  15.333 -1.9276 -1.7995 -2.1042
19413TIP3    H279731   1.634   1.340  15.472  1.0267 -2.2560 -0.7227
19414TIP3   OH279732   2.664   1.140   3.991 -0.2140 -0.5658  0.5633
19414TIP3    H179733   2.672   1.221   3.940 -1.0898 -0.2439  0.9277
19414TIP3    H279734   2.741   1.141   4.048  0.0088 -0.2035  0.2642
19415TIP3   OH279735   4.665   4.635  12.221  0.1475 -0.0342  0.0501
19415TIP3    H179736   4.760   4.650  12.224  0.1799 -0.0236 -0.8941
19415TIP3    H279737   4.639   4.660  12.133 -1.0615  1.7335  0.8625
19416TIP3   OH279738   2.336   3.274  14.067  0.1267  0.1287 -0.0228
19416TIP3    H179739   2.251   3.280  14.111  0.7448  0.0985  1.2069
19416TIP3    H279740   2.350   3.363  14.032 -0.1997  0.2539  0.1568
19417TIP3   OH279741   2.013   1.315  16.997 -0.0187 -0.3450  0.3672
19417TIP3    H179742   1.948   1.252  16.966 -0.5720  1.2970 -2.0987
19417TIP3    H279743   2.081   1.316  16.930  1.9687 -1.0424  2.2510
19418TIP3   OH279744   2.602   4.657  11.025  0.9934  0.0121 -0.6042
19418TIP3    H179745   2.586   4.648  10.931 -1.1579 -0.4657 -0.2330
19418TIP3    H279746   2.622   4.750  11.037 -0.5980  0.4744 -1.3108
19419TIP3   OH279747   3.810   4.119   1.088 -0.2301 -0.1412  0.4691
19419TIP3    H179748   3.830   4.213   1.090 -0.0234 -0.1765  0.1759
19419TIP3    H279749   3.891   4.079   1.058 -0.7535 -0.2852 -0.8153
19420TIP3   OH279750   3.145   3.923   1.761  0.1081  0.5511 -0.2498
19420TIP3    H179751   3.092   3.966   1.828  0.5760  0.8775 -0.0820
19420TIP3    H279752   3.082   3.890   1.697 -0.2321  1.9919 -0.6802
19421TIP3   OH279753   0.168   4.675   1.119  0.4445 -0.3708 -0.7494
19421TIP3    H179754   0.181   4.770   1.116  1.9975 -0.5485 -0.4739
19421TIP3    H279755   0.118   4.655   1.040 -0.9878  0.8095 -0.1895
19422TIP3   OH279756   6.678   5.146   1.863  0.0650 -0.9501 -0.2222
19422TIP3    H179757   6.705   5.173   1.775 -1.7707  0.1659 -0.4955
19422TIP3    H279758   6.629   5.065   1.849 -0.3773 -0.6799 -0.2727
19423TIP3   OH279759   5.391   5.746  14.154 -0.2831 -0.5632 -0.0150
19423TIP3    H179760   5.445   5.767  14.078 -0.2876 -0.5394 -0.0117
19423TIP3    H279761   5.393   5.651  14.159  1.1562 -0.5131  0.9895
19424TIP3   OH279762   6.132   2.883   5.422 -0.0746  0.2270 -1.2581
19424TIP3    H179763   6.165   2.973   5.411 -2.0391  1.1904  0.1039
19424TIP3    H279764   6.110   2.877   5.515  0.5520 -1.9124 -1.1981
19425TIP3   OH279765   6.564   2.459  11.689  0.2696  0.0692  0.5824
19425TIP3    H179766   6.565   2.443  11.595 -2.8567  0.5709  0.3636
19425TIP3    H279767   6.648   2.426  11.720  1.0689 -0.8037 -2.2537
19426TIP3   OH279768   0.879   3.927  11.168  0.1865  0.1882  0.2417
19426TIP3    H179769   0.813   3.959  11.107  1.4068  0.5766 -0.9203
19426TIP3    H279770   0.940   4.001  11.178  0.5422 -0.2175  1.1444
19427TIP3   OH279771   6.823   2.614   2.303 -0.1010  0.4772  0.1621
19427TIP3    H179772   6.858   2.541   2.354  0.5835  0.3026 -0.5455
19427TIP3    H279773   6.895   2.641   2.246 -1.1489 -0.0432 -1.4929
19428TIP3   OH279774   6.593   2.692   1.524  0.1743 -0.0382 -0.1149
19428TIP3    H179775   6.679   2.693   1.481  1.1661 -0.1901  1.7554
19428TIP3    H279776   6.612   2.712   1.615 -1.7843 -0.2574  0.3848
19429TIP3   OH279777   3.931   6.210  13.081 -0.2007 -0.9094  0.1129
19429TIP3    H179778   3.851   6.158  13.083  0.2482 -1.6476 -0.3116
19429TIP3    H279779   3.971   6.194  13.166 -0.8066 -0.0311  0.5717
19430TIP3   OH279780   2.041   1.976   1.445  0.6458  0.2207  0.4899
19430TIP3    H179781   2.099   2.052   1.443 -0.5728  1.1778 -1.9796
19430TIP3    H279782   2.029   1.952   1.354 -0.0163 -2.1886  1.1461
19431TIP3   OH279783   4.593   5.272  14.172 -0.5617  0.5805  0.2598
19431TIP3    H179784   4.553   5.358  14.184  1.1943  1.3741  0.6473
19431TIP3    H279785   4.623   5.272  14.080  0.7072  0.9745  0.6512
19432TIP3   OH279786   1.188   5.487  14.254  0.8780  0.5524 -0.6672
19432TIP3    H179787   1.225   5.515  14.337  1.6086  0.6771 -1.0224
19432TIP3    H279788   1.198   5.563  14.196 -0.2158  0.6937 -0.7005
19433TIP3   OH279789   1.777   0.831   2.926  0.2198 -0.2989  0.2920
19433TIP3    H179790   1.747   0.892   2.994 -0.5260 -0.5629  0.2084
19433TIP3    H279791   1.827   0.886   2.865 -1.3953  0.4746 -0.3912
19434TIP3   OH279792   0.913   5.901   0.478  0.1148  0.7721  0.3866
19434TIP3    H179793   0.921   5.806   0.469 -0.8450  0.2563  3.7700
19434TIP3    H279794   0.889   5.931   0.390  1.7522 -1.8893 -1.1270
19435TIP3   OH279795   5.924   5.994   2.539 -0.4810  0.3788 -0.8355
19435TIP3    H179796   5.907   5.901   2.526 -0.1388  0.0256  0.9731
19435TIP3    H279797   5.994   6.014   2.476  0.2689 -0.8885 -0.4523
19436TIP3   OH279798   3.585   3.229   5.865 -0.7424  0.5149 -0.2867
19436TIP3    H179799   3.650   3.294   5.891  1.1032 -1.6052  0.7828
19436TIP3    H279800   3.515   3.239   5.929 -0.9249  2.0040 -0.6813
19437TIP3   OH279801   6.296   3.972  16.173 -0.0828  0.2480  0.5848
19437TIP3    H179802   6.246   4.051  16.151 -0.2114 -0.5263 -2.2386
19437TIP3    H279803   6.232   3.901  16.166  0.9455 -0.5687 -1.4844
19438TIP3   OH279804   0.249   1.467  11.250  0.4889 -0.5601  0.0383
19438TIP3    H179805   0.271   1.466  11.157  1.5604 -0.6136  0.2769
19438TIP3    H279806   0.170   1.414  11.257 -0.3490  0.4835 -1.0033
19439TIP3   OH279807   4.073   1.647   0.977 -0.1330 -0.1848  0.1660
19439TIP3    H179808   4.100   1.578   0.917  1.2829  1.1170 -0.7715
19439TIP3    H279809   4.105   1.728   0.937 -0.9455  0.9316  1.6666
19440TIP3   OH279810   0.292   5.420   3.779  0.5921 -0.3555 -0.2629
19440TIP3    H179811   0.248   5.422   3.864  4.0323 -0.3616  1.6734
19440TIP3    H279812   0.318   5.329   3.767 -0.0022 -0.3887 -1.4679
19441TIP3   OH279813   5.326   3.833   1.112  0.3473  0.1599 -0.7695
19441TIP3    H179814   5.287   3.841   1.025  1.3771 -0.2229 -1.2850
19441TIP3    H279815   5.388   3.760   1.104  0.2675 -0.0538  0.3606
19442TIP3   OH279816   4.053   2.115   4.387  0.2750  0.1900  0.1798
19442TIP3    H179817   4.024   2.204   4.409  0.5499 -0.5568  4.2676
19442TIP3    H279818   3.976   2.061   4.402  0.5692 -0.4821 -0.6789
19443TIP3   OH279819   1.071   1.957   4.488 -0.3939 -0.2813  0.1219
19443TIP3    H179820   1.017   2.006   4.426 -1.3633  0.0918  1.2282
19443TIP3    H279821   1.080   2.016   4.563 -0.2689 -1.1930  0.8363
19444TIP3   OH279822   0.460   3.404  11.853  0.1333  0.5233 -0.5129
19444TIP3    H179823   0.374   3.367  11.874  0.3328  1.2648  1.9067
19444TIP3    H279824   0.446   3.499  11.855  1.4565  0.7797  2.6541
19445TIP3   OH279825   0.295   0.974   2.233 -0.1095  0.4995  0.6123
19445TIP3    H179826   0.247   1.049   2.267 -1.9373 -1.4334  2.6384
19445TIP3    H279827   0.238   0.899   2.251  2.1648 -1.5401 -0.1210
19446TIP3   OH279828   1.213   3.482  12.260  0.2428  0.4431 -0.3263
19446TIP3    H179829   1.239   3.407  12.312  1.2609  1.4490  0.6633
19446TIP3    H279830   1.178   3.545  12.323  2.8253  2.2644 -0.5758
19447TIP3   OH279831   1.535   5.873   3.456 -0.0024 -0.0240  0.1320
19447TIP3    H179832   1.442   5.853   3.454 -0.3365  1.4227 -1.3769
19447TIP3    H279833   1.578   5.790   3.436 -1.0923 -0.2918 -1.2968
19448TIP3   OH279834   5.913   3.384   5.295  0.2825 -0.5229 -0.3422
19448TIP3    H179835   5.872   3.314   5.346  1.1396 -0.7867  0.0042
19448TIP3    H279836   5.956   3.439   5.361 -1.0472  0.8112 -0.5298
19449TIP3   OH279837   4.448   1.063   5.266  0.1680 -0.2652 -0.0048
19449TIP3    H179838   4.449   0.970   5.244 -1.1179 -0.5774  1.0975
19449TIP3    H279839   4.418   1.066   5.357  0.4116  1.2197  0.0600
19450TIP3   OH279840   4.990   0.394   2.938  0.2266 -0.0980  0.2459
19450TIP3    H179841   4.972   0.305   2.908 -0.5780 -0.1351  0.8065
19450TIP3    H279842   4.908   0.441   2.922  0.2685  0.2489  1.0102
19451TIP3   OH279843   5.120   3.528  12.139  0.3089  0.0751 -0.3123
19451TIP3    H179844   5.152   3.442  12.166 -0.4175 -0.3613 -0.8337
19451TIP3    H279845   5.057   3.552  12.207  2.6317  1.5581  1.4999
19452TIP3   OH279846   3.931   2.744  13.119  0.3288 -0.1206  0.1733
19452TIP3    H179847   3.920   2.654  13.089 -1.1393  0.4659 -1.1807
19452TIP3    H279848   3.987   2.785  13.053 -0.2636  0.3465 -0.0433
19453TIP3   OH279849   6.067   3.256   1.764 -0.1862 -0.2624 -0.5913
19453TIP3    H179850   6.130   3.286   1.699 -1.4987 -0.1663 -1.8506
19453TIP3    H279851   6.016   3.188   1.720  0.2049 -1.6552  0.9900
19454TIP3   OH279852   5.277   1.725  15.144  0.5513 -0.0224 -0.2344
19454TIP3    H179853   5.234   1.640  15.143  1.4711 -0.5495 -2.8365
19454TIP3    H279854   5.356   1.713  15.093  2.1248  1.7630  1.6037
19455TIP3   OH279855   6.539   1.341   2.310  0.2641 -0.2891  0.0489
19455TIP3    H179856   6.534   1.424   2.357 -1.0519  0.1001 -0.7557
19455TIP3    H279857   6.533   1.365   2.217  0.2021 -1.2638 -0.2092
19456TIP3   OH279858   2.252   1.766  10.881 -0.1996  0.4067  0.1019
19456TIP3    H179859   2.295   1.733  10.960 -0.9217  0.2497  0.4370
19456TIP3    H279860   2.159   1.754  10.898 -0.3272 -0.8089 -1.2905
19457TIP3   OH279861   1.368   1.178  16.549  0.0699  0.1257 -0.2324
19457TIP3    H179862   1.383   1.272  16.554  2.3340 -0.1389 -0.6380
19457TIP3    H279863   1.294   1.162  16.607  0.8351  1.9316  1.3656
19458TIP3   OH279864   5.927   2.260   5.107  0.3158  0.3749 -0.0028
19458TIP3    H179865   5.934   2.239   5.014  0.9042 -0.0482  0.1282
19458TIP3    H279866   6.016   2.284   5.133  0.3992 -0.5977  0.6910
19459TIP3   OH279867   5.146   0.250  12.070  0.0264 -0.6604 -0.1278
19459TIP3    H179868   5.066   0.268  12.019 -0.0264 -0.3100  0.0739
19459TIP3    H279869   5.115   0.243  12.160  0.0404 -1.8157 -0.1997
19460TIP3   OH279870   4.684   3.377  11.647 -0.5329 -0.4202  0.1690
19460TIP3    H179871   4.611   3.420  11.603  0.1240  1.9305  1.2471
19460TIP3    H279872   4.761   3.400  11.595 -0.2080 -0.5993  0.5618
19461TIP3   OH279873   5.707   0.935   5.376  0.5926 -0.0620 -0.6935
19461TIP3    H179874   5.717   1.029   5.390 -1.9477  0.1756  0.0087
19461TIP3    H279875   5.740   0.895   5.456 -0.3111  0.3944 -0.0762
19462TIP3   OH279876   0.248   3.617  13.946  0.0082 -0.2202  0.1230
19462TIP3    H179877   0.251   3.523  13.930 -1.5439 -0.3250  0.2456
19462TIP3    H279878   0.162   3.644  13.913  0.5594  1.2271 -0.2274
19463TIP3   OH279879   2.762   1.690  17.090 -0.2567  0.4610  0.3891
19463TIP3    H179880   2.764   1.685  17.186 -1.3752  1.7999  0.5058
19463TIP3    H279881   2.842   1.646  17.063  0.8750  1.4091  2.0008
19464TIP3   OH279882   0.907   5.566  16.227  0.7073 -0.0476  0.0133
19464TIP3    H179883   0.884   5.475  16.247  0.7688  0.4288  2.5787
19464TIP3    H279884   0.849   5.618  16.283  0.7332  1.5040 -1.3568
19465TIP3   OH279885   0.184   3.777  10.599  0.1806 -0.4439  0.1326
19465TIP3    H179886   0.135   3.839  10.545  0.4567  0.3222  0.7478
19465TIP3    H279887   0.188   3.697  10.546 -0.4628 -0.0458 -0.5319
19466TIP3   OH279888   1.979   0.894  14.239 -0.1005  0.0873  0.0880
19466TIP3    H179889   1.909   0.946  14.278 -0.6198  0.7135 -1.5838
19466TIP3    H279890   2.058   0.945  14.257 -0.2165 -0.0343  0.9786
19467TIP3   OH279891   4.548   0.615   2.063  0.6099 -0.4570 -0.7983
19467TIP3    H179892   4.639   0.642   2.051  1.4288 -2.4916  0.4111
19467TIP3    H279893   4.540   0.597   2.157 -0.7934 -1.1464 -1.0205
19468TIP3   OH279894   3.574   0.567  17.066  0.4526  0.0173  0.8750
19468TIP3    H179895   3.667   0.589  17.066  0.5768  0.7655 -3.9717
19468TIP3    H279896   3.572   0.476  17.035 -0.4019 -0.0725  1.1841
19469TIP3   OH279897   4.148   2.490   5.224  0.2925  0.0311 -0.3626
19469TIP3    H179898   4.065   2.469   5.181 -1.0051 -0.2855  2.1403
19469TIP3    H279899   4.214   2.451   5.166 -1.5317 -3.4657 -0.3944
19470TIP3   OH279900   5.809   5.585  12.584 -0.2400 -0.2241  0.4345
19470TIP3    H179901   5.765   5.516  12.633  0.0784 -1.2352 -0.6513
19470TIP3    H279902   5.792   5.564  12.492 -0.6102  1.4642  0.0764
19471TIP3   OH279903   1.353   0.270   4.588  0.1697 -0.7780  0.3638
19471TIP3    H179904   1.327   0.285   4.679  0.3643  3.8665 -0.1410
19471TIP3    H279905   1.271   0.260   4.541  0.0373 -2.1220  0.8298
19472TIP3   OH279906   5.821   2.802  13.820  0.3784 -0.0372 -0.3181
19472TIP3    H179907   5.887   2.832  13.757  0.3955  0.2103 -0.1840
19472TIP3    H279908   5.810   2.876  13.879 -0.8159  0.3340 -0.9728
19473TIP3   OH279909   4.280   2.791  15.608 -0.0182 -0.0553 -0.5316
19473TIP3    H179910   4.200   2.794  15.660 -0.4727  1.2773 -1.2467
19473TIP3    H279911   4.301   2.883  15.591  0.6880 -0.4305 -1.8207
19474TIP3   OH279912   5.809   3.900  11.213  0.2391  0.3054  0.3112
19474TIP3    H179913   5.778   3.810  11.218  0.0855  0.2715 -0.8956
19474TIP3    H279914   5.761   3.946  11.283 -3.0419  0.3738 -1.7684
19475TIP3   OH279915   0.691   0.037   0.910  0.3908  0.4138 -0.2245
19475TIP3    H179916   0.649   0.054   0.826  0.8251  1.9873 -0.1612
19475TIP3    H279917   0.711  -0.057   0.909 -1.9735 -0.1323 -0.7515
19476TIP3   OH279918   1.369   4.824  15.600 -0.0707 -0.1035  0.0393
19476TIP3    H179919   1.341   4.794  15.514  0.0258 -1.4585  0.4461
19476TIP3    H279920   1.288   4.832  15.650 -0.0648 -0.0770  0.0447
19477TIP3   OH279921   0.459   1.202  16.188  0.3689  0.8083  0.2237
19477TIP3    H179922   0.448   1.295  16.208 -0.6084  1.0306 -1.2185
19477TIP3    H279923   0.542   1.179  16.229  0.7895  2.4037  0.3474
19478TIP3   OH279924   5.147   6.536   5.570 -0.6579  0.1660  0.0231
19478TIP3    H179925   5.103   6.569   5.648 -0.2587  0.6279  0.0553
19478TIP3    H279926   5.234   6.576   5.573 -0.7968  0.5412 -0.8996
19479TIP3   OH279927   2.865   1.762  12.574  0.0329 -0.3826 -0.3206
19479TIP3    H179928   2.922   1.815  12.631 -0.4339  0.2002 -0.3846
19479TIP3    H279929   2.814   1.708  12.634  1.0237 -1.3132 -0.2814
19480TIP3   OH279930   1.875   3.194   3.629 -0.6788  0.6258 -0.1027
19480TIP3    H179931   1.897   3.239   3.710 -0.7586  0.4085  0.0417
19480TIP3    H279932   1.802   3.136   3.653 -0.2650  0.0703 -0.1778
19481TIP3   OH279933   1.240   2.121   4.941 -0.0562 -0.0023 -0.4108
19481TIP3    H179934   1.217   2.177   5.015  1.3620  1.8916 -1.3253
19481TIP3    H279935   1.293   2.051   4.980 -2.5552 -1.3421  0.8730
19482TIP3   OH279936   5.419   4.870   1.149  0.1868 -0.5189  0.9072
19482TIP3    H179937   5.471   4.894   1.072  0.0228 -0.2566  0.8791
19482TIP3    H279938   5.359   4.803   1.118 -0.5669  0.2986  0.5653
19483TIP3   OH279939   0.177   0.353  14.281  0.3490 -0.0457  0.1873
19483TIP3    H179940   0.089   0.336  14.316 -0.0108  0.7686 -0.2873
19483TIP3    H279941   0.183   0.294  14.205 -0.4226  1.0112 -0.7300
19484TIP3   OH279942   3.055   4.777   4.187 -0.2296 -0.1094  0.1527
19484TIP3    H179943   3.099   4.739   4.111 -1.0797 -0.8783  0.0285
19484TIP3    H279944   3.125   4.797   4.248  0.4089 -0.0666 -0.5745
19485TIP3   OH279945   4.714   5.930   2.645  0.3457  1.0307  0.2525
19485TIP3    H179946   4.773   6.005   2.636  1.2681  0.1987 -1.0213
19485TIP3    H279947   4.639   5.952   2.591  0.2983  1.3236  0.4323
19486TIP3   OH279948   1.057   1.012  12.260  0.2745 -0.1879 -0.0099
19486TIP3    H179949   1.007   1.079  12.213  1.1293  0.8398  0.5054
19486TIP3    H279950   1.113   0.973  12.193  0.7780  0.5901 -0.0499
19487TIP3   OH279951   5.252   0.239  16.074  0.7872  0.4658 -0.7555
19487TIP3    H179952   5.271   0.329  16.048  2.2319  0.6827  0.8539
19487TIP3    H279953   5.333   0.191  16.057  0.0345 -0.5526 -1.5949
19488TIP3   OH279954   4.108   1.435   5.886  0.4535  0.0885 -0.1239
19488TIP3    H179955   4.030   1.413   5.836  0.0966  0.8350  0.0848
19488TIP3    H279956   4.158   1.493   5.828 -1.6029  3.8847  1.4972
19489TIP3   OH279957   2.019   5.314   0.134 -0.5584  0.1694  0.8964
19489TIP3    H179958   1.975   5.399   0.135 -0.0408  0.4442  2.1731
19489TIP3    H279959   2.093   5.327   0.074 -1.3640  0.1300 -0.1358
19490TIP3   OH279960   0.627   3.507  12.827  0.2203  0.5405 -0.3305
19490TIP3    H179961   0.698   3.567  12.804  0.7807  0.5047  1.2180
19490TIP3    H279962   0.616   3.451  12.750  1.5171  0.8846 -0.7784
19491TIP3   OH279963   2.009   6.702  11.297  0.7124 -0.4583  0.1775
19491TIP3    H179964   2.029   6.700  11.203  1.5627 -1.9136  0.3816
19491TIP3    H279965   1.913   6.698  11.300  0.7340 -3.1614 -0.6045
19492TIP3   OH279966   3.867   1.174  11.688  0.1026 -0.3957  0.4354
19492TIP3    H179967   3.931   1.129  11.633 -1.2984 -0.4591 -1.2252
19492TIP3    H279968   3.818   1.103  11.730  0.4737 -0.3547  0.9490
19493TIP3   OH279969   3.956   3.941  13.360 -0.0633 -0.6730  0.8147
19493TIP3    H179970   3.949   3.944  13.456  3.4754 -1.3763  1.2347
19493TIP3    H279971   3.893   3.874  13.334 -1.3063 -0.2780  2.5852
19494TIP3   OH279972   2.652   2.947  16.727 -0.0398  0.0946  0.3379
19494TIP3    H179973   2.717   2.906  16.671  0.0963 -1.4472  1.5583
19494TIP3    H279974   2.582   2.882  16.735 -0.5963  0.7560  1.0006
19495TIP3   OH279975   1.819   3.722   0.078  0.4576  0.0562 -0.2754
19495TIP3    H179976   1.729   3.724   0.046  0.0222 -1.1194  0.8059
19495TIP3    H279977   1.861   3.652   0.027 -0.2579 -1.8720  1.6400
19496TIP3   OH279978   1.346   2.635  13.485  0.0516  0.5000 -0.7999
19496TIP3    H179979   1.273   2.606  13.429  0.6954  0.1424 -1.4756
19496TIP3    H279980   1.414   2.663  13.423  1.2248 -0.9920 -0.2397
19497TIP3   OH279981   2.056   2.902  17.112  0.5406  0.0233 -0.0488
19497TIP3    H179982   2.142   2.920  17.073 -0.8437  2.2105 -2.5018
19497TIP3    H279983   2.008   2.856  17.043 -2.0745  4.1522 -1.3456
19498TIP3   OH279984   3.502   4.381  13.107  0.0213  0.1210  0.2607
19498TIP3    H179985   3.479   4.466  13.142  0.2063  0.8896 -1.3843
19498TIP3    H279986   3.485   4.388  13.013 -0.9393 -1.9863  0.2064
19499TIP3   OH279987   6.107   1.863  11.749  0.0938 -0.9256 -0.1180
19499TIP3    H179988   6.188   1.877  11.700  0.2168 -0.7728  0.1262
19499TIP3    H279989   6.054   1.940  11.730  1.0583  0.3039  1.8022
19500TIP3   OH279990   3.048   4.965   2.245  0.0303 -0.4652 -0.2054
19500TIP3    H179991   3.031   4.877   2.281 -1.0408 -0.3589 -0.4179
19500TIP3    H279992   3.000   4.966   2.162  1.8498 -0.4419 -1.2952
19501TIP3   OH279993   3.746   2.060  16.614 -0.2342 -0.0005 -0.0663
19501TIP3    H179994   3.740   2.102  16.700  2.3683  1.1451 -0.3120
19501TIP3    H279995   3.656   2.049  16.585 -1.1350  0.7586  2.2604
19502TIP3   OH279996   6.709   1.425  14.048 -0.3999 -0.1300  0.1937
19502TIP3    H179997   6.642   1.370  14.087 -0.7212  0.1484  0.0397
19502TIP3    H279998   6.768   1.364  14.004  0.2871 -0.5070  1.5719
19503TIP3   OH279999   0.966   1.852  12.897 -0.2693 -0.2443 -0.4219
19503TIP3    H180000   1.005   1.931  12.935  0.0410 -0.8428  0.5481
19503TIP3    H280001   0.979   1.861  12.803 -1.1944  1.3614 -0.4203
19504TIP3   OH280002   0.465   6.158  16.205 -0.0607  0.1698  0.3392
19504TIP3    H180003   0.468   6.134  16.298  0.4011  1.4636  0.6733
19504TIP3    H280004   0.373   6.151  16.182 -0.1230 -0.6104  0.7550
19505TIP3   OH280005   4.209   0.242   3.659 -0.4787  0.1134 -0.4547
19505TIP3    H180006   4.157   0.169   3.692  0.5411 -0.5349 -0.2406
19505TIP3    H280007   4.188   0.246   3.565 -1.5439  0.4180 -0.2217
19506TIP3   OH280008   5.240   4.599  16.784 -0.3294 -0.4249  0.7598
19506TIP3    H180009   5.260   4.678  16.732  1.7955 -1.2944  0.1442
19506TIP3    H280010   5.316   4.588  16.841 -0.6545 -1.9421  0.9368
19507TIP3   OH280011   5.580   0.306   6.212 -0.0054  0.2836  0.2077
19507TIP3    H180012   5.552   0.339   6.297 -0.0433 -1.7272  1.0164
19507TIP3    H280013   5.510   0.248   6.184  0.8874 -0.6114 -0.2527
19508TIP3   OH280014   2.175   6.358   0.158 -0.0410  0.2559 -0.3851
19508TIP3    H180015   2.184   6.333   0.250  0.4544  0.4128 -0.3887
19508TIP3    H280016   2.139   6.447   0.161 -1.5594 -0.3326 -0.3699
19509TIP3   OH280017   6.742   0.247   1.549 -0.6172 -0.3327  0.3003
19509TIP3    H180018   6.831   0.267   1.520 -0.7323 -0.1439  0.0755
19509TIP3    H280019   6.712   0.326   1.593 -0.0790 -0.9598  1.8628
19510TIP3   OH280020   3.627   0.115  14.612  0.0946  0.0874  0.3168
19510TIP3    H180021   3.543   0.132  14.654  1.0290 -1.6769  3.2684
19510TIP3    H280022   3.677   0.196  14.623 -1.1402  1.1662 -1.5066
19511TIP3   OH280023   6.559   2.592   1.088  0.0964  0.1238  0.3594
19511TIP3    H180024   6.633   2.552   1.042 -0.9395 -1.5997  0.1174
19511TIP3    H280025   6.511   2.640   1.021  0.7625  0.9458  0.4492
19512TIP3   OH280026   5.662   3.836  11.681 -0.1656  0.2102 -0.6497
19512TIP3    H180027   5.638   3.903  11.744 -0.9904  0.1364 -0.8732
19512TIP3    H280028   5.602   3.764  11.698 -2.1831  1.1286 -3.1084
19513TIP3   OH280029   2.309   5.394   0.392  0.0338  0.2024 -0.1741
19513TIP3    H180030   2.314   5.435   0.306  2.9943  1.3105  0.3867
19513TIP3    H280031   2.259   5.456   0.445 -0.6867  0.1468 -0.7767
19514TIP3   OH280032   5.403   3.640  14.641 -0.1766 -0.1121 -0.0561
19514TIP3    H180033   5.454   3.561  14.656 -1.6091 -1.0886 -0.1341
19514TIP3    H280034   5.410   3.656  14.547 -0.2223 -0.3866 -0.1053
19515TIP3   OH280035   6.558   1.278   1.837  0.9290 -0.5988 -0.1771
19515TIP3    H180036   6.503   1.332   1.780 -1.1046 -1.5717  0.7532
19515TIP3    H280037   6.647   1.290   1.803 -0.1461 -1.1334 -3.5365
19516TIP3   OH280038   2.211   5.780  12.305 -0.3798  0.1292 -0.1558
19516TIP3    H180039   2.206   5.840  12.380  2.3440  0.9737 -0.5460
19516TIP3    H280040   2.229   5.695  12.343 -0.7243  0.2368  0.2451
19517TIP3   OH280041   6.406   5.989   5.991 -0.0765 -0.3483  0.1446
19517TIP3    H180042   6.368   5.902   6.005 -1.8842  0.5477  1.1643
19517TIP3    H280043   6.331   6.048   5.993  1.3297  1.5063  1.9696
19518TIP3   OH280044   4.630   0.120  13.517  0.0017 -0.5134 -0.4431
19518TIP3    H180045   4.571   0.103  13.443  1.4566 -0.2814 -1.7119
19518TIP3    H280046   4.716   0.093  13.486  0.5682 -0.9806  1.4109
19519TIP3   OH280047   3.934   1.500  15.983 -0.8205 -0.1183 -0.1854
19519TIP3    H180048   3.901   1.436  15.920  2.0832 -0.8988 -1.0894
19519TIP3    H280049   3.999   1.452  16.034  0.6383  1.7837 -0.1288
19520TIP3   OH280050   0.508   0.789  15.348  0.2375  0.3748 -0.0037
19520TIP3    H180051   0.462   0.709  15.374  1.1414 -0.0714  0.2466
19520TIP3    H280052   0.519   0.780  15.253  1.7401 -0.5676  0.2315
19521TIP3   OH280053   2.081   2.356   0.303 -0.5118  0.2913 -0.4308
19521TIP3    H180054   2.143   2.419   0.265 -1.3634  1.2908 -0.2187
19521TIP3    H280055   2.108   2.349   0.394  1.0316 -1.4884 -0.9655
19522TIP3   OH280056   0.689   1.667   5.190  0.2844 -0.0375  0.0676
19522TIP3    H180057   0.780   1.647   5.211  0.3440  1.8022  1.8108
19522TIP3    H280058   0.638   1.625   5.259 -0.2287 -1.0216 -0.8760
19523TIP3   OH280059   4.070   0.118   1.529  0.0475 -0.1686 -0.5959
19523TIP3    H180060   3.985   0.087   1.499 -1.0456 -0.2145  2.2548
19523TIP3    H280061   4.051   0.199   1.577  1.8238  0.5708 -1.0268
19524TIP3   OH280062   4.051   2.931  14.123 -0.3758  0.5621 -0.2310
19524TIP3    H180063   4.009   2.893  14.200  2.6178 -0.6913  0.9368
19524TIP3    H280064   4.070   2.857  14.066 -0.9917  1.2771 -1.4066
19525TIP3   OH280065   0.846   2.630  11.633 -0.7188  0.6272  0.2054
19525TIP3    H180066   0.786   2.687  11.680 -1.1191  0.7443 -0.4373
19525TIP3    H280067   0.932   2.646  11.673 -1.2029  0.0155  1.5321
19526TIP3   OH280068   5.869   4.670   0.970  0.8708 -0.4568  0.0021
19526TIP3    H180069   5.932   4.673   0.898  0.5442 -3.2236 -0.5132
19526TIP3    H280070   5.913   4.621   1.039 -0.0936 -0.9754  0.2735
19527TIP3   OH280071   4.407   6.243   0.282 -0.0438  0.1446  0.6832
19527TIP3    H180072   4.397   6.274   0.192 -2.7544  0.6518  1.0519
19527TIP3    H280073   4.362   6.159   0.284  0.8169 -0.3189  1.3644
19528TIP3   OH280074   1.275   2.343  14.204  0.4608 -0.2297 -0.0051
19528TIP3    H180075   1.212   2.379  14.266  0.6792  0.0613  0.0504
19528TIP3    H280076   1.328   2.418  14.178 -0.1992 -0.1585 -1.2223
19529TIP3   OH280077   4.487   1.736   1.939 -0.2847 -0.3252  0.8679
19529TIP3    H180078   4.530   1.693   2.013  1.7965  0.8947  0.4522
19529TIP3    H280079   4.557   1.785   1.895 -1.3640 -1.1539 -2.0539
19530TIP3   OH280080   2.290   3.885  12.736  0.0488  1.2133  0.2344
19530TIP3    H180081   2.233   3.938  12.681 -0.1153 -0.6582 -1.5085
19530TIP3    H280082   2.235   3.812  12.765  0.6478  1.1955  1.4010
19531TIP3   OH280083   6.071   2.923   6.043 -0.0633  0.6138 -0.2343
19531TIP3    H180084   6.131   2.852   6.067 -1.6862 -0.4367  0.8444
19531TIP3    H280085   6.076   2.985   6.116 -0.6020  0.3229  0.0494
19532TIP3   OH280086   1.683   0.603  13.875  0.6294 -0.3541  0.4723
19532TIP3    H180087   1.759   0.558  13.838  0.2888 -2.1870  1.8576
19532TIP3    H280088   1.667   0.676  13.814  2.2812 -1.0608 -0.9181
19533TIP3   OH280089   4.020   1.400  15.564 -0.1270  0.1377  0.4530
19533TIP3    H180090   3.969   1.482  15.564  0.4020  0.6364  4.0493
19533TIP3    H280091   4.106   1.425  15.529 -0.5974  0.5977 -0.4041
19534TIP3   OH280092   0.685   0.728  16.868  0.3734 -0.2005  0.3136
19534TIP3    H180093   0.664   0.666  16.938  1.8696 -0.0041  0.9940
19534TIP3    H280094   0.730   0.675  16.802  1.8606  0.1388  0.9992
19535TIP3   OH280095   5.571   2.425   4.830  0.1939  0.1054 -0.3378
19535TIP3    H180096   5.577   2.372   4.910 -1.2694  0.2536 -0.1124
19535TIP3    H280097   5.650   2.479   4.832 -0.4965  1.1710  1.7938
19536TIP3   OH280098   6.521   4.776   2.263  0.1722 -0.1223 -0.1935
19536TIP3    H180099   6.475   4.696   2.291 -2.2390  0.6185 -1.7353
19536TIP3    H280100   6.554   4.756   2.176 -0.7619  0.6207 -0.7438
19537TIP3   OH280101   6.486   6.571  16.918 -0.1036 -0.2772 -0.1117
19537TIP3    H180102   6.562   6.620  16.951 -0.1235  1.3296 -2.2612
19537TIP3    H280103   6.434   6.552  16.997  1.1693  0.9573  1.0830
19538TIP3   OH280104   0.169   0.919   3.255 -0.3713 -0.6056  0.3365
19538TIP3    H180105   0.177   0.907   3.160 -0.7236 -1.0302  0.3573
19538TIP3    H280106   0.251   0.886   3.291 -0.0118  0.0503  0.1436
19539TIP3   OH280107   2.214   6.440   6.204  0.1698  0.0909  0.0169
19539TIP3    H180108   2.132   6.393   6.217  0.6842 -0.3623  1.9261
19539TIP3    H280109   2.278   6.371   6.185  0.5340  0.1979  0.8183
19540TIP3   OH280110   3.088   6.345  11.275 -0.4900  0.0007 -0.2063
19540TIP3    H180111   3.132   6.292  11.209 -0.1853  1.9330 -1.6385
19540TIP3    H280112   3.138   6.328  11.356  0.9135 -0.2703 -1.0840
19541TIP3   OH280113   6.285   0.976  10.958 -0.5219  0.1169  0.3281
19541TIP3    H180114   6.341   0.926  10.898 -0.1522  0.2223  0.5843
19541TIP3    H280115   6.206   0.994  10.907 -0.8097 -1.0295  0.3470
19542TIP3   OH280116   6.396   1.831   5.233  0.3186 -0.2129  0.7382
19542TIP3    H180117   6.388   1.742   5.267  0.2344  0.0310  1.3668
19542TIP3    H280118   6.437   1.821   5.147 -1.0325 -0.9819  0.1548
19543TIP3   OH280119   0.856   3.408  13.379 -0.0052  0.6477 -0.2234
19543TIP3    H180120   0.866   3.495  13.341  1.7927  0.8845  0.6873
19543TIP3    H280121   0.774   3.412  13.429  0.1006  1.8395 -0.1264
19544TIP3   OH280122   6.797   2.776   6.674  0.3226 -0.2028  0.6466
19544TIP3    H180123   6.740   2.700   6.666  1.1318 -1.0305  2.2427
19544TIP3    H280124   6.737   2.851   6.678 -0.5014 -0.7909 -0.4360
19545TIP3   OH280125   5.948   0.132   1.507  0.3286 -0.2436  0.8863
19545TIP3    H180126   5.893   0.085   1.569  0.2165 -0.5668  0.5457
19545TIP3    H280127   6.035   0.133   1.548 -0.0374  0.7460  1.6757
19546TIP3   OH280128   0.182   3.139  13.090  0.5120 -0.2033 -0.4646
19546TIP3    H180129   0.212   3.208  13.030  2.1883 -0.7747 -0.3280
19546TIP3    H280130   0.115   3.091  13.040  1.6008 -0.4266 -1.7566
19547TIP3   OH280131   2.290   6.037  15.515  0.1112 -0.3113  0.5598
19547TIP3    H180132   2.251   6.087  15.587  1.1619  1.7176 -0.1773
19547TIP3    H280133   2.335   5.964  15.557  0.0306  0.3860  1.8932
19548TIP3   OH280134   2.990   3.884  16.087 -0.1427  0.1807  0.4948
19548TIP3    H180135   3.070   3.869  16.136 -0.3313  0.5136  0.9079
19548TIP3    H280136   3.014   3.868  15.996  0.2874 -0.1287  0.6602
19549TIP3   OH280137   4.758   6.105  12.995  0.2562  0.8406 -0.0608
19549TIP3    H180138   4.795   6.097  13.083  0.3090 -0.3293 -0.1699
19549TIP3    H280139   4.834   6.099  12.937  0.2085  1.4878 -0.1985
19550TIP3   OH280140   0.108   5.514   1.446 -0.1603  0.6293  0.9540
19550TIP3    H180141   0.129   5.520   1.353 -0.3759 -0.9394  0.7875
19550TIP3    H280142   0.193   5.508   1.489 -0.0930 -0.6578  0.6792
19551TIP3   OH280143   5.352   0.634   6.101  0.5462 -0.6608 -0.4360
19551TIP3    H180144   5.352   0.730   6.104  1.3096 -0.6668 -0.1204
19551TIP3    H280145   5.282   0.612   6.039 -2.3988 -0.0190  2.4123
19552TIP3   OH280146   1.508   5.984   1.608 -0.2543  0.6175 -0.3244
19552TIP3    H180147   1.479   6.052   1.547 -0.0070  0.9447 -0.0831
19552TIP3    H280148   1.430   5.931   1.624  0.0626 -0.5686 -2.2964
19553TIP3   OH280149   1.076   2.794   3.361  0.4211 -0.0332  0.0624
19553TIP3    H180150   1.064   2.706   3.327  0.0033  1.2130 -3.4784
19553TIP3    H280151   1.170   2.812   3.351  0.1233  0.7659 -1.9587
19554TIP3   OH280152   1.160   6.329   3.703  0.7699  0.4441  0.2530
19554TIP3    H180153   1.239   6.293   3.744  0.3737 -0.2210  0.4519
19554TIP3    H280154   1.152   6.279   3.621 -0.0264 -0.2415  0.7371
19555TIP3   OH280155   6.353   1.258   0.422 -0.3513  0.2414  0.4367
19555TIP3    H180156   6.417   1.306   0.369  0.6376  0.1476  1.5051
19555TIP3    H280157   6.295   1.326   0.457 -1.2027  0.2777 -0.9711
19556TIP3   OH280158   5.679   2.227  12.267 -0.4409 -0.0107 -0.0661
19556TIP3    H180159   5.710   2.275  12.344 -1.1997  1.0892 -0.4259
19556TIP3    H280160   5.758   2.209  12.217 -0.1529  0.9341  0.0397
19557TIP3   OH280161   4.144   2.544  15.661 -0.1154  0.0235 -0.3361
19557TIP3    H180162   4.174   2.632  15.687 -0.4052 -0.1104  0.4713
19557TIP3    H280163   4.050   2.546  15.675 -0.1262 -0.4152 -0.3469
19558TIP3   OH280164   4.755   3.470   1.903 -0.3652 -0.2984 -0.4327
19558TIP3    H180165   4.684   3.534   1.913 -0.3136 -0.2494 -0.3811
19558TIP3    H280166   4.719   3.388   1.938 -0.1606 -0.1129  0.2293
19559TIP3   OH280167   1.371   5.789   2.518  0.2933  0.7083  0.0829
19559TIP3    H180168   1.331   5.706   2.543  0.1941  1.0391  1.0783
19559TIP3    H280169   1.465   5.775   2.533  0.6642 -0.1330 -2.4341
19560TIP3   OH280170   0.358   6.056  15.126 -0.2741 -1.0314 -0.1507
19560TIP3    H180171   0.342   6.089  15.038 -1.0583 -0.1752  0.2938
19560TIP3    H280172   0.443   6.013  15.121  1.2036  1.7138 -0.6120
19561TIP3   OH280173   0.963   6.415  16.090 -0.2044 -0.2157 -0.4088
19561TIP3    H180174   0.871   6.398  16.109 -0.2494  0.0716 -0.3629
19561TIP3    H280175   0.964   6.502  16.050  0.1177  0.0938  0.2459
19562TIP3   OH280176   3.273   3.025   0.924  0.3198  0.1216  0.1251
19562TIP3    H180177   3.355   3.065   0.895  0.5688  0.9338  1.7834
19562TIP3    H280178   3.275   3.034   1.019 -1.1568 -0.9330  0.2893
19563TIP3   OH280179   1.222   6.710   0.862 -0.1270 -0.5455 -0.8139
19563TIP3    H180180   1.311   6.732   0.837  0.3326 -2.0269 -0.6053
19563TIP3    H280181   1.230   6.626   0.907 -1.5877 -0.5447 -0.5039
19564TIP3   OH280182   4.589   1.116   5.764 -0.3669  0.3415 -0.3243
19564TIP3    H180183   4.583   1.163   5.681  0.9946  1.6590  0.2852
19564TIP3    H280184   4.532   1.040   5.753  1.1345 -0.5074 -3.1232
19565TIP3   OH280185   2.901   4.267   1.865 -0.2743 -0.0779 -0.3324
19565TIP3    H180186   2.986   4.234   1.894  0.2615  0.3030 -1.4032
19565TIP3    H280187   2.838   4.227   1.924  0.7405  0.6107  1.2843
19566TIP3   OH280188   5.635   0.486   4.498  0.4969  0.3459  0.4297
19566TIP3    H180189   5.558   0.478   4.555 -1.8112  1.9137 -2.1532
19566TIP3    H280190   5.697   0.540   4.547  0.1329 -1.2254  2.7326
19567TIP3   OH280191   3.298   2.559   3.997 -0.3858  0.2279  0.0411
19567TIP3    H180192   3.387   2.590   4.015 -0.3975  0.6485 -0.6152
19567TIP3    H280193   3.303   2.464   4.008  0.2067  0.2222 -0.2438
19568TIP3   OH280194   5.091   0.509  13.717  0.0320  0.4793 -0.3274
19568TIP3    H180195   5.019   0.537  13.775  1.0911  3.6435 -0.3421
19568TIP3    H280196   5.134   0.439  13.765 -0.4560  1.5197  1.7534
19569TIP3   OH280197   6.610   0.244   0.868 -0.1690  0.3003  0.4854
19569TIP3    H180198   6.653   0.214   0.788 -1.1729  1.1480 -0.3952
19569TIP3    H280199   6.517   0.227   0.853 -0.3779  0.5386  1.4442
19570TIP3   OH280200   0.600   3.305   0.916 -0.6944 -0.4565  0.2682
19570TIP3    H180201   0.611   3.336   1.005 -1.7440 -0.3046  0.3544
19570TIP3    H280202   0.688   3.276   0.889 -0.2412  0.1370  1.0958
19571TIP3   OH280203   1.106   2.593  13.093  0.1920 -0.2349 -0.8164
19571TIP3    H180204   1.182   2.547  13.129  0.7720 -0.1532 -1.8832
19571TIP3    H280205   1.134   2.621  13.006 -0.8569  0.3458 -0.9890
19572TIP3   OH280206   4.733   1.038  13.985  0.4128  0.2531 -0.0943
19572TIP3    H180207   4.722   1.071  13.895  1.5579  0.5176 -0.1611
19572TIP3    H280208   4.715   1.114  14.040 -0.2960  0.0898 -0.1009
19573TIP3   OH280209   2.650   2.034   5.066 -0.4907 -0.4574  0.3309
19573TIP3    H180210   2.689   2.051   4.980 -0.6151 -0.5537  0.2544
19573TIP3    H280211   2.605   1.950   5.056  0.1162 -0.8345  0.7068
19574TIP3   OH280212   2.779   5.491   1.429 -0.2465 -0.1197  0.0086
19574TIP3    H180213   2.850   5.495   1.493 -0.0712 -0.5303 -0.1548
19574TIP3    H280214   2.763   5.582   1.406 -0.5981  0.0691  0.9429
19575TIP3   OH280215   4.782   4.642   2.011  0.2119 -0.5860 -0.6588
19575TIP3    H180216   4.697   4.678   1.985  1.8912  2.8028 -2.1284
19575TIP3    H280217   4.788   4.661   2.104 -0.4958 -0.5126 -0.6201
19576TIP3   OH280218   0.257   6.445  16.389  0.4058  0.7516  0.6109
19576TIP3    H180219   0.302   6.472  16.469 -0.2688 -2.3950  2.2306
19576TIP3    H280220   0.164   6.444  16.413 -0.0282  1.6420 -0.8891
19577TIP3   OH280221   5.064   3.422   2.127  0.2438  0.1909 -0.5056
19577TIP3    H180222   5.028   3.385   2.207  0.1909  1.0712 -0.1050
19577TIP3    H280223   5.075   3.347   2.069 -0.6307 -0.3323 -0.0299
19578TIP3   OH280224   5.003   2.490  10.668  0.6776  0.1273  0.2720
19578TIP3    H180225   4.952   2.410  10.676  0.0134  0.5802  0.6551
19578TIP3    H280226   5.014   2.502  10.573  0.4987 -0.2390  0.2023
19579TIP3   OH280227   2.892   5.097   0.848  0.2481  0.1878  0.3828
19579TIP3    H180228   2.884   5.047   0.929 -1.0624 -0.5186 -0.1624
19579TIP3    H280229   2.809   5.085   0.803  0.0639  2.4573 -0.0273
19580TIP3   OH280230   1.199   6.732   5.329 -0.1033 -0.2031 -0.7010
19580TIP3    H180231   1.246   6.649   5.341 -0.0749 -0.0949 -0.0268
19580TIP3    H280232   1.130   6.711   5.266 -1.4967 -1.3194  1.1049
19581TIP3   OH280233   2.850   4.805  17.117  0.7344  0.6813 -0.2981
19581TIP3    H180234   2.859   4.757  17.034  2.5050  0.4235  0.0064
19581TIP3    H280235   2.771   4.768  17.156  0.6338 -0.1822 -1.2417
19582TIP3   OH280236   6.775   4.131   4.289  0.4586 -0.4563 -0.3212
19582TIP3    H180237   6.843   4.197   4.303 -1.4699  1.8815 -1.2986
19582TIP3    H280238   6.795   4.094   4.203 -0.2731  1.3527 -1.3373
19583TIP3   OH280239   6.409   4.378   0.578 -0.0287 -0.4489 -0.3773
19583TIP3    H180240   6.434   4.456   0.529 -0.5127 -1.0222 -1.5744
19583TIP3    H280241   6.451   4.306   0.531 -1.1422 -1.0899 -0.4136
19584TIP3   OH280242   4.801   6.249  15.138 -1.0437  0.6303 -0.1067
19584TIP3    H180243   4.786   6.232  15.231  0.7361  0.1297  0.1319
19584TIP3    H280244   4.859   6.178  15.111 -1.2208  1.0040 -1.5130
19585TIP3   OH280245   2.300   5.096   2.347  0.4603  0.1669  0.3469
19585TIP3    H180246   2.395   5.102   2.344  0.5067 -0.7546 -0.8068
19585TIP3    H280247   2.282   5.028   2.412  0.6495 -0.3735 -0.1499
19586TIP3   OH280248   3.268   4.370  17.161 -0.3017  0.2625  0.7171
19586TIP3    H180249   3.362   4.378  17.178  0.3630 -0.4033 -2.1060
19586TIP3    H280250   3.226   4.398  17.242  2.3404 -1.3597  2.8015
19587TIP3   OH280251   4.953   4.282   3.710  0.2176 -0.2018  0.0027
19587TIP3    H180252   4.861   4.258   3.717  0.5197 -1.5934 -0.4155
19587TIP3    H280253   4.972   4.328   3.791 -1.2996  1.8525 -0.7217
19588TIP3   OH280254   1.222   2.492   4.589 -0.3415  0.4859 -0.3446
19588TIP3    H180255   1.273   2.425   4.543 -0.4844  0.0871  0.0694
19588TIP3    H280256   1.225   2.568   4.531  1.6905  0.8674  0.1539
19589TIP3   OH280257   4.430   0.256   2.999  0.4392 -0.0838 -0.1234
19589TIP3    H180258   4.503   0.214   2.954 -0.6855 -2.3302 -0.0080
19589TIP3    H280259   4.375   0.291   2.929  0.6812 -0.0707 -0.3048
19590TIP3   OH280260   2.378   6.340   2.946  0.2361 -0.1677 -0.0683
19590TIP3    H180261   2.288   6.341   2.978 -0.0439 -0.5765 -0.8240
19590TIP3    H280262   2.432   6.354   3.024 -0.5345  1.8599  0.1784
19591TIP3   OH280263   5.442   5.934   1.248 -0.8054 -0.4595 -0.1651
19591TIP3    H180264   5.476   6.023   1.249 -0.4831 -0.5690 -0.7475
19591TIP3    H280265   5.435   5.912   1.155 -0.8962 -1.0338 -0.0271
19592TIP3   OH280266   2.432   1.407  13.675  0.2755  0.4201 -0.3834
19592TIP3    H180267   2.509   1.370  13.718 -0.5353 -0.6139  0.2253
19592TIP3    H280268   2.414   1.348  13.602 -0.9610 -0.4056  0.5310
19593TIP3   OH280269   2.265   3.101  13.339  0.4361 -0.2917 -0.5055
19593TIP3    H180270   2.204   3.173  13.356  0.8370  0.0527 -0.5032
19593TIP3    H280271   2.289   3.069  13.426  0.0247 -0.6289 -0.5147
19594TIP3   OH280272   6.533   5.758   2.493 -0.6219 -0.2704 -0.0816
19594TIP3    H180273   6.446   5.768   2.454 -0.4041 -0.8696 -0.7468
19594TIP3    H280274   6.518   5.706   2.572 -0.7854 -1.0140 -0.5919
19595TIP3   OH280275   4.011   0.070   3.033  0.1982 -0.3173  0.2992
19595TIP3    H180276   4.061   0.104   2.959 -0.9746  1.6221  0.3231
19595TIP3    H280277   4.076   0.063   3.104  0.5759  1.9362  0.2638
19596TIP3   OH280278   0.298   2.176  14.744 -0.0543  0.2533 -0.1615
19596TIP3    H180279   0.237   2.108  14.773  0.6844  0.0883  1.0837
19596TIP3    H280280   0.384   2.135  14.753  0.5171  1.7494  1.9038
19597TIP3   OH280281   2.818   1.025  10.610  0.3646 -0.0682 -0.4739
19597TIP3    H180282   2.733   1.070  10.614  0.8082  0.7302  0.6704
19597TIP3    H280283   2.804   0.944  10.658 -0.4820 -1.2909 -2.6737
19598TIP3   OH280284   2.212   0.553  13.992  0.4177  0.5490 -0.8729
19598TIP3    H180285   2.245   0.585  14.076 -2.0315  0.9431  0.0071
19598TIP3    H280286   2.290   0.547  13.937  1.9357  1.3857  1.0601
19599TIP3   OH280287   3.498   5.560  15.429 -0.1758  0.3438 -0.2230
19599TIP3    H180288   3.593   5.552  15.437 -0.2788 -0.6774  0.2132
19599TIP3    H280289   3.466   5.555  15.519 -0.6273  1.0165 -0.3380
19600TIP3   OH280290   5.146   0.109  14.249  0.0738  0.1975  0.7929
19600TIP3    H180291   5.074   0.046  14.257 -0.5341  0.9025  1.0007
19600TIP3    H280292   5.197   0.078  14.174 -0.5368 -0.2197  0.5386
19601TIP3   OH280293   0.469   1.298  13.721  0.1014 -0.2972  0.3127
19601TIP3    H180294   0.535   1.253  13.668 -1.4727 -1.6622 -0.6050
19601TIP3    H280295   0.470   1.388  13.689 -0.0490 -0.8381 -1.3390
19602TIP3   OH280296   2.680   3.715  15.817  0.0389  0.3428  0.0943
19602TIP3    H180297   2.664   3.777  15.888  0.5129  0.2422  0.2942
19602TIP3    H280298   2.775   3.711  15.810  0.0002  0.0439 -0.2767
19603TIP3   OH280299   4.836   1.364  12.698 -0.3496 -0.7276  0.0078
19603TIP3    H180300   4.818   1.455  12.720  0.5372 -0.3029 -0.9252
19603TIP3    H280301   4.931   1.359  12.689 -0.2097 -2.1645  1.7030
19604TIP3   OH280302   2.326   4.572  14.818  0.1599 -0.0102 -0.1493
19604TIP3    H180303   2.384   4.633  14.863  1.3277 -1.1576 -0.0363
19604TIP3    H280304   2.339   4.592  14.725 -0.2960  0.6235 -0.0866
19605TIP3   OH280305   6.105   5.881  16.898  0.2536  0.5999 -0.2279
19605TIP3    H180306   6.019   5.842  16.912  0.2429  1.0237  0.9528
19605TIP3    H280307   6.119   5.938  16.973  0.7587  2.0073 -1.3339
19606TIP3   OH280308   1.798   4.804  14.598 -0.4764  0.2132  0.2598
19606TIP3    H180309   1.734   4.827  14.666  0.5194 -0.3786  1.4290
19606TIP3    H280310   1.883   4.825  14.637  0.3859 -3.2574  0.5895
19607TIP3   OH280311   4.496   3.105   6.235 -0.0183  0.2573 -0.1465
19607TIP3    H180312   4.588   3.087   6.216  0.3242  2.5024 -0.8477
19607TIP3    H280313   4.484   3.197   6.212 -2.1451  0.3535  1.1082
19608TIP3   OH280314   4.387   4.916   6.323  0.1430 -0.2268 -0.2275
19608TIP3    H180315   4.375   4.846   6.259 -0.2851  0.0950 -0.5042
19608TIP3    H280316   4.384   4.871   6.408  1.6033 -0.7720 -0.4475
19609TIP3   OH280317   0.580   5.503  15.283  0.6024  0.3429  1.0009
19609TIP3    H180318   0.650   5.459  15.236  0.2501 -1.0779  1.7449
19609TIP3    H280319   0.516   5.526  15.215  0.1690 -1.5402  0.7078
19610TIP3   OH280320   5.328   1.263   1.749 -0.2036 -0.2248  0.1159
19610TIP3    H180321   5.236   1.248   1.771 -0.2351 -0.4754 -0.1686
19610TIP3    H280322   5.333   1.355   1.723 -0.2633 -0.0668  0.6699
19611TIP3   OH280323   2.421   0.091   4.034  0.3570  0.1305 -0.6483
19611TIP3    H180324   2.474   0.024   3.992 -0.0684 -0.0173 -0.9541
19611TIP3    H280325   2.485   0.149   4.076  0.7218 -0.5833 -0.1896
19612TIP3   OH280326   5.310   5.014  12.358 -0.0675 -0.2578  0.3762
19612TIP3    H180327   5.346   5.050  12.277  0.1326  0.8251  0.9243
19612TIP3    H280328   5.358   4.933  12.372  1.7550  0.8465  0.7580
19613TIP3   OH280329   0.589   1.666   2.361  0.1497 -0.2982  0.0791
19613TIP3    H180330   0.544   1.605   2.419 -0.7799 -0.4899 -0.8025
19613TIP3    H280331   0.569   1.753   2.398  0.2319 -0.4569  0.4972
19614TIP3   OH280332   1.517   3.184   1.641 -0.1502  0.0575  0.1625
19614TIP3    H180333   1.506   3.275   1.668 -0.0885 -0.5963  2.6091
19614TIP3    H280334   1.584   3.187   1.573  0.8630  1.6969  1.1739
19615TIP3   OH280335   1.351   5.602  12.981  0.2694 -0.3639  0.5710
19615TIP3    H180336   1.445   5.595  12.968  0.2602 -1.5049  1.0351
19615TIP3    H280337   1.313   5.570  12.899  0.2794 -1.2659  0.9107
19616TIP3   OH280338   3.194   2.155  11.076 -0.0013  0.1467 -0.0914
19616TIP3    H180339   3.203   2.125  11.167  0.7635 -0.2625 -0.2972
19616TIP3    H280340   3.280   2.140  11.037 -0.6143 -0.6651 -1.1841
19617TIP3   OH280341   3.243   6.485  16.644  0.0278 -0.4573  0.3968
19617TIP3    H180342   3.216   6.565  16.600 -2.3162 -0.7222  1.2129
19617TIP3    H280343   3.170   6.463  16.702  2.1850 -1.0992  3.1207
19618TIP3   OH280344   0.638   6.383   1.321 -0.0081  0.1480 -0.0923
19618TIP3    H180345   0.664   6.292   1.330 -0.0366  0.0534 -0.8512
19618TIP3    H280346   0.602   6.407   1.406 -0.0283 -0.5569  0.1034
19619TIP3   OH280347   4.309   6.808   2.333 -0.4479  0.3366  0.1724
19619TIP3    H180348   4.276   6.854   2.256  1.5701  1.1760 -0.2414
19619TIP3    H280349   4.354   6.731   2.298  0.2122  0.5551  0.5238
19620TIP3   OH280350   2.734   1.594  14.269 -0.4765  0.4691 -0.4251
19620TIP3    H180351   2.801   1.634  14.325 -1.0700  0.6066  0.1887
19620TIP3    H280352   2.715   1.510  14.311  0.2459 -0.1848 -1.3178
19621TIP3   OH280353   3.321   2.548   2.723 -0.5213  0.1046 -0.0802
19621TIP3    H180354   3.332   2.459   2.690 -0.3039  0.3361 -0.6359
19621TIP3    H280355   3.229   2.552   2.752  0.0553 -1.0196  2.1265
19622TIP3   OH280356   4.768   5.307  15.185 -0.2917 -0.2822  0.1142
19622TIP3    H180357   4.757   5.398  15.157 -0.1904  0.2090  1.5868
19622TIP3    H280358   4.772   5.257  15.103  1.6739  1.2399 -0.7907
19623TIP3   OH280359   1.214   4.644  10.635 -0.0179  0.0009 -0.1030
19623TIP3    H180360   1.247   4.578  10.697  0.4619  0.2791 -0.0582
19623TIP3    H280361   1.291   4.674  10.588 -0.2405  0.5045 -0.1527
19624TIP3   OH280362   5.627   3.216   4.483  0.0077  0.3016  0.3462
19624TIP3    H180363   5.660   3.228   4.394 -1.7676 -0.1145 -0.3992
19624TIP3    H280364   5.578   3.134   4.480 -1.3756  1.0547  1.2756
19625TIP3   OH280365   5.219   2.405  12.730  0.4187  0.3677  0.2715
19625TIP3    H180366   5.178   2.448  12.655  0.9561  0.1371 -0.1657
19625TIP3    H280367   5.248   2.320  12.696  0.7707  0.3062  0.7095
19626TIP3   OH280368   5.725   0.887  15.880  0.2487 -0.2064  0.0775
19626TIP3    H180369   5.664   0.842  15.939  0.4629 -1.8860 -0.9044
19626TIP3    H280370   5.763   0.957  15.933 -2.6951  1.1110  0.6694
19627TIP3   OH280371   4.246   5.930   4.300  0.5665  0.4767  0.7480
19627TIP3    H180372   4.186   5.973   4.361 -1.1737 -0.8068  0.0541
19627TIP3    H280373   4.293   6.001   4.257 -2.4493  1.8216 -0.6396
19628TIP3   OH280374   2.667   1.819  15.681  0.2143 -0.0307  0.4982
19628TIP3    H180375   2.606   1.892  15.696 -0.1620 -0.6895  2.4651
19628TIP3    H280376   2.733   1.829  15.749  0.0918 -1.5718  0.8862
19629TIP3   OH280377   0.101   0.984   1.706  0.3976 -0.1470 -0.6616
19629TIP3    H180378   0.090   0.956   1.797 -0.7746 -2.3165 -1.3796
19629TIP3    H280379   0.193   1.009   1.699  0.7102 -0.7491  0.9099
19630TIP3   OH280380   4.359   6.187   1.721 -0.1539  0.2305  0.1319
19630TIP3    H180381   4.444   6.187   1.677 -0.2747  1.6572 -0.1734
19630TIP3    H280382   4.379   6.212   1.812 -0.0862 -1.0160  0.4686
19631TIP3   OH280383   5.787   4.632   0.376  0.8315  0.3420 -0.0409
19631TIP3    H180384   5.775   4.625   0.471  0.5989  2.6955  0.1649
19631TIP3    H280385   5.842   4.557   0.353  0.9012 -0.2734  1.9417
19632TIP3   OH280386   1.329   2.521  15.985  0.3484  0.2046  0.3628
19632TIP3    H180387   1.392   2.579  15.941  0.9241  0.6585  1.7435
19632TIP3    H280388   1.376   2.488  16.062 -0.1252 -1.7577 -0.1258
19633TIP3   OH280389   2.079   3.492   4.963  0.2259  0.0382  0.0870
19633TIP3    H180390   1.991   3.489   4.927 -0.3779 -0.8595  1.5402
19633TIP3    H280391   2.072   3.446   5.047  1.8505  0.8575  0.7102
19634TIP3   OH280392   1.697   3.584  13.256  1.1334  0.3762  0.9735
19634TIP3    H180393   1.699   3.592  13.161  0.6233 -0.0738  0.9176
19634TIP3    H280394   1.756   3.652  13.287  0.6569  1.0942  0.3641
19635TIP3   OH280395   4.927   4.949   0.023  0.5107 -0.0394 -0.2206
19635TIP3    H180396   4.940   5.026  -0.032  0.9551 -0.8169 -1.2287
19635TIP3    H280397   4.835   4.926   0.011  1.0024 -1.2460 -2.0848
19636TIP3   OH280398   4.620   4.592   5.319  0.1540  0.2555 -0.4220
19636TIP3    H180399   4.631   4.559   5.229 -3.6487  1.1811 -1.4194
19636TIP3    H280400   4.651   4.521   5.374  0.3228 -1.3909 -2.4879
19637TIP3   OH280401   6.435   5.688   5.016  0.5106  0.1688 -0.4291
19637TIP3    H180402   6.453   5.676   4.923 -0.2193 -0.9680 -0.4447
19637TIP3    H280403   6.342   5.669   5.026  0.3899  1.0981  0.4164
19638TIP3   OH280404   1.919   6.260  16.567 -0.0385  0.2553 -0.0063
19638TIP3    H180405   1.838   6.212  16.549 -0.3377  0.6827  0.1817
19638TIP3    H280406   1.985   6.217  16.513  0.2970 -2.1143  2.0801
19639TIP3   OH280407   0.540   4.753  16.680  0.9554 -0.2284  0.1113
19639TIP3    H180408   0.505   4.665  16.663 -0.2146  0.3452 -0.5800
19639TIP3    H280409   0.634   4.744  16.668  0.6102 -0.7192 -3.1547
19640TIP3   OH280410   6.171   4.901  14.971 -0.0579 -0.3369 -0.2285
19640TIP3    H180411   6.257   4.896  14.928 -0.6514 -2.2254 -1.3631
19640TIP3    H280412   6.190   4.889  15.064  1.0303  0.9917 -0.2482
19641TIP3   OH280413   2.522   4.720   3.098  0.5668  0.3022 -0.0596
19641TIP3    H180414   2.434   4.739   3.130  0.1626 -1.6674  0.1489
19641TIP3    H280415   2.547   4.639   3.143  1.8220 -0.0711 -1.3385
19642TIP3   OH280416   1.483   1.866   3.535 -0.1180 -0.7936  0.0796
19642TIP3    H180417   1.458   1.940   3.479  0.4300 -0.3745  0.3677
19642TIP3    H280418   1.402   1.817   3.549 -0.3411 -0.6818 -0.7495
19643TIP3   OH280419   5.740   5.555   0.070 -0.6371 -0.1406  0.4014
19643TIP3    H180420   5.709   5.604  -0.006 -1.4707  1.4543  1.7022
19643TIP3    H280421   5.741   5.463   0.041 -0.1520  0.4870 -1.7457
19644TIP3   OH280422   4.847   6.213  13.448 -0.6555  0.1406  0.2796
19644TIP3    H180423   4.809   6.147  13.390 -2.2018  0.9191  0.3682
19644TIP3    H280424   4.818   6.189  13.536 -0.8410  0.6639  0.3689
19645TIP3   OH280425   5.140   5.645  14.436 -0.2579  0.0102 -0.1301
19645TIP3    H180426   5.218   5.700  14.427 -0.4651  0.2707 -0.3593
19645TIP3    H280427   5.155   5.570  14.379 -0.6399  0.5967 -1.0178
19646TIP3   OH280428   1.579   6.611   4.782  0.5269 -0.7209 -0.4873
19646TIP3    H180429   1.562   6.699   4.748  0.5585 -0.0964  1.0486
19646TIP3    H280430   1.577   6.621   4.877 -0.7439 -2.6176 -0.2517
19647TIP3   OH280431   4.673   0.758  13.781 -0.1312 -0.2289 -0.3448
19647TIP3    H180432   4.602   0.777  13.718 -1.1735  2.3513  1.4444
19647TIP3    H280433   4.728   0.836  13.779  1.2185 -1.1318  0.2159
19648TIP3   OH280434   6.001   1.266   2.295  0.0757  0.6798 -0.2747
19648TIP3    H180435   5.931   1.288   2.233 -0.5291  0.7081  0.4086
19648TIP3    H280436   5.993   1.172   2.308 -1.4175  1.0011  1.6385
19649TIP3   OH280437   6.541   0.636   3.800  0.3706  0.2774 -1.4607
19649TIP3    H180438   6.569   0.727   3.797  0.5404  0.3414  0.5239
19649TIP3    H280439   6.446   0.641   3.807  0.3318  0.2637 -1.9177
19650TIP3   OH280440   1.841   6.415  12.971 -0.3754 -0.1750 -0.3302
19650TIP3    H180441   1.885   6.497  12.947 -0.5185 -0.5369 -1.9646
19650TIP3    H280442   1.912   6.352  12.980 -0.2885  0.0535  0.6365
19651TIP3   OH280443   0.042   3.795  17.102  0.3787 -0.7314 -0.1754
19651TIP3    H180444   0.062   3.889  17.104 -2.2803 -0.0884 -0.1588
19651TIP3    H280445   0.078   3.765  17.019  0.6864  0.4629 -0.4952
19652TIP3   OH280446   1.894   0.133   3.242 -0.2880 -0.4512 -0.5394
19652TIP3    H180447   1.955   0.207   3.249  0.0269 -0.7452 -0.1430
19652TIP3    H280448   1.834   0.158   3.171  1.0219 -0.6861 -1.7667
19653TIP3   OH280449   1.723   1.753  14.739  0.2737 -0.1244 -0.3714
19653TIP3    H180450   1.786   1.825  14.738  1.0338 -0.7385  0.7324
19653TIP3    H280451   1.759   1.688  14.678 -1.4897  1.2308 -3.0441
19654TIP3   OH280452   5.398   4.967  15.475 -0.1117  0.1635 -0.3797
19654TIP3    H180453   5.455   4.949  15.550  0.2481  1.6011 -0.2784
19654TIP3    H280454   5.383   4.881  15.436  1.9654 -0.3110 -0.2957
19655TIP3   OH280455   1.589   3.619  15.834 -0.0576  0.0102  0.3575
19655TIP3    H180456   1.607   3.711  15.814  2.3599 -0.1371  1.4611
19655TIP3    H280457   1.510   3.621  15.887 -0.2111  1.4243  0.1160
19656TIP3   OH280458   0.799   4.753   5.096 -0.7996 -0.0906  0.0792
19656TIP3    H180459   0.777   4.710   5.179 -2.5141 -0.6931 -0.6543
19656TIP3    H280460   0.770   4.843   5.107 -0.4422 -0.0025  0.3415
19657TIP3   OH280461   3.024   6.827  17.021 -0.3456  0.1572  0.2995
19657TIP3    H180462   3.117   6.831  17.044  0.1695 -1.6900 -1.2515
19657TIP3    H280463   2.983   6.782  17.094  0.1097  0.2844  0.6378
19658TIP3   OH280464   1.260   0.315   1.508  0.6366  0.1777  0.8203
19658TIP3    H180465   1.323   0.312   1.579  1.8101  1.2454 -0.1339
19658TIP3    H280466   1.312   0.337   1.430 -0.6646 -0.5379 -0.2973
19659TIP3   OH280467   1.639   3.496   6.585 -0.0146 -0.1305 -0.8962
19659TIP3    H180468   1.723   3.499   6.631  0.1541 -0.2727 -1.1976
19659TIP3    H280469   1.588   3.431   6.633 -0.1990  0.4413 -0.2949
19660TIP3   OH280470   2.465   6.641   1.848 -0.0461  0.0586 -0.2712
19660TIP3    H180471   2.491   6.689   1.926 -1.5602  2.8458 -1.3636
19660TIP3    H280472   2.388   6.591   1.875 -1.0374  1.6142 -0.0939
19661TIP3   OH280473   3.603   1.875  14.652 -0.1574 -0.2336  0.1996
19661TIP3    H180474   3.623   1.787  14.618  0.2017  0.0141 -0.2362
19661TIP3    H280475   3.686   1.907  14.688 -0.0618  0.2956 -0.4783
19662TIP3   OH280476   4.926   3.499  16.152  0.0812 -0.3127 -0.3910
19662TIP3    H180477   4.880   3.449  16.084  2.0334 -2.8538  0.0160
19662TIP3    H280478   5.007   3.450  16.168  0.5624  1.1908  2.4926
19663TIP3   OH280479   1.420   6.698  16.589  0.0091  0.3772 -0.6421
19663TIP3    H180480   1.366   6.627  16.554  0.7606 -0.6639  0.2420
19663TIP3    H280481   1.473   6.726  16.515 -0.0942 -0.1868 -0.9410
19664TIP3   OH280482   4.773   4.278   3.451 -0.3638  0.1358  0.0332
19664TIP3    H180483   4.720   4.260   3.374  0.4656 -0.3973 -0.4305
19664TIP3    H280484   4.787   4.193   3.492 -1.5193  0.5075  1.2889
19665TIP3   OH280485   0.793   6.183  15.584  0.4999  0.0836  0.3159
19665TIP3    H180486   0.786   6.184  15.679  1.4708  0.8084  0.3986
19665TIP3    H280487   0.860   6.248  15.564 -0.9417  1.2536 -0.9804
19666TIP3   OH280488   2.598   5.355   7.124 -0.3321 -0.1516 -0.0552
19666TIP3    H180489   2.535   5.413   7.081 -0.0366 -0.1765 -0.5277
19666TIP3    H280490   2.545   5.282   7.156 -0.6106  0.0591 -0.0333
19667TIP3   OH280491   3.187   1.712  15.226 -0.2417 -0.0634  0.0672
19667TIP3    H180492   3.151   1.799  15.207 -0.5607  0.0928  1.3069
19667TIP3    H280493   3.123   1.651  15.188  0.2817  0.2166 -1.3353
19668TIP3   OH280494   4.260   0.190  12.575 -0.2974 -0.1991  0.4623
19668TIP3    H180495   4.239   0.235  12.657 -2.6904  0.8773 -0.6444
19668TIP3    H280496   4.260   0.260  12.509  1.2943 -1.0804 -0.5303
19669TIP3   OH280497   2.973   3.641  14.680  0.4356  0.4446 -0.0251
19669TIP3    H180498   2.994   3.606  14.593  0.8859 -0.4730  0.4339
19669TIP3    H280499   2.982   3.736  14.671  0.6079  0.3494 -0.9467
19670TIP3   OH280500   1.722   3.969   1.362 -0.4760  0.5667 -0.0229
19670TIP3    H180501   1.783   3.943   1.294 -0.8087  1.6600 -0.7620
19670TIP3    H280502   1.764   4.044   1.404 -0.3557  0.0150  0.8688
19671TIP3   OH280503   1.494   2.649  16.801 -0.0654 -0.3247  0.2022
19671TIP3    H180504   1.416   2.673  16.752  0.4477  2.3254  0.5645
19671TIP3    H280505   1.563   2.703  16.764  1.3217 -1.5855  0.8420
19672TIP3   OH280506   5.604   3.250  16.062 -0.5105 -0.1442  0.0111
19672TIP3    H180507   5.550   3.183  16.104 -0.2933  0.4597  1.3086
19672TIP3    H280508   5.544   3.321  16.041 -0.5232 -0.2142 -0.1894
19673TIP3   OH280509   4.886   0.862   0.984 -0.0743  0.0360  0.3760
19673TIP3    H180510   4.847   0.905   1.059 -2.0268  1.3504 -1.2683
19673TIP3    H280511   4.978   0.849   1.008 -0.3224  1.5946  2.4352
19674TIP3   OH280512   6.131   3.752  16.165 -0.3089  0.7850  0.0980
19674TIP3    H180513   6.145   3.729  16.073 -0.8817  1.0482 -0.0576
19674TIP3    H280514   6.060   3.694  16.194  1.8271 -1.4512  1.2425
19675TIP3   OH280515   5.998   0.977   2.315  0.5605 -0.0822  0.4002
19675TIP3    H180516   6.084   0.951   2.281  0.4939  0.9246 -0.5968
19675TIP3    H280517   5.936   0.948   2.248  0.2871  0.6722  0.3195
19676TIP3   OH280518   2.745   1.351   5.259 -0.5838  0.1478  0.0694
19676TIP3    H180519   2.827   1.364   5.212 -1.2826 -0.9461 -1.5158
19676TIP3    H280520   2.734   1.431   5.311  0.8950  0.7958 -0.5791
19677TIP3   OH280521   5.611   0.621   1.025  0.0934  0.0780 -0.2449
19677TIP3    H180522   5.678   0.683   1.054 -0.3286  0.2469  0.3970
19677TIP3    H280523   5.655   0.566   0.961  1.0133 -0.2022  0.6123
19678TIP3   OH280524   0.692   2.722   0.103 -0.1078  0.0054  0.2431
19678TIP3    H180525   0.720   2.767   0.183  0.1704 -0.4048  0.3818
19678TIP3    H280526   0.689   2.630   0.127 -1.3493  0.0092  0.1510
19679TIP3   OH280527   3.379   6.664   3.999 -0.1874 -0.2985  0.1120
19679TIP3    H180528   3.357   6.577   3.964  0.7357 -0.5197  0.0521
19679TIP3    H280529   3.343   6.725   3.935 -0.0248 -0.6680 -0.3412
19680TIP3   OH280530   5.095   6.035   0.105 -0.8838 -0.0498 -0.2148
19680TIP3    H180531   5.001   6.016   0.098 -1.2170  0.9448  1.1805
19680TIP3    H280532   5.113   6.096   0.034 -0.7638 -1.9173 -1.8990
19681TIP3   OH280533   1.152   1.817   0.022  0.1948  0.1815  0.6927
19681TIP3    H180534   1.208   1.825  -0.055  2.5894  0.8228  2.4095
19681TIP3    H280535   1.161   1.726   0.049  0.3362  0.2614  0.9167
19682TIP3   OH280536   0.190   5.833  16.374  0.1080 -0.7851 -0.0107
19682TIP3    H180537   0.113   5.888  16.387  1.1766  1.0111 -0.8780
19682TIP3    H280538   0.181   5.799  16.285 -0.7900 -2.4937  0.6860
19683TIP3   OH280539   5.505   3.440   6.432 -0.3216  0.1164 -0.1683
19683TIP3    H180540   5.434   3.466   6.374  0.7769 -0.2956 -1.7641
19683TIP3    H280541   5.481   3.352   6.463 -1.0191  0.4316  0.1926
19684TIP3   OH280542   0.352   1.663   5.546  0.6061  0.6805  0.1502
19684TIP3    H180543   0.436   1.642   5.506  0.4896  1.4074 -0.4888
19684TIP3    H280544   0.374   1.702   5.631  0.8719 -0.1492  0.4805
19685TIP3   OH280545   5.359   2.143  15.290 -0.2829  0.0507  0.5787
19685TIP3    H180546   5.396   2.115  15.206  0.2058 -0.3298  0.9162
19685TIP3    H280547   5.339   2.061  15.335  0.3464  0.2393  1.2237
19686TIP3   OH280548   3.754   1.515   4.153  0.1151  0.1473 -0.4206
19686TIP3    H180549   3.776   1.452   4.221 -2.0275 -0.2226  0.0120
19686TIP3    H280550   3.814   1.588   4.167  2.3632 -1.5580 -0.6546
19687TIP3   OH280551   1.697   6.019  12.577  0.1040  0.2174 -0.0953
19687TIP3    H180552   1.655   6.080  12.637  2.5412  0.6880  1.2605
19687TIP3    H280553   1.752   6.075  12.520  0.2256 -0.4820 -0.6826
19688TIP3   OH280554   3.350   5.211   5.736 -0.0911  0.3627 -0.1294
19688TIP3    H180555   3.359   5.233   5.829 -0.2012 -1.3593  0.3342
19688TIP3    H280556   3.287   5.139   5.734  0.2907  0.0217 -1.4780
19689TIP3   OH280557   5.390   3.692  15.707 -0.3783  0.0299 -0.0965
19689TIP3    H180558   5.483   3.710  15.690 -0.3313  0.5829  0.7077
19689TIP3    H280559   5.350   3.778  15.716 -0.7488 -0.2224  0.7213
19690TIP3   OH280560   1.916   5.769  15.475  0.6535  0.2473 -0.2705
19690TIP3    H180561   1.996   5.739  15.517 -0.3959  0.4129  1.9993
19690TIP3    H280562   1.863   5.804  15.546 -1.2112  0.6953 -1.7830
19691TIP3   OH280563   3.948   5.005  16.051  0.3411 -0.3222  0.8379
19691TIP3    H180564   3.897   4.932  16.086  0.8793 -0.5885  1.0740
19691TIP3    H280565   3.976   4.976  15.964 -0.4637  0.0913  0.4273
19692TIP3   OH280566   5.272   6.091   1.911 -0.2130  0.0709  0.0294
19692TIP3    H180567   5.277   6.066   2.004 -0.3118  2.4704  0.7385
19692TIP3    H280568   5.280   6.186   1.911  0.3219  0.0933 -2.5028
19693TIP3   OH280569   4.374   5.725  14.858  0.3375 -0.0809 -0.0625
19693TIP3    H180570   4.284   5.758  14.856  0.1201 -0.3660  2.0631
19693TIP3    H280571   4.428   5.803  14.870  0.4393  0.1275 -1.6827
19694TIP3   OH280572   1.139   6.183  11.453 -0.4429 -0.6146  0.0697
19694TIP3    H180573   1.077   6.135  11.398 -1.5938 -0.6324  1.3241
19694TIP3    H280574   1.140   6.135  11.536  0.8675 -0.3078  0.2495
19695TIP3   OH280575   4.567   2.860   1.539  0.3881  0.4348  0.0843
19695TIP3    H180576   4.504   2.802   1.498 -0.3149  1.0047  0.3274
19695TIP3    H280577   4.516   2.907   1.606  1.0539  0.9403  0.2499
19696TIP3   OH280578   2.431   6.434   0.954 -0.6958  0.1425 -0.4619
19696TIP3    H180579   2.479   6.467   0.878  0.6257 -2.7051 -0.9997
19696TIP3    H280580   2.497   6.428   1.023 -1.6745  1.7647  0.6937
19697TIP3   OH280581   0.669   1.197  14.766 -1.0665  0.0249 -0.4266
19697TIP3    H180582   0.683   1.267  14.829  0.3554  0.3128 -1.0184
19697TIP3    H280583   0.579   1.210  14.735 -1.1010  1.0900  0.0744
19698TIP3   OH280584   6.216   4.997  15.980 -0.2592 -0.1025  0.2144
19698TIP3    H180585   6.294   4.953  16.014  1.1857  2.0809 -0.1035
19698TIP3    H280586   6.167   4.927  15.937  1.2235 -1.6626  0.9285
19699TIP3   OH280587   4.926   2.329   6.851  0.1856  0.1464 -0.7588
19699TIP3    H180588   4.900   2.420   6.839  2.6057  0.9121 -0.6361
19699TIP3    H280589   5.012   2.323   6.810  1.0630 -1.5194  1.1594
19700TIP3   OH280590   2.708   2.372  10.271 -0.4559 -0.9222  0.2442
19700TIP3    H180591   2.634   2.375  10.210  0.2712  0.7861 -0.6359
19700TIP3    H280592   2.771   2.314  10.230  0.4483  0.9783 -1.2375
19701TIP3   OH280593   1.823   3.056   0.477  0.1976 -1.2869  0.2404
19701TIP3    H180594   1.910   3.017   0.483  1.5672  1.3228 -0.9806
19701TIP3    H280595   1.774   2.997   0.421  1.7564 -1.9205 -0.5122
19702TIP3   OH280596   5.207   4.856   4.638 -0.2869 -0.4837  0.1472
19702TIP3    H180597   5.132   4.873   4.696 -0.4525 -0.2263 -0.1393
19702TIP3    H280598   5.173   4.869   4.550 -0.0801 -1.0562 -0.0227
19703TIP3   OH280599   2.363   4.483  10.859  0.6621 -0.0969 -0.2815
19703TIP3    H180600   2.428   4.526  10.803  0.2913  2.7727  1.3171
19703TIP3    H280601   2.281   4.529  10.840 -0.4668 -2.1064 -0.5710
19704TIP3   OH280602   6.183   1.785   5.745 -0.2460 -0.5649 -0.1775
19704TIP3    H180603   6.125   1.711   5.727 -0.4944 -0.7116  1.1560
19704TIP3    H280604   6.181   1.795   5.840 -1.2862  2.0003 -0.3816
19705TIP3   OH280605   2.389   6.258  15.113 -0.0655  0.0581 -0.0590
19705TIP3    H180606   2.407   6.352  15.111 -1.9070  0.4490 -0.5087
19705TIP3    H280607   2.311   6.248  15.058 -1.2967 -1.4092  1.8523
19706TIP3   OH280608   2.472   3.259   0.275 -0.0867 -0.4688  0.6102
19706TIP3    H180609   2.529   3.244   0.351  0.5460 -1.6287 -0.0667
19706TIP3    H280610   2.396   3.305   0.311 -0.1076 -1.5665  2.0827
19707TIP3   OH280611   1.587   0.130  13.292 -0.4400  0.1292 -0.2387
19707TIP3    H180612   1.647   0.200  13.267  0.9360 -0.4765  1.1502
19707TIP3    H280613   1.569   0.146  13.385 -0.8364 -0.8182 -0.1360
19708TIP3   OH280614   2.195   2.578   2.910  0.2261  0.6103  0.2543
19708TIP3    H180615   2.278   2.572   2.958  1.6630  2.4116 -1.8008
19708TIP3    H280616   2.181   2.490   2.875  0.9193  0.1278  1.1496
19709TIP3   OH280617   0.965   5.020   4.810 -0.2984  0.0947 -0.0942
19709TIP3    H180618   1.043   5.036   4.757 -0.0833  2.0481  0.7179
19709TIP3    H280619   0.984   4.938   4.856  0.7252 -0.1178 -0.8596
19710TIP3   OH280620   0.487   0.275   0.008  0.1267 -0.2414  0.0166
19710TIP3    H180621   0.428   0.204  -0.019  0.3341 -0.9522  1.3358
19710TIP3    H280622   0.572   0.250  -0.028 -0.1064  0.1510 -0.8361
19711TIP3   OH280623   5.767   5.232   1.987 -0.0148 -0.2625  0.1325
19711TIP3    H180624   5.741   5.307   1.933 -0.2149 -0.8524 -0.6109
19711TIP3    H280625   5.793   5.165   1.923 -0.2859 -0.9822  0.7716
19712TIP3   OH280626   1.961   1.717  11.864 -0.5317 -0.1385 -0.3023
19712TIP3    H180627   2.014   1.640  11.882  0.8615  0.5721 -1.2109
19712TIP3    H280628   1.949   1.716  11.769  0.3145  1.2464 -0.4501
19713TIP3   OH280629   1.358   2.050   3.386  0.0770  0.4413  0.1012
19713TIP3    H180630   1.267   2.078   3.380  0.2031  0.7129 -0.6284
19713TIP3    H280631   1.409   2.128   3.364  0.4220 -0.6785 -3.7828
19714TIP3   OH280632   1.918   3.808   0.926  0.0444  0.2436 -0.1958
19714TIP3    H180633   1.843   3.751   0.911  0.1643 -0.1724  0.6982
19714TIP3    H280634   1.984   3.751   0.965  0.2591  0.9377  0.4763
19715TIP3   OH280635   1.687   6.212  12.776  0.2652  0.3582  0.1313
19715TIP3    H180636   1.741   6.259  12.839  0.2627  0.5998 -0.0475
19715TIP3    H280637   1.656   6.279  12.715 -0.7816  0.3355  0.6151
19716TIP3   OH280638   5.298   4.562   2.619 -0.1269 -0.4913 -0.4052
19716TIP3    H180639   5.285   4.467   2.611  1.3291 -0.9521  1.6922
19716TIP3    H280640   5.222   4.593   2.668 -1.4893 -0.2057 -2.5666
19717TIP3   OH280641   6.550   1.162   4.303 -0.5362 -0.5678  0.0701
19717TIP3    H180642   6.592   1.208   4.375 -0.1259 -0.8543  0.0177
19717TIP3    H280643   6.500   1.229   4.257 -0.1234 -0.2214  0.1237
19718TIP3   OH280644   0.614   6.640  14.092 -0.6758 -0.1015  0.0169
19718TIP3    H180645   0.646   6.721  14.052 -1.3781  1.6807  2.8458
19718TIP3    H280646   0.685   6.612  14.150 -0.3442 -1.7216 -1.1025
19719TIP3   OH280647   2.319   3.252   1.429 -0.6704  0.2953 -0.3446
19719TIP3    H180648   2.262   3.176   1.440  1.0009 -1.1416 -1.2163
19719TIP3    H280649   2.375   3.251   1.507 -1.6377  1.5733  0.4023
19720TIP3   OH280650   1.230   6.484   1.616 -0.3575 -0.0631  0.1062
19720TIP3    H180651   1.282   6.518   1.544  1.2987 -0.9423  0.8209
19720TIP3    H280652   1.232   6.554   1.682 -1.0205  0.3378 -0.2909
19721TIP3   OH280653   5.122   1.543  17.180 -0.1442 -0.3476  0.0608
19721TIP3    H180654   5.192   1.480  17.199  0.9129  0.8069  0.1648
19721TIP3    H280655   5.158   1.597  17.110 -1.5775 -0.6911 -0.9742
19722TIP3   OH280656   2.296   5.167   0.728  0.9218 -0.2541  0.6167
19722TIP3    H180657   2.200   5.163   0.727  0.8924 -1.5561 -2.8861
19722TIP3    H280658   2.322   5.099   0.791 -0.4564 -1.3832  0.0186
19723TIP3   OH280659   4.864   6.294  14.413 -0.4829 -0.0807  0.0000
19723TIP3    H180660   4.833   6.333  14.331 -0.4852  0.5634  0.2965
19723TIP3    H280661   4.939   6.349  14.438 -0.5126 -0.2421  0.4494
19724TIP3   OH280662   6.384   6.753  15.185  0.0907  0.2560  0.6048
19724TIP3    H180663   6.479   6.761  15.199  0.0208  1.5132  0.4782
19724TIP3    H280664   6.376   6.706  15.102  0.6521  1.5973 -0.2456
19725TIP3   OH280665   2.438   3.633  11.210 -0.1325  0.5855  0.1034
19725TIP3    H180666   2.470   3.639  11.120  0.7635 -2.7674  0.0998
19725TIP3    H280667   2.351   3.594  11.202 -0.2675  0.7566  0.6829
19726TIP3   OH280668   2.530   0.075  15.692 -0.3286 -0.1036  0.1061
19726TIP3    H180669   2.537  -0.020  15.686 -2.0386 -0.2859  0.4950
19726TIP3    H280670   2.570   0.097  15.776  0.4624 -0.4115 -0.1781
19727TIP3   OH280671   0.056   3.724  14.874 -0.3879 -0.1416  0.1250
19727TIP3    H180672   0.062   3.810  14.916 -0.5658  0.5587 -1.2470
19727TIP3    H280673  -0.033   3.693  14.893 -0.6190  0.3699 -0.1381
19728TIP3   OH280674   0.987   4.886  12.447  0.0293 -0.0956  0.1664
19728TIP3    H180675   1.002   4.816  12.383 -0.2867 -0.2695  0.2768
19728TIP3    H280676   1.073   4.905  12.483  0.0835 -0.5972  0.3095
19729TIP3   OH280677   2.350   2.918   0.253  0.5561  0.0106  0.0066
19729TIP3    H180678   2.338   3.008   0.221  0.6540 -0.7426 -2.2926
19729TIP3    H280679   2.364   2.928   0.347  0.6145  2.4020 -0.2000
19730TIP3   OH280680   5.103   0.297  11.309 -0.2078 -0.0693 -0.3649
19730TIP3    H180681   5.134   0.266  11.223 -0.9361 -2.2433  0.0758
19730TIP3    H280682   5.069   0.218  11.351 -0.8598  1.1536  1.5123
19731TIP3   OH280683   1.511   5.734   4.055 -0.2456 -0.5872  0.2038
19731TIP3    H180684   1.518   5.824   4.024  0.9166 -0.1987  1.4864
19731TIP3    H280685   1.511   5.681   3.976 -0.5449  0.5014 -0.5567
19732TIP3   OH280686   6.806   4.637  15.051  0.1692 -0.8013  0.0487
19732TIP3    H180687   6.779   4.545  15.048 -0.2680 -0.7691  1.8122
19732TIP3    H280688   6.741   4.683  14.997 -1.2103 -1.2006  1.3129
19733TIP3   OH280689   2.603   0.672  13.121  0.1747  0.4839 -0.0439
19733TIP3    H180690   2.622   0.622  13.042 -2.3265 -1.1452  0.2582
19733TIP3    H280691   2.680   0.660  13.176  0.6768 -1.0244 -0.9962
19734TIP3   OH280692   0.120   5.048  12.856  0.0245 -0.0469 -0.1498
19734TIP3    H180693   0.099   5.027  12.765 -0.8407 -1.3066  0.3107
19734TIP3    H280694   0.210   5.018  12.867  0.0699 -0.0649 -0.5458
19735TIP3   OH280695   2.399   3.870   0.396  0.2928  0.1813 -0.4893
19735TIP3    H180696   2.449   3.849   0.474  0.3383 -0.9158 -0.8010
19735TIP3    H280697   2.401   3.790   0.343 -3.7435 -0.7710  0.4842
19736TIP3   OH280698   6.402   5.436   0.620 -0.5931 -0.1902  0.0340
19736TIP3    H180699   6.413   5.341   0.613  2.0606  0.1112 -0.7968
19736TIP3    H280700   6.455   5.471   0.549  0.9648  2.0239  2.1689
19737TIP3   OH280701   1.680   4.723   1.588 -0.5571 -0.4903 -0.1531
19737TIP3    H180702   1.760   4.718   1.535 -0.6316 -2.7083 -0.1753
19737TIP3    H280703   1.617   4.668   1.541 -1.7764  0.4019  0.4042
19738TIP3   OH280704   6.761   0.155  17.009  0.3268 -0.4821  0.3293
19738TIP3    H180705   6.692   0.174  17.073 -0.5938  3.0894 -1.4356
19738TIP3    H280706   6.821   0.229  17.017  2.0127 -1.6774 -0.6778
19739TIP3   OH280707   4.683   2.398   0.606  0.5474 -0.2189 -0.7149
19739TIP3    H180708   4.624   2.468   0.580 -0.5753 -1.5386 -1.9228
19739TIP3    H280709   4.642   2.360   0.684  0.9568  0.2216 -0.2817
19740TIP3   OH280710   3.982   5.583  12.014 -1.0041  0.2307  0.1744
19740TIP3    H180711   4.012   5.492  12.010 -0.3621  0.4662 -0.7298
19740TIP3    H280712   3.915   5.589  11.945 -1.0208  0.4492  0.2094
19741TIP3   OH280713   0.530   1.837  13.361 -0.0174  0.0488 -0.3581
19741TIP3    H180714   0.613   1.829  13.407  0.0777 -1.2824 -0.7079
19741TIP3    H280715   0.554   1.858  13.271 -0.0694  0.0878 -0.3628
19742TIP3   OH280716   0.452   6.482   5.639 -0.4941 -0.3191  0.3177
19742TIP3    H180717   0.525   6.494   5.699  1.6913 -1.1358 -2.0009
19742TIP3    H280718   0.440   6.568   5.598 -0.3534 -0.3580  0.1942
19743TIP3   OH280719   5.396   6.547   0.288  0.3909  0.4622 -0.2293
19743TIP3    H180720   5.456   6.494   0.342  0.6319  0.8135 -0.1449
19743TIP3    H280721   5.309   6.524   0.320  0.5738  1.7014  1.3215
19744TIP3   OH280722   5.484   2.854  14.950 -0.2143 -0.2742  0.0111
19744TIP3    H180723   5.537   2.800  14.891 -1.1869 -1.8689  0.5647
19744TIP3    H280724   5.426   2.903  14.891  0.8321  0.3851 -0.5063
19745TIP3   OH280725   0.181   6.254  11.961 -0.6051  0.2392  0.1159
19745TIP3    H180726   0.236   6.294  11.894  1.1381 -0.2216  1.1852
19745TIP3    H280727   0.142   6.327  12.008  0.5091  0.6482  0.4326
19746TIP3   OH280728   4.915   0.169  12.211  1.1241 -0.0868  0.8379
19746TIP3    H180729   4.949   0.208  12.291  2.0712  1.6749 -0.3490
19746TIP3    H280730   4.831   0.212  12.197  0.5787 -0.9782  1.2736
19747TIP3   OH280731   2.150   2.329  16.029  0.0840  0.3081 -0.6177
19747TIP3    H180732   2.189   2.246  16.000  0.9339  1.0562 -1.7376
19747TIP3    H280733   2.135   2.377  15.948  0.2976  1.5402  0.0508
19748TIP3   OH280734   4.584   2.069   2.495 -0.2423 -0.1906 -0.3259
19748TIP3    H180735   4.678   2.084   2.506  0.2113  0.2554 -3.5771
19748TIP3    H280736   4.554   2.143   2.443 -1.9075 -1.3904 -1.1765
19749TIP3   OH280737   2.137   6.211  14.942  0.8435 -0.1836  0.0659
19749TIP3    H180738   2.111   6.224  14.850 -0.9650 -0.8628  0.4383
19749TIP3    H280739   2.054   6.212  14.990  1.7314 -0.3288  1.6474
19750TIP3   OH280740   2.346   0.493   4.212  0.1580 -0.1189  0.1186
19750TIP3    H180741   2.302   0.410   4.199 -0.5443  0.2146  0.3104
19750TIP3    H280742   2.282   0.559   4.185  0.4199  0.3857  0.6982
19751TIP3   OH280743   6.742   4.340   5.143 -0.5527 -0.9623  0.1777
19751TIP3    H180744   6.666   4.309   5.192 -0.2117 -1.7442  0.2167
19751TIP3    H280745   6.787   4.261   5.114 -0.6093 -0.5175 -1.1967
19752TIP3   OH280746   6.594   5.558  15.614 -0.0384 -0.2286 -0.1168
19752TIP3    H180747   6.649   5.481  15.597 -0.7598 -1.1939  1.6512
19752TIP3    H280748   6.554   5.541  15.700 -2.2120  0.9460 -0.8168
19753TIP3   OH280749   5.700   0.292   0.534 -0.0233  0.8479 -0.1765
19753TIP3    H180750   5.702   0.198   0.553 -0.7878  0.9555  0.4611
19753TIP3    H280751   5.792   0.317   0.529  0.1908  0.1869  0.2751
19754TIP3   OH280752   3.618   4.283  12.526 -0.0533 -0.1382  0.3186
19754TIP3    H180753   3.655   4.260  12.611  1.7523  1.2059 -0.0552
19754TIP3    H280754   3.523   4.280  12.539  0.1769  0.9934  2.6407
19755TIP3   OH280755   0.425   4.479   4.246  0.3016  0.2400  0.2634
19755TIP3    H180756   0.488   4.503   4.314  1.8431 -0.3037 -0.9107
19755TIP3    H280757   0.430   4.550   4.182 -1.0237  0.6735  0.5999
19756TIP3   OH280758   2.747   3.050  11.493  0.1021  0.5191  0.1408
19756TIP3    H180759   2.654   3.072  11.490 -0.3215 -0.7095  2.1004
19756TIP3    H280760   2.785   3.114  11.554 -0.1377 -0.9264  1.8723
19757TIP3   OH280761   6.710   5.373   1.279  0.3521 -0.8336  0.1403
19757TIP3    H180762   6.616   5.390   1.279  0.4190 -0.4583  0.1542
19757TIP3    H280763   6.717   5.278   1.265 -0.0501 -0.9959  0.9504
19758TIP3   OH280764   6.506   4.477   4.951  0.0808 -0.4664 -0.3025
19758TIP3    H180765   6.602   4.482   4.949  0.0671 -0.3271 -1.5129
19758TIP3    H280766   6.487   4.384   4.953  0.2302 -0.4946  1.9543
19759TIP3   OH280767   4.850   3.522  16.674 -0.1738 -0.5431  0.0207
19759TIP3    H180768   4.771   3.570  16.645  0.7534  1.5021  0.6573
19759TIP3    H280769   4.879   3.475  16.596 -0.8827  0.3543 -0.8225
19760TIP3   OH280770   1.334   5.367  14.945 -0.4328 -0.4876  0.2121
19760TIP3    H180771   1.399   5.418  14.896 -0.7625 -0.6558 -0.4073
19760TIP3    H280772   1.385   5.302  14.993  0.2041  1.4756  2.4196
19761TIP3   OH280773   5.983   1.952   2.022 -0.1567 -0.0028 -0.5991
19761TIP3    H180774   5.908   1.969   1.964 -0.8756  0.0449  0.3277
19761TIP3    H280775   5.992   2.032   2.073 -0.6259 -0.6631  0.5499
19762TIP3   OH280776   0.234   3.745  12.077 -0.1630  0.4168  0.0039
19762TIP3    H180777   0.161   3.705  12.030  1.2030 -1.1080 -0.9253
19762TIP3    H280778   0.240   3.697  12.159  0.6699 -0.4491 -0.5483
19763TIP3   OH280779   3.305   3.699  13.969 -0.2292  0.1521  0.0083
19763TIP3    H180780   3.340   3.636  13.905 -2.3558  0.5931 -1.6836
19763TIP3    H280781   3.267   3.769  13.916 -0.8019  1.2741  1.8120
19764TIP3   OH280782   1.981   2.706   1.904  0.8282 -0.4173  0.2687
19764TIP3    H180783   1.997   2.775   1.967 -0.8062 -1.0967  1.5004
19764TIP3    H280784   2.002   2.625   1.950  1.9636 -0.8153 -0.8864
19765TIP3   OH280785   3.981   5.951   6.656  0.0825 -0.3675  0.4336
19765TIP3    H180786   4.061   5.974   6.703 -0.5841  0.9814  0.9726
19765TIP3    H280787   3.918   5.928   6.724 -0.7524  1.1430  0.2126
19766TIP3   OH280788   1.218   6.305  15.858 -0.7468 -0.2312  0.0927
19766TIP3    H180789   1.153   6.368  15.827 -0.9858  0.2794  1.5293
19766TIP3    H280790   1.282   6.359  15.905 -0.3138 -0.9326  0.3135
19767TIP3   OH280791   2.285   5.323   2.971  0.3772 -0.1983  0.3094
19767TIP3    H180792   2.338   5.353   3.044 -0.1858 -0.7266  0.9474
19767TIP3    H280793   2.278   5.229   2.983  0.3478 -0.3025 -0.4763
19768TIP3   OH280794   1.232   6.389   4.524  0.3136  0.1807 -0.3212
19768TIP3    H180795   1.250   6.394   4.618  0.3696  0.8404 -0.3663
19768TIP3    H280796   1.179   6.309   4.514  3.2082 -1.9024 -0.1926
19769TIP3   OH280797   3.537   0.897  14.298 -0.0414 -0.5351 -0.3493
19769TIP3    H180798   3.443   0.901  14.280 -0.6160 -1.0899  2.1388
19769TIP3    H280799   3.555   0.977  14.348  0.4536 -1.1959  0.5505
19770TIP3   OH280800   0.607   2.684  15.330 -0.3819  0.5006  0.1609
19770TIP3    H180801   0.533   2.715  15.277 -0.8703 -0.1220  0.4663
19770TIP3    H280802   0.571   2.611  15.380 -0.3152  1.9056  2.3706
19771TIP3   OH280803   1.159   1.669  14.938  0.7056 -0.0878 -0.4152
19771TIP3    H180804   1.204   1.751  14.918 -0.0764  0.2792 -0.7197
19771TIP3    H280805   1.157   1.666  15.034  1.5449 -0.2098 -0.3945
19772TIP3   OH280806   4.326   1.794  17.024 -0.5580  0.7520 -0.0585
19772TIP3    H180807   4.418   1.769  17.030 -0.3248  1.4605 -0.4523
19772TIP3    H280808   4.317   1.867  17.085  0.2199  3.5330 -2.9469
19773TIP3   OH280809   4.653   2.867  12.845 -0.2639 -0.4273  0.0033
19773TIP3    H180810   4.690   2.949  12.812  1.1421 -0.8732  0.4309
19773TIP3    H280811   4.674   2.802  12.778  0.1542 -0.7755  0.4624
19774TIP3   OH280812   3.732   3.096   0.247 -0.1026 -0.7199  0.1879
19774TIP3    H180813   3.725   3.064   0.337 -0.9952  0.5361  0.6060
19774TIP3    H280814   3.722   3.191   0.256  1.3998 -0.4193 -1.0865
19775TIP3   OH280815   2.586   2.126   1.943 -0.3204 -0.2833  0.0843
19775TIP3    H180816   2.541   2.114   2.026 -0.2569  1.3097  0.3861
19775TIP3    H280817   2.625   2.041   1.924 -0.1688 -0.6301  1.7746
19776TIP3   OH280818   0.947   1.507   5.282 -0.2399  1.4393  0.5793
19776TIP3    H180819   0.933   1.465   5.366 -0.6064  0.7218  0.1664
19776TIP3    H280820   0.994   1.442   5.230  0.9825  2.2802  0.5788
19777TIP3   OH280821   4.385   0.881   0.952 -0.4580 -0.1724 -0.6583
19777TIP3    H180822   4.304   0.829   0.947 -1.3213  1.1538 -1.0831
19777TIP3    H280823   4.426   0.870   0.867  0.3618 -1.6452 -0.1148
19778TIP3   OH280824   6.549   2.999   5.885 -0.8056 -0.0771  0.2597
19778TIP3    H180825   6.571   2.909   5.861 -2.0636 -1.1844  2.9670
19778TIP3    H280826   6.627   3.032   5.930 -0.5181  0.0488 -0.3194
19779TIP3   OH280827   4.865   0.044  12.544  0.1126 -0.2207  0.5972
19779TIP3    H180828   4.934   0.104  12.517  0.5026 -0.7411  0.4145
19779TIP3    H280829   4.807   0.038  12.468  0.1750 -0.2188  0.5498
19780TIP3   OH280830   2.109   5.957  14.481  1.0530  0.3790  0.0941
19780TIP3    H180831   2.168   6.026  14.451 -2.6494  2.9667 -2.2442
19780TIP3    H280832   2.063   5.929  14.402 -1.7379 -0.3619  1.8133
19781TIP3   OH280833   5.954   6.058  11.190  0.1933  0.3054 -0.2500
19781TIP3    H180834   5.947   6.090  11.100 -0.4984  0.0049 -0.3127
19781TIP3    H280835   5.868   6.078  11.228  0.3717  0.1332  0.2415
19782TIP3   OH280836   2.648   4.351  16.721  0.1721 -0.0902  0.3292
19782TIP3    H180837   2.717   4.385  16.665 -0.3695  0.5837  0.0566
19782TIP3    H280838   2.623   4.268  16.682  0.1970  0.1019 -0.0944
19783TIP3   OH280839   3.141   4.363   0.817 -0.7487 -0.2447  0.0295
19783TIP3    H180840   3.207   4.295   0.829 -0.2540 -0.0209 -1.3068
19783TIP3    H280841   3.135   4.405   0.903 -1.4260 -2.2672  1.0156
19784TIP3   OH280842   2.761   1.301   3.580 -0.1645  0.4387 -0.2131
19784TIP3    H180843   2.758   1.208   3.558 -1.7134  0.0334  1.4352
19784TIP3    H280844   2.694   1.341   3.524  0.8023  0.6519 -1.2313
19785TIP3   OH280845   1.332   4.420  11.378  0.2652 -0.0881  0.1177
19785TIP3    H180846   1.398   4.373  11.327  1.3431  1.9407 -0.4825
19785TIP3    H280847   1.308   4.360  11.448  1.7265 -1.4224 -0.4718
19786TIP3   OH280848   3.972   5.113   4.252  0.7970  0.2103  0.6653
19786TIP3    H180849   3.908   5.172   4.212 -0.2750 -0.7532  0.9196
19786TIP3    H280850   3.968   5.134   4.345  0.3258 -0.3356  0.7716
19787TIP3   OH280851   3.429   0.531  16.674  0.1067  0.2961 -0.2410
19787TIP3    H180852   3.339   0.507  16.652  0.7954  0.1423 -3.4114
19787TIP3    H280853   3.479   0.450  16.660  0.9949  0.8980 -0.6315
19788TIP3   OH280854   6.134   1.767   2.755 -0.7982 -0.0386 -0.0029
19788TIP3    H180855   6.057   1.734   2.709  0.6773 -2.3711 -1.0091
19788TIP3    H280856   6.168   1.692   2.802  1.1155  0.7730  0.0277
19789TIP3   OH280857   5.324   3.532  10.876  0.2491  0.2693 -0.5352
19789TIP3    H180858   5.249   3.482  10.844  1.0133  0.4074 -2.6996
19789TIP3    H280859   5.298   3.624  10.865  0.1619  0.3316  0.1645
19790TIP3   OH280860   5.171   3.881   0.635 -0.3363 -0.0291 -0.3197
19790TIP3    H180861   5.146   3.960   0.683  1.2549  0.3244 -0.0321
19790TIP3    H280862   5.160   3.810   0.699  0.2807  0.2383  0.0895
19791TIP3   OH280863   5.886   2.380  15.193  0.2271 -0.0786 -0.0625
19791TIP3    H180864   5.791   2.377  15.202 -0.1472  1.6213 -2.4886
19791TIP3    H280865   5.914   2.448  15.254 -0.0244 -0.9062  0.9998
19792TIP3   OH280866   0.439   2.878   5.131 -0.2109  0.8384  0.4984
19792TIP3    H180867   0.534   2.878   5.123 -0.2218 -0.8226 -0.1797
19792TIP3    H280868   0.423   2.876   5.225  0.5128 -1.0835  0.6254
19793TIP3   OH280869   3.008   4.965   0.550  0.0404  0.4937 -0.1742
19793TIP3    H180870   3.075   4.986   0.615 -0.4667 -0.0994  0.5678
19793TIP3    H280871   2.982   5.050   0.513  0.4621  0.8250  0.2785
19794TIP3   OH280872   5.867   6.583   4.445 -0.6260 -0.8869  0.3660
19794TIP3    H180873   5.776   6.556   4.445 -1.3719  1.4150  1.5210
19794TIP3    H280874   5.887   6.602   4.536  0.3608  0.5946 -0.1222
19795TIP3   OH280875   5.533   2.911  14.621 -0.2780  0.0293 -0.2298
19795TIP3    H180876   5.559   2.848  14.553 -0.1948 -1.2468  0.9410
19795TIP3    H280877   5.596   2.898  14.691  0.5339  2.3618 -0.4348
19796TIP3   OH280878   6.495   4.385  15.005 -0.2201 -0.1786  0.0664
19796TIP3    H180879   6.436   4.395  14.930  0.4696  2.4523 -0.1997
19796TIP3    H280880   6.444   4.416  15.080 -0.3324 -1.2395  0.4501
19797TIP3   OH280881   1.520   1.910  15.118 -0.7248  0.5543 -0.1058
19797TIP3    H180882   1.573   1.843  15.162 -3.3253 -1.7750 -0.2668
19797TIP3    H280883   1.477   1.957  15.190  1.0972  2.1710  0.0065
19798TIP3   OH280884   5.689   0.594  12.076  0.1458 -0.0317 -0.3639
19798TIP3    H180885   5.670   0.501  12.063 -0.0789 -0.2774  1.4429
19798TIP3    H280886   5.606   0.638  12.056 -0.1390 -0.3531  0.1036
19799TIP3   OH280887   5.168   6.067   3.677 -0.0690 -0.1914  0.0633
19799TIP3    H180888   5.097   6.067   3.741 -0.0482 -1.8366  0.1346
19799TIP3    H280889   5.212   6.151   3.689 -0.7095 -0.0361  1.4710
19800TIP3   OH280890   1.583   5.929  14.659  0.5207  0.2387  0.3693
19800TIP3    H180891   1.527   5.899  14.730 -0.1824  1.5230  0.3866
19800TIP3    H280892   1.522   5.962  14.593  1.2039  0.1407 -0.3263
19801TIP3   OH280893   2.832   2.207  10.866  0.2696 -0.4209  0.1752
19801TIP3    H180894   2.784   2.284  10.835  0.4527 -0.5861 -0.5234
19801TIP3    H280895   2.779   2.174  10.939  1.0256  1.3025  1.5723
19802TIP3   OH280896   0.586   5.384  14.930  0.6563 -0.1516  0.3104
19802TIP3    H180897   0.627   5.424  14.853  1.9893 -2.3243 -0.2088
19802TIP3    H280898   0.504   5.347  14.897  0.8723 -0.4347  0.0806
19803TIP3   OH280899   2.638   0.036  14.359  0.1193 -0.1240  0.1868
19803TIP3    H180900   2.630   0.109  14.420 -0.3633 -0.5562  0.6467
19803TIP3    H280901   2.569  -0.025  14.385 -0.2755 -0.1858 -0.9687
19804TIP3   OH280902   2.394   1.630   0.102 -0.1072  0.4962 -1.3877
19804TIP3    H180903   2.420   1.562   0.164  0.2196 -0.4204 -2.4897
19804TIP3    H280904   2.315   1.668   0.141 -0.3588 -0.5856 -0.7900
19805TIP3   OH280905   5.041   1.651  11.667  0.2506 -0.3281  0.0207
19805TIP3    H180906   4.966   1.704  11.694  0.0813  0.2350 -1.4228
19805TIP3    H280907   5.078   1.699  11.592 -0.5332 -2.7417 -2.0488
19806TIP3   OH280908   0.535   1.587  10.520 -0.5186  0.6079  0.3449
19806TIP3    H180909   0.491   1.666  10.489 -0.4608  0.1186 -1.0672
19806TIP3    H280910   0.588   1.617  10.593 -2.5825  1.3612  1.6357
19807TIP3   OH280911   3.518   0.419   4.084  0.2144 -0.1099 -0.3268
19807TIP3    H180912   3.456   0.465   4.027  0.3143  0.7417  0.2304
19807TIP3    H280913   3.597   0.410   4.032 -0.2892 -0.9983 -0.9654
19808TIP3   OH280914   0.601   2.514   1.253  0.2361  0.1593 -0.3800
19808TIP3    H180915   0.655   2.467   1.316  0.0096 -0.4449 -0.6281
19808TIP3    H280916   0.663   2.557   1.195  0.4536  0.9797  0.4293
19809TIP3   OH280917   1.930   5.582   6.086 -0.0218  0.1552  0.2289
19809TIP3    H180918   1.903   5.621   6.169 -0.3929  1.2195 -0.3766
19809TIP3    H280919   1.885   5.497   6.083  1.2189 -0.6075  1.8098
19810TIP3   OH280920   1.552   1.500   3.217 -0.5083  0.3567  0.1649
19810TIP3    H180921   1.526   1.417   3.256  0.4086 -0.0463 -0.0530
19810TIP3    H280922   1.552   1.562   3.291 -0.9412  0.1143  0.3756
19811TIP3   OH280923   5.878   6.075   5.396  0.3523  0.2104 -0.1094
19811TIP3    H180924   5.928   5.994   5.402  0.4095  0.3239  1.1357
19811TIP3    H280925   5.787   6.049   5.412  0.5479  0.5677  1.7945
19812TIP3   OH280926   1.640   2.525  11.679  0.0594  0.8338  0.8682
19812TIP3    H180927   1.706   2.552  11.743 -0.7001  1.0971  1.5539
19812TIP3    H280928   1.686   2.527  11.595  0.9120  1.0484  1.3305
19813TIP3   OH280929   4.024   4.493   2.169 -0.0779 -0.0637 -0.2673
19813TIP3    H180930   4.028   4.588   2.156  1.0621  0.0809  0.9076
19813TIP3    H280931   3.943   4.480   2.219 -0.0959  0.3155 -0.1897
19814TIP3   OH280932   0.308   5.758  16.616 -0.0281 -0.6277 -0.2152
19814TIP3    H180933   0.263   5.770  16.532 -0.2212 -0.0327 -0.0324
19814TIP3    H280934   0.252   5.699  16.665 -1.5046  1.3746  0.6468
19815TIP3   OH280935   2.590   5.192   4.193 -0.0821 -0.2107  0.6455
19815TIP3    H180936   2.533   5.211   4.267  0.5323  2.2841  0.5545
19815TIP3    H280937   2.562   5.106   4.163 -1.9014 -0.2698  2.3144
19816TIP3   OH280938   1.042   4.443   3.045  0.3912  0.6959 -0.0777
19816TIP3    H180939   1.032   4.467   2.953  2.1450 -0.5569 -0.6599
19816TIP3    H280940   1.064   4.526   3.088  0.1200  1.2056 -0.8867
19817TIP3   OH280941   0.007   3.477   6.264 -0.5438  0.3062 -0.2314
19817TIP3    H180942  -0.039   3.393   6.271 -1.2965  0.7818  0.6675
19817TIP3    H280943   0.097   3.457   6.289 -0.4462 -0.4474 -1.1140
19818TIP3   OH280944   5.752   3.386  14.397  0.3372  0.5200  1.1380
19818TIP3    H180945   5.721   3.453  14.336 -0.4864 -1.3209 -0.5887
19818TIP3    H280946   5.839   3.362  14.364 -0.6746 -1.4842 -0.3288
19819TIP3   OH280947   2.150   4.439   2.000 -0.2697 -0.2846  0.0541
19819TIP3    H180948   2.115   4.493   1.929  1.9436  0.6244 -0.4529
19819TIP3    H280949   2.153   4.351   1.963 -1.0564 -0.1898 -0.2435
19820TIP3   OH280950   4.296   3.690   6.591  0.5847 -0.3184  0.4671
19820TIP3    H180951   4.277   3.619   6.529  0.8365 -0.6099  0.7241
19820TIP3    H280952   4.358   3.746   6.544 -0.0472  0.0398  0.0500
19821TIP3   OH280953   3.522   2.382  16.130  0.4196 -0.2137  0.1601
19821TIP3    H180954   3.566   2.466  16.140 -0.6725  0.4275 -0.1348
19821TIP3    H280955   3.508   2.351  16.219 -0.2114  0.5107  0.3347
19822TIP3   OH280956   4.367   2.136  15.150  0.3942  0.5372 -0.0523
19822TIP3    H180957   4.404   2.058  15.109  1.1860  1.6815 -1.5675
19822TIP3    H280958   4.299   2.102  15.208  1.2475 -1.3289 -0.0884
19823TIP3   OH280959   2.162   6.160   4.276  0.0509  0.0229  0.6130
19823TIP3    H180960   2.254   6.139   4.289 -0.1300  0.1833  2.5620
19823TIP3    H280961   2.143   6.225   4.345 -1.4707  0.1023  0.1558
19824TIP3   OH280962   1.014   2.905   4.092  0.1248 -0.2406  0.2847
19824TIP3    H180963   1.040   2.962   4.020  0.2594 -2.1781 -1.2756
19824TIP3    H280964   1.087   2.911   4.154  0.8947  0.0208 -0.6211
19825TIP3   OH280965   5.050   4.748  16.157  0.4663  0.6157 -0.6157
19825TIP3    H180966   4.961   4.718  16.177  0.1185  1.0032 -1.5042
19825TIP3    H280967   5.059   4.830  16.206  0.7375  0.0438  0.3216
19826TIP3   OH280968   1.926   3.294   5.796 -0.2702  0.1634 -0.0787
19826TIP3    H180969   1.944   3.273   5.888  1.5350 -0.9202 -0.6356
19826TIP3    H280970   1.883   3.380   5.800 -0.6337 -0.0529  1.7962
19827TIP3   OH280971   5.474   5.105   2.265 -0.0627 -0.8608  0.0343
19827TIP3    H180972   5.506   5.062   2.186  1.2422 -1.5465  0.8986
19827TIP3    H280973   5.550   5.111   2.322 -0.7239  0.6178  0.8272
19828TIP3   OH280974   2.737   5.826  16.308 -0.4336 -0.0909  0.0332
19828TIP3    H180975   2.799   5.755  16.290 -0.3614  0.2345 -1.0448
19828TIP3    H280976   2.683   5.831  16.229  0.5943  2.1150 -0.6101
19829TIP3   OH280977   1.381   5.189  11.304  0.2020  0.0336 -0.1822
19829TIP3    H180978   1.366   5.282  11.324  0.3815 -0.1456  0.8228
19829TIP3    H280979   1.418   5.153  11.384  1.2734 -0.6444 -0.9505
19830TIP3   OH280980   2.786   5.756   4.168  0.2152 -0.3270  0.1304
19830TIP3    H180981   2.785   5.692   4.097 -0.0800 -0.9975  0.7220
19830TIP3    H280982   2.735   5.830   4.134  0.8576 -0.2497 -0.6886
19831TIP3   OH280983   0.385   0.405  13.108 -0.1027  0.1241 -0.3000
19831TIP3    H180984   0.395   0.454  13.189  2.5469 -0.9929  0.1410
19831TIP3    H280985   0.415   0.465  13.040 -0.4384  0.3745 -0.2311
19832TIP3   OH280986   5.457   3.887   1.849  0.0008  0.1872 -0.1299
19832TIP3    H180987   5.370   3.871   1.814  0.1669  0.7657 -0.8224
19832TIP3    H280988   5.463   3.829   1.925 -0.7268 -0.3664 -0.4794
19833TIP3   OH280989   6.343   4.001  12.485  0.2751  0.4534  0.0613
19833TIP3    H180990   6.325   4.062  12.556  0.6839  0.6717 -0.0197
19833TIP3    H280991   6.266   4.007  12.428 -0.9448 -1.1003  1.4086
19834TIP3   OH280992   1.205   3.230  16.370  0.3743  0.3088  0.2089
19834TIP3    H180993   1.121   3.216  16.327  0.8762 -0.1354 -0.6637
19834TIP3    H280994   1.239   3.142  16.388  1.7372  0.3853 -1.6714
19835TIP3   OH280995   6.749   4.763  15.754 -0.4352  0.5367 -0.9111
19835TIP3    H180996   6.811   4.828  15.722  1.0141  0.5511  1.6812
19835TIP3    H280997   6.707   4.805  15.829  0.6537 -1.5069  0.9323
19836TIP3   OH280998   0.502   2.798  10.640 -1.0499 -0.1475 -0.0992
19836TIP3    H180999   0.509   2.891  10.659 -0.1446 -0.0168 -0.9968
19836TIP3    H281000   0.410   2.777  10.657 -1.1180  0.7601  0.7168
19837TIP3   OH281001   3.084   5.444  16.403 -0.1393  0.5562  0.1690
19837TIP3    H181002   3.158   5.459  16.461  0.5008 -0.0883 -0.4661
19837TIP3    H281003   3.012   5.494  16.442  0.1944 -0.1078  1.6811
19838TIP3   OH281004   0.739   0.034  12.740  0.1601 -0.2880 -0.5948
19838TIP3    H181005   0.662  -0.008  12.779 -0.7279 -0.7936 -2.7584
19838TIP3    H281006   0.774  -0.032  12.679  0.8967  0.8046 -1.3856
19839TIP3   OH281007   5.493   2.678  13.286 -0.2084 -0.0162 -0.1800
19839TIP3    H181008   5.460   2.589  13.293 -1.9924  0.3927 -2.1995
19839TIP3    H281009   5.581   2.669  13.250 -0.4647 -0.9679 -0.5883
19840TIP3   OH281010   2.717   3.275  14.130  0.0366  0.5140  0.1594
19840TIP3    H181011   2.727   3.337  14.057 -0.1547 -0.6705 -0.9013
19840TIP3    H281012   2.699   3.191  14.088 -2.0832  0.1531  1.5909
19841TIP3   OH281013   6.031   1.705   5.258 -0.4776 -0.2120 -0.7985
19841TIP3    H181014   6.004   1.623   5.217 -1.6335 -0.2692  0.0303
19841TIP3    H281015   6.015   1.692   5.351  0.0852  0.6728 -0.5624
19842TIP3   OH281016   3.167   2.651   4.518  0.3023 -0.4827  0.4143
19842TIP3    H181017   3.155   2.655   4.423 -2.1912 -0.6135  0.6536
19842TIP3    H281018   3.115   2.724   4.552 -0.0771 -1.3345  1.7364
19843TIP3   OH281019   2.614   4.584   6.129  0.0124 -0.6982 -0.6520
19843TIP3    H181020   2.675   4.585   6.202 -0.9597 -1.2911  0.1882
19843TIP3    H281021   2.657   4.529   6.063  0.4739 -0.9427 -0.1573
19844TIP3   OH281022   0.889   6.310  13.719 -0.4227 -0.3113 -0.5541
19844TIP3    H181023   0.943   6.353  13.654 -0.1906 -0.0857 -0.2134
19844TIP3    H281024   0.820   6.374  13.739 -0.4410 -0.3447 -0.5098
19845TIP3   OH281025   5.080   3.707   4.841  0.6253  0.1055 -0.1548
19845TIP3    H181026   5.060   3.613   4.839 -0.5131  0.2414  2.0787
19845TIP3    H281027   5.156   3.715   4.898  1.0740  0.5166 -0.7943
19846TIP3   OH281028   3.543   1.656  15.780  0.8039 -0.4434  0.1256
19846TIP3    H181029   3.557   1.700  15.696  2.1944  1.5537  1.3316
19846TIP3    H281030   3.600   1.580  15.777 -1.0723 -1.9063 -1.6961
19847TIP3   OH281031   6.396   2.201   2.894 -0.5952 -0.1375 -0.1970
19847TIP3    H181032   6.482   2.170   2.922  0.2051  0.1708 -2.1513
19847TIP3    H281033   6.351   2.123   2.861 -1.3706 -0.4225  1.4272
19848TIP3   OH281034   1.702   0.245   4.729  0.0192  1.1667 -0.5438
19848TIP3    H181035   1.706   0.233   4.634  0.8223  0.4310 -0.4325
19848TIP3    H281036   1.778   0.196   4.762 -1.1747  0.0319  0.6196
19849TIP3   OH281037   3.562   4.168  13.267  0.6352  0.0936 -0.5032
19849TIP3    H181038   3.654   4.174  13.241  0.1537  2.7711 -2.0171
19849TIP3    H281039   3.519   4.237  13.216 -2.4287 -1.7746 -0.6968
19850TIP3   OH281040   2.245   0.780   5.301  0.7780 -0.0473  0.2406
19850TIP3    H181041   2.305   0.836   5.351  0.7173  1.3730 -1.2072
19850TIP3    H281042   2.158   0.810   5.325  0.7520  1.0527 -1.0812
19851TIP3   OH281043   4.877   1.829   2.117 -0.5312  0.3789 -0.2120
19851TIP3    H181044   4.890   1.893   2.047 -0.4992  1.1169  0.4474
19851TIP3    H281045   4.861   1.746   2.072 -0.2153  0.7806 -1.0845
19852TIP3   OH281046   4.530   4.979  16.713 -0.4586 -0.3114 -0.5140
19852TIP3    H181047   4.446   4.963  16.757  0.2595 -2.3565  0.2641
19852TIP3    H281048   4.596   4.953  16.778  0.6933 -1.4056 -2.0557
19853TIP3   OH281049   2.814   4.338  12.408  0.4091  0.4621  0.2403
19853TIP3    H181050   2.857   4.270  12.355 -0.2652  1.4550 -1.6657
19853TIP3    H281051   2.877   4.357  12.478  2.2948  0.5291 -1.3778
19854TIP3   OH281052   2.007   0.950  14.656  0.3164  0.7312 -0.0971
19854TIP3    H181053   1.984   1.042  14.669  1.4364  1.4033 -2.3477
19854TIP3    H281054   1.927   0.911  14.619  0.2697  1.1615 -0.4729
19855TIP3   OH281055   5.051   1.304   5.382  0.0441 -0.0302  0.3136
19855TIP3    H181056   5.101   1.371   5.427  1.5700 -0.1717 -1.0691
19855TIP3    H281057   5.087   1.221   5.414  1.2120 -0.1320 -1.1434
19856TIP3   OH281058   1.886   5.032  16.694 -0.2409 -0.1239 -0.3601
19856TIP3    H181059   1.905   4.973  16.621  0.5891 -1.2160  0.7023
19856TIP3    H281060   1.893   5.120  16.657  0.7054 -0.6451 -1.4685
19857TIP3   OH281061   4.563   1.672   2.765  0.1471 -0.6835 -0.3102
19857TIP3    H181062   4.636   1.707   2.816  0.4450  1.1465 -1.8751
19857TIP3    H281063   4.497   1.742   2.767 -0.8377 -1.5817 -0.4120
19858TIP3   OH281064   2.544   1.387   4.432  0.5407 -0.0240 -0.0284
19858TIP3    H181065   2.522   1.472   4.469  0.8473 -1.0116  2.6335
19858TIP3    H281066   2.464   1.336   4.440  1.0168 -0.6908  0.6436
19859TIP3   OH281067   2.368   3.292  16.891  0.0873 -0.1546 -0.0417
19859TIP3    H181068   2.325   3.236  16.827 -0.4895  2.1033 -1.7326
19859TIP3    H281069   2.426   3.348  16.840  1.7207 -0.0798  1.7298
19860TIP3   OH281070   1.752   0.043  14.330 -0.4165 -0.2272  0.2681
19860TIP3    H181071   1.813   0.114  14.309  1.2617 -1.6634  0.0178
19860TIP3    H281072   1.667   0.075  14.301  0.3648  1.4934 -0.2529
19861TIP3   OH281073   1.773   2.575  12.765 -0.3422  0.1530  0.2722
19861TIP3    H181074   1.824   2.628  12.826 -1.2473  0.9337  0.3712
19861TIP3    H281075   1.686   2.615  12.765 -1.8866 -2.8218  2.3459
19862TIP3   OH281076   1.546   2.343   0.125  0.0764 -0.2086 -0.4633
19862TIP3    H181077   1.630   2.387   0.107  0.0962  0.5506  1.2582
19862TIP3    H281078   1.554   2.258   0.082  1.9664 -0.3679  0.0809
19863TIP3   OH281079   6.060   5.482  11.434  0.0794  0.5556 -0.1355
19863TIP3    H181080   6.076   5.422  11.361  0.7905  1.1155 -0.4496
19863TIP3    H281081   6.096   5.566  11.405  1.0332  0.6185  1.1242
19864TIP3   OH281082   3.682   1.984   1.529 -0.0896  0.1183 -0.2456
19864TIP3    H181083   3.652   1.934   1.454 -2.0735 -0.0042  0.5688
19864TIP3    H281084   3.742   2.049   1.493  0.8799 -1.4664 -1.5852
19865TIP3   OH281085   3.418   3.758  11.041  0.6011 -0.5063  0.1073
19865TIP3    H181086   3.355   3.812  10.993 -0.0754 -1.5435 -0.2083
19865TIP3    H281087   3.489   3.745  10.979 -0.3350 -1.9624 -0.7160
19866TIP3   OH281088   2.925   6.240  13.107  0.3368  0.1065 -0.2438
19866TIP3    H181089   2.992   6.309  13.104 -2.0479  2.5991 -0.6764
19866TIP3    H281090   2.916   6.211  13.017 -0.8178  1.6205 -0.6718
19867TIP3   OH281091   1.142   1.420  12.183  0.4860  0.9114  0.3233
19867TIP3    H181092   1.052   1.395  12.161  0.2540  1.7525  0.2645
19867TIP3    H281093   1.160   1.495  12.126  1.2190  0.7668  0.3562
19868TIP3   OH281094   6.310   3.780   5.603 -0.3745 -0.4297 -0.0140
19868TIP3    H181095   6.373   3.709   5.590  0.5340  0.3035  0.3031
19868TIP3    H281096   6.364   3.859   5.612 -1.3025  0.0992  1.1009
19869TIP3   OH281097   5.833   0.135   5.720 -0.2106 -0.2732  0.0250
19869TIP3    H181098   5.912   0.188   5.733  0.0832  0.2512 -3.0838
19869TIP3    H281099   5.779   0.153   5.797  1.5456  1.4687  0.9523
19870TIP3   OH281100   2.988   1.570  17.016  0.2426 -0.4413  0.8134
19870TIP3    H181101   3.075   1.597  17.043  0.5812  0.0434 -0.6409
19870TIP3    H281102   2.991   1.571  16.920 -1.7597  0.9187  0.6959
19871TIP3   OH281103   6.433   6.277  14.880  0.2718 -0.1483 -0.6823
19871TIP3    H181104   6.445   6.351  14.821  0.1122 -0.0423 -0.5811
19871TIP3    H281105   6.362   6.304  14.939  0.1980 -0.3878 -0.6588
19872TIP3   OH281106   0.106   0.659  13.395 -0.6205  0.0874 -0.3096
19872TIP3    H181107   0.099   0.754  13.403  0.3084  0.0934  0.5776
19872TIP3    H281108   0.170   0.633  13.462  1.3764 -0.8176 -2.3931
19873TIP3   OH281109   4.482   4.766  15.538  0.3069 -0.2051  0.1990
19873TIP3    H181110   4.391   4.735  15.537  0.1221  0.2681  1.0451
19873TIP3    H281111   4.486   4.825  15.613  1.1420  0.3204 -0.2396
19874TIP3   OH281112   1.814   1.263   1.625 -0.3901  0.1140  0.0703
19874TIP3    H181113   1.886   1.246   1.565  0.1581 -0.9625  1.0078
19874TIP3    H281114   1.770   1.179   1.635  0.6912 -0.2428  2.6428
19875TIP3   OH281115   1.029   0.423  14.374  0.5194 -0.2599 -0.3365
19875TIP3    H181116   1.091   0.453  14.307  0.1245  0.7452 -0.2621
19875TIP3    H281117   1.035   0.328  14.370 -0.8706 -0.3495 -3.1248
19876TIP3   OH281118   2.491   1.504  10.322  0.6864 -0.0179  0.0504
19876TIP3    H181119   2.419   1.564  10.300  0.5840 -0.5411 -1.1077
19876TIP3    H281120   2.494   1.504  10.418  0.0282  1.0511  0.0828
19877TIP3   OH281121   2.473   1.070   0.427  0.3534 -0.5004  0.2148
19877TIP3    H181122   2.524   1.113   0.359 -0.9108  1.3219  0.3449
19877TIP3    H281123   2.538   1.035   0.488  1.4531  0.0565 -0.6123
19878TIP3   OH281124   0.993   3.814  14.768  0.1399  0.0243 -0.3010
19878TIP3    H181125   0.959   3.880  14.707 -0.7532 -0.2578 -0.1084
19878TIP3    H281126   0.932   3.742  14.763 -1.2684  0.8685  2.5840
19879TIP3   OH281127   4.133   5.478   4.488  0.8357 -0.9169 -0.1124
19879TIP3    H181128   4.172   5.394   4.512  1.3028 -0.5189  0.5370
19879TIP3    H281129   4.131   5.477   4.392  3.6057 -0.4423 -0.2527
19880TIP3   OH281130   3.497   5.810  11.373 -0.2430 -0.0686  0.2759
19880TIP3    H181131   3.484   5.768  11.288 -2.0793 -0.5523  0.7543
19880TIP3    H281132   3.511   5.902  11.352 -2.1516  0.0887 -0.5190
19881TIP3   OH281133   6.637   3.156  16.425 -0.1623 -0.2142 -0.5930
19881TIP3    H181134   6.648   3.176  16.332  1.2563  0.6433 -0.2716
19881TIP3    H281135   6.618   3.063  16.427 -0.8639 -0.1208 -1.7770
19882TIP3   OH281136   3.174   5.297  13.907  0.2920  0.8250 -0.0066
19882TIP3    H181137   3.135   5.353  13.840  0.2213  0.1124 -0.5728
19882TIP3    H281138   3.267   5.297  13.886  0.1528 -0.1526 -0.6949
19883TIP3   OH281139   6.657   2.798  11.129  0.0840 -0.3754 -0.3428
19883TIP3    H181140   6.677   2.782  11.222 -2.6828  1.8843  0.7970
19883TIP3    H281141   6.591   2.732  11.107 -0.5886  0.2176 -0.1268
19884TIP3   OH281142   1.462   6.238   0.124  0.2484  0.3957  1.1722
19884TIP3    H181143   1.366   6.244   0.129 -0.1261 -0.0813 -2.4872
19884TIP3    H281144   1.483   6.157   0.171 -1.2076  0.2533  1.6323
19885TIP3   OH281145   5.233   4.880   2.259 -0.1385  0.4340  0.1557
19885TIP3    H181146   5.307   4.937   2.279 -0.3460  0.8848 -0.3303
19885TIP3    H281147   5.161   4.915   2.312 -0.6500  1.5375 -1.2030
19886TIP3   OH281148   4.146   5.733  15.921 -0.4537 -0.2563  0.1602
19886TIP3    H181149   4.053   5.722  15.899 -0.1232 -1.1197 -0.9043
19886TIP3    H281150   4.146   5.755  16.014 -1.7826  0.7585 -0.0474
19887TIP3   OH281151   1.859   3.267   5.283  0.2185  0.2882  0.0361
19887TIP3    H181152   1.946   3.227   5.278  0.1224  0.2093 -2.7469
19887TIP3    H281153   1.802   3.205   5.237 -1.7055 -0.4100  3.1052
19888TIP3   OH281154   4.371   5.293  10.389 -0.4226 -0.2247 -0.4216
19888TIP3    H181155   4.464   5.310  10.402 -0.3464 -1.6031  1.0389
19888TIP3    H281156   4.340   5.370  10.341  1.5472  0.0261 -1.4129
19889TIP3   OH281157   4.177   5.582  14.521  0.5798 -0.2834 -0.2594
19889TIP3    H181158   4.152   5.506  14.469 -0.1789  0.7466 -1.4722
19889TIP3    H281159   4.272   5.587  14.513  0.6222 -1.0146 -0.2685
19890TIP3   OH281160   0.871   1.188   1.283  0.3428  0.4079 -0.5060
19890TIP3    H181161   0.943   1.137   1.320  1.0320  0.8704 -1.1820
19890TIP3    H281162   0.878   1.174   1.189  0.0907  1.1662 -0.6422
19891TIP3   OH281163   3.235   0.532  16.055 -0.1161  0.2885  0.1953
19891TIP3    H181164   3.148   0.567  16.074 -0.3836 -1.0199  1.6038
19891TIP3    H281165   3.270   0.507  16.140  1.6369  0.7003 -0.3485
19892TIP3   OH281166   3.282   0.775   2.494  0.0174  0.2695 -0.2431
19892TIP3    H181167   3.212   0.764   2.559  0.1835 -0.7713 -0.2173
19892TIP3    H281168   3.314   0.686   2.478  3.2463  0.8642  1.8452
19893TIP3   OH281169   1.869   4.374  11.388 -0.5258 -0.2423 -0.2555
19893TIP3    H181170   1.803   4.313  11.356  0.8686 -1.8528 -0.2379
19893TIP3    H281171   1.837   4.403  11.474 -0.7779 -1.7289  0.1746
19894TIP3   OH281172   5.300   5.317  10.568 -0.1281 -0.3249  0.9600
19894TIP3    H181173   5.334   5.340  10.481 -2.9893 -1.4408 -0.5929
19894TIP3    H281174   5.343   5.235  10.590  1.0211  0.2430  0.8840
19895TIP3   OH281175   2.903   3.503   2.161 -0.1107  0.4124  0.0895
19895TIP3    H181176   2.975   3.446   2.137 -1.8342 -1.5214 -0.8175
19895TIP3    H281177   2.882   3.550   2.080  0.0110  0.8276  0.2984
19896TIP3   OH281178   4.005   5.802   1.517 -0.1309 -0.3355  0.0756
19896TIP3    H181179   3.991   5.890   1.554 -0.3972 -1.1339  2.0020
19896TIP3    H281180   4.100   5.791   1.517 -0.1128 -0.1878  0.2028
19897TIP3   OH281181   5.761   1.819   3.642  0.0931  0.5474  0.3193
19897TIP3    H181182   5.853   1.832   3.665 -0.1417  0.8309  1.1281
19897TIP3    H281183   5.717   1.898   3.674 -0.1537  1.3503 -1.7982
19898TIP3   OH281184   2.162   1.207  12.114  0.5259  0.1253 -0.3049
19898TIP3    H181185   2.096   1.149  12.077 -0.0671  0.2662  0.5126
19898TIP3    H281186   2.148   1.290  12.070  0.2872  0.0957 -0.2889
19899TIP3   OH281187   5.874   1.453  15.806 -0.3461 -0.2659 -0.6233
19899TIP3    H181188   5.946   1.392  15.788  0.7088  1.3027 -1.9965
19899TIP3    H281189   5.917   1.529  15.845 -1.5680 -0.1413  0.5507
19900TIP3   OH281190   0.658   1.744   3.828 -0.3699 -0.2074 -1.0687
19900TIP3    H181191   0.679   1.793   3.907  3.0422  0.4310 -2.2075
19900TIP3    H281192   0.605   1.804   3.776 -0.4609  0.3514 -0.3436
19901TIP3   OH281193   0.225   0.132  12.191 -0.4496  0.0699  0.1682
19901TIP3    H181194   0.153   0.173  12.238 -0.0997 -0.4510  1.1915
19901TIP3    H281195   0.273   0.084  12.258  0.2626 -0.4235 -0.6732
19902TIP3   OH281196   2.897   6.812   5.479 -0.0946 -0.3135 -0.6094
19902TIP3    H181197   2.936   6.724   5.485  0.5973 -0.0257 -0.7952
19902TIP3    H281198   2.960   6.863   5.428  1.3738  1.2968  2.5526
19903TIP3   OH281199   1.110   1.124   4.391 -0.6090  0.4657  1.2090
19903TIP3    H181200   1.052   1.049   4.406 -2.8207  2.0979  1.1828
19903TIP3    H281201   1.188   1.085   4.350 -2.8143 -1.5402 -1.4761
19904TIP3   OH281202   2.024   2.423   2.589 -0.0935  0.1728  0.0483
19904TIP3    H181203   1.992   2.461   2.507  1.7611  0.4369 -0.6029
19904TIP3    H281204   2.103   2.472   2.609  0.0330 -0.5527  1.4967
19905TIP3   OH281205   1.359   4.975  16.761 -0.3324  0.0916 -0.6907
19905TIP3    H181206   1.415   5.041  16.803 -0.7985  0.4612 -0.6373
19905TIP3    H281207   1.412   4.941  16.689  0.5878 -0.7478  0.3495
19906TIP3   OH281208   3.554   0.210   3.116 -0.0380 -0.0314 -0.3010
19906TIP3    H181209   3.494   0.265   3.167  1.5964  0.8226  0.8166
19906TIP3    H281210   3.585   0.268   3.046 -2.5977 -1.3233 -2.6868
19907TIP3   OH281211   6.372   5.087   4.210  0.3610  0.0916  0.1094
19907TIP3    H181212   6.318   5.148   4.160 -0.8804  0.0270  1.2864
19907TIP3    H281213   6.331   5.001   4.196 -0.0583  0.0853  1.2569
19908TIP3   OH281214   5.449   3.196   1.195 -0.0365  0.0784 -0.5147
19908TIP3    H181215   5.464   3.290   1.183 -0.4358  0.0679 -1.1251
19908TIP3    H281216   5.412   3.167   1.112 -1.8255 -0.2214  0.3518
19909TIP3   OH281217   4.841   2.693  14.921 -0.3147 -0.0425  0.3885
19909TIP3    H181218   4.880   2.753  14.985 -0.7065  0.2704  0.3374
19909TIP3    H281219   4.895   2.705  14.842  0.1097 -0.3594  0.6268
19910TIP3   OH281220   6.200   1.010  12.676  0.4432 -0.3384  0.0764
19910TIP3    H181221   6.253   1.067  12.620  0.0332 -0.0976 -0.0693
19910TIP3    H281222   6.140   1.070  12.721  0.2547 -0.6175  0.1994
19911TIP3   OH281223   2.147   0.970   4.027  0.1996 -0.2244  0.0139
19911TIP3    H181224   2.239   0.992   4.015  0.0841 -0.1723 -0.8180
19911TIP3    H281225   2.102   1.014   3.955 -0.7507  1.5142  1.5885
19912TIP3   OH281226   1.875   1.592   3.454  0.0031  0.2599  0.2580
19912TIP3    H181227   1.911   1.677   3.480  1.2034 -0.1897  0.1586
19912TIP3    H281228   1.780   1.603   3.462  0.1612  1.3512  1.0232
19913TIP3   OH281229   4.397   0.460  11.888  0.0905  0.5663  0.1759
19913TIP3    H181230   4.442   0.397  11.831  1.6240  1.0888  0.7675
19913TIP3    H281231   4.356   0.522  11.827 -1.6269 -1.0392 -0.4320
19914TIP3   OH281232   1.443   4.415  11.969 -0.3356  0.3418 -0.8178
19914TIP3    H181233   1.451   4.366  12.051  0.2726  1.2305 -0.3174
19914TIP3    H281234   1.467   4.353  11.901  1.8123  0.2959 -0.0990
19915TIP3   OH281235   2.957   3.227  15.774  0.1323  0.4122  0.6651
19915TIP3    H181236   3.038   3.272  15.751  0.0890  0.6288  0.9386
19915TIP3    H281237   2.920   3.278  15.846 -0.5375  0.6490  0.1760
19916TIP3   OH281238   3.697   4.683   2.270  0.0892  0.3412 -0.0480
19916TIP3    H181239   3.712   4.622   2.342  1.2886  0.7079  0.0263
19916TIP3    H281240   3.736   4.765   2.300 -0.0302  0.6909 -0.8297
19917TIP3   OH281241   2.728   2.324   2.256  0.3621 -0.2592  0.2619
19917TIP3    H181242   2.633   2.322   2.259  0.2046 -1.9581 -2.3491
19917TIP3    H281243   2.756   2.263   2.325 -0.2889  1.5025  2.1771
19918TIP3   OH281244   0.029   0.868  16.318  0.5156  0.4063  0.3246
19918TIP3    H181245   0.109   0.861  16.370  1.4707  1.4526 -0.9405
19918TIP3    H281246   0.041   0.948  16.266 -1.1800  0.3605 -0.1924
19919TIP3   OH281247   5.087   0.056   3.380  0.3305 -0.0226  0.3431
19919TIP3    H181248   5.152   0.083   3.315 -0.4908  1.9535  0.2704
19919TIP3    H281249   5.096   0.120   3.451  0.4884 -1.5102  1.7155
19920TIP3   OH281250   1.483   0.162   0.985 -0.3142 -0.2877 -0.2699
19920TIP3    H181251   1.439   0.237   0.945  0.3463  0.3434  0.1541
19920TIP3    H281252   1.475   0.092   0.921  0.1457  0.5072 -1.2122
19921TIP3   OH281253   5.705   0.690   1.571 -0.5044  0.4663  0.0518
19921TIP3    H181254   5.653   0.744   1.631 -0.5839  0.2367  0.1926
19921TIP3    H281255   5.732   0.615   1.625 -0.1616  0.5084 -0.0663
19922TIP3   OH281256   5.788   6.461   3.111  0.2245  0.2815 -0.1838
19922TIP3    H181257   5.763   6.375   3.077  1.6242  0.6287 -2.2435
19922TIP3    H281258   5.849   6.496   3.047 -0.6832  3.0564  0.3054
19923TIP3   OH281259   0.597   5.407   3.143  0.1957 -0.1061  0.2758
19923TIP3    H181260   0.556   5.327   3.177  0.1832  0.5470  1.9095
19923TIP3    H281261   0.525   5.469   3.136  0.3408  0.0094 -0.2078
19924TIP3   OH281262   2.045   4.723  15.221 -0.3091 -0.4462  0.4375
19924TIP3    H181263   2.130   4.744  15.184 -0.5094 -0.7119 -0.1863
19924TIP3    H281264   2.054   4.742  15.315 -0.6072  2.7689 -0.0777
19925TIP3   OH281265   1.830   0.232  13.888  0.2345  0.8223 -0.1099
19925TIP3    H181266   1.797   0.166  13.949  0.8332 -0.0952 -0.7520
19925TIP3    H281267   1.862   0.303  13.945 -0.4392  0.5863  0.5858
19926TIP3   OH281268   5.880   3.975   3.875 -0.4178  0.0105 -0.8682
19926TIP3    H181269   5.973   3.966   3.894  0.1429 -0.4618 -3.4556
19926TIP3    H281270   5.840   3.897   3.915 -0.0278  1.0307  1.6697
19927TIP3   OH281271   0.532   5.214   1.350  0.1529 -0.1951  0.2969
19927TIP3    H181272   0.512   5.123   1.371  0.1090 -1.2522 -3.5182
19927TIP3    H281273   0.616   5.231   1.392 -0.7168 -1.2923  2.6227
19928TIP3   OH281274   2.507   5.057  12.325 -0.4037 -0.2663 -0.3064
19928TIP3    H181275   2.426   5.058  12.375 -0.6166  1.8949 -0.6275
19928TIP3    H281276   2.490   4.997  12.253 -2.0639  0.8876 -0.9068
19929TIP3   OH281277   1.245   2.608  12.857  0.0631  0.7519 -0.7647
19929TIP3    H181278   1.329   2.562  12.865  0.2404  1.1820 -0.0939
19929TIP3    H281279   1.267   2.691  12.815 -0.0265  0.8592 -0.6004
19930TIP3   OH281280   1.947   3.690  11.533  0.0199  0.1806  0.5134
19930TIP3    H181281   1.938   3.595  11.526 -0.7447  0.3567 -1.3503
19930TIP3    H281282   1.864   3.720  11.570  0.3708  0.1199  1.3779
19931TIP3   OH281283   3.633   3.935   5.121  0.0405 -0.2304 -0.0379
19931TIP3    H181284   3.667   3.850   5.148  1.3704  0.6065  1.0470
19931TIP3    H281285   3.539   3.921   5.109 -0.2507 -1.2715  2.6984
19932TIP3   OH281286   3.654   5.529   6.116 -0.1121  0.1951 -0.1917
19932TIP3    H181287   3.590   5.592   6.147 -1.8683 -1.3129 -0.5597
19932TIP3    H281288   3.602   5.459   6.077  1.8234 -0.4334 -1.8322
19933TIP3   OH281289   5.099   6.009   6.750 -0.4250 -0.0588 -0.2199
19933TIP3    H181290   5.167   6.071   6.774  0.2284 -1.0768  0.6391
19933TIP3    H281291   5.126   5.926   6.790 -2.4877 -0.3491  0.7037
19934TIP3   OH281292   5.954   5.538   5.995  0.2974 -0.3371  0.0579
19934TIP3    H181293   5.869   5.500   5.974  0.0749 -1.4287  2.5878
19934TIP3    H281294   5.953   5.548   6.090  2.1911  1.6831 -0.0480
19935TIP3   OH281295   6.509   6.338   4.361  0.3731  0.2432  0.5617
19935TIP3    H181296   6.545   6.385   4.436  1.7066  1.4090 -0.7306
19935TIP3    H281297   6.544   6.249   4.369  3.1451  1.1583 -0.2589
19936TIP3   OH281298   2.654   4.228   3.158 -0.0551 -0.3955  0.2860
19936TIP3    H181299   2.699   4.271   3.085 -0.3783  0.7249  0.7385
19936TIP3    H281300   2.719   4.225   3.228  0.3028 -1.6032 -0.0552
19937TIP3   OH281301   3.522   1.647   3.530  0.9692 -0.1498  0.0998
19937TIP3    H181302   3.498   1.628   3.621  0.7739  1.6380  0.4701
19937TIP3    H281303   3.618   1.652   3.531  0.9605  0.0268  0.2628
19938TIP3   OH281304   4.228   6.231   5.897  0.5389  0.3618 -0.3162
19938TIP3    H181305   4.265   6.167   5.836 -3.3634 -3.3081  0.6707
19938TIP3    H281306   4.209   6.308   5.842  1.5025 -0.9003 -2.5760
19939TIP3   OH281307   6.373   4.909   5.477  0.3796 -0.2900  0.0571
19939TIP3    H181308   6.379   4.934   5.569  2.3051  1.3813 -0.4512
19939TIP3    H281309   6.304   4.966   5.441  3.1646  2.9993 -0.5746
19940TIP3   OH281310   0.746   1.779   0.131 -0.3345  0.0709 -0.2531
19940TIP3    H181311   0.828   1.824   0.152 -0.3920  0.3928 -0.7165
19940TIP3    H281312   0.714   1.822   0.052 -0.9338 -0.0766 -0.0968
19941TIP3   OH281313   3.543   0.752  13.128 -0.2043  0.1742 -0.3336
19941TIP3    H181314   3.587   0.671  13.103  0.9559  1.1293 -1.5082
19941TIP3    H281315   3.453   0.725  13.149  0.3933 -1.5259  0.1869
19942TIP3   OH281316   3.034   3.853   4.865 -0.6969  0.6172  0.1123
19942TIP3    H181317   3.052   3.854   4.959 -2.0018  1.6286  0.3817
19942TIP3    H281318   2.943   3.883   4.857 -0.5590  0.7248 -1.4827
19943TIP3   OH281319   6.116   1.931   2.392  0.7609  0.1009 -0.1326
19943TIP3    H181320   6.153   1.843   2.382 -0.3709 -0.4908  0.6173
19943TIP3    H281321   6.032   1.926   2.345 -0.2351  0.1480  1.5737
19944TIP3   OH281322   6.414   6.396  10.748  0.0299 -0.0614 -0.0845
19944TIP3    H181323   6.459   6.319  10.781 -1.5221 -1.4956 -1.0986
19944TIP3    H281324   6.367   6.431  10.824 -0.9828 -1.4361 -0.0451
19945TIP3   OH281325   2.515   5.361   4.932  0.3797 -0.9189 -0.1228
19945TIP3    H181326   2.463   5.344   5.011  0.9888  0.5624  0.6410
19945TIP3    H281327   2.525   5.275   4.891  0.2668 -1.7827  1.5467
19946TIP3   OH281328   6.402   3.108  13.246 -0.0287 -0.7756 -0.5415
19946TIP3    H181329   6.390   3.164  13.169  3.4374  1.1018  0.0401
19946TIP3    H281330   6.374   3.163  13.319 -0.5193 -1.4291 -0.2324
19947TIP3   OH281331   0.283   6.567  15.525 -0.5864  0.1423  0.1954
19947TIP3    H181332   0.285   6.558  15.430  1.8859  0.5220  0.1336
19947TIP3    H281333   0.308   6.658  15.541 -0.2904 -0.1013  1.2099
19948TIP3   OH281334   4.143   5.497  11.240  0.0435 -0.0276  0.3196
19948TIP3    H181335   4.163   5.424  11.299  0.2979 -0.4216 -0.2461
19948TIP3    H281336   4.112   5.456  11.160 -0.7523  0.5183  0.3343
19949TIP3   OH281337   0.821   5.399  12.268 -0.0661  0.7360  0.3531
19949TIP3    H181338   0.728   5.422  12.263 -0.1601  0.6914  1.6656
19949TIP3    H281339   0.824   5.306  12.246 -0.4332  0.5568  1.0298
19950TIP3   OH281340   2.084   2.156   5.034  0.0191  0.1163  0.3475
19950TIP3    H181341   2.054   2.242   5.006  0.6702  0.4578  0.6749
19950TIP3    H281342   2.080   2.159   5.130  1.9458  0.5209  0.4675
19951TIP3   OH281343   4.590   1.533   3.479 -0.5462  0.3635  0.0167
19951TIP3    H181344   4.506   1.501   3.512 -0.3169  2.1265  2.5737
19951TIP3    H281345   4.638   1.453   3.456 -1.6569 -0.8999  1.8134
19952TIP3   OH281346   1.078   0.973  16.405  0.1157 -0.1543 -0.1599
19952TIP3    H181347   1.165   0.936  16.391  1.4221  3.2879 -2.0492
19952TIP3    H281348   1.071   1.044  16.342 -3.1052  1.3282  1.6376
19953TIP3   OH281349   4.210   3.862  15.792 -0.4890 -0.5154  0.5888
19953TIP3    H181350   4.260   3.791  15.751  2.5403  2.2353 -0.9050
19953TIP3    H281351   4.256   3.878  15.875 -0.7308  0.1162  0.6023
19954TIP3   OH281352   2.237   6.272   2.431  0.0971 -0.1385 -0.7858
19954TIP3    H181353   2.298   6.331   2.387 -0.9050  1.3656 -0.2679
19954TIP3    H281354   2.174   6.331   2.474 -0.4776 -1.5869  0.4531
19955TIP3   OH281355   0.016   0.340  10.723  0.1383 -0.2202 -0.2720
19955TIP3    H181356  -0.073   0.342  10.757  0.9219 -1.8099  2.1719
19955TIP3    H281357   0.018   0.264  10.665  0.3146 -1.4279  1.2328
19956TIP3   OH281358   6.255   6.327  16.657  0.0353  0.8411 -0.5363
19956TIP3    H181359   6.253   6.234  16.682  1.1673  0.7765 -0.6381
19956TIP3    H281360   6.178   6.364  16.698 -0.8867 -0.3097 -1.1504
19957TIP3   OH281361   4.203   0.220  13.811  0.3615  0.6837 -0.5196
19957TIP3    H181362   4.138   0.249  13.876  1.4872 -1.3962  1.7116
19957TIP3    H281363   4.285   0.260  13.841  0.9601 -0.5926 -0.4074
19958TIP3   OH281364   5.834   3.097   1.323  0.0892  0.3389 -0.4725
19958TIP3    H181365   5.803   3.011   1.351  1.5655 -0.3879 -1.0080
19958TIP3    H281366   5.877   3.134   1.400 -0.1808  0.4309 -0.3641
19959TIP3   OH281367   2.189   2.691  11.735 -0.1439 -0.0742 -0.7867
19959TIP3    H181368   2.253   2.664  11.801 -0.0664  0.2380 -0.7308
19959TIP3    H281369   2.200   2.786  11.728 -1.2429  0.1204 -0.1039
19960TIP3   OH281370   2.332   5.384   6.194  0.0907  0.3616 -0.0323
19960TIP3    H181371   2.323   5.336   6.277  1.3818  0.3681  0.1394
19960TIP3    H281372   2.309   5.320   6.127  1.1501 -0.3245  0.2302
19961TIP3   OH281373   4.644   4.089   3.857 -0.4877  0.2361 -0.3080
19961TIP3    H181374   4.611   4.072   3.946 -1.1880 -0.9930 -0.7703
19961TIP3    H281375   4.618   4.179   3.838  0.7631  0.9615  1.1804
19962TIP3   OH281376   0.658   1.590  14.553 -0.2435 -0.1883 -0.2203
19962TIP3    H181377   0.747   1.558  14.568 -0.1346 -0.2729 -0.9929
19962TIP3    H281378   0.606   1.547  14.620  0.4756  0.7705  1.0006
19963TIP3   OH281379   5.999   1.510   4.454 -0.2183  0.3805  0.2028
19963TIP3    H181380   6.017   1.417   4.442  2.8740  0.9505 -0.3461
19963TIP3    H281381   6.067   1.541   4.513 -2.8119  1.8630  2.6959
19964TIP3   OH281382   2.837   6.454   1.071 -0.3528  0.3236  0.1625
19964TIP3    H181383   2.777   6.473   1.143  2.1119  0.0196  2.4640
19964TIP3    H281384   2.835   6.533   1.017 -1.8405  0.8189  0.8822
19965TIP3   OH281385   5.385   1.904   0.223  0.3985 -0.0147 -0.1112
19965TIP3    H181386   5.315   1.921   0.160  1.9771  1.8464 -1.5029
19965TIP3    H281387   5.378   1.975   0.287  0.0465 -0.7381  0.6655
19966TIP3   OH281388   2.081   1.223   4.941 -0.4083  0.6567 -0.6416
19966TIP3    H181389   2.124   1.202   5.023 -1.4457 -2.5349 -0.7808
19966TIP3    H281390   2.145   1.199   4.874 -1.7384 -3.0318 -0.8144
19967TIP3   OH281391   5.281   1.492   4.628 -0.5852 -0.2082 -0.0411
19967TIP3    H181392   5.338   1.419   4.602 -0.6081  0.3845 -1.9141
19967TIP3    H281393   5.342   1.557   4.665 -0.0262  0.3373 -1.8399
19968TIP3   OH281394   5.519   1.465   0.828  0.0408  0.1281 -0.3077
19968TIP3    H181395   5.484   1.405   0.893  0.1417 -1.1839 -1.4259
19968TIP3    H281396   5.445   1.520   0.803 -0.1463  0.2314  0.4488
19969TIP3   OH281397   0.132   0.610  10.486  0.6027  0.2972  0.0249
19969TIP3    H181398   0.138   0.641  10.577  1.6515  3.3364 -0.9581
19969TIP3    H281399   0.073   0.671  10.443 -0.3001 -1.4003 -1.2913
19970TIP3   OH281400   3.712   5.283  16.635  0.2493 -0.1184  0.1952
19970TIP3    H181401   3.730   5.247  16.549  1.5919 -0.4942  0.6150
19970TIP3    H281402   3.791   5.332  16.658 -0.8952  1.8029  0.3154
19971TIP3   OH281403   1.835   5.843   5.470  0.4211  0.1137  0.1958
19971TIP3    H181404   1.788   5.903   5.411 -3.5095 -0.8087  2.0361
19971TIP3    H281405   1.907   5.895   5.504 -0.4360  2.4502 -1.2935
19972TIP3   OH281406   5.456   5.487  14.207  0.1240  0.3507  0.3257
19972TIP3    H181407   5.448   5.447  14.294 -3.3470  0.3317  0.1319
19972TIP3    H281408   5.401   5.432  14.151  0.6368  1.5598 -1.4302
19973TIP3   OH281409   1.904   3.552  16.888  0.0574 -0.5532 -0.1945
19973TIP3    H181410   1.812   3.529  16.880  0.2179 -1.2751  0.0254
19973TIP3    H281411   1.923   3.546  16.982  0.0667  0.6482 -0.0967
19974TIP3   OH281412   4.277   2.858   1.918  0.5722 -0.1693 -0.6059
19974TIP3    H181413   4.194   2.827   1.883 -0.4878  1.2294  0.5356
19974TIP3    H281414   4.298   2.936   1.867 -0.1070  0.8851  0.6509
19975TIP3   OH281415   6.784   2.717  12.960 -0.3272  0.1882 -0.6226
19975TIP3    H181416   6.807   2.664  12.883  0.3773  0.9271 -0.9392
19975TIP3    H281417   6.688   2.717  12.962 -0.3395 -0.6800 -0.9029
19976TIP3   OH281418   0.682   2.809   3.013  0.2662 -0.0915  0.5014
19976TIP3    H181419   0.615   2.796   2.946 -0.7367  1.8201  1.0588
19976TIP3    H281420   0.761   2.769   2.976 -0.6219 -0.4049 -1.1565
19977TIP3   OH281421   6.462   6.738  13.258 -0.4000 -0.6074 -0.0997
19977TIP3    H181422   6.479   6.666  13.319 -0.6466 -0.9086 -0.3811
19977TIP3    H281423   6.487   6.817  13.306  2.4761 -1.0332 -0.6891
19978TIP3   OH281424   0.957   5.220   5.751 -0.5304  0.2748  0.7051
19978TIP3    H181425   0.872   5.184   5.726 -0.4411  0.6274 -0.1261
19978TIP3    H281426   0.947   5.315   5.744  0.1226  0.2991 -0.0555
19979TIP3   OH281427   2.835   4.228  11.879  0.6162  0.7460  0.0520
19979TIP3    H181428   2.870   4.281  11.807  0.1612 -0.4484 -1.0949
19979TIP3    H281429   2.766   4.283  11.917 -0.4332  0.6981 -1.6596
19980TIP3   OH281430   6.434   0.394   1.897  0.3367 -0.1847 -0.1854
19980TIP3    H181431   6.350   0.379   1.942  0.0406  0.3988 -0.5277
19980TIP3    H281432   6.461   0.481   1.927 -0.4361  0.7350 -1.9815
19981TIP3   OH281433   2.819   4.871   4.109 -0.0535  0.0162  0.1803
19981TIP3    H181434   2.903   4.827   4.122  0.0430  0.6001  1.6594
19981TIP3    H281435   2.754   4.806   4.136  0.0026  0.1461  0.6298
19982TIP3   OH281436   2.808   5.075  11.388 -0.3981  0.0086  0.1433
19982TIP3    H181437   2.723   5.085  11.345 -0.9345  0.3404  1.2470
19982TIP3    H281438   2.804   5.134  11.463 -0.2917 -2.0128  1.8249
19983TIP3   OH281439   6.276   6.407  11.010  0.1212  0.3571  0.3370
19983TIP3    H181440   6.365   6.417  11.043  0.6235 -0.3005 -0.7292
19983TIP3    H281441   6.220   6.421  11.086  1.1879 -0.7181  1.3842
19984TIP3   OH281442   1.840   2.480   1.071 -0.0199  0.1236 -0.5328
19984TIP3    H181443   1.887   2.559   1.044  2.1110 -0.2267  1.7086
19984TIP3    H281444   1.811   2.500   1.160  2.4711 -2.2238  0.9798
19985TIP3   OH281445   0.248   1.102   3.000  0.3292  0.3727  0.6170
19985TIP3    H181446   0.239   1.035   2.932  1.9894 -0.2858  1.0031
19985TIP3    H281447   0.173   1.160   2.986  0.0501 -0.3387 -1.1013
19986TIP3   OH281448   1.943   0.036   2.009  0.7302 -0.0345 -0.4589
19986TIP3    H181449   1.980   0.118   2.042  0.5260 -0.4232  0.7809
19986TIP3    H281450   2.019  -0.014   1.980  0.7154  1.4866 -3.4792
19987TIP3   OH281451   5.840   2.793   5.973 -0.0219  0.2388 -0.3307
19987TIP3    H181452   5.875   2.723   5.918  0.7947  0.7841 -0.5196
19987TIP3    H281453   5.909   2.859   5.975 -1.7743  2.3181 -2.4253
19988TIP3   OH281454   5.577   0.526  14.690 -0.1370  0.2088  0.4620
19988TIP3    H181455   5.619   0.578  14.621  0.7021 -1.1097 -0.0630
19988TIP3    H281456   5.615   0.559  14.771 -1.4920  2.1086  0.3690
19989TIP3   OH281457   1.363   2.685   3.279  0.6298  0.3401 -0.1394
19989TIP3    H181458   1.372   2.780   3.275  0.4850  0.3047 -1.5324
19989TIP3    H281459   1.441   2.655   3.325  0.5888  1.1261  0.4789
19990TIP3   OH281460   0.507   5.208   0.163  0.6705  0.0617 -0.1676
19990TIP3    H181461   0.482   5.157   0.240 -0.5842  0.7545 -0.0811
19990TIP3    H281462   0.482   5.152   0.089  0.9210 -0.1751 -0.0756
19991TIP3   OH281463   2.326   2.229   6.234 -0.9143 -0.3202  0.0271
19991TIP3    H181464   2.408   2.222   6.284  0.1410  0.1207 -1.5877
19991TIP3    H281465   2.336   2.166   6.163 -2.2499 -0.6822  0.1387
19992TIP3   OH281466   4.574   1.092   1.425  0.0968  0.1371  0.3948
19992TIP3    H181467   4.639   1.143   1.474 -0.5813 -0.0999  1.5711
19992TIP3    H281468   4.563   1.140   1.343  2.3592 -0.2679 -0.2214
19993TIP3   OH281469   0.368   3.765  14.862  0.6600  0.0953  0.2927
19993TIP3    H181470   0.292   3.714  14.835  1.2531 -0.3298 -0.6311
19993TIP3    H281471   0.382   3.741  14.953 -0.7669  0.7709  0.7183
19994TIP3   OH281472   1.280   1.262  16.929 -0.2578 -0.1053  0.1678
19994TIP3    H181473   1.359   1.239  16.978 -1.4432 -2.3243  1.1835
19994TIP3    H281474   1.233   1.322  16.988 -0.5218 -0.8394  0.7271
19995TIP3   OH281475   1.172   2.201   6.423 -0.2205  0.0035 -0.3305
19995TIP3    H181476   1.155   2.122   6.371  0.7160  1.1753 -2.5555
19995TIP3    H281477   1.088   2.247   6.424 -0.3734 -0.2706 -0.3761
19996TIP3   OH281478   6.706   2.759   2.037 -0.1982 -0.8778  0.3347
19996TIP3    H181479   6.797   2.750   2.067  0.3321 -0.3923 -1.0369
19996TIP3    H281480   6.667   2.822   2.097  0.4924 -0.7808  0.6948
19997TIP3   OH281481   1.991   6.097   1.560  0.2551 -0.0634 -0.4662
19997TIP3    H181482   1.967   6.019   1.509  0.3565  0.0812 -0.7397
19997TIP3    H281483   2.086   6.100   1.555  0.2694 -0.0947 -0.1975
19998TIP3   OH281484   2.055   3.022  11.847 -0.4291  0.2049 -0.1651
19998TIP3    H181485   1.994   2.974  11.793  0.1148 -0.1458 -0.4782
19998TIP3    H281486   2.044   2.986  11.935 -0.3622 -0.1600 -0.3062
19999TIP3   OH281487   3.675   4.094   1.329 -0.1984  0.1383 -0.2328
19999TIP3    H181488   3.727   4.085   1.249 -1.0633 -0.5181 -0.7337
19999TIP3    H281489   3.724   4.156   1.383 -0.4498  1.9136 -1.9655
20000TIP3   OH281490   0.214   0.802   5.653  0.2134 -0.3791  0.0862
20000TIP3    H181491   0.247   0.850   5.576 -0.0571  0.4622  0.4821
20000TIP3    H281492   0.121   0.826   5.657 -0.3967 -2.4066 -0.7816
20001TIP3   OH281493   2.412   0.458  15.694  0.0825 -0.0381  0.6235
20001TIP3    H181494   2.499   0.456  15.734  0.7016 -0.6816 -0.6735
20001TIP3    H281495   2.355   0.496  15.761  1.0590 -1.0430  2.0835
20002TIP3   OH281496   2.303   4.223   3.310  0.0322 -0.0238 -0.4194
20002TIP3    H181497   2.333   4.310   3.335 -1.6920  0.0799  1.5280
20002TIP3    H281498   2.220   4.212   3.357 -0.2104 -2.3869 -1.2891
20003TIP3   OH281499   4.583   1.183   0.488 -0.5077 -0.6057  0.2357
20003TIP3    H181500   4.650   1.167   0.423 -0.5465 -1.8462  0.4810
20003TIP3    H281501   4.502   1.151   0.448 -0.4059 -2.1076  1.1565
20004TIP3   OH281502   2.176   5.575   4.900  0.1454 -0.0148 -0.5751
20004TIP3    H181503   2.085   5.584   4.873  0.6005  0.3623 -2.0567
20004TIP3    H281504   2.184   5.483   4.926 -0.4357 -0.2839 -1.3114
20005TIP3   OH281505   0.689   3.161   5.440  0.2224 -0.3926 -0.0534
20005TIP3    H181506   0.729   3.239   5.402 -0.4760 -0.5179 -1.1159
20005TIP3    H281507   0.763   3.108   5.470  0.7762  0.0828 -0.5454
20006TIP3   OH281508   3.722   2.819  15.597 -0.0453 -0.6917  0.2378
20006TIP3    H181509   3.671   2.836  15.676 -0.0056  1.3814 -0.1357
20006TIP3    H281510   3.667   2.853  15.526  1.2591  0.3632 -0.3009
20007TIP3   OH281511   1.922   5.925   4.699 -0.3190  0.1423  0.3126
20007TIP3    H181512   1.899   5.832   4.705 -1.7432  0.4060 -0.5449
20007TIP3    H281513   1.980   5.931   4.623 -0.4130 -0.0235  0.2276
20008TIP3   OH281514   6.531   6.001   4.967 -0.1565  0.0160  0.0134
20008TIP3    H181515   6.484   6.047   5.037 -1.1387 -1.1083  0.1122
20008TIP3    H281516   6.463   5.970   4.908  0.6029  0.0664 -0.9169
20009TIP3   OH281517   3.604   2.924   2.062  0.0259  0.1755  0.5710
20009TIP3    H181518   3.519   2.965   2.075 -0.3122 -0.8612  1.8174
20009TIP3    H281519   3.618   2.871   2.141  1.6496  0.0196  0.2160
20010TIP3   OH281520   0.783   1.740  11.656  0.3361 -0.4710 -0.2381
20010TIP3    H181521   0.690   1.718  11.658  0.0702  0.5673 -0.1933
20010TIP3    H281522   0.808   1.732  11.564 -0.6408  2.3252 -0.8748
20011TIP3   OH281523   1.717   2.448   4.378  0.8226 -0.0027  0.0720
20011TIP3    H181524   1.756   2.368   4.413 -1.0822 -1.5716 -1.1634
20011TIP3    H281525   1.727   2.440   4.283 -0.2942  0.7314 -0.1203
20012TIP3   OH281526   0.223   0.161  17.116  0.5625 -0.3587 -0.2231
20012TIP3    H181527   0.132   0.153  17.146  0.4444 -0.4516 -0.6016
20012TIP3    H281528   0.241   0.078  17.071  0.7018 -0.1793 -0.5048
20013TIP3   OH281529   1.560   4.232   2.846 -0.3152 -0.2072 -0.4132
20013TIP3    H181530   1.643   4.273   2.822 -0.8659  0.5082 -1.1709
20013TIP3    H281531   1.513   4.223   2.763 -1.7238  1.0734  0.2012
20014TIP3   OH281532   2.957   2.715  15.917 -0.1035 -0.0302 -0.1701
20014TIP3    H181533   2.943   2.769  15.839 -1.5485  2.5595  1.7411
20014TIP3    H281534   2.883   2.655  15.918 -1.1626  1.2420  0.1810
20015TIP3   OH281535   3.203   1.456  14.042 -0.3839  0.2738 -1.0089
20015TIP3    H181536   3.267   1.487  14.105  0.5167 -0.5781 -1.4839
20015TIP3    H281537   3.130   1.518  14.049 -0.2239  0.3077  0.7205
20016TIP3   OH281538   2.525   1.930  12.681  0.2749  0.3047  0.0302
20016TIP3    H181539   2.448   1.899  12.729  0.1022  0.5797 -0.0714
20016TIP3    H281540   2.595   1.870  12.707  0.3623  0.8980  1.1986
20017TIP3   OH281541   6.754   1.840  10.585 -0.2124  0.0675 -0.2681
20017TIP3    H181542   6.783   1.860  10.496 -0.9552 -0.3287 -0.6094
20017TIP3    H281543   6.776   1.747  10.597  2.4375  0.7807  0.9959
20018TIP3   OH281544   1.921   1.302  15.329 -0.2461  0.2184 -0.6674
20018TIP3    H181545   2.013   1.302  15.303  0.0683 -0.1690  0.3990
20018TIP3    H281546   1.919   1.252  15.410 -1.4309  0.0722 -0.7722
20019TIP3   OH281547   2.656   2.020  15.937 -0.0351 -0.5254  0.2335
20019TIP3    H181548   2.637   2.109  15.966  2.4590  0.0906  0.1343
20019TIP3    H281549   2.573   1.989  15.901 -0.7855  2.0288 -0.4429
20020TIP3   OH281550   6.045   3.843  13.985  0.5333 -0.5950  0.2228
20020TIP3    H181551   6.035   3.894  14.065  0.3732  0.5467 -0.5092
20020TIP3    H281552   6.139   3.842  13.968  0.5416 -0.5991  0.2680
20021TIP3   OH281553   3.472   0.006  11.980  0.0418 -0.4541  0.4216
20021TIP3    H181554   3.404   0.072  11.966  0.8923  0.2386 -0.6354
20021TIP3    H281555   3.457  -0.059  11.910 -1.1385 -1.7277  1.7906
20022TIP3   OH281556   5.330   0.727  12.308 -0.1023  0.8220 -0.0482
20022TIP3    H181557   5.297   0.781  12.380  1.0174 -0.4567  1.4986
20022TIP3    H281558   5.420   0.706  12.332 -0.3741 -1.4102 -0.7426
20023TIP3   OH281559   0.071   6.566   3.560 -0.1837  0.2469  0.3666
20023TIP3    H181560  -0.007   6.610   3.525  0.4090  0.6391 -0.4883
20023TIP3    H281561   0.056   6.562   3.654 -0.4894  1.8149  0.4074
20024TIP3   OH281562   6.027   0.041  13.262 -0.1463  0.2491 -0.0728
20024TIP3    H181563   6.112   0.021  13.224 -0.5657 -0.7664 -0.5235
20024TIP3    H281564   6.015  -0.027  13.329 -1.0215 -0.2277 -0.6939
20025TIP3   OH281565   6.054   1.915   0.948  0.0449  0.1567 -0.1406
20025TIP3    H181566   6.126   1.853   0.934 -1.0563 -1.0442 -0.6501
20025TIP3    H281567   6.093   2.001   0.931  1.5640 -0.3873  0.4264
20026TIP3   OH281568   1.436   4.898   2.239  0.6443  0.3043 -0.0052
20026TIP3    H181569   1.377   4.951   2.292  0.4472  0.0198  0.0634
20026TIP3    H281570   1.484   4.962   2.185  0.2044  0.5319 -0.1346
20027TIP3   OH281571   1.548   0.241   6.752  0.6198  0.0972  0.0644
20027TIP3    H181572   1.600   0.180   6.804  0.7362 -0.2839 -0.4992
20027TIP3    H281573   1.588   0.239   6.665 -0.0632  0.1394 -0.2542
20028TIP3   OH281574   5.402   5.547   0.011  0.1463 -1.2880 -0.2208
20028TIP3    H181575   5.345   5.596  -0.049  0.0690 -0.7447  0.2832
20028TIP3    H281576   5.482   5.533  -0.039  0.2103 -0.5468 -0.3467
20029TIP3   OH281577   1.993   4.774   2.337 -0.2656 -0.2855  0.2821
20029TIP3    H181578   1.909   4.736   2.314 -0.5182 -0.4374  1.3919
20029TIP3    H281579   2.050   4.753   2.263 -1.6145  1.3175 -1.3275
20030TIP3   OH281580   4.842   0.112   0.809 -1.3373 -0.3913 -0.2951
20030TIP3    H181581   4.819   0.075   0.724 -2.0886 -2.8311  0.9045
20030TIP3    H281582   4.828   0.207   0.798 -2.6185 -0.7677 -2.4966
20031TIP3   OH281583   1.677   4.745  14.123  0.5228  0.1437  0.2643
20031TIP3    H181584   1.613   4.796  14.074 -0.1321 -0.0114  0.9222
20031TIP3    H281585   1.732   4.810  14.166 -0.5970  0.3531  1.4732
20032TIP3   OH281586   1.593   1.610  10.878  0.2753  0.1115  0.3186
20032TIP3    H181587   1.680   1.633  10.844 -1.1707  1.9335 -2.4693
20032TIP3    H281588   1.551   1.563  10.806 -0.5667 -2.3089  2.2308
20033TIP3   OH281589   2.218   1.417   2.839 -0.2341  0.4431 -0.2511
20033TIP3    H181590   2.157   1.394   2.769  0.7885 -1.0586 -0.6974
20033TIP3    H281591   2.304   1.406   2.801  0.3430  1.3886  0.7209
20034TIP3   OH281592   0.893   4.792  15.916 -0.5176 -0.2403 -0.2432
20034TIP3    H181593   0.921   4.775  16.006  2.0766  0.5947 -0.7925
20034TIP3    H281594   0.848   4.876  15.921 -0.7736 -0.4018  0.3203
20035TIP3   OH281595   6.280   0.073  12.284  0.7923 -0.0351  0.3427
20035TIP3    H181596   6.190   0.084  12.317  0.6902  2.0743 -0.4714
20035TIP3    H281597   6.285  -0.018  12.257 -1.6656  0.1582 -1.0793
20036TIP3   OH281598   2.008   6.386  11.182 -0.1518  0.4628  0.2113
20036TIP3    H181599   1.955   6.413  11.256  0.6518  1.0310  0.5964
20036TIP3    H281600   2.052   6.466  11.153 -2.2802  0.8025 -2.4389
20037TIP3   OH281601   6.051   6.790  14.787  0.1724  0.2055  0.2027
20037TIP3    H181602   5.980   6.725  14.790 -0.8788  1.3673  1.9270
20037TIP3    H281603   6.013   6.865  14.742  1.4440 -0.3580 -1.9468
20038TIP3   OH281604   0.100   1.608  15.949  0.5243  0.3076  0.4621
20038TIP3    H181605   0.156   1.638  16.020 -0.1768  3.9750 -0.2722
20038TIP3    H281606   0.160   1.579  15.881  1.4485  1.2943  0.8209
20039TIP3   OH281607   1.542   3.847  13.303 -0.0163  0.0054 -0.3461
20039TIP3    H181608   1.473   3.894  13.256  1.1015  1.6276 -0.4480
20039TIP3    H281609   1.617   3.849  13.244 -0.0151 -2.2949 -0.4972
20040TIP3   OH281610   1.261   3.920  11.409  0.5662 -0.2552  0.3672
20040TIP3    H181611   1.173   3.921  11.447  0.8869 -1.8928  1.2072
20040TIP3    H281612   1.256   3.982  11.336 -1.3139 -0.4406  0.3043
20041TIP3   OH281613   4.426   1.371   6.576  0.4261 -0.2050  0.1242
20041TIP3    H181614   4.472   1.379   6.660  0.8186  0.0566 -0.1143
20041TIP3    H281615   4.357   1.437   6.580 -0.0282 -0.6916  0.5384
20042TIP3   OH281616   1.822   2.976  15.908 -0.4969  0.9597  0.5196
20042TIP3    H181617   1.835   3.043  15.840 -1.9616  1.6414  0.8640
20042TIP3    H281618   1.887   2.909  15.889  0.2801  1.9682 -0.5054
20043TIP3   OH281619   1.086   6.290  14.502 -0.1427  0.1489 -0.4154
20043TIP3    H181620   1.028   6.362  14.479 -0.4961  0.2614  0.7405
20043TIP3    H281621   1.092   6.294  14.597  1.6335  0.0264 -0.4972
20044TIP3   OH281622   5.178   5.399  14.337  0.0165  0.0306  0.6027
20044TIP3    H181623   5.201   5.335  14.405  0.3733 -0.5002 -0.0140
20044TIP3    H281624   5.175   5.348  14.256  0.7248  0.8760  0.0370
20045TIP3   OH281625   5.256   0.724   2.682  0.3505  0.0897 -0.5948
20045TIP3    H181626   5.206   0.805   2.689 -1.1598 -0.8526 -0.1157
20045TIP3    H281627   5.231   0.674   2.760  2.2945 -0.2983 -0.1693
20046TIP3   OH281628   1.800   5.304   6.136  0.1312  0.0300  0.6777
20046TIP3    H181629   1.805   5.352   6.219 -0.2937  0.4349  0.4767
20046TIP3    H281630   1.846   5.222   6.152 -0.3616 -0.0964  1.4609
20047TIP3   OH281631   5.013   5.290   5.124  0.2996  0.3119  0.1937
20047TIP3    H181632   5.007   5.311   5.217 -0.3194  0.2222  0.1748
20047TIP3    H281633   4.928   5.316   5.087 -0.4016 -1.9063  0.1039
20048TIP3   OH281634   4.154   4.715  14.829  0.1021 -0.4193 -0.8795
20048TIP3    H181635   4.168   4.695  14.736 -1.3356 -1.2156 -0.9472
20048TIP3    H281636   4.236   4.688  14.872  0.4206 -0.9467 -1.7900
20049TIP3   OH281637   4.963   0.141  16.667  0.6976 -0.3021  0.5406
20049TIP3    H181638   4.944   0.169  16.757  0.5605  0.9134  0.1591
20049TIP3    H281639   4.880   0.151  16.621  1.2387  1.1465 -0.1981
20050TIP3   OH281640   4.600   2.024   1.617 -0.0928  0.9408 -0.1383
20050TIP3    H181641   4.527   2.083   1.637 -0.2599  0.4699  0.6376
20050TIP3    H281642   4.577   1.942   1.659 -1.0883 -0.5516 -3.2420
20051TIP3   OH281643   1.685   2.176  13.921 -0.0834 -0.2224  0.8215
20051TIP3    H181644   1.708   2.101  13.866 -1.5997 -0.2283  0.1539
20051TIP3    H281645   1.604   2.210  13.883 -0.4718  0.5773  2.2791
20052TIP3   OH281646   0.349   2.523  12.614  0.2068  0.5487  0.2250
20052TIP3    H181647   0.359   2.499  12.707  1.0883 -2.0304 -0.4514
20052TIP3    H281648   0.270   2.477  12.586  1.4651 -1.0484 -0.9231
20053TIP3   OH281649   3.864   5.186   2.309  0.4727  0.2994  0.3913
20053TIP3    H181650   3.824   5.270   2.331 -0.0159  0.1710  0.0219
20053TIP3    H281651   3.790   5.125   2.301  0.8523 -0.2576  1.0335
20054TIP3   OH281652   3.862   6.809   1.436 -0.2412 -0.5793 -0.2292
20054TIP3    H181653   3.841   6.809   1.343 -0.2707  2.3601 -0.3161
20054TIP3    H281654   3.801   6.746   1.475 -0.6713 -1.3697 -2.1010
20055TIP3   OH281655   1.440   3.503  13.821  0.2416 -0.1281  0.5276
20055TIP3    H181656   1.533   3.519  13.805  0.0333  1.6860  0.8823
20055TIP3    H281657   1.395   3.567  13.766 -0.7393  0.2330  1.6998
20056TIP3   OH281658   1.275   5.058  16.421 -0.0818 -0.5059 -0.3452
20056TIP3    H181659   1.215   4.987  16.443 -0.6760  0.2261  0.4665
20056TIP3    H281660   1.292   5.102  16.504  1.2283 -0.4115 -0.6385
20057TIP3   OH281661   5.662   0.330   1.909 -0.3368  0.0685  0.6420
20057TIP3    H181662   5.706   0.411   1.882  0.5669 -0.2719  1.0615
20057TIP3    H281663   5.731   0.264   1.911 -1.2754 -1.0347 -0.9057
20058TIP3   OH281664   6.124   4.612  14.698  0.1594 -0.0502 -0.1045
20058TIP3    H181665   6.109   4.701  14.668  2.5101  0.2768 -0.5576
20058TIP3    H281666   6.164   4.568  14.623  0.2241 -1.1082  0.5272
20059TIP3   OH281667   4.688   6.270   2.680 -0.0506  0.4266  1.0224
20059TIP3    H181668   4.667   6.318   2.600 -0.4363 -2.1225 -0.5215
20059TIP3    H281669   4.779   6.293   2.699 -0.1266  1.5056  0.2139
20060TIP3   OH281670   3.266   2.322  13.297 -0.2737  0.2205 -0.5834
20060TIP3    H181671   3.176   2.330  13.328 -1.0783 -2.3420 -1.9579
20060TIP3    H281672   3.280   2.400  13.243 -1.1153  1.4024  0.8504
20061TIP3   OH281673   6.442   1.040   4.551  0.8014 -0.1195 -1.1038
20061TIP3    H181674   6.487   0.992   4.620  0.5111 -1.0851 -1.5624
20061TIP3    H281675   6.488   1.014   4.470 -0.1836 -0.6647 -1.5050
20062TIP3   OH281676   5.113   4.409  11.227 -0.5904  0.4508  0.2291
20062TIP3    H181677   5.080   4.497  11.206 -0.0095  0.3259 -1.3406
20062TIP3    H281678   5.037   4.362  11.259 -1.0762  1.3131  0.3735
20063TIP3   OH281679   3.929   5.683   3.944 -0.0562 -0.3963 -0.8668
20063TIP3    H181680   3.843   5.665   3.984  0.8038 -0.9149  0.8764
20063TIP3    H281681   3.989   5.688   4.019  1.7091 -1.6106 -2.1225
20064TIP3   OH281682   2.030   2.141   2.583 -0.5637 -0.5206  0.1512
20064TIP3    H181683   1.987   2.145   2.498 -2.3282 -0.0183  1.0260
20064TIP3    H281684   2.061   2.231   2.598 -0.3152 -0.5932  0.0818
20065TIP3   OH281685   1.502   0.075   4.829  0.2476 -0.4207 -0.0484
20065TIP3    H181686   1.414   0.110   4.817 -0.0421 -0.7954  0.9307
20065TIP3    H281687   1.558   0.136   4.782 -0.2238  1.5021  1.7409
20066TIP3   OH281688   2.780   0.418   2.665 -0.7590 -0.1434  0.1144
20066TIP3    H181689   2.795   0.346   2.727 -2.5106 -0.8084 -0.1754
20066TIP3    H281690   2.685   0.418   2.651 -0.5638  0.9297 -1.4493
20067TIP3   OH281691   5.559   3.014   1.985  0.3249  0.4125  0.0262
20067TIP3    H181692   5.644   3.032   2.025  0.4812  1.9098 -0.8971
20067TIP3    H281693   5.573   2.934   1.933  1.3665  1.0155 -0.6458
20068TIP3   OH281694   6.252   1.044  16.304  0.5716  0.1278  0.1370
20068TIP3    H181695   6.224   1.130  16.334 -0.1185 -0.3695  0.9943
20068TIP3    H281696   6.306   1.010  16.375 -0.8428 -0.9518  0.7382
20069TIP3   OH281697   4.342   1.333  14.608 -0.0885  0.1608 -0.2547
20069TIP3    H181698   4.396   1.355  14.684  2.1094  0.9489 -1.9441
20069TIP3    H281699   4.340   1.237  14.608 -0.0860  0.1454  0.7628
20070TIP3   OH281700   2.607   6.298   4.374  0.4319 -0.5007  0.4245
20070TIP3    H181701   2.630   6.327   4.462 -2.2773 -1.5131  1.5882
20070TIP3    H281702   2.665   6.347   4.316  1.1808  1.4277  2.6629
20071TIP3   OH281703   1.001   6.210  10.803 -0.3243  0.5201 -0.2925
20071TIP3    H181704   0.997   6.114  10.801  1.1719  0.4279 -0.4541
20071TIP3    H281705   0.910   6.238  10.801 -0.7824 -0.8942 -0.6759
20072TIP3   OH281706   3.345   3.181  13.209 -0.1739  0.4957  0.1315
20072TIP3    H181707   3.312   3.098  13.174 -1.8629  0.7697  0.9783
20072TIP3    H281708   3.367   3.232  13.131  0.3311 -0.5236 -0.4134
20073TIP3   OH281709   4.858   0.307  16.388  0.0788  0.4590  0.3138
20073TIP3    H181710   4.849   0.219  16.351  2.8232 -0.5929  1.8518
20073TIP3    H281711   4.919   0.352  16.329  0.6384  0.4478  0.8731
20074TIP3   OH281712   5.672   2.074   3.132  0.5534  0.2548 -0.0620
20074TIP3    H181713   5.748   2.096   3.185 -0.8098  0.6362  1.8238
20074TIP3    H281714   5.605   2.049   3.195 -1.0590  0.4063 -1.6356
20075TIP3   OH281715   2.021   5.130  12.387 -0.3707  0.2447  0.1129
20075TIP3    H181716   1.965   5.094  12.318 -1.1300 -0.0964  0.8940
20075TIP3    H281717   2.008   5.071  12.462  1.4579 -0.1720  0.1572
20076TIP3   OH281718   6.090   0.349  15.581 -0.3783 -0.3277  0.2523
20076TIP3    H181719   6.081   0.411  15.654  1.3386 -1.9954  1.9822
20076TIP3    H281720   6.002   0.315  15.568 -0.7690  0.1732  1.3945
20077TIP3   OH281721   4.068   0.099   4.250 -0.4052  0.6419  0.6408
20077TIP3    H181722   4.011   0.035   4.292  0.0163  1.1647  2.0554
20077TIP3    H281723   4.128   0.127   4.319  1.4045  0.3227 -0.7255
20078TIP3   OH281724   3.030   1.606   3.049 -0.7277  0.0745  0.0718
20078TIP3    H181725   2.982   1.689   3.038 -0.8311 -0.1228 -1.1306
20078TIP3    H281726   3.110   1.631   3.095 -1.5170  0.5699  1.2070
20079TIP3   OH281727   0.448   0.267  13.616  0.0234 -0.3997 -0.8022
20079TIP3    H181728   0.484   0.292  13.702 -1.6919 -1.2383  0.2008
20079TIP3    H281729   0.514   0.209  13.579 -0.1498 -1.7432  0.9080
20080TIP3   OH281730   1.930   2.940  14.675  0.1789  0.1605 -0.2117
20080TIP3    H181731   1.866   3.010  14.665  1.2463  1.5499  2.0299
20080TIP3    H281732   2.005   2.968  14.623  0.0585 -0.0500 -0.5016
20081TIP3   OH281733   1.961   4.969  14.831  0.0859  0.1383  0.0145
20081TIP3    H181734   2.003   4.886  14.808 -2.1425 -0.7665 -1.0437
20081TIP3    H281735   2.033   5.024  14.864  1.5195 -2.4066  1.4163
20082TIP3   OH281736   5.371   0.275  12.348  0.0646 -0.9110 -0.1119
20082TIP3    H181737   5.379   0.303  12.257 -0.5113 -0.6818 -0.0987
20082TIP3    H281738   5.460   0.252  12.375  0.4584  0.2854 -0.3309
20083TIP3   OH281739   1.733   0.831   6.011  0.3033 -0.3220 -0.2355
20083TIP3    H181740   1.789   0.756   6.031 -0.9121 -0.9838  0.8305
20083TIP3    H281741   1.772   0.870   5.933  1.2443 -1.7640 -0.5158
20084TIP3   OH281742   2.038   4.158  15.387 -0.3509  0.1295 -1.4031
20084TIP3    H181743   2.044   4.063  15.397  0.1996  0.2668 -0.2742
20084TIP3    H281744   1.983   4.187  15.459 -1.4123  0.5745 -2.3633
20085TIP3   OH281745   0.500   5.272   3.384  0.3892 -0.0094  0.1426
20085TIP3    H181746   0.457   5.250   3.302  1.6040  0.4107 -0.6200
20085TIP3    H281747   0.429   5.308   3.439 -0.0914  1.5385 -1.4041
20086TIP3   OH281748   6.038   3.716  15.649 -0.4309 -0.0812 -0.6201
20086TIP3    H181749   6.046   3.643  15.711  1.5573  0.1243 -0.5898
20086TIP3    H281750   6.111   3.703  15.588  1.4621  3.1419  0.7388
20087TIP3   OH281751   2.414   1.211   6.091 -0.3035  0.1983  0.0562
20087TIP3    H181752   2.426   1.250   6.005 -1.3716  2.4410  0.8379
20087TIP3    H281753   2.500   1.218   6.133  0.2663 -1.0670 -0.8267
20088TIP3   OH281754   0.082   6.227   0.469 -0.0145  0.1093  0.4246
20088TIP3    H181755   0.050   6.315   0.485  0.5113  0.2393  0.8047
20088TIP3    H281756   0.120   6.231   0.381  0.2581  0.3417  0.5502
20089TIP3   OH281757   2.643   4.366  11.999 -0.4030 -0.0132 -0.2014
20089TIP3    H181758   2.613   4.406  11.917 -0.7233 -0.3893 -0.2718
20089TIP3    H281759   2.688   4.437  12.045 -1.3477  0.5488 -0.1253
20090TIP3   OH281760   3.835   5.723   6.174 -0.8934  0.4909  0.4601
20090TIP3    H181761   3.748   5.686   6.160  0.0213 -1.0565 -1.7528
20090TIP3    H281762   3.824   5.784   6.247 -3.3674 -1.1209  1.5600
20091TIP3   OH281763   5.646   3.140  15.220  0.6958 -0.0850  0.3306
20091TIP3    H181764   5.583   3.077  15.185 -0.3637  1.4832 -0.7308
20091TIP3    H281765   5.672   3.193  15.145  0.0861  1.9407  1.4595
20092TIP3   OH281766   6.491   1.752   5.819  0.2532 -0.1989 -0.6963
20092TIP3    H181767   6.567   1.697   5.838  1.7691  1.7060 -0.9756
20092TIP3    H281768   6.421   1.716   5.873  1.1969 -2.2964 -0.7852
20093TIP3   OH281769   6.514   5.092  12.934 -0.4812  0.1696  0.2093
20093TIP3    H181770   6.528   5.169  12.879 -0.6928  0.4707  0.5669
20093TIP3    H281771   6.539   5.121  13.022  0.7172 -0.5694  0.1336
20094TIP3   OH281772   0.854   2.800   4.469 -0.1478  0.3994  0.4286
20094TIP3    H181773   0.772   2.827   4.511 -1.7074 -3.5139  0.3502
20094TIP3    H281774   0.852   2.841   4.383 -4.7871 -3.2357 -1.6433
20095TIP3   OH281775   4.200   4.733  12.399  0.1900 -0.2848  0.2243
20095TIP3    H181776   4.220   4.823  12.373 -2.6372 -0.0938 -1.7426
20095TIP3    H281777   4.138   4.742  12.471  2.7332 -0.8072  2.6494
20096TIP3   OH281778   4.965   5.544  11.297  0.0167 -0.3164  0.0728
20096TIP3    H181779   4.971   5.602  11.220  0.3467  1.6164  1.4603
20096TIP3    H281780   5.032   5.478  11.282  1.0564  0.8533 -0.6777
20097TIP3   OH281781   4.558   1.042  12.362  0.2635  0.2860 -0.2293
20097TIP3    H181782   4.557   1.007  12.272  1.9415 -0.9725  0.1833
20097TIP3    H281783   4.565   0.964  12.417 -2.3730  0.9136  1.1347
20098TIP3   OH281784   4.427   5.007  17.177 -0.2322 -0.3154  0.4962
20098TIP3    H181785   4.373   4.934  17.146 -0.5582 -0.2156  0.8163
20098TIP3    H281786   4.409   5.011  17.271  0.6978 -0.5811  0.6932
20099TIP3   OH281787   0.361   6.512   4.473 -0.5116  0.5570  0.3362
20099TIP3    H181788   0.398   6.441   4.526  0.4850  2.6684  2.6592
20099TIP3    H281789   0.388   6.491   4.384  1.4145 -0.9667  1.1981
20100TIP3   OH281790   6.214   1.066  15.221  0.4301 -0.2779 -0.1109
20100TIP3    H181791   6.184   1.036  15.307 -0.3678  0.3721 -0.1525
20100TIP3    H281792   6.300   1.105  15.238  0.6517 -0.9066  0.2460
20101TIP3   OH281793   6.777   2.165  13.918  0.0732  0.1722 -0.0804
20101TIP3    H181794   6.722   2.244  13.918 -0.9703 -0.5093 -1.5135
20101TIP3    H281795   6.729   2.103  13.863  2.1405 -0.5465 -1.1765
20102TIP3   OH281796   0.820   6.179  16.890 -0.2085  0.1274 -0.1018
20102TIP3    H181797   0.831   6.272  16.909 -2.0954  0.3929 -0.1127
20102TIP3    H281798   0.729   6.160  16.916 -0.0688 -1.5476 -0.7371
20103TIP3   OH281799   3.868   0.902  15.565  0.8515  0.1414 -0.0507
20103TIP3    H181800   3.922   0.958  15.510  0.3311 -1.5860 -2.4815
20103TIP3    H281801   3.931   0.846  15.611  1.2477  0.5902 -0.0397
20104TIP3   OH281802   5.527   1.991  11.849  0.3516 -0.1331 -0.0543
20104TIP3    H181803   5.510   1.939  11.928  1.4916  3.5324  2.9206
20104TIP3    H281804   5.441   2.027  11.826 -0.1477 -1.8833 -1.1771
20105TIP3   OH281805   2.522   3.234  13.543 -0.3201 -0.2751  0.5453
20105TIP3    H181806   2.546   3.146  13.512  0.1399 -0.5392  1.5972
20105TIP3    H281807   2.507   3.223  13.637  2.9364  1.3273  1.4041
20106TIP3   OH281808   3.825   3.965   1.553  0.0792  0.8307 -0.1154
20106TIP3    H181809   3.874   4.019   1.616 -0.3229  0.5978  0.3991
20106TIP3    H281810   3.885   3.954   1.480  1.5923 -1.1242  1.3226
20107TIP3   OH281811   2.740   3.163  11.782  0.0172  0.4655  0.1953
20107TIP3    H181812   2.655   3.139  11.819 -0.5358  0.2737 -1.1562
20107TIP3    H281813   2.724   3.246  11.737  0.9637  1.3158  1.3443
20108TIP3   OH281814   4.526   3.665   0.922  0.3208  0.6205 -0.1970
20108TIP3    H181815   4.458   3.686   0.986 -0.9880  1.3539 -1.7413
20108TIP3    H281816   4.598   3.629   0.974 -0.5647  1.4340  1.6953
20109TIP3   OH281817   2.790   5.591  15.428 -0.1059 -0.0292 -0.3590
20109TIP3    H181818   2.760   5.573  15.517 -0.1126  0.7525 -0.1918
20109TIP3    H281819   2.736   5.666  15.400  1.2000  0.9654 -0.3033
20110TIP3   OH281820   0.481   5.817   3.647 -0.1317 -0.1368  0.1539
20110TIP3    H181821   0.493   5.742   3.589 -3.0453 -0.4864 -0.1235
20110TIP3    H281822   0.440   5.884   3.593 -0.7376  0.3895  1.2288
20111TIP3   OH281823   2.338   3.555   4.879  0.7793  0.5014  0.0870
20111TIP3    H181824   2.249   3.540   4.910  1.0536  0.5814  0.9449
20111TIP3    H281825   2.374   3.468   4.866  0.6761  0.4664  0.0295
20112TIP3   OH281826   5.281   0.958  12.160  0.0205  0.0401  0.2723
20112TIP3    H181827   5.293   0.880  12.214 -1.3040 -1.8614 -1.9723
20112TIP3    H281828   5.366   0.971  12.118  0.0422 -0.7044  0.0687
20113TIP3   OH281829   3.556   4.415  17.157  0.0497 -0.2189  0.3110
20113TIP3    H181830   3.575   4.343  17.097  1.2909  0.2403  0.1185
20113TIP3    H281831   3.639   4.431  17.203  0.0808  1.6838 -0.3119
20114TIP3   OH281832   3.889   2.214   3.610  0.5119  0.1850  0.1558
20114TIP3    H181833   3.914   2.160   3.685  0.9109  0.4018  0.1829
20114TIP3    H281834   3.798   2.191   3.594  1.1877 -1.8877 -1.0317
20115TIP3   OH281835   3.719   1.444  14.489  0.7608  1.1314 -0.4247
20115TIP3    H181836   3.775   1.511  14.449 -0.2638  3.2042  1.3851
20115TIP3    H281837   3.778   1.393  14.544  1.2104  1.9461 -0.1441
20116TIP3   OH281838   3.072   2.130   3.553  0.3548 -0.7057  0.4158
20116TIP3    H181839   3.064   2.223   3.530  3.6261 -0.2023  0.9049
20116TIP3    H281840   2.993   2.090   3.517 -0.5998  2.0536 -0.8368
20117TIP3   OH281841   0.286   5.381  11.271 -0.2250 -0.3025  0.2006
20117TIP3    H181842   0.220   5.419  11.214  0.3307  0.0658 -0.2083
20117TIP3    H281843   0.317   5.303  11.225  1.2697  0.7909 -0.7282
20118TIP3   OH281844   3.403   1.534  13.143  0.5091 -0.5820  0.4962
20118TIP3    H181845   3.419   1.587  13.221  0.3284 -2.4138  1.8541
20118TIP3    H281846   3.483   1.482  13.133  0.2896 -0.7967 -0.1831
20119TIP3   OH281847   5.305   4.355  16.154 -0.1261  0.3734  0.0603
20119TIP3    H181848   5.261   4.418  16.096  2.6578  1.5302 -0.9961
20119TIP3    H281849   5.297   4.271  16.108 -1.0783  0.5795 -0.1648
20120TIP3   OH281850   5.576   4.885  13.248 -0.4058 -0.4745 -0.1977
20120TIP3    H181851   5.496   4.932  13.223 -0.0801  0.9112  1.2346
20120TIP3    H281852   5.559   4.794  13.223 -2.3263 -0.1693 -0.1620
20121TIP3   OH281853   3.381   3.205   4.690 -0.0871 -0.4846  0.1975
20121TIP3    H181854   3.385   3.246   4.604 -0.2281 -0.8129  0.0315
20121TIP3    H281855   3.290   3.179   4.699 -0.3073  0.4562  0.8776
20122TIP3   OH281856   3.283   3.361   3.690 -0.2213  0.6162  0.0339
20122TIP3    H181857   3.325   3.300   3.630  2.2082  0.4965  1.7194
20122TIP3    H281858   3.307   3.448   3.657  1.1559  0.5508  0.8139
20123TIP3   OH281859   1.981   2.813  15.635  0.2860 -0.6120 -0.2392
20123TIP3    H181860   2.073   2.825  15.610  0.4537 -0.5950  0.3593
20123TIP3    H281861   1.986   2.774  15.722 -0.2726  2.0907  1.0904
20124TIP3   OH281862   3.496   2.341  16.410 -0.7470  0.2709  0.0273
20124TIP3    H181863   3.493   2.264  16.467  0.3230  2.4743  3.3802
20124TIP3    H281864   3.503   2.415  16.470 -0.5552  2.9566 -3.0200
20125TIP3   OH281865   4.802   1.985  11.114  0.4127 -0.1001 -0.4825
20125TIP3    H181866   4.819   1.943  11.030 -1.6726  0.4094 -1.2198
20125TIP3    H281867   4.837   2.074  11.104 -0.4503  0.1833 -1.0963
20126TIP3   OH281868   0.336   1.368   1.629 -0.4444 -0.2574 -0.4335
20126TIP3    H181869   0.332   1.320   1.546 -1.3809  2.1643 -1.9004
20126TIP3    H281870   0.292   1.312   1.692  2.0183 -3.0763 -0.9869
20127TIP3   OH281871   1.599   5.884   5.649  0.0583  1.0652  0.8786
20127TIP3    H181872   1.551   5.917   5.573  0.4988  0.1752  0.1965
20127TIP3    H281873   1.682   5.853   5.613 -0.4682 -1.0918  1.3985
20128TIP3   OH281874   1.538   0.588   0.993  0.7550  0.5401  0.3401
20128TIP3    H181875   1.531   0.610   0.900  2.5538  0.9274  0.2669
20128TIP3    H281876   1.590   0.658   1.031  2.0014 -0.7911  1.1870
20129TIP3   OH281877   5.959   4.468  16.560 -0.1505  0.4233  0.2524
20129TIP3    H181878   5.907   4.503  16.631  1.4221 -1.6980  2.6300
20129TIP3    H281879   6.041   4.516  16.564  0.5169 -0.7145  0.9573
20130TIP3   OH281880   4.939   6.281   1.418 -0.2561  0.3388  0.3648
20130TIP3    H181881   4.934   6.338   1.342  0.9464  0.3775  0.3027
20130TIP3    H281882   4.997   6.327   1.479 -0.4485 -0.1322  0.9105
20131TIP3   OH281883   3.979   1.118  15.427  0.0068  0.2657 -0.4653
20131TIP3    H181884   4.031   1.148  15.502  0.3227  0.1273 -0.6266
20131TIP3    H281885   3.989   1.186  15.361 -1.4681  1.1094  0.1409
20132TIP3   OH281886   1.532   0.402  12.376  0.4430  0.0997  0.0178
20132TIP3    H181887   1.569   0.407  12.288  0.4462  1.9907  0.0945
20132TIP3    H281888   1.437   0.409  12.363  0.3660 -0.6867  0.1042
20133TIP3   OH281889   2.669   0.589  12.071  0.0498 -0.2385  0.3276
20133TIP3    H181890   2.635   0.649  12.004  0.8390  0.1736  0.2908
20133TIP3    H281891   2.753   0.626  12.096  0.6073 -1.4055  0.2217
20134TIP3   OH281892   6.204   5.405  13.235 -0.0487  0.0021 -0.5015
20134TIP3    H181893   6.186   5.328  13.288  1.6703 -0.2383 -0.2154
20134TIP3    H281894   6.232   5.370  13.151 -0.0228  0.3395 -0.6367
20135TIP3   OH281895   5.730   2.540  11.706  0.0064  0.0101  0.1873
20135TIP3    H181896   5.819   2.508  11.692 -0.9091 -2.5808 -0.2261
20135TIP3    H281897   5.704   2.504  11.790 -0.1434  2.1200  1.1132
20136TIP3   OH281898   4.234   1.753  12.916 -0.2675 -0.0169 -0.1917
20136TIP3    H181899   4.158   1.700  12.940  0.7276 -1.6914 -0.5445
20136TIP3    H281900   4.277   1.704  12.846  0.0311  1.9214 -1.4179
20137TIP3   OH281901   4.921   3.641   3.246 -0.1571  0.2961  0.4986
20137TIP3    H181902   5.012   3.618   3.230  0.0950  1.2961  0.4428
20137TIP3    H281903   4.872   3.560   3.227  0.7270 -0.3101  0.7514
20138TIP3   OH281904   3.045   3.484  15.227  0.3561 -0.1366 -0.3122
20138TIP3    H181905   3.109   3.458  15.161  0.0810 -2.3215  0.1924
20138TIP3    H281906   3.075   3.442  15.308 -1.1720 -0.4177  0.1513
20139TIP3   OH281907   2.997   4.770  14.623 -0.4285  0.0069  0.1354
20139TIP3    H181908   3.057   4.704  14.660 -1.0170 -0.4703  0.2520
20139TIP3    H281909   2.978   4.738  14.536 -0.7530  0.0053  0.2083
20140TIP3   OH281910   4.736   3.063  13.717 -0.1372 -0.0354  0.7487
20140TIP3    H181911   4.739   3.153  13.749  1.1253  0.0407  0.4792
20140TIP3    H281912   4.784   3.013  13.783  1.8779  0.0138 -0.5941
20141TIP3   OH281913   5.942   1.473   5.123  0.3775  0.5962  0.1142
20141TIP3    H181914   5.891   1.544   5.085  0.4021 -1.2751 -3.9114
20141TIP3    H281915   5.877   1.408   5.149  0.4715 -0.1944 -1.5015
20142TIP3   OH281916   6.045   2.555   0.986  0.1208  0.2679  0.4517
20142TIP3    H181917   6.111   2.532   1.051  1.5751 -1.4686 -1.4967
20142TIP3    H281918   5.970   2.499   1.007  0.6584 -0.4361  0.5595
20143TIP3   OH281919   1.639   0.290   1.533 -0.2379 -0.5090 -0.4695
20143TIP3    H181920   1.581   0.251   1.598 -2.7102  1.6704 -1.1779
20143TIP3    H281921   1.649   0.381   1.562  2.2141 -0.5881 -0.8613
20144TIP3   OH281922   5.804   2.382   4.525  0.4183 -0.0852 -1.0397
20144TIP3    H181923   5.725   2.429   4.497  0.4840  0.0954 -0.9298
20144TIP3    H281924   5.872   2.413   4.465  0.6329  0.5573 -0.4774
20145TIP3   OH281925   5.508   6.137   2.760  0.6149  0.1076 -0.5288
20145TIP3    H181926   5.529   6.047   2.785 -1.2899 -0.0034  0.9638
20145TIP3    H281927   5.586   6.169   2.716  0.6733 -2.9275 -3.0228
20146TIP3   OH281928   4.941   0.328  14.216  0.1920 -0.7009 -0.4480
20146TIP3    H181929   4.870   0.301  14.275  1.3232  1.0295  1.8996
20146TIP3    H281930   5.007   0.260  14.225  0.2574 -0.5659  0.1320
20147TIP3   OH281931   2.495   0.841  16.053 -0.1108 -0.6103  0.0296
20147TIP3    H181932   2.462   0.784  15.984 -0.2912  0.4377 -0.7665
20147TIP3    H281933   2.484   0.790  16.133  0.9983 -2.2358 -0.7999
20148TIP3   OH281934   4.889   4.167   4.587  0.0069 -0.5969 -0.1403
20148TIP3    H181935   4.810   4.181   4.535  0.5072 -0.3897 -0.8615
20148TIP3    H281936   4.884   4.233   4.656 -1.6458 -2.1283  1.2959
20149TIP3   OH281937   3.664   5.603   2.123 -0.3673 -0.1208  0.1281
20149TIP3    H181938   3.602   5.618   2.195 -0.2693 -0.5699  0.3120
20149TIP3    H281939   3.609   5.582   2.048 -0.4452 -0.4368  0.2715
20150TIP3   OH281940   0.384   1.317  15.402  0.0213 -0.0421  0.3176
20150TIP3    H181941   0.342   1.404  15.399  2.3504  1.1414 -0.8085
20150TIP3    H281942   0.453   1.327  15.467 -0.0744 -1.2624  0.6108
20151TIP3   OH281943   3.885   2.164  14.910  0.2596  0.3072  0.6563
20151TIP3    H181944   3.929   2.101  14.852 -1.0148  0.0503 -0.0616
20151TIP3    H281945   3.936   2.244  14.901  1.6825 -0.4819  1.2833
20152TIP3   OH281946   1.396   5.474   3.367  0.1832  0.3773  0.0049
20152TIP3    H181947   1.486   5.504   3.355 -0.6336  2.6293 -1.1083
20152TIP3    H281948   1.376   5.428   3.285 -1.3030  4.6651 -2.3373
20153TIP3   OH281949   2.352   3.781   3.777 -0.0381  0.1854  0.2588
20153TIP3    H181950   2.443   3.753   3.764  0.2251  0.6524  1.0247
20153TIP3    H281951   2.308   3.704   3.812 -0.1778 -0.3373 -1.0224
20154TIP3   OH281952   1.793   2.862  12.547  0.1410  0.7061 -0.0947
20154TIP3    H181953   1.713   2.812  12.567  0.1833  0.2644 -0.9889
20154TIP3    H281954   1.813   2.908  12.629  0.9679 -1.9141  1.2733
20155TIP3   OH281955   6.006   2.057  16.736 -0.4752 -0.0927 -0.9875
20155TIP3    H181956   6.086   2.108  16.726 -0.4971  0.0314 -0.5541
20155TIP3    H281957   6.021   1.978  16.683  0.0712 -0.2277 -0.6439
20156TIP3   OH281958   6.597   6.689   3.146 -0.7113 -0.3881  0.2654
20156TIP3    H181959   6.518   6.717   3.099 -1.0454 -1.6306  0.0559
20156TIP3    H281960   6.566   6.620   3.205  0.1198 -0.4651  0.6180
20157TIP3   OH281961   4.463   4.216  11.019  0.6509 -0.2614  0.1570
20157TIP3    H181962   4.450   4.122  11.010 -0.5947 -0.4311  2.7066
20157TIP3    H281963   4.424   4.254  10.940  0.5521 -1.8276 -0.5727
20158TIP3   OH281964   5.351   6.112   3.401 -0.3332 -0.1855 -0.8433
20158TIP3    H181965   5.318   6.201   3.393  2.0688  0.9676  1.1628
20158TIP3    H281966   5.446   6.121   3.408 -0.1972 -2.5895  2.5616
20159TIP3   OH281967   1.478   3.287  11.648  0.1982  0.7296  0.1972
20159TIP3    H181968   1.429   3.360  11.609  0.0026  0.7611  0.4962
20159TIP3    H281969   1.570   3.308  11.633  0.1497  1.1531  0.4818
20160TIP3   OH281970   2.826   3.040   4.728 -0.3392 -0.0505 -0.0676
20160TIP3    H181971   2.771   3.087   4.666  1.6525  0.2751 -1.7017
20160TIP3    H281972   2.812   2.947   4.708 -0.4678  0.0202 -0.3047
20161TIP3   OH281973   6.464   4.478  10.954  0.1306 -0.8823 -0.7026
20161TIP3    H181974   6.448   4.405  11.014 -3.4204 -0.3009 -0.7205
20161TIP3    H281975   6.388   4.479  10.896 -0.2016  3.0669 -0.4689
20162TIP3   OH281976   3.255   6.788  13.601 -0.2160 -0.1469  0.5681
20162TIP3    H181977   3.221   6.877  13.594 -0.7193 -0.2987  1.0841
20162TIP3    H281978   3.243   6.752  13.513  0.2705  0.3889  0.2737
20163TIP3   OH281979   3.674   0.089   6.492  0.6052  0.3668 -0.5545
20163TIP3    H181980   3.593   0.115   6.535  0.9276  0.8267 -0.2177
20163TIP3    H281981   3.646   0.028   6.423 -0.0286  0.5624 -0.4776
20164TIP3   OH281982   0.409   4.459   2.947  0.0353  0.1424 -0.2470
20164TIP3    H181983   0.500   4.436   2.928  0.5913  1.9584 -0.0296
20164TIP3    H281984   0.358   4.406   2.887  1.2465 -0.8563 -0.4356
20165TIP3   OH281985   0.495   5.767  16.348 -0.3459  0.3358  0.2676
20165TIP3    H181986   0.454   5.831  16.290 -1.3552 -0.6209 -0.1151
20165TIP3    H281987   0.438   5.766  16.425  0.0100  0.3433  0.5302
20166TIP3   OH281988   3.512   2.114   1.704 -0.4410  0.1299 -0.3544
20166TIP3    H181989   3.537   2.076   1.789  1.2432  0.7714 -0.5216
20166TIP3    H281990   3.574   2.076   1.642 -1.4844 -0.1194 -1.2752
20167TIP3   OH281991   5.327   5.593  12.695 -0.0244  0.1074  0.2835
20167TIP3    H181992   5.320   5.510  12.649 -0.0611  0.8776 -1.1657
20167TIP3    H281993   5.411   5.587  12.743 -0.0311 -0.7443  0.2037
20168TIP3   OH281994   1.207   3.804   1.828 -0.0769 -0.0880 -0.5953
20168TIP3    H181995   1.197   3.709   1.819 -0.6736 -0.0760 -0.0772
20168TIP3    H281996   1.155   3.839   1.756 -1.0849 -0.1208  0.1009
20169TIP3   OH281997   1.979   4.341  15.094  0.3684  0.4070 -0.3166
20169TIP3    H181998   1.962   4.378  15.180 -0.5760  1.0115 -0.7471
20169TIP3    H281999   2.075   4.332  15.090  0.3900 -0.0624  0.9482
20170TIP3   OH282000   4.557   3.274   1.927  0.0615  0.0090 -0.6226
20170TIP3    H182001   4.526   3.184   1.938 -0.8210  0.1751 -1.5830
20170TIP3    H282002   4.485   3.328   1.960  1.0146  0.3819  0.9613
20171TIP3   OH282003   0.670   6.407   4.712  0.0994  0.6492 -1.0607
20171TIP3    H182004   0.659   6.496   4.681  0.4134  0.7096 -1.0053
20171TIP3    H282005   0.761   6.385   4.691 -0.4459 -0.2588 -2.5871
20172TIP3   OH282006   1.523   0.858  13.740  0.1575  0.3028  0.4593
20172TIP3    H182007   1.466   0.790  13.704 -0.1259  0.4672  0.5949
20172TIP3    H282008   1.472   0.897  13.811 -0.4110  1.8721 -0.7500
20173TIP3   OH282009   2.513   2.381   4.978 -0.1655 -0.1793 -0.4481
20173TIP3    H182010   2.533   2.310   4.917 -0.9116 -0.1484 -0.7345
20173TIP3    H282011   2.535   2.346   5.064  0.7190 -0.2892 -0.7126
20174TIP3   OH282012   0.372   4.800  17.179 -0.1918  0.2979  0.4927
20174TIP3    H182013   0.445   4.738  17.174  0.0704  0.5354  1.2043
20174TIP3    H282014   0.339   4.791  17.269 -1.1487  0.0799  0.1326
20175TIP3   OH282015   0.187   5.857  13.480 -0.0214 -0.3258  0.1408
20175TIP3    H182016   0.158   5.906  13.402 -1.4743  0.2598  1.0073
20175TIP3    H282017   0.221   5.924  13.539 -1.1229 -0.4385  0.9456
20176TIP3   OH282018   6.361   5.687  12.936 -0.5494  0.4943  0.6056
20176TIP3    H182019   6.283   5.634  12.952  0.2712 -0.5932  1.1903
20176TIP3    H282020   6.403   5.647  12.860 -1.4548  2.1711 -0.8373
20177TIP3   OH282021   5.891   5.990  16.554  0.0540 -0.7307 -0.4985
20177TIP3    H182022   5.879   5.895  16.548  0.7068 -0.8484 -0.0366
20177TIP3    H282023   5.819   6.026  16.502  0.1510 -1.4838 -1.1734
20178TIP3   OH282024   1.120   0.643  15.562  0.0179  0.0338  0.3964
20178TIP3    H182025   1.026   0.627  15.556  0.1204 -1.0616  1.3026
20178TIP3    H282026   1.159   0.556  15.566  0.9401  0.4753  1.7454
20179TIP3   OH282027   1.458   2.951  10.825 -0.2602  0.1066 -0.3441
20179TIP3    H182028   1.428   3.020  10.766 -1.1950 -0.5844 -0.7049
20179TIP3    H282029   1.402   2.876  10.804 -0.6364 -0.1564  1.4255
20180TIP3   OH282030   5.566   0.703  12.470 -0.1257  0.1932  0.3714
20180TIP3    H182031   5.588   0.628  12.525  0.4509 -0.4776 -0.7319
20180TIP3    H282032   5.578   0.779  12.526 -1.0132 -0.5460  1.5993
20181TIP3   OH282033   3.205   3.779  13.062 -0.2644 -0.2232 -0.1561
20181TIP3    H182034   3.183   3.851  13.004 -0.2716  0.7680  1.0531
20181TIP3    H282035   3.127   3.723  13.063 -0.1259 -0.4666 -1.3752
20182TIP3   OH282036   4.636   2.774  15.723  0.0857  0.3783 -0.1059
20182TIP3    H182037   4.692   2.848  15.701 -0.0934  0.4883 -0.1927
20182TIP3    H282038   4.600   2.745  15.639 -1.5212  1.5315  0.1459
20183TIP3   OH282039   4.486   6.609  15.721 -0.3384 -0.2564 -0.0253
20183TIP3    H182040   4.502   6.581  15.631  0.8235  0.9060 -0.2128
20183TIP3    H282041   4.574   6.615  15.759 -0.8827 -3.0039  1.9518
20184TIP3   OH282042   0.289   1.041  16.329 -0.1031 -0.0611  0.3513
20184TIP3    H182043   0.342   1.120  16.326  1.5501 -1.1435 -1.3334
20184TIP3    H282044   0.345   0.973  16.292 -1.6706 -1.9084  1.1944
20185TIP3   OH282045   1.544   3.177   0.485 -0.4098  0.9796  0.5209
20185TIP3    H182046   1.507   3.100   0.442 -2.2773  0.0522  3.5640
20185TIP3    H282047   1.635   3.152   0.504 -1.4019 -1.2097  2.8781
20186TIP3   OH282048   2.623   2.417  12.990 -0.0180 -0.3753  0.2925
20186TIP3    H182049   2.692   2.481  13.010  0.8368 -1.1787  0.0144
20186TIP3    H282050   2.626   2.355  13.063  0.8602 -1.4604 -0.6122
20187TIP3   OH282051   2.895   3.088   2.279  0.0785  0.7650 -0.3277
20187TIP3    H182052   2.825   3.151   2.261  1.2857  2.6632  1.2430
20187TIP3    H282053   2.931   3.068   2.192 -1.7008  0.5112 -1.0659
20188TIP3   OH282054   5.274   4.393   3.584 -0.1619 -0.1764  0.0073
20188TIP3    H182055   5.321   4.461   3.535  1.3389 -0.8806  0.4116
20188TIP3    H282056   5.326   4.314   3.571 -0.9528 -0.8714  0.9240
20189TIP3   OH282057   3.954   5.260   1.505  0.2250 -0.1735 -0.1227
20189TIP3    H182058   3.988   5.297   1.586  0.5676  0.0114 -0.3462
20189TIP3    H282059   4.020   5.196   1.478 -0.3468 -0.9313  0.2447
20190TIP3   OH282060   0.152   0.251   4.701 -0.4370 -0.3616 -0.2141
20190TIP3    H182061   0.241   0.257   4.736 -0.5179 -0.0291 -0.0592
20190TIP3    H282062   0.164   0.234   4.608 -0.2066  0.0760 -0.2661
20191TIP3   OH282063   3.174   3.286   5.349  0.0103 -0.5664  0.3998
20191TIP3    H182064   3.166   3.305   5.255 -1.2582 -0.0637  0.6010
20191TIP3    H282065   3.113   3.214   5.364  1.3317 -1.6954  0.5713
20192TIP3   OH282066   1.450   3.671  13.484  0.3454 -0.4958  0.8368
20192TIP3    H182067   1.441   3.728  13.561 -3.0252 -0.8434  0.8539
20192TIP3    H282068   1.470   3.731  13.412  1.6882  0.0596  1.6456
20193TIP3   OH282069   0.638   3.725  16.030 -0.0323 -0.7450  0.1909
20193TIP3    H182070   0.631   3.652  15.969 -1.2305 -0.9355  0.5283
20193TIP3    H282071   0.666   3.686  16.112  4.8344 -0.1328 -0.8505
20194TIP3   OH282072   2.291   0.189   2.368 -0.0173 -0.2109  0.2689
20194TIP3    H182073   2.261   0.099   2.352  2.5506 -1.0883 -0.1299
20194TIP3    H282074   2.306   0.224   2.280  1.4068 -0.3301  0.4385
20195TIP3   OH282075   4.398   0.475   5.812 -0.1380 -0.1728  0.3526
20195TIP3    H182076   4.347   0.552   5.786 -0.4467 -0.3609  0.3900
20195TIP3    H282077   4.414   0.428   5.730  1.6573  0.8719  0.0509
20196TIP3   OH282078   1.796   5.868   4.271 -0.2325 -0.1751 -0.6088
20196TIP3    H182079   1.819   5.890   4.181  2.3832 -2.8829 -0.7723
20196TIP3    H282080   1.866   5.906   4.324 -2.2636  2.2591  0.5386
20197TIP3   OH282081   0.343   2.081   5.687  0.0030  0.4719  0.2369
20197TIP3    H182082   0.291   2.147   5.640  1.3390  0.8206 -0.8307
20197TIP3    H282083   0.382   2.028   5.617  2.2677  1.1545  0.8884
20198TIP3   OH282084   4.495   5.092   3.344 -0.3234  0.2186 -0.3067
20198TIP3    H182085   4.522   5.038   3.418  0.0374  1.5111  0.5393
20198TIP3    H282086   4.399   5.092   3.347 -0.3046  0.5485  0.3861
20199TIP3   OH282087   0.121   0.903   1.081  1.1204 -0.4348 -0.2645
20199TIP3    H182088   0.101   0.967   1.012 -1.5519 -1.9476 -1.0500
20199TIP3    H282089   0.173   0.836   1.036  0.4330 -0.8086 -0.5138
20200TIP3   OH282090   0.844   0.598  15.511 -0.0115  0.2116  0.2329
20200TIP3    H182091   0.814   0.594  15.601  0.5678  2.0388  0.5354
20200TIP3    H282092   0.798   0.526  15.467 -1.2663  0.0956  1.6788
20201TIP3   OH282093   3.038   0.232  14.407 -0.9461 -0.3285 -0.1641
20201TIP3    H182094   2.977   0.217  14.334  1.3247 -2.3835 -1.8245
20201TIP3    H282095   3.057   0.144  14.440  0.1353  0.3641  1.1475
20202TIP3   OH282096   3.432   6.061  14.334 -0.3588  0.2235  0.2880
20202TIP3    H182097   3.518   6.101  14.346 -0.3039  0.3356 -0.4714
20202TIP3    H282098   3.429   6.037  14.242 -0.2086 -1.9614  0.8128
20203TIP3   OH282099   5.651   2.189  11.618 -0.3619 -0.2978  0.1527
20203TIP3    H182100   5.714   2.127  11.581  0.3243 -0.5941  1.7242
20203TIP3    H282101   5.629   2.153  11.704 -0.6801  1.1465  0.7072
20204TIP3   OH282102   1.345   3.341  16.141 -0.3712 -0.2608  0.6855
20204TIP3    H182103   1.308   3.382  16.219 -2.8713 -1.2116  0.0878
20204TIP3    H282104   1.318   3.250  16.147  0.6961 -0.6853 -0.5611
20205TIP3   OH282105   4.337   0.028  15.711 -0.1146 -1.0401  0.0606
20205TIP3    H182106   4.268   0.008  15.774  0.7153  1.3798  1.8731
20205TIP3    H282107   4.411  -0.025  15.738  0.6589  0.9103  2.0850
20206TIP3   OH282108   4.119   1.801  16.819  0.7931  0.0650 -0.0618
20206TIP3    H182109   4.167   1.823  16.898  0.7639  0.0768 -0.0474
20206TIP3    H282110   4.149   1.713  16.796 -0.5347 -0.7142  1.0088
20207TIP3   OH282111   5.349   2.143   4.981  0.1231  0.2568  0.1882
20207TIP3    H182112   5.395   2.214   5.026  0.8988 -0.2333  0.1904
20207TIP3    H282113   5.277   2.120   5.040 -0.1947  1.1032  0.1412
20208TIP3   OH282114   6.583   1.840  15.807 -0.3916 -0.3145 -0.1638
20208TIP3    H182115   6.543   1.754  15.819 -0.7644 -0.1541 -0.2451
20208TIP3    H282116   6.535   1.897  15.867 -1.1421  0.1457 -1.1695
20209TIP3   OH282117   3.102   5.231  11.178  0.1533 -0.1635  0.0061
20209TIP3    H182118   3.111   5.234  11.082 -2.9744 -0.0252 -0.3852
20209TIP3    H282119   3.192   5.223  11.210  1.2016 -2.6025 -3.0226
20210TIP3   OH282120   0.874   6.065  13.816 -0.3248  0.4651  0.0205
20210TIP3    H182121   0.882   6.098  13.905 -0.1573 -2.6515  1.2658
20210TIP3    H282122   0.883   6.143  13.761 -0.3222  2.4815  2.6735
20211TIP3   OH282123   3.206   5.021  11.466 -0.2950 -0.0891  0.3441
20211TIP3    H182124   3.170   4.933  11.474 -0.6930  0.0083 -0.3284
20211TIP3    H282125   3.300   5.007  11.456 -0.5685 -0.5966 -2.0599
20212TIP3   OH282126   6.003   5.505   3.440  0.3030  0.2202  0.9010
20212TIP3    H182127   6.084   5.538   3.478  1.6260 -3.2007  1.4141
20212TIP3    H282128   5.951   5.476   3.515  0.9539 -2.3714  0.4498
20213TIP3   OH282129   1.280   0.969   5.411 -0.0915  0.0055 -0.3565
20213TIP3    H182130   1.365   1.010   5.395 -0.2823  1.0375  1.1091
20213TIP3    H282131   1.296   0.875   5.402  1.3643  0.1445  0.5768
20214TIP3   OH282132   0.778   1.533   2.095  0.1346 -0.1957  0.1308
20214TIP3    H182133   0.758   1.444   2.126  1.5060  0.1919  2.2532
20214TIP3    H282134   0.701   1.584   2.120  0.8491 -0.0733  2.2149
20215TIP3   OH282135   0.260   6.737   6.035 -0.3031  0.4653 -0.4375
20215TIP3    H182136   0.168   6.710   6.037 -0.3524  0.6394 -0.3833
20215TIP3    H282137   0.260   6.827   6.067 -0.0326  0.2403  0.2021
20216TIP3   OH282138   2.192   4.318   0.099  0.1286 -0.3175 -0.2929
20216TIP3    H182139   2.100   4.292   0.106  0.1669 -0.4368 -0.2291
20216TIP3    H282140   2.232   4.285   0.180  0.5819 -1.6942 -1.0406
20217TIP3   OH282141   5.248   6.464  16.269  0.0808  0.1039 -0.1628
20217TIP3    H182142   5.255   6.415  16.187  1.5186  0.8199 -0.5057
20217TIP3    H282143   5.288   6.406  16.334  1.0359  0.4523 -0.4177
20218TIP3   OH282144   4.402   3.174  13.936  0.2782  0.3807  0.8642
20218TIP3    H182145   4.375   3.172  14.027 -2.2979  2.3796  0.2658
20218TIP3    H282146   4.433   3.264  13.922 -0.7435  0.5521 -0.5307
20219TIP3   OH282147   3.879   3.599  15.312  0.5883  0.3403  0.6729
20219TIP3    H182148   3.901   3.615  15.403  3.1298 -0.4798  0.2788
20219TIP3    H282149   3.962   3.608  15.265 -0.0798 -1.9976 -1.1437
20220TIP3   OH282150   0.202   4.840  13.358 -0.0728  0.0211 -0.3292
20220TIP3    H182151   0.110   4.814  13.367 -0.1997 -0.0070 -1.5709
20220TIP3    H282152   0.199   4.919  13.305  0.5506  0.6918  0.6110
20221TIP3   OH282153   5.219   4.078   1.977  0.0708  0.6694 -0.5031
20221TIP3    H182154   5.312   4.103   1.975  0.1784  0.2377 -0.9273
20221TIP3    H282155   5.212   4.020   2.052  0.1667  0.6016 -0.5468
20222TIP3   OH282156   5.254   4.841   5.013  0.4320 -0.6310  0.6508
20222TIP3    H182157   5.201   4.912   5.048  0.5644 -0.1306 -0.1321
20222TIP3    H282158   5.312   4.883   4.950  2.5097 -0.9832  2.2100
20223TIP3   OH282159   0.525   6.680  14.588 -0.8849  0.0805  0.2551
20223TIP3    H182160   0.505   6.713  14.501  2.9630 -1.7535 -1.5580
20223TIP3    H282161   0.478   6.597  14.594 -0.4471 -0.2372 -0.5281
20224TIP3   OH282162   0.782   2.092   0.326 -0.1999 -0.1855 -0.5419
20224TIP3    H182163   0.834   2.022   0.286 -0.9411 -0.5225 -0.9457
20224TIP3    H282164   0.698   2.089   0.279 -1.1918 -0.7196  1.1736
20225TIP3   OH282165   1.638   3.153  13.253  0.6599  0.0130  0.0495
20225TIP3    H182166   1.636   3.214  13.326 -0.3765 -1.1048  0.9951
20225TIP3    H282167   1.639   3.209  13.175  2.4151  1.2185  0.8939
20226TIP3   OH282168   0.924   6.100   3.959  0.2455 -0.0340 -0.1886
20226TIP3    H182169   0.930   6.068   3.869  0.4843  0.2675 -0.2833
20226TIP3    H282170   1.011   6.082   3.996  1.6507  3.5502 -1.2865
20227TIP3   OH282171   2.432   2.232  13.935 -0.0037 -0.5210 -0.9575
20227TIP3    H182172   2.353   2.182  13.917 -0.4054 -0.1584 -0.2583
20227TIP3    H282173   2.451   2.215  14.027  0.2443  0.0577 -0.8954
20228TIP3   OH282174   1.428   3.259   3.624 -0.0689  0.1150  0.4036
20228TIP3    H182175   1.497   3.315   3.589  0.6116 -0.0363  1.4353
20228TIP3    H282176   1.431   3.274   3.719 -0.3359 -1.1177  0.6322
20229TIP3   OH282177   4.265   2.052  17.112  0.5431  0.4705  0.1253
20229TIP3    H182178   4.276   2.095  17.026 -1.0484 -0.0386 -0.3691
20229TIP3    H282179   4.189   2.095  17.150  0.8230  0.2113  0.9844
20230TIP3   OH282180   2.721   4.030   5.815  0.3904 -1.0280  0.3043
20230TIP3    H182181   2.643   4.054   5.764  0.7379 -1.6047 -0.5233
20230TIP3    H282182   2.734   4.103   5.875 -0.6926 -0.8510  0.3392
20231TIP3   OH282183   4.837   3.149  15.320 -0.3458  0.2322  0.3416
20231TIP3    H182184   4.897   3.176  15.250  0.3234  0.4941  1.0050
20231TIP3    H282185   4.753   3.139  15.276 -0.7512  3.7063  0.0518
20232TIP3   OH282186   5.211   4.788  12.661  0.3708  0.5884 -0.3323
20232TIP3    H182187   5.160   4.856  12.617  0.1785  0.4371 -0.3445
20232TIP3    H282188   5.162   4.770  12.741 -0.1481 -0.2812 -0.8286
20233TIP3   OH282189   1.648   6.434   0.109 -0.3463 -0.2617 -0.0048
20233TIP3    H182190   1.596   6.359   0.135 -0.9445 -0.2744 -1.1579
20233TIP3    H282191   1.731   6.396   0.078  0.1565 -0.2795  1.3079
20234TIP3   OH282192   1.139   6.379  12.178  0.2208  0.0407 -0.7983
20234TIP3    H182193   1.061   6.340  12.139 -0.5884  1.0157 -0.1843
20234TIP3    H282194   1.106   6.445  12.238  1.5305  0.7374 -0.8051
20235TIP3   OH282195   1.863   3.469   4.700  0.6488 -0.2966  0.0707
20235TIP3    H182196   1.782   3.470   4.649 -0.4302  0.9370  1.6948
20235TIP3    H282197   1.932   3.479   4.635 -0.5920 -0.0228 -1.2616
20236TIP3   OH282198   2.073   4.843  14.497  0.1633 -0.5365 -0.0730
20236TIP3    H182199   2.062   4.802  14.411 -0.1233  0.3713 -0.4833
20236TIP3    H282200   2.051   4.935  14.483  2.8937  0.2773  0.3225
20237TIP3   OH282201   0.191   2.831  11.525 -0.2405 -0.2682 -0.0958
20237TIP3    H182202   0.272   2.849  11.573 -0.7702 -0.1679  0.7590
20237TIP3    H282203   0.178   2.908  11.470  0.0661 -0.1411  0.0064
20238TIP3   OH282204   3.852   5.232   3.547  0.2208 -0.4102 -0.5163
20238TIP3    H182205   3.927   5.290   3.538  1.2513 -1.2436  1.8808
20238TIP3    H282206   3.884   5.158   3.599 -2.4502 -0.3264  1.4819
20239TIP3   OH282207   5.507   0.863  11.218  0.3953 -0.2075  0.2284
20239TIP3    H182208   5.436   0.801  11.200 -0.3912  0.3521  1.2977
20239TIP3    H282209   5.481   0.944  11.173  0.5864 -0.1380  0.2394
20240TIP3   OH282210   5.721   6.608   5.897 -0.0478 -0.6691  0.0371
20240TIP3    H182211   5.764   6.539   5.948  1.6522  1.2855  1.3996
20240TIP3    H282212   5.657   6.646   5.957 -1.0811 -1.1097 -0.7572
20241TIP3   OH282213   2.468   3.926  12.937  0.2371 -0.8239 -0.6956
20241TIP3    H182214   2.404   3.906  12.869  0.1603 -0.6117 -0.6867
20241TIP3    H282215   2.444   3.869  13.011 -0.9383  0.3858 -0.0987
20242TIP3   OH282216   0.348   3.866  11.624 -0.3839  0.0515  0.4484
20242TIP3    H182217   0.351   3.901  11.534 -0.6501 -1.6662 -0.2672
20242TIP3    H282218   0.354   3.771  11.613  3.4585 -0.1112  2.4809
20243TIP3   OH282219   4.673   0.600  14.320 -0.1687  0.7235  0.0607
20243TIP3    H182220   4.714   0.534  14.376  0.9879  0.0176 -1.5613
20243TIP3    H282221   4.744   0.659  14.296 -0.0790 -0.2886 -2.4649
20244TIP3   OH282222   3.482   6.170  12.557  0.1880 -0.1086  0.9792
20244TIP3    H182223   3.529   6.120  12.491  0.3420  2.0514 -0.6619
20244TIP3    H282224   3.443   6.104  12.614  0.1552 -2.0941 -1.1961
20245TIP3   OH282225   6.424   4.217   4.949 -0.0317  0.0288 -0.2545
20245TIP3    H182226   6.469   4.132   4.941  0.0890  0.2647 -2.8856
20245TIP3    H282227   6.333   4.197   4.929  0.2685  0.6877 -2.6787
20246TIP3   OH282228   3.589   1.420   4.757 -0.1624  0.1643 -0.6887
20246TIP3    H182229   3.623   1.506   4.783 -2.6149  0.2742  2.8876
20246TIP3    H282230   3.641   1.358   4.808 -0.7488 -0.1870 -0.5172
20247TIP3   OH282231   6.683   1.421   4.010  0.2966  0.3136  0.9352
20247TIP3    H182232   6.710   1.485   4.075 -0.1858  0.9498  0.5196
20247TIP3    H282233   6.598   1.389   4.042  0.1200  0.5333  0.6975
20248TIP3   OH282234   1.749   0.089   4.520  0.0174  0.1484 -0.1264
20248TIP3    H182235   1.657   0.063   4.517  0.0431 -0.0730  0.6834
20248TIP3    H282236   1.798   0.011   4.493 -0.0618  0.6206 -1.7516
20249TIP3   OH282237   1.943   1.108   3.886  0.3467 -0.4270 -0.3473
20249TIP3    H182238   1.868   1.167   3.888 -1.0536 -2.1494  0.2986
20249TIP3    H282239   1.980   1.120   3.799 -0.2889  0.9096 -0.4564
20250TIP3   OH282240   1.861   5.628   2.332  0.0482 -0.7016  0.4266
20250TIP3    H182241   1.801   5.621   2.257  0.0891 -0.2293  0.3467
20250TIP3    H282242   1.933   5.682   2.300  0.3336 -0.9538  0.6417
20251TIP3   OH282243   6.438   4.932   1.603  0.0719 -0.1796  0.0105
20251TIP3    H182244   6.521   4.916   1.648  0.0154 -0.0288  0.1728
20251TIP3    H282245   6.372   4.893   1.659  0.0908 -0.8917 -0.4548
20252TIP3   OH282246   2.775   3.140  12.471  0.4834 -0.0722  0.4147
20252TIP3    H182247   2.819   3.069  12.425  2.7618 -0.0686  2.4017
20252TIP3    H282248   2.758   3.106  12.559 -1.7975  0.6369  0.3330
20253TIP3   OH282249   0.891   2.676   2.909  0.4224 -0.0146 -0.4923
20253TIP3    H182250   0.969   2.726   2.884  1.0057 -1.4231 -1.6287
20253TIP3    H282251   0.838   2.672   2.830 -0.6902  0.6867  0.2000
20254TIP3   OH282252   5.341   4.760  16.528  0.4500  0.0180  0.0654
20254TIP3    H182253   5.345   4.700  16.454  0.9212  0.2070 -0.0599
20254TIP3    H282254   5.303   4.841  16.492  2.1758  0.6788 -0.3519
20255TIP3   OH282255   1.113   2.188   3.623  0.4246 -0.0112 -0.5612
20255TIP3    H182256   1.122   2.282   3.639 -1.4953  0.0531  0.4235
20255TIP3    H282257   1.097   2.181   3.529 -0.0823  0.7169 -0.5356
20256TIP3   OH282258   5.017   5.349  15.850  0.2059 -0.0822 -0.4358
20256TIP3    H182259   5.052   5.391  15.929 -0.6935 -0.0973 -0.0140
20256TIP3    H282260   5.080   5.279  15.831  0.4456 -0.0710  0.2617
20257TIP3   OH282261   0.907   2.493   4.359  0.2551 -0.1053  0.0818
20257TIP3    H182262   0.885   2.535   4.443  0.4593  0.4268 -0.1228
20257TIP3    H282263   0.863   2.409   4.362  1.2072 -0.5901  1.2212
20258TIP3   OH282264   5.188   2.946  15.231  0.4686  0.1233  0.3716
20258TIP3    H182265   5.216   2.944  15.322 -1.0999  0.0283  0.8916
20258TIP3    H282266   5.150   3.033  15.220  2.1895  0.7823 -0.7220
20259TIP3   OH282267   6.331   2.326  16.200  0.0823  0.4129  0.8138
20259TIP3    H182268   6.293   2.405  16.238 -0.8966  0.4331 -0.1586
20259TIP3    H282269   6.255   2.269  16.183  0.6149 -0.0749  0.0092
20260TIP3   OH282270   5.169   5.864   0.856 -0.7054 -0.2308 -0.7344
20260TIP3    H182271   5.145   5.906   0.773  0.5008  0.3753 -0.7999
20260TIP3    H282272   5.115   5.909   0.921 -1.4040 -0.4663 -1.1381
20261TIP3   OH282273   6.462   5.353  10.454  0.3128  0.1413 -0.2865
20261TIP3    H182274   6.398   5.411  10.494  0.3254 -1.2079  1.8183
20261TIP3    H282275   6.448   5.268  10.496  1.7928 -0.8235 -1.6161
20262TIP3   OH282276   0.241   5.310   0.711  0.5058  0.4872  0.2338
20262TIP3    H182277   0.256   5.398   0.745  0.8475  0.5514 -0.0822
20262TIP3    H282278   0.162   5.318   0.658 -0.2179  0.3212  1.2496
20263LIG     O182279   1.695   1.739  16.388 -0.2004  0.1271 -0.1755
20263LIG     O282280   1.949   1.396  16.583  0.0429 -0.1981  0.7562
20263LIG     N182281   1.724   1.413  16.640 -0.3692  0.3299 -0.3124
20263LIG     N282282   1.446   1.595  16.523  0.3135  0.1588  0.2925
20263LIG     N382283   1.825   1.569  16.481 -0.5931 -0.0638  0.1028
20263LIG     N482284   1.479   1.436  16.670 -0.3544 -0.0841  0.0716
20263LIG     C182285   1.587   1.576  16.527  0.3442  0.2838 -0.5821
20263LIG     C282286   1.604   1.473  16.622  1.5644 -0.3759  0.3376
20263LIG     C382287   1.699   1.638  16.460 -0.6712  0.4432 -0.2296
20263LIG     C482288   1.840   1.455  16.563 -0.8560  0.4480 -0.4541
20263LIG     C582289   1.392   1.506  16.603 -0.5637  0.4190 -0.8832
20263LIG     C682290   1.743   1.303  16.739  0.3807 -0.6583 -0.6030
20263LIG     C782291   1.370   1.687  16.434 -0.0392 -0.1392  0.1473
20263LIG     C882292   1.941   1.627  16.405  0.8091 -0.3263  0.0864
20263LIG     H182293   1.284   1.500  16.607 -0.5512 -0.2444 -1.4147
20263LIG     H282294   1.806   1.227  16.690 -2.3001 -0.6888 -4.4726
20263LIG     H382295   1.645   1.252  16.755 -0.1889  0.7079  0.4636
20263LIG     H482296   1.775   1.346  16.836 -2.1171 -0.4775  0.2276
20263LIG     H582297   1.378   1.794  16.465  1.1834  0.2779 -1.4713
20263LIG     H682298   1.260   1.677  16.428 -0.5047  2.0448  2.7258
20263LIG     H782299   1.407   1.689  16.329  0.5735  0.8577  0.3568
20263LIG     H882300   1.919   1.617  16.297  2.7758 -1.2908 -0.2615
20263LIG     H982301   2.030   1.565  16.426  0.3089 -1.4348 -0.9476
20263LIG    H1082302   1.968   1.730  16.434  0.7122 -0.0145 -0.9052
   6.82884   6.82884  17.20914
